                         Program Version 4.2.1 -  RELEASE  -
|  1> ! wB97X-D3 SP def2-SVP
|  2> %pal
|  3> nprocs 16
|  4> end
|  5>
|  6> * xyz 0 1
|  7> S 	 -36.7721 	 25.0891 	 82.5622
|  8> C 	 -37.4733 	 23.6858 	 81.9546
|  9> C 	 -36.9803 	 22.5694 	 82.6599
| 10> C 	 -35.801 	 22.9739 	 83.4102
| 11> C 	 -35.4537 	 24.3136 	 83.4394
| 12> H 	 -35.2996 	 22.2523 	 83.9876
| 13> C 	 -37.4779 	 21.1568 	 82.4988
| 14> H 	 -36.6181 	 20.3876 	 82.557
| 15> H 	 -38.0062 	 21.0415 	 81.5103
| 16> C 	 -38.3384 	 20.7151 	 83.665
| 17> H 	 -38.5964 	 19.6664 	 83.6491
| 18> H 	 -37.7768 	 20.8881 	 84.5726
| 19> C 	 -39.6187 	 21.4319 	 83.9519
| 20> H 	 -39.5252 	 22.4708 	 84.1546
| 21> H 	 -40.3434 	 21.0953 	 83.1637
| 22> H 	 -39.956 	 21.0247 	 84.8946
| 23> S 	 -34.5283 	 26.2887 	 85.145
| 24> C 	 -32.8579 	 26.3452 	 85.574
| 25> C 	 -32.1509 	 25.4378 	 84.8923
| 26> C 	 -32.9931 	 24.5378 	 84.1318
| 27> C 	 -34.3015 	 24.9055 	 84.1364
| 28> H 	 -31.0632 	 25.6895 	 84.9522
| 29> C 	 -32.3634 	 23.5357 	 83.1833
| 30> H 	 -33.1227 	 22.7674 	 82.9465
| 31> H 	 -31.5277 	 22.9953 	 83.6813
| 32> C 	 -31.7363 	 24.2174 	 81.9238
| 33> H 	 -31.0989 	 25.0576 	 82.2165
| 34> H 	 -32.4754 	 24.6624 	 81.2896
| 35> C 	 -30.7739 	 23.3166 	 81.1022
| 36> H 	 -30.4814 	 23.6197 	 80.0755
| 37> H 	 -31.2023 	 22.2897 	 81.0606
| 38> H 	 -29.8544 	 23.1426 	 81.6729
| 39> H 	 -38.3313 	 23.7269 	 81.3507
| 40> H 	 -32.4217 	 27.2212 	 86.0557
| 41> *
| 42>
| 43>                          ****END OF INPUT****

CARTESIAN COORDINATES (ANGSTROEM)
---------------------------------
  S    -36.772100   25.089100   82.562200
  C    -37.473300   23.685800   81.954600
  C    -36.980300   22.569400   82.659900
  C    -35.801000   22.973900   83.410200
  C    -35.453700   24.313600   83.439400
  H    -35.299600   22.252300   83.987600
  C    -37.477900   21.156800   82.498800
  H    -36.618100   20.387600   82.557000
  H    -38.006200   21.041500   81.510300
  C    -38.338400   20.715100   83.665000
  H    -38.596400   19.666400   83.649100
  H    -37.776800   20.888100   84.572600
  C    -39.618700   21.431900   83.951900
  H    -39.525200   22.470800   84.154600
  H    -40.343400   21.095300   83.163700
  H    -39.956000   21.024700   84.894600
  S    -34.528300   26.288700   85.145000
  C    -32.857900   26.345200   85.574000
  C    -32.150900   25.437800   84.892300
  C    -32.993100   24.537800   84.131800
  C    -34.301500   24.905500   84.136400
  H    -31.063200   25.689500   84.952200
  C    -32.363400   23.535700   83.183300
  H    -33.122700   22.767400   82.946500
  H    -31.527700   22.995300   83.681300
  C    -31.736300   24.217400   81.923800
  H    -31.098900   25.057600   82.216500
  H    -32.475400   24.662400   81.289600
  C    -30.773900   23.316600   81.102200
  H    -30.481400   23.619700   80.075500
  H    -31.202300   22.289700   81.060600
  H    -29.854400   23.142600   81.672900
  H    -38.331300   23.726900   81.350700
  H    -32.421700   27.221200   86.055700

 Total Charge           Charge          ....    0
 Multiplicity           Mult            ....    1
 Number of Electrons    NEL             ....  134
 Basis Dimension        Dim             ....  322

ORBITAL ENERGIES
----------------

  NO   OCC          E(Eh)            E(eV)
   0   2.0000     -88.965559     -2420.8759
   1   2.0000     -88.960920     -2420.7497
   2   2.0000     -10.335117      -281.2328
   3   2.0000     -10.329835      -281.0891
   4   2.0000     -10.314538      -280.6729
   5   2.0000     -10.310876      -280.5732
   6   2.0000     -10.306749      -280.4609
   7   2.0000     -10.305757      -280.4339
   8   2.0000     -10.302605      -280.3481
   9   2.0000     -10.295966      -280.1675
  10   2.0000     -10.294925      -280.1392
  11   2.0000     -10.294487      -280.1272
  12   2.0000     -10.285285      -279.8768
  13   2.0000     -10.280963      -279.7592
  14   2.0000     -10.278536      -279.6932
  15   2.0000     -10.270396      -279.4717
  16   2.0000      -8.081283      -219.9029
  17   2.0000      -8.077166      -219.7909
  18   2.0000      -6.039808      -164.3515
  19   2.0000      -6.035627      -164.2378
  20   2.0000      -6.035429      -164.2324
  21   2.0000      -6.032163      -164.1435
  22   2.0000      -6.031543      -164.1266
  23   2.0000      -6.027791      -164.0245
  24   2.0000      -1.014950       -27.6182
  25   2.0000      -0.995169       -27.0799
  26   2.0000      -0.917301       -24.9610
  27   2.0000      -0.903030       -24.5727
  28   2.0000      -0.878573       -23.9072
  29   2.0000      -0.850587       -23.1456
  30   2.0000      -0.844878       -22.9903
  31   2.0000      -0.824025       -22.4229
  32   2.0000      -0.781630       -21.2692
  33   2.0000      -0.771226       -20.9861
  34   2.0000      -0.708701       -19.2847
  35   2.0000      -0.697194       -18.9716
  36   2.0000      -0.689280       -18.7563
  37   2.0000      -0.658035       -17.9060
  38   2.0000      -0.644528       -17.5385
  39   2.0000      -0.627315       -17.0701
  40   2.0000      -0.595038       -16.1918
  41   2.0000      -0.578625       -15.7452
  42   2.0000      -0.557315       -15.1653
  43   2.0000      -0.554357       -15.0848
  44   2.0000      -0.545594       -14.8464
  45   2.0000      -0.524002       -14.2588
  46   2.0000      -0.520130       -14.1534
  47   2.0000      -0.513133       -13.9630
  48   2.0000      -0.511868       -13.9286
  49   2.0000      -0.501794       -13.6545
  50   2.0000      -0.488615       -13.2959
  51   2.0000      -0.485794       -13.2191
  52   2.0000      -0.472412       -12.8550
  53   2.0000      -0.462434       -12.5835
  54   2.0000      -0.457733       -12.4555
  55   2.0000      -0.445502       -12.1227
  56   2.0000      -0.439611       -11.9624
  57   2.0000      -0.433753       -11.8030
  58   2.0000      -0.431863       -11.7516
  59   2.0000      -0.422840       -11.5061
  60   2.0000      -0.414570       -11.2810
  61   2.0000      -0.413318       -11.2470
  62   2.0000      -0.409543       -11.1442
  63   2.0000      -0.360015        -9.7965
  64   2.0000      -0.329543        -8.9673
  65   2.0000      -0.324085        -8.8188
  66   2.0000      -0.297450        -8.0940
  67   0.0000       0.030882         0.8403
  68   0.0000       0.071132         1.9356
  69   0.0000       0.113635         3.0922
  70   0.0000       0.123154         3.3512
  71   0.0000       0.126591         3.4447

MULLIKEN ATOMIC CHARGES
-----------------------
   0 S :    0.112274
   1 C :   -0.094278
   2 C :   -0.109023
   3 C :    0.033096
   4 C :   -0.122780
   5 H :   -0.003786
   6 C :    0.053099
   7 H :    0.042639
   8 H :    0.036071
   9 C :   -0.090504
  10 H :    0.027327
  11 H :    0.015739
  12 C :   -0.036126
  13 H :    0.036935
  14 H :    0.032254
  15 H :    0.019893
  16 S :    0.094892
  17 C :   -0.101683
  18 C :   -0.056389
  19 C :   -0.045178
  20 C :   -0.138275
  21 H :    0.044160
  22 C :    0.063035
  23 H :    0.027031
  24 H :    0.024693
  25 C :   -0.055296
  26 H :    0.023922
  27 H :    0.030342
  28 C :   -0.070339
  29 H :    0.047290
  30 H :    0.026821
  31 H :    0.025972
  32 H :    0.043158
  33 H :    0.063015
Sum of atomic charges:    0.0000000

LOEWDIN ATOMIC CHARGES
----------------------
   0 S :    0.430874
   1 C :   -0.200733
   2 C :   -0.066702
   3 C :   -0.057057
   4 C :   -0.197391
   5 H :    0.018657
   6 C :   -0.039729
   7 H :    0.042840
   8 H :    0.034589
   9 C :   -0.050870
  10 H :    0.023618
  11 H :    0.022426
  12 C :   -0.064480
  13 H :    0.020829
  14 H :    0.027750
  15 H :    0.026831
  16 S :    0.410431
  17 C :   -0.191582
  18 C :   -0.079386
  19 C :   -0.059335
  20 C :   -0.197150
  21 H :    0.047803
  22 C :   -0.031557
  23 H :    0.031037
  24 H :    0.032317
  25 C :   -0.037764
  26 H :    0.024102
  27 H :    0.022428
  28 C :   -0.075323
  29 H :    0.030765
  30 H :    0.025211
  31 H :    0.022812
  32 H :    0.021110
  33 H :    0.032629

  Mayer bond orders larger than 0.100000
B(  0-S ,  1-C ) :   1.1856 B(  0-S ,  4-C ) :   1.1441 B(  1-C ,  2-C ) :   1.5353
B(  1-C ,  4-C ) :   0.1016 B(  1-C , 32-H ) :   0.9765 B(  2-C ,  3-C ) :   1.2856
B(  2-C ,  6-C ) :   1.0302 B(  3-C ,  4-C ) :   1.5430 B(  3-C ,  5-H ) :   0.9927
B(  4-C , 20-C ) :   1.0433 B(  6-C ,  7-H ) :   0.9415 B(  6-C ,  8-H ) :   0.9470
B(  6-C ,  9-C ) :   1.0606 B(  9-C , 10-H ) :   0.9563 B(  9-C , 11-H ) :   0.9545
B(  9-C , 12-C ) :   1.0931 B( 12-C , 13-H ) :   0.9713 B( 12-C , 14-H ) :   0.9753
B( 12-C , 15-H ) :   0.9694 B( 16-S , 17-C ) :   1.1451 B( 16-S , 20-C ) :   1.1368
B( 17-C , 18-C ) :   1.6713 B( 17-C , 33-H ) :   0.9599 B( 18-C , 19-C ) :   1.1837
B( 18-C , 21-H ) :   0.9817 B( 19-C , 20-C ) :   1.6348 B( 19-C , 22-C ) :   1.0659
B( 22-C , 23-H ) :   0.9260 B( 22-C , 24-H ) :   0.9351 B( 22-C , 25-C ) :   1.0530
B( 25-C , 26-H ) :   0.9601 B( 25-C , 27-H ) :   0.9582 B( 25-C , 28-C ) :   1.0691
B( 28-C , 29-H ) :   0.9758 B( 28-C , 30-H ) :   0.9761 B( 28-C , 31-H ) :   0.9757

Dispersion correction           -0.014063733
FINAL SINGLE POINT ENERGY     -1339.866860980622

DIPOLE MOMENT
-------------
                                X             Y             Z
Electronic contribution:     -3.26095      20.58508       7.46567
Nuclear contribution   :      3.48501     -20.99061      -7.56108
                        -----------------------------------------
Total Dipole Moment    :      0.22406      -0.40553      -0.09541
                        -----------------------------------------
Magnitude (a.u.)       :      0.47303
Magnitude (Debye)      :      1.20235

Rotational constants in cm-1:     0.019484     0.008060     0.006715
Rotational constants in MHz :   584.119732   241.629743   201.302988

                             ****ORCA TERMINATED NORMALLY****
TOTAL RUN TIME: 0 days 0 hours 0 minutes 29 seconds 561 msec
