                         Program Version 4.2.1 -  RELEASE  -
|  1> ! wB97X-D3 SP def2-SVP
|  2> %pal
|  3> nprocs 16
|  4> end
|  5>
|  6> * xyz 0 1
|  7> S 	 -28.3424 	 -2.68042 	 104.188
|  8> C 	 -27.7632 	 -3.09584 	 105.759
|  9> C 	 -26.6472 	 -2.35438 	 106.132
| 10> C 	 -26.2487 	 -1.52931 	 105.074
| 11> C 	 -27.1545 	 -1.42703 	 103.985
| 12> H 	 -25.4282 	 -0.904079 	 105.06
| 13> C 	 -25.7305 	 -2.47081 	 107.333
| 14> H 	 -26.4609 	 -2.94534 	 108.019
| 15> H 	 -25.5201 	 -1.4536 	 107.718
| 16> C 	 -24.4261 	 -3.3666 	 107.125
| 17> H 	 -23.9847 	 -2.9968 	 106.2
| 18> H 	 -23.8458 	 -3.14627 	 107.996
| 19> C 	 -24.6345 	 -4.9195 	 106.878
| 20> H 	 -25.5281 	 -5.09416 	 106.276
| 21> H 	 -23.8416 	 -5.27305 	 106.241
| 22> H 	 -24.6481 	 -5.59488 	 107.703
| 23> S 	 -26.6873 	 -1.58107 	 101.201
| 24> C 	 -26.5421 	 -0.117696 	 100.264
| 25> C 	 -26.7801 	 0.939054 	 101.097
| 26> C 	 -26.8661 	 0.646199 	 102.5
| 27> C 	 -26.9431 	 -0.747168 	 102.733
| 28> H 	 -26.9035 	 1.96504 	 100.723
| 29> C 	 -26.8716 	 1.77166 	 103.471
| 30> H 	 -26.2304 	 2.55792 	 103.093
| 31> H 	 -26.3685 	 1.62437 	 104.429
| 32> C 	 -28.1908 	 2.36453 	 103.894
| 33> H 	 -28.7952 	 1.70867 	 104.486
| 34> H 	 -28.8451 	 2.56851 	 102.979
| 35> C 	 -27.9915 	 3.55855 	 104.839
| 36> H 	 -27.5544 	 3.30935 	 105.768
| 37> H 	 -28.9404 	 4.05116 	 105.014
| 38> H 	 -27.2874 	 4.29807 	 104.35
| 39> H 	 -28.0318 	 -3.88264 	 106.449
| 40> H 	 -26.5769 	 0.0441343 	 99.1936
| 41> *
| 42>
| 43>                          ****END OF INPUT****

CARTESIAN COORDINATES (ANGSTROEM)
---------------------------------
  S    -28.342400   -2.680420  104.188000
  C    -27.763200   -3.095840  105.759000
  C    -26.647200   -2.354380  106.132000
  C    -26.248700   -1.529310  105.074000
  C    -27.154500   -1.427030  103.985000
  H    -25.428200   -0.904079  105.060000
  C    -25.730500   -2.470810  107.333000
  H    -26.460900   -2.945340  108.019000
  H    -25.520100   -1.453600  107.718000
  C    -24.426100   -3.366600  107.125000
  H    -23.984700   -2.996800  106.200000
  H    -23.845800   -3.146270  107.996000
  C    -24.634500   -4.919500  106.878000
  H    -25.528100   -5.094160  106.276000
  H    -23.841600   -5.273050  106.241000
  H    -24.648100   -5.594880  107.703000
  S    -26.687300   -1.581070  101.201000
  C    -26.542100   -0.117696  100.264000
  C    -26.780100    0.939054  101.097000
  C    -26.866100    0.646199  102.500000
  C    -26.943100   -0.747168  102.733000
  H    -26.903500    1.965040  100.723000
  C    -26.871600    1.771660  103.471000
  H    -26.230400    2.557920  103.093000
  H    -26.368500    1.624370  104.429000
  C    -28.190800    2.364530  103.894000
  H    -28.795200    1.708670  104.486000
  H    -28.845100    2.568510  102.979000
  C    -27.991500    3.558550  104.839000
  H    -27.554400    3.309350  105.768000
  H    -28.940400    4.051160  105.014000
  H    -27.287400    4.298070  104.350000
  H    -28.031800   -3.882640  106.449000
  H    -26.576900    0.044134   99.193600

 Total Charge           Charge          ....    0
 Multiplicity           Mult            ....    1
 Number of Electrons    NEL             ....  134
 Basis Dimension        Dim             ....  322

ORBITAL ENERGIES
----------------

  NO   OCC          E(Eh)            E(eV)
   0   2.0000     -88.971830     -2421.0466
   1   2.0000     -88.966477     -2420.9009
   2   2.0000     -10.330785      -281.1150
   3   2.0000     -10.328468      -281.0519
   4   2.0000     -10.315708      -280.7047
   5   2.0000     -10.314896      -280.6826
   6   2.0000     -10.303684      -280.3775
   7   2.0000     -10.300227      -280.2834
   8   2.0000     -10.297545      -280.2104
   9   2.0000     -10.295818      -280.1635
  10   2.0000     -10.291939      -280.0579
  11   2.0000     -10.286757      -279.9169
  12   2.0000     -10.285996      -279.8962
  13   2.0000     -10.284289      -279.8497
  14   2.0000     -10.278259      -279.6857
  15   2.0000     -10.277620      -279.6683
  16   2.0000      -8.086516      -220.0453
  17   2.0000      -8.080797      -219.8897
  18   2.0000      -6.044921      -164.4907
  19   2.0000      -6.040880      -164.3807
  20   2.0000      -6.039503      -164.3432
  21   2.0000      -6.037538      -164.2897
  22   2.0000      -6.035231      -164.2270
  23   2.0000      -6.031468      -164.1246
  24   2.0000      -1.007717       -27.4214
  25   2.0000      -0.986503       -26.8441
  26   2.0000      -0.913577       -24.8597
  27   2.0000      -0.905855       -24.6496
  28   2.0000      -0.868971       -23.6459
  29   2.0000      -0.850919       -23.1547
  30   2.0000      -0.846679       -23.0393
  31   2.0000      -0.812338       -22.1048
  32   2.0000      -0.784997       -21.3609
  33   2.0000      -0.773678       -21.0528
  34   2.0000      -0.715116       -19.4593
  35   2.0000      -0.703857       -19.1529
  36   2.0000      -0.694166       -18.8892
  37   2.0000      -0.657088       -17.8803
  38   2.0000      -0.639977       -17.4147
  39   2.0000      -0.621261       -16.9054
  40   2.0000      -0.602959       -16.4074
  41   2.0000      -0.572423       -15.5764
  42   2.0000      -0.557940       -15.1823
  43   2.0000      -0.544484       -14.8161
  44   2.0000      -0.538378       -14.6500
  45   2.0000      -0.527225       -14.3465
  46   2.0000      -0.516907       -14.0657
  47   2.0000      -0.513570       -13.9750
  48   2.0000      -0.506132       -13.7725
  49   2.0000      -0.501367       -13.6429
  50   2.0000      -0.486451       -13.2370
  51   2.0000      -0.479862       -13.0577
  52   2.0000      -0.472285       -12.8515
  53   2.0000      -0.466583       -12.6964
  54   2.0000      -0.458660       -12.4808
  55   2.0000      -0.445455       -12.1214
  56   2.0000      -0.443876       -12.0785
  57   2.0000      -0.439336       -11.9549
  58   2.0000      -0.436373       -11.8743
  59   2.0000      -0.425313       -11.5734
  60   2.0000      -0.423677       -11.5288
  61   2.0000      -0.417540       -11.3618
  62   2.0000      -0.403488       -10.9795
  63   2.0000      -0.342425        -9.3179
  64   2.0000      -0.331694        -9.0259
  65   2.0000      -0.326807        -8.8929
  66   2.0000      -0.294953        -8.0261
  67   0.0000       0.027201         0.7402
  68   0.0000       0.063628         1.7314
  69   0.0000       0.119136         3.2418
  70   0.0000       0.123850         3.3701
  71   0.0000       0.126107         3.4315

MULLIKEN ATOMIC CHARGES
-----------------------
   0 S :    0.131929
   1 C :   -0.101349
   2 C :   -0.119261
   3 C :    0.054796
   4 C :   -0.177408
   5 H :   -0.017619
   6 C :    0.036785
   7 H :    0.021648
   8 H :    0.042790
   9 C :   -0.042666
  10 H :    0.035452
  11 H :    0.039631
  12 C :   -0.047887
  13 H :    0.028638
  14 H :    0.027715
  15 H :    0.032778
  16 S :    0.111452
  17 C :   -0.076767
  18 C :   -0.053353
  19 C :   -0.010080
  20 C :   -0.145882
  21 H :    0.025976
  22 C :    0.052563
  23 H :    0.013367
  24 H :    0.007821
  25 C :   -0.075375
  26 H :    0.026838
  27 H :    0.030783
  28 C :   -0.045399
  29 H :    0.027782
  30 H :    0.036710
  31 H :    0.025499
  32 H :    0.039350
  33 H :    0.062743
Sum of atomic charges:    0.0000000

LOEWDIN ATOMIC CHARGES
----------------------
   0 S :    0.437360
   1 C :   -0.209857
   2 C :   -0.075168
   3 C :   -0.044053
   4 C :   -0.208184
   5 H :    0.014201
   6 C :   -0.036028
   7 H :    0.029993
   8 H :    0.036037
   9 C :   -0.025907
  10 H :    0.027285
  11 H :    0.023761
  12 C :   -0.067135
  13 H :    0.027702
  14 H :    0.028582
  15 H :    0.020692
  16 S :    0.406764
  17 C :   -0.197792
  18 C :   -0.071079
  19 C :   -0.053427
  20 C :   -0.201170
  21 H :    0.032279
  22 C :   -0.044389
  23 H :    0.030631
  24 H :    0.031537
  25 C :   -0.040955
  26 H :    0.022220
  27 H :    0.026963
  28 C :   -0.061626
  29 H :    0.018723
  30 H :    0.027900
  31 H :    0.026268
  32 H :    0.029980
  33 H :    0.037893

  Mayer bond orders larger than 0.100000
B(  0-S ,  1-C ) :   1.1677 B(  0-S ,  4-C ) :   1.1528 B(  1-C ,  2-C ) :   1.5684
B(  1-C ,  4-C ) :   0.1043 B(  1-C , 32-H ) :   0.9587 B(  2-C ,  3-C ) :   1.2877
B(  2-C ,  6-C ) :   1.0197 B(  3-C ,  4-C ) :   1.5323 B(  3-C ,  5-H ) :   0.9973
B(  4-C , 20-C ) :   1.0711 B(  6-C ,  7-H ) :   0.9406 B(  6-C ,  8-H ) :   0.9437
B(  6-C ,  9-C ) :   1.0481 B(  9-C , 10-H ) :   0.9635 B(  9-C , 11-H ) :   0.9615
B(  9-C , 12-C ) :   1.0622 B( 12-C , 13-H ) :   0.9752 B( 12-C , 14-H ) :   0.9762
B( 12-C , 15-H ) :   0.9796 B( 16-S , 17-C ) :   1.1433 B( 16-S , 20-C ) :   1.1392
B( 17-C , 18-C ) :   1.6150 B( 17-C , 33-H ) :   0.9633 B( 18-C , 19-C ) :   1.2659
B( 18-C , 21-H ) :   0.9792 B( 19-C , 20-C ) :   1.5623 B( 19-C , 22-C ) :   1.0476
B( 22-C , 23-H ) :   0.9312 B( 22-C , 24-H ) :   0.9287 B( 22-C , 25-C ) :   1.0671
B( 25-C , 26-H ) :   0.9522 B( 25-C , 27-H ) :   0.9546 B( 25-C , 28-C ) :   1.0771
B( 28-C , 29-H ) :   0.9735 B( 28-C , 30-H ) :   0.9730 B( 28-C , 31-H ) :   0.9750

Dispersion correction           -0.014075357
FINAL SINGLE POINT ENERGY     -1339.861899403123

DIPOLE MOMENT
-------------
                                X             Y             Z
Electronic contribution:     -7.51925      -9.70834     -18.35732
Nuclear contribution   :      7.79950      10.00482      18.74288
                        -----------------------------------------
Total Dipole Moment    :      0.28025       0.29648       0.38556
                        -----------------------------------------
Magnitude (a.u.)       :      0.56133
Magnitude (Debye)      :      1.42680

Rotational constants in cm-1:     0.018281     0.008324     0.006846
Rotational constants in MHz :   548.039848   249.555023   205.231380

                             ****ORCA TERMINATED NORMALLY****
TOTAL RUN TIME: 0 days 0 hours 0 minutes 35 seconds 103 msec
