                         Program Version 4.2.1 -  RELEASE  -
|  1> ! wB97X-D3 SP def2-SVP
|  2> %pal
|  3> nprocs 16
|  4> end
|  5>
|  6> * xyz 0 1
|  7> S 	 -107.58 	 54.1657 	 119.505
|  8> C 	 -107.757 	 52.5551 	 120.184
|  9> C 	 -106.575 	 51.8496 	 120.144
| 10> C 	 -105.63 	 52.5932 	 119.358
| 11> C 	 -106.142 	 53.7504 	 118.694
| 12> H 	 -104.673 	 52.187 	 119.094
| 13> C 	 -106.436 	 50.4741 	 120.592
| 14> H 	 -106.572 	 50.3497 	 121.658
| 15> H 	 -105.436 	 50.3422 	 120.457
| 16> C 	 -107.333 	 49.4184 	 119.935
| 17> H 	 -108.25 	 49.4733 	 120.388
| 18> H 	 -107.609 	 49.5239 	 118.895
| 19> C 	 -106.664 	 48.0311 	 120.269
| 20> H 	 -106.287 	 47.8798 	 121.331
| 21> H 	 -107.179 	 47.1492 	 119.835
| 22> H 	 -105.705 	 48.1182 	 119.724
| 23> S 	 -105.793 	 56.2159 	 117.436
| 24> C 	 -104.585 	 56.4089 	 116.235
| 25> C 	 -103.948 	 55.2087 	 116.017
| 26> C 	 -104.313 	 54.1196 	 116.882
| 27> C 	 -105.37 	 54.5514 	 117.715
| 28> H 	 -103.148 	 55.1735 	 115.339
| 29> C 	 -103.617 	 52.8093 	 116.795
| 30> H 	 -103.278 	 52.5682 	 115.734
| 31> H 	 -104.333 	 51.9525 	 117.061
| 32> C 	 -102.338 	 52.731 	 117.721
| 33> H 	 -102.045 	 51.6866 	 117.779
| 34> H 	 -102.63 	 52.9841 	 118.769
| 35> C 	 -101.03 	 53.3553 	 117.203
| 36> H 	 -100.271 	 53.166 	 117.983
| 37> H 	 -101.067 	 54.4684 	 117.103
| 38> H 	 -100.676 	 52.9085 	 116.297
| 39> H 	 -108.634 	 52.3126 	 120.789
| 40> H 	 -104.174 	 57.3643 	 115.903
| 41> *
| 42>
| 43>                          ****END OF INPUT****

CARTESIAN COORDINATES (ANGSTROEM)
---------------------------------
  S    -107.580000   54.165700  119.505000
  C    -107.757000   52.555100  120.184000
  C    -106.575000   51.849600  120.144000
  C    -105.630000   52.593200  119.358000
  C    -106.142000   53.750400  118.694000
  H    -104.673000   52.187000  119.094000
  C    -106.436000   50.474100  120.592000
  H    -106.572000   50.349700  121.658000
  H    -105.436000   50.342200  120.457000
  C    -107.333000   49.418400  119.935000
  H    -108.250000   49.473300  120.388000
  H    -107.609000   49.523900  118.895000
  C    -106.664000   48.031100  120.269000
  H    -106.287000   47.879800  121.331000
  H    -107.179000   47.149200  119.835000
  H    -105.705000   48.118200  119.724000
  S    -105.793000   56.215900  117.436000
  C    -104.585000   56.408900  116.235000
  C    -103.948000   55.208700  116.017000
  C    -104.313000   54.119600  116.882000
  C    -105.370000   54.551400  117.715000
  H    -103.148000   55.173500  115.339000
  C    -103.617000   52.809300  116.795000
  H    -103.278000   52.568200  115.734000
  H    -104.333000   51.952500  117.061000
  C    -102.338000   52.731000  117.721000
  H    -102.045000   51.686600  117.779000
  H    -102.630000   52.984100  118.769000
  C    -101.030000   53.355300  117.203000
  H    -100.271000   53.166000  117.983000
  H    -101.067000   54.468400  117.103000
  H    -100.676000   52.908500  116.297000
  H    -108.634000   52.312600  120.789000
  H    -104.174000   57.364300  115.903000

 Total Charge           Charge          ....    0
 Multiplicity           Mult            ....    1
 Number of Electrons    NEL             ....  134
 Basis Dimension        Dim             ....  322

ORBITAL ENERGIES
----------------

  NO   OCC          E(Eh)            E(eV)
   0   2.0000     -88.967193     -2420.9204
   1   2.0000     -88.964451     -2420.8458
   2   2.0000     -10.334451      -281.2147
   3   2.0000     -10.332893      -281.1723
   4   2.0000     -10.314986      -280.6850
   5   2.0000     -10.309115      -280.5253
   6   2.0000     -10.306682      -280.4591
   7   2.0000     -10.306332      -280.4495
   8   2.0000     -10.296231      -280.1747
   9   2.0000     -10.295303      -280.1494
  10   2.0000     -10.293114      -280.0899
  11   2.0000     -10.289665      -279.9960
  12   2.0000     -10.289316      -279.9865
  13   2.0000     -10.285208      -279.8747
  14   2.0000     -10.284676      -279.8603
  15   2.0000     -10.281517      -279.7743
  16   2.0000      -8.082705      -219.9416
  17   2.0000      -8.079856      -219.8641
  18   2.0000      -6.041157      -164.3882
  19   2.0000      -6.038312      -164.3108
  20   2.0000      -6.037053      -164.2766
  21   2.0000      -6.034382      -164.2039
  22   2.0000      -6.033556      -164.1814
  23   2.0000      -6.030535      -164.0992
  24   2.0000      -1.009251       -27.4631
  25   2.0000      -0.989155       -26.9163
  26   2.0000      -0.922058       -25.0905
  27   2.0000      -0.907592       -24.6968
  28   2.0000      -0.867102       -23.5950
  29   2.0000      -0.854235       -23.2449
  30   2.0000      -0.845607       -23.0101
  31   2.0000      -0.809176       -22.0188
  32   2.0000      -0.784229       -21.3400
  33   2.0000      -0.773030       -21.0352
  34   2.0000      -0.720562       -19.6075
  35   2.0000      -0.705147       -19.1880
  36   2.0000      -0.688567       -18.7369
  37   2.0000      -0.666124       -18.1262
  38   2.0000      -0.635566       -17.2946
  39   2.0000      -0.620654       -16.8888
  40   2.0000      -0.596878       -16.2419
  41   2.0000      -0.571117       -15.5409
  42   2.0000      -0.564033       -15.3481
  43   2.0000      -0.549475       -14.9520
  44   2.0000      -0.543325       -14.7846
  45   2.0000      -0.526658       -14.3311
  46   2.0000      -0.520698       -14.1689
  47   2.0000      -0.510835       -13.9005
  48   2.0000      -0.502996       -13.6872
  49   2.0000      -0.497779       -13.5452
  50   2.0000      -0.488952       -13.3051
  51   2.0000      -0.482761       -13.1366
  52   2.0000      -0.479866       -13.0578
  53   2.0000      -0.465636       -12.6706
  54   2.0000      -0.455801       -12.4030
  55   2.0000      -0.452697       -12.3185
  56   2.0000      -0.443760       -12.0753
  57   2.0000      -0.438781       -11.9399
  58   2.0000      -0.433128       -11.7860
  59   2.0000      -0.429149       -11.6777
  60   2.0000      -0.422310       -11.4916
  61   2.0000      -0.415125       -11.2961
  62   2.0000      -0.413691       -11.2571
  63   2.0000      -0.357682        -9.7330
  64   2.0000      -0.331963        -9.0332
  65   2.0000      -0.324624        -8.8335
  66   2.0000      -0.279371        -7.6021
  67   0.0000       0.017382         0.4730
  68   0.0000       0.082497         2.2448
  69   0.0000       0.102619         2.7924
  70   0.0000       0.117304         3.1920
  71   0.0000       0.135319         3.6822

MULLIKEN ATOMIC CHARGES
-----------------------
   0 S :    0.105621
   1 C :   -0.142738
   2 C :   -0.074563
   3 C :   -0.003759
   4 C :   -0.108363
   5 H :   -0.016613
   6 C :    0.103821
   7 H :    0.028689
   8 H :   -0.018756
   9 C :   -0.009238
  10 H :    0.007432
  11 H :    0.036302
  12 C :   -0.099158
  13 H :    0.044303
  14 H :    0.047745
  15 H :    0.026667
  16 S :    0.110651
  17 C :   -0.088708
  18 C :   -0.020955
  19 C :   -0.021401
  20 C :   -0.137644
  21 H :   -0.005132
  22 C :   -0.019010
  23 H :    0.037265
  24 H :    0.052425
  25 C :   -0.096268
  26 H :    0.025628
  27 H :    0.048538
  28 C :   -0.040440
  29 H :    0.036366
  30 H :    0.041353
  31 H :    0.030416
  32 H :    0.052102
  33 H :    0.067421
Sum of atomic charges:    0.0000000

LOEWDIN ATOMIC CHARGES
----------------------
   0 S :    0.417278
   1 C :   -0.195488
   2 C :   -0.062551
   3 C :   -0.070011
   4 C :   -0.201429
   5 H :    0.017092
   6 C :   -0.028108
   7 H :    0.037820
   8 H :    0.015680
   9 C :   -0.023699
  10 H :    0.010990
  11 H :    0.028685
  12 C :   -0.076787
  13 H :    0.033734
  14 H :    0.028082
  15 H :    0.026313
  16 S :    0.422050
  17 C :   -0.203451
  18 C :   -0.061965
  19 C :   -0.056877
  20 C :   -0.193932
  21 H :    0.019219
  22 C :   -0.046190
  23 H :    0.037831
  24 H :    0.040265
  25 C :   -0.046118
  26 H :    0.024602
  27 H :    0.027909
  28 C :   -0.066474
  29 H :    0.033336
  30 H :    0.026796
  31 H :    0.021467
  32 H :    0.027018
  33 H :    0.036915

  Mayer bond orders larger than 0.100000
B(  0-S ,  1-C ) :   1.1437 B(  0-S ,  4-C ) :   1.1701 B(  1-C ,  2-C ) :   1.5611
B(  1-C , 32-H ) :   0.9728 B(  2-C ,  3-C ) :   1.2812 B(  2-C ,  6-C ) :   1.0380
B(  3-C ,  4-C ) :   1.4993 B(  3-C ,  5-H ) :   0.9867 B(  4-C , 20-C ) :   1.0899
B(  6-C ,  7-H ) :   0.9188 B(  6-C ,  8-H ) :   0.9400 B(  6-C ,  9-C ) :   1.0515
B(  9-C , 10-H ) :   0.9482 B(  9-C , 11-H ) :   0.9621 B(  9-C , 12-C ) :   1.0640
B( 12-C , 13-H ) :   0.9729 B( 12-C , 14-H ) :   0.9738 B( 12-C , 15-H ) :   0.9797
B( 16-S , 17-C ) :   1.1551 B( 16-S , 20-C ) :   1.1535 B( 17-C , 18-C ) :   1.5941
B( 17-C , 33-H ) :   0.9640 B( 18-C , 19-C ) :   1.2717 B( 18-C , 21-H ) :   0.9919
B( 19-C , 20-C ) :   1.5399 B( 19-C , 22-C ) :   1.0506 B( 22-C , 23-H ) :   0.9381
B( 22-C , 24-H ) :   0.9304 B( 22-C , 25-C ) :   1.0589 B( 25-C , 26-H ) :   0.9558
B( 25-C , 27-H ) :   0.9517 B( 25-C , 28-C ) :   1.0801 B( 28-C , 29-H ) :   0.9707
B( 28-C , 30-H ) :   0.9733 B( 28-C , 31-H ) :   0.9738

Dispersion correction           -0.014136159
FINAL SINGLE POINT ENERGY     -1339.853966581175

DIPOLE MOMENT
-------------
                                X             Y             Z
Electronic contribution:    -15.19477      26.87100      -2.13370
Nuclear contribution   :     15.76016     -27.45406       2.13409
                        -----------------------------------------
Total Dipole Moment    :      0.56539      -0.58306       0.00039
                        -----------------------------------------
Magnitude (a.u.)       :      0.81217
Magnitude (Debye)      :      2.06437

Rotational constants in cm-1:     0.018883     0.008682     0.006299
Rotational constants in MHz :   566.084508   260.269973   188.853170

                             ****ORCA TERMINATED NORMALLY****
TOTAL RUN TIME: 0 days 0 hours 0 minutes 33 seconds 749 msec
