                         Program Version 4.2.1 -  RELEASE  -
|  1> ! wB97X-D3 SP def2-SVP
|  2> %pal
|  3> nprocs 16
|  4> end
|  5>
|  6> * xyz 0 1
|  7> S 	 34.9518 	 26.0114 	 54.9727
|  8> C 	 36.1959 	 27.1471 	 54.4921
|  9> C 	 37.4458 	 26.6614 	 54.7577
| 10> C 	 37.4077 	 25.3083 	 55.2198
| 11> C 	 36.151 	 24.6981 	 55.2417
| 12> H 	 38.2162 	 24.7321 	 55.5567
| 13> C 	 38.6782 	 27.5704 	 54.7734
| 14> H 	 38.461 	 28.4569 	 54.1925
| 15> H 	 39.5922 	 27.1039 	 54.3482
| 16> C 	 39.0063 	 27.9606 	 56.2118
| 17> H 	 39.2493 	 27.1164 	 56.8674
| 18> H 	 39.9476 	 28.5605 	 56.2689
| 19> C 	 37.9003 	 28.8488 	 56.8394
| 20> H 	 37.8446 	 29.8513 	 56.3198
| 21> H 	 36.9304 	 28.3134 	 56.8842
| 22> H 	 38.2221 	 29.2012 	 57.8457
| 23> S 	 34.7806 	 22.9506 	 57.0362
| 24> C 	 34.7314 	 21.268 	 56.6901
| 25> C 	 35.4555 	 20.9662 	 55.5506
| 26> C 	 36.188 	 22.1103 	 55.0528
| 27> C 	 35.802 	 23.3167 	 55.6598
| 28> H 	 35.5523 	 19.9845 	 55.1312
| 29> C 	 37.154 	 21.9768 	 53.9488
| 30> H 	 38.041 	 21.5018 	 54.3919
| 31> H 	 37.4301 	 22.9445 	 53.6089
| 32> C 	 36.6566 	 21.1545 	 52.7051
| 33> H 	 35.8399 	 21.733 	 52.2437
| 34> H 	 36.2832 	 20.1832 	 53.0905
| 35> C 	 37.695 	 20.821 	 51.5568
| 36> H 	 38.5444 	 20.1311 	 51.8663
| 37> H 	 38.0654 	 21.7367 	 51.0546
| 38> H 	 37.1762 	 20.2175 	 50.774
| 39> H 	 36.0823 	 28.1646 	 54.195
| 40> H 	 34.1656 	 20.5947 	 57.3327
| 41> *
| 42>
| 43>                          ****END OF INPUT****

CARTESIAN COORDINATES (ANGSTROEM)
---------------------------------
  S     34.951800   26.011400   54.972700
  C     36.195900   27.147100   54.492100
  C     37.445800   26.661400   54.757700
  C     37.407700   25.308300   55.219800
  C     36.151000   24.698100   55.241700
  H     38.216200   24.732100   55.556700
  C     38.678200   27.570400   54.773400
  H     38.461000   28.456900   54.192500
  H     39.592200   27.103900   54.348200
  C     39.006300   27.960600   56.211800
  H     39.249300   27.116400   56.867400
  H     39.947600   28.560500   56.268900
  C     37.900300   28.848800   56.839400
  H     37.844600   29.851300   56.319800
  H     36.930400   28.313400   56.884200
  H     38.222100   29.201200   57.845700
  S     34.780600   22.950600   57.036200
  C     34.731400   21.268000   56.690100
  C     35.455500   20.966200   55.550600
  C     36.188000   22.110300   55.052800
  C     35.802000   23.316700   55.659800
  H     35.552300   19.984500   55.131200
  C     37.154000   21.976800   53.948800
  H     38.041000   21.501800   54.391900
  H     37.430100   22.944500   53.608900
  C     36.656600   21.154500   52.705100
  H     35.839900   21.733000   52.243700
  H     36.283200   20.183200   53.090500
  C     37.695000   20.821000   51.556800
  H     38.544400   20.131100   51.866300
  H     38.065400   21.736700   51.054600
  H     37.176200   20.217500   50.774000
  H     36.082300   28.164600   54.195000
  H     34.165600   20.594700   57.332700

 Total Charge           Charge          ....    0
 Multiplicity           Mult            ....    1
 Number of Electrons    NEL             ....  134
 Basis Dimension        Dim             ....  322

ORBITAL ENERGIES
----------------

  NO   OCC          E(Eh)            E(eV)
   0   2.0000     -88.965939     -2420.8863
   1   2.0000     -88.965635     -2420.8780
   2   2.0000     -10.338099      -281.3140
   3   2.0000     -10.330306      -281.1019
   4   2.0000     -10.320610      -280.8381
   5   2.0000     -10.312579      -280.6196
   6   2.0000     -10.304651      -280.4038
   7   2.0000     -10.300395      -280.2880
   8   2.0000     -10.296723      -280.1881
   9   2.0000     -10.295830      -280.1638
  10   2.0000     -10.295546      -280.1560
  11   2.0000     -10.294544      -280.1288
  12   2.0000     -10.290899      -280.0296
  13   2.0000     -10.290177      -280.0100
  14   2.0000     -10.286403      -279.9073
  15   2.0000     -10.282462      -279.8000
  16   2.0000      -8.080919      -219.8930
  17   2.0000      -8.079771      -219.8618
  18   2.0000      -6.039400      -164.3404
  19   2.0000      -6.038461      -164.3149
  20   2.0000      -6.035244      -164.2273
  21   2.0000      -6.034458      -164.2060
  22   2.0000      -6.031781      -164.1331
  23   2.0000      -6.030313      -164.0931
  24   2.0000      -1.003666       -27.3111
  25   2.0000      -0.985202       -26.8087
  26   2.0000      -0.910182       -24.7673
  27   2.0000      -0.905197       -24.6317
  28   2.0000      -0.866285       -23.5728
  29   2.0000      -0.844701       -22.9855
  30   2.0000      -0.838689       -22.8219
  31   2.0000      -0.815308       -22.1857
  32   2.0000      -0.780982       -21.2516
  33   2.0000      -0.771397       -20.9908
  34   2.0000      -0.706431       -19.2230
  35   2.0000      -0.699088       -19.0232
  36   2.0000      -0.687496       -18.7077
  37   2.0000      -0.655452       -17.8358
  38   2.0000      -0.643864       -17.5204
  39   2.0000      -0.619617       -16.8606
  40   2.0000      -0.600348       -16.3363
  41   2.0000      -0.571991       -15.5647
  42   2.0000      -0.562671       -15.3111
  43   2.0000      -0.549284       -14.9468
  44   2.0000      -0.540639       -14.7115
  45   2.0000      -0.519708       -14.1420
  46   2.0000      -0.514885       -14.0107
  47   2.0000      -0.510717       -13.8973
  48   2.0000      -0.503520       -13.7015
  49   2.0000      -0.499164       -13.5829
  50   2.0000      -0.483491       -13.1565
  51   2.0000      -0.479609       -13.0508
  52   2.0000      -0.466719       -12.7001
  53   2.0000      -0.465735       -12.6733
  54   2.0000      -0.461260       -12.5515
  55   2.0000      -0.453492       -12.3401
  56   2.0000      -0.439843       -11.9687
  57   2.0000      -0.430607       -11.7174
  58   2.0000      -0.429728       -11.6935
  59   2.0000      -0.427194       -11.6245
  60   2.0000      -0.419885       -11.4256
  61   2.0000      -0.416947       -11.3457
  62   2.0000      -0.412791       -11.2326
  63   2.0000      -0.345634        -9.4052
  64   2.0000      -0.328707        -8.9446
  65   2.0000      -0.327389        -8.9087
  66   2.0000      -0.295806        -8.0493
  67   0.0000       0.030713         0.8358
  68   0.0000       0.063710         1.7336
  69   0.0000       0.116350         3.1661
  70   0.0000       0.120553         3.2804
  71   0.0000       0.130699         3.5565

MULLIKEN ATOMIC CHARGES
-----------------------
   0 S :    0.102147
   1 C :   -0.096843
   2 C :   -0.101991
   3 C :    0.057104
   4 C :   -0.173855
   5 H :   -0.005437
   6 C :    0.093516
   7 H :    0.017081
   8 H :    0.035325
   9 C :   -0.092413
  10 H :    0.036428
  11 H :    0.029664
  12 C :   -0.094113
  13 H :    0.030163
  14 H :    0.067777
  15 H :    0.031555
  16 S :    0.112896
  17 C :   -0.096133
  18 C :   -0.018156
  19 C :   -0.061032
  20 C :   -0.157851
  21 H :    0.017787
  22 C :    0.109107
  23 H :    0.035657
  24 H :    0.012721
  25 C :   -0.118970
  26 H :    0.046586
  27 H :    0.032080
  28 C :   -0.081837
  29 H :    0.042477
  30 H :    0.044605
  31 H :    0.039273
  32 H :    0.037806
  33 H :    0.066874
Sum of atomic charges:   -0.0000000

LOEWDIN ATOMIC CHARGES
----------------------
   0 S :    0.382994
   1 C :   -0.186980
   2 C :   -0.068161
   3 C :   -0.052218
   4 C :   -0.176582
   5 H :    0.021961
   6 C :   -0.027626
   7 H :    0.027781
   8 H :    0.033503
   9 C :   -0.047091
  10 H :    0.024329
  11 H :    0.026661
  12 C :   -0.077398
  13 H :    0.027800
  14 H :    0.030362
  15 H :    0.027514
  16 S :    0.418052
  17 C :   -0.187464
  18 C :   -0.071807
  19 C :   -0.047050
  20 C :   -0.213721
  21 H :    0.027944
  22 C :   -0.034585
  23 H :    0.037005
  24 H :    0.023817
  25 C :   -0.038339
  26 H :    0.030876
  27 H :    0.021085
  28 C :   -0.078401
  29 H :    0.030228
  30 H :    0.026952
  31 H :    0.030967
  32 H :    0.025937
  33 H :    0.031654

  Mayer bond orders larger than 0.100000
B(  0-S ,  1-C ) :   1.1355 B(  0-S ,  4-C ) :   1.1292 B(  1-C ,  2-C ) :   1.6225
B(  1-C , 32-H ) :   0.9639 B(  2-C ,  3-C ) :   1.2256 B(  2-C ,  6-C ) :   1.0328
B(  3-C ,  4-C ) :   1.5770 B(  3-C ,  5-H ) :   1.0020 B(  4-C , 20-C ) :   1.0507
B(  6-C ,  7-H ) :   0.9410 B(  6-C ,  8-H ) :   0.9393 B(  6-C ,  9-C ) :   1.0670
B(  9-C , 10-H ) :   0.9575 B(  9-C , 11-H ) :   0.9553 B(  9-C , 12-C ) :   1.0731
B( 12-C , 13-H ) :   0.9735 B( 12-C , 14-H ) :   0.9725 B( 12-C , 15-H ) :   0.9720
B( 16-S , 17-C ) :   1.1777 B( 16-S , 20-C ) :   1.1378 B( 17-C , 18-C ) :   1.5734
B( 17-C , 33-H ) :   0.9680 B( 18-C , 19-C ) :   1.2546 B( 18-C , 21-H ) :   0.9934
B( 19-C , 20-C ) :   1.5678 B( 19-C , 22-C ) :   1.0650 B( 22-C , 23-H ) :   0.9227
B( 22-C , 24-H ) :   0.9249 B( 22-C , 25-C ) :   1.0555 B( 25-C , 26-H ) :   0.9589
B( 25-C , 27-H ) :   0.9563 B( 25-C , 28-C ) :   1.0814 B( 28-C , 29-H ) :   0.9749
B( 28-C , 30-H ) :   0.9758 B( 28-C , 31-H ) :   0.9745

Dispersion correction           -0.014201870
FINAL SINGLE POINT ENERGY     -1339.887688943648

DIPOLE MOMENT
-------------
                                X             Y             Z
Electronic contribution:    -18.37071      -2.38242      10.20403
Nuclear contribution   :     18.94961       2.24793     -10.32473
                        -----------------------------------------
Total Dipole Moment    :      0.57890      -0.13449      -0.12071
                        -----------------------------------------
Magnitude (a.u.)       :      0.60645
Magnitude (Debye)      :      1.54147

Rotational constants in cm-1:     0.019247     0.008011     0.006536
Rotational constants in MHz :   577.015067   240.153815   195.943153

                             ****ORCA TERMINATED NORMALLY****
TOTAL RUN TIME: 0 days 0 hours 0 minutes 35 seconds 403 msec
