                         Program Version 4.2.1 -  RELEASE  -
|  1> ! wB97X-D3 SP def2-SVP
|  2> %pal
|  3> nprocs 16
|  4> end
|  5>
|  6> * xyz 0 1
|  7> S 	 -3.4693 	 78.3136 	 51.5639
|  8> C 	 -2.00412 	 79.3507 	 51.6407
|  9> C 	 -0.969732 	 78.7642 	 52.409
| 10> C 	 -1.43902 	 77.4859 	 52.9424
| 11> C 	 -2.68377 	 77.0683 	 52.5057
| 12> H 	 -0.875228 	 76.6834 	 53.483
| 13> C 	 0.257003 	 79.4309 	 52.9194
| 14> H 	 0.155691 	 79.3895 	 53.9831
| 15> H 	 0.321271 	 80.4483 	 52.5908
| 16> C 	 1.61929 	 78.7259 	 52.649
| 17> H 	 2.41443 	 79.1053 	 53.3565
| 18> H 	 1.6297 	 77.6749 	 52.8759
| 19> C 	 2.0553 	 78.834 	 51.1815
| 20> H 	 2.80925 	 78.1208 	 50.949
| 21> H 	 1.31707 	 78.7141 	 50.4685
| 22> H 	 2.37603 	 79.9104 	 51.1147
| 23> S 	 -4.91533 	 75.8787 	 53.5803
| 24> C 	 -4.87021 	 74.1782 	 53.7624
| 25> C 	 -3.83384 	 73.5444 	 53.076
| 26> C 	 -2.9012 	 74.4909 	 52.5773
| 27> C 	 -3.31313 	 75.7719 	 52.8355
| 28> H 	 -3.66688 	 72.5421 	 53.02
| 29> C 	 -1.59808 	 74.0933 	 51.9101
| 30> H 	 -0.973612 	 74.965 	 51.714
| 31> H 	 -1.90886 	 73.5993 	 50.9611
| 32> C 	 -0.761989 	 73.242 	 52.8776
| 33> H 	 0.0749915 	 72.723 	 52.3997
| 34> H 	 -1.47616 	 72.494 	 53.2538
| 35> C 	 -0.0993974 	 74.1663 	 53.9518
| 36> H 	 0.525695 	 73.654 	 54.5871
| 37> H 	 -0.735619 	 74.6817 	 54.6132
| 38> H 	 0.561572 	 74.9778 	 53.4271
| 39> H 	 -1.88077 	 80.2873 	 51.1812
| 40> H 	 -5.70604 	 73.7155 	 54.217
| 41> *
| 42>
| 43>                          ****END OF INPUT****

CARTESIAN COORDINATES (ANGSTROEM)
---------------------------------
  S     -3.469300   78.313600   51.563900
  C     -2.004120   79.350700   51.640700
  C     -0.969732   78.764200   52.409000
  C     -1.439020   77.485900   52.942400
  C     -2.683770   77.068300   52.505700
  H     -0.875228   76.683400   53.483000
  C      0.257003   79.430900   52.919400
  H      0.155691   79.389500   53.983100
  H      0.321271   80.448300   52.590800
  C      1.619290   78.725900   52.649000
  H      2.414430   79.105300   53.356500
  H      1.629700   77.674900   52.875900
  C      2.055300   78.834000   51.181500
  H      2.809250   78.120800   50.949000
  H      1.317070   78.714100   50.468500
  H      2.376030   79.910400   51.114700
  S     -4.915330   75.878700   53.580300
  C     -4.870210   74.178200   53.762400
  C     -3.833840   73.544400   53.076000
  C     -2.901200   74.490900   52.577300
  C     -3.313130   75.771900   52.835500
  H     -3.666880   72.542100   53.020000
  C     -1.598080   74.093300   51.910100
  H     -0.973612   74.965000   51.714000
  H     -1.908860   73.599300   50.961100
  C     -0.761989   73.242000   52.877600
  H      0.074991   72.723000   52.399700
  H     -1.476160   72.494000   53.253800
  C     -0.099397   74.166300   53.951800
  H      0.525695   73.654000   54.587100
  H     -0.735619   74.681700   54.613200
  H      0.561572   74.977800   53.427100
  H     -1.880770   80.287300   51.181200
  H     -5.706040   73.715500   54.217000

 Total Charge           Charge          ....    0
 Multiplicity           Mult            ....    1
 Number of Electrons    NEL             ....  134
 Basis Dimension        Dim             ....  322

ORBITAL ENERGIES
----------------

  NO   OCC          E(Eh)            E(eV)
   0   2.0000     -88.966454     -2420.9003
   1   2.0000     -88.965720     -2420.8803
   2   2.0000     -10.326598      -281.0010
   3   2.0000     -10.323762      -280.9238
   4   2.0000     -10.316591      -280.7287
   5   2.0000     -10.316233      -280.7190
   6   2.0000     -10.307780      -280.4890
   7   2.0000     -10.301113      -280.3075
   8   2.0000     -10.294761      -280.1347
   9   2.0000     -10.294191      -280.1192
  10   2.0000     -10.293307      -280.0951
  11   2.0000     -10.290824      -280.0276
  12   2.0000     -10.290608      -280.0217
  13   2.0000     -10.289559      -279.9931
  14   2.0000     -10.281357      -279.7699
  15   2.0000     -10.269778      -279.4549
  16   2.0000      -8.082053      -219.9238
  17   2.0000      -8.079539      -219.8554
  18   2.0000      -6.040266      -164.3640
  19   2.0000      -6.038203      -164.3078
  20   2.0000      -6.036682      -164.2665
  21   2.0000      -6.034203      -164.1990
  22   2.0000      -6.032833      -164.1617
  23   2.0000      -6.030177      -164.0895
  24   2.0000      -1.006132       -27.3782
  25   2.0000      -0.978084       -26.6150
  26   2.0000      -0.914991       -24.8982
  27   2.0000      -0.911572       -24.8051
  28   2.0000      -0.864183       -23.5156
  29   2.0000      -0.853064       -23.2131
  30   2.0000      -0.842378       -22.9223
  31   2.0000      -0.810637       -22.0586
  32   2.0000      -0.787009       -21.4156
  33   2.0000      -0.776408       -21.1271
  34   2.0000      -0.710997       -19.3472
  35   2.0000      -0.700967       -19.0743
  36   2.0000      -0.693797       -18.8792
  37   2.0000      -0.667729       -18.1698
  38   2.0000      -0.639237       -17.3945
  39   2.0000      -0.614382       -16.7182
  40   2.0000      -0.604288       -16.4435
  41   2.0000      -0.565775       -15.3955
  42   2.0000      -0.560528       -15.2527
  43   2.0000      -0.555141       -15.1062
  44   2.0000      -0.549461       -14.9516
  45   2.0000      -0.533814       -14.5258
  46   2.0000      -0.520767       -14.1708
  47   2.0000      -0.509743       -13.8708
  48   2.0000      -0.499159       -13.5828
  49   2.0000      -0.492938       -13.4135
  50   2.0000      -0.488738       -13.2992
  51   2.0000      -0.476539       -12.9673
  52   2.0000      -0.471554       -12.8316
  53   2.0000      -0.463400       -12.6098
  54   2.0000      -0.458244       -12.4694
  55   2.0000      -0.451347       -12.2818
  56   2.0000      -0.447916       -12.1884
  57   2.0000      -0.445205       -12.1146
  58   2.0000      -0.434767       -11.8306
  59   2.0000      -0.427849       -11.6424
  60   2.0000      -0.423871       -11.5341
  61   2.0000      -0.418129       -11.3779
  62   2.0000      -0.410366       -11.1666
  63   2.0000      -0.339284        -9.2324
  64   2.0000      -0.336185        -9.1480
  65   2.0000      -0.324939        -8.8420
  66   2.0000      -0.292847        -7.9688
  67   0.0000       0.037377         1.0171
  68   0.0000       0.062972         1.7136
  69   0.0000       0.107907         2.9363
  70   0.0000       0.115880         3.1533
  71   0.0000       0.123890         3.3712

MULLIKEN ATOMIC CHARGES
-----------------------
   0 S :    0.103498
   1 C :   -0.106446
   2 C :   -0.078748
   3 C :    0.023305
   4 C :   -0.151959
   5 H :   -0.007184
   6 C :    0.097164
   7 H :    0.036569
   8 H :    0.013101
   9 C :   -0.106650
  10 H :    0.036355
  11 H :    0.015624
  12 C :   -0.022809
  13 H :    0.029587
  14 H :    0.019293
  15 H :    0.028058
  16 S :    0.115030
  17 C :   -0.070406
  18 C :    0.003077
  19 C :   -0.046648
  20 C :   -0.188769
  21 H :   -0.017543
  22 C :    0.081803
  23 H :    0.024453
  24 H :    0.049502
  25 C :   -0.071585
  26 H :    0.037323
  27 H :    0.028713
  28 C :   -0.051465
  29 H :    0.014161
  30 H :    0.043393
  31 H :    0.045567
  32 H :    0.029382
  33 H :    0.045254
Sum of atomic charges:   -0.0000000

LOEWDIN ATOMIC CHARGES
----------------------
   0 S :    0.381592
   1 C :   -0.182358
   2 C :   -0.054587
   3 C :   -0.076645
   4 C :   -0.194750
   5 H :    0.033575
   6 C :   -0.026624
   7 H :    0.038073
   8 H :    0.027034
   9 C :   -0.042935
  10 H :    0.030238
  11 H :    0.014739
  12 C :   -0.059988
  13 H :    0.022588
  14 H :    0.014433
  15 H :    0.031319
  16 S :    0.414916
  17 C :   -0.176377
  18 C :   -0.059075
  19 C :   -0.050141
  20 C :   -0.195136
  21 H :    0.013357
  22 C :   -0.028927
  23 H :    0.028595
  24 H :    0.039225
  25 C :   -0.034785
  26 H :    0.026401
  27 H :    0.022283
  28 C :   -0.060415
  29 H :    0.015103
  30 H :    0.019452
  31 H :    0.035956
  32 H :    0.016933
  33 H :    0.016933

  Mayer bond orders larger than 0.100000
B(  0-S ,  1-C ) :   1.1220 B(  0-S ,  4-C ) :   1.1349 B(  1-C ,  2-C ) :   1.6157
B(  1-C , 32-H ) :   0.9710 B(  2-C ,  3-C ) :   1.1954 B(  2-C ,  6-C ) :   1.0427
B(  3-C ,  4-C ) :   1.6276 B(  3-C ,  5-H ) :   0.9706 B(  4-C , 20-C ) :   1.0157
B(  6-C ,  7-H ) :   0.9332 B(  6-C ,  8-H ) :   0.9432 B(  6-C ,  9-C ) :   1.0636
B(  9-C , 10-H ) :   0.9576 B(  9-C , 11-H ) :   0.9602 B(  9-C , 12-C ) :   1.0646
B( 12-C , 13-H ) :   0.9760 B( 12-C , 14-H ) :   0.9793 B( 12-C , 15-H ) :   0.9763
B( 16-S , 17-C ) :   1.1781 B( 16-S , 20-C ) :   1.1400 B( 17-C , 18-C ) :   1.5796
B( 17-C , 33-H ) :   0.9744 B( 18-C , 19-C ) :   1.2353 B( 18-C , 21-H ) :   1.0041
B( 19-C , 20-C ) :   1.6241 B( 19-C , 22-C ) :   1.0308 B( 22-C , 23-H ) :   0.9383
B( 22-C , 24-H ) :   0.9325 B( 22-C , 25-C ) :   1.0595 B( 25-C , 26-H ) :   0.9568
B( 25-C , 27-H ) :   0.9599 B( 25-C , 28-C ) :   1.0676 B( 28-C , 29-H ) :   0.9670
B( 28-C , 30-H ) :   0.9676 B( 28-C , 31-H ) :   0.9648

Dispersion correction           -0.015463192
FINAL SINGLE POINT ENERGY     -1339.864372683448

DIPOLE MOMENT
-------------
                                X             Y             Z
Electronic contribution:    -29.93415       3.61779      -0.51226
Nuclear contribution   :     30.50548      -3.99188       0.65995
                        -----------------------------------------
Total Dipole Moment    :      0.57133      -0.37409       0.14769
                        -----------------------------------------
Magnitude (a.u.)       :      0.69869
Magnitude (Debye)      :      1.77594

Rotational constants in cm-1:     0.019415     0.009719     0.007146
Rotational constants in MHz :   582.032471   291.368081   214.230308

                             ****ORCA TERMINATED NORMALLY****
TOTAL RUN TIME: 0 days 0 hours 0 minutes 36 seconds 167 msec
