                         Program Version 4.2.1 -  RELEASE  -
|  1> ! wB97X-D3 SP def2-SVP
|  2> %pal
|  3> nprocs 16
|  4> end
|  5>
|  6> * xyz 0 1
|  7> S 	 42.5931 	 21.5697 	 46.3095
|  8> C 	 41.0054 	 20.9941 	 45.8845
|  9> C 	 40.2576 	 21.9942 	 45.3076
| 10> C 	 40.848 	 23.2783 	 45.5476
| 11> C 	 42.0341 	 23.2318 	 46.2063
| 12> H 	 40.5269 	 24.2051 	 45.1007
| 13> C 	 38.9179 	 21.7741 	 44.6674
| 14> H 	 38.6229 	 20.7008 	 44.998
| 15> H 	 38.9775 	 21.914 	 43.543
| 16> C 	 37.7074 	 22.6097 	 45.0714
| 17> H 	 37.9358 	 23.6007 	 44.6229
| 18> H 	 36.7964 	 22.2058 	 44.6333
| 19> C 	 37.3758 	 22.6051 	 46.5583
| 20> H 	 37.2141 	 21.5966 	 46.879
| 21> H 	 38.133 	 23.0106 	 47.1924
| 22> H 	 36.3789 	 23.0711 	 46.6852
| 23> S 	 44.5734 	 24.064 	 45.734
| 24> C 	 45.2124 	 25.5666 	 46.251
| 25> C 	 44.2299 	 26.2668 	 46.9013
| 26> C 	 42.951 	 25.6188 	 46.9975
| 27> C 	 43.0448 	 24.3458 	 46.3921
| 28> H 	 44.5162 	 27.2327 	 47.3503
| 29> C 	 41.6043 	 26.2711 	 47.4433
| 30> H 	 41.1268 	 25.4401 	 47.9608
| 31> H 	 41.1215 	 26.5369 	 46.5148
| 32> C 	 41.8105 	 27.4798 	 48.3454
| 33> H 	 42.3965 	 28.2387 	 47.7317
| 34> H 	 42.4567 	 27.1022 	 49.1354
| 35> C 	 40.533 	 28.1309 	 48.9193
| 36> H 	 39.9457 	 28.6458 	 48.1513
| 37> H 	 40.5885 	 28.9292 	 49.6982
| 38> H 	 39.8312 	 27.3414 	 49.3379
| 39> H 	 40.62 	 19.9528 	 45.8716
| 40> H 	 46.2079 	 25.8897 	 46.3319
| 41> *
| 42>
| 43>                          ****END OF INPUT****

CARTESIAN COORDINATES (ANGSTROEM)
---------------------------------
  S     42.593100   21.569700   46.309500
  C     41.005400   20.994100   45.884500
  C     40.257600   21.994200   45.307600
  C     40.848000   23.278300   45.547600
  C     42.034100   23.231800   46.206300
  H     40.526900   24.205100   45.100700
  C     38.917900   21.774100   44.667400
  H     38.622900   20.700800   44.998000
  H     38.977500   21.914000   43.543000
  C     37.707400   22.609700   45.071400
  H     37.935800   23.600700   44.622900
  H     36.796400   22.205800   44.633300
  C     37.375800   22.605100   46.558300
  H     37.214100   21.596600   46.879000
  H     38.133000   23.010600   47.192400
  H     36.378900   23.071100   46.685200
  S     44.573400   24.064000   45.734000
  C     45.212400   25.566600   46.251000
  C     44.229900   26.266800   46.901300
  C     42.951000   25.618800   46.997500
  C     43.044800   24.345800   46.392100
  H     44.516200   27.232700   47.350300
  C     41.604300   26.271100   47.443300
  H     41.126800   25.440100   47.960800
  H     41.121500   26.536900   46.514800
  C     41.810500   27.479800   48.345400
  H     42.396500   28.238700   47.731700
  H     42.456700   27.102200   49.135400
  C     40.533000   28.130900   48.919300
  H     39.945700   28.645800   48.151300
  H     40.588500   28.929200   49.698200
  H     39.831200   27.341400   49.337900
  H     40.620000   19.952800   45.871600
  H     46.207900   25.889700   46.331900

 Total Charge           Charge          ....    0
 Multiplicity           Mult            ....    1
 Number of Electrons    NEL             ....  134
 Basis Dimension        Dim             ....  322

ORBITAL ENERGIES
----------------

  NO   OCC          E(Eh)            E(eV)
   0   2.0000     -88.967454     -2420.9275
   1   2.0000     -88.965610     -2420.8773
   2   2.0000     -10.332980      -281.1747
   3   2.0000     -10.327633      -281.0292
   4   2.0000     -10.317290      -280.7477
   5   2.0000     -10.306249      -280.4473
   6   2.0000     -10.306031      -280.4414
   7   2.0000     -10.302146      -280.3356
   8   2.0000     -10.301634      -280.3217
   9   2.0000     -10.295196      -280.1465
  10   2.0000     -10.294380      -280.1243
  11   2.0000     -10.294203      -280.1195
  12   2.0000     -10.292508      -280.0734
  13   2.0000     -10.288088      -279.9531
  14   2.0000     -10.287956      -279.9495
  15   2.0000     -10.273089      -279.5450
  16   2.0000      -8.082280      -219.9300
  17   2.0000      -8.081810      -219.9172
  18   2.0000      -6.040892      -164.3810
  19   2.0000      -6.040245      -164.3634
  20   2.0000      -6.037011      -164.2754
  21   2.0000      -6.035854      -164.2439
  22   2.0000      -6.032825      -164.1615
  23   2.0000      -6.032666      -164.1572
  24   2.0000      -1.013858       -27.5885
  25   2.0000      -0.992263       -27.0008
  26   2.0000      -0.914074       -24.8732
  27   2.0000      -0.908454       -24.7203
  28   2.0000      -0.869742       -23.6669
  29   2.0000      -0.849901       -23.1270
  30   2.0000      -0.842727       -22.9318
  31   2.0000      -0.821410       -22.3517
  32   2.0000      -0.782809       -21.3013
  33   2.0000      -0.774399       -21.0725
  34   2.0000      -0.706286       -19.2190
  35   2.0000      -0.701214       -19.0810
  36   2.0000      -0.688416       -18.7327
  37   2.0000      -0.646181       -17.5835
  38   2.0000      -0.636354       -17.3161
  39   2.0000      -0.623913       -16.9775
  40   2.0000      -0.591837       -16.1047
  41   2.0000      -0.574158       -15.6236
  42   2.0000      -0.564994       -15.3743
  43   2.0000      -0.558554       -15.1990
  44   2.0000      -0.550169       -14.9709
  45   2.0000      -0.521136       -14.1808
  46   2.0000      -0.512846       -13.9553
  47   2.0000      -0.511076       -13.9071
  48   2.0000      -0.502369       -13.6702
  49   2.0000      -0.497019       -13.5246
  50   2.0000      -0.492253       -13.3949
  51   2.0000      -0.483695       -13.1620
  52   2.0000      -0.470463       -12.8019
  53   2.0000      -0.464849       -12.6492
  54   2.0000      -0.462539       -12.5863
  55   2.0000      -0.448699       -12.2097
  56   2.0000      -0.447778       -12.1847
  57   2.0000      -0.439245       -11.9525
  58   2.0000      -0.427617       -11.6360
  59   2.0000      -0.425116       -11.5680
  60   2.0000      -0.421061       -11.4577
  61   2.0000      -0.416049       -11.3213
  62   2.0000      -0.405725       -11.0403
  63   2.0000      -0.351477        -9.5642
  64   2.0000      -0.330676        -8.9982
  65   2.0000      -0.327806        -8.9200
  66   2.0000      -0.295647        -8.0450
  67   0.0000       0.030726         0.8361
  68   0.0000       0.068424         1.8619
  69   0.0000       0.107514         2.9256
  70   0.0000       0.124578         3.3899
  71   0.0000       0.134519         3.6605

MULLIKEN ATOMIC CHARGES
-----------------------
   0 S :    0.104018
   1 C :   -0.116872
   2 C :   -0.086154
   3 C :    0.030693
   4 C :   -0.125248
   5 H :    0.015333
   6 C :    0.010650
   7 H :    0.022354
   8 H :    0.058181
   9 C :   -0.083920
  10 H :    0.030036
  11 H :    0.032264
  12 C :   -0.031241
  13 H :    0.011861
  14 H :    0.039827
  15 H :    0.035401
  16 S :    0.117688
  17 C :   -0.063794
  18 C :   -0.083614
  19 C :   -0.068879
  20 C :   -0.170733
  21 H :    0.027339
  22 C :    0.088829
  23 H :    0.039354
  24 H :    0.045222
  25 C :   -0.108664
  26 H :    0.043749
  27 H :    0.037521
  28 C :   -0.052401
  29 H :    0.025995
  30 H :    0.042197
  31 H :    0.035333
  32 H :    0.058787
  33 H :    0.038886
Sum of atomic charges:    0.0000000

LOEWDIN ATOMIC CHARGES
----------------------
   0 S :    0.401805
   1 C :   -0.198025
   2 C :   -0.071051
   3 C :   -0.061969
   4 C :   -0.186287
   5 H :    0.031214
   6 C :   -0.043364
   7 H :    0.033918
   8 H :    0.043335
   9 C :   -0.048178
  10 H :    0.021747
  11 H :    0.029035
  12 C :   -0.063132
  13 H :    0.021366
  14 H :    0.021860
  15 H :    0.031950
  16 S :    0.449826
  17 C :   -0.207240
  18 C :   -0.077583
  19 C :   -0.064805
  20 C :   -0.217436
  21 H :    0.032851
  22 C :   -0.024513
  23 H :    0.034598
  24 H :    0.030510
  25 C :   -0.049116
  26 H :    0.030812
  27 H :    0.026852
  28 C :   -0.079415
  29 H :    0.024395
  30 H :    0.031424
  31 H :    0.031521
  32 H :    0.037895
  33 H :    0.025200

  Mayer bond orders larger than 0.100000
B(  0-S ,  1-C ) :   1.1364 B(  0-S ,  4-C ) :   1.1436 B(  1-C ,  2-C ) :   1.6271
B(  1-C , 32-H ) :   0.9579 B(  2-C ,  3-C ) :   1.2212 B(  2-C ,  6-C ) :   1.0288
B(  3-C ,  4-C ) :   1.5926 B(  3-C ,  5-H ) :   0.9941 B(  4-C , 20-C ) :   0.9978
B(  6-C ,  7-H ) :   0.9429 B(  6-C ,  8-H ) :   0.9338 B(  6-C ,  9-C ) :   1.0806
B(  9-C , 10-H ) :   0.9498 B(  9-C , 11-H ) :   0.9545 B(  9-C , 12-C ) :   1.0796
B( 12-C , 13-H ) :   0.9699 B( 12-C , 14-H ) :   0.9748 B( 12-C , 15-H ) :   0.9742
B( 16-S , 17-C ) :   1.1557 B( 16-S , 20-C ) :   1.1943 B( 17-C , 18-C ) :   1.6018
B( 17-C , 33-H ) :   0.9682 B( 18-C , 19-C ) :   1.2689 B( 18-C , 21-H ) :   0.9807
B( 19-C , 20-C ) :   1.5706 B( 19-C , 22-C ) :   1.0129 B( 22-C , 23-H ) :   0.9264
B( 22-C , 24-H ) :   0.9386 B( 22-C , 25-C ) :   1.0842 B( 25-C , 26-H ) :   0.9464
B( 25-C , 27-H ) :   0.9603 B( 25-C , 28-C ) :   1.0726 B( 28-C , 29-H ) :   0.9729
B( 28-C , 30-H ) :   0.9763 B( 28-C , 31-H ) :   0.9738

Dispersion correction           -0.013788074
FINAL SINGLE POINT ENERGY     -1339.869058885309

DIPOLE MOMENT
-------------
                                X             Y             Z
Electronic contribution:     26.29711     -13.34637      -6.69726
Nuclear contribution   :    -26.84371      13.65349       6.62226
                        -----------------------------------------
Total Dipole Moment    :     -0.54659       0.30713      -0.07499
                        -----------------------------------------
Magnitude (a.u.)       :      0.63144
Magnitude (Debye)      :      1.60499

Rotational constants in cm-1:     0.016273     0.009425     0.006409
Rotational constants in MHz :   487.863302   282.567170   192.139318

                             ****ORCA TERMINATED NORMALLY****
TOTAL RUN TIME: 0 days 0 hours 0 minutes 33 seconds 822 msec
