                         Program Version 4.2.1 -  RELEASE  -
|  1> ! wB97X-D3 SP def2-SVP
|  2> %pal
|  3> nprocs 16
|  4> end
|  5>
|  6> * xyz 0 1
|  7> S 	 -28.3762 	 -2.84482 	 103.365
|  8> C 	 -27.9628 	 -2.90008 	 105.023
|  9> C 	 -27.8601 	 -1.60428 	 105.603
| 10> C 	 -28.1315 	 -0.633715 	 104.545
| 11> C 	 -28.4078 	 -1.11283 	 103.296
| 12> H 	 -28.1439 	 0.420615 	 104.687
| 13> C 	 -27.7501 	 -1.35075 	 107.048
| 14> H 	 -27.9348 	 -2.30274 	 107.575
| 15> H 	 -28.5975 	 -0.605705 	 107.222
| 16> C 	 -26.348 	 -0.792068 	 107.486
| 17> H 	 -26.1516 	 0.145206 	 107.04
| 18> H 	 -26.3396 	 -0.580677 	 108.541
| 19> C 	 -25.1433 	 -1.73494 	 107.31
| 20> H 	 -25.0369 	 -1.95781 	 106.24
| 21> H 	 -24.2395 	 -1.06726 	 107.57
| 22> H 	 -25.2494 	 -2.74722 	 107.839
| 23> S 	 -28.421 	 -0.917457 	 100.487
| 24> C 	 -29.3387 	 0.323744 	 99.7215
| 25> C 	 -29.8581 	 1.20672 	 100.663
| 26> C 	 -29.5152 	 0.882232 	 102.013
| 27> C 	 -28.8743 	 -0.331431 	 102.118
| 28> H 	 -30.5101 	 1.95812 	 100.308
| 29> C 	 -30.1298 	 1.73317 	 103.101
| 30> H 	 -30.4383 	 2.65187 	 102.661
| 31> H 	 -29.3876 	 1.78021 	 103.865
| 32> C 	 -31.3204 	 1.10491 	 103.809
| 33> H 	 -30.9755 	 0.209432 	 104.379
| 34> H 	 -32.026 	 0.653691 	 103.05
| 35> C 	 -32.0328 	 2.0561 	 104.736
| 36> H 	 -31.3319 	 2.63267 	 105.303
| 37> H 	 -32.8133 	 1.5155 	 105.322
| 38> H 	 -32.5215 	 2.86874 	 104.177
| 39> H 	 -27.951 	 -3.899 	 105.465
| 40> H 	 -29.2855 	 0.563884 	 98.6428
| 41> *
| 42>
| 43>                          ****END OF INPUT****

CARTESIAN COORDINATES (ANGSTROEM)
---------------------------------
  S    -28.376200   -2.844820  103.365000
  C    -27.962800   -2.900080  105.023000
  C    -27.860100   -1.604280  105.603000
  C    -28.131500   -0.633715  104.545000
  C    -28.407800   -1.112830  103.296000
  H    -28.143900    0.420615  104.687000
  C    -27.750100   -1.350750  107.048000
  H    -27.934800   -2.302740  107.575000
  H    -28.597500   -0.605705  107.222000
  C    -26.348000   -0.792068  107.486000
  H    -26.151600    0.145206  107.040000
  H    -26.339600   -0.580677  108.541000
  C    -25.143300   -1.734940  107.310000
  H    -25.036900   -1.957810  106.240000
  H    -24.239500   -1.067260  107.570000
  H    -25.249400   -2.747220  107.839000
  S    -28.421000   -0.917457  100.487000
  C    -29.338700    0.323744   99.721500
  C    -29.858100    1.206720  100.663000
  C    -29.515200    0.882232  102.013000
  C    -28.874300   -0.331431  102.118000
  H    -30.510100    1.958120  100.308000
  C    -30.129800    1.733170  103.101000
  H    -30.438300    2.651870  102.661000
  H    -29.387600    1.780210  103.865000
  C    -31.320400    1.104910  103.809000
  H    -30.975500    0.209432  104.379000
  H    -32.026000    0.653691  103.050000
  C    -32.032800    2.056100  104.736000
  H    -31.331900    2.632670  105.303000
  H    -32.813300    1.515500  105.322000
  H    -32.521500    2.868740  104.177000
  H    -27.951000   -3.899000  105.465000
  H    -29.285500    0.563884   98.642800

 Total Charge           Charge          ....    0
 Multiplicity           Mult            ....    1
 Number of Electrons    NEL             ....  134
 Basis Dimension        Dim             ....  322

ORBITAL ENERGIES
----------------

  NO   OCC          E(Eh)            E(eV)
   0   2.0000     -88.965730     -2420.8806
   1   2.0000     -88.963978     -2420.8329
   2   2.0000     -10.334040      -281.2035
   3   2.0000     -10.330651      -281.1113
   4   2.0000     -10.318330      -280.7760
   5   2.0000     -10.317178      -280.7447
   6   2.0000     -10.308683      -280.5135
   7   2.0000     -10.303990      -280.3858
   8   2.0000     -10.301950      -280.3303
   9   2.0000     -10.293931      -280.1121
  10   2.0000     -10.291399      -280.0432
  11   2.0000     -10.288993      -279.9777
  12   2.0000     -10.287749      -279.9439
  13   2.0000     -10.286172      -279.9010
  14   2.0000     -10.285043      -279.8703
  15   2.0000     -10.278946      -279.7043
  16   2.0000      -8.080314      -219.8765
  17   2.0000      -8.079901      -219.8653
  18   2.0000      -6.038841      -164.3252
  19   2.0000      -6.038318      -164.3110
  20   2.0000      -6.034773      -164.2145
  21   2.0000      -6.034122      -164.1968
  22   2.0000      -6.031145      -164.1158
  23   2.0000      -6.030813      -164.1068
  24   2.0000      -1.007619       -27.4187
  25   2.0000      -0.986882       -26.8544
  26   2.0000      -0.916247       -24.9324
  27   2.0000      -0.911342       -24.7989
  28   2.0000      -0.867344       -23.6016
  29   2.0000      -0.854642       -23.2560
  30   2.0000      -0.847125       -23.0514
  31   2.0000      -0.815713       -22.1967
  32   2.0000      -0.783860       -21.3299
  33   2.0000      -0.769713       -20.9450
  34   2.0000      -0.705581       -19.1998
  35   2.0000      -0.697594       -18.9825
  36   2.0000      -0.686023       -18.6676
  37   2.0000      -0.665147       -18.0996
  38   2.0000      -0.644695       -17.5430
  39   2.0000      -0.624861       -17.0033
  40   2.0000      -0.595462       -16.2034
  41   2.0000      -0.572928       -15.5902
  42   2.0000      -0.562480       -15.3058
  43   2.0000      -0.548870       -14.9355
  44   2.0000      -0.543054       -14.7773
  45   2.0000      -0.529481       -14.4079
  46   2.0000      -0.519563       -14.1380
  47   2.0000      -0.518015       -14.0959
  48   2.0000      -0.499620       -13.5953
  49   2.0000      -0.496645       -13.5144
  50   2.0000      -0.493573       -13.4308
  51   2.0000      -0.482412       -13.1271
  52   2.0000      -0.472616       -12.8605
  53   2.0000      -0.467855       -12.7310
  54   2.0000      -0.457425       -12.4472
  55   2.0000      -0.447247       -12.1702
  56   2.0000      -0.439735       -11.9658
  57   2.0000      -0.435987       -11.8638
  58   2.0000      -0.434581       -11.8255
  59   2.0000      -0.431305       -11.7364
  60   2.0000      -0.419613       -11.4183
  61   2.0000      -0.411323       -11.1927
  62   2.0000      -0.409009       -11.1297
  63   2.0000      -0.357718        -9.7340
  64   2.0000      -0.331091        -9.0094
  65   2.0000      -0.326335        -8.8800
  66   2.0000      -0.287222        -7.8157
  67   0.0000       0.026390         0.7181
  68   0.0000       0.074927         2.0389
  69   0.0000       0.107262         2.9188
  70   0.0000       0.111143         3.0244
  71   0.0000       0.140485         3.8228

MULLIKEN ATOMIC CHARGES
-----------------------
   0 S :    0.108067
   1 C :   -0.145137
   2 C :   -0.076496
   3 C :   -0.015589
   4 C :   -0.094717
   5 H :   -0.010267
   6 C :    0.044487
   7 H :    0.028380
   8 H :    0.051149
   9 C :   -0.051677
  10 H :    0.018227
  11 H :    0.024960
  12 C :   -0.098512
  13 H :    0.041411
  14 H :    0.051054
  15 H :    0.050092
  16 S :    0.098176
  17 C :   -0.097736
  18 C :   -0.046044
  19 C :   -0.044469
  20 C :   -0.139314
  21 H :    0.008877
  22 C :    0.110614
  23 H :    0.010185
  24 H :    0.008330
  25 C :   -0.110277
  26 H :    0.038547
  27 H :    0.032448
  28 C :   -0.018519
  29 H :    0.015636
  30 H :    0.050215
  31 H :    0.020023
  32 H :    0.062970
  33 H :    0.074905
Sum of atomic charges:    0.0000000

LOEWDIN ATOMIC CHARGES
----------------------
   0 S :    0.427377
   1 C :   -0.211855
   2 C :   -0.063171
   3 C :   -0.069657
   4 C :   -0.200296
   5 H :    0.020573
   6 C :   -0.037468
   7 H :    0.034484
   8 H :    0.045752
   9 C :   -0.041863
  10 H :    0.017989
  11 H :    0.021716
  12 C :   -0.077434
  13 H :    0.023342
  14 H :    0.040715
  15 H :    0.033528
  16 S :    0.398809
  17 C :   -0.197404
  18 C :   -0.070890
  19 C :   -0.053367
  20 C :   -0.180772
  21 H :    0.025467
  22 C :   -0.023185
  23 H :    0.025871
  24 H :    0.023860
  25 C :   -0.047448
  26 H :    0.027593
  27 H :    0.027058
  28 C :   -0.067645
  29 H :    0.020248
  30 H :    0.035491
  31 H :    0.024792
  32 H :    0.028589
  33 H :    0.039199

  Mayer bond orders larger than 0.100000
B(  0-S ,  1-C ) :   1.1734 B(  0-S ,  4-C ) :   1.1556 B(  1-C ,  2-C ) :   1.5479
B(  1-C , 32-H ) :   0.9697 B(  2-C ,  3-C ) :   1.2485 B(  2-C ,  6-C ) :   1.0311
B(  3-C ,  4-C ) :   1.5762 B(  3-C ,  5-H ) :   1.0011 B(  4-C , 20-C ) :   1.0332
B(  6-C ,  7-H ) :   0.9426 B(  6-C ,  8-H ) :   0.9398 B(  6-C ,  9-C ) :   1.0610
B(  9-C , 10-H ) :   0.9575 B(  9-C , 11-H ) :   0.9573 B(  9-C , 12-C ) :   1.0716
B( 12-C , 13-H ) :   0.9757 B( 12-C , 14-H ) :   0.9706 B( 12-C , 15-H ) :   0.9729
B( 16-S , 17-C ) :   1.1634 B( 16-S , 20-C ) :   1.1335 B( 17-C , 18-C ) :   1.6071
B( 17-C , 20-C ) :   0.1006 B( 17-C , 33-H ) :   0.9600 B( 18-C , 19-C ) :   1.2386
B( 18-C , 21-H ) :   0.9961 B( 19-C , 20-C ) :   1.5960 B( 19-C , 22-C ) :   1.0574
B( 22-C , 23-H ) :   0.9324 B( 22-C , 24-H ) :   0.9166 B( 22-C , 25-C ) :   1.0746
B( 25-C , 26-H ) :   0.9481 B( 25-C , 27-H ) :   0.9536 B( 25-C , 28-C ) :   1.0859
B( 28-C , 29-H ) :   0.9688 B( 28-C , 30-H ) :   0.9722 B( 28-C , 31-H ) :   0.9710

Dispersion correction           -0.014484312
FINAL SINGLE POINT ENERGY     -1339.878023544756

DIPOLE MOMENT
-------------
                                X             Y             Z
Electronic contribution:      2.39921     -12.23831     -23.80244
Nuclear contribution   :     -2.64314      12.70968      24.24518
                        -----------------------------------------
Total Dipole Moment    :     -0.24393       0.47137       0.44274
                        -----------------------------------------
Magnitude (a.u.)       :      0.69117
Magnitude (Debye)      :      1.75681

Rotational constants in cm-1:     0.018596     0.008772     0.006814
Rotational constants in MHz :   557.496629   262.990659   204.267659

                             ****ORCA TERMINATED NORMALLY****
TOTAL RUN TIME: 0 days 0 hours 0 minutes 30 seconds 643 msec
