                         Program Version 4.2.1 -  RELEASE  -
|  1> ! wB97X-D3 SP def2-SVP
|  2> %pal
|  3> nprocs 16
|  4> end
|  5>
|  6> * xyz 0 1
|  7> S 	 -66.2936 	 61.4017 	 128.532
|  8> C 	 -67.9092 	 61.9692 	 128.95
|  9> C 	 -68.8506 	 61.5314 	 128.066
| 10> C 	 -68.2721 	 60.8017 	 126.996
| 11> C 	 -66.8908 	 60.5962 	 127.121
| 12> H 	 -68.7835 	 60.263 	 126.24
| 13> C 	 -70.2627 	 61.8929 	 128.141
| 14> H 	 -70.645 	 62.4211 	 127.246
| 15> H 	 -70.4342 	 62.6349 	 128.906
| 16> C 	 -71.1339 	 60.7751 	 128.644
| 17> H 	 -72.1403 	 60.9899 	 128.411
| 18> H 	 -70.8955 	 59.8829 	 128.033
| 19> C 	 -70.9856 	 60.3461 	 130.085
| 20> H 	 -70.0606 	 59.7857 	 130.163
| 21> H 	 -71.0071 	 61.2038 	 130.843
| 22> H 	 -71.8211 	 59.704 	 130.242
| 23> S 	 -65.0247 	 58.5627 	 127.031
| 24> C 	 -64.5245 	 57.9637 	 125.471
| 25> C 	 -65.1475 	 58.5752 	 124.439
| 26> C 	 -65.8429 	 59.7398 	 124.884
| 27> C 	 -66.1076 	 59.7517 	 126.263
| 28> H 	 -64.7927 	 58.1529 	 123.523
| 29> C 	 -66.3606 	 60.7307 	 123.813
| 30> H 	 -65.5594 	 60.9383 	 123.097
| 31> H 	 -66.4402 	 61.6772 	 124.376
| 32> C 	 -67.5936 	 60.2978 	 123.018
| 33> H 	 -68.4022 	 60.5206 	 123.606
| 34> H 	 -67.6395 	 59.2861 	 122.722
| 35> C 	 -67.6664 	 61.094 	 121.692
| 36> H 	 -67.4263 	 62.096 	 121.925
| 37> H 	 -68.7365 	 61.1139 	 121.197
| 38> H 	 -66.8259 	 60.6886 	 121.059
| 39> H 	 -68.2309 	 62.4629 	 129.857
| 40> H 	 -63.7857 	 57.2066 	 125.392
| 41> *
| 42>
| 43>                          ****END OF INPUT****

CARTESIAN COORDINATES (ANGSTROEM)
---------------------------------
  S    -66.293600   61.401700  128.532000
  C    -67.909200   61.969200  128.950000
  C    -68.850600   61.531400  128.066000
  C    -68.272100   60.801700  126.996000
  C    -66.890800   60.596200  127.121000
  H    -68.783500   60.263000  126.240000
  C    -70.262700   61.892900  128.141000
  H    -70.645000   62.421100  127.246000
  H    -70.434200   62.634900  128.906000
  C    -71.133900   60.775100  128.644000
  H    -72.140300   60.989900  128.411000
  H    -70.895500   59.882900  128.033000
  C    -70.985600   60.346100  130.085000
  H    -70.060600   59.785700  130.163000
  H    -71.007100   61.203800  130.843000
  H    -71.821100   59.704000  130.242000
  S    -65.024700   58.562700  127.031000
  C    -64.524500   57.963700  125.471000
  C    -65.147500   58.575200  124.439000
  C    -65.842900   59.739800  124.884000
  C    -66.107600   59.751700  126.263000
  H    -64.792700   58.152900  123.523000
  C    -66.360600   60.730700  123.813000
  H    -65.559400   60.938300  123.097000
  H    -66.440200   61.677200  124.376000
  C    -67.593600   60.297800  123.018000
  H    -68.402200   60.520600  123.606000
  H    -67.639500   59.286100  122.722000
  C    -67.666400   61.094000  121.692000
  H    -67.426300   62.096000  121.925000
  H    -68.736500   61.113900  121.197000
  H    -66.825900   60.688600  121.059000
  H    -68.230900   62.462900  129.857000
  H    -63.785700   57.206600  125.392000

 Total Charge           Charge          ....    0
 Multiplicity           Mult            ....    1
 Number of Electrons    NEL             ....  134
 Basis Dimension        Dim             ....  322

ORBITAL ENERGIES
----------------

  NO   OCC          E(Eh)            E(eV)
   0   2.0000     -88.968807     -2420.9643
   1   2.0000     -88.959856     -2420.7208
   2   2.0000     -10.329587      -281.0824
   3   2.0000     -10.329307      -281.0747
   4   2.0000     -10.312209      -280.6095
   5   2.0000     -10.311831      -280.5992
   6   2.0000     -10.310680      -280.5679
   7   2.0000     -10.294627      -280.1310
   8   2.0000     -10.292847      -280.0826
   9   2.0000     -10.291498      -280.0459
  10   2.0000     -10.289249      -279.9847
  11   2.0000     -10.286197      -279.9017
  12   2.0000     -10.284817      -279.8641
  13   2.0000     -10.278626      -279.6956
  14   2.0000     -10.278295      -279.6866
  15   2.0000     -10.276058      -279.6257
  16   2.0000      -8.083451      -219.9619
  17   2.0000      -8.074849      -219.7278
  18   2.0000      -6.041960      -164.4101
  19   2.0000      -6.037911      -164.2999
  20   2.0000      -6.034266      -164.2007
  21   2.0000      -6.033306      -164.1746
  22   2.0000      -6.029383      -164.0679
  23   2.0000      -6.025592      -163.9647
  24   2.0000      -1.008307       -27.4374
  25   2.0000      -0.986935       -26.8559
  26   2.0000      -0.924097       -25.1460
  27   2.0000      -0.908786       -24.7293
  28   2.0000      -0.875166       -23.8145
  29   2.0000      -0.851316       -23.1655
  30   2.0000      -0.845829       -23.0162
  31   2.0000      -0.817968       -22.2581
  32   2.0000      -0.786581       -21.4040
  33   2.0000      -0.768368       -20.9084
  34   2.0000      -0.714171       -19.4336
  35   2.0000      -0.701698       -19.0942
  36   2.0000      -0.691918       -18.8280
  37   2.0000      -0.658295       -17.9131
  38   2.0000      -0.641858       -17.4658
  39   2.0000      -0.625565       -17.0225
  40   2.0000      -0.595958       -16.2168
  41   2.0000      -0.580684       -15.8012
  42   2.0000      -0.569750       -15.5037
  43   2.0000      -0.557590       -15.1728
  44   2.0000      -0.541484       -14.7345
  45   2.0000      -0.529119       -14.3981
  46   2.0000      -0.520177       -14.1547
  47   2.0000      -0.510357       -13.8875
  48   2.0000      -0.503758       -13.7079
  49   2.0000      -0.497187       -13.5291
  50   2.0000      -0.490472       -13.3464
  51   2.0000      -0.478351       -13.0166
  52   2.0000      -0.470568       -12.8048
  53   2.0000      -0.462056       -12.5732
  54   2.0000      -0.460645       -12.5348
  55   2.0000      -0.447992       -12.1905
  56   2.0000      -0.442100       -12.0302
  57   2.0000      -0.439501       -11.9594
  58   2.0000      -0.437188       -11.8965
  59   2.0000      -0.422521       -11.4974
  60   2.0000      -0.419817       -11.4238
  61   2.0000      -0.415707       -11.3120
  62   2.0000      -0.409058       -11.1310
  63   2.0000      -0.345403        -9.3989
  64   2.0000      -0.333823        -9.0838
  65   2.0000      -0.328345        -8.9347
  66   2.0000      -0.292760        -7.9664
  67   0.0000       0.026604         0.7239
  68   0.0000       0.073468         1.9992
  69   0.0000       0.113856         3.0982
  70   0.0000       0.119878         3.2620
  71   0.0000       0.129475         3.5232

MULLIKEN ATOMIC CHARGES
-----------------------
   0 S :    0.121785
   1 C :   -0.106994
   2 C :   -0.081188
   3 C :    0.034137
   4 C :   -0.154754
   5 H :    0.003245
   6 C :    0.076761
   7 H :    0.040385
   8 H :   -0.003173
   9 C :   -0.078738
  10 H :    0.013396
  11 H :    0.020394
  12 C :   -0.046207
  13 H :    0.046410
  14 H :    0.035154
  15 H :    0.034035
  16 S :    0.084031
  17 C :   -0.091958
  18 C :   -0.005265
  19 C :   -0.047908
  20 C :   -0.148607
  21 H :    0.015443
  22 C :    0.033060
  23 H :    0.017950
  24 H :    0.038003
  25 C :    0.006891
  26 H :    0.006611
  27 H :    0.025520
  28 C :   -0.099242
  29 H :    0.023883
  30 H :    0.055758
  31 H :    0.043882
  32 H :    0.041635
  33 H :    0.045665
Sum of atomic charges:    0.0000000

LOEWDIN ATOMIC CHARGES
----------------------
   0 S :    0.411305
   1 C :   -0.190211
   2 C :   -0.066689
   3 C :   -0.052880
   4 C :   -0.203170
   5 H :    0.024297
   6 C :   -0.038447
   7 H :    0.038584
   8 H :    0.025840
   9 C :   -0.041415
  10 H :    0.015376
  11 H :    0.025024
  12 C :   -0.062660
  13 H :    0.028524
  14 H :    0.028165
  15 H :    0.027091
  16 S :    0.381097
  17 C :   -0.165932
  18 C :   -0.076753
  19 C :   -0.045752
  20 C :   -0.193404
  21 H :    0.035202
  22 C :   -0.031739
  23 H :    0.027945
  24 H :    0.035919
  25 C :   -0.030898
  26 H :    0.011338
  27 H :    0.020643
  28 C :   -0.070422
  29 H :    0.013882
  30 H :    0.039661
  31 H :    0.030689
  32 H :    0.029518
  33 H :    0.020271

  Mayer bond orders larger than 0.100000
B(  0-S ,  1-C ) :   1.1274 B(  0-S ,  4-C ) :   1.1530 B(  1-C ,  2-C ) :   1.6201
B(  1-C , 32-H ) :   0.9603 B(  2-C ,  3-C ) :   1.2382 B(  2-C ,  6-C ) :   1.0405
B(  3-C ,  4-C ) :   1.5517 B(  3-C ,  5-H ) :   0.9991 B(  4-C , 20-C ) :   1.0802
B(  6-C ,  7-H ) :   0.9397 B(  6-C ,  8-H ) :   0.9331 B(  6-C ,  9-C ) :   1.0649
B(  9-C , 10-H ) :   0.9562 B(  9-C , 11-H ) :   0.9542 B(  9-C , 12-C ) :   1.0782
B( 12-C , 13-H ) :   0.9738 B( 12-C , 14-H ) :   0.9727 B( 12-C , 15-H ) :   0.9722
B( 16-S , 17-C ) :   1.1547 B( 16-S , 20-C ) :   1.1135 B( 17-C , 18-C ) :   1.6450
B( 17-C , 33-H ) :   0.9685 B( 18-C , 19-C ) :   1.1892 B( 18-C , 21-H ) :   0.9935
B( 19-C , 20-C ) :   1.6002 B( 19-C , 22-C ) :   1.0474 B( 22-C , 23-H ) :   0.9439
B( 22-C , 24-H ) :   0.9283 B( 22-C , 25-C ) :   1.0521 B( 25-C , 26-H ) :   0.9501
B( 25-C , 27-H ) :   0.9637 B( 25-C , 28-C ) :   1.0720 B( 28-C , 29-H ) :   0.9753
B( 28-C , 30-H ) :   0.9724 B( 28-C , 31-H ) :   0.9771

Dispersion correction           -0.014139022
FINAL SINGLE POINT ENERGY     -1339.858845753409

DIPOLE MOMENT
-------------
                                X             Y             Z
Electronic contribution:     21.75252      -4.77386      11.30924
Nuclear contribution   :    -22.19561       4.78118     -11.68356
                        -----------------------------------------
Total Dipole Moment    :     -0.44309       0.00732      -0.37431
                        -----------------------------------------
Magnitude (a.u.)       :      0.58008
Magnitude (Debye)      :      1.47444

Rotational constants in cm-1:     0.017796     0.008637     0.006756
Rotational constants in MHz :   533.522982   258.928505   202.531927

                             ****ORCA TERMINATED NORMALLY****
TOTAL RUN TIME: 0 days 0 hours 0 minutes 33 seconds 732 msec
