                         Program Version 4.2.1 -  RELEASE  -
|  1> ! wB97X-D3 SP def2-SVP
|  2> %pal
|  3> nprocs 16
|  4> end
|  5>
|  6> * xyz 0 1
|  7> S 	 -2.2024 	 -10.4847 	 82.3594
|  8> C 	 -3.73277 	 -11.1361 	 81.818
|  9> C 	 -4.47107 	 -11.6494 	 82.8717
| 10> C 	 -3.77428 	 -11.4746 	 84.1367
| 11> C 	 -2.57295 	 -10.7905 	 84.065
| 12> H 	 -4.07321 	 -11.8896 	 85.083
| 13> C 	 -5.66457 	 -12.4456 	 82.7361
| 14> H 	 -5.47587 	 -13.3076 	 83.3211
| 15> H 	 -5.763 	 -12.8843 	 81.6798
| 16> C 	 -7.04339 	 -11.8732 	 83.0611
| 17> H 	 -7.80725 	 -12.648 	 82.7933
| 18> H 	 -7.0405 	 -11.6455 	 84.162
| 19> C 	 -7.41625 	 -10.7243 	 82.1876
| 20> H 	 -7.18412 	 -11.0709 	 81.2443
| 21> H 	 -8.507 	 -10.4912 	 82.2295
| 22> H 	 -6.91185 	 -9.82749 	 82.407
| 23> S 	 -0.335129 	 -11.6997 	 85.2204
| 24> C 	 0.00155863 	 -11.2396 	 86.8779
| 25> C 	 -0.842557 	 -10.2256 	 87.267
| 26> C 	 -1.74549 	 -9.73038 	 86.2477
| 27> C 	 -1.69479 	 -10.5551 	 85.1602
| 28> H 	 -0.863932 	 -9.88914 	 88.2496
| 29> C 	 -2.72035 	 -8.61227 	 86.4224
| 30> H 	 -3.16472 	 -8.78929 	 87.3302
| 31> H 	 -3.40667 	 -8.58797 	 85.6223
| 32> C 	 -2.16003 	 -7.21593 	 86.3393
| 33> H 	 -2.86845 	 -6.3594 	 86.2521
| 34> H 	 -1.48944 	 -6.95613 	 85.4996
| 35> C 	 -1.25628 	 -6.86837 	 87.4902
| 36> H 	 -0.449902 	 -7.50261 	 87.5589
| 37> H 	 -1.8719 	 -7.03983 	 88.3748
| 38> H 	 -1.0153 	 -5.83837 	 87.6717
| 39> H 	 -4.08401 	 -11.1467 	 80.8237
| 40> H 	 0.763361 	 -11.6763 	 87.5319
| 41> *
| 42>
| 43>                          ****END OF INPUT****

CARTESIAN COORDINATES (ANGSTROEM)
---------------------------------
  S     -2.202400  -10.484700   82.359400
  C     -3.732770  -11.136100   81.818000
  C     -4.471070  -11.649400   82.871700
  C     -3.774280  -11.474600   84.136700
  C     -2.572950  -10.790500   84.065000
  H     -4.073210  -11.889600   85.083000
  C     -5.664570  -12.445600   82.736100
  H     -5.475870  -13.307600   83.321100
  H     -5.763000  -12.884300   81.679800
  C     -7.043390  -11.873200   83.061100
  H     -7.807250  -12.648000   82.793300
  H     -7.040500  -11.645500   84.162000
  C     -7.416250  -10.724300   82.187600
  H     -7.184120  -11.070900   81.244300
  H     -8.507000  -10.491200   82.229500
  H     -6.911850   -9.827490   82.407000
  S     -0.335129  -11.699700   85.220400
  C      0.001559  -11.239600   86.877900
  C     -0.842557  -10.225600   87.267000
  C     -1.745490   -9.730380   86.247700
  C     -1.694790  -10.555100   85.160200
  H     -0.863932   -9.889140   88.249600
  C     -2.720350   -8.612270   86.422400
  H     -3.164720   -8.789290   87.330200
  H     -3.406670   -8.587970   85.622300
  C     -2.160030   -7.215930   86.339300
  H     -2.868450   -6.359400   86.252100
  H     -1.489440   -6.956130   85.499600
  C     -1.256280   -6.868370   87.490200
  H     -0.449902   -7.502610   87.558900
  H     -1.871900   -7.039830   88.374800
  H     -1.015300   -5.838370   87.671700
  H     -4.084010  -11.146700   80.823700
  H      0.763361  -11.676300   87.531900

 Total Charge           Charge          ....    0
 Multiplicity           Mult            ....    1
 Number of Electrons    NEL             ....  134
 Basis Dimension        Dim             ....  322

ORBITAL ENERGIES
----------------

  NO   OCC          E(Eh)            E(eV)
   0   2.0000     -88.964231     -2420.8398
   1   2.0000     -88.962049     -2420.7804
   2   2.0000     -10.327488      -281.0252
   3   2.0000     -10.323897      -280.9275
   4   2.0000     -10.320583      -280.8373
   5   2.0000     -10.312654      -280.6216
   6   2.0000     -10.305643      -280.4308
   7   2.0000     -10.298757      -280.2434
   8   2.0000     -10.295342      -280.1505
   9   2.0000     -10.291894      -280.0567
  10   2.0000     -10.288987      -279.9776
  11   2.0000     -10.287291      -279.9314
  12   2.0000     -10.283609      -279.8312
  13   2.0000     -10.283514      -279.8286
  14   2.0000     -10.266062      -279.3538
  15   2.0000     -10.260733      -279.2087
  16   2.0000      -8.078692      -219.8324
  17   2.0000      -8.076840      -219.7820
  18   2.0000      -6.037273      -164.2825
  19   2.0000      -6.035398      -164.2315
  20   2.0000      -6.033194      -164.1716
  21   2.0000      -6.031381      -164.1222
  22   2.0000      -6.029435      -164.0693
  23   2.0000      -6.027480      -164.0161
  24   2.0000      -1.007118       -27.4051
  25   2.0000      -0.982914       -26.7465
  26   2.0000      -0.921908       -25.0864
  27   2.0000      -0.919844       -25.0302
  28   2.0000      -0.875901       -23.8345
  29   2.0000      -0.854440       -23.2505
  30   2.0000      -0.849704       -23.1216
  31   2.0000      -0.816635       -22.2218
  32   2.0000      -0.790204       -21.5025
  33   2.0000      -0.777355       -21.1529
  34   2.0000      -0.712317       -19.3831
  35   2.0000      -0.697140       -18.9701
  36   2.0000      -0.694344       -18.8941
  37   2.0000      -0.667835       -18.1727
  38   2.0000      -0.642248       -17.4765
  39   2.0000      -0.618085       -16.8189
  40   2.0000      -0.599339       -16.3089
  41   2.0000      -0.574100       -15.6220
  42   2.0000      -0.562136       -15.2965
  43   2.0000      -0.559843       -15.2341
  44   2.0000      -0.559240       -15.2177
  45   2.0000      -0.545258       -14.8372
  46   2.0000      -0.523629       -14.2487
  47   2.0000      -0.515883       -14.0379
  48   2.0000      -0.507590       -13.8122
  49   2.0000      -0.500515       -13.6197
  50   2.0000      -0.492919       -13.4130
  51   2.0000      -0.489147       -13.3104
  52   2.0000      -0.470892       -12.8136
  53   2.0000      -0.466786       -12.7019
  54   2.0000      -0.461659       -12.5624
  55   2.0000      -0.443591       -12.0707
  56   2.0000      -0.440100       -11.9757
  57   2.0000      -0.435915       -11.8619
  58   2.0000      -0.426616       -11.6088
  59   2.0000      -0.424361       -11.5475
  60   2.0000      -0.420946       -11.4545
  61   2.0000      -0.412877       -11.2349
  62   2.0000      -0.405132       -11.0242
  63   2.0000      -0.337004        -9.1704
  64   2.0000      -0.329297        -8.9606
  65   2.0000      -0.323561        -8.8045
  66   2.0000      -0.304141        -8.2761
  67   0.0000       0.039723         1.0809
  68   0.0000       0.054435         1.4813
  69   0.0000       0.111794         3.0421
  70   0.0000       0.120389         3.2759
  71   0.0000       0.123646         3.3646

MULLIKEN ATOMIC CHARGES
-----------------------
   0 S :    0.106406
   1 C :   -0.098482
   2 C :   -0.062388
   3 C :    0.052376
   4 C :   -0.170602
   5 H :    0.009007
   6 C :    0.016048
   7 H :    0.024338
   8 H :    0.024616
   9 C :   -0.079693
  10 H :    0.035561
  11 H :    0.033055
  12 C :   -0.001389
  13 H :   -0.003141
  14 H :    0.035459
  15 H :    0.029612
  16 S :    0.103021
  17 C :   -0.083104
  18 C :   -0.026957
  19 C :   -0.032182
  20 C :   -0.192877
  21 H :   -0.003673
  22 C :    0.184489
  23 H :    0.007229
  24 H :    0.020873
  25 C :   -0.094442
  26 H :    0.029110
  27 H :    0.030239
  28 C :   -0.032519
  29 H :    0.022420
  30 H :   -0.005259
  31 H :    0.025428
  32 H :    0.032492
  33 H :    0.064930
Sum of atomic charges:    0.0000000

LOEWDIN ATOMIC CHARGES
----------------------
   0 S :    0.392894
   1 C :   -0.184067
   2 C :   -0.068304
   3 C :   -0.048562
   4 C :   -0.201338
   5 H :    0.029078
   6 C :   -0.044966
   7 H :    0.031661
   8 H :    0.035833
   9 C :   -0.041246
  10 H :    0.032210
  11 H :    0.023599
  12 C :   -0.057295
  13 H :    0.012848
  14 H :    0.032510
  15 H :    0.019418
  16 S :    0.389515
  17 C :   -0.181066
  18 C :   -0.067209
  19 C :   -0.041598
  20 C :   -0.186705
  21 H :    0.018184
  22 C :   -0.014299
  23 H :    0.023199
  24 H :    0.034708
  25 C :   -0.043950
  26 H :    0.029040
  27 H :    0.029659
  28 C :   -0.065432
  29 H :    0.010625
  30 H :    0.018557
  31 H :    0.025229
  32 H :    0.021098
  33 H :    0.036174

  Mayer bond orders larger than 0.100000
B(  0-S ,  1-C ) :   1.1379 B(  0-S ,  4-C ) :   1.1295 B(  1-C ,  2-C ) :   1.6050
B(  1-C , 32-H ) :   0.9729 B(  2-C ,  3-C ) :   1.2192 B(  2-C ,  6-C ) :   1.0349
B(  3-C ,  4-C ) :   1.5949 B(  3-C ,  5-H ) :   0.9939 B(  4-C , 20-C ) :   1.0369
B(  6-C ,  7-H ) :   0.9313 B(  6-C ,  8-H ) :   0.9396 B(  6-C ,  9-C ) :   1.0854
B(  9-C , 10-H ) :   0.9527 B(  9-C , 11-H ) :   0.9537 B(  9-C , 12-C ) :   1.0751
B( 12-C , 13-H ) :   0.9697 B( 12-C , 14-H ) :   0.9734 B( 12-C , 15-H ) :   0.9739
B( 16-S , 17-C ) :   1.1361 B( 16-S , 20-C ) :   1.1324 B( 17-C , 18-C ) :   1.6373
B( 17-C , 33-H ) :   0.9662 B( 18-C , 19-C ) :   1.1920 B( 18-C , 21-H ) :   0.9929
B( 19-C , 20-C ) :   1.6449 B( 19-C , 22-C ) :   1.0439 B( 22-C , 23-H ) :   0.9309
B( 22-C , 24-H ) :   0.9172 B( 22-C , 25-C ) :   1.0616 B( 25-C , 26-H ) :   0.9577
B( 25-C , 27-H ) :   0.9533 B( 25-C , 28-C ) :   1.0815 B( 28-C , 29-H ) :   0.9739
B( 28-C , 30-H ) :   0.9684 B( 28-C , 31-H ) :   0.9691

Dispersion correction           -0.014317279
FINAL SINGLE POINT ENERGY     -1339.853584519772

DIPOLE MOMENT
-------------
                                X             Y             Z
Electronic contribution:     19.52502     -10.56826      -5.72300
Nuclear contribution   :    -20.04703      10.56742       6.07909
                        -----------------------------------------
Total Dipole Moment    :     -0.52202      -0.00083       0.35609
                        -----------------------------------------
Magnitude (a.u.)       :      0.63190
Magnitude (Debye)      :      1.60616

Rotational constants in cm-1:     0.020889     0.007858     0.006791
Rotational constants in MHz :   626.223896   235.569983   203.594481

                             ****ORCA TERMINATED NORMALLY****
TOTAL RUN TIME: 0 days 0 hours 0 minutes 34 seconds 459 msec
