                         Program Version 4.2.1 -  RELEASE  -
|  1> ! wB97X-D3 SP def2-SVP
|  2> %pal
|  3> nprocs 16
|  4> end
|  5>
|  6> * xyz 0 1
|  7> S 	 31.5282 	 14.8771 	 71.1754
|  8> C 	 30.1836 	 15.2331 	 72.159
|  9> C 	 30.5535 	 15.5914 	 73.4657
| 10> C 	 31.9861 	 15.7825 	 73.5807
| 11> C 	 32.6895 	 15.3732 	 72.43
| 12> H 	 32.5155 	 16.1349 	 74.4622
| 13> C 	 29.6015 	 15.851 	 74.596
| 14> H 	 30.1031 	 16.0169 	 75.5232
| 15> H 	 29.0597 	 14.9252 	 74.7151
| 16> C 	 28.5611 	 16.9067 	 74.3065
| 17> H 	 28.9857 	 17.8928 	 74.6236
| 18> H 	 28.4409 	 17.0792 	 73.2471
| 19> C 	 27.2574 	 16.597 	 75.127
| 20> H 	 27.4931 	 16.3417 	 76.1751
| 21> H 	 26.6823 	 17.5171 	 75.1447
| 22> H 	 26.6291 	 15.8433 	 74.7411
| 23> S 	 35.0646 	 16.4958 	 71.7
| 24> C 	 36.4482 	 15.5383 	 71.7961
| 25> C 	 36.29 	 14.4262 	 72.6479
| 26> C 	 34.9899 	 14.3102 	 73.1255
| 27> C 	 34.1475 	 15.247 	 72.4803
| 28> H 	 37.1205 	 13.7589 	 72.805
| 29> C 	 34.5471 	 13.1271 	 73.9725
| 30> H 	 33.6499 	 13.3944 	 74.4908
| 31> H 	 35.3342 	 13.1083 	 74.7524
| 32> C 	 34.3508 	 11.8531 	 73.2674
| 33> H 	 35.3629 	 11.6383 	 72.9069
| 34> H 	 33.6479 	 12.0661 	 72.4026
| 35> C 	 33.7489 	 10.7665 	 74.1354
| 36> H 	 32.8784 	 11.1621 	 74.6816
| 37> H 	 34.4943 	 10.3932 	 74.8899
| 38> H 	 33.5518 	 9.9283 	 73.4896
| 39> H 	 29.1328 	 15.0571 	 71.8914
| 40> H 	 37.3762 	 15.7411 	 71.2932
| 41> *
| 42>
| 43>                          ****END OF INPUT****

CARTESIAN COORDINATES (ANGSTROEM)
---------------------------------
  S     31.528200   14.877100   71.175400
  C     30.183600   15.233100   72.159000
  C     30.553500   15.591400   73.465700
  C     31.986100   15.782500   73.580700
  C     32.689500   15.373200   72.430000
  H     32.515500   16.134900   74.462200
  C     29.601500   15.851000   74.596000
  H     30.103100   16.016900   75.523200
  H     29.059700   14.925200   74.715100
  C     28.561100   16.906700   74.306500
  H     28.985700   17.892800   74.623600
  H     28.440900   17.079200   73.247100
  C     27.257400   16.597000   75.127000
  H     27.493100   16.341700   76.175100
  H     26.682300   17.517100   75.144700
  H     26.629100   15.843300   74.741100
  S     35.064600   16.495800   71.700000
  C     36.448200   15.538300   71.796100
  C     36.290000   14.426200   72.647900
  C     34.989900   14.310200   73.125500
  C     34.147500   15.247000   72.480300
  H     37.120500   13.758900   72.805000
  C     34.547100   13.127100   73.972500
  H     33.649900   13.394400   74.490800
  H     35.334200   13.108300   74.752400
  C     34.350800   11.853100   73.267400
  H     35.362900   11.638300   72.906900
  H     33.647900   12.066100   72.402600
  C     33.748900   10.766500   74.135400
  H     32.878400   11.162100   74.681600
  H     34.494300   10.393200   74.889900
  H     33.551800    9.928300   73.489600
  H     29.132800   15.057100   71.891400
  H     37.376200   15.741100   71.293200

 Total Charge           Charge          ....    0
 Multiplicity           Mult            ....    1
 Number of Electrons    NEL             ....  134
 Basis Dimension        Dim             ....  322

ORBITAL ENERGIES
----------------

  NO   OCC          E(Eh)            E(eV)
   0   2.0000     -88.970603     -2421.0132
   1   2.0000     -88.964605     -2420.8500
   2   2.0000     -10.327785      -281.0333
   3   2.0000     -10.321072      -280.8506
   4   2.0000     -10.313894      -280.6553
   5   2.0000     -10.309482      -280.5353
   6   2.0000     -10.300541      -280.2920
   7   2.0000     -10.300060      -280.2789
   8   2.0000     -10.295778      -280.1624
   9   2.0000     -10.288274      -279.9582
  10   2.0000     -10.287960      -279.9496
  11   2.0000     -10.283497      -279.8282
  12   2.0000     -10.281831      -279.7828
  13   2.0000     -10.281581      -279.7760
  14   2.0000     -10.279350      -279.7153
  15   2.0000     -10.278923      -279.7037
  16   2.0000      -8.084848      -219.9999
  17   2.0000      -8.080787      -219.8894
  18   2.0000      -6.043397      -164.4492
  19   2.0000      -6.039269      -164.3369
  20   2.0000      -6.038853      -164.3255
  21   2.0000      -6.035742      -164.2409
  22   2.0000      -6.035106      -164.2236
  23   2.0000      -6.031927      -164.1371
  24   2.0000      -1.006375       -27.3848
  25   2.0000      -0.984775       -26.7971
  26   2.0000      -0.918362       -24.9899
  27   2.0000      -0.913283       -24.8517
  28   2.0000      -0.864760       -23.5313
  29   2.0000      -0.855188       -23.2708
  30   2.0000      -0.846070       -23.0227
  31   2.0000      -0.805884       -21.9292
  32   2.0000      -0.782429       -21.2910
  33   2.0000      -0.768258       -20.9054
  34   2.0000      -0.707958       -19.2645
  35   2.0000      -0.698387       -19.0041
  36   2.0000      -0.687446       -18.7064
  37   2.0000      -0.657928       -17.9031
  38   2.0000      -0.641785       -17.4639
  39   2.0000      -0.613649       -16.6982
  40   2.0000      -0.597087       -16.2476
  41   2.0000      -0.575565       -15.6619
  42   2.0000      -0.568142       -15.4599
  43   2.0000      -0.551860       -15.0169
  44   2.0000      -0.528233       -14.3739
  45   2.0000      -0.520782       -14.1712
  46   2.0000      -0.514827       -14.0092
  47   2.0000      -0.509024       -13.8513
  48   2.0000      -0.507277       -13.8037
  49   2.0000      -0.497338       -13.5333
  50   2.0000      -0.493913       -13.4400
  51   2.0000      -0.478318       -13.0157
  52   2.0000      -0.473019       -12.8715
  53   2.0000      -0.466559       -12.6957
  54   2.0000      -0.464033       -12.6270
  55   2.0000      -0.448931       -12.2160
  56   2.0000      -0.442704       -12.0466
  57   2.0000      -0.436208       -11.8698
  58   2.0000      -0.435092       -11.8395
  59   2.0000      -0.424080       -11.5398
  60   2.0000      -0.422112       -11.4862
  61   2.0000      -0.416369       -11.3300
  62   2.0000      -0.409083       -11.1317
  63   2.0000      -0.335669        -9.1340
  64   2.0000      -0.331106        -9.0099
  65   2.0000      -0.311776        -8.4839
  66   2.0000      -0.298861        -8.1324
  67   0.0000       0.034656         0.9430
  68   0.0000       0.056982         1.5506
  69   0.0000       0.113082         3.0771
  70   0.0000       0.123213         3.3528
  71   0.0000       0.137017         3.7284

MULLIKEN ATOMIC CHARGES
-----------------------
   0 S :    0.136232
   1 C :   -0.128550
   2 C :   -0.125147
   3 C :    0.039089
   4 C :   -0.154736
   5 H :    0.020959
   6 C :    0.112092
   7 H :    0.014601
   8 H :    0.023636
   9 C :   -0.086473
  10 H :    0.027153
  11 H :    0.029883
  12 C :   -0.052756
  13 H :    0.036219
  14 H :    0.030870
  15 H :    0.033353
  16 S :    0.140563
  17 C :   -0.086998
  18 C :   -0.066851
  19 C :    0.002511
  20 C :   -0.235580
  21 H :    0.015672
  22 C :    0.085067
  23 H :   -0.003032
  24 H :    0.021183
  25 C :   -0.075233
  26 H :    0.019069
  27 H :    0.039716
  28 C :   -0.025150
  29 H :    0.038736
  30 H :    0.030015
  31 H :    0.037339
  32 H :    0.059177
  33 H :    0.047370
Sum of atomic charges:    0.0000000

LOEWDIN ATOMIC CHARGES
----------------------
   0 S :    0.424391
   1 C :   -0.221721
   2 C :   -0.063367
   3 C :   -0.053239
   4 C :   -0.210638
   5 H :    0.032547
   6 C :   -0.035209
   7 H :    0.026412
   8 H :    0.032076
   9 C :   -0.038752
  10 H :    0.028726
  11 H :    0.021506
  12 C :   -0.062813
  13 H :    0.028985
  14 H :    0.026740
  15 H :    0.018451
  16 S :    0.450578
  17 C :   -0.204778
  18 C :   -0.075723
  19 C :   -0.047354
  20 C :   -0.212991
  21 H :    0.029466
  22 C :   -0.034889
  23 H :    0.020236
  24 H :    0.031829
  25 C :   -0.046133
  26 H :    0.023498
  27 H :    0.033646
  28 C :   -0.063767
  29 H :    0.029012
  30 H :    0.029274
  31 H :    0.026677
  32 H :    0.033762
  33 H :    0.023560

  Mayer bond orders larger than 0.100000
B(  0-S ,  1-C ) :   1.1612 B(  0-S ,  4-C ) :   1.1445 B(  1-C ,  2-C ) :   1.5779
B(  1-C , 32-H ) :   0.9617 B(  2-C ,  3-C ) :   1.2648 B(  2-C ,  6-C ) :   1.0267
B(  3-C ,  4-C ) :   1.5490 B(  3-C ,  5-H ) :   0.9894 B(  4-C , 20-C ) :   1.0408
B(  6-C ,  7-H ) :   0.9375 B(  6-C ,  8-H ) :   0.9383 B(  6-C ,  9-C ) :   1.0496
B(  9-C , 10-H ) :   0.9555 B(  9-C , 11-H ) :   0.9661 B(  9-C , 12-C ) :   1.0635
B( 12-C , 13-H ) :   0.9761 B( 12-C , 14-H ) :   0.9753 B( 12-C , 15-H ) :   0.9784
B( 16-S , 17-C ) :   1.1925 B( 16-S , 20-C ) :   1.1820 B( 17-C , 18-C ) :   1.5566
B( 17-C , 20-C ) :   0.1112 B( 17-C , 33-H ) :   0.9702 B( 18-C , 19-C ) :   1.2762
B( 18-C , 21-H ) :   0.9963 B( 19-C , 20-C ) :   1.5296 B( 19-C , 22-C ) :   1.0480
B( 22-C , 23-H ) :   0.9190 B( 22-C , 24-H ) :   0.9247 B( 22-C , 25-C ) :   1.0772
B( 25-C , 26-H ) :   0.9483 B( 25-C , 27-H ) :   0.9491 B( 25-C , 28-C ) :   1.0885
B( 28-C , 29-H ) :   0.9720 B( 28-C , 30-H ) :   0.9714 B( 28-C , 31-H ) :   0.9730

Dispersion correction           -0.014173062
FINAL SINGLE POINT ENERGY     -1339.870668678950

DIPOLE MOMENT
-------------
                                X             Y             Z
Electronic contribution:     14.50120      10.45883     -18.10599
Nuclear contribution   :    -14.68129     -10.70214      18.58684
                        -----------------------------------------
Total Dipole Moment    :     -0.18009      -0.24331       0.48085
                        -----------------------------------------
Magnitude (a.u.)       :      0.56820
Magnitude (Debye)      :      1.44424

Rotational constants in cm-1:     0.019755     0.007718     0.006478
Rotational constants in MHz :   592.244971   231.369381   194.197264

                             ****ORCA TERMINATED NORMALLY****
TOTAL RUN TIME: 0 days 0 hours 0 minutes 29 seconds 581 msec
