                         Program Version 4.2.1 -  RELEASE  -
|  1> ! wB97X-D3 SP def2-SVP
|  2> %pal
|  3> nprocs 16
|  4> end
|  5>
|  6> * xyz 0 1
|  7> S 	 48.6788 	 25.2842 	 88.7695
|  8> C 	 48.1062 	 25.4464 	 90.3884
|  9> C 	 48.5931 	 24.4814 	 91.283
| 10> C 	 49.4899 	 23.5989 	 90.597
| 11> C 	 49.6036 	 23.7835 	 89.2321
| 12> H 	 50.0176 	 22.7812 	 91.0851
| 13> C 	 48.2487 	 24.4064 	 92.7122
| 14> H 	 47.6583 	 23.4884 	 92.7531
| 15> H 	 47.379 	 25.0542 	 92.9106
| 16> C 	 49.3132 	 24.2644 	 93.8207
| 17> H 	 48.724 	 23.7219 	 94.52
| 18> H 	 50.1099 	 23.7145 	 93.4654
| 19> C 	 49.7961 	 25.6606 	 94.3042
| 20> H 	 50.3552 	 25.4926 	 95.2627
| 21> H 	 50.5529 	 26.1004 	 93.6962
| 22> H 	 49.02 	 26.4333 	 94.5392
| 23> S 	 49.5728 	 22.5172 	 86.7769
| 24> C 	 51.0431 	 22.0065 	 85.998
| 25> C 	 52.0713 	 22.0643 	 86.8771
| 26> C 	 51.7077 	 22.6816 	 88.2053
| 27> C 	 50.3344 	 22.9976 	 88.248
| 28> H 	 52.9956 	 21.8441 	 86.6034
| 29> C 	 52.7432 	 22.9588 	 89.2762
| 30> H 	 53.6001 	 22.4031 	 88.9944
| 31> H 	 52.4452 	 22.6107 	 90.2247
| 32> C 	 53.2172 	 24.4229 	 89.3316
| 33> H 	 54.157 	 24.3759 	 89.8682
| 34> H 	 52.5022 	 25.0011 	 89.9548
| 35> C 	 53.5836 	 25.2108 	 88.0599
| 36> H 	 53.8901 	 26.2272 	 88.361
| 37> H 	 52.7788 	 25.221 	 87.347
| 38> H 	 54.4571 	 24.7924 	 87.5711
| 39> H 	 47.3995 	 26.1697 	 90.8079
| 40> H 	 51.2012 	 21.59 	 85.0585
| 41> *
| 42>
| 43>                          ****END OF INPUT****

CARTESIAN COORDINATES (ANGSTROEM)
---------------------------------
  S     48.678800   25.284200   88.769500
  C     48.106200   25.446400   90.388400
  C     48.593100   24.481400   91.283000
  C     49.489900   23.598900   90.597000
  C     49.603600   23.783500   89.232100
  H     50.017600   22.781200   91.085100
  C     48.248700   24.406400   92.712200
  H     47.658300   23.488400   92.753100
  H     47.379000   25.054200   92.910600
  C     49.313200   24.264400   93.820700
  H     48.724000   23.721900   94.520000
  H     50.109900   23.714500   93.465400
  C     49.796100   25.660600   94.304200
  H     50.355200   25.492600   95.262700
  H     50.552900   26.100400   93.696200
  H     49.020000   26.433300   94.539200
  S     49.572800   22.517200   86.776900
  C     51.043100   22.006500   85.998000
  C     52.071300   22.064300   86.877100
  C     51.707700   22.681600   88.205300
  C     50.334400   22.997600   88.248000
  H     52.995600   21.844100   86.603400
  C     52.743200   22.958800   89.276200
  H     53.600100   22.403100   88.994400
  H     52.445200   22.610700   90.224700
  C     53.217200   24.422900   89.331600
  H     54.157000   24.375900   89.868200
  H     52.502200   25.001100   89.954800
  C     53.583600   25.210800   88.059900
  H     53.890100   26.227200   88.361000
  H     52.778800   25.221000   87.347000
  H     54.457100   24.792400   87.571100
  H     47.399500   26.169700   90.807900
  H     51.201200   21.590000   85.058500

 Total Charge           Charge          ....    0
 Multiplicity           Mult            ....    1
 Number of Electrons    NEL             ....  134
 Basis Dimension        Dim             ....  322

ORBITAL ENERGIES
----------------

  NO   OCC          E(Eh)            E(eV)
   0   2.0000     -88.966932     -2420.9133
   1   2.0000     -88.962603     -2420.7955
   2   2.0000     -10.334194      -281.2077
   3   2.0000     -10.326512      -280.9987
   4   2.0000     -10.311949      -280.6024
   5   2.0000     -10.311057      -280.5781
   6   2.0000     -10.308936      -280.5204
   7   2.0000     -10.298293      -280.2308
   8   2.0000     -10.296248      -280.1752
   9   2.0000     -10.289657      -279.9958
  10   2.0000     -10.288789      -279.9722
  11   2.0000     -10.286939      -279.9218
  12   2.0000     -10.285380      -279.8794
  13   2.0000     -10.283141      -279.8185
  14   2.0000     -10.282684      -279.8061
  15   2.0000     -10.273204      -279.5481
  16   2.0000      -8.080694      -219.8869
  17   2.0000      -8.077912      -219.8112
  18   2.0000      -6.039247      -164.3363
  19   2.0000      -6.036573      -164.2635
  20   2.0000      -6.035410      -164.2319
  21   2.0000      -6.032184      -164.1441
  22   2.0000      -6.031383      -164.1223
  23   2.0000      -6.028613      -164.0469
  24   2.0000      -1.001437       -27.2505
  25   2.0000      -0.979886       -26.6640
  26   2.0000      -0.914351       -24.8807
  27   2.0000      -0.906609       -24.6701
  28   2.0000      -0.872233       -23.7347
  29   2.0000      -0.848233       -23.0816
  30   2.0000      -0.840186       -22.8626
  31   2.0000      -0.820945       -22.3390
  32   2.0000      -0.786196       -21.3935
  33   2.0000      -0.773803       -21.0562
  34   2.0000      -0.718940       -19.5634
  35   2.0000      -0.699416       -19.0321
  36   2.0000      -0.685462       -18.6524
  37   2.0000      -0.666956       -18.1488
  38   2.0000      -0.638439       -17.3728
  39   2.0000      -0.623359       -16.9625
  40   2.0000      -0.590449       -16.0669
  41   2.0000      -0.578989       -15.7551
  42   2.0000      -0.560674       -15.2567
  43   2.0000      -0.547946       -14.9104
  44   2.0000      -0.541771       -14.7423
  45   2.0000      -0.536138       -14.5891
  46   2.0000      -0.517113       -14.0714
  47   2.0000      -0.514567       -14.0021
  48   2.0000      -0.501514       -13.6469
  49   2.0000      -0.490791       -13.3551
  50   2.0000      -0.486551       -13.2397
  51   2.0000      -0.478837       -13.0298
  52   2.0000      -0.475919       -12.9504
  53   2.0000      -0.465685       -12.6719
  54   2.0000      -0.464253       -12.6330
  55   2.0000      -0.450856       -12.2684
  56   2.0000      -0.446032       -12.1371
  57   2.0000      -0.437619       -11.9082
  58   2.0000      -0.433030       -11.7833
  59   2.0000      -0.422238       -11.4897
  60   2.0000      -0.417231       -11.3534
  61   2.0000      -0.414123       -11.2689
  62   2.0000      -0.407674       -11.0934
  63   2.0000      -0.349760        -9.5175
  64   2.0000      -0.326728        -8.8907
  65   2.0000      -0.323656        -8.8071
  66   2.0000      -0.289537        -7.8787
  67   0.0000       0.030267         0.8236
  68   0.0000       0.072147         1.9632
  69   0.0000       0.113389         3.0855
  70   0.0000       0.117438         3.1957
  71   0.0000       0.128950         3.5089

MULLIKEN ATOMIC CHARGES
-----------------------
   0 S :    0.119134
   1 C :   -0.112331
   2 C :   -0.095960
   3 C :    0.023139
   4 C :   -0.146456
   5 H :    0.012012
   6 C :    0.020236
   7 H :    0.025517
   8 H :    0.006887
   9 C :    0.025735
  10 H :    0.025502
  11 H :    0.013486
  12 C :   -0.071319
  13 H :    0.030652
  14 H :    0.035817
  15 H :    0.042182
  16 S :    0.107764
  17 C :   -0.053435
  18 C :    0.027069
  19 C :   -0.099709
  20 C :   -0.158255
  21 H :   -0.040568
  22 C :    0.156869
  23 H :   -0.003486
  24 H :    0.014112
  25 C :   -0.108233
  26 H :    0.021142
  27 H :    0.042024
  28 C :   -0.034655
  29 H :    0.036167
  30 H :    0.043362
  31 H :    0.017993
  32 H :    0.043655
  33 H :    0.033950
Sum of atomic charges:   -0.0000000

LOEWDIN ATOMIC CHARGES
----------------------
   0 S :    0.388802
   1 C :   -0.210577
   2 C :   -0.069184
   3 C :   -0.058760
   4 C :   -0.173337
   5 H :    0.029680
   6 C :   -0.046500
   7 H :    0.037559
   8 H :    0.032960
   9 C :   -0.019925
  10 H :    0.027223
  11 H :    0.017518
  12 C :   -0.070694
  13 H :    0.029863
  14 H :    0.023530
  15 H :    0.030654
  16 S :    0.416836
  17 C :   -0.176962
  18 C :   -0.052117
  19 C :   -0.043749
  20 C :   -0.217081
  21 H :    0.002641
  22 C :   -0.027552
  23 H :    0.025848
  24 H :    0.025091
  25 C :   -0.039987
  26 H :    0.022625
  27 H :    0.026105
  28 C :   -0.061261
  29 H :    0.032643
  30 H :    0.022522
  31 H :    0.020554
  32 H :    0.031400
  33 H :    0.023631

  Mayer bond orders larger than 0.100000
B(  0-S ,  1-C ) :   1.1402 B(  0-S ,  4-C ) :   1.1206 B(  1-C ,  2-C ) :   1.6138
B(  1-C , 32-H ) :   0.9564 B(  2-C ,  3-C ) :   1.2331 B(  2-C ,  6-C ) :   1.0357
B(  3-C ,  4-C ) :   1.5944 B(  3-C ,  5-H ) :   0.9886 B(  4-C , 20-C ) :   1.0623
B(  6-C ,  7-H ) :   0.9268 B(  6-C ,  8-H ) :   0.9293 B(  6-C ,  9-C ) :   1.0567
B(  9-C , 10-H ) :   0.9543 B(  9-C , 11-H ) :   0.9549 B(  9-C , 12-C ) :   1.0717
B( 12-C , 13-H ) :   0.9735 B( 12-C , 14-H ) :   0.9779 B( 12-C , 15-H ) :   0.9789
B( 16-S , 17-C ) :   1.1403 B( 16-S , 20-C ) :   1.1395 B( 17-C , 18-C ) :   1.6345
B( 17-C , 33-H ) :   0.9719 B( 18-C , 19-C ) :   1.2230 B( 18-C , 21-H ) :   1.0030
B( 19-C , 20-C ) :   1.5757 B( 19-C , 22-C ) :   1.0508 B( 22-C , 23-H ) :   0.9199
B( 22-C , 24-H ) :   0.9336 B( 22-C , 25-C ) :   1.0673 B( 25-C , 26-H ) :   0.9572
B( 25-C , 27-H ) :   0.9579 B( 25-C , 28-C ) :   1.0841 B( 28-C , 29-H ) :   0.9716
B( 28-C , 30-H ) :   0.9728 B( 28-C , 31-H ) :   0.9745

Dispersion correction           -0.014976774
FINAL SINGLE POINT ENERGY     -1339.859068393045

DIPOLE MOMENT
-------------
                                X             Y             Z
Electronic contribution:    -13.78502      -6.55467     -21.82357
Nuclear contribution   :     14.23052       6.43194      22.40554
                        -----------------------------------------
Total Dipole Moment    :      0.44550      -0.12274       0.58197
                        -----------------------------------------
Magnitude (a.u.)       :      0.74312
Magnitude (Debye)      :      1.88885

Rotational constants in cm-1:     0.020739     0.008554     0.007209
Rotational constants in MHz :   621.743318   256.457038   216.129869

                             ****ORCA TERMINATED NORMALLY****
TOTAL RUN TIME: 0 days 0 hours 0 minutes 30 seconds 644 msec
