                         Program Version 4.2.1 -  RELEASE  -
|  1> ! wB97X-D3 SP def2-SVP
|  2> %pal
|  3> nprocs 16
|  4> end
|  5>
|  6> * xyz 0 1
|  7> S 	 66.7638 	 23.9889 	 72.2768
|  8> C 	 66.5556 	 22.4786 	 73.0828
|  9> C 	 67.417 	 22.319 	 74.1484
| 10> C 	 68.3836 	 23.4122 	 74.2321
| 11> C 	 68.2161 	 24.3294 	 73.1665
| 12> H 	 69.1201 	 23.5314 	 74.995
| 13> C 	 67.4204 	 21.1123 	 75.1223
| 14> H 	 66.513 	 20.616 	 74.885
| 15> H 	 67.2056 	 21.355 	 76.1908
| 16> C 	 68.6859 	 20.2106 	 74.9403
| 17> H 	 68.7462 	 19.9608 	 73.8347
| 18> H 	 69.6304 	 20.6753 	 75.1734
| 19> C 	 68.5098 	 18.8972 	 75.6933
| 20> H 	 68.6088 	 19.1264 	 76.7858
| 21> H 	 67.5276 	 18.4678 	 75.5194
| 22> H 	 69.2388 	 18.1367 	 75.4073
| 23> S 	 68.4395 	 27.0653 	 73.0438
| 24> C 	 70.0077 	 27.8151 	 72.7412
| 25> C 	 70.8626 	 26.7798 	 72.309
| 26> C 	 70.3552 	 25.4503 	 72.3921
| 27> C 	 69.0209 	 25.4822 	 72.8297
| 28> H 	 71.8567 	 27.079 	 72.1228
| 29> C 	 71.1334 	 24.2924 	 71.8669
| 30> H 	 71.3751 	 24.3538 	 70.7955
| 31> H 	 70.4392 	 23.4288 	 71.9396
| 32> C 	 72.4163 	 23.8208 	 72.6283
| 33> H 	 72.03 	 23.9618 	 73.6694
| 34> H 	 73.2585 	 24.5181 	 72.5592
| 35> C 	 72.8377 	 22.3137 	 72.3907
| 36> H 	 73.7256 	 22.0177 	 72.9787
| 37> H 	 73.2229 	 22.2405 	 71.4235
| 38> H 	 72.0151 	 21.6003 	 72.5486
| 39> H 	 65.8539 	 21.6396 	 72.8583
| 40> H 	 70.214 	 28.8766 	 72.8244
| 41> *
| 42>
| 43>                          ****END OF INPUT****

CARTESIAN COORDINATES (ANGSTROEM)
---------------------------------
  S     66.763800   23.988900   72.276800
  C     66.555600   22.478600   73.082800
  C     67.417000   22.319000   74.148400
  C     68.383600   23.412200   74.232100
  C     68.216100   24.329400   73.166500
  H     69.120100   23.531400   74.995000
  C     67.420400   21.112300   75.122300
  H     66.513000   20.616000   74.885000
  H     67.205600   21.355000   76.190800
  C     68.685900   20.210600   74.940300
  H     68.746200   19.960800   73.834700
  H     69.630400   20.675300   75.173400
  C     68.509800   18.897200   75.693300
  H     68.608800   19.126400   76.785800
  H     67.527600   18.467800   75.519400
  H     69.238800   18.136700   75.407300
  S     68.439500   27.065300   73.043800
  C     70.007700   27.815100   72.741200
  C     70.862600   26.779800   72.309000
  C     70.355200   25.450300   72.392100
  C     69.020900   25.482200   72.829700
  H     71.856700   27.079000   72.122800
  C     71.133400   24.292400   71.866900
  H     71.375100   24.353800   70.795500
  H     70.439200   23.428800   71.939600
  C     72.416300   23.820800   72.628300
  H     72.030000   23.961800   73.669400
  H     73.258500   24.518100   72.559200
  C     72.837700   22.313700   72.390700
  H     73.725600   22.017700   72.978700
  H     73.222900   22.240500   71.423500
  H     72.015100   21.600300   72.548600
  H     65.853900   21.639600   72.858300
  H     70.214000   28.876600   72.824400

 Total Charge           Charge          ....    0
 Multiplicity           Mult            ....    1
 Number of Electrons    NEL             ....  134
 Basis Dimension        Dim             ....  322

ORBITAL ENERGIES
----------------

  NO   OCC          E(Eh)            E(eV)
   0   2.0000     -88.968273     -2420.9498
   1   2.0000     -88.966476     -2420.9009
   2   2.0000     -10.330722      -281.1132
   3   2.0000     -10.324986      -280.9571
   4   2.0000     -10.321437      -280.8606
   5   2.0000     -10.315125      -280.6888
   6   2.0000     -10.304220      -280.3921
   7   2.0000     -10.303318      -280.3675
   8   2.0000     -10.299820      -280.2723
   9   2.0000     -10.298167      -280.2274
  10   2.0000     -10.292923      -280.0847
  11   2.0000     -10.292201      -280.0650
  12   2.0000     -10.292175      -280.0643
  13   2.0000     -10.290803      -280.0270
  14   2.0000     -10.281143      -279.7641
  15   2.0000     -10.280676      -279.7514
  16   2.0000      -8.083519      -219.9637
  17   2.0000      -8.081785      -219.9166
  18   2.0000      -6.042020      -164.4117
  19   2.0000      -6.040222      -164.3628
  20   2.0000      -6.037963      -164.3013
  21   2.0000      -6.036018      -164.2484
  22   2.0000      -6.034249      -164.2003
  23   2.0000      -6.032784      -164.1604
  24   2.0000      -1.008937       -27.4546
  25   2.0000      -0.984190       -26.7812
  26   2.0000      -0.907917       -24.7057
  27   2.0000      -0.901430       -24.5292
  28   2.0000      -0.869620       -23.6636
  29   2.0000      -0.847925       -23.0732
  30   2.0000      -0.845222       -22.9996
  31   2.0000      -0.812652       -22.1134
  32   2.0000      -0.781133       -21.2557
  33   2.0000      -0.769715       -20.9450
  34   2.0000      -0.708618       -19.2825
  35   2.0000      -0.698527       -19.0079
  36   2.0000      -0.693657       -18.8754
  37   2.0000      -0.659581       -17.9481
  38   2.0000      -0.639012       -17.3884
  39   2.0000      -0.618318       -16.8253
  40   2.0000      -0.596091       -16.2205
  41   2.0000      -0.570251       -15.5173
  42   2.0000      -0.562174       -15.2975
  43   2.0000      -0.555718       -15.1218
  44   2.0000      -0.528588       -14.3836
  45   2.0000      -0.525073       -14.2880
  46   2.0000      -0.513596       -13.9757
  47   2.0000      -0.509558       -13.8658
  48   2.0000      -0.503614       -13.7040
  49   2.0000      -0.497312       -13.5326
  50   2.0000      -0.491517       -13.3749
  51   2.0000      -0.477684       -12.9984
  52   2.0000      -0.470966       -12.8156
  53   2.0000      -0.467226       -12.7139
  54   2.0000      -0.464579       -12.6418
  55   2.0000      -0.445798       -12.1308
  56   2.0000      -0.444077       -12.0839
  57   2.0000      -0.440640       -11.9904
  58   2.0000      -0.426300       -11.6002
  59   2.0000      -0.424881       -11.5616
  60   2.0000      -0.420695       -11.4477
  61   2.0000      -0.416296       -11.3280
  62   2.0000      -0.409449       -11.1417
  63   2.0000      -0.339786        -9.2461
  64   2.0000      -0.330086        -8.9821
  65   2.0000      -0.326561        -8.8862
  66   2.0000      -0.297805        -8.1037
  67   0.0000       0.037744         1.0271
  68   0.0000       0.057402         1.5620
  69   0.0000       0.107844         2.9346
  70   0.0000       0.118651         3.2287
  71   0.0000       0.130165         3.5420

MULLIKEN ATOMIC CHARGES
-----------------------
   0 S :    0.129627
   1 C :   -0.117136
   2 C :   -0.124225
   3 C :    0.067964
   4 C :   -0.196006
   5 H :    0.008921
   6 C :    0.073043
   7 H :   -0.005291
   8 H :    0.040053
   9 C :   -0.088591
  10 H :    0.036144
  11 H :    0.037119
  12 C :   -0.050232
  13 H :    0.035834
  14 H :    0.026775
  15 H :    0.039730
  16 S :    0.120676
  17 C :   -0.121185
  18 C :   -0.012692
  19 C :   -0.004793
  20 C :   -0.156773
  21 H :    0.005430
  22 C :    0.048557
  23 H :    0.040669
  24 H :    0.024771
  25 C :   -0.105335
  26 H :    0.026071
  27 H :    0.033253
  28 C :   -0.036116
  29 H :    0.035125
  30 H :    0.018454
  31 H :    0.045052
  32 H :    0.058105
  33 H :    0.067003
Sum of atomic charges:    0.0000000

LOEWDIN ATOMIC CHARGES
----------------------
   0 S :    0.425676
   1 C :   -0.218866
   2 C :   -0.063043
   3 C :   -0.050806
   4 C :   -0.199443
   5 H :    0.027289
   6 C :   -0.032288
   7 H :    0.021930
   8 H :    0.035835
   9 C :   -0.042077
  10 H :    0.030611
  11 H :    0.021442
  12 C :   -0.068923
  13 H :    0.029164
  14 H :    0.022582
  15 H :    0.026737
  16 S :    0.428716
  17 C :   -0.188559
  18 C :   -0.060811
  19 C :   -0.059901
  20 C :   -0.222477
  21 H :    0.021973
  22 C :   -0.039671
  23 H :    0.032327
  24 H :    0.034853
  25 C :   -0.044052
  26 H :    0.024584
  27 H :    0.020052
  28 C :   -0.063884
  29 H :    0.032086
  30 H :    0.016818
  31 H :    0.029731
  32 H :    0.039498
  33 H :    0.032896

  Mayer bond orders larger than 0.100000
B(  0-S ,  1-C ) :   1.1377 B(  0-S ,  4-C ) :   1.1631 B(  1-C ,  2-C ) :   1.6388
B(  1-C , 32-H ) :   0.9542 B(  2-C ,  3-C ) :   1.2245 B(  2-C ,  6-C ) :   1.0235
B(  3-C ,  4-C ) :   1.5660 B(  3-C ,  5-H ) :   1.0027 B(  4-C , 20-C ) :   1.0147
B(  6-C ,  7-H ) :   0.9365 B(  6-C ,  8-H ) :   0.9431 B(  6-C ,  9-C ) :   1.0435
B(  9-C , 10-H ) :   0.9565 B(  9-C , 11-H ) :   0.9603 B(  9-C , 12-C ) :   1.0827
B( 12-C , 13-H ) :   0.9737 B( 12-C , 14-H ) :   0.9755 B( 12-C , 15-H ) :   0.9749
B( 16-S , 17-C ) :   1.1570 B( 16-S , 20-C ) :   1.1817 B( 17-C , 18-C ) :   1.5744
B( 17-C , 20-C ) :   0.1067 B( 17-C , 33-H ) :   0.9736 B( 18-C , 19-C ) :   1.2531
B( 18-C , 21-H ) :   0.9966 B( 19-C , 20-C ) :   1.5428 B( 19-C , 22-C ) :   1.0656
B( 22-C , 23-H ) :   0.9389 B( 22-C , 24-H ) :   0.9269 B( 22-C , 25-C ) :   1.0339
B( 25-C , 26-H ) :   0.9600 B( 25-C , 27-H ) :   0.9594 B( 25-C , 28-C ) :   1.0780
B( 28-C , 29-H ) :   0.9744 B( 28-C , 30-H ) :   0.9752 B( 28-C , 31-H ) :   0.9751

Dispersion correction           -0.014210894
FINAL SINGLE POINT ENERGY     -1339.875109351192

DIPOLE MOMENT
-------------
                                X             Y             Z
Electronic contribution:    -17.14792      26.81994      -7.71577
Nuclear contribution   :     17.58100     -27.26112       7.89907
                        -----------------------------------------
Total Dipole Moment    :      0.43308      -0.44119       0.18330
                        -----------------------------------------
Magnitude (a.u.)       :      0.64483
Magnitude (Debye)      :      1.63902

Rotational constants in cm-1:     0.017413     0.009014     0.006600
Rotational constants in MHz :   522.020866   270.246077   197.855418

                             ****ORCA TERMINATED NORMALLY****
TOTAL RUN TIME: 0 days 0 hours 0 minutes 29 seconds 709 msec
