                         Program Version 4.2.1 -  RELEASE  -
|  1> ! wB97X-D3 SP def2-SVP
|  2> %pal
|  3> nprocs 16
|  4> end
|  5>
|  6> * xyz 0 1
|  7> S 	 -31.547 	 66.4526 	 138.809
|  8> C 	 -29.8609 	 66.4972 	 138.795
|  9> C 	 -29.3495 	 67.1795 	 139.89
| 10> C 	 -30.3467 	 67.5362 	 140.888
| 11> C 	 -31.567 	 67.0306 	 140.501
| 12> H 	 -30.267 	 68.142 	 141.772
| 13> C 	 -27.917 	 67.6587 	 139.983
| 14> H 	 -27.303 	 66.9539 	 139.422
| 15> H 	 -27.4893 	 67.6694 	 140.98
| 16> C 	 -27.7824 	 69.0824 	 139.43
| 17> H 	 -28.3437 	 69.7671 	 140.123
| 18> H 	 -26.6995 	 69.2541 	 139.667
| 19> C 	 -28.0909 	 69.1556 	 137.908
| 20> H 	 -29.1943 	 69.0989 	 137.757
| 21> H 	 -27.776 	 70.0599 	 137.473
| 22> H 	 -27.5411 	 68.3692 	 137.38
| 23> S 	 -34.2886 	 67.7121 	 140.509
| 24> C 	 -35.1543 	 67.5615 	 141.982
| 25> C 	 -34.3631 	 66.9822 	 142.927
| 26> C 	 -33.0738 	 66.6768 	 142.503
| 27> C 	 -32.8129 	 67.1088 	 141.211
| 28> H 	 -34.758 	 66.7882 	 143.921
| 29> C 	 -32.0835 	 65.947 	 143.357
| 30> H 	 -31.2147 	 65.6346 	 142.789
| 31> H 	 -32.5781 	 64.9779 	 143.681
| 32> C 	 -31.6751 	 66.6784 	 144.617
| 33> H 	 -32.5922 	 66.8819 	 145.278
| 34> H 	 -31.2292 	 67.5953 	 144.225
| 35> C 	 -30.5623 	 65.9861 	 145.324
| 36> H 	 -29.6715 	 65.9837 	 144.711
| 37> H 	 -30.7855 	 64.9344 	 145.647
| 38> H 	 -30.2856 	 66.5498 	 146.225
| 39> H 	 -29.2459 	 66.3818 	 137.923
| 40> H 	 -36.1896 	 67.9028 	 142.188
| 41> *
| 42>
| 43>                          ****END OF INPUT****

CARTESIAN COORDINATES (ANGSTROEM)
---------------------------------
  S    -31.547000   66.452600  138.809000
  C    -29.860900   66.497200  138.795000
  C    -29.349500   67.179500  139.890000
  C    -30.346700   67.536200  140.888000
  C    -31.567000   67.030600  140.501000
  H    -30.267000   68.142000  141.772000
  C    -27.917000   67.658700  139.983000
  H    -27.303000   66.953900  139.422000
  H    -27.489300   67.669400  140.980000
  C    -27.782400   69.082400  139.430000
  H    -28.343700   69.767100  140.123000
  H    -26.699500   69.254100  139.667000
  C    -28.090900   69.155600  137.908000
  H    -29.194300   69.098900  137.757000
  H    -27.776000   70.059900  137.473000
  H    -27.541100   68.369200  137.380000
  S    -34.288600   67.712100  140.509000
  C    -35.154300   67.561500  141.982000
  C    -34.363100   66.982200  142.927000
  C    -33.073800   66.676800  142.503000
  C    -32.812900   67.108800  141.211000
  H    -34.758000   66.788200  143.921000
  C    -32.083500   65.947000  143.357000
  H    -31.214700   65.634600  142.789000
  H    -32.578100   64.977900  143.681000
  C    -31.675100   66.678400  144.617000
  H    -32.592200   66.881900  145.278000
  H    -31.229200   67.595300  144.225000
  C    -30.562300   65.986100  145.324000
  H    -29.671500   65.983700  144.711000
  H    -30.785500   64.934400  145.647000
  H    -30.285600   66.549800  146.225000
  H    -29.245900   66.381800  137.923000
  H    -36.189600   67.902800  142.188000

 Total Charge           Charge          ....    0
 Multiplicity           Mult            ....    1
 Number of Electrons    NEL             ....  134
 Basis Dimension        Dim             ....  322

ORBITAL ENERGIES
----------------

  NO   OCC          E(Eh)            E(eV)
   0   2.0000     -88.964476     -2420.8465
   1   2.0000     -88.964235     -2420.8399
   2   2.0000     -10.329211      -281.0721
   3   2.0000     -10.320215      -280.8273
   4   2.0000     -10.315742      -280.7056
   5   2.0000     -10.306864      -280.4640
   6   2.0000     -10.300637      -280.2946
   7   2.0000     -10.297753      -280.2161
   8   2.0000     -10.294525      -280.1283
   9   2.0000     -10.294294      -280.1220
  10   2.0000     -10.288095      -279.9533
  11   2.0000     -10.287764      -279.9443
  12   2.0000     -10.286434      -279.9081
  13   2.0000     -10.286312      -279.9048
  14   2.0000     -10.279762      -279.7265
  15   2.0000     -10.277890      -279.6756
  16   2.0000      -8.080021      -219.8686
  17   2.0000      -8.079729      -219.8606
  18   2.0000      -6.038454      -164.3147
  19   2.0000      -6.038169      -164.3069
  20   2.0000      -6.034390      -164.2041
  21   2.0000      -6.034365      -164.2034
  22   2.0000      -6.030832      -164.1073
  23   2.0000      -6.030292      -164.0926
  24   2.0000      -1.013150       -27.5692
  25   2.0000      -0.990547       -26.9541
  26   2.0000      -0.917047       -24.9541
  27   2.0000      -0.911731       -24.8095
  28   2.0000      -0.874271       -23.7901
  29   2.0000      -0.855613       -23.2824
  30   2.0000      -0.845054       -22.9951
  31   2.0000      -0.814513       -22.1640
  32   2.0000      -0.783489       -21.3198
  33   2.0000      -0.771884       -21.0040
  34   2.0000      -0.708012       -19.2660
  35   2.0000      -0.692024       -18.8309
  36   2.0000      -0.689303       -18.7569
  37   2.0000      -0.658087       -17.9075
  38   2.0000      -0.642991       -17.4967
  39   2.0000      -0.620055       -16.8725
  40   2.0000      -0.600130       -16.3304
  41   2.0000      -0.572326       -15.5738
  42   2.0000      -0.569580       -15.4991
  43   2.0000      -0.548728       -14.9317
  44   2.0000      -0.537649       -14.6302
  45   2.0000      -0.525927       -14.3112
  46   2.0000      -0.516757       -14.0617
  47   2.0000      -0.511583       -13.9209
  48   2.0000      -0.507545       -13.8110
  49   2.0000      -0.499260       -13.5855
  50   2.0000      -0.488934       -13.3046
  51   2.0000      -0.486972       -13.2512
  52   2.0000      -0.471914       -12.8414
  53   2.0000      -0.465463       -12.6659
  54   2.0000      -0.460788       -12.5387
  55   2.0000      -0.449992       -12.2449
  56   2.0000      -0.442495       -12.0409
  57   2.0000      -0.437223       -11.8974
  58   2.0000      -0.432315       -11.7639
  59   2.0000      -0.429150       -11.6778
  60   2.0000      -0.422297       -11.4913
  61   2.0000      -0.412587       -11.2271
  62   2.0000      -0.408736       -11.1223
  63   2.0000      -0.352461        -9.5910
  64   2.0000      -0.331907        -9.0316
  65   2.0000      -0.325198        -8.8491
  66   2.0000      -0.287886        -7.8338
  67   0.0000       0.029561         0.8044
  68   0.0000       0.071152         1.9361
  69   0.0000       0.111124         3.0238
  70   0.0000       0.124743         3.3944
  71   0.0000       0.126301         3.4368

MULLIKEN ATOMIC CHARGES
-----------------------
   0 S :    0.108298
   1 C :   -0.077779
   2 C :   -0.120507
   3 C :    0.031497
   4 C :   -0.171502
   5 H :    0.019383
   6 C :    0.051711
   7 H :    0.018134
   8 H :    0.021542
   9 C :   -0.097382
  10 H :    0.038963
  11 H :    0.032150
  12 C :   -0.034253
  13 H :    0.058443
  14 H :    0.024492
  15 H :    0.027820
  16 S :    0.112750
  17 C :   -0.099598
  18 C :   -0.039108
  19 C :   -0.009851
  20 C :   -0.151501
  21 H :    0.013437
  22 C :    0.041543
  23 H :    0.027505
  24 H :    0.030668
  25 C :   -0.091052
  26 H :    0.045436
  27 H :    0.017884
  28 C :   -0.031217
  29 H :    0.025879
  30 H :    0.032773
  31 H :    0.032193
  32 H :    0.041822
  33 H :    0.069425
Sum of atomic charges:   -0.0000000

LOEWDIN ATOMIC CHARGES
----------------------
   0 S :    0.409038
   1 C :   -0.218797
   2 C :   -0.060839
   3 C :   -0.055554
   4 C :   -0.171767
   5 H :    0.033149
   6 C :   -0.037543
   7 H :    0.026059
   8 H :    0.027309
   9 C :   -0.041735
  10 H :    0.027427
  11 H :    0.026395
  12 C :   -0.063950
  13 H :    0.035733
  14 H :    0.019048
  15 H :    0.026128
  16 S :    0.419482
  17 C :   -0.197911
  18 C :   -0.076554
  19 C :   -0.057612
  20 C :   -0.210567
  21 H :    0.030969
  22 C :   -0.036686
  23 H :    0.028249
  24 H :    0.035474
  25 C :   -0.047451
  26 H :    0.031024
  27 H :    0.022912
  28 C :   -0.067445
  29 H :    0.024375
  30 H :    0.027195
  31 H :    0.027751
  32 H :    0.025361
  33 H :    0.041333

  Mayer bond orders larger than 0.100000
B(  0-S ,  1-C ) :   1.1360 B(  0-S ,  4-C ) :   1.1432 B(  1-C ,  2-C ) :   1.6286
B(  1-C , 32-H ) :   0.9600 B(  2-C ,  3-C ) :   1.2047 B(  2-C ,  6-C ) :   1.0341
B(  3-C ,  4-C ) :   1.5764 B(  3-C ,  5-H ) :   1.0004 B(  4-C , 20-C ) :   1.0686
B(  6-C ,  7-H ) :   0.9406 B(  6-C ,  8-H ) :   0.9432 B(  6-C ,  9-C ) :   1.0682
B(  9-C , 10-H ) :   0.9566 B(  9-C , 11-H ) :   0.9583 B(  9-C , 12-C ) :   1.0668
B( 12-C , 13-H ) :   0.9707 B( 12-C , 14-H ) :   0.9737 B( 12-C , 15-H ) :   0.9728
B( 16-S , 17-C ) :   1.1658 B( 16-S , 20-C ) :   1.1380 B( 17-C , 18-C ) :   1.5871
B( 17-C , 33-H ) :   0.9629 B( 18-C , 19-C ) :   1.2680 B( 18-C , 21-H ) :   0.9927
B( 19-C , 20-C ) :   1.5582 B( 19-C , 22-C ) :   1.0567 B( 22-C , 23-H ) :   0.9313
B( 22-C , 24-H ) :   0.9242 B( 22-C , 25-C ) :   1.0655 B( 25-C , 26-H ) :   0.9499
B( 25-C , 27-H ) :   0.9482 B( 25-C , 28-C ) :   1.1018 B( 28-C , 29-H ) :   0.9694
B( 28-C , 30-H ) :   0.9700 B( 28-C , 31-H ) :   0.9710

Dispersion correction           -0.014854521
FINAL SINGLE POINT ENERGY     -1339.888070830759

DIPOLE MOMENT
-------------
                                X             Y             Z
Electronic contribution:    -21.39726      -2.97911     -12.60207
Nuclear contribution   :     21.80487       3.19848      13.02183
                        -----------------------------------------
Total Dipole Moment    :      0.40760       0.21937       0.41977
                        -----------------------------------------
Magnitude (a.u.)       :      0.62487
Magnitude (Debye)      :      1.58830

Rotational constants in cm-1:     0.018832     0.009131     0.006915
Rotational constants in MHz :   564.562633   273.753956   207.310142

                             ****ORCA TERMINATED NORMALLY****
TOTAL RUN TIME: 0 days 0 hours 0 minutes 35 seconds 672 msec
