                         Program Version 4.2.1 -  RELEASE  -
|  1> ! wB97X-D3 SP def2-SVP
|  2> %pal
|  3> nprocs 16
|  4> end
|  5>
|  6> * xyz 0 1
|  7> S 	 -108.631 	 41.5832 	 133.622
|  8> C 	 -107.637 	 41.7373 	 135.121
|  9> C 	 -106.861 	 42.9661 	 135.063
| 10> C 	 -107.123 	 43.66 	 133.834
| 11> C 	 -107.895 	 42.9501 	 132.924
| 12> H 	 -106.706 	 44.6761 	 133.542
| 13> C 	 -106.019 	 43.4641 	 136.221
| 14> H 	 -105.015 	 43.1016 	 136.123
| 15> H 	 -106.386 	 43.0363 	 137.157
| 16> C 	 -105.973 	 44.9821 	 136.304
| 17> H 	 -105.409 	 45.2793 	 137.181
| 18> H 	 -105.278 	 45.3526 	 135.513
| 19> C 	 -107.389 	 45.6399 	 136.455
| 20> H 	 -107.355 	 46.6458 	 136.763
| 21> H 	 -107.934 	 45.8125 	 135.524
| 22> H 	 -107.997 	 45.2513 	 137.246
| 23> S 	 -107.131 	 43.3789 	 130.415
| 24> C 	 -108.179 	 43.9941 	 129.227
| 25> C 	 -109.431 	 44.2179 	 129.738
| 26> C 	 -109.529 	 44.0036 	 131.173
| 27> C 	 -108.34 	 43.4671 	 131.607
| 28> H 	 -110.276 	 44.425 	 129.136
| 29> C 	 -110.861 	 44.0284 	 132.044
| 30> H 	 -110.624 	 43.8912 	 133.185
| 31> H 	 -111.563 	 43.2731 	 131.883
| 32> C 	 -111.675 	 45.3018 	 132.163
| 33> H 	 -112.386 	 45.3089 	 131.292
| 34> H 	 -110.988 	 46.1425 	 131.892
| 35> C 	 -112.431 	 45.5963 	 133.486
| 36> H 	 -111.83 	 45.6096 	 134.418
| 37> H 	 -113.347 	 45.0123 	 133.656
| 38> H 	 -112.886 	 46.607 	 133.444
| 39> H 	 -107.84 	 41.2165 	 136.048
| 40> H 	 -107.89 	 44.1893 	 128.327
| 41> *
| 42>
| 43>                          ****END OF INPUT****

CARTESIAN COORDINATES (ANGSTROEM)
---------------------------------
  S    -108.631000   41.583200  133.622000
  C    -107.637000   41.737300  135.121000
  C    -106.861000   42.966100  135.063000
  C    -107.123000   43.660000  133.834000
  C    -107.895000   42.950100  132.924000
  H    -106.706000   44.676100  133.542000
  C    -106.019000   43.464100  136.221000
  H    -105.015000   43.101600  136.123000
  H    -106.386000   43.036300  137.157000
  C    -105.973000   44.982100  136.304000
  H    -105.409000   45.279300  137.181000
  H    -105.278000   45.352600  135.513000
  C    -107.389000   45.639900  136.455000
  H    -107.355000   46.645800  136.763000
  H    -107.934000   45.812500  135.524000
  H    -107.997000   45.251300  137.246000
  S    -107.131000   43.378900  130.415000
  C    -108.179000   43.994100  129.227000
  C    -109.431000   44.217900  129.738000
  C    -109.529000   44.003600  131.173000
  C    -108.340000   43.467100  131.607000
  H    -110.276000   44.425000  129.136000
  C    -110.861000   44.028400  132.044000
  H    -110.624000   43.891200  133.185000
  H    -111.563000   43.273100  131.883000
  C    -111.675000   45.301800  132.163000
  H    -112.386000   45.308900  131.292000
  H    -110.988000   46.142500  131.892000
  C    -112.431000   45.596300  133.486000
  H    -111.830000   45.609600  134.418000
  H    -113.347000   45.012300  133.656000
  H    -112.886000   46.607000  133.444000
  H    -107.840000   41.216500  136.048000
  H    -107.890000   44.189300  128.327000

 Total Charge           Charge          ....    0
 Multiplicity           Mult            ....    1
 Number of Electrons    NEL             ....  134
 Basis Dimension        Dim             ....  322

ORBITAL ENERGIES
----------------

  NO   OCC          E(Eh)            E(eV)
   0   2.0000     -88.967237     -2420.9216
   1   2.0000     -88.963372     -2420.8164
   2   2.0000     -10.324309      -280.9387
   3   2.0000     -10.322269      -280.8832
   4   2.0000     -10.319137      -280.7980
   5   2.0000     -10.309627      -280.5392
   6   2.0000     -10.309291      -280.5301
   7   2.0000     -10.300094      -280.2798
   8   2.0000     -10.298612      -280.2395
   9   2.0000     -10.294994      -280.1410
  10   2.0000     -10.293063      -280.0885
  11   2.0000     -10.292172      -280.0642
  12   2.0000     -10.291211      -280.0381
  13   2.0000     -10.290280      -280.0127
  14   2.0000     -10.285313      -279.8776
  15   2.0000     -10.273690      -279.5613
  16   2.0000      -8.081242      -219.9018
  17   2.0000      -8.080183      -219.8729
  18   2.0000      -6.039642      -164.3470
  19   2.0000      -6.038447      -164.3145
  20   2.0000      -6.035777      -164.2418
  21   2.0000      -6.034253      -164.2004
  22   2.0000      -6.032227      -164.1452
  23   2.0000      -6.031222      -164.1179
  24   2.0000      -1.012204       -27.5435
  25   2.0000      -0.981162       -26.6988
  26   2.0000      -0.912436       -24.8286
  27   2.0000      -0.901089       -24.5199
  28   2.0000      -0.864026       -23.5114
  29   2.0000      -0.848236       -23.0817
  30   2.0000      -0.838622       -22.8201
  31   2.0000      -0.812104       -22.0985
  32   2.0000      -0.787478       -21.4284
  33   2.0000      -0.779221       -21.2037
  34   2.0000      -0.710375       -19.3303
  35   2.0000      -0.694374       -18.8949
  36   2.0000      -0.689912       -18.7735
  37   2.0000      -0.664730       -18.0882
  38   2.0000      -0.632872       -17.2213
  39   2.0000      -0.616617       -16.7790
  40   2.0000      -0.606297       -16.4982
  41   2.0000      -0.564390       -15.3578
  42   2.0000      -0.560003       -15.2385
  43   2.0000      -0.558858       -15.2073
  44   2.0000      -0.528954       -14.3936
  45   2.0000      -0.520990       -14.1768
  46   2.0000      -0.515998       -14.0410
  47   2.0000      -0.511357       -13.9147
  48   2.0000      -0.502739       -13.6802
  49   2.0000      -0.489418       -13.3177
  50   2.0000      -0.483782       -13.1644
  51   2.0000      -0.480263       -13.0686
  52   2.0000      -0.474260       -12.9053
  53   2.0000      -0.467499       -12.7213
  54   2.0000      -0.460595       -12.5334
  55   2.0000      -0.450998       -12.2723
  56   2.0000      -0.441613       -12.0169
  57   2.0000      -0.438173       -11.9233
  58   2.0000      -0.428771       -11.6675
  59   2.0000      -0.424658       -11.5555
  60   2.0000      -0.414756       -11.2861
  61   2.0000      -0.412605       -11.2276
  62   2.0000      -0.402666       -10.9571
  63   2.0000      -0.335007        -9.1160
  64   2.0000      -0.328751        -8.9458
  65   2.0000      -0.324110        -8.8195
  66   2.0000      -0.304217        -8.2782
  67   0.0000       0.040110         1.0914
  68   0.0000       0.064494         1.7550
  69   0.0000       0.107861         2.9350
  70   0.0000       0.124395         3.3850
  71   0.0000       0.131733         3.5846

MULLIKEN ATOMIC CHARGES
-----------------------
   0 S :    0.119573
   1 C :   -0.132032
   2 C :   -0.111887
   3 C :    0.020511
   4 C :   -0.157314
   5 H :    0.040468
   6 C :    0.107443
   7 H :    0.037397
   8 H :    0.017117
   9 C :   -0.103787
  10 H :    0.024069
  11 H :    0.037570
  12 C :   -0.022822
  13 H :    0.006406
  14 H :    0.036510
  15 H :    0.028996
  16 S :    0.130542
  17 C :   -0.012416
  18 C :   -0.019769
  19 C :    0.020382
  20 C :   -0.204382
  21 H :    0.007532
  22 C :    0.032237
  23 H :    0.038275
  24 H :    0.028219
  25 C :   -0.105010
  26 H :    0.025692
  27 H :    0.033707
  28 C :   -0.071911
  29 H :    0.047008
  30 H :    0.035498
  31 H :    0.031414
  32 H :    0.055839
  33 H :   -0.021075
Sum of atomic charges:   -0.0000000

LOEWDIN ATOMIC CHARGES
----------------------
   0 S :    0.422223
   1 C :   -0.200306
   2 C :   -0.050157
   3 C :   -0.072273
   4 C :   -0.221629
   5 H :    0.041912
   6 C :   -0.030737
   7 H :    0.033914
   8 H :    0.028974
   9 C :   -0.045883
  10 H :    0.025973
  11 H :    0.030202
  12 C :   -0.070756
  13 H :    0.022077
  14 H :    0.029733
  15 H :    0.027914
  16 S :    0.458009
  17 C :   -0.174754
  18 C :   -0.058655
  19 C :   -0.055825
  20 C :   -0.209769
  21 H :    0.024441
  22 C :   -0.040988
  23 H :    0.041852
  24 H :    0.021027
  25 C :   -0.055363
  26 H :    0.023038
  27 H :    0.027950
  28 C :   -0.078065
  29 H :    0.029793
  30 H :    0.026953
  31 H :    0.033612
  32 H :    0.025768
  33 H :   -0.010203

  Mayer bond orders larger than 0.100000
B(  0-S ,  1-C ) :   1.1480 B(  0-S ,  4-C ) :   1.1752 B(  1-C ,  2-C ) :   1.5668
B(  1-C ,  4-C ) :   0.1093 B(  1-C , 32-H ) :   0.9680 B(  2-C ,  3-C ) :   1.2771
B(  2-C ,  6-C ) :   1.0160 B(  3-C ,  4-C ) :   1.5622 B(  3-C ,  5-H ) :   0.9748
B(  4-C , 20-C ) :   0.9625 B(  6-C ,  7-H ) :   0.9305 B(  6-C ,  8-H ) :   0.9412
B(  6-C ,  9-C ) :   1.0954 B(  9-C , 10-H ) :   0.9539 B(  9-C , 11-H ) :   0.9481
B(  9-C , 12-C ) :   1.0652 B( 12-C , 13-H ) :   0.9684 B( 12-C , 14-H ) :   0.9724
B( 12-C , 15-H ) :   0.9741 B( 16-S , 17-C ) :   1.1642 B( 16-S , 20-C ) :   1.1921
B( 17-C , 18-C ) :   1.5902 B( 17-C , 33-H ) :   0.9953 B( 18-C , 19-C ) :   1.2307
B( 18-C , 21-H ) :   0.9966 B( 19-C , 20-C ) :   1.6150 B( 19-C , 22-C ) :   1.0216
B( 22-C , 23-H ) :   0.9464 B( 22-C , 24-H ) :   0.9494 B( 22-C , 25-C ) :   1.0445
B( 25-C , 26-H ) :   0.9519 B( 25-C , 27-H ) :   0.9605 B( 25-C , 28-C ) :   1.0893
B( 28-C , 29-H ) :   0.9714 B( 28-C , 30-H ) :   0.9750 B( 28-C , 31-H ) :   0.9707

Dispersion correction           -0.014518783
FINAL SINGLE POINT ENERGY     -1339.841263517396

DIPOLE MOMENT
-------------
                                X             Y             Z
Electronic contribution:      9.84674     -17.31238     -17.15234
Nuclear contribution   :    -10.00783      17.79470      17.52915
                        -----------------------------------------
Total Dipole Moment    :     -0.16109       0.48233       0.37681
                        -----------------------------------------
Magnitude (a.u.)       :      0.63291
Magnitude (Debye)      :      1.60873

Rotational constants in cm-1:     0.016182     0.009500     0.007721
Rotational constants in MHz :   485.133566   284.790542   231.482655

                             ****ORCA TERMINATED NORMALLY****
TOTAL RUN TIME: 0 days 0 hours 0 minutes 31 seconds 839 msec
