                         Program Version 4.2.1 -  RELEASE  -
|  1> ! wB97X-D3 SP def2-SVP
|  2> %pal
|  3> nprocs 16
|  4> end
|  5>
|  6> * xyz 0 1
|  7> S 	 34.7186 	 22.4324 	 81.4273
|  8> C 	 33.6027 	 23.7308 	 81.9816
|  9> C 	 34.3138 	 24.7821 	 82.5108
| 10> C 	 35.7368 	 24.5133 	 82.5272
| 11> C 	 36.072 	 23.2177 	 82.1546
| 12> H 	 36.5352 	 25.1255 	 82.852
| 13> C 	 33.7441 	 26.1171 	 83.0283
| 14> H 	 32.7851 	 26.307 	 82.6192
| 15> H 	 34.2499 	 26.9529 	 82.542
| 16> C 	 33.7834 	 26.2039 	 84.6148
| 17> H 	 33.0642 	 25.5051 	 85.0116
| 18> H 	 34.8168 	 25.878 	 84.8759
| 19> C 	 33.582 	 27.6831 	 85.0293
| 20> H 	 33.9625 	 27.8436 	 86.0376
| 21> H 	 34.2291 	 28.2301 	 84.3525
| 22> H 	 32.5454 	 28.1079 	 84.9058
| 23> S 	 37.4331 	 20.9146 	 81.986
| 24> C 	 39.0826 	 20.8751 	 82.3029
| 25> C 	 39.6798 	 22.0933 	 82.1325
| 26> C 	 38.7268 	 23.1596 	 82.0975
| 27> C 	 37.4245 	 22.657 	 82.0933
| 28> H 	 40.811 	 22.0451 	 82.1257
| 29> C 	 39.1348 	 24.6455 	 82.0984
| 30> H 	 38.4403 	 25.206 	 81.5218
| 31> H 	 40.1107 	 24.6432 	 81.4785
| 32> C 	 39.4296 	 25.445 	 83.4198
| 33> H 	 38.4539 	 25.451 	 83.9008
| 34> H 	 39.6497 	 26.5207 	 83.1881
| 35> C 	 40.3983 	 24.877 	 84.4947
| 36> H 	 41.3945 	 24.966 	 84.1068
| 37> H 	 40.2795 	 23.7589 	 84.7461
| 38> H 	 40.3867 	 25.4181 	 85.4533
| 39> H 	 32.5819 	 23.6911 	 81.8003
| 40> H 	 39.6332 	 19.9317 	 82.4086
| 41> *
| 42>
| 43>                          ****END OF INPUT****

CARTESIAN COORDINATES (ANGSTROEM)
---------------------------------
  S     34.718600   22.432400   81.427300
  C     33.602700   23.730800   81.981600
  C     34.313800   24.782100   82.510800
  C     35.736800   24.513300   82.527200
  C     36.072000   23.217700   82.154600
  H     36.535200   25.125500   82.852000
  C     33.744100   26.117100   83.028300
  H     32.785100   26.307000   82.619200
  H     34.249900   26.952900   82.542000
  C     33.783400   26.203900   84.614800
  H     33.064200   25.505100   85.011600
  H     34.816800   25.878000   84.875900
  C     33.582000   27.683100   85.029300
  H     33.962500   27.843600   86.037600
  H     34.229100   28.230100   84.352500
  H     32.545400   28.107900   84.905800
  S     37.433100   20.914600   81.986000
  C     39.082600   20.875100   82.302900
  C     39.679800   22.093300   82.132500
  C     38.726800   23.159600   82.097500
  C     37.424500   22.657000   82.093300
  H     40.811000   22.045100   82.125700
  C     39.134800   24.645500   82.098400
  H     38.440300   25.206000   81.521800
  H     40.110700   24.643200   81.478500
  C     39.429600   25.445000   83.419800
  H     38.453900   25.451000   83.900800
  H     39.649700   26.520700   83.188100
  C     40.398300   24.877000   84.494700
  H     41.394500   24.966000   84.106800
  H     40.279500   23.758900   84.746100
  H     40.386700   25.418100   85.453300
  H     32.581900   23.691100   81.800300
  H     39.633200   19.931700   82.408600

 Total Charge           Charge          ....    0
 Multiplicity           Mult            ....    1
 Number of Electrons    NEL             ....  134
 Basis Dimension        Dim             ....  322

ORBITAL ENERGIES
----------------

  NO   OCC          E(Eh)            E(eV)
   0   2.0000     -88.963517     -2420.8204
   1   2.0000     -88.963061     -2420.8080
   2   2.0000     -10.330056      -281.0951
   3   2.0000     -10.328811      -281.0612
   4   2.0000     -10.313060      -280.6326
   5   2.0000     -10.312482      -280.6169
   6   2.0000     -10.311730      -280.5964
   7   2.0000     -10.306331      -280.4495
   8   2.0000     -10.303541      -280.3736
   9   2.0000     -10.298531      -280.2373
  10   2.0000     -10.298313      -280.2313
  11   2.0000     -10.293692      -280.1056
  12   2.0000     -10.292558      -280.0747
  13   2.0000     -10.289726      -279.9977
  14   2.0000     -10.285046      -279.8703
  15   2.0000     -10.283231      -279.8209
  16   2.0000      -8.079830      -219.8633
  17   2.0000      -8.078231      -219.8198
  18   2.0000      -6.038082      -164.3046
  19   2.0000      -6.036890      -164.2721
  20   2.0000      -6.034229      -164.1997
  21   2.0000      -6.032926      -164.1643
  22   2.0000      -6.030552      -164.0997
  23   2.0000      -6.028649      -164.0479
  24   2.0000      -1.013718       -27.5847
  25   2.0000      -0.985337       -26.8124
  26   2.0000      -0.905970       -24.6527
  27   2.0000      -0.902069       -24.5465
  28   2.0000      -0.869515       -23.6607
  29   2.0000      -0.851903       -23.1815
  30   2.0000      -0.839868       -22.8540
  31   2.0000      -0.814270       -22.1574
  32   2.0000      -0.785512       -21.3749
  33   2.0000      -0.773627       -21.0515
  34   2.0000      -0.708928       -19.2909
  35   2.0000      -0.702199       -19.1078
  36   2.0000      -0.690738       -18.7959
  37   2.0000      -0.664663       -18.0864
  38   2.0000      -0.640792       -17.4368
  39   2.0000      -0.619464       -16.8565
  40   2.0000      -0.590864       -16.0782
  41   2.0000      -0.563733       -15.3399
  42   2.0000      -0.560270       -15.2457
  43   2.0000      -0.548530       -14.9263
  44   2.0000      -0.541665       -14.7395
  45   2.0000      -0.522307       -14.2127
  46   2.0000      -0.512790       -13.9537
  47   2.0000      -0.510195       -13.8831
  48   2.0000      -0.507082       -13.7984
  49   2.0000      -0.498352       -13.5608
  50   2.0000      -0.490594       -13.3497
  51   2.0000      -0.482863       -13.1394
  52   2.0000      -0.468545       -12.7498
  53   2.0000      -0.460556       -12.5324
  54   2.0000      -0.456947       -12.4341
  55   2.0000      -0.451734       -12.2923
  56   2.0000      -0.446031       -12.1371
  57   2.0000      -0.441898       -12.0247
  58   2.0000      -0.434866       -11.8333
  59   2.0000      -0.427343       -11.6286
  60   2.0000      -0.426589       -11.6081
  61   2.0000      -0.413780       -11.2595
  62   2.0000      -0.405713       -11.0400
  63   2.0000      -0.359762        -9.7896
  64   2.0000      -0.334424        -9.1001
  65   2.0000      -0.325816        -8.8659
  66   2.0000      -0.283498        -7.7144
  67   0.0000       0.021882         0.5954
  68   0.0000       0.076124         2.0714
  69   0.0000       0.100195         2.7264
  70   0.0000       0.124599         3.3905
  71   0.0000       0.129956         3.5363

MULLIKEN ATOMIC CHARGES
-----------------------
   0 S :    0.081828
   1 C :   -0.099442
   2 C :   -0.057156
   3 C :   -0.005486
   4 C :   -0.071216
   5 H :   -0.028368
   6 C :    0.063911
   7 H :    0.001137
   8 H :    0.021461
   9 C :   -0.068953
  10 H :    0.039743
  11 H :    0.038221
  12 C :   -0.047702
  13 H :    0.038804
  14 H :    0.019502
  15 H :    0.047258
  16 S :    0.104809
  17 C :   -0.101554
  18 C :   -0.057861
  19 C :   -0.044206
  20 C :   -0.142176
  21 H :    0.042148
  22 C :    0.032956
  23 H :    0.029206
  24 H :    0.034153
  25 C :   -0.070900
  26 H :    0.027141
  27 H :    0.045223
  28 C :   -0.075788
  29 H :    0.022765
  30 H :    0.054153
  31 H :    0.042630
  32 H :    0.022103
  33 H :    0.061657
Sum of atomic charges:   -0.0000000

LOEWDIN ATOMIC CHARGES
----------------------
   0 S :    0.381941
   1 C :   -0.170996
   2 C :   -0.052175
   3 C :   -0.071829
   4 C :   -0.188959
   5 H :    0.018586
   6 C :   -0.032468
   7 H :    0.020652
   8 H :    0.030108
   9 C :   -0.030188
  10 H :    0.023675
  11 H :    0.029302
  12 C :   -0.070380
  13 H :    0.026239
  14 H :    0.022443
  15 H :    0.032132
  16 S :    0.430985
  17 C :   -0.205775
  18 C :   -0.082463
  19 C :   -0.058400
  20 C :   -0.190959
  21 H :    0.045383
  22 C :   -0.035199
  23 H :    0.025597
  24 H :    0.039123
  25 C :   -0.044977
  26 H :    0.018201
  27 H :    0.033908
  28 C :   -0.076572
  29 H :    0.017886
  30 H :    0.038540
  31 H :    0.030757
  32 H :    0.014099
  33 H :    0.031784

  Mayer bond orders larger than 0.100000
B(  0-S ,  1-C ) :   1.1070 B(  0-S ,  4-C ) :   1.1468 B(  1-C ,  2-C ) :   1.6323
B(  1-C , 32-H ) :   0.9824 B(  2-C ,  3-C ) :   1.2049 B(  2-C ,  6-C ) :   1.0261
B(  3-C ,  4-C ) :   1.5867 B(  3-C ,  5-H ) :   1.0015 B(  4-C , 20-C ) :   1.0618
B(  6-C ,  7-H ) :   0.9385 B(  6-C ,  8-H ) :   0.9432 B(  6-C ,  9-C ) :   1.0411
B(  9-C , 10-H ) :   0.9587 B(  9-C , 11-H ) :   0.9625 B(  9-C , 12-C ) :   1.0674
B( 12-C , 13-H ) :   0.9750 B( 12-C , 14-H ) :   0.9759 B( 12-C , 15-H ) :   0.9761
B( 16-S , 17-C ) :   1.1805 B( 16-S , 20-C ) :   1.1458 B( 17-C , 18-C ) :   1.6123
B( 17-C , 33-H ) :   0.9630 B( 18-C , 19-C ) :   1.2298 B( 18-C , 21-H ) :   0.9843
B( 19-C , 20-C ) :   1.5775 B( 19-C , 22-C ) :   1.0316 B( 22-C , 23-H ) :   0.9352
B( 22-C , 24-H ) :   0.9366 B( 22-C , 25-C ) :   1.0624 B( 25-C , 26-H ) :   0.9515
B( 25-C , 27-H ) :   0.9540 B( 25-C , 28-C ) :   1.0746 B( 28-C , 29-H ) :   0.9774
B( 28-C , 30-H ) :   0.9718 B( 28-C , 31-H ) :   0.9742

Dispersion correction           -0.014091467
FINAL SINGLE POINT ENERGY     -1339.866766400343

DIPOLE MOMENT
-------------
                                X             Y             Z
Electronic contribution:     -4.60344     -26.89618     -15.31199
Nuclear contribution   :      4.88838      27.45728      15.51093
                        -----------------------------------------
Total Dipole Moment    :      0.28495       0.56111       0.19895
                        -----------------------------------------
Magnitude (a.u.)       :      0.66001
Magnitude (Debye)      :      1.67761

Rotational constants in cm-1:     0.017308     0.009286     0.006469
Rotational constants in MHz :   518.874839   278.399660   193.931648

                             ****ORCA TERMINATED NORMALLY****
TOTAL RUN TIME: 0 days 0 hours 0 minutes 30 seconds 164 msec
