                         Program Version 4.2.1 -  RELEASE  -
|  1> ! wB97X-D3 SP def2-SVP
|  2> %pal
|  3> nprocs 16
|  4> end
|  5>
|  6> * xyz 0 1
|  7> S 	 9.43515 	 -2.56587 	 86.5628
|  8> C 	 9.17368 	 -0.969175 	 87.1745
|  9> C 	 7.83734 	 -0.834039 	 87.608
| 10> C 	 7.03432 	 -2.04552 	 87.3945
| 11> C 	 7.81389 	 -3.0973 	 87.0744
| 12> H 	 6.00637 	 -2.23922 	 87.5369
| 13> C 	 7.26264 	 0.433462 	 88.3164
| 14> H 	 6.19862 	 0.40583 	 88.0633
| 15> H 	 7.69676 	 1.21314 	 87.7699
| 16> C 	 7.61048 	 0.407369 	 89.8122
| 17> H 	 7.00926 	 -0.481842 	 90.0726
| 18> H 	 8.6526 	 0.208458 	 90.1005
| 19> C 	 7.19843 	 1.69411 	 90.4911
| 20> H 	 7.61347 	 2.57819 	 89.9395
| 21> H 	 6.1518 	 1.88721 	 90.6514
| 22> H 	 7.6466 	 1.67645 	 91.4939
| 23> S 	 7.63744 	 -5.30228 	 85.2438
| 24> C 	 6.65412 	 -6.6498 	 85.7131
| 25> C 	 6.26176 	 -6.53497 	 87.03
| 26> C 	 6.53528 	 -5.27171 	 87.6398
| 27> C 	 7.37418 	 -4.46253 	 86.8619
| 28> H 	 5.57322 	 -7.25077 	 87.5178
| 29> C 	 6.05875 	 -5.05231 	 89.0727
| 30> H 	 6.43244 	 -4.07809 	 89.3013
| 31> H 	 6.48724 	 -5.80931 	 89.6928
| 32> C 	 4.50515 	 -4.93577 	 89.1891
| 33> H 	 4.04756 	 -5.88212 	 88.9483
| 34> H 	 4.20992 	 -4.15401 	 88.5308
| 35> C 	 4.01627 	 -4.62441 	 90.5445
| 36> H 	 2.97262 	 -4.29261 	 90.6134
| 37> H 	 4.61666 	 -3.78209 	 91.0147
| 38> H 	 4.06326 	 -5.49109 	 91.1833
| 39> H 	 10.0203 	 -0.25291 	 87.132
| 40> H 	 6.52186 	 -7.56276 	 85.0763
| 41> *
| 42>
| 43>                          ****END OF INPUT****

CARTESIAN COORDINATES (ANGSTROEM)
---------------------------------
  S      9.435150   -2.565870   86.562800
  C      9.173680   -0.969175   87.174500
  C      7.837340   -0.834039   87.608000
  C      7.034320   -2.045520   87.394500
  C      7.813890   -3.097300   87.074400
  H      6.006370   -2.239220   87.536900
  C      7.262640    0.433462   88.316400
  H      6.198620    0.405830   88.063300
  H      7.696760    1.213140   87.769900
  C      7.610480    0.407369   89.812200
  H      7.009260   -0.481842   90.072600
  H      8.652600    0.208458   90.100500
  C      7.198430    1.694110   90.491100
  H      7.613470    2.578190   89.939500
  H      6.151800    1.887210   90.651400
  H      7.646600    1.676450   91.493900
  S      7.637440   -5.302280   85.243800
  C      6.654120   -6.649800   85.713100
  C      6.261760   -6.534970   87.030000
  C      6.535280   -5.271710   87.639800
  C      7.374180   -4.462530   86.861900
  H      5.573220   -7.250770   87.517800
  C      6.058750   -5.052310   89.072700
  H      6.432440   -4.078090   89.301300
  H      6.487240   -5.809310   89.692800
  C      4.505150   -4.935770   89.189100
  H      4.047560   -5.882120   88.948300
  H      4.209920   -4.154010   88.530800
  C      4.016270   -4.624410   90.544500
  H      2.972620   -4.292610   90.613400
  H      4.616660   -3.782090   91.014700
  H      4.063260   -5.491090   91.183300
  H     10.020300   -0.252910   87.132000
  H      6.521860   -7.562760   85.076300

 Total Charge           Charge          ....    0
 Multiplicity           Mult            ....    1
 Number of Electrons    NEL             ....  134
 Basis Dimension        Dim             ....  322

ORBITAL ENERGIES
----------------

  NO   OCC          E(Eh)            E(eV)
   0   2.0000     -88.964368     -2420.8435
   1   2.0000     -88.961496     -2420.7654
   2   2.0000     -10.333148      -281.1793
   3   2.0000     -10.328016      -281.0396
   4   2.0000     -10.322474      -280.8888
   5   2.0000     -10.319812      -280.8164
   6   2.0000     -10.310468      -280.5621
   7   2.0000     -10.305333      -280.4224
   8   2.0000     -10.295130      -280.1447
   9   2.0000     -10.292991      -280.0865
  10   2.0000     -10.290238      -280.0116
  11   2.0000     -10.289496      -279.9914
  12   2.0000     -10.289447      -279.9901
  13   2.0000     -10.283406      -279.8257
  14   2.0000     -10.278843      -279.7015
  15   2.0000     -10.278558      -279.6938
  16   2.0000      -8.078215      -219.8194
  17   2.0000      -8.076528      -219.7735
  18   2.0000      -6.036846      -164.2709
  19   2.0000      -6.035088      -164.2231
  20   2.0000      -6.032862      -164.1625
  21   2.0000      -6.031024      -164.1125
  22   2.0000      -6.028872      -164.0539
  23   2.0000      -6.027200      -164.0085
  24   2.0000      -1.001314       -27.2471
  25   2.0000      -0.978540       -26.6274
  26   2.0000      -0.914837       -24.8940
  27   2.0000      -0.910600       -24.7787
  28   2.0000      -0.872102       -23.7311
  29   2.0000      -0.853691       -23.2301
  30   2.0000      -0.846540       -23.0355
  31   2.0000      -0.812369       -22.1057
  32   2.0000      -0.782900       -21.3038
  33   2.0000      -0.766049       -20.8452
  34   2.0000      -0.702798       -19.1241
  35   2.0000      -0.699103       -19.0236
  36   2.0000      -0.693425       -18.8691
  37   2.0000      -0.660230       -17.9658
  38   2.0000      -0.646353       -17.5881
  39   2.0000      -0.613599       -16.6969
  40   2.0000      -0.593377       -16.1466
  41   2.0000      -0.581449       -15.8220
  42   2.0000      -0.571042       -15.5388
  43   2.0000      -0.551970       -15.0199
  44   2.0000      -0.527633       -14.3576
  45   2.0000      -0.523135       -14.2352
  46   2.0000      -0.520513       -14.1639
  47   2.0000      -0.517561       -14.0835
  48   2.0000      -0.511255       -13.9120
  49   2.0000      -0.501015       -13.6333
  50   2.0000      -0.495669       -13.4878
  51   2.0000      -0.476827       -12.9751
  52   2.0000      -0.471009       -12.8168
  53   2.0000      -0.462475       -12.5846
  54   2.0000      -0.457935       -12.4611
  55   2.0000      -0.451199       -12.2777
  56   2.0000      -0.445772       -12.1301
  57   2.0000      -0.436479       -11.8772
  58   2.0000      -0.432290       -11.7632
  59   2.0000      -0.421176       -11.4608
  60   2.0000      -0.418650       -11.3920
  61   2.0000      -0.417236       -11.3536
  62   2.0000      -0.408444       -11.1143
  63   2.0000      -0.351789        -9.5727
  64   2.0000      -0.330583        -8.9956
  65   2.0000      -0.324723        -8.8362
  66   2.0000      -0.290173        -7.8960
  67   0.0000       0.027607         0.7512
  68   0.0000       0.065463         1.7813
  69   0.0000       0.110403         3.0042
  70   0.0000       0.119764         3.2590
  71   0.0000       0.124778         3.3954

MULLIKEN ATOMIC CHARGES
-----------------------
   0 S :    0.092837
   1 C :   -0.130781
   2 C :   -0.132986
   3 C :    0.050903
   4 C :   -0.165896
   5 H :    0.001325
   6 C :    0.095385
   7 H :    0.029550
   8 H :    0.007405
   9 C :   -0.072881
  10 H :    0.027909
  11 H :    0.041952
  12 C :   -0.036998
  13 H :    0.034306
  14 H :    0.030665
  15 H :    0.031688
  16 S :    0.091186
  17 C :   -0.109802
  18 C :   -0.026476
  19 C :   -0.076596
  20 C :   -0.124909
  21 H :    0.029074
  22 C :    0.093141
  23 H :    0.004474
  24 H :    0.036790
  25 C :   -0.060405
  26 H :    0.024255
  27 H :    0.023591
  28 C :   -0.049726
  29 H :    0.035585
  30 H :    0.027983
  31 H :    0.024931
  32 H :    0.070385
  33 H :    0.082135
Sum of atomic charges:   -0.0000000

LOEWDIN ATOMIC CHARGES
----------------------
   0 S :    0.390653
   1 C :   -0.207950
   2 C :   -0.054617
   3 C :   -0.059732
   4 C :   -0.179810
   5 H :    0.027713
   6 C :   -0.025668
   7 H :    0.032605
   8 H :    0.016243
   9 C :   -0.043243
  10 H :    0.029591
  11 H :    0.031212
  12 C :   -0.071032
  13 H :    0.030356
  14 H :    0.021773
  15 H :    0.028511
  16 S :    0.373242
  17 C :   -0.190890
  18 C :   -0.082658
  19 C :   -0.050924
  20 C :   -0.178025
  21 H :    0.033266
  22 C :   -0.018530
  23 H :    0.022934
  24 H :    0.030708
  25 C :   -0.036982
  26 H :    0.021601
  27 H :    0.021167
  28 C :   -0.069580
  29 H :    0.028731
  30 H :    0.028170
  31 H :    0.021845
  32 H :    0.036199
  33 H :    0.043121

  Mayer bond orders larger than 0.100000
B(  0-S ,  1-C ) :   1.1385 B(  0-S ,  4-C ) :   1.1347 B(  1-C ,  2-C ) :   1.6116
B(  1-C , 32-H ) :   0.9714 B(  2-C ,  3-C ) :   1.1993 B(  2-C ,  6-C ) :   1.0127
B(  3-C ,  4-C ) :   1.6038 B(  3-C ,  5-H ) :   0.9980 B(  4-C , 20-C ) :   1.0516
B(  6-C ,  7-H ) :   0.9471 B(  6-C ,  8-H ) :   0.9369 B(  6-C ,  9-C ) :   1.0485
B(  9-C , 10-H ) :   0.9532 B(  9-C , 11-H ) :   0.9626 B(  9-C , 12-C ) :   1.0803
B( 12-C , 13-H ) :   0.9728 B( 12-C , 14-H ) :   0.9747 B( 12-C , 15-H ) :   0.9747
B( 16-S , 17-C ) :   1.1620 B( 16-S , 20-C ) :   1.1078 B( 17-C , 18-C ) :   1.6079
B( 17-C , 33-H ) :   0.9581 B( 18-C , 19-C ) :   1.2417 B( 18-C , 21-H ) :   0.9795
B( 19-C , 20-C ) :   1.6066 B( 19-C , 22-C ) :   1.0433 B( 22-C , 23-H ) :   0.9244
B( 22-C , 24-H ) :   0.9421 B( 22-C , 25-C ) :   1.0655 B( 25-C , 26-H ) :   0.9533
B( 25-C , 27-H ) :   0.9525 B( 25-C , 28-C ) :   1.1029 B( 28-C , 29-H ) :   0.9715
B( 28-C , 30-H ) :   0.9692 B( 28-C , 31-H ) :   0.9725

Dispersion correction           -0.013881032
FINAL SINGLE POINT ENERGY     -1339.869310046964

DIPOLE MOMENT
-------------
                                X             Y             Z
Electronic contribution:     16.29622     -13.17390     -25.03327
Nuclear contribution   :    -16.81419      13.33991      25.56946
                        -----------------------------------------
Total Dipole Moment    :     -0.51797       0.16600       0.53620
                        -----------------------------------------
Magnitude (a.u.)       :      0.76378
Magnitude (Debye)      :      1.94137

Rotational constants in cm-1:     0.017019     0.009060     0.006200
Rotational constants in MHz :   510.229187   271.613888   185.857527

                             ****ORCA TERMINATED NORMALLY****
TOTAL RUN TIME: 0 days 0 hours 0 minutes 32 seconds 76 msec
