                         Program Version 4.2.1 -  RELEASE  -
|  1> ! wB97X-D3 SP def2-SVP
|  2> %pal
|  3> nprocs 16
|  4> end
|  5>
|  6> * xyz 0 1
|  7> S 	 5.12095 	 -4.76564 	 98.5953
|  8> C 	 3.95006 	 -6.07197 	 98.6636
|  9> C 	 4.50992 	 -7.21248 	 98.0808
| 10> C 	 5.82892 	 -6.97205 	 97.5456
| 11> C 	 6.26834 	 -5.72301 	 97.6977
| 12> H 	 6.4325 	 -7.74594 	 97.1506
| 13> C 	 3.86056 	 -8.56505 	 97.9722
| 14> H 	 4.02179 	 -8.9885 	 96.9673
| 15> H 	 2.77674 	 -8.44328 	 97.9934
| 16> C 	 4.18963 	 -9.48403 	 99.1477
| 17> H 	 3.6969 	 -9.08119 	 100.026
| 18> H 	 3.62602 	 -10.3764 	 98.8646
| 19> C 	 5.63189 	 -9.91368 	 99.346
| 20> H 	 6.08424 	 -10.4344 	 98.521
| 21> H 	 6.20802 	 -9.04399 	 99.5018
| 22> H 	 5.68895 	 -10.5826 	 100.189
| 23> S 	 8.54289 	 -4.69925 	 98.5171
| 24> C 	 9.93167 	 -4.39712 	 97.4558
| 25> C 	 9.65103 	 -4.9868 	 96.2444
| 26> C 	 8.33366 	 -5.44961 	 96.0458
| 27> C 	 7.54314 	 -5.29623 	 97.2362
| 28> H 	 10.4769 	 -5.06309 	 95.5011
| 29> C 	 7.80823 	 -6.08106 	 94.7788
| 30> H 	 7.10141 	 -6.91885 	 94.9014
| 31> H 	 8.61633 	 -6.67079 	 94.3059
| 32> C 	 7.24408 	 -5.02352 	 93.8059
| 33> H 	 8.00991 	 -4.30754 	 93.8287
| 34> H 	 6.31704 	 -4.59815 	 94.2182
| 35> C 	 6.86847 	 -5.6181 	 92.4259
| 36> H 	 6.65518 	 -4.76152 	 91.7987
| 37> H 	 5.94902 	 -6.1925 	 92.3686
| 38> H 	 7.67655 	 -6.01646 	 91.901
| 39> H 	 2.91746 	 -6.03692 	 99.1093
| 40> H 	 10.8771 	 -4.07787 	 97.7789
| 41> *
| 42>
| 43>                          ****END OF INPUT****

CARTESIAN COORDINATES (ANGSTROEM)
---------------------------------
  S      5.120950   -4.765640   98.595300
  C      3.950060   -6.071970   98.663600
  C      4.509920   -7.212480   98.080800
  C      5.828920   -6.972050   97.545600
  C      6.268340   -5.723010   97.697700
  H      6.432500   -7.745940   97.150600
  C      3.860560   -8.565050   97.972200
  H      4.021790   -8.988500   96.967300
  H      2.776740   -8.443280   97.993400
  C      4.189630   -9.484030   99.147700
  H      3.696900   -9.081190  100.026000
  H      3.626020  -10.376400   98.864600
  C      5.631890   -9.913680   99.346000
  H      6.084240  -10.434400   98.521000
  H      6.208020   -9.043990   99.501800
  H      5.688950  -10.582600  100.189000
  S      8.542890   -4.699250   98.517100
  C      9.931670   -4.397120   97.455800
  C      9.651030   -4.986800   96.244400
  C      8.333660   -5.449610   96.045800
  C      7.543140   -5.296230   97.236200
  H     10.476900   -5.063090   95.501100
  C      7.808230   -6.081060   94.778800
  H      7.101410   -6.918850   94.901400
  H      8.616330   -6.670790   94.305900
  C      7.244080   -5.023520   93.805900
  H      8.009910   -4.307540   93.828700
  H      6.317040   -4.598150   94.218200
  C      6.868470   -5.618100   92.425900
  H      6.655180   -4.761520   91.798700
  H      5.949020   -6.192500   92.368600
  H      7.676550   -6.016460   91.901000
  H      2.917460   -6.036920   99.109300
  H     10.877100   -4.077870   97.778900

 Total Charge           Charge          ....    0
 Multiplicity           Mult            ....    1
 Number of Electrons    NEL             ....  134
 Basis Dimension        Dim             ....  322

ORBITAL ENERGIES
----------------

  NO   OCC          E(Eh)            E(eV)
   0   2.0000     -88.966118     -2420.8912
   1   2.0000     -88.962632     -2420.7963
   2   2.0000     -10.327547      -281.0269
   3   2.0000     -10.322186      -280.8810
   4   2.0000     -10.320556      -280.8366
   5   2.0000     -10.313909      -280.6557
   6   2.0000     -10.307445      -280.4798
   7   2.0000     -10.299822      -280.2724
   8   2.0000     -10.297151      -280.1997
   9   2.0000     -10.290242      -280.0117
  10   2.0000     -10.289765      -279.9987
  11   2.0000     -10.284978      -279.8685
  12   2.0000     -10.283919      -279.8397
  13   2.0000     -10.281993      -279.7873
  14   2.0000     -10.271212      -279.4939
  15   2.0000     -10.269179      -279.4386
  16   2.0000      -8.080792      -219.8895
  17   2.0000      -8.077432      -219.7981
  18   2.0000      -6.039487      -164.3428
  19   2.0000      -6.035897      -164.2451
  20   2.0000      -6.035213      -164.2265
  21   2.0000      -6.031748      -164.1322
  22   2.0000      -6.031438      -164.1238
  23   2.0000      -6.028401      -164.0411
  24   2.0000      -1.011221       -27.5167
  25   2.0000      -0.983461       -26.7613
  26   2.0000      -0.915037       -24.8994
  27   2.0000      -0.905972       -24.6527
  28   2.0000      -0.876103       -23.8400
  29   2.0000      -0.849859       -23.1258
  30   2.0000      -0.843653       -22.9570
  31   2.0000      -0.818479       -22.2719
  32   2.0000      -0.785227       -21.3671
  33   2.0000      -0.772623       -21.0241
  34   2.0000      -0.708237       -19.2721
  35   2.0000      -0.701643       -19.0927
  36   2.0000      -0.697077       -18.9684
  37   2.0000      -0.660607       -17.9760
  38   2.0000      -0.639498       -17.4016
  39   2.0000      -0.621289       -16.9061
  40   2.0000      -0.599500       -16.3132
  41   2.0000      -0.573664       -15.6102
  42   2.0000      -0.563451       -15.3323
  43   2.0000      -0.545422       -14.8417
  44   2.0000      -0.543402       -14.7867
  45   2.0000      -0.523387       -14.2421
  46   2.0000      -0.516971       -14.0675
  47   2.0000      -0.513813       -13.9816
  48   2.0000      -0.505921       -13.7668
  49   2.0000      -0.504266       -13.7218
  50   2.0000      -0.496567       -13.5123
  51   2.0000      -0.483174       -13.1478
  52   2.0000      -0.474505       -12.9119
  53   2.0000      -0.467301       -12.7159
  54   2.0000      -0.459111       -12.4931
  55   2.0000      -0.447244       -12.1701
  56   2.0000      -0.440052       -11.9744
  57   2.0000      -0.436116       -11.8673
  58   2.0000      -0.430128       -11.7044
  59   2.0000      -0.425549       -11.5798
  60   2.0000      -0.422404       -11.4942
  61   2.0000      -0.409234       -11.1358
  62   2.0000      -0.406304       -11.0561
  63   2.0000      -0.349873        -9.5205
  64   2.0000      -0.328530        -8.9397
  65   2.0000      -0.326031        -8.8717
  66   2.0000      -0.292050        -7.9471
  67   0.0000       0.027798         0.7564
  68   0.0000       0.069333         1.8867
  69   0.0000       0.109155         2.9703
  70   0.0000       0.121361         3.3024
  71   0.0000       0.138199         3.7606

MULLIKEN ATOMIC CHARGES
-----------------------
   0 S :    0.118822
   1 C :   -0.143014
   2 C :   -0.098994
   3 C :    0.032087
   4 C :   -0.117368
   5 H :    0.002768
   6 C :    0.046256
   7 H :    0.029647
   8 H :    0.013830
   9 C :   -0.063981
  10 H :    0.027464
  11 H :    0.022827
  12 C :   -0.015402
  13 H :    0.021871
  14 H :    0.033202
  15 H :    0.032167
  16 S :    0.091466
  17 C :   -0.067936
  18 C :   -0.064132
  19 C :   -0.010172
  20 C :   -0.166530
  21 H :    0.032025
  22 C :    0.037970
  23 H :    0.014705
  24 H :    0.014763
  25 C :   -0.048649
  26 H :    0.014367
  27 H :    0.038051
  28 C :   -0.013328
  29 H :    0.017800
  30 H :    0.041420
  31 H :    0.015088
  32 H :    0.070403
  33 H :    0.040507
Sum of atomic charges:   -0.0000000

LOEWDIN ATOMIC CHARGES
----------------------
   0 S :    0.404980
   1 C :   -0.208187
   2 C :   -0.062701
   3 C :   -0.056302
   4 C :   -0.208354
   5 H :    0.026129
   6 C :   -0.038596
   7 H :    0.030799
   8 H :    0.031142
   9 C :   -0.036336
  10 H :    0.025074
  11 H :    0.024468
  12 C :   -0.060208
  13 H :    0.023787
  14 H :    0.020860
  15 H :    0.028766
  16 S :    0.414428
  17 C :   -0.179819
  18 C :   -0.073861
  19 C :   -0.060829
  20 C :   -0.190847
  21 H :    0.037586
  22 C :   -0.041828
  23 H :    0.025987
  24 H :    0.029918
  25 C :   -0.027916
  26 H :    0.016891
  27 H :    0.030921
  28 C :   -0.066097
  29 H :    0.030240
  30 H :    0.029800
  31 H :    0.016123
  32 H :    0.043846
  33 H :    0.020134

  Mayer bond orders larger than 0.100000
B(  0-S ,  1-C ) :   1.1271 B(  0-S ,  4-C ) :   1.1352 B(  1-C ,  2-C ) :   1.6156
B(  1-C , 32-H ) :   0.9619 B(  2-C ,  3-C ) :   1.2285 B(  2-C ,  6-C ) :   1.0260
B(  3-C ,  4-C ) :   1.5796 B(  3-C ,  5-H ) :   1.0030 B(  4-C , 20-C ) :   1.0473
B(  6-C ,  7-H ) :   0.9447 B(  6-C ,  8-H ) :   0.9347 B(  6-C ,  9-C ) :   1.0775
B(  9-C , 10-H ) :   0.9540 B(  9-C , 11-H ) :   0.9524 B(  9-C , 12-C ) :   1.0849
B( 12-C , 13-H ) :   0.9718 B( 12-C , 14-H ) :   0.9719 B( 12-C , 15-H ) :   0.9704
B( 16-S , 17-C ) :   1.1499 B( 16-S , 20-C ) :   1.1863 B( 17-C , 18-C ) :   1.5787
B( 17-C , 20-C ) :   0.1179 B( 17-C , 33-H ) :   0.9778 B( 18-C , 19-C ) :   1.2803
B( 18-C , 21-H ) :   0.9803 B( 19-C , 20-C ) :   1.5233 B( 19-C , 22-C ) :   1.0469
B( 22-C , 23-H ) :   0.9367 B( 22-C , 24-H ) :   0.9350 B( 22-C , 25-C ) :   1.0543
B( 25-C , 26-H ) :   0.9579 B( 25-C , 27-H ) :   0.9556 B( 25-C , 28-C ) :   1.0865
B( 28-C , 29-H ) :   0.9679 B( 28-C , 30-H ) :   0.9737 B( 28-C , 31-H ) :   0.9726

Dispersion correction           -0.014327824
FINAL SINGLE POINT ENERGY     -1339.871655388995

DIPOLE MOMENT
-------------
                                X             Y             Z
Electronic contribution:      5.27082      17.99689      14.79814
Nuclear contribution   :     -5.31644     -18.62589     -15.18159
                        -----------------------------------------
Total Dipole Moment    :     -0.04562      -0.62900      -0.38345
                        -----------------------------------------
Magnitude (a.u.)       :      0.73807
Magnitude (Debye)      :      1.87604

Rotational constants in cm-1:     0.017083     0.008898     0.007542
Rotational constants in MHz :   512.149511   266.746488   226.105301

                             ****ORCA TERMINATED NORMALLY****
TOTAL RUN TIME: 0 days 0 hours 0 minutes 32 seconds 48 msec
