                         Program Version 4.2.1 -  RELEASE  -
|  1> ! wB97X-D3 SP def2-SVP
|  2> %pal
|  3> nprocs 16
|  4> end
|  5>
|  6> * xyz 0 1
|  7> S 	 -22.2666 	 -0.374315 	 78.3227
|  8> C 	 -20.6033 	 -0.702741 	 78.0651
|  9> C 	 -20.21 	 -0.244108 	 76.7873
| 10> C 	 -21.3287 	 0.166563 	 75.9566
| 11> C 	 -22.4804 	 0.154203 	 76.6705
| 12> H 	 -21.3014 	 0.477375 	 74.9527
| 13> C 	 -18.7103 	 -0.221471 	 76.3395
| 14> H 	 -18.1503 	 -0.218495 	 77.1916
| 15> H 	 -18.422 	 0.760014 	 75.9611
| 16> C 	 -18.2571 	 -1.29819 	 75.3242
| 17> H 	 -18.9029 	 -1.16336 	 74.4879
| 18> H 	 -17.17 	 -1.23858 	 75.1047
| 19> C 	 -18.5318 	 -2.69263 	 75.8177
| 20> H 	 -19.5533 	 -2.96204 	 76.0482
| 21> H 	 -18.0599 	 -3.45903 	 75.1806
| 22> H 	 -18.0779 	 -2.73112 	 76.7936
| 23> S 	 -24.6872 	 1.74252 	 76.7649
| 24> C 	 -25.8844 	 1.73197 	 75.4957
| 25> C 	 -25.5205 	 0.776002 	 74.5587
| 26> C 	 -24.3748 	 0.0874313 	 74.9289
| 27> C 	 -23.8041 	 0.437961 	 76.1758
| 28> H 	 -26.0499 	 0.674775 	 73.6616
| 29> C 	 -24.0132 	 -1.09127 	 74.0944
| 30> H 	 -23.0871 	 -0.858446 	 73.5593
| 31> H 	 -24.7898 	 -1.19477 	 73.3295
| 32> C 	 -23.9294 	 -2.43487 	 74.7108
| 33> H 	 -24.9303 	 -2.61756 	 75.0943
| 34> H 	 -23.2722 	 -2.54986 	 75.5459
| 35> C 	 -23.7047 	 -3.53512 	 73.6285
| 36> H 	 -22.9152 	 -3.25231 	 73.0052
| 37> H 	 -24.5312 	 -3.70576 	 72.9821
| 38> H 	 -23.3705 	 -4.55339 	 74.0497
| 39> H 	 -19.9732 	 -0.915052 	 78.7937
| 40> H 	 -26.6184 	 2.47003 	 75.2753
| 41> *
| 42>
| 43>                          ****END OF INPUT****

CARTESIAN COORDINATES (ANGSTROEM)
---------------------------------
  S    -22.266600   -0.374315   78.322700
  C    -20.603300   -0.702741   78.065100
  C    -20.210000   -0.244108   76.787300
  C    -21.328700    0.166563   75.956600
  C    -22.480400    0.154203   76.670500
  H    -21.301400    0.477375   74.952700
  C    -18.710300   -0.221471   76.339500
  H    -18.150300   -0.218495   77.191600
  H    -18.422000    0.760014   75.961100
  C    -18.257100   -1.298190   75.324200
  H    -18.902900   -1.163360   74.487900
  H    -17.170000   -1.238580   75.104700
  C    -18.531800   -2.692630   75.817700
  H    -19.553300   -2.962040   76.048200
  H    -18.059900   -3.459030   75.180600
  H    -18.077900   -2.731120   76.793600
  S    -24.687200    1.742520   76.764900
  C    -25.884400    1.731970   75.495700
  C    -25.520500    0.776002   74.558700
  C    -24.374800    0.087431   74.928900
  C    -23.804100    0.437961   76.175800
  H    -26.049900    0.674775   73.661600
  C    -24.013200   -1.091270   74.094400
  H    -23.087100   -0.858446   73.559300
  H    -24.789800   -1.194770   73.329500
  C    -23.929400   -2.434870   74.710800
  H    -24.930300   -2.617560   75.094300
  H    -23.272200   -2.549860   75.545900
  C    -23.704700   -3.535120   73.628500
  H    -22.915200   -3.252310   73.005200
  H    -24.531200   -3.705760   72.982100
  H    -23.370500   -4.553390   74.049700
  H    -19.973200   -0.915052   78.793700
  H    -26.618400    2.470030   75.275300

 Total Charge           Charge          ....    0
 Multiplicity           Mult            ....    1
 Number of Electrons    NEL             ....  134
 Basis Dimension        Dim             ....  322

ORBITAL ENERGIES
----------------

  NO   OCC          E(Eh)            E(eV)
   0   2.0000     -88.967694     -2420.9340
   1   2.0000     -88.966742     -2420.9081
   2   2.0000     -10.328837      -281.0619
   3   2.0000     -10.321280      -280.8563
   4   2.0000     -10.315162      -280.6898
   5   2.0000     -10.311451      -280.5889
   6   2.0000     -10.308137      -280.4987
   7   2.0000     -10.295769      -280.1621
   8   2.0000     -10.294666      -280.1321
   9   2.0000     -10.287304      -279.9318
  10   2.0000     -10.286435      -279.9081
  11   2.0000     -10.285258      -279.8761
  12   2.0000     -10.282063      -279.7891
  13   2.0000     -10.276355      -279.6338
  14   2.0000     -10.273895      -279.5669
  15   2.0000     -10.268338      -279.4157
  16   2.0000      -8.083428      -219.9613
  17   2.0000      -8.082307      -219.9308
  18   2.0000      -6.041756      -164.4045
  19   2.0000      -6.040698      -164.3758
  20   2.0000      -6.037410      -164.2863
  21   2.0000      -6.036674      -164.2663
  22   2.0000      -6.034695      -164.2124
  23   2.0000      -6.033166      -164.1708
  24   2.0000      -1.017223       -27.6801
  25   2.0000      -0.991620       -26.9834
  26   2.0000      -0.915627       -24.9155
  27   2.0000      -0.911331       -24.7986
  28   2.0000      -0.878766       -23.9124
  29   2.0000      -0.855005       -23.2659
  30   2.0000      -0.846985       -23.0476
  31   2.0000      -0.820433       -22.3251
  32   2.0000      -0.783522       -21.3207
  33   2.0000      -0.770053       -20.9542
  34   2.0000      -0.714922       -19.4540
  35   2.0000      -0.698788       -19.0150
  36   2.0000      -0.693581       -18.8733
  37   2.0000      -0.668950       -18.2030
  38   2.0000      -0.654536       -17.8108
  39   2.0000      -0.626537       -17.0489
  40   2.0000      -0.597027       -16.2459
  41   2.0000      -0.577200       -15.7064
  42   2.0000      -0.569764       -15.5041
  43   2.0000      -0.554403       -15.0861
  44   2.0000      -0.545945       -14.8559
  45   2.0000      -0.525628       -14.3031
  46   2.0000      -0.522820       -14.2267
  47   2.0000      -0.512154       -13.9364
  48   2.0000      -0.506713       -13.7884
  49   2.0000      -0.503373       -13.6975
  50   2.0000      -0.492112       -13.3911
  51   2.0000      -0.486145       -13.2287
  52   2.0000      -0.472253       -12.8507
  53   2.0000      -0.463481       -12.6120
  54   2.0000      -0.459306       -12.4984
  55   2.0000      -0.451013       -12.2727
  56   2.0000      -0.445472       -12.1219
  57   2.0000      -0.434522       -11.8240
  58   2.0000      -0.433233       -11.7889
  59   2.0000      -0.422181       -11.4881
  60   2.0000      -0.415780       -11.3139
  61   2.0000      -0.414615       -11.2823
  62   2.0000      -0.410549       -11.1716
  63   2.0000      -0.353362        -9.6155
  64   2.0000      -0.335011        -9.1161
  65   2.0000      -0.326994        -8.8980
  66   2.0000      -0.293820        -7.9952
  67   0.0000       0.029605         0.8056
  68   0.0000       0.065454         1.7811
  69   0.0000       0.111802         3.0423
  70   0.0000       0.126289         3.4365
  71   0.0000       0.132230         3.5982

MULLIKEN ATOMIC CHARGES
-----------------------
   0 S :    0.116474
   1 C :   -0.043513
   2 C :   -0.137126
   3 C :    0.051693
   4 C :   -0.162425
   5 H :    0.002851
   6 C :    0.099615
   7 H :   -0.015243
   8 H :    0.022771
   9 C :   -0.045477
  10 H :    0.021145
  11 H :    0.043244
  12 C :   -0.057753
  13 H :    0.038183
  14 H :    0.038211
  15 H :    0.005216
  16 S :    0.119477
  17 C :   -0.079996
  18 C :   -0.030449
  19 C :   -0.057903
  20 C :   -0.099270
  21 H :    0.002744
  22 C :    0.054312
  23 H :    0.017376
  24 H :    0.006825
  25 C :   -0.033586
  26 H :    0.020050
  27 H :    0.034404
  28 C :   -0.053360
  29 H :    0.009271
  30 H :    0.026068
  31 H :    0.039968
  32 H :   -0.003861
  33 H :    0.050067
Sum of atomic charges:    0.0000000

LOEWDIN ATOMIC CHARGES
----------------------
   0 S :    0.422639
   1 C :   -0.186980
   2 C :   -0.044675
   3 C :   -0.052514
   4 C :   -0.190786
   5 H :    0.028557
   6 C :   -0.027783
   7 H :    0.012410
   8 H :    0.032334
   9 C :   -0.036496
  10 H :    0.018377
  11 H :    0.033095
  12 C :   -0.070447
  13 H :    0.024199
  14 H :    0.027895
  15 H :    0.019022
  16 S :    0.456754
  17 C :   -0.188384
  18 C :   -0.065548
  19 C :   -0.061280
  20 C :   -0.235042
  21 H :    0.025309
  22 C :   -0.036834
  23 H :    0.024792
  24 H :    0.030251
  25 C :   -0.035181
  26 H :    0.025850
  27 H :    0.021072
  28 C :   -0.063049
  29 H :    0.013069
  30 H :    0.019310
  31 H :    0.036176
  32 H :   -0.003587
  33 H :    0.027476

  Mayer bond orders larger than 0.100000
B(  0-S ,  1-C ) :   1.1477 B(  0-S ,  4-C ) :   1.1536 B(  1-C ,  2-C ) :   1.6014
B(  1-C , 32-H ) :   0.9834 B(  2-C ,  3-C ) :   1.2147 B(  2-C ,  6-C ) :   1.0214
B(  3-C ,  4-C ) :   1.5995 B(  3-C ,  5-H ) :   1.0069 B(  4-C , 20-C ) :   1.0050
B(  6-C ,  7-H ) :   0.9339 B(  6-C ,  8-H ) :   0.9421 B(  6-C ,  9-C ) :   1.0664
B(  9-C , 10-H ) :   0.9574 B(  9-C , 11-H ) :   0.9543 B(  9-C , 12-C ) :   1.0803
B( 12-C , 13-H ) :   0.9714 B( 12-C , 14-H ) :   0.9735 B( 12-C , 15-H ) :   0.9730
B( 16-S , 17-C ) :   1.1967 B( 16-S , 20-C ) :   1.1774 B( 17-C , 18-C ) :   1.5260
B( 17-C , 20-C ) :   0.1098 B( 17-C , 33-H ) :   0.9698 B( 18-C , 19-C ) :   1.3376
B( 18-C , 21-H ) :   0.9994 B( 19-C , 20-C ) :   1.4952 B( 19-C , 22-C ) :   1.0489
B( 22-C , 23-H ) :   0.9129 B( 22-C , 24-H ) :   0.9451 B( 22-C , 25-C ) :   1.0714
B( 25-C , 26-H ) :   0.9531 B( 25-C , 27-H ) :   0.9550 B( 25-C , 28-C ) :   1.0759
B( 28-C , 29-H ) :   0.9755 B( 28-C , 30-H ) :   0.9764 B( 28-C , 31-H ) :   0.9752

Dispersion correction           -0.014990119
FINAL SINGLE POINT ENERGY     -1339.856567163828

DIPOLE MOMENT
-------------
                                X             Y             Z
Electronic contribution:    -14.79280      19.34846      16.59362
Nuclear contribution   :     15.09628     -19.36513     -17.12823
                        -----------------------------------------
Total Dipole Moment    :      0.30348      -0.01667      -0.53460
                        -----------------------------------------
Magnitude (a.u.)       :      0.61496
Magnitude (Debye)      :      1.56311

Rotational constants in cm-1:     0.018832     0.009529     0.007376
Rotational constants in MHz :   564.565906   285.658777   221.133127

                             ****ORCA TERMINATED NORMALLY****
TOTAL RUN TIME: 0 days 0 hours 0 minutes 36 seconds 40 msec
