                         Program Version 4.2.1 -  RELEASE  -
|  1> ! wB97X-D3 SP def2-SVP
|  2> %pal
|  3> nprocs 16
|  4> end
|  5>
|  6> * xyz 0 1
|  7> S 	 24.2292 	 -9.08485 	 77.3524
|  8> C 	 25.6385 	 -8.62127 	 76.2753
|  9> C 	 26.8469 	 -9.25796 	 76.7033
| 10> C 	 26.628 	 -9.80917 	 77.9809
| 11> C 	 25.2999 	 -9.75927 	 78.48
| 12> H 	 27.3558 	 -10.3556 	 78.5842
| 13> C 	 28.2251 	 -9.13412 	 76.0729
| 14> H 	 28.3409 	 -8.07745 	 76.0458
| 15> H 	 28.2319 	 -9.43329 	 75.0369
| 16> C 	 29.3304 	 -9.7696 	 76.8671
| 17> H 	 29.4101 	 -9.2552 	 77.835
| 18> H 	 29.1057 	 -10.8562 	 76.9956
| 19> C 	 30.736 	 -9.67289 	 76.209
| 20> H 	 31.5073 	 -10.1497 	 76.7212
| 21> H 	 30.7574 	 -10.1067 	 75.1636
| 22> H 	 31.1812 	 -8.67116 	 76.0991
| 23> S 	 24.0649 	 -11.9227 	 79.5927
| 24> C 	 24.4539 	 -12.3334 	 81.2618
| 25> C 	 24.9789 	 -11.237 	 81.873
| 26> C 	 25.3061 	 -10.1336 	 80.9922
| 27> C 	 24.8494 	 -10.3445 	 79.7223
| 28> H 	 25.2283 	 -11.3461 	 82.9103
| 29> C 	 26.1543 	 -8.95145 	 81.4549
| 30> H 	 25.5638 	 -8.3784 	 82.1509
| 31> H 	 26.4191 	 -8.37445 	 80.5634
| 32> C 	 27.5014 	 -9.31887 	 82.1493
| 33> H 	 27.928 	 -10.2662 	 81.8369
| 34> H 	 27.1539 	 -9.5535 	 83.1224
| 35> C 	 28.5608 	 -8.21029 	 82.1029
| 36> H 	 28.7631 	 -7.81832 	 81.1007
| 37> H 	 29.5152 	 -8.55715 	 82.4965
| 38> H 	 28.2365 	 -7.37851 	 82.6615
| 39> H 	 25.6825 	 -7.83462 	 75.5253
| 40> H 	 24.1917 	 -13.2877 	 81.6789
| 41> *
| 42>
| 43>                          ****END OF INPUT****

CARTESIAN COORDINATES (ANGSTROEM)
---------------------------------
  S     24.229200   -9.084850   77.352400
  C     25.638500   -8.621270   76.275300
  C     26.846900   -9.257960   76.703300
  C     26.628000   -9.809170   77.980900
  C     25.299900   -9.759270   78.480000
  H     27.355800  -10.355600   78.584200
  C     28.225100   -9.134120   76.072900
  H     28.340900   -8.077450   76.045800
  H     28.231900   -9.433290   75.036900
  C     29.330400   -9.769600   76.867100
  H     29.410100   -9.255200   77.835000
  H     29.105700  -10.856200   76.995600
  C     30.736000   -9.672890   76.209000
  H     31.507300  -10.149700   76.721200
  H     30.757400  -10.106700   75.163600
  H     31.181200   -8.671160   76.099100
  S     24.064900  -11.922700   79.592700
  C     24.453900  -12.333400   81.261800
  C     24.978900  -11.237000   81.873000
  C     25.306100  -10.133600   80.992200
  C     24.849400  -10.344500   79.722300
  H     25.228300  -11.346100   82.910300
  C     26.154300   -8.951450   81.454900
  H     25.563800   -8.378400   82.150900
  H     26.419100   -8.374450   80.563400
  C     27.501400   -9.318870   82.149300
  H     27.928000  -10.266200   81.836900
  H     27.153900   -9.553500   83.122400
  C     28.560800   -8.210290   82.102900
  H     28.763100   -7.818320   81.100700
  H     29.515200   -8.557150   82.496500
  H     28.236500   -7.378510   82.661500
  H     25.682500   -7.834620   75.525300
  H     24.191700  -13.287700   81.678900

 Total Charge           Charge          ....    0
 Multiplicity           Mult            ....    1
 Number of Electrons    NEL             ....  134
 Basis Dimension        Dim             ....  322

ORBITAL ENERGIES
----------------

  NO   OCC          E(Eh)            E(eV)
   0   2.0000     -88.970560     -2421.0120
   1   2.0000     -88.956988     -2420.6427
   2   2.0000     -10.325223      -280.9636
   3   2.0000     -10.321279      -280.8563
   4   2.0000     -10.319709      -280.8136
   5   2.0000     -10.318405      -280.7781
   6   2.0000     -10.306736      -280.4605
   7   2.0000     -10.304990      -280.4130
   8   2.0000     -10.295739      -280.1613
   9   2.0000     -10.293011      -280.0871
  10   2.0000     -10.291971      -280.0588
  11   2.0000     -10.291260      -280.0394
  12   2.0000     -10.290642      -280.0226
  13   2.0000     -10.283360      -279.8244
  14   2.0000     -10.281726      -279.7800
  15   2.0000     -10.277311      -279.6598
  16   2.0000      -8.084486      -219.9900
  17   2.0000      -8.072091      -219.6528
  18   2.0000      -6.042894      -164.4355
  19   2.0000      -6.039047      -164.3308
  20   2.0000      -6.035462      -164.2333
  21   2.0000      -6.030728      -164.1044
  22   2.0000      -6.026566      -163.9912
  23   2.0000      -6.022647      -163.8846
  24   2.0000      -1.004726       -27.3400
  25   2.0000      -0.978420       -26.6242
  26   2.0000      -0.918585       -24.9960
  27   2.0000      -0.906281       -24.6612
  28   2.0000      -0.869044       -23.6479
  29   2.0000      -0.849666       -23.1206
  30   2.0000      -0.842346       -22.9214
  31   2.0000      -0.807777       -21.9807
  32   2.0000      -0.787553       -21.4304
  33   2.0000      -0.775582       -21.1047
  34   2.0000      -0.715063       -19.4579
  35   2.0000      -0.705164       -19.1885
  36   2.0000      -0.690705       -18.7950
  37   2.0000      -0.656623       -17.8676
  38   2.0000      -0.638104       -17.3637
  39   2.0000      -0.613139       -16.6844
  40   2.0000      -0.596866       -16.2415
  41   2.0000      -0.578112       -15.7312
  42   2.0000      -0.568520       -15.4702
  43   2.0000      -0.563458       -15.3325
  44   2.0000      -0.528567       -14.3830
  45   2.0000      -0.524014       -14.2592
  46   2.0000      -0.520438       -14.1618
  47   2.0000      -0.511396       -13.9158
  48   2.0000      -0.501500       -13.6465
  49   2.0000      -0.495744       -13.4899
  50   2.0000      -0.486227       -13.2309
  51   2.0000      -0.484634       -13.1876
  52   2.0000      -0.475136       -12.9291
  53   2.0000      -0.466417       -12.6918
  54   2.0000      -0.457182       -12.4405
  55   2.0000      -0.447221       -12.1695
  56   2.0000      -0.443414       -12.0659
  57   2.0000      -0.435699       -11.8560
  58   2.0000      -0.433038       -11.7836
  59   2.0000      -0.427968       -11.6456
  60   2.0000      -0.425444       -11.5769
  61   2.0000      -0.421270       -11.4633
  62   2.0000      -0.409956       -11.1555
  63   2.0000      -0.337563        -9.1856
  64   2.0000      -0.334547        -9.1035
  65   2.0000      -0.323337        -8.7984
  66   2.0000      -0.290153        -7.8955
  67   0.0000       0.034350         0.9347
  68   0.0000       0.054898         1.4939
  69   0.0000       0.105240         2.8637
  70   0.0000       0.121532         3.3071
  71   0.0000       0.126907         3.4533

MULLIKEN ATOMIC CHARGES
-----------------------
   0 S :    0.126803
   1 C :   -0.137200
   2 C :   -0.094019
   3 C :    0.010689
   4 C :   -0.173849
   5 H :    0.015214
   6 C :    0.101809
   7 H :    0.025163
   8 H :    0.031805
   9 C :   -0.111911
  10 H :    0.040687
  11 H :    0.052987
  12 C :   -0.035562
  13 H :    0.017975
  14 H :    0.032395
  15 H :    0.026202
  16 S :    0.079052
  17 C :   -0.098115
  18 C :   -0.018178
  19 C :   -0.052089
  20 C :   -0.129066
  21 H :    0.015621
  22 C :    0.081304
  23 H :    0.036750
  24 H :    0.029959
  25 C :   -0.082420
  26 H :    0.026494
  27 H :    0.014434
  28 C :   -0.023173
  29 H :    0.030512
  30 H :    0.033140
  31 H :    0.021215
  32 H :    0.047120
  33 H :    0.058251
Sum of atomic charges:   -0.0000000

LOEWDIN ATOMIC CHARGES
----------------------
   0 S :    0.417424
   1 C :   -0.193199
   2 C :   -0.049763
   3 C :   -0.071782
   4 C :   -0.217783
   5 H :    0.030103
   6 C :   -0.031176
   7 H :    0.034698
   8 H :    0.033058
   9 C :   -0.042890
  10 H :    0.029688
  11 H :    0.033588
  12 C :   -0.070524
  13 H :    0.017480
  14 H :    0.030553
  15 H :    0.026325
  16 S :    0.379797
  17 C :   -0.165201
  18 C :   -0.074620
  19 C :   -0.047692
  20 C :   -0.201762
  21 H :    0.028010
  22 C :   -0.024003
  23 H :    0.032277
  24 H :    0.029009
  25 C :   -0.040163
  26 H :    0.021261
  27 H :    0.016961
  28 C :   -0.058668
  29 H :    0.026461
  30 H :    0.028523
  31 H :    0.019957
  32 H :    0.026011
  33 H :    0.028042

  Mayer bond orders larger than 0.100000
B(  0-S ,  1-C ) :   1.1440 B(  0-S ,  4-C ) :   1.1769 B(  1-C ,  2-C ) :   1.5686
B(  1-C ,  4-C ) :   0.1221 B(  1-C , 32-H ) :   0.9719 B(  2-C ,  3-C ) :   1.2942
B(  2-C ,  6-C ) :   0.9957 B(  3-C ,  4-C ) :   1.5164 B(  3-C ,  5-H ) :   0.9849
B(  4-C , 20-C ) :   1.0013 B(  6-C ,  7-H ) :   0.9266 B(  6-C ,  8-H ) :   0.9328
B(  6-C ,  9-C ) :   1.1063 B(  9-C , 10-H ) :   0.9402 B(  9-C , 11-H ) :   0.9512
B(  9-C , 12-C ) :   1.0827 B( 12-C , 13-H ) :   0.9729 B( 12-C , 14-H ) :   0.9733
B( 12-C , 15-H ) :   0.9735 B( 16-S , 17-C ) :   1.1493 B( 16-S , 20-C ) :   1.1218
B( 17-C , 18-C ) :   1.6336 B( 17-C , 33-H ) :   0.9723 B( 18-C , 19-C ) :   1.1883
B( 18-C , 21-H ) :   0.9946 B( 19-C , 20-C ) :   1.6530 B( 19-C , 22-C ) :   1.0472
B( 22-C , 23-H ) :   0.9342 B( 22-C , 24-H ) :   0.9412 B( 22-C , 25-C ) :   1.0390
B( 25-C , 26-H ) :   0.9658 B( 25-C , 27-H ) :   0.9517 B( 25-C , 28-C ) :   1.0879
B( 28-C , 29-H ) :   0.9754 B( 28-C , 30-H ) :   0.9746 B( 28-C , 31-H ) :   0.9737

Dispersion correction           -0.014244979
FINAL SINGLE POINT ENERGY     -1339.862822512416

DIPOLE MOMENT
-------------
                                X             Y             Z
Electronic contribution:    -30.56460      -8.24564      -4.19414
Nuclear contribution   :     31.44251       8.38318       4.51355
                        -----------------------------------------
Total Dipole Moment    :      0.87791       0.13754       0.31942
                        -----------------------------------------
Magnitude (a.u.)       :      0.94428
Magnitude (Debye)      :      2.40018

Rotational constants in cm-1:     0.015350     0.009664     0.007232
Rotational constants in MHz :   460.180873   289.731890   216.823710

                             ****ORCA TERMINATED NORMALLY****
TOTAL RUN TIME: 0 days 0 hours 0 minutes 30 seconds 278 msec
