                         Program Version 4.2.1 -  RELEASE  -
|  1> ! wB97X-D3 SP def2-SVP
|  2> %pal
|  3> nprocs 16
|  4> end
|  5>
|  6> * xyz 0 1
|  7> S 	 33.0237 	 4.74787 	 71.9638
|  8> C 	 31.3238 	 5.28606 	 71.9669
|  9> C 	 30.592 	 4.60383 	 72.9305
| 10> C 	 31.3645 	 3.61761 	 73.6369
| 11> C 	 32.7085 	 3.67176 	 73.341
| 12> H 	 30.9178 	 2.86979 	 74.377
| 13> C 	 29.0795 	 4.76175 	 73.1974
| 14> H 	 28.6542 	 5.73191 	 72.8137
| 15> H 	 29.0217 	 4.76073 	 74.2443
| 16> C 	 28.1425 	 3.63805 	 72.575
| 17> H 	 28.3275 	 2.5622 	 72.9846
| 18> H 	 27.1933 	 3.96146 	 72.8909
| 19> C 	 28.1634 	 3.58132 	 71.0468
| 20> H 	 27.6156 	 2.67059 	 70.7942
| 21> H 	 27.7464 	 4.43792 	 70.4671
| 22> H 	 29.2551 	 3.47995 	 70.7896
| 23> S 	 34.5923 	 1.85228 	 72.5647
| 24> C 	 35.4611 	 1.03901 	 73.7621
| 25> C 	 34.9169 	 1.14148 	 75.0303
| 26> C 	 33.8862 	 2.16047 	 75.0547
| 27> C 	 33.6619 	 2.69733 	 73.7838
| 28> H 	 35.1832 	 0.510697 	 75.9167
| 29> C 	 33.1817 	 2.49155 	 76.3828
| 30> H 	 33.0612 	 1.46811 	 76.8528
| 31> H 	 32.1634 	 2.88502 	 76.107
| 32> C 	 33.9689 	 3.50866 	 77.2501
| 33> H 	 33.9144 	 4.52144 	 76.9096
| 34> H 	 35.0592 	 3.22716 	 77.1535
| 35> C 	 33.4335 	 3.58557 	 78.6791
| 36> H 	 33.8999 	 4.34431 	 79.2628
| 37> H 	 33.4497 	 2.69993 	 79.3308
| 38> H 	 32.383 	 3.98589 	 78.6629
| 39> H 	 30.9456 	 6.11746 	 71.3666
| 40> H 	 36.2706 	 0.430957 	 73.5909
| 41> *
| 42>
| 43>                          ****END OF INPUT****

CARTESIAN COORDINATES (ANGSTROEM)
---------------------------------
  S     33.023700    4.747870   71.963800
  C     31.323800    5.286060   71.966900
  C     30.592000    4.603830   72.930500
  C     31.364500    3.617610   73.636900
  C     32.708500    3.671760   73.341000
  H     30.917800    2.869790   74.377000
  C     29.079500    4.761750   73.197400
  H     28.654200    5.731910   72.813700
  H     29.021700    4.760730   74.244300
  C     28.142500    3.638050   72.575000
  H     28.327500    2.562200   72.984600
  H     27.193300    3.961460   72.890900
  C     28.163400    3.581320   71.046800
  H     27.615600    2.670590   70.794200
  H     27.746400    4.437920   70.467100
  H     29.255100    3.479950   70.789600
  S     34.592300    1.852280   72.564700
  C     35.461100    1.039010   73.762100
  C     34.916900    1.141480   75.030300
  C     33.886200    2.160470   75.054700
  C     33.661900    2.697330   73.783800
  H     35.183200    0.510697   75.916700
  C     33.181700    2.491550   76.382800
  H     33.061200    1.468110   76.852800
  H     32.163400    2.885020   76.107000
  C     33.968900    3.508660   77.250100
  H     33.914400    4.521440   76.909600
  H     35.059200    3.227160   77.153500
  C     33.433500    3.585570   78.679100
  H     33.899900    4.344310   79.262800
  H     33.449700    2.699930   79.330800
  H     32.383000    3.985890   78.662900
  H     30.945600    6.117460   71.366600
  H     36.270600    0.430957   73.590900

 Total Charge           Charge          ....    0
 Multiplicity           Mult            ....    1
 Number of Electrons    NEL             ....  134
 Basis Dimension        Dim             ....  322

ORBITAL ENERGIES
----------------

  NO   OCC          E(Eh)            E(eV)
   0   2.0000     -88.967495     -2420.9286
   1   2.0000     -88.965624     -2420.8777
   2   2.0000     -10.329441      -281.0784
   3   2.0000     -10.322050      -280.8773
   4   2.0000     -10.319470      -280.8071
   5   2.0000     -10.306697      -280.4595
   6   2.0000     -10.305073      -280.4153
   7   2.0000     -10.303131      -280.3624
   8   2.0000     -10.301795      -280.3261
   9   2.0000     -10.300975      -280.3038
  10   2.0000     -10.297554      -280.2107
  11   2.0000     -10.296313      -280.1769
  12   2.0000     -10.294431      -280.1257
  13   2.0000     -10.290311      -280.0136
  14   2.0000     -10.280256      -279.7400
  15   2.0000     -10.277940      -279.6770
  16   2.0000      -8.081532      -219.9097
  17   2.0000      -8.081275      -219.9027
  18   2.0000      -6.039888      -164.3537
  19   2.0000      -6.039832      -164.3522
  20   2.0000      -6.036042      -164.2490
  21   2.0000      -6.036025      -164.2486
  22   2.0000      -6.032265      -164.1463
  23   2.0000      -6.031870      -164.1355
  24   2.0000      -1.007710       -27.4212
  25   2.0000      -0.981108       -26.6973
  26   2.0000      -0.904699       -24.6181
  27   2.0000      -0.904104       -24.6019
  28   2.0000      -0.868721       -23.6391
  29   2.0000      -0.852538       -23.1987
  30   2.0000      -0.842341       -22.9213
  31   2.0000      -0.808809       -22.0088
  32   2.0000      -0.781106       -21.2550
  33   2.0000      -0.771023       -20.9806
  34   2.0000      -0.706559       -19.2264
  35   2.0000      -0.694585       -18.9006
  36   2.0000      -0.691411       -18.8142
  37   2.0000      -0.660889       -17.9837
  38   2.0000      -0.633714       -17.2442
  39   2.0000      -0.617045       -16.7907
  40   2.0000      -0.592141       -16.1130
  41   2.0000      -0.561996       -15.2927
  42   2.0000      -0.557714       -15.1762
  43   2.0000      -0.550165       -14.9708
  44   2.0000      -0.537692       -14.6313
  45   2.0000      -0.518238       -14.1020
  46   2.0000      -0.515873       -14.0376
  47   2.0000      -0.514474       -13.9995
  48   2.0000      -0.503995       -13.7144
  49   2.0000      -0.496721       -13.5165
  50   2.0000      -0.487668       -13.2701
  51   2.0000      -0.481332       -13.0977
  52   2.0000      -0.463220       -12.6049
  53   2.0000      -0.461904       -12.5690
  54   2.0000      -0.457219       -12.4416
  55   2.0000      -0.452323       -12.3083
  56   2.0000      -0.439964       -11.9720
  57   2.0000      -0.437766       -11.9122
  58   2.0000      -0.433802       -11.8043
  59   2.0000      -0.426397       -11.6029
  60   2.0000      -0.420037       -11.4298
  61   2.0000      -0.413851       -11.2615
  62   2.0000      -0.410344       -11.1660
  63   2.0000      -0.350295        -9.5320
  64   2.0000      -0.330776        -9.0009
  65   2.0000      -0.327759        -8.9188
  66   2.0000      -0.287211        -7.8154
  67   0.0000       0.025601         0.6966
  68   0.0000       0.074438         2.0256
  69   0.0000       0.100230         2.7274
  70   0.0000       0.114813         3.1242
  71   0.0000       0.135448         3.6857

MULLIKEN ATOMIC CHARGES
-----------------------
   0 S :    0.094824
   1 C :   -0.127835
   2 C :   -0.090853
   3 C :   -0.013535
   4 C :   -0.143459
   5 H :    0.057854
   6 C :    0.063763
   7 H :    0.028524
   8 H :    0.020439
   9 C :   -0.085556
  10 H :    0.046546
  11 H :    0.020945
  12 C :   -0.078702
  13 H :    0.039699
  14 H :    0.040120
  15 H :    0.051692
  16 S :    0.125244
  17 C :   -0.051340
  18 C :   -0.054845
  19 C :   -0.073188
  20 C :   -0.147766
  21 H :    0.038574
  22 C :    0.048030
  23 H :    0.041991
  24 H :    0.017756
  25 C :   -0.053638
  26 H :    0.033746
  27 H :    0.038139
  28 C :   -0.050713
  29 H :    0.020753
  30 H :    0.034287
  31 H :    0.027661
  32 H :    0.057621
  33 H :    0.023219
Sum of atomic charges:   -0.0000000

LOEWDIN ATOMIC CHARGES
----------------------
   0 S :    0.377931
   1 C :   -0.191016
   2 C :   -0.065329
   3 C :   -0.066768
   4 C :   -0.187073
   5 H :    0.045525
   6 C :   -0.028405
   7 H :    0.034862
   8 H :    0.022037
   9 C :   -0.040178
  10 H :    0.033883
  11 H :    0.014568
  12 C :   -0.076601
  13 H :    0.028568
  14 H :    0.026847
  15 H :    0.033636
  16 S :    0.431584
  17 C :   -0.191082
  18 C :   -0.077012
  19 C :   -0.057223
  20 C :   -0.205875
  21 H :    0.039831
  22 C :   -0.035039
  23 H :    0.039213
  24 H :    0.028454
  25 C :   -0.040310
  26 H :    0.028781
  27 H :    0.030191
  28 C :   -0.074217
  29 H :    0.021388
  30 H :    0.023585
  31 H :    0.031716
  32 H :    0.032137
  33 H :    0.011393

  Mayer bond orders larger than 0.100000
B(  0-S ,  1-C ) :   1.1170 B(  0-S ,  4-C ) :   1.1379 B(  1-C ,  2-C ) :   1.6191
B(  1-C , 32-H ) :   0.9673 B(  2-C ,  3-C ) :   1.2326 B(  2-C ,  6-C ) :   1.0203
B(  3-C ,  4-C ) :   1.5845 B(  3-C ,  5-H ) :   0.9667 B(  4-C , 20-C ) :   1.0654
B(  6-C ,  7-H ) :   0.9477 B(  6-C ,  8-H ) :   0.9397 B(  6-C ,  9-C ) :   1.0627
B(  9-C , 10-H ) :   0.9585 B(  9-C , 11-H ) :   0.9559 B(  9-C , 12-C ) :   1.0682
B( 12-C , 13-H ) :   0.9735 B( 12-C , 14-H ) :   0.9752 B( 12-C , 15-H ) :   0.9746
B( 16-S , 17-C ) :   1.1710 B( 16-S , 20-C ) :   1.1405 B( 17-C , 18-C ) :   1.5944
B( 17-C , 33-H ) :   0.9761 B( 18-C , 19-C ) :   1.2512 B( 18-C , 21-H ) :   0.9814
B( 19-C , 20-C ) :   1.5974 B( 19-C , 22-C ) :   1.0322 B( 22-C , 23-H ) :   0.9441
B( 22-C , 24-H ) :   0.9267 B( 22-C , 25-C ) :   1.0575 B( 25-C , 26-H ) :   0.9516
B( 25-C , 27-H ) :   0.9599 B( 25-C , 28-C ) :   1.0807 B( 28-C , 29-H ) :   0.9729
B( 28-C , 30-H ) :   0.9778 B( 28-C , 31-H ) :   0.9689

Dispersion correction           -0.014045100
FINAL SINGLE POINT ENERGY     -1339.872229475856

DIPOLE MOMENT
-------------
                                X             Y             Z
Electronic contribution:     18.44767      -1.53573     -15.89546
Nuclear contribution   :    -18.93772       1.43666      16.34472
                        -----------------------------------------
Total Dipole Moment    :     -0.49004      -0.09907       0.44926
                        -----------------------------------------
Magnitude (a.u.)       :      0.67215
Magnitude (Debye)      :      1.70848

Rotational constants in cm-1:     0.017743     0.008502     0.006840
Rotational constants in MHz :   531.921381   254.884258   205.045382

                             ****ORCA TERMINATED NORMALLY****
TOTAL RUN TIME: 0 days 0 hours 0 minutes 29 seconds 864 msec
