                         Program Version 4.2.1 -  RELEASE  -
|  1> ! wB97X-D3 SP def2-SVP
|  2> %pal
|  3> nprocs 16
|  4> end
|  5>
|  6> * xyz 0 1
|  7> S 	 -31.8164 	 32.8389 	 42.1002
|  8> C 	 -30.6647 	 31.7812 	 42.9837
|  9> C 	 -31.0095 	 31.8278 	 44.3106
| 10> C 	 -31.9465 	 32.8999 	 44.652
| 11> C 	 -32.474 	 33.5722 	 43.5548
| 12> H 	 -32.3512 	 33.1102 	 45.6406
| 13> C 	 -30.4938 	 30.9335 	 45.3853
| 14> H 	 -29.9834 	 30.2049 	 44.7886
| 15> H 	 -31.3489 	 30.3896 	 45.875
| 16> C 	 -29.7165 	 31.592 	 46.4718
| 17> H 	 -28.8987 	 32.1864 	 46.0482
| 18> H 	 -30.3058 	 32.4194 	 46.9439
| 19> C 	 -29.1369 	 30.6422 	 47.529
| 20> H 	 -28.3288 	 31.0749 	 48.1413
| 21> H 	 -29.8783 	 30.4336 	 48.2591
| 22> H 	 -28.8631 	 29.638 	 47.1718
| 23> S 	 -35.2876 	 34.1029 	 43.5508
| 24> C 	 -35.7847 	 35.72 	 43.5386
| 25> C 	 -34.7351 	 36.6759 	 43.5371
| 26> C 	 -33.5191 	 36.0049 	 43.5303
| 27> C 	 -33.5628 	 34.5968 	 43.51
| 28> H 	 -34.8594 	 37.783 	 43.6163
| 29> C 	 -32.2873 	 36.7124 	 43.4609
| 30> H 	 -31.9582 	 36.8727 	 42.4266
| 31> H 	 -31.4586 	 36.044 	 43.7552
| 32> C 	 -32.1526 	 38.0142 	 44.3444
| 33> H 	 -32.7558 	 38.8227 	 43.8831
| 34> H 	 -31.1473 	 38.498 	 44.4071
| 35> C 	 -32.6601 	 37.8766 	 45.7903
| 36> H 	 -33.7494 	 37.6496 	 45.6608
| 37> H 	 -32.4199 	 38.7436 	 46.4082
| 38> H 	 -32.2261 	 37.0254 	 46.2213
| 39> H 	 -30.0172 	 31.0234 	 42.6382
| 40> H 	 -36.8334 	 35.9389 	 43.5895
| 41> *
| 42>
| 43>                          ****END OF INPUT****

CARTESIAN COORDINATES (ANGSTROEM)
---------------------------------
  S    -31.816400   32.838900   42.100200
  C    -30.664700   31.781200   42.983700
  C    -31.009500   31.827800   44.310600
  C    -31.946500   32.899900   44.652000
  C    -32.474000   33.572200   43.554800
  H    -32.351200   33.110200   45.640600
  C    -30.493800   30.933500   45.385300
  H    -29.983400   30.204900   44.788600
  H    -31.348900   30.389600   45.875000
  C    -29.716500   31.592000   46.471800
  H    -28.898700   32.186400   46.048200
  H    -30.305800   32.419400   46.943900
  C    -29.136900   30.642200   47.529000
  H    -28.328800   31.074900   48.141300
  H    -29.878300   30.433600   48.259100
  H    -28.863100   29.638000   47.171800
  S    -35.287600   34.102900   43.550800
  C    -35.784700   35.720000   43.538600
  C    -34.735100   36.675900   43.537100
  C    -33.519100   36.004900   43.530300
  C    -33.562800   34.596800   43.510000
  H    -34.859400   37.783000   43.616300
  C    -32.287300   36.712400   43.460900
  H    -31.958200   36.872700   42.426600
  H    -31.458600   36.044000   43.755200
  C    -32.152600   38.014200   44.344400
  H    -32.755800   38.822700   43.883100
  H    -31.147300   38.498000   44.407100
  C    -32.660100   37.876600   45.790300
  H    -33.749400   37.649600   45.660800
  H    -32.419900   38.743600   46.408200
  H    -32.226100   37.025400   46.221300
  H    -30.017200   31.023400   42.638200
  H    -36.833400   35.938900   43.589500

 Total Charge           Charge          ....    0
 Multiplicity           Mult            ....    1
 Number of Electrons    NEL             ....  134
 Basis Dimension        Dim             ....  322

ORBITAL ENERGIES
----------------

  NO   OCC          E(Eh)            E(eV)
   0   2.0000     -88.971331     -2421.0330
   1   2.0000     -88.962992     -2420.8061
   2   2.0000     -10.336287      -281.2647
   3   2.0000     -10.330511      -281.1075
   4   2.0000     -10.322186      -280.8810
   5   2.0000     -10.316494      -280.7261
   6   2.0000     -10.301785      -280.3258
   7   2.0000     -10.300033      -280.2781
   8   2.0000     -10.299012      -280.2504
   9   2.0000     -10.297766      -280.2165
  10   2.0000     -10.290913      -280.0300
  11   2.0000     -10.290520      -280.0193
  12   2.0000     -10.288915      -279.9756
  13   2.0000     -10.284991      -279.8688
  14   2.0000     -10.278330      -279.6876
  15   2.0000     -10.271992      -279.5151
  16   2.0000      -8.086217      -220.0372
  17   2.0000      -8.076915      -219.7840
  18   2.0000      -6.044435      -164.4774
  19   2.0000      -6.040578      -164.3725
  20   2.0000      -6.037407      -164.2862
  21   2.0000      -6.035718      -164.2402
  22   2.0000      -6.031452      -164.1242
  23   2.0000      -6.027448      -164.0152
  24   2.0000      -1.004433       -27.3320
  25   2.0000      -0.984514       -26.7900
  26   2.0000      -0.916870       -24.9493
  27   2.0000      -0.913601       -24.8603
  28   2.0000      -0.867676       -23.6107
  29   2.0000      -0.852352       -23.1937
  30   2.0000      -0.840360       -22.8674
  31   2.0000      -0.815398       -22.1881
  32   2.0000      -0.784270       -21.3411
  33   2.0000      -0.772955       -21.0332
  34   2.0000      -0.709653       -19.3106
  35   2.0000      -0.699561       -19.0360
  36   2.0000      -0.695706       -18.9311
  37   2.0000      -0.660167       -17.9641
  38   2.0000      -0.638561       -17.3761
  39   2.0000      -0.615365       -16.7449
  40   2.0000      -0.603392       -16.4191
  41   2.0000      -0.575738       -15.6666
  42   2.0000      -0.557755       -15.1773
  43   2.0000      -0.553866       -15.0715
  44   2.0000      -0.534571       -14.5464
  45   2.0000      -0.529505       -14.4086
  46   2.0000      -0.522888       -14.2285
  47   2.0000      -0.509379       -13.8609
  48   2.0000      -0.504971       -13.7410
  49   2.0000      -0.497763       -13.5448
  50   2.0000      -0.491412       -13.3720
  51   2.0000      -0.483266       -13.1503
  52   2.0000      -0.468210       -12.7406
  53   2.0000      -0.464536       -12.6407
  54   2.0000      -0.458624       -12.4798
  55   2.0000      -0.453513       -12.3407
  56   2.0000      -0.447259       -12.1705
  57   2.0000      -0.441633       -12.0174
  58   2.0000      -0.436791       -11.8857
  59   2.0000      -0.419850       -11.4247
  60   2.0000      -0.415293       -11.3007
  61   2.0000      -0.407590       -11.0911
  62   2.0000      -0.404300       -11.0016
  63   2.0000      -0.335469        -9.1286
  64   2.0000      -0.324999        -8.8437
  65   2.0000      -0.322370        -8.7721
  66   2.0000      -0.311684        -8.4814
  67   0.0000       0.040816         1.1107
  68   0.0000       0.046138         1.2555
  69   0.0000       0.104804         2.8519
  70   0.0000       0.122770         3.3408
  71   0.0000       0.126829         3.4512

MULLIKEN ATOMIC CHARGES
-----------------------
   0 S :    0.092917
   1 C :   -0.085056
   2 C :   -0.130136
   3 C :    0.042690
   4 C :   -0.170428
   5 H :    0.018290
   6 C :    0.093312
   7 H :   -0.000213
   8 H :    0.039686
   9 C :   -0.088345
  10 H :    0.025078
  11 H :    0.033309
  12 C :   -0.031409
  13 H :    0.038166
  14 H :    0.016255
  15 H :    0.031653
  16 S :    0.132711
  17 C :   -0.094773
  18 C :   -0.040998
  19 C :   -0.020927
  20 C :   -0.172665
  21 H :    0.045274
  22 C :    0.069879
  23 H :    0.047488
  24 H :    0.027974
  25 C :   -0.136960
  26 H :    0.024115
  27 H :    0.034947
  28 C :   -0.025810
  29 H :    0.031002
  30 H :    0.043614
  31 H :    0.017938
  32 H :    0.034830
  33 H :    0.056596
Sum of atomic charges:    0.0000000

LOEWDIN ATOMIC CHARGES
----------------------
   0 S :    0.382238
   1 C :   -0.181855
   2 C :   -0.059335
   3 C :   -0.061283
   4 C :   -0.193396
   5 H :    0.031443
   6 C :   -0.037145
   7 H :    0.024488
   8 H :    0.039880
   9 C :   -0.048343
  10 H :    0.024838
  11 H :    0.029825
  12 C :   -0.068753
  13 H :    0.031981
  14 H :    0.020355
  15 H :    0.027798
  16 S :    0.432232
  17 C :   -0.186737
  18 C :   -0.081191
  19 C :   -0.053799
  20 C :   -0.209831
  21 H :    0.044446
  22 C :   -0.042923
  23 H :    0.043370
  24 H :    0.036567
  25 C :   -0.047523
  26 H :    0.017024
  27 H :    0.028387
  28 C :   -0.066076
  29 H :    0.030170
  30 H :    0.028895
  31 H :    0.016008
  32 H :    0.025194
  33 H :    0.023050

  Mayer bond orders larger than 0.100000
B(  0-S ,  1-C ) :   1.1127 B(  0-S ,  4-C ) :   1.1407 B(  1-C ,  2-C ) :   1.6478
B(  1-C , 32-H ) :   0.9668 B(  2-C ,  3-C ) :   1.1943 B(  2-C ,  6-C ) :   1.0377
B(  3-C ,  4-C ) :   1.6128 B(  3-C ,  5-H ) :   0.9910 B(  4-C , 20-C ) :   1.0058
B(  6-C ,  7-H ) :   0.9312 B(  6-C ,  8-H ) :   0.9317 B(  6-C ,  9-C ) :   1.0619
B(  9-C , 10-H ) :   0.9552 B(  9-C , 11-H ) :   0.9523 B(  9-C , 12-C ) :   1.0747
B( 12-C , 13-H ) :   0.9749 B( 12-C , 14-H ) :   0.9721 B( 12-C , 15-H ) :   0.9760
B( 16-S , 17-C ) :   1.2290 B( 16-S , 20-C ) :   1.1368 B( 17-C , 18-C ) :   1.5140
B( 17-C , 20-C ) :   0.1093 B( 17-C , 33-H ) :   0.9665 B( 18-C , 19-C ) :   1.2981
B( 18-C , 21-H ) :   0.9829 B( 19-C , 20-C ) :   1.5451 B( 19-C , 22-C ) :   1.0739
B( 22-C , 23-H ) :   0.9273 B( 22-C , 24-H ) :   0.9181 B( 22-C , 25-C ) :   1.0457
B( 25-C , 26-H ) :   0.9545 B( 25-C , 27-H ) :   0.9603 B( 25-C , 28-C ) :   1.0794
B( 28-C , 29-H ) :   0.9644 B( 28-C , 30-H ) :   0.9733 B( 28-C , 31-H ) :   0.9746

Dispersion correction           -0.014261160
FINAL SINGLE POINT ENERGY     -1339.865835096721

DIPOLE MOMENT
-------------
                                X             Y             Z
Electronic contribution:    -15.87497      -5.04310     -19.72139
Nuclear contribution   :     16.00809       5.10969      20.23586
                        -----------------------------------------
Total Dipole Moment    :      0.13312       0.06659       0.51447
                        -----------------------------------------
Magnitude (a.u.)       :      0.53557
Magnitude (Debye)      :      1.36131

Rotational constants in cm-1:     0.019140     0.007711     0.006720
Rotational constants in MHz :   573.812513   231.184883   201.473545

                             ****ORCA TERMINATED NORMALLY****
TOTAL RUN TIME: 0 days 0 hours 0 minutes 33 seconds 627 msec
