                         Program Version 4.2.1 -  RELEASE  -
|  1> ! wB97X-D3 SP def2-SVP
|  2> %pal
|  3> nprocs 16
|  4> end
|  5>
|  6> * xyz 0 1
|  7> S 	 -64.5094 	 49.3371 	 126.404
|  8> C 	 -63.2995 	 48.185 	 125.909
|  9> C 	 -62.1113 	 48.8558 	 125.662
| 10> C 	 -62.2954 	 50.2738 	 125.724
| 11> C 	 -63.5114 	 50.7317 	 126.1
| 12> H 	 -61.4212 	 50.8724 	 125.551
| 13> C 	 -60.7471 	 48.1714 	 125.504
| 14> H 	 -60.0061 	 48.8907 	 125.069
| 15> H 	 -60.8553 	 47.302 	 124.874
| 16> C 	 -60.0895 	 47.7661 	 126.889
| 17> H 	 -60.0373 	 48.6424 	 127.568
| 18> H 	 -60.7065 	 47.0153 	 127.374
| 19> C 	 -58.6087 	 47.2547 	 126.743
| 20> H 	 -58.0322 	 48.0981 	 126.323
| 21> H 	 -58.2399 	 46.9895 	 127.708
| 22> H 	 -58.6043 	 46.3338 	 126.133
| 23> S 	 -65.714 	 52.3449 	 126.008
| 24> C 	 -65.5236 	 54.0491 	 126.346
| 25> C 	 -64.2732 	 54.3597 	 126.78
| 26> C 	 -63.3847 	 53.2314 	 126.862
| 27> C 	 -63.9792 	 52.0981 	 126.339
| 28> H 	 -64.0171 	 55.3784 	 127.179
| 29> C 	 -61.9463 	 53.3375 	 127.335
| 30> H 	 -61.3171 	 53.3854 	 126.437
| 31> H 	 -61.7252 	 52.3911 	 127.871
| 32> C 	 -61.5689 	 54.6028 	 128.167
| 33> H 	 -62.2758 	 54.7291 	 129.002
| 34> H 	 -61.6485 	 55.4588 	 127.52
| 35> C 	 -60.201 	 54.4881 	 128.838
| 36> H 	 -59.3614 	 54.3086 	 128.187
| 37> H 	 -60.2223 	 53.6409 	 129.462
| 38> H 	 -59.9775 	 55.2835 	 129.632
| 39> H 	 -63.3381 	 47.1245 	 126.093
| 40> H 	 -66.3292 	 54.6894 	 126.18
| 41> *
| 42>
| 43>                          ****END OF INPUT****

CARTESIAN COORDINATES (ANGSTROEM)
---------------------------------
  S    -64.509400   49.337100  126.404000
  C    -63.299500   48.185000  125.909000
  C    -62.111300   48.855800  125.662000
  C    -62.295400   50.273800  125.724000
  C    -63.511400   50.731700  126.100000
  H    -61.421200   50.872400  125.551000
  C    -60.747100   48.171400  125.504000
  H    -60.006100   48.890700  125.069000
  H    -60.855300   47.302000  124.874000
  C    -60.089500   47.766100  126.889000
  H    -60.037300   48.642400  127.568000
  H    -60.706500   47.015300  127.374000
  C    -58.608700   47.254700  126.743000
  H    -58.032200   48.098100  126.323000
  H    -58.239900   46.989500  127.708000
  H    -58.604300   46.333800  126.133000
  S    -65.714000   52.344900  126.008000
  C    -65.523600   54.049100  126.346000
  C    -64.273200   54.359700  126.780000
  C    -63.384700   53.231400  126.862000
  C    -63.979200   52.098100  126.339000
  H    -64.017100   55.378400  127.179000
  C    -61.946300   53.337500  127.335000
  H    -61.317100   53.385400  126.437000
  H    -61.725200   52.391100  127.871000
  C    -61.568900   54.602800  128.167000
  H    -62.275800   54.729100  129.002000
  H    -61.648500   55.458800  127.520000
  C    -60.201000   54.488100  128.838000
  H    -59.361400   54.308600  128.187000
  H    -60.222300   53.640900  129.462000
  H    -59.977500   55.283500  129.632000
  H    -63.338100   47.124500  126.093000
  H    -66.329200   54.689400  126.180000

 Total Charge           Charge          ....    0
 Multiplicity           Mult            ....    1
 Number of Electrons    NEL             ....  134
 Basis Dimension        Dim             ....  322

ORBITAL ENERGIES
----------------

  NO   OCC          E(Eh)            E(eV)
   0   2.0000     -88.963174     -2420.8110
   1   2.0000     -88.962920     -2420.8041
   2   2.0000     -10.329825      -281.0888
   3   2.0000     -10.328844      -281.0621
   4   2.0000     -10.313636      -280.6483
   5   2.0000     -10.311826      -280.5991
   6   2.0000     -10.307514      -280.4817
   7   2.0000     -10.300520      -280.2914
   8   2.0000     -10.300246      -280.2839
   9   2.0000     -10.299809      -280.2720
  10   2.0000     -10.297993      -280.2226
  11   2.0000     -10.293376      -280.0970
  12   2.0000     -10.293317      -280.0954
  13   2.0000     -10.287865      -279.9470
  14   2.0000     -10.283789      -279.8361
  15   2.0000     -10.281313      -279.7687
  16   2.0000      -8.078046      -219.8148
  17   2.0000      -8.077965      -219.8126
  18   2.0000      -6.036711      -164.2673
  19   2.0000      -6.036475      -164.2608
  20   2.0000      -6.032633      -164.1563
  21   2.0000      -6.032438      -164.1510
  22   2.0000      -6.028644      -164.0477
  23   2.0000      -6.028555      -164.0453
  24   2.0000      -1.008755       -27.4496
  25   2.0000      -0.985816       -26.8254
  26   2.0000      -0.910208       -24.7680
  27   2.0000      -0.903405       -24.5829
  28   2.0000      -0.869472       -23.6595
  29   2.0000      -0.854849       -23.2616
  30   2.0000      -0.842278       -22.9195
  31   2.0000      -0.817280       -22.2393
  32   2.0000      -0.782598       -21.2956
  33   2.0000      -0.771386       -20.9905
  34   2.0000      -0.710593       -19.3362
  35   2.0000      -0.701519       -19.0893
  36   2.0000      -0.696036       -18.9401
  37   2.0000      -0.655625       -17.8405
  38   2.0000      -0.638255       -17.3678
  39   2.0000      -0.625185       -17.0121
  40   2.0000      -0.602031       -16.3821
  41   2.0000      -0.575452       -15.6588
  42   2.0000      -0.569232       -15.4896
  43   2.0000      -0.558096       -15.1866
  44   2.0000      -0.526386       -14.3237
  45   2.0000      -0.522299       -14.2125
  46   2.0000      -0.520549       -14.1649
  47   2.0000      -0.505746       -13.7621
  48   2.0000      -0.505080       -13.7439
  49   2.0000      -0.503881       -13.7113
  50   2.0000      -0.485895       -13.2219
  51   2.0000      -0.483504       -13.1568
  52   2.0000      -0.471951       -12.8424
  53   2.0000      -0.464639       -12.6435
  54   2.0000      -0.461827       -12.5669
  55   2.0000      -0.456858       -12.4317
  56   2.0000      -0.443687       -12.0733
  57   2.0000      -0.434214       -11.8156
  58   2.0000      -0.431732       -11.7480
  59   2.0000      -0.429115       -11.6768
  60   2.0000      -0.423705       -11.5296
  61   2.0000      -0.422346       -11.4926
  62   2.0000      -0.413072       -11.2403
  63   2.0000      -0.357234        -9.7208
  64   2.0000      -0.332279        -9.0418
  65   2.0000      -0.327048        -8.8994
  66   2.0000      -0.288500        -7.8505
  67   0.0000       0.026309         0.7159
  68   0.0000       0.075281         2.0485
  69   0.0000       0.101614         2.7651
  70   0.0000       0.127455         3.4682
  71   0.0000       0.130991         3.5644

MULLIKEN ATOMIC CHARGES
-----------------------
   0 S :    0.095501
   1 C :   -0.106865
   2 C :   -0.108843
   3 C :    0.007435
   4 C :   -0.096313
   5 H :   -0.008373
   6 C :    0.051216
   7 H :    0.024617
   8 H :    0.033349
   9 C :   -0.105546
  10 H :    0.033861
  11 H :    0.026253
  12 C :   -0.044060
  13 H :    0.041359
  14 H :    0.032527
  15 H :    0.037810
  16 S :    0.088282
  17 C :   -0.057581
  18 C :   -0.045371
  19 C :   -0.041658
  20 C :   -0.144371
  21 H :    0.041180
  22 C :    0.025764
  23 H :    0.050668
  24 H :    0.041427
  25 C :   -0.085008
  26 H :    0.036309
  27 H :    0.036324
  28 C :   -0.028928
  29 H :    0.028534
  30 H :    0.008860
  31 H :    0.043593
  32 H :    0.050470
  33 H :    0.037577
Sum of atomic charges:    0.0000000

LOEWDIN ATOMIC CHARGES
----------------------
   0 S :    0.407369
   1 C :   -0.200598
   2 C :   -0.062924
   3 C :   -0.073242
   4 C :   -0.193687
   5 H :    0.024672
   6 C :   -0.030850
   7 H :    0.031488
   8 H :    0.028959
   9 C :   -0.038905
  10 H :    0.025132
  11 H :    0.017097
  12 C :   -0.064121
  13 H :    0.028222
  14 H :    0.022402
  15 H :    0.027104
  16 S :    0.387102
  17 C :   -0.166636
  18 C :   -0.078115
  19 C :   -0.053455
  20 C :   -0.181202
  21 H :    0.041393
  22 C :   -0.033605
  23 H :    0.036592
  24 H :    0.036135
  25 C :   -0.040258
  26 H :    0.028078
  27 H :    0.020125
  28 C :   -0.068576
  29 H :    0.021716
  30 H :    0.019081
  31 H :    0.038591
  32 H :    0.028550
  33 H :    0.016366

  Mayer bond orders larger than 0.100000
B(  0-S ,  1-C ) :   1.1393 B(  0-S ,  4-C ) :   1.1481 B(  1-C ,  2-C ) :   1.5980
B(  1-C , 32-H ) :   0.9680 B(  2-C ,  3-C ) :   1.2711 B(  2-C ,  6-C ) :   1.0314
B(  3-C ,  4-C ) :   1.5573 B(  3-C ,  5-H ) :   1.0028 B(  4-C , 20-C ) :   1.0510
B(  6-C ,  7-H ) :   0.9444 B(  6-C ,  8-H ) :   0.9421 B(  6-C ,  9-C ) :   1.0502
B(  9-C , 10-H ) :   0.9602 B(  9-C , 11-H ) :   0.9589 B(  9-C , 12-C ) :   1.0778
B( 12-C , 13-H ) :   0.9762 B( 12-C , 14-H ) :   0.9752 B( 12-C , 15-H ) :   0.9763
B( 16-S , 17-C ) :   1.1488 B( 16-S , 20-C ) :   1.1293 B( 17-C , 18-C ) :   1.6184
B( 17-C , 33-H ) :   0.9752 B( 18-C , 19-C ) :   1.2277 B( 18-C , 21-H ) :   0.9757
B( 19-C , 20-C ) :   1.6157 B( 19-C , 22-C ) :   1.0375 B( 22-C , 23-H ) :   0.9276
B( 22-C , 24-H ) :   0.9356 B( 22-C , 25-C ) :   1.0724 B( 25-C , 26-H ) :   0.9588
B( 25-C , 27-H ) :   0.9466 B( 25-C , 28-C ) :   1.0827 B( 28-C , 29-H ) :   0.9743
B( 28-C , 30-H ) :   0.9702 B( 28-C , 31-H ) :   0.9726

Dispersion correction           -0.013350033
FINAL SINGLE POINT ENERGY     -1339.889194397092

DIPOLE MOMENT
-------------
                                X             Y             Z
Electronic contribution:    -31.26037       0.01179      -8.88704
Nuclear contribution   :     32.01403       0.15129       9.22636
                        -----------------------------------------
Total Dipole Moment    :      0.75365       0.16309       0.33931
                        -----------------------------------------
Magnitude (a.u.)       :      0.84245
Magnitude (Debye)      :      2.14134

Rotational constants in cm-1:     0.016644     0.008680     0.005945
Rotational constants in MHz :   498.973146   260.228997   178.238052

                             ****ORCA TERMINATED NORMALLY****
TOTAL RUN TIME: 0 days 0 hours 0 minutes 34 seconds 631 msec
