                         Program Version 4.2.1 -  RELEASE  -
|  1> ! wB97X-D3 SP def2-SVP
|  2> %pal
|  3> nprocs 16
|  4> end
|  5>
|  6> * xyz 0 1
|  7> S 	 -92.3903 	 42.2767 	 113.409
|  8> C 	 -91.0452 	 42.1176 	 114.591
|  9> C 	 -91.508 	 41.9586 	 115.879
| 10> C 	 -92.906 	 41.8681 	 115.846
| 11> C 	 -93.5675 	 41.9761 	 114.67
| 12> H 	 -93.4807 	 41.6614 	 116.722
| 13> C 	 -90.5977 	 41.7894 	 117.064
| 14> H 	 -91.0609 	 42.4888 	 117.795
| 15> H 	 -89.6716 	 42.2701 	 116.892
| 16> C 	 -90.2783 	 40.419 	 117.701
| 17> H 	 -89.557 	 39.7875 	 117.067
| 18> H 	 -89.6522 	 40.6968 	 118.592
| 19> C 	 -91.4898 	 39.6563 	 118.252
| 20> H 	 -91.8706 	 39.248 	 117.28
| 21> H 	 -91.1981 	 38.7904 	 118.874
| 22> H 	 -92.2926 	 40.2886 	 118.573
| 23> S 	 -95.8272 	 43.0933 	 113.363
| 24> C 	 -97.3995 	 42.3794 	 113.604
| 25> C 	 -97.3409 	 41.3573 	 114.51
| 26> C 	 -96.0491 	 41.2278 	 115.119
| 27> C 	 -95.0206 	 41.9237 	 114.467
| 28> H 	 -98.1087 	 40.6721 	 114.722
| 29> C 	 -95.8349 	 40.043 	 116.092
| 30> H 	 -94.8569 	 39.6106 	 116.05
| 31> H 	 -96.4695 	 39.242 	 115.684
| 32> C 	 -96.2553 	 40.205 	 117.571
| 33> H 	 -97.2355 	 40.6557 	 117.645
| 34> H 	 -95.6165 	 40.9089 	 118.042
| 35> C 	 -96.1356 	 38.8528 	 118.271
| 36> H 	 -96.7464 	 38.1033 	 117.726
| 37> H 	 -96.5507 	 38.9266 	 119.313
| 38> H 	 -95.1097 	 38.4603 	 118.386
| 39> H 	 -89.9427 	 42.18 	 114.258
| 40> H 	 -98.2704 	 42.5007 	 112.971
| 41> *
| 42>
| 43>                          ****END OF INPUT****

CARTESIAN COORDINATES (ANGSTROEM)
---------------------------------
  S    -92.390300   42.276700  113.409000
  C    -91.045200   42.117600  114.591000
  C    -91.508000   41.958600  115.879000
  C    -92.906000   41.868100  115.846000
  C    -93.567500   41.976100  114.670000
  H    -93.480700   41.661400  116.722000
  C    -90.597700   41.789400  117.064000
  H    -91.060900   42.488800  117.795000
  H    -89.671600   42.270100  116.892000
  C    -90.278300   40.419000  117.701000
  H    -89.557000   39.787500  117.067000
  H    -89.652200   40.696800  118.592000
  C    -91.489800   39.656300  118.252000
  H    -91.870600   39.248000  117.280000
  H    -91.198100   38.790400  118.874000
  H    -92.292600   40.288600  118.573000
  S    -95.827200   43.093300  113.363000
  C    -97.399500   42.379400  113.604000
  C    -97.340900   41.357300  114.510000
  C    -96.049100   41.227800  115.119000
  C    -95.020600   41.923700  114.467000
  H    -98.108700   40.672100  114.722000
  C    -95.834900   40.043000  116.092000
  H    -94.856900   39.610600  116.050000
  H    -96.469500   39.242000  115.684000
  C    -96.255300   40.205000  117.571000
  H    -97.235500   40.655700  117.645000
  H    -95.616500   40.908900  118.042000
  C    -96.135600   38.852800  118.271000
  H    -96.746400   38.103300  117.726000
  H    -96.550700   38.926600  119.313000
  H    -95.109700   38.460300  118.386000
  H    -89.942700   42.180000  114.258000
  H    -98.270400   42.500700  112.971000

 Total Charge           Charge          ....    0
 Multiplicity           Mult            ....    1
 Number of Electrons    NEL             ....  134
 Basis Dimension        Dim             ....  322

ORBITAL ENERGIES
----------------

  NO   OCC          E(Eh)            E(eV)
   0   2.0000     -88.966885     -2420.9120
   1   2.0000     -88.964507     -2420.8473
   2   2.0000     -10.336212      -281.2626
   3   2.0000     -10.331003      -281.1209
   4   2.0000     -10.325548      -280.9724
   5   2.0000     -10.316917      -280.7376
   6   2.0000     -10.306437      -280.4524
   7   2.0000     -10.301677      -280.3229
   8   2.0000     -10.301616      -280.3212
   9   2.0000     -10.296390      -280.1790
  10   2.0000     -10.290945      -280.0309
  11   2.0000     -10.290146      -280.0091
  12   2.0000     -10.288791      -279.9722
  13   2.0000     -10.286055      -279.8978
  14   2.0000     -10.284464      -279.8545
  15   2.0000     -10.284345      -279.8512
  16   2.0000      -8.081017      -219.8956
  17   2.0000      -8.078668      -219.8317
  18   2.0000      -6.039636      -164.3468
  19   2.0000      -6.037386      -164.2856
  20   2.0000      -6.035636      -164.2380
  21   2.0000      -6.033215      -164.1721
  22   2.0000      -6.031649      -164.1295
  23   2.0000      -6.029274      -164.0649
  24   2.0000      -1.005860       -27.3708
  25   2.0000      -0.984479       -26.7890
  26   2.0000      -0.913815       -24.8662
  27   2.0000      -0.907594       -24.6969
  28   2.0000      -0.870912       -23.6987
  29   2.0000      -0.851047       -23.1582
  30   2.0000      -0.844492       -22.9798
  31   2.0000      -0.817824       -22.2541
  32   2.0000      -0.786914       -21.4130
  33   2.0000      -0.769441       -20.9376
  34   2.0000      -0.707089       -19.2409
  35   2.0000      -0.700808       -19.0700
  36   2.0000      -0.696767       -18.9600
  37   2.0000      -0.663798       -18.0629
  38   2.0000      -0.638861       -17.3843
  39   2.0000      -0.622276       -16.9330
  40   2.0000      -0.597083       -16.2474
  41   2.0000      -0.571458       -15.5502
  42   2.0000      -0.564635       -15.3645
  43   2.0000      -0.553355       -15.0575
  44   2.0000      -0.542636       -14.7659
  45   2.0000      -0.519867       -14.1463
  46   2.0000      -0.517367       -14.0783
  47   2.0000      -0.512715       -13.9517
  48   2.0000      -0.507281       -13.8038
  49   2.0000      -0.498979       -13.5779
  50   2.0000      -0.492398       -13.3988
  51   2.0000      -0.478797       -13.0287
  52   2.0000      -0.474770       -12.9191
  53   2.0000      -0.468953       -12.7609
  54   2.0000      -0.456421       -12.4198
  55   2.0000      -0.450073       -12.2471
  56   2.0000      -0.448612       -12.2073
  57   2.0000      -0.438997       -11.9457
  58   2.0000      -0.435185       -11.8420
  59   2.0000      -0.426906       -11.6167
  60   2.0000      -0.423010       -11.5107
  61   2.0000      -0.408450       -11.1145
  62   2.0000      -0.402090       -10.9414
  63   2.0000      -0.354676        -9.6512
  64   2.0000      -0.335408        -9.1269
  65   2.0000      -0.329195        -8.9578
  66   2.0000      -0.290515        -7.9053
  67   0.0000       0.021715         0.5909
  68   0.0000       0.074646         2.0312
  69   0.0000       0.111234         3.0268
  70   0.0000       0.114720         3.1217
  71   0.0000       0.123400         3.3579

MULLIKEN ATOMIC CHARGES
-----------------------
   0 S :    0.099410
   1 C :   -0.169699
   2 C :   -0.055427
   3 C :    0.011192
   4 C :   -0.113995
   5 H :   -0.022704
   6 C :    0.073188
   7 H :    0.032757
   8 H :    0.009758
   9 C :   -0.095634
  10 H :    0.046217
  11 H :    0.032188
  12 C :   -0.057583
  13 H :    0.037512
  14 H :    0.053479
  15 H :    0.035405
  16 S :    0.087970
  17 C :   -0.069035
  18 C :   -0.018734
  19 C :   -0.015063
  20 C :   -0.125242
  21 H :    0.007425
  22 C :   -0.019023
  23 H :    0.020366
  24 H :    0.018349
  25 C :   -0.020703
  26 H :    0.022912
  27 H :    0.015720
  28 C :   -0.079963
  29 H :    0.032336
  30 H :    0.041181
  31 H :    0.043278
  32 H :    0.080117
  33 H :    0.062045
Sum of atomic charges:    0.0000000

LOEWDIN ATOMIC CHARGES
----------------------
   0 S :    0.383413
   1 C :   -0.182250
   2 C :   -0.073448
   3 C :   -0.062166
   4 C :   -0.192453
   5 H :    0.023460
   6 C :   -0.035164
   7 H :    0.040044
   8 H :    0.028781
   9 C :   -0.045189
  10 H :    0.032440
  11 H :    0.026192
  12 C :   -0.074763
  13 H :    0.033537
  14 H :    0.033929
  15 H :    0.021340
  16 S :    0.383410
  17 C :   -0.185753
  18 C :   -0.064304
  19 C :   -0.056358
  20 C :   -0.175386
  21 H :    0.024873
  22 C :   -0.034088
  23 H :    0.023656
  24 H :    0.029666
  25 C :   -0.037762
  26 H :    0.023610
  27 H :    0.015256
  28 C :   -0.069864
  29 H :    0.025711
  30 H :    0.031681
  31 H :    0.028504
  32 H :    0.045260
  33 H :    0.034187

  Mayer bond orders larger than 0.100000
B(  0-S ,  1-C ) :   1.1404 B(  0-S ,  4-C ) :   1.1294 B(  1-C ,  2-C ) :   1.5994
B(  1-C , 32-H ) :   0.9562 B(  2-C ,  3-C ) :   1.2461 B(  2-C ,  6-C ) :   1.0168
B(  3-C ,  4-C ) :   1.5795 B(  3-C ,  5-H ) :   1.0015 B(  4-C , 20-C ) :   1.0551
B(  6-C ,  7-H ) :   0.9334 B(  6-C ,  8-H ) :   0.9327 B(  6-C ,  9-C ) :   1.0754
B(  9-C , 10-H ) :   0.9573 B(  9-C , 11-H ) :   0.9496 B(  9-C , 12-C ) :   1.0661
B( 12-C , 13-H ) :   0.9732 B( 12-C , 14-H ) :   0.9714 B( 12-C , 15-H ) :   0.9734
B( 16-S , 17-C ) :   1.1466 B( 16-S , 20-C ) :   1.1181 B( 17-C , 18-C ) :   1.6146
B( 17-C , 33-H ) :   0.9629 B( 18-C , 19-C ) :   1.2401 B( 18-C , 21-H ) :   0.9921
B( 19-C , 20-C ) :   1.5971 B( 19-C , 22-C ) :   1.0293 B( 22-C , 23-H ) :   0.9505
B( 22-C , 24-H ) :   0.9474 B( 22-C , 25-C ) :   1.0526 B( 25-C , 26-H ) :   0.9524
B( 25-C , 27-H ) :   0.9501 B( 25-C , 28-C ) :   1.0811 B( 28-C , 29-H ) :   0.9750
B( 28-C , 30-H ) :   0.9728 B( 28-C , 31-H ) :   0.9741

Dispersion correction           -0.014789672
FINAL SINGLE POINT ENERGY     -1339.871596772776

DIPOLE MOMENT
-------------
                                X             Y             Z
Electronic contribution:     -3.64265      18.30740     -27.27537
Nuclear contribution   :      3.76449     -18.80768      27.89163
                        -----------------------------------------
Total Dipole Moment    :      0.12184      -0.50028       0.61626
                        -----------------------------------------
Magnitude (a.u.)       :      0.80306
Magnitude (Debye)      :      2.04122

Rotational constants in cm-1:     0.016191     0.010493     0.006646
Rotational constants in MHz :   485.384312   314.571888   199.251824

                             ****ORCA TERMINATED NORMALLY****
TOTAL RUN TIME: 0 days 0 hours 0 minutes 34 seconds 841 msec
