                         Program Version 4.2.1 -  RELEASE  -
|  1> ! wB97X-D3 SP def2-SVP
|  2> %pal
|  3> nprocs 16
|  4> end
|  5>
|  6> * xyz 0 1
|  7> S 	 -33.0437 	 63.002 	 113.697
|  8> C 	 -32.5468 	 61.8093 	 112.518
|  9> C 	 -32.0776 	 60.6381 	 113.146
| 10> C 	 -32.1644 	 60.7323 	 114.561
| 11> C 	 -32.5855 	 61.988 	 114.996
| 12> H 	 -31.9107 	 59.9141 	 115.286
| 13> C 	 -31.5202 	 59.3779 	 112.477
| 14> H 	 -30.4631 	 59.2824 	 112.685
| 15> H 	 -31.6658 	 59.4466 	 111.363
| 16> C 	 -32.2733 	 58.1168 	 112.853
| 17> H 	 -32.1545 	 57.923 	 113.927
| 18> H 	 -33.3282 	 58.3291 	 112.666
| 19> C 	 -31.9561 	 56.8405 	 112.047
| 20> H 	 -32.2498 	 55.9962 	 112.728
| 21> H 	 -32.562 	 56.7762 	 111.175
| 22> H 	 -30.9368 	 56.6052 	 111.684
| 23> S 	 -34.2053 	 62.7389 	 117.172
| 24> C 	 -33.3978 	 63.0651 	 118.748
| 25> C 	 -32.0542 	 62.9418 	 118.656
| 26> C 	 -31.5698 	 62.6483 	 117.328
| 27> C 	 -32.581 	 62.4898 	 116.367
| 28> H 	 -31.4415 	 63.0446 	 119.566
| 29> C 	 -30.0862 	 62.5575 	 117.097
| 30> H 	 -29.7911 	 61.8902 	 116.284
| 31> H 	 -29.6526 	 61.9315 	 117.85
| 32> C 	 -29.2966 	 63.9279 	 117.169
| 33> H 	 -29.6483 	 64.3892 	 118.081
| 34> H 	 -29.6003 	 64.5854 	 116.32
| 35> C 	 -27.7968 	 63.8991 	 116.991
| 36> H 	 -27.2931 	 64.8625 	 116.967
| 37> H 	 -27.4869 	 63.367 	 116.113
| 38> H 	 -27.2636 	 63.4946 	 117.882
| 39> H 	 -32.3977 	 61.9628 	 111.422
| 40> H 	 -33.8808 	 63.4798 	 119.656
| 41> *
| 42>
| 43>                          ****END OF INPUT****

CARTESIAN COORDINATES (ANGSTROEM)
---------------------------------
  S    -33.043700   63.002000  113.697000
  C    -32.546800   61.809300  112.518000
  C    -32.077600   60.638100  113.146000
  C    -32.164400   60.732300  114.561000
  C    -32.585500   61.988000  114.996000
  H    -31.910700   59.914100  115.286000
  C    -31.520200   59.377900  112.477000
  H    -30.463100   59.282400  112.685000
  H    -31.665800   59.446600  111.363000
  C    -32.273300   58.116800  112.853000
  H    -32.154500   57.923000  113.927000
  H    -33.328200   58.329100  112.666000
  C    -31.956100   56.840500  112.047000
  H    -32.249800   55.996200  112.728000
  H    -32.562000   56.776200  111.175000
  H    -30.936800   56.605200  111.684000
  S    -34.205300   62.738900  117.172000
  C    -33.397800   63.065100  118.748000
  C    -32.054200   62.941800  118.656000
  C    -31.569800   62.648300  117.328000
  C    -32.581000   62.489800  116.367000
  H    -31.441500   63.044600  119.566000
  C    -30.086200   62.557500  117.097000
  H    -29.791100   61.890200  116.284000
  H    -29.652600   61.931500  117.850000
  C    -29.296600   63.927900  117.169000
  H    -29.648300   64.389200  118.081000
  H    -29.600300   64.585400  116.320000
  C    -27.796800   63.899100  116.991000
  H    -27.293100   64.862500  116.967000
  H    -27.486900   63.367000  116.113000
  H    -27.263600   63.494600  117.882000
  H    -32.397700   61.962800  111.422000
  H    -33.880800   63.479800  119.656000

 Total Charge           Charge          ....    0
 Multiplicity           Mult            ....    1
 Number of Electrons    NEL             ....  134
 Basis Dimension        Dim             ....  322

ORBITAL ENERGIES
----------------

  NO   OCC          E(Eh)            E(eV)
   0   2.0000     -88.970378     -2421.0071
   1   2.0000     -88.961629     -2420.7690
   2   2.0000     -10.334709      -281.2217
   3   2.0000     -10.328346      -281.0486
   4   2.0000     -10.321776      -280.8698
   5   2.0000     -10.319920      -280.8193
   6   2.0000     -10.310469      -280.5621
   7   2.0000     -10.304529      -280.4005
   8   2.0000     -10.298756      -280.2434
   9   2.0000     -10.295384      -280.1516
  10   2.0000     -10.295266      -280.1484
  11   2.0000     -10.289821      -280.0003
  12   2.0000     -10.289605      -279.9944
  13   2.0000     -10.287996      -279.9506
  14   2.0000     -10.281720      -279.7798
  15   2.0000     -10.277302      -279.6596
  16   2.0000      -8.085543      -220.0188
  17   2.0000      -8.074739      -219.7248
  18   2.0000      -6.043989      -164.4653
  19   2.0000      -6.039861      -164.3530
  20   2.0000      -6.036451      -164.2602
  21   2.0000      -6.033515      -164.1803
  22   2.0000      -6.029552      -164.0724
  23   2.0000      -6.025231      -163.9549
  24   2.0000      -1.003836       -27.3158
  25   2.0000      -0.976324       -26.5671
  26   2.0000      -0.913035       -24.8449
  27   2.0000      -0.901008       -24.5177
  28   2.0000      -0.867303       -23.6005
  29   2.0000      -0.849887       -23.1266
  30   2.0000      -0.845327       -23.0025
  31   2.0000      -0.812069       -22.0975
  32   2.0000      -0.784195       -21.3390
  33   2.0000      -0.770799       -20.9745
  34   2.0000      -0.707404       -19.2494
  35   2.0000      -0.697867       -18.9899
  36   2.0000      -0.690028       -18.7766
  37   2.0000      -0.654163       -17.8007
  38   2.0000      -0.638651       -17.3786
  39   2.0000      -0.619311       -16.8523
  40   2.0000      -0.596037       -16.2190
  41   2.0000      -0.572217       -15.5708
  42   2.0000      -0.563144       -15.3239
  43   2.0000      -0.555541       -15.1170
  44   2.0000      -0.522827       -14.2268
  45   2.0000      -0.518136       -14.0992
  46   2.0000      -0.514762       -14.0074
  47   2.0000      -0.507414       -13.8074
  48   2.0000      -0.504584       -13.7304
  49   2.0000      -0.501870       -13.6566
  50   2.0000      -0.497102       -13.5268
  51   2.0000      -0.474688       -12.9169
  52   2.0000      -0.470774       -12.8104
  53   2.0000      -0.466285       -12.6883
  54   2.0000      -0.455282       -12.3889
  55   2.0000      -0.452141       -12.3034
  56   2.0000      -0.444977       -12.1084
  57   2.0000      -0.430845       -11.7239
  58   2.0000      -0.429019       -11.6742
  59   2.0000      -0.426129       -11.5956
  60   2.0000      -0.419982       -11.4283
  61   2.0000      -0.415887       -11.3169
  62   2.0000      -0.403879       -10.9901
  63   2.0000      -0.337587        -9.1862
  64   2.0000      -0.333279        -9.0690
  65   2.0000      -0.325270        -8.8510
  66   2.0000      -0.301384        -8.2011
  67   0.0000       0.033670         0.9162
  68   0.0000       0.057657         1.5689
  69   0.0000       0.110879         3.0172
  70   0.0000       0.121610         3.3092
  71   0.0000       0.127054         3.4573

MULLIKEN ATOMIC CHARGES
-----------------------
   0 S :    0.136236
   1 C :   -0.131526
   2 C :   -0.111744
   3 C :    0.029308
   4 C :   -0.174861
   5 H :    0.036960
   6 C :    0.079019
   7 H :    0.039291
   8 H :    0.020646
   9 C :   -0.115243
  10 H :    0.035147
  11 H :    0.039266
  12 C :   -0.051007
  13 H :    0.038019
  14 H :    0.028051
  15 H :    0.034487
  16 S :    0.073446
  17 C :   -0.096316
  18 C :   -0.044457
  19 C :   -0.015065
  20 C :   -0.151838
  21 H :    0.035291
  22 C :    0.077282
  23 H :    0.011398
  24 H :    0.005638
  25 C :   -0.068306
  26 H :    0.023023
  27 H :    0.039835
  28 C :   -0.044968
  29 H :    0.030610
  30 H :    0.034418
  31 H :    0.020833
  32 H :    0.065617
  33 H :    0.071511
Sum of atomic charges:   -0.0000000

LOEWDIN ATOMIC CHARGES
----------------------
   0 S :    0.439299
   1 C :   -0.214085
   2 C :   -0.063796
   3 C :   -0.063335
   4 C :   -0.215939
   5 H :    0.041660
   6 C :   -0.033327
   7 H :    0.029400
   8 H :    0.032573
   9 C :   -0.045262
  10 H :    0.020456
  11 H :    0.031740
  12 C :   -0.071850
  13 H :    0.036509
  14 H :    0.020462
  15 H :    0.026394
  16 S :    0.343325
  17 C :   -0.169561
  18 C :   -0.077641
  19 C :   -0.048027
  20 C :   -0.175818
  21 H :    0.038682
  22 C :   -0.040227
  23 H :    0.029311
  24 H :    0.027889
  25 C :   -0.037914
  26 H :    0.020833
  27 H :    0.031931
  28 C :   -0.072343
  29 H :    0.029817
  30 H :    0.024790
  31 H :    0.024484
  32 H :    0.039321
  33 H :    0.040249

  Mayer bond orders larger than 0.100000
B(  0-S ,  1-C ) :   1.1478 B(  0-S ,  4-C ) :   1.1834 B(  1-C ,  2-C ) :   1.5992
B(  1-C ,  4-C ) :   0.1018 B(  1-C , 32-H ) :   0.9598 B(  2-C ,  3-C ) :   1.2548
B(  2-C ,  6-C ) :   1.0241 B(  3-C ,  4-C ) :   1.5561 B(  3-C ,  5-H ) :   0.9878
B(  4-C , 20-C ) :   1.0162 B(  6-C ,  7-H ) :   0.9362 B(  6-C ,  8-H ) :   0.9447
B(  6-C ,  9-C ) :   1.0633 B(  9-C , 10-H ) :   0.9605 B(  9-C , 11-H ) :   0.9561
B(  9-C , 12-C ) :   1.0746 B( 12-C , 13-H ) :   0.9753 B( 12-C , 14-H ) :   0.9774
B( 12-C , 15-H ) :   0.9774 B( 16-S , 17-C ) :   1.1284 B( 16-S , 20-C ) :   1.1070
B( 17-C , 18-C ) :   1.6633 B( 17-C , 33-H ) :   0.9572 B( 18-C , 19-C ) :   1.2040
B( 18-C , 21-H ) :   0.9808 B( 19-C , 20-C ) :   1.6329 B( 19-C , 22-C ) :   1.0590
B( 22-C , 23-H ) :   0.9307 B( 22-C , 24-H ) :   0.9260 B( 22-C , 25-C ) :   1.0426
B( 25-C , 26-H ) :   0.9579 B( 25-C , 27-H ) :   0.9574 B( 25-C , 28-C ) :   1.0866
B( 28-C , 29-H ) :   0.9719 B( 28-C , 30-H ) :   0.9739 B( 28-C , 31-H ) :   0.9714

Dispersion correction           -0.013496660
FINAL SINGLE POINT ENERGY     -1339.875621051590

DIPOLE MOMENT
-------------
                                X             Y             Z
Electronic contribution:    -20.90150      14.12727       4.50000
Nuclear contribution   :     21.56284     -14.47127      -4.45577
                        -----------------------------------------
Total Dipole Moment    :      0.66134      -0.34400       0.04423
                        -----------------------------------------
Magnitude (a.u.)       :      0.74677
Magnitude (Debye)      :      1.89815

Rotational constants in cm-1:     0.017243     0.007576     0.006578
Rotational constants in MHz :   516.945500   227.127916   197.217504

                             ****ORCA TERMINATED NORMALLY****
TOTAL RUN TIME: 0 days 0 hours 0 minutes 29 seconds 341 msec
