                         Program Version 4.2.1 -  RELEASE  -
|  1> ! wB97X-D3 SP def2-SVP
|  2> %pal
|  3> nprocs 16
|  4> end
|  5>
|  6> * xyz 0 1
|  7> S 	 -23.8456 	 48.3326 	 66.8714
|  8> C 	 -22.9499 	 48.5709 	 65.4215
|  9> C 	 -21.8945 	 49.4918 	 65.5477
| 10> C 	 -21.9686 	 50.0555 	 66.8992
| 11> C 	 -22.9941 	 49.515 	 67.6692
| 12> H 	 -21.3553 	 50.755 	 67.3898
| 13> C 	 -20.7686 	 49.8281 	 64.5384
| 14> H 	 -20.5468 	 50.8834 	 64.4179
| 15> H 	 -21.2895 	 49.6057 	 63.5577
| 16> C 	 -19.5097 	 48.9942 	 64.6761
| 17> H 	 -18.6741 	 49.7308 	 64.5562
| 18> H 	 -19.4196 	 48.7535 	 65.682
| 19> C 	 -19.4171 	 47.8398 	 63.6952
| 20> H 	 -20.3356 	 47.1809 	 63.7196
| 21> H 	 -19.1342 	 48.1747 	 62.7203
| 22> H 	 -18.5832 	 47.2276 	 63.9885
| 23> S 	 -24.7614 	 50.0636 	 69.738
| 24> C 	 -24.109 	 50.1895 	 71.3434
| 25> C 	 -22.7865 	 49.8395 	 71.3293
| 26> C 	 -22.261 	 49.4686 	 70.1048
| 27> C 	 -23.1979 	 49.5906 	 69.0972
| 28> H 	 -22.2671 	 49.8292 	 72.2471
| 29> C 	 -20.8114 	 49.0552 	 69.9097
| 30> H 	 -20.7434 	 48.7313 	 68.8806
| 31> H 	 -20.7095 	 48.2981 	 70.6335
| 32> C 	 -19.6737 	 50.1195 	 70.1979
| 33> H 	 -19.7431 	 50.5025 	 71.1891
| 34> H 	 -19.8431 	 50.9458 	 69.4408
| 35> C 	 -18.2823 	 49.5704 	 69.9519
| 36> H 	 -18.1112 	 48.682 	 70.5079
| 37> H 	 -17.5675 	 50.3243 	 70.2622
| 38> H 	 -18.1931 	 49.3764 	 68.8788
| 39> H 	 -23.0439 	 48.0609 	 64.5518
| 40> H 	 -24.6481 	 50.4006 	 72.227
| 41> *
| 42>
| 43>                          ****END OF INPUT****

CARTESIAN COORDINATES (ANGSTROEM)
---------------------------------
  S    -23.845600   48.332600   66.871400
  C    -22.949900   48.570900   65.421500
  C    -21.894500   49.491800   65.547700
  C    -21.968600   50.055500   66.899200
  C    -22.994100   49.515000   67.669200
  H    -21.355300   50.755000   67.389800
  C    -20.768600   49.828100   64.538400
  H    -20.546800   50.883400   64.417900
  H    -21.289500   49.605700   63.557700
  C    -19.509700   48.994200   64.676100
  H    -18.674100   49.730800   64.556200
  H    -19.419600   48.753500   65.682000
  C    -19.417100   47.839800   63.695200
  H    -20.335600   47.180900   63.719600
  H    -19.134200   48.174700   62.720300
  H    -18.583200   47.227600   63.988500
  S    -24.761400   50.063600   69.738000
  C    -24.109000   50.189500   71.343400
  C    -22.786500   49.839500   71.329300
  C    -22.261000   49.468600   70.104800
  C    -23.197900   49.590600   69.097200
  H    -22.267100   49.829200   72.247100
  C    -20.811400   49.055200   69.909700
  H    -20.743400   48.731300   68.880600
  H    -20.709500   48.298100   70.633500
  C    -19.673700   50.119500   70.197900
  H    -19.743100   50.502500   71.189100
  H    -19.843100   50.945800   69.440800
  C    -18.282300   49.570400   69.951900
  H    -18.111200   48.682000   70.507900
  H    -17.567500   50.324300   70.262200
  H    -18.193100   49.376400   68.878800
  H    -23.043900   48.060900   64.551800
  H    -24.648100   50.400600   72.227000

 Total Charge           Charge          ....    0
 Multiplicity           Mult            ....    1
 Number of Electrons    NEL             ....  134
 Basis Dimension        Dim             ....  322

ORBITAL ENERGIES
----------------

  NO   OCC          E(Eh)            E(eV)
   0   2.0000     -88.965930     -2420.8860
   1   2.0000     -88.963714     -2420.8257
   2   2.0000     -10.320235      -280.8279
   3   2.0000     -10.317631      -280.7570
   4   2.0000     -10.311195      -280.5819
   5   2.0000     -10.309639      -280.5395
   6   2.0000     -10.306018      -280.4410
   7   2.0000     -10.296691      -280.1872
   8   2.0000     -10.294854      -280.1372
   9   2.0000     -10.291832      -280.0550
  10   2.0000     -10.290192      -280.0104
  11   2.0000     -10.286895      -279.9207
  12   2.0000     -10.283679      -279.8331
  13   2.0000     -10.282323      -279.7962
  14   2.0000     -10.281008      -279.7605
  15   2.0000     -10.275793      -279.6185
  16   2.0000      -8.082816      -219.9446
  17   2.0000      -8.078684      -219.8322
  18   2.0000      -6.041076      -164.3860
  19   2.0000      -6.037129      -164.2786
  20   2.0000      -6.036898      -164.2723
  21   2.0000      -6.033818      -164.1885
  22   2.0000      -6.033109      -164.1693
  23   2.0000      -6.029560      -164.0727
  24   2.0000      -1.015721       -27.6392
  25   2.0000      -0.989770       -26.9330
  26   2.0000      -0.915784       -24.9197
  27   2.0000      -0.907534       -24.6952
  28   2.0000      -0.872411       -23.7395
  29   2.0000      -0.858045       -23.3486
  30   2.0000      -0.847025       -23.0487
  31   2.0000      -0.813984       -22.1496
  32   2.0000      -0.788313       -21.4511
  33   2.0000      -0.775932       -21.1142
  34   2.0000      -0.710325       -19.3289
  35   2.0000      -0.699210       -19.0265
  36   2.0000      -0.696882       -18.9631
  37   2.0000      -0.663365       -18.0511
  38   2.0000      -0.650067       -17.6892
  39   2.0000      -0.616119       -16.7654
  40   2.0000      -0.595611       -16.2074
  41   2.0000      -0.577371       -15.7111
  42   2.0000      -0.574014       -15.6197
  43   2.0000      -0.553384       -15.0584
  44   2.0000      -0.535875       -14.5819
  45   2.0000      -0.530751       -14.4425
  46   2.0000      -0.519853       -14.1459
  47   2.0000      -0.516072       -14.0430
  48   2.0000      -0.509883       -13.8746
  49   2.0000      -0.500139       -13.6095
  50   2.0000      -0.491026       -13.3615
  51   2.0000      -0.480904       -13.0861
  52   2.0000      -0.475206       -12.9310
  53   2.0000      -0.469893       -12.7864
  54   2.0000      -0.463489       -12.6122
  55   2.0000      -0.447328       -12.1724
  56   2.0000      -0.444628       -12.0990
  57   2.0000      -0.437156       -11.8956
  58   2.0000      -0.433380       -11.7929
  59   2.0000      -0.426226       -11.5982
  60   2.0000      -0.422357       -11.4929
  61   2.0000      -0.418217       -11.3803
  62   2.0000      -0.416643       -11.3374
  63   2.0000      -0.341182        -9.2840
  64   2.0000      -0.333351        -9.0709
  65   2.0000      -0.327699        -8.9171
  66   2.0000      -0.295563        -8.0427
  67   0.0000       0.037822         1.0292
  68   0.0000       0.071326         1.9409
  69   0.0000       0.118087         3.2133
  70   0.0000       0.120446         3.2775
  71   0.0000       0.123787         3.3684

MULLIKEN ATOMIC CHARGES
-----------------------
   0 S :    0.138884
   1 C :   -0.061517
   2 C :   -0.107674
   3 C :    0.031017
   4 C :   -0.157174
   5 H :   -0.017003
   6 C :    0.025750
   7 H :    0.035396
   8 H :    0.025363
   9 C :   -0.028494
  10 H :    0.021443
  11 H :    0.011296
  12 C :   -0.030142
  13 H :    0.044987
  14 H :    0.030547
  15 H :    0.024542
  16 S :    0.110961
  17 C :   -0.071693
  18 C :   -0.035433
  19 C :   -0.002841
  20 C :   -0.188679
  21 H :   -0.005385
  22 C :    0.090913
  23 H :    0.030119
  24 H :    0.014196
  25 C :   -0.095510
  26 H :    0.023405
  27 H :    0.032765
  28 C :   -0.018702
  29 H :    0.023731
  30 H :    0.037140
  31 H :    0.030922
  32 H :   -0.004897
  33 H :    0.041768
Sum of atomic charges:   -0.0000000

LOEWDIN ATOMIC CHARGES
----------------------
   0 S :    0.466941
   1 C :   -0.199002
   2 C :   -0.050385
   3 C :   -0.062397
   4 C :   -0.226508
   5 H :    0.019246
   6 C :   -0.036485
   7 H :    0.031446
   8 H :    0.035767
   9 C :   -0.041908
  10 H :    0.031069
  11 H :    0.014308
  12 C :   -0.061552
  13 H :    0.033424
  14 H :    0.023897
  15 H :    0.025952
  16 S :    0.407958
  17 C :   -0.179575
  18 C :   -0.069847
  19 C :   -0.056269
  20 C :   -0.209309
  21 H :    0.023287
  22 C :   -0.022783
  23 H :    0.029390
  24 H :    0.024821
  25 C :   -0.035409
  26 H :    0.015521
  27 H :    0.026276
  28 C :   -0.059235
  29 H :    0.019219
  30 H :    0.028895
  31 H :    0.026864
  32 H :    0.002533
  33 H :    0.023849

  Mayer bond orders larger than 0.100000
B(  0-S ,  1-C ) :   1.1595 B(  0-S ,  4-C ) :   1.1963 B(  1-C ,  2-C ) :   1.6032
B(  1-C , 32-H ) :   0.9770 B(  2-C ,  3-C ) :   1.2247 B(  2-C ,  6-C ) :   1.0236
B(  3-C ,  4-C ) :   1.5634 B(  3-C ,  5-H ) :   1.0139 B(  4-C , 20-C ) :   0.9966
B(  6-C ,  7-H ) :   0.9499 B(  6-C ,  8-H ) :   0.9452 B(  6-C ,  9-C ) :   1.0406
B(  9-C , 10-H ) :   0.9519 B(  9-C , 11-H ) :   0.9601 B(  9-C , 12-C ) :   1.0867
B( 12-C , 13-H ) :   0.9737 B( 12-C , 14-H ) :   0.9735 B( 12-C , 15-H ) :   0.9702
B( 16-S , 17-C ) :   1.1568 B( 16-S , 20-C ) :   1.1493 B( 17-C , 18-C ) :   1.5915
B( 17-C , 20-C ) :   0.1046 B( 17-C , 33-H ) :   0.9737 B( 18-C , 19-C ) :   1.2602
B( 18-C , 21-H ) :   0.9994 B( 19-C , 20-C ) :   1.5728 B( 19-C , 22-C ) :   1.0391
B( 22-C , 23-H ) :   0.9312 B( 22-C , 24-H ) :   0.9229 B( 22-C , 25-C ) :   1.0700
B( 25-C , 26-H ) :   0.9539 B( 25-C , 27-H ) :   0.9550 B( 25-C , 28-C ) :   1.0901
B( 28-C , 29-H ) :   0.9736 B( 28-C , 30-H ) :   0.9722 B( 28-C , 31-H ) :   0.9751

Dispersion correction           -0.014639273
FINAL SINGLE POINT ENERGY     -1339.869044838482

DIPOLE MOMENT
-------------
                                X             Y             Z
Electronic contribution:    -30.95980       1.03745       8.04768
Nuclear contribution   :     31.77848      -1.05718      -7.98797
                        -----------------------------------------
Total Dipole Moment    :      0.81868      -0.01973       0.05971
                        -----------------------------------------
Magnitude (a.u.)       :      0.82109
Magnitude (Debye)      :      2.08704

Rotational constants in cm-1:     0.018478     0.009430     0.006687
Rotational constants in MHz :   553.947268   282.706778   200.469406

                             ****ORCA TERMINATED NORMALLY****
TOTAL RUN TIME: 0 days 0 hours 0 minutes 34 seconds 416 msec
