                         Program Version 4.2.1 -  RELEASE  -
|  1> ! wB97X-D3 SP def2-SVP
|  2> %pal
|  3> nprocs 16
|  4> end
|  5>
|  6> * xyz 0 1
|  7> S 	 -4.14834 	 21.1115 	 53.5259
|  8> C 	 -2.78253 	 20.522 	 52.5333
|  9> C 	 -2.89916 	 21.0076 	 51.2251
| 10> C 	 -3.84371 	 22.0609 	 51.1568
| 11> C 	 -4.68355 	 22.1401 	 52.2205
| 12> H 	 -3.95324 	 22.7709 	 50.3194
| 13> C 	 -1.93984 	 20.5626 	 50.1665
| 14> H 	 -2.45391 	 20.5374 	 49.175
| 15> H 	 -1.72969 	 19.4867 	 50.1901
| 16> C 	 -0.768621 	 21.5416 	 49.9496
| 17> H 	 -1.18219 	 22.4338 	 49.5298
| 18> H 	 -0.347864 	 21.7485 	 50.9548
| 19> C 	 0.322882 	 21.0002 	 49.0713
| 20> H 	 1.18974 	 21.6186 	 48.9083
| 21> H 	 0.613349 	 19.9939 	 49.3866
| 22> H 	 -0.0156185 	 20.8376 	 48.0583
| 23> S 	 -7.37569 	 22.319 	 51.4487
| 24> C 	 -8.29499 	 23.5746 	 52.3021
| 25> C 	 -7.45939 	 24.5639 	 52.8076
| 26> C 	 -6.0412 	 24.1831 	 52.7847
| 27> C 	 -5.90328 	 22.9264 	 52.1867
| 28> H 	 -7.87807 	 25.3842 	 53.4326
| 29> C 	 -4.95606 	 25.0729 	 53.4166
| 30> H 	 -4.80791 	 25.8999 	 52.7014
| 31> H 	 -4.02125 	 24.5027 	 53.3792
| 32> C 	 -5.226 	 25.5729 	 54.8239
| 33> H 	 -6.12577 	 26.1846 	 54.9382
| 34> H 	 -4.4307 	 26.2774 	 55.0118
| 35> C 	 -5.00912 	 24.5837 	 56.0159
| 36> H 	 -3.90122 	 24.4044 	 56.1036
| 37> H 	 -5.55103 	 23.6078 	 55.9154
| 38> H 	 -5.31839 	 24.867 	 57.0255
| 39> H 	 -1.96227 	 19.8194 	 52.7762
| 40> H 	 -9.36873 	 23.6735 	 52.3547
| 41> *
| 42>
| 43>                          ****END OF INPUT****

CARTESIAN COORDINATES (ANGSTROEM)
---------------------------------
  S     -4.148340   21.111500   53.525900
  C     -2.782530   20.522000   52.533300
  C     -2.899160   21.007600   51.225100
  C     -3.843710   22.060900   51.156800
  C     -4.683550   22.140100   52.220500
  H     -3.953240   22.770900   50.319400
  C     -1.939840   20.562600   50.166500
  H     -2.453910   20.537400   49.175000
  H     -1.729690   19.486700   50.190100
  C     -0.768621   21.541600   49.949600
  H     -1.182190   22.433800   49.529800
  H     -0.347864   21.748500   50.954800
  C      0.322882   21.000200   49.071300
  H      1.189740   21.618600   48.908300
  H      0.613349   19.993900   49.386600
  H     -0.015618   20.837600   48.058300
  S     -7.375690   22.319000   51.448700
  C     -8.294990   23.574600   52.302100
  C     -7.459390   24.563900   52.807600
  C     -6.041200   24.183100   52.784700
  C     -5.903280   22.926400   52.186700
  H     -7.878070   25.384200   53.432600
  C     -4.956060   25.072900   53.416600
  H     -4.807910   25.899900   52.701400
  H     -4.021250   24.502700   53.379200
  C     -5.226000   25.572900   54.823900
  H     -6.125770   26.184600   54.938200
  H     -4.430700   26.277400   55.011800
  C     -5.009120   24.583700   56.015900
  H     -3.901220   24.404400   56.103600
  H     -5.551030   23.607800   55.915400
  H     -5.318390   24.867000   57.025500
  H     -1.962270   19.819400   52.776200
  H     -9.368730   23.673500   52.354700

 Total Charge           Charge          ....    0
 Multiplicity           Mult            ....    1
 Number of Electrons    NEL             ....  134
 Basis Dimension        Dim             ....  322

ORBITAL ENERGIES
----------------

  NO   OCC          E(Eh)            E(eV)
   0   2.0000     -88.967488     -2420.9284
   1   2.0000     -88.966525     -2420.9022
   2   2.0000     -10.322952      -280.9018
   3   2.0000     -10.320922      -280.8466
   4   2.0000     -10.319814      -280.8164
   5   2.0000     -10.317917      -280.7648
   6   2.0000     -10.307060      -280.4694
   7   2.0000     -10.299192      -280.2553
   8   2.0000     -10.298273      -280.2302
   9   2.0000     -10.297466      -280.2083
  10   2.0000     -10.292710      -280.0789
  11   2.0000     -10.290312      -280.0136
  12   2.0000     -10.289421      -279.9894
  13   2.0000     -10.286406      -279.9073
  14   2.0000     -10.283130      -279.8182
  15   2.0000     -10.274540      -279.5845
  16   2.0000      -8.081177      -219.9000
  17   2.0000      -8.080719      -219.8875
  18   2.0000      -6.039769      -164.3505
  19   2.0000      -6.039350      -164.3391
  20   2.0000      -6.035846      -164.2437
  21   2.0000      -6.035479      -164.2337
  22   2.0000      -6.031874      -164.1356
  23   2.0000      -6.031191      -164.1171
  24   2.0000      -1.002294       -27.2738
  25   2.0000      -0.977367       -26.5955
  26   2.0000      -0.913906       -24.8686
  27   2.0000      -0.904642       -24.6166
  28   2.0000      -0.866951       -23.5909
  29   2.0000      -0.847352       -23.0576
  30   2.0000      -0.841146       -22.8887
  31   2.0000      -0.811984       -22.0952
  32   2.0000      -0.783466       -21.3192
  33   2.0000      -0.769292       -20.9335
  34   2.0000      -0.707193       -19.2437
  35   2.0000      -0.700669       -19.0662
  36   2.0000      -0.693358       -18.8672
  37   2.0000      -0.651720       -17.7342
  38   2.0000      -0.634737       -17.2721
  39   2.0000      -0.613730       -16.7004
  40   2.0000      -0.594029       -16.1644
  41   2.0000      -0.571093       -15.5402
  42   2.0000      -0.559197       -15.2165
  43   2.0000      -0.550513       -14.9802
  44   2.0000      -0.536816       -14.6075
  45   2.0000      -0.526959       -14.3393
  46   2.0000      -0.517902       -14.0928
  47   2.0000      -0.510487       -13.8910
  48   2.0000      -0.499330       -13.5875
  49   2.0000      -0.493203       -13.4207
  50   2.0000      -0.486644       -13.2422
  51   2.0000      -0.473858       -12.8943
  52   2.0000      -0.467669       -12.7259
  53   2.0000      -0.457727       -12.4554
  54   2.0000      -0.452819       -12.3218
  55   2.0000      -0.450650       -12.2628
  56   2.0000      -0.445889       -12.1332
  57   2.0000      -0.437479       -11.9044
  58   2.0000      -0.436409       -11.8753
  59   2.0000      -0.428235       -11.6529
  60   2.0000      -0.421120       -11.4593
  61   2.0000      -0.409057       -11.1310
  62   2.0000      -0.407458       -11.0875
  63   2.0000      -0.333456        -9.0738
  64   2.0000      -0.327634        -8.9154
  65   2.0000      -0.314199        -8.5498
  66   2.0000      -0.308982        -8.4078
  67   0.0000       0.045332         1.2336
  68   0.0000       0.049045         1.3346
  69   0.0000       0.104134         2.8336
  70   0.0000       0.115317         3.1379
  71   0.0000       0.128284         3.4908

MULLIKEN ATOMIC CHARGES
-----------------------
   0 S :    0.124542
   1 C :   -0.127382
   2 C :   -0.074144
   3 C :    0.016811
   4 C :   -0.170729
   5 H :    0.024887
   6 C :    0.016365
   7 H :    0.018347
   8 H :    0.025797
   9 C :   -0.043812
  10 H :    0.025488
  11 H :    0.031176
  12 C :   -0.020062
  13 H :    0.034532
  14 H :    0.020990
  15 H :    0.010249
  16 S :    0.123636
  17 C :   -0.103629
  18 C :   -0.035758
  19 C :   -0.049610
  20 C :   -0.186371
  21 H :    0.038537
  22 C :    0.090581
  23 H :    0.046040
  24 H :    0.028284
  25 C :   -0.064016
  26 H :    0.031829
  27 H :    0.023823
  28 C :   -0.081781
  29 H :    0.038264
  30 H :    0.040696
  31 H :    0.031101
  32 H :    0.059420
  33 H :    0.055898
Sum of atomic charges:    0.0000000

LOEWDIN ATOMIC CHARGES
----------------------
   0 S :    0.397050
   1 C :   -0.192734
   2 C :   -0.062535
   3 C :   -0.063727
   4 C :   -0.202427
   5 H :    0.036112
   6 C :   -0.044596
   7 H :    0.034226
   8 H :    0.031290
   9 C :   -0.034604
  10 H :    0.022386
  11 H :    0.025439
  12 C :   -0.067147
  13 H :    0.026279
  14 H :    0.025023
  15 H :    0.021793
  16 S :    0.391112
  17 C :   -0.175188
  18 C :   -0.075853
  19 C :   -0.045122
  20 C :   -0.207324
  21 H :    0.036105
  22 C :   -0.029684
  23 H :    0.042321
  24 H :    0.033884
  25 C :   -0.046771
  26 H :    0.022325
  27 H :    0.028532
  28 C :   -0.076166
  29 H :    0.030970
  30 H :    0.027034
  31 H :    0.026002
  32 H :    0.037259
  33 H :    0.028736

  Mayer bond orders larger than 0.100000
B(  0-S ,  1-C ) :   1.1289 B(  0-S ,  4-C ) :   1.1320 B(  1-C ,  2-C ) :   1.6103
B(  1-C , 32-H ) :   0.9638 B(  2-C ,  3-C ) :   1.2284 B(  2-C ,  6-C ) :   1.0464
B(  3-C ,  4-C ) :   1.6004 B(  3-C ,  5-H ) :   0.9881 B(  4-C , 20-C ) :   1.0432
B(  6-C ,  7-H ) :   0.9309 B(  6-C ,  8-H ) :   0.9457 B(  6-C ,  9-C ) :   1.0428
B(  9-C , 10-H ) :   0.9529 B(  9-C , 11-H ) :   0.9604 B(  9-C , 12-C ) :   1.0899
B( 12-C , 13-H ) :   0.9725 B( 12-C , 14-H ) :   0.9734 B( 12-C , 15-H ) :   0.9683
B( 16-S , 17-C ) :   1.1363 B( 16-S , 20-C ) :   1.1214 B( 17-C , 18-C ) :   1.6572
B( 17-C , 33-H ) :   0.9668 B( 18-C , 19-C ) :   1.2036 B( 18-C , 21-H ) :   0.9741
B( 19-C , 20-C ) :   1.6234 B( 19-C , 22-C ) :   1.0357 B( 22-C , 23-H ) :   0.9316
B( 22-C , 24-H ) :   0.9274 B( 22-C , 25-C ) :   1.0751 B( 25-C , 26-H ) :   0.9575
B( 25-C , 27-H ) :   0.9516 B( 25-C , 28-C ) :   1.0588 B( 28-C , 29-H ) :   0.9770
B( 28-C , 30-H ) :   0.9789 B( 28-C , 31-H ) :   0.9761

Dispersion correction           -0.014600799
FINAL SINGLE POINT ENERGY     -1339.866386673840

DIPOLE MOMENT
-------------
                                X             Y             Z
Electronic contribution:    -19.51710      -7.45855       0.54611
Nuclear contribution   :     19.86929       7.82197      -0.65391
                        -----------------------------------------
Total Dipole Moment    :      0.35219       0.36342      -0.10780
                        -----------------------------------------
Magnitude (a.u.)       :      0.51743
Magnitude (Debye)      :      1.31520

Rotational constants in cm-1:     0.020860     0.007544     0.006679
Rotational constants in MHz :   625.366070   226.157340   200.241317

                             ****ORCA TERMINATED NORMALLY****
TOTAL RUN TIME: 0 days 0 hours 0 minutes 34 seconds 240 msec
