                         Program Version 4.2.1 -  RELEASE  -
|  1> ! wB97X-D3 SP def2-SVP
|  2> %pal
|  3> nprocs 16
|  4> end
|  5>
|  6> * xyz 0 1
|  7> S 	 -2.40353 	 -14.7077 	 87.2064
|  8> C 	 -2.45432 	 -16.1843 	 88.1389
|  9> C 	 -2.6225 	 -17.2967 	 87.3509
| 10> C 	 -2.75229 	 -16.9373 	 85.9907
| 11> C 	 -2.42072 	 -15.6151 	 85.7342
| 12> H 	 -2.72651 	 -17.6164 	 85.1874
| 13> C 	 -2.75788 	 -18.7101 	 87.9731
| 14> H 	 -3.1944 	 -19.4272 	 87.3148
| 15> H 	 -3.56906 	 -18.6144 	 88.5949
| 16> C 	 -1.57305 	 -19.2766 	 88.6483
| 17> H 	 -0.866004 	 -19.5204 	 87.8254
| 18> H 	 -1.09027 	 -18.4881 	 89.3205
| 19> C 	 -1.86845 	 -20.6073 	 89.4375
| 20> H 	 -0.932295 	 -20.929 	 89.9212
| 21> H 	 -2.67058 	 -20.3634 	 90.1495
| 22> H 	 -2.21135 	 -21.4055 	 88.8103
| 23> S 	 -1.45486 	 -15.9367 	 83.1741
| 24> C 	 -1.75571 	 -14.7611 	 81.9839
| 25> C 	 -2.31799 	 -13.6866 	 82.5414
| 26> C 	 -2.71209 	 -13.8361 	 83.8998
| 27> C 	 -2.31251 	 -15.0413 	 84.3809
| 28> H 	 -2.43067 	 -12.764 	 81.956
| 29> C 	 -3.30814 	 -12.6904 	 84.7084
| 30> H 	 -3.03912 	 -11.7361 	 84.2575
| 31> H 	 -2.98053 	 -12.7568 	 85.7532
| 32> C 	 -4.85189 	 -12.8394 	 84.6159
| 33> H 	 -5.11423 	 -13.8333 	 84.9858
| 34> H 	 -5.04931 	 -12.6399 	 83.5179
| 35> C 	 -5.54265 	 -11.8017 	 85.4468
| 36> H 	 -5.46681 	 -12.1131 	 86.5058
| 37> H 	 -6.61006 	 -11.6418 	 85.3334
| 38> H 	 -4.97211 	 -10.8306 	 85.5697
| 39> H 	 -2.48167 	 -16.2609 	 89.185
| 40> H 	 -1.42438 	 -14.8401 	 80.9893
| 41> *
| 42>
| 43>                          ****END OF INPUT****

CARTESIAN COORDINATES (ANGSTROEM)
---------------------------------
  S     -2.403530  -14.707700   87.206400
  C     -2.454320  -16.184300   88.138900
  C     -2.622500  -17.296700   87.350900
  C     -2.752290  -16.937300   85.990700
  C     -2.420720  -15.615100   85.734200
  H     -2.726510  -17.616400   85.187400
  C     -2.757880  -18.710100   87.973100
  H     -3.194400  -19.427200   87.314800
  H     -3.569060  -18.614400   88.594900
  C     -1.573050  -19.276600   88.648300
  H     -0.866004  -19.520400   87.825400
  H     -1.090270  -18.488100   89.320500
  C     -1.868450  -20.607300   89.437500
  H     -0.932295  -20.929000   89.921200
  H     -2.670580  -20.363400   90.149500
  H     -2.211350  -21.405500   88.810300
  S     -1.454860  -15.936700   83.174100
  C     -1.755710  -14.761100   81.983900
  C     -2.317990  -13.686600   82.541400
  C     -2.712090  -13.836100   83.899800
  C     -2.312510  -15.041300   84.380900
  H     -2.430670  -12.764000   81.956000
  C     -3.308140  -12.690400   84.708400
  H     -3.039120  -11.736100   84.257500
  H     -2.980530  -12.756800   85.753200
  C     -4.851890  -12.839400   84.615900
  H     -5.114230  -13.833300   84.985800
  H     -5.049310  -12.639900   83.517900
  C     -5.542650  -11.801700   85.446800
  H     -5.466810  -12.113100   86.505800
  H     -6.610060  -11.641800   85.333400
  H     -4.972110  -10.830600   85.569700
  H     -2.481670  -16.260900   89.185000
  H     -1.424380  -14.840100   80.989300

 Total Charge           Charge          ....    0
 Multiplicity           Mult            ....    1
 Number of Electrons    NEL             ....  134
 Basis Dimension        Dim             ....  322

ORBITAL ENERGIES
----------------

  NO   OCC          E(Eh)            E(eV)
   0   2.0000     -88.970836     -2421.0195
   1   2.0000     -88.961615     -2420.7686
   2   2.0000     -10.329528      -281.0807
   3   2.0000     -10.321590      -280.8647
   4   2.0000     -10.307606      -280.4842
   5   2.0000     -10.305793      -280.4349
   6   2.0000     -10.299973      -280.2765
   7   2.0000     -10.295481      -280.1543
   8   2.0000     -10.292764      -280.0803
   9   2.0000     -10.292343      -280.0689
  10   2.0000     -10.287529      -279.9379
  11   2.0000     -10.287319      -279.9322
  12   2.0000     -10.287256      -279.9305
  13   2.0000     -10.283409      -279.8258
  14   2.0000     -10.281114      -279.7633
  15   2.0000     -10.275584      -279.6128
  16   2.0000      -8.085287      -220.0118
  17   2.0000      -8.077932      -219.8117
  18   2.0000      -6.043804      -164.4603
  19   2.0000      -6.039885      -164.3536
  20   2.0000      -6.036412      -164.2591
  21   2.0000      -6.036024      -164.2486
  22   2.0000      -6.032223      -164.1451
  23   2.0000      -6.028630      -164.0474
  24   2.0000      -1.017318       -27.6826
  25   2.0000      -0.994662       -27.0661
  26   2.0000      -0.916904       -24.9502
  27   2.0000      -0.911954       -24.8155
  28   2.0000      -0.871900       -23.7256
  29   2.0000      -0.854211       -23.2443
  30   2.0000      -0.846806       -23.0428
  31   2.0000      -0.816551       -22.2195
  32   2.0000      -0.785291       -21.3688
  33   2.0000      -0.775389       -21.0994
  34   2.0000      -0.704320       -19.1655
  35   2.0000      -0.701146       -19.0791
  36   2.0000      -0.689099       -18.7513
  37   2.0000      -0.669687       -18.2231
  38   2.0000      -0.639895       -17.4124
  39   2.0000      -0.618863       -16.8401
  40   2.0000      -0.600056       -16.3283
  41   2.0000      -0.579206       -15.7610
  42   2.0000      -0.569974       -15.5098
  43   2.0000      -0.560719       -15.2579
  44   2.0000      -0.528370       -14.3777
  45   2.0000      -0.522896       -14.2287
  46   2.0000      -0.521136       -14.1808
  47   2.0000      -0.515434       -14.0257
  48   2.0000      -0.506119       -13.7722
  49   2.0000      -0.498043       -13.5524
  50   2.0000      -0.492339       -13.3972
  51   2.0000      -0.485107       -13.2004
  52   2.0000      -0.477149       -12.9839
  53   2.0000      -0.466839       -12.7033
  54   2.0000      -0.462766       -12.5925
  55   2.0000      -0.449071       -12.2199
  56   2.0000      -0.443392       -12.0653
  57   2.0000      -0.438969       -11.9450
  58   2.0000      -0.427768       -11.6401
  59   2.0000      -0.424227       -11.5438
  60   2.0000      -0.420640       -11.4462
  61   2.0000      -0.413444       -11.2504
  62   2.0000      -0.409857       -11.1528
  63   2.0000      -0.351925        -9.5764
  64   2.0000      -0.335996        -9.1429
  65   2.0000      -0.329604        -8.9690
  66   2.0000      -0.291377        -7.9288
  67   0.0000       0.029051         0.7905
  68   0.0000       0.083554         2.2736
  69   0.0000       0.111523         3.0347
  70   0.0000       0.119812         3.2602
  71   0.0000       0.134500         3.6599

MULLIKEN ATOMIC CHARGES
-----------------------
   0 S :    0.100540
   1 C :   -0.088944
   2 C :   -0.089181
   3 C :    0.033453
   4 C :   -0.143723
   5 H :   -0.000834
   6 C :    0.120687
   7 H :   -0.002733
   8 H :   -0.002693
   9 C :   -0.108714
  10 H :    0.036435
  11 H :    0.041425
  12 C :   -0.045574
  13 H :    0.046120
  14 H :    0.033779
  15 H :    0.031499
  16 S :    0.104801
  17 C :   -0.063609
  18 C :   -0.043079
  19 C :   -0.052141
  20 C :   -0.140493
  21 H :    0.018222
  22 C :    0.048629
  23 H :    0.024292
  24 H :    0.031254
  25 C :   -0.078983
  26 H :    0.045149
  27 H :    0.038267
  28 C :   -0.039733
  29 H :    0.015124
  30 H :    0.041300
  31 H :    0.026478
  32 H :    0.024680
  33 H :    0.038300
Sum of atomic charges:   -0.0000000

LOEWDIN ATOMIC CHARGES
----------------------
   0 S :    0.426413
   1 C :   -0.191535
   2 C :   -0.051886
   3 C :   -0.065034
   4 C :   -0.190076
   5 H :    0.018446
   6 C :   -0.034862
   7 H :    0.027369
   8 H :    0.019218
   9 C :   -0.044420
  10 H :    0.028570
  11 H :    0.029581
  12 C :   -0.062502
  13 H :    0.031736
  14 H :    0.026188
  15 H :    0.021758
  16 S :    0.430812
  17 C :   -0.190783
  18 C :   -0.074635
  19 C :   -0.062514
  20 C :   -0.198797
  21 H :    0.032795
  22 C :   -0.026237
  23 H :    0.029625
  24 H :    0.012188
  25 C :   -0.039352
  26 H :    0.028700
  27 H :    0.030124
  28 C :   -0.084043
  29 H :    0.027693
  30 H :    0.025020
  31 H :    0.030090
  32 H :    0.016905
  33 H :    0.023445

  Mayer bond orders larger than 0.100000
B(  0-S ,  1-C ) :   1.1327 B(  0-S ,  4-C ) :   1.1597 B(  1-C ,  2-C ) :   1.6121
B(  1-C , 32-H ) :   0.9708 B(  2-C ,  3-C ) :   1.2723 B(  2-C ,  6-C ) :   0.9974
B(  3-C ,  4-C ) :   1.5545 B(  3-C ,  5-H ) :   0.9883 B(  4-C , 20-C ) :   1.0347
B(  6-C ,  7-H ) :   0.9340 B(  6-C ,  8-H ) :   0.9305 B(  6-C ,  9-C ) :   1.0647
B(  9-C , 10-H ) :   0.9532 B(  9-C , 11-H ) :   0.9583 B(  9-C , 12-C ) :   1.0719
B( 12-C , 13-H ) :   0.9755 B( 12-C , 14-H ) :   0.9774 B( 12-C , 15-H ) :   0.9756
B( 16-S , 17-C ) :   1.1545 B( 16-S , 20-C ) :   1.1518 B( 17-C , 18-C ) :   1.6098
B( 17-C , 33-H ) :   0.9741 B( 18-C , 19-C ) :   1.2484 B( 18-C , 21-H ) :   0.9856
B( 19-C , 20-C ) :   1.6005 B( 19-C , 22-C ) :   1.0353 B( 22-C , 23-H ) :   0.9318
B( 22-C , 24-H ) :   0.9396 B( 22-C , 25-C ) :   1.0518 B( 25-C , 26-H ) :   0.9606
B( 25-C , 27-H ) :   0.9577 B( 25-C , 28-C ) :   1.0816 B( 28-C , 29-H ) :   0.9663
B( 28-C , 30-H ) :   0.9741 B( 28-C , 31-H ) :   0.9668

Dispersion correction           -0.013861121
FINAL SINGLE POINT ENERGY     -1339.873401720993

DIPOLE MOMENT
-------------
                                X             Y             Z
Electronic contribution:      9.21116       4.73081     -12.23443
Nuclear contribution   :     -9.35868      -4.83524      12.32596
                        -----------------------------------------
Total Dipole Moment    :     -0.14753      -0.10443       0.09153
                        -----------------------------------------
Magnitude (a.u.)       :      0.20260
Magnitude (Debye)      :      0.51497

Rotational constants in cm-1:     0.022245     0.007580     0.006053
Rotational constants in MHz :   666.886401   227.239874   181.470304

                             ****ORCA TERMINATED NORMALLY****
TOTAL RUN TIME: 0 days 0 hours 0 minutes 32 seconds 927 msec
