                         Program Version 4.2.1 -  RELEASE  -
|  1> ! wB97X-D3 SP def2-SVP
|  2> %pal
|  3> nprocs 16
|  4> end
|  5>
|  6> * xyz 0 1
|  7> S 	 -67.6124 	 61.108 	 126.576
|  8> C 	 -66.2775 	 62.1474 	 126.949
|  9> C 	 -66.5892 	 63.4838 	 126.914
| 10> C 	 -67.9658 	 63.6569 	 126.348
| 11> C 	 -68.5716 	 62.4511 	 126.033
| 12> H 	 -68.4628 	 64.5983 	 126.165
| 13> C 	 -65.7142 	 64.6154 	 127.453
| 14> H 	 -66.3969 	 65.4819 	 127.271
| 15> H 	 -64.8065 	 64.8032 	 126.891
| 16> C 	 -65.2702 	 64.4711 	 128.916
| 17> H 	 -64.88 	 65.503 	 129.14
| 18> H 	 -66.1625 	 64.3124 	 129.421
| 19> C 	 -64.2678 	 63.3744 	 129.28
| 20> H 	 -63.4276 	 63.2778 	 128.585
| 21> H 	 -63.7483 	 63.651 	 130.183
| 22> H 	 -64.6901 	 62.4084 	 129.518
| 23> S 	 -71.351 	 62.6109 	 126.22
| 24> C 	 -72.1995 	 62.6676 	 124.636
| 25> C 	 -71.3688 	 62.5109 	 123.577
| 26> C 	 -70.0026 	 62.4291 	 123.991
| 27> C 	 -69.8634 	 62.3491 	 125.364
| 28> H 	 -71.8711 	 62.4941 	 122.615
| 29> C 	 -68.8848 	 62.4259 	 122.941
| 30> H 	 -67.8968 	 62.4952 	 123.447
| 31> H 	 -69.1039 	 63.3183 	 122.284
| 32> C 	 -68.8628 	 61.2264 	 121.957
| 33> H 	 -69.7953 	 61.2108 	 121.37
| 34> H 	 -68.6912 	 60.2607 	 122.503
| 35> C 	 -67.8491 	 61.3347 	 120.873
| 36> H 	 -68.0841 	 60.4352 	 120.161
| 37> H 	 -66.8188 	 61.1999 	 121.337
| 38> H 	 -68.0718 	 62.2201 	 120.364
| 39> H 	 -65.4156 	 61.7889 	 127.458
| 40> H 	 -73.2572 	 62.6877 	 124.669
| 41> *
| 42>
| 43>                          ****END OF INPUT****

CARTESIAN COORDINATES (ANGSTROEM)
---------------------------------
  S    -67.612400   61.108000  126.576000
  C    -66.277500   62.147400  126.949000
  C    -66.589200   63.483800  126.914000
  C    -67.965800   63.656900  126.348000
  C    -68.571600   62.451100  126.033000
  H    -68.462800   64.598300  126.165000
  C    -65.714200   64.615400  127.453000
  H    -66.396900   65.481900  127.271000
  H    -64.806500   64.803200  126.891000
  C    -65.270200   64.471100  128.916000
  H    -64.880000   65.503000  129.140000
  H    -66.162500   64.312400  129.421000
  C    -64.267800   63.374400  129.280000
  H    -63.427600   63.277800  128.585000
  H    -63.748300   63.651000  130.183000
  H    -64.690100   62.408400  129.518000
  S    -71.351000   62.610900  126.220000
  C    -72.199500   62.667600  124.636000
  C    -71.368800   62.510900  123.577000
  C    -70.002600   62.429100  123.991000
  C    -69.863400   62.349100  125.364000
  H    -71.871100   62.494100  122.615000
  C    -68.884800   62.425900  122.941000
  H    -67.896800   62.495200  123.447000
  H    -69.103900   63.318300  122.284000
  C    -68.862800   61.226400  121.957000
  H    -69.795300   61.210800  121.370000
  H    -68.691200   60.260700  122.503000
  C    -67.849100   61.334700  120.873000
  H    -68.084100   60.435200  120.161000
  H    -66.818800   61.199900  121.337000
  H    -68.071800   62.220100  120.364000
  H    -65.415600   61.788900  127.458000
  H    -73.257200   62.687700  124.669000

 Total Charge           Charge          ....    0
 Multiplicity           Mult            ....    1
 Number of Electrons    NEL             ....  134
 Basis Dimension        Dim             ....  322

ORBITAL ENERGIES
----------------

  NO   OCC          E(Eh)            E(eV)
   0   2.0000     -88.962917     -2420.8040
   1   2.0000     -88.962687     -2420.7978
   2   2.0000     -10.323741      -280.9233
   3   2.0000     -10.320703      -280.8406
   4   2.0000     -10.315613      -280.7021
   5   2.0000     -10.305407      -280.4244
   6   2.0000     -10.303301      -280.3671
   7   2.0000     -10.302953      -280.3576
   8   2.0000     -10.296988      -280.1953
   9   2.0000     -10.295681      -280.1597
  10   2.0000     -10.294005      -280.1141
  11   2.0000     -10.293636      -280.1041
  12   2.0000     -10.286890      -279.9205
  13   2.0000     -10.283502      -279.8283
  14   2.0000     -10.281061      -279.7619
  15   2.0000     -10.280925      -279.7582
  16   2.0000      -8.078178      -219.8184
  17   2.0000      -8.077355      -219.7960
  18   2.0000      -6.036704      -164.2671
  19   2.0000      -6.035837      -164.2435
  20   2.0000      -6.032649      -164.1567
  21   2.0000      -6.032074      -164.1411
  22   2.0000      -6.028867      -164.0538
  23   2.0000      -6.027956      -164.0290
  24   2.0000      -1.003847       -27.3161
  25   2.0000      -0.980874       -26.6909
  26   2.0000      -0.911430       -24.8013
  27   2.0000      -0.907310       -24.6892
  28   2.0000      -0.870003       -23.6740
  29   2.0000      -0.851657       -23.1748
  30   2.0000      -0.844729       -22.9862
  31   2.0000      -0.812793       -22.1172
  32   2.0000      -0.787651       -21.4331
  33   2.0000      -0.768057       -20.8999
  34   2.0000      -0.702517       -19.1164
  35   2.0000      -0.697040       -18.9674
  36   2.0000      -0.680053       -18.5052
  37   2.0000      -0.656486       -17.8639
  38   2.0000      -0.642876       -17.4936
  39   2.0000      -0.611811       -16.6482
  40   2.0000      -0.595786       -16.2122
  41   2.0000      -0.578049       -15.7295
  42   2.0000      -0.574681       -15.6379
  43   2.0000      -0.547470       -14.8974
  44   2.0000      -0.534776       -14.5520
  45   2.0000      -0.523447       -14.2437
  46   2.0000      -0.519279       -14.1303
  47   2.0000      -0.509062       -13.8523
  48   2.0000      -0.499709       -13.5978
  49   2.0000      -0.491584       -13.3767
  50   2.0000      -0.489687       -13.3251
  51   2.0000      -0.482776       -13.1370
  52   2.0000      -0.467853       -12.7309
  53   2.0000      -0.464900       -12.6506
  54   2.0000      -0.459350       -12.4996
  55   2.0000      -0.447680       -12.1820
  56   2.0000      -0.445281       -12.1167
  57   2.0000      -0.430778       -11.7221
  58   2.0000      -0.429367       -11.6837
  59   2.0000      -0.424113       -11.5407
  60   2.0000      -0.421432       -11.4677
  61   2.0000      -0.411019       -11.1844
  62   2.0000      -0.409819       -11.1517
  63   2.0000      -0.337525        -9.1845
  64   2.0000      -0.327168        -8.9027
  65   2.0000      -0.317219        -8.6320
  66   2.0000      -0.310320        -8.4442
  67   0.0000       0.052458         1.4275
  68   0.0000       0.055244         1.5033
  69   0.0000       0.108735         2.9588
  70   0.0000       0.120640         3.2828
  71   0.0000       0.124515         3.3882

MULLIKEN ATOMIC CHARGES
-----------------------
   0 S :    0.114595
   1 C :   -0.110663
   2 C :   -0.110394
   3 C :    0.042630
   4 C :   -0.200895
   5 H :    0.014771
   6 C :    0.058599
   7 H :    0.024826
   8 H :    0.035512
   9 C :   -0.056684
  10 H :    0.038579
  11 H :    0.020300
  12 C :   -0.047071
  13 H :    0.027969
  14 H :    0.025799
  15 H :    0.043223
  16 S :    0.092281
  17 C :   -0.102797
  18 C :   -0.008753
  19 C :   -0.011555
  20 C :   -0.152327
  21 H :    0.026938
  22 C :    0.064452
  23 H :    0.043308
  24 H :    0.029781
  25 C :   -0.111545
  26 H :    0.021142
  27 H :    0.041091
  28 C :   -0.049847
  29 H :    0.046496
  30 H :    0.049396
  31 H :    0.020700
  32 H :    0.034348
  33 H :    0.045795
Sum of atomic charges:    0.0000000

LOEWDIN ATOMIC CHARGES
----------------------
   0 S :    0.411727
   1 C :   -0.200163
   2 C :   -0.062516
   3 C :   -0.056365
   4 C :   -0.206112
   5 H :    0.029424
   6 C :   -0.035707
   7 H :    0.035950
   8 H :    0.028516
   9 C :   -0.035195
  10 H :    0.033518
  11 H :    0.017990
  12 C :   -0.071015
  13 H :    0.025930
  14 H :    0.031045
  15 H :    0.026123
  16 S :    0.382527
  17 C :   -0.152519
  18 C :   -0.069072
  19 C :   -0.048375
  20 C :   -0.213486
  21 H :    0.038703
  22 C :   -0.034329
  23 H :    0.034372
  24 H :    0.036635
  25 C :   -0.051374
  26 H :    0.021138
  27 H :    0.027778
  28 C :   -0.066487
  29 H :    0.039535
  30 H :    0.032371
  31 H :    0.013520
  32 H :    0.018889
  33 H :    0.017025

  Mayer bond orders larger than 0.100000
B(  0-S ,  1-C ) :   1.1392 B(  0-S ,  4-C ) :   1.1447 B(  1-C ,  2-C ) :   1.6410
B(  1-C , 32-H ) :   0.9634 B(  2-C ,  3-C ) :   1.2132 B(  2-C ,  6-C ) :   1.0110
B(  3-C ,  4-C ) :   1.6105 B(  3-C ,  5-H ) :   0.9930 B(  4-C , 20-C ) :   0.9999
B(  6-C ,  7-H ) :   0.9412 B(  6-C ,  8-H ) :   0.9397 B(  6-C ,  9-C ) :   1.0709
B(  9-C , 10-H ) :   0.9570 B(  9-C , 11-H ) :   0.9566 B(  9-C , 12-C ) :   1.0765
B( 12-C , 13-H ) :   0.9735 B( 12-C , 14-H ) :   0.9649 B( 12-C , 15-H ) :   0.9693
B( 16-S , 17-C ) :   1.1417 B( 16-S , 20-C ) :   1.1336 B( 17-C , 18-C ) :   1.6478
B( 17-C , 33-H ) :   0.9711 B( 18-C , 19-C ) :   1.1907 B( 18-C , 21-H ) :   0.9931
B( 19-C , 20-C ) :   1.6373 B( 19-C , 22-C ) :   1.0437 B( 22-C , 23-H ) :   0.9317
B( 22-C , 24-H ) :   0.9301 B( 22-C , 25-C ) :   1.0695 B( 25-C , 26-H ) :   0.9542
B( 25-C , 27-H ) :   0.9536 B( 25-C , 28-C ) :   1.0860 B( 28-C , 29-H ) :   0.9738
B( 28-C , 30-H ) :   0.9732 B( 28-C , 31-H ) :   0.9721

Dispersion correction           -0.014220337
FINAL SINGLE POINT ENERGY     -1339.867960700591

DIPOLE MOMENT
-------------
                                X             Y             Z
Electronic contribution:    -18.44507      -5.29167       7.21762
Nuclear contribution   :     18.64302       5.67337      -7.38460
                        -----------------------------------------
Total Dipole Moment    :      0.19795       0.38170      -0.16699
                        -----------------------------------------
Magnitude (a.u.)       :      0.46126
Magnitude (Debye)      :      1.17244

Rotational constants in cm-1:     0.020478     0.007718     0.006382
Rotational constants in MHz :   613.901446   231.375037   191.324865

                             ****ORCA TERMINATED NORMALLY****
TOTAL RUN TIME: 0 days 0 hours 0 minutes 32 seconds 709 msec
