                         Program Version 4.2.1 -  RELEASE  -
|  1> ! wB97X-D3 SP def2-SVP
|  2> %pal
|  3> nprocs 16
|  4> end
|  5>
|  6> * xyz 0 1
|  7> S 	 -64.6185 	 61.9818 	 123.114
|  8> C 	 -64.1195 	 63.091 	 124.397
|  9> C 	 -63.4899 	 62.441 	 125.413
| 10> C 	 -63.2414 	 61.0861 	 125.041
| 11> C 	 -63.8964 	 60.6472 	 123.91
| 12> H 	 -62.8077 	 60.2949 	 125.597
| 13> C 	 -62.8959 	 63.1178 	 126.646
| 14> H 	 -62.2307 	 62.3796 	 126.984
| 15> H 	 -63.5809 	 63.3205 	 127.44
| 16> C 	 -62.1097 	 64.4025 	 126.378
| 17> H 	 -61.7274 	 64.5959 	 125.354
| 18> H 	 -62.8279 	 65.267 	 126.394
| 19> C 	 -60.9711 	 64.6712 	 127.263
| 20> H 	 -61.1524 	 64.4007 	 128.293
| 21> H 	 -60.144 	 64.0051 	 127.011
| 22> H 	 -60.682 	 65.6976 	 127.363
| 23> S 	 -62.9098 	 58.8911 	 122.059
| 24> C 	 -63.4754 	 57.2276 	 121.988
| 25> C 	 -64.5241 	 57.0398 	 122.851
| 26> C 	 -64.8215 	 58.2132 	 123.612
| 27> C 	 -63.9325 	 59.2742 	 123.405
| 28> H 	 -65.1464 	 56.1301 	 122.756
| 29> C 	 -65.9172 	 58.22 	 124.626
| 30> H 	 -65.5523 	 58.4051 	 125.665
| 31> H 	 -66.2724 	 57.163 	 124.785
| 32> C 	 -67.08 	 59.1291 	 124.309
| 33> H 	 -67.4692 	 58.922 	 123.294
| 34> H 	 -66.8236 	 60.1638 	 124.376
| 35> C 	 -68.2976 	 58.9716 	 125.234
| 36> H 	 -68.7517 	 57.9647 	 125.089
| 37> H 	 -68.9005 	 59.9033 	 125.288
| 38> H 	 -68.043 	 58.9845 	 126.263
| 39> H 	 -64.3296 	 64.0918 	 124.531
| 40> H 	 -63.1163 	 56.4745 	 121.253
| 41> *
| 42>
| 43>                          ****END OF INPUT****

CARTESIAN COORDINATES (ANGSTROEM)
---------------------------------
  S    -64.618500   61.981800  123.114000
  C    -64.119500   63.091000  124.397000
  C    -63.489900   62.441000  125.413000
  C    -63.241400   61.086100  125.041000
  C    -63.896400   60.647200  123.910000
  H    -62.807700   60.294900  125.597000
  C    -62.895900   63.117800  126.646000
  H    -62.230700   62.379600  126.984000
  H    -63.580900   63.320500  127.440000
  C    -62.109700   64.402500  126.378000
  H    -61.727400   64.595900  125.354000
  H    -62.827900   65.267000  126.394000
  C    -60.971100   64.671200  127.263000
  H    -61.152400   64.400700  128.293000
  H    -60.144000   64.005100  127.011000
  H    -60.682000   65.697600  127.363000
  S    -62.909800   58.891100  122.059000
  C    -63.475400   57.227600  121.988000
  C    -64.524100   57.039800  122.851000
  C    -64.821500   58.213200  123.612000
  C    -63.932500   59.274200  123.405000
  H    -65.146400   56.130100  122.756000
  C    -65.917200   58.220000  124.626000
  H    -65.552300   58.405100  125.665000
  H    -66.272400   57.163000  124.785000
  C    -67.080000   59.129100  124.309000
  H    -67.469200   58.922000  123.294000
  H    -66.823600   60.163800  124.376000
  C    -68.297600   58.971600  125.234000
  H    -68.751700   57.964700  125.089000
  H    -68.900500   59.903300  125.288000
  H    -68.043000   58.984500  126.263000
  H    -64.329600   64.091800  124.531000
  H    -63.116300   56.474500  121.253000

 Total Charge           Charge          ....    0
 Multiplicity           Mult            ....    1
 Number of Electrons    NEL             ....  134
 Basis Dimension        Dim             ....  322

ORBITAL ENERGIES
----------------

  NO   OCC          E(Eh)            E(eV)
   0   2.0000     -88.967752     -2420.9356
   1   2.0000     -88.964116     -2420.8367
   2   2.0000     -10.325629      -280.9746
   3   2.0000     -10.325420      -280.9690
   4   2.0000     -10.320804      -280.8434
   5   2.0000     -10.306721      -280.4601
   6   2.0000     -10.304256      -280.3931
   7   2.0000     -10.299486      -280.2633
   8   2.0000     -10.295786      -280.1626
   9   2.0000     -10.290831      -280.0278
  10   2.0000     -10.290494      -280.0186
  11   2.0000     -10.288989      -279.9776
  12   2.0000     -10.286721      -279.9159
  13   2.0000     -10.278283      -279.6863
  14   2.0000     -10.274078      -279.5719
  15   2.0000     -10.271645      -279.5057
  16   2.0000      -8.082317      -219.9310
  17   2.0000      -8.079113      -219.8439
  18   2.0000      -6.040824      -164.3792
  19   2.0000      -6.037587      -164.2911
  20   2.0000      -6.036784      -164.2692
  21   2.0000      -6.033490      -164.1796
  22   2.0000      -6.033120      -164.1696
  23   2.0000      -6.029979      -164.0841
  24   2.0000      -1.010334       -27.4926
  25   2.0000      -0.988090       -26.8873
  26   2.0000      -0.919374       -25.0174
  27   2.0000      -0.907843       -24.7037
  28   2.0000      -0.874881       -23.8067
  29   2.0000      -0.851400       -23.1678
  30   2.0000      -0.848085       -23.0776
  31   2.0000      -0.818612       -22.2756
  32   2.0000      -0.788185       -21.4476
  33   2.0000      -0.770154       -20.9569
  34   2.0000      -0.712388       -19.3851
  35   2.0000      -0.702674       -19.1207
  36   2.0000      -0.688709       -18.7407
  37   2.0000      -0.659074       -17.9343
  38   2.0000      -0.647999       -17.6329
  39   2.0000      -0.615015       -16.7354
  40   2.0000      -0.596810       -16.2400
  41   2.0000      -0.575172       -15.6512
  42   2.0000      -0.568895       -15.4804
  43   2.0000      -0.565230       -15.3807
  44   2.0000      -0.525837       -14.3088
  45   2.0000      -0.524546       -14.2736
  46   2.0000      -0.518475       -14.1084
  47   2.0000      -0.511847       -13.9281
  48   2.0000      -0.507128       -13.7997
  49   2.0000      -0.502444       -13.6722
  50   2.0000      -0.498383       -13.5617
  51   2.0000      -0.480599       -13.0778
  52   2.0000      -0.475624       -12.9424
  53   2.0000      -0.469022       -12.7627
  54   2.0000      -0.457737       -12.4557
  55   2.0000      -0.450560       -12.2604
  56   2.0000      -0.439260       -11.9529
  57   2.0000      -0.435696       -11.8559
  58   2.0000      -0.424988       -11.5645
  59   2.0000      -0.423527       -11.5248
  60   2.0000      -0.420799       -11.4505
  61   2.0000      -0.407165       -11.0795
  62   2.0000      -0.403764       -10.9870
  63   2.0000      -0.337308        -9.1786
  64   2.0000      -0.331058        -9.0085
  65   2.0000      -0.321879        -8.7588
  66   2.0000      -0.312292        -8.4979
  67   0.0000       0.043947         1.1958
  68   0.0000       0.052306         1.4233
  69   0.0000       0.118956         3.2370
  70   0.0000       0.125899         3.4259
  71   0.0000       0.131200         3.5701

MULLIKEN ATOMIC CHARGES
-----------------------
   0 S :    0.131153
   1 C :   -0.079699
   2 C :   -0.107853
   3 C :    0.059182
   4 C :   -0.180179
   5 H :   -0.003433
   6 C :    0.144980
   7 H :    0.005801
   8 H :    0.039334
   9 C :   -0.116152
  10 H :    0.034213
  11 H :    0.019628
  12 C :   -0.028573
  13 H :    0.008261
  14 H :    0.033886
  15 H :    0.030283
  16 S :    0.109916
  17 C :   -0.108319
  18 C :   -0.039114
  19 C :   -0.014482
  20 C :   -0.176702
  21 H :    0.036981
  22 C :    0.049617
  23 H :    0.031317
  24 H :    0.009042
  25 C :   -0.068746
  26 H :    0.032464
  27 H :    0.030348
  28 C :   -0.042863
  29 H :    0.038483
  30 H :    0.036833
  31 H :    0.000416
  32 H :    0.011343
  33 H :    0.072633
Sum of atomic charges:    0.0000000

LOEWDIN ATOMIC CHARGES
----------------------
   0 S :    0.421833
   1 C :   -0.178400
   2 C :   -0.058908
   3 C :   -0.058199
   4 C :   -0.213006
   5 H :    0.025479
   6 C :   -0.020310
   7 H :    0.025068
   8 H :    0.035008
   9 C :   -0.054673
  10 H :    0.029344
  11 H :    0.023104
  12 C :   -0.066144
  13 H :    0.020232
  14 H :    0.028415
  15 H :    0.027593
  16 S :    0.416558
  17 C :   -0.185477
  18 C :   -0.080926
  19 C :   -0.052799
  20 C :   -0.211232
  21 H :    0.040526
  22 C :   -0.042406
  23 H :    0.035717
  24 H :    0.030504
  25 C :   -0.041707
  26 H :    0.027680
  27 H :    0.018621
  28 C :   -0.076239
  29 H :    0.029378
  30 H :    0.036306
  31 H :    0.015601
  32 H :    0.014495
  33 H :    0.038963

  Mayer bond orders larger than 0.100000
B(  0-S ,  1-C ) :   1.1362 B(  0-S ,  4-C ) :   1.1498 B(  1-C ,  2-C ) :   1.6344
B(  1-C , 32-H ) :   0.9712 B(  2-C ,  3-C ) :   1.2367 B(  2-C ,  6-C ) :   1.0093
B(  3-C ,  4-C ) :   1.6118 B(  3-C ,  5-H ) :   0.9859 B(  4-C , 20-C ) :   1.0133
B(  6-C ,  7-H ) :   0.9479 B(  6-C ,  8-H ) :   0.9236 B(  6-C ,  9-C ) :   1.0507
B(  9-C , 10-H ) :   0.9606 B(  9-C , 11-H ) :   0.9488 B(  9-C , 12-C ) :   1.1018
B( 12-C , 13-H ) :   0.9700 B( 12-C , 14-H ) :   0.9707 B( 12-C , 15-H ) :   0.9691
B( 16-S , 17-C ) :   1.1695 B( 16-S , 20-C ) :   1.1546 B( 17-C , 18-C ) :   1.5967
B( 17-C , 20-C ) :   0.1024 B( 17-C , 33-H ) :   0.9613 B( 18-C , 19-C ) :   1.2674
B( 18-C , 21-H ) :   0.9822 B( 19-C , 20-C ) :   1.5759 B( 19-C , 22-C ) :   1.0446
B( 22-C , 23-H ) :   0.9309 B( 22-C , 24-H ) :   0.9366 B( 22-C , 25-C ) :   1.0593
B( 25-C , 26-H ) :   0.9572 B( 25-C , 27-H ) :   0.9530 B( 25-C , 28-C ) :   1.0923
B( 28-C , 29-H ) :   0.9738 B( 28-C , 30-H ) :   0.9711 B( 28-C , 31-H ) :   0.9656

Dispersion correction           -0.014153466
FINAL SINGLE POINT ENERGY     -1339.863756369567

DIPOLE MOMENT
-------------
                                X             Y             Z
Electronic contribution:      5.28331      -7.82227     -20.72567
Nuclear contribution   :     -5.37100       7.82460      21.25065
                        -----------------------------------------
Total Dipole Moment    :     -0.08770       0.00233       0.52498
                        -----------------------------------------
Magnitude (a.u.)       :      0.53226
Magnitude (Debye)      :      1.35290

Rotational constants in cm-1:     0.020450     0.007687     0.006481
Rotational constants in MHz :   613.062921   230.461042   194.304889

                             ****ORCA TERMINATED NORMALLY****
TOTAL RUN TIME: 0 days 0 hours 0 minutes 33 seconds 101 msec
