                         Program Version 4.2.1 -  RELEASE  -
|  1> ! wB97X-D3 SP def2-SVP
|  2> %pal
|  3> nprocs 16
|  4> end
|  5>
|  6> * xyz 0 1
|  7> S 	 -66.045 	 39.5653 	 131.005
|  8> C 	 -66.9414 	 39.8168 	 132.507
|  9> C 	 -66.5117 	 40.9833 	 133.165
| 10> C 	 -65.4701 	 41.6188 	 132.405
| 11> C 	 -65.0916 	 40.9927 	 131.248
| 12> H 	 -64.9055 	 42.4505 	 132.734
| 13> C 	 -66.779 	 41.2507 	 134.627
| 14> H 	 -67.7588 	 41.5667 	 134.718
| 15> H 	 -66.1758 	 42.138 	 134.865
| 16> C 	 -66.4612 	 40.11 	 135.664
| 17> H 	 -66.6704 	 40.3577 	 136.672
| 18> H 	 -67.1039 	 39.2307 	 135.482
| 19> C 	 -65.0255 	 39.5541 	 135.474
| 20> H 	 -64.3077 	 40.3143 	 135.161
| 21> H 	 -64.643 	 39.2313 	 136.517
| 22> H 	 -65.0961 	 38.7596 	 134.807
| 23> S 	 -62.5676 	 39.9996 	 130.798
| 24> C 	 -61.5717 	 40.7471 	 129.56
| 25> C 	 -62.1894 	 41.8695 	 129.035
| 26> C 	 -63.4212 	 42.2503 	 129.655
| 27> C 	 -63.854 	 41.1939 	 130.48
| 28> H 	 -61.6659 	 42.2766 	 128.118
| 29> C 	 -64.0873 	 43.5214 	 129.267
| 30> H 	 -63.3307 	 44.1518 	 128.746
| 31> H 	 -64.3918 	 44.1773 	 130.093
| 32> C 	 -65.1264 	 43.4315 	 128.149
| 33> H 	 -64.7003 	 42.9208 	 127.196
| 34> H 	 -65.2642 	 44.4465 	 127.91
| 35> C 	 -66.416 	 42.7932 	 128.633
| 36> H 	 -66.2164 	 41.8381 	 128.913
| 37> H 	 -67.1512 	 42.6481 	 127.817
| 38> H 	 -66.8797 	 43.2924 	 129.561
| 39> H 	 -67.6646 	 39.0454 	 132.9
| 40> H 	 -60.7029 	 40.3623 	 129.047
| 41> *
| 42>
| 43>                          ****END OF INPUT****

CARTESIAN COORDINATES (ANGSTROEM)
---------------------------------
  S    -66.045000   39.565300  131.005000
  C    -66.941400   39.816800  132.507000
  C    -66.511700   40.983300  133.165000
  C    -65.470100   41.618800  132.405000
  C    -65.091600   40.992700  131.248000
  H    -64.905500   42.450500  132.734000
  C    -66.779000   41.250700  134.627000
  H    -67.758800   41.566700  134.718000
  H    -66.175800   42.138000  134.865000
  C    -66.461200   40.110000  135.664000
  H    -66.670400   40.357700  136.672000
  H    -67.103900   39.230700  135.482000
  C    -65.025500   39.554100  135.474000
  H    -64.307700   40.314300  135.161000
  H    -64.643000   39.231300  136.517000
  H    -65.096100   38.759600  134.807000
  S    -62.567600   39.999600  130.798000
  C    -61.571700   40.747100  129.560000
  C    -62.189400   41.869500  129.035000
  C    -63.421200   42.250300  129.655000
  C    -63.854000   41.193900  130.480000
  H    -61.665900   42.276600  128.118000
  C    -64.087300   43.521400  129.267000
  H    -63.330700   44.151800  128.746000
  H    -64.391800   44.177300  130.093000
  C    -65.126400   43.431500  128.149000
  H    -64.700300   42.920800  127.196000
  H    -65.264200   44.446500  127.910000
  C    -66.416000   42.793200  128.633000
  H    -66.216400   41.838100  128.913000
  H    -67.151200   42.648100  127.817000
  H    -66.879700   43.292400  129.561000
  H    -67.664600   39.045400  132.900000
  H    -60.702900   40.362300  129.047000

 Total Charge           Charge          ....    0
 Multiplicity           Mult            ....    1
 Number of Electrons    NEL             ....  134
 Basis Dimension        Dim             ....  322

ORBITAL ENERGIES
----------------

  NO   OCC          E(Eh)            E(eV)
   0   2.0000     -88.967257     -2420.9221
   1   2.0000     -88.967103     -2420.9180
   2   2.0000     -10.332520      -281.1622
   3   2.0000     -10.326124      -280.9881
   4   2.0000     -10.322654      -280.8937
   5   2.0000     -10.313438      -280.6429
   6   2.0000     -10.308174      -280.4997
   7   2.0000     -10.305263      -280.4205
   8   2.0000     -10.296029      -280.1692
   9   2.0000     -10.292481      -280.0727
  10   2.0000     -10.292383      -280.0700
  11   2.0000     -10.290041      -280.0062
  12   2.0000     -10.288367      -279.9607
  13   2.0000     -10.286600      -279.9126
  14   2.0000     -10.275310      -279.6054
  15   2.0000     -10.266568      -279.3675
  16   2.0000      -8.081598      -219.9115
  17   2.0000      -8.080987      -219.8948
  18   2.0000      -6.040000      -164.3568
  19   2.0000      -6.039656      -164.3474
  20   2.0000      -6.036037      -164.2489
  21   2.0000      -6.035618      -164.2375
  22   2.0000      -6.032601      -164.1554
  23   2.0000      -6.031611      -164.1285
  24   2.0000      -1.004147       -27.3242
  25   2.0000      -0.980357       -26.6769
  26   2.0000      -0.912573       -24.8324
  27   2.0000      -0.908205       -24.7135
  28   2.0000      -0.862456       -23.4686
  29   2.0000      -0.847864       -23.0716
  30   2.0000      -0.844791       -22.9879
  31   2.0000      -0.810913       -22.0661
  32   2.0000      -0.785681       -21.3795
  33   2.0000      -0.772933       -21.0326
  34   2.0000      -0.704511       -19.1707
  35   2.0000      -0.703938       -19.1551
  36   2.0000      -0.687297       -18.7023
  37   2.0000      -0.651962       -17.7408
  38   2.0000      -0.641351       -17.4521
  39   2.0000      -0.614136       -16.7115
  40   2.0000      -0.596495       -16.2315
  41   2.0000      -0.570932       -15.5358
  42   2.0000      -0.549810       -14.9611
  43   2.0000      -0.546074       -14.8594
  44   2.0000      -0.541753       -14.7419
  45   2.0000      -0.533950       -14.5295
  46   2.0000      -0.515971       -14.0403
  47   2.0000      -0.510675       -13.8962
  48   2.0000      -0.503294       -13.6953
  49   2.0000      -0.495008       -13.4699
  50   2.0000      -0.489638       -13.3237
  51   2.0000      -0.472227       -12.8499
  52   2.0000      -0.468699       -12.7540
  53   2.0000      -0.463215       -12.6047
  54   2.0000      -0.460204       -12.5228
  55   2.0000      -0.441747       -12.0205
  56   2.0000      -0.437985       -11.9182
  57   2.0000      -0.433288       -11.7904
  58   2.0000      -0.431741       -11.7483
  59   2.0000      -0.424413       -11.5489
  60   2.0000      -0.418781       -11.3956
  61   2.0000      -0.415245       -11.2994
  62   2.0000      -0.410241       -11.1632
  63   2.0000      -0.339651        -9.2424
  64   2.0000      -0.328586        -8.9413
  65   2.0000      -0.324765        -8.8373
  66   2.0000      -0.299628        -8.1533
  67   0.0000       0.030502         0.8300
  68   0.0000       0.058442         1.5903
  69   0.0000       0.107430         2.9233
  70   0.0000       0.119795         3.2598
  71   0.0000       0.124384         3.3847

MULLIKEN ATOMIC CHARGES
-----------------------
   0 S :    0.113421
   1 C :   -0.163626
   2 C :   -0.094327
   3 C :    0.060976
   4 C :   -0.180825
   5 H :   -0.002557
   6 C :    0.097662
   7 H :    0.016815
   8 H :    0.020219
   9 C :   -0.065945
  10 H :    0.024583
  11 H :    0.021553
  12 C :   -0.055404
  13 H :    0.036513
  14 H :    0.037841
  15 H :    0.033549
  16 S :    0.117717
  17 C :   -0.087665
  18 C :   -0.079030
  19 C :    0.019080
  20 C :   -0.178775
  21 H :    0.041915
  22 C :    0.028107
  23 H :    0.019187
  24 H :    0.038309
  25 C :   -0.062147
  26 H :    0.038863
  27 H :    0.016341
  28 C :   -0.008095
  29 H :   -0.004431
  30 H :    0.030887
  31 H :    0.039250
  32 H :    0.078328
  33 H :    0.051711
Sum of atomic charges:   -0.0000000

LOEWDIN ATOMIC CHARGES
----------------------
   0 S :    0.413242
   1 C :   -0.198049
   2 C :   -0.065643
   3 C :   -0.054768
   4 C :   -0.209469
   5 H :    0.024825
   6 C :   -0.026813
   7 H :    0.021979
   8 H :    0.031235
   9 C :   -0.034875
  10 H :    0.018099
  11 H :    0.023644
  12 C :   -0.062282
  13 H :    0.024338
  14 H :    0.035510
  15 H :    0.017118
  16 S :    0.394759
  17 C :   -0.195522
  18 C :   -0.076085
  19 C :   -0.053427
  20 C :   -0.189068
  21 H :    0.042007
  22 C :   -0.039968
  23 H :    0.038403
  24 H :    0.034639
  25 C :   -0.034600
  26 H :    0.035636
  27 H :    0.015061
  28 C :   -0.068475
  29 H :    0.002901
  30 H :    0.028473
  31 H :    0.037058
  32 H :    0.039225
  33 H :    0.030891

  Mayer bond orders larger than 0.100000
B(  0-S ,  1-C ) :   1.1563 B(  0-S ,  4-C ) :   1.1528 B(  1-C ,  2-C ) :   1.5785
B(  1-C , 32-H ) :   0.9640 B(  2-C ,  3-C ) :   1.2527 B(  2-C ,  6-C ) :   1.0215
B(  3-C ,  4-C ) :   1.5894 B(  3-C ,  5-H ) :   0.9967 B(  4-C , 20-C ) :   1.0115
B(  6-C ,  7-H ) :   0.9278 B(  6-C ,  8-H ) :   0.9468 B(  6-C ,  9-C ) :   1.0694
B(  9-C , 10-H ) :   0.9639 B(  9-C , 11-H ) :   0.9590 B(  9-C , 12-C ) :   1.0595
B( 12-C , 13-H ) :   0.9819 B( 12-C , 14-H ) :   0.9765 B( 12-C , 15-H ) :   0.9792
B( 16-S , 17-C ) :   1.1314 B( 16-S , 20-C ) :   1.1473 B( 17-C , 18-C ) :   1.6690
B( 17-C , 20-C ) :   0.1019 B( 17-C , 33-H ) :   0.9610 B( 18-C , 19-C ) :   1.2143
B( 18-C , 21-H ) :   0.9719 B( 19-C , 20-C ) :   1.5898 B( 19-C , 22-C ) :   1.0511
B( 22-C , 23-H ) :   0.9277 B( 22-C , 24-H ) :   0.9339 B( 22-C , 25-C ) :   1.0797
B( 25-C , 26-H ) :   0.9504 B( 25-C , 27-H ) :   0.9531 B( 25-C , 28-C ) :   1.0812
B( 28-C , 29-H ) :   0.9658 B( 28-C , 30-H ) :   0.9685 B( 28-C , 31-H ) :   0.9700

Dispersion correction           -0.015947262
FINAL SINGLE POINT ENERGY     -1339.854080668318

DIPOLE MOMENT
-------------
                                X             Y             Z
Electronic contribution:      7.90051      -9.80696      -7.05284
Nuclear contribution   :     -7.90897      10.12226       7.23207
                        -----------------------------------------
Total Dipole Moment    :     -0.00846       0.31530       0.17922
                        -----------------------------------------
Magnitude (a.u.)       :      0.36277
Magnitude (Debye)      :      0.92210

Rotational constants in cm-1:     0.021518     0.009087     0.007626
Rotational constants in MHz :   645.102039   272.423748   228.608174

                             ****ORCA TERMINATED NORMALLY****
TOTAL RUN TIME: 0 days 0 hours 0 minutes 37 seconds 285 msec
