                         Program Version 4.2.1 -  RELEASE  -
|  1> ! wB97X-D3 SP def2-SVP
|  2> %pal
|  3> nprocs 16
|  4> end
|  5>
|  6> * xyz 0 1
|  7> S 	 0.0474363 	 -18.3293 	 84.8802
|  8> C 	 -0.42014 	 -19.3746 	 83.5851
|  9> C 	 0.637374 	 -19.9964 	 83.0416
| 10> C 	 1.90936 	 -19.5347 	 83.5366
| 11> C 	 1.75293 	 -18.5986 	 84.5151
| 12> H 	 2.89957 	 -19.8514 	 83.2379
| 13> C 	 0.463705 	 -21.0934 	 81.998
| 14> H 	 1.05371 	 -20.7405 	 81.1478
| 15> H 	 -0.618727 	 -21.1812 	 81.7681
| 16> C 	 0.925622 	 -22.4473 	 82.4802
| 17> H 	 0.788254 	 -23.1119 	 81.6038
| 18> H 	 1.9941 	 -22.365 	 82.7454
| 19> C 	 0.154052 	 -22.8554 	 83.7254
| 20> H 	 0.586467 	 -22.533 	 84.702
| 21> H 	 -0.949616 	 -22.6216 	 83.7124
| 22> H 	 0.180538 	 -23.9671 	 83.7105
| 23> S 	 3.22833 	 -18.8633 	 86.8952
| 24> C 	 4.80719 	 -18.1111 	 86.9915
| 25> C 	 4.95903 	 -17.2034 	 85.9369
| 26> C 	 3.8962 	 -17.248 	 84.9563
| 27> C 	 2.87622 	 -18.1434 	 85.2817
| 28> H 	 5.79756 	 -16.5232 	 85.889
| 29> C 	 3.99211 	 -16.4301 	 83.6703
| 30> H 	 3.88026 	 -15.4656 	 84.0469
| 31> H 	 3.10214 	 -16.6156 	 83.0332
| 32> C 	 5.23213 	 -16.5815 	 82.7673
| 33> H 	 6.14867 	 -16.6084 	 83.3
| 34> H 	 5.29265 	 -15.6528 	 82.1461
| 35> C 	 5.27623 	 -17.9066 	 81.8273
| 36> H 	 5.05927 	 -17.7248 	 80.7652
| 37> H 	 4.60712 	 -18.6097 	 82.2421
| 38> H 	 6.23322 	 -18.3201 	 81.7739
| 39> H 	 -1.42603 	 -19.4202 	 83.1914
| 40> H 	 5.62144 	 -18.2682 	 87.6938
| 41> *
| 42>
| 43>                          ****END OF INPUT****

CARTESIAN COORDINATES (ANGSTROEM)
---------------------------------
  S      0.047436  -18.329300   84.880200
  C     -0.420140  -19.374600   83.585100
  C      0.637374  -19.996400   83.041600
  C      1.909360  -19.534700   83.536600
  C      1.752930  -18.598600   84.515100
  H      2.899570  -19.851400   83.237900
  C      0.463705  -21.093400   81.998000
  H      1.053710  -20.740500   81.147800
  H     -0.618727  -21.181200   81.768100
  C      0.925622  -22.447300   82.480200
  H      0.788254  -23.111900   81.603800
  H      1.994100  -22.365000   82.745400
  C      0.154052  -22.855400   83.725400
  H      0.586467  -22.533000   84.702000
  H     -0.949616  -22.621600   83.712400
  H      0.180538  -23.967100   83.710500
  S      3.228330  -18.863300   86.895200
  C      4.807190  -18.111100   86.991500
  C      4.959030  -17.203400   85.936900
  C      3.896200  -17.248000   84.956300
  C      2.876220  -18.143400   85.281700
  H      5.797560  -16.523200   85.889000
  C      3.992110  -16.430100   83.670300
  H      3.880260  -15.465600   84.046900
  H      3.102140  -16.615600   83.033200
  C      5.232130  -16.581500   82.767300
  H      6.148670  -16.608400   83.300000
  H      5.292650  -15.652800   82.146100
  C      5.276230  -17.906600   81.827300
  H      5.059270  -17.724800   80.765200
  H      4.607120  -18.609700   82.242100
  H      6.233220  -18.320100   81.773900
  H     -1.426030  -19.420200   83.191400
  H      5.621440  -18.268200   87.693800

 Total Charge           Charge          ....    0
 Multiplicity           Mult            ....    1
 Number of Electrons    NEL             ....  134
 Basis Dimension        Dim             ....  322

ORBITAL ENERGIES
----------------

  NO   OCC          E(Eh)            E(eV)
   0   2.0000     -88.963585     -2420.8222
   1   2.0000     -88.963288     -2420.8141
   2   2.0000     -10.326789      -281.0062
   3   2.0000     -10.326122      -280.9881
   4   2.0000     -10.321741      -280.8689
   5   2.0000     -10.307628      -280.4848
   6   2.0000     -10.305494      -280.4267
   7   2.0000     -10.295143      -280.1451
   8   2.0000     -10.295104      -280.1440
   9   2.0000     -10.294756      -280.1346
  10   2.0000     -10.292812      -280.0817
  11   2.0000     -10.289136      -279.9816
  12   2.0000     -10.289136      -279.9816
  13   2.0000     -10.288248      -279.9575
  14   2.0000     -10.281918      -279.7852
  15   2.0000     -10.274977      -279.5963
  16   2.0000      -8.078499      -219.8271
  17   2.0000      -8.077508      -219.8002
  18   2.0000      -6.037072      -164.2771
  19   2.0000      -6.036206      -164.2535
  20   2.0000      -6.033009      -164.1665
  21   2.0000      -6.032096      -164.1417
  22   2.0000      -6.029089      -164.0599
  23   2.0000      -6.028131      -164.0338
  24   2.0000      -1.006988       -27.4015
  25   2.0000      -0.980048       -26.6685
  26   2.0000      -0.915814       -24.9206
  27   2.0000      -0.900000       -24.4902
  28   2.0000      -0.873607       -23.7721
  29   2.0000      -0.844200       -22.9718
  30   2.0000      -0.840102       -22.8603
  31   2.0000      -0.812754       -22.1161
  32   2.0000      -0.783715       -21.3260
  33   2.0000      -0.772829       -21.0297
  34   2.0000      -0.713260       -19.4088
  35   2.0000      -0.699877       -19.0446
  36   2.0000      -0.687327       -18.7031
  37   2.0000      -0.654627       -17.8133
  38   2.0000      -0.644872       -17.5479
  39   2.0000      -0.618189       -16.8218
  40   2.0000      -0.591504       -16.0956
  41   2.0000      -0.565618       -15.3912
  42   2.0000      -0.557503       -15.1704
  43   2.0000      -0.555258       -15.1093
  44   2.0000      -0.543692       -14.7946
  45   2.0000      -0.531059       -14.4508
  46   2.0000      -0.518459       -14.1080
  47   2.0000      -0.511900       -13.9295
  48   2.0000      -0.505149       -13.7458
  49   2.0000      -0.496148       -13.5009
  50   2.0000      -0.487940       -13.2775
  51   2.0000      -0.474004       -12.8983
  52   2.0000      -0.470100       -12.7921
  53   2.0000      -0.461935       -12.5699
  54   2.0000      -0.461382       -12.5548
  55   2.0000      -0.450640       -12.2625
  56   2.0000      -0.445060       -12.1107
  57   2.0000      -0.437597       -11.9076
  58   2.0000      -0.425694       -11.5837
  59   2.0000      -0.425193       -11.5701
  60   2.0000      -0.418222       -11.3804
  61   2.0000      -0.411385       -11.1944
  62   2.0000      -0.409906       -11.1541
  63   2.0000      -0.340793        -9.2735
  64   2.0000      -0.326863        -8.8944
  65   2.0000      -0.324905        -8.8411
  66   2.0000      -0.301896        -8.2150
  67   0.0000       0.044747         1.2176
  68   0.0000       0.050994         1.3876
  69   0.0000       0.120262         3.2725
  70   0.0000       0.122416         3.3311
  71   0.0000       0.127879         3.4798

MULLIKEN ATOMIC CHARGES
-----------------------
   0 S :    0.107519
   1 C :   -0.131021
   2 C :   -0.082753
   3 C :    0.029726
   4 C :   -0.171096
   5 H :    0.027515
   6 C :    0.065429
   7 H :    0.031745
   8 H :    0.018394
   9 C :   -0.072128
  10 H :    0.042596
  11 H :    0.035841
  12 C :   -0.079332
  13 H :    0.057478
  14 H :    0.034308
  15 H :    0.031774
  16 S :    0.104011
  17 C :   -0.093005
  18 C :   -0.041282
  19 C :   -0.040648
  20 C :   -0.172650
  21 H :    0.019551
  22 C :    0.085943
  23 H :    0.021820
  24 H :    0.037075
  25 C :   -0.078475
  26 H :    0.020122
  27 H :    0.036648
  28 C :   -0.023426
  29 H :    0.035584
  30 H :    0.010066
  31 H :    0.018166
  32 H :    0.050565
  33 H :    0.063939
Sum of atomic charges:   -0.0000000

LOEWDIN ATOMIC CHARGES
----------------------
   0 S :    0.398504
   1 C :   -0.198600
   2 C :   -0.066777
   3 C :   -0.048987
   4 C :   -0.193999
   5 H :    0.031462
   6 C :   -0.031404
   7 H :    0.028966
   8 H :    0.027945
   9 C :   -0.046556
  10 H :    0.029425
  11 H :    0.027875
  12 C :   -0.076037
  13 H :    0.035418
  14 H :    0.027934
  15 H :    0.029287
  16 S :    0.381847
  17 C :   -0.185102
  18 C :   -0.074928
  19 C :   -0.051943
  20 C :   -0.190591
  21 H :    0.027798
  22 C :   -0.031574
  23 H :    0.029053
  24 H :    0.037073
  25 C :   -0.034175
  26 H :    0.015228
  27 H :    0.030972
  28 C :   -0.059423
  29 H :    0.029646
  30 H :    0.016471
  31 H :    0.018845
  32 H :    0.030328
  33 H :    0.036018

  Mayer bond orders larger than 0.100000
B(  0-S ,  1-C ) :   1.1248 B(  0-S ,  4-C ) :   1.1361 B(  1-C ,  2-C ) :   1.6486
B(  1-C , 32-H ) :   0.9650 B(  2-C ,  3-C ) :   1.2060 B(  2-C ,  6-C ) :   1.0171
B(  3-C ,  4-C ) :   1.5984 B(  3-C ,  5-H ) :   0.9897 B(  4-C , 20-C ) :   1.0458
B(  6-C ,  7-H ) :   0.9371 B(  6-C ,  8-H ) :   0.9435 B(  6-C ,  9-C ) :   1.0829
B(  9-C , 10-H ) :   0.9595 B(  9-C , 11-H ) :   0.9516 B(  9-C , 12-C ) :   1.0613
B( 12-C , 13-H ) :   0.9715 B( 12-C , 14-H ) :   0.9771 B( 12-C , 15-H ) :   0.9733
B( 16-S , 17-C ) :   1.1526 B( 16-S , 20-C ) :   1.1134 B( 17-C , 18-C ) :   1.6157
B( 17-C , 33-H ) :   0.9665 B( 18-C , 19-C ) :   1.2322 B( 18-C , 21-H ) :   0.9865
B( 19-C , 20-C ) :   1.6135 B( 19-C , 22-C ) :   1.0316 B( 22-C , 23-H ) :   0.9269
B( 22-C , 24-H ) :   0.9384 B( 22-C , 25-C ) :   1.0737 B( 25-C , 26-H ) :   0.9653
B( 25-C , 27-H ) :   0.9598 B( 25-C , 28-C ) :   1.0493 B( 28-C , 29-H ) :   0.9769
B( 28-C , 30-H ) :   0.9846 B( 28-C , 31-H ) :   0.9769

Dispersion correction           -0.015286549
FINAL SINGLE POINT ENERGY     -1339.873484381184

DIPOLE MOMENT
-------------
                                X             Y             Z
Electronic contribution:     -6.79112       8.62853      19.61940
Nuclear contribution   :      7.15509      -8.74496     -20.19159
                        -----------------------------------------
Total Dipole Moment    :      0.36397      -0.11643      -0.57218
                        -----------------------------------------
Magnitude (a.u.)       :      0.68806
Magnitude (Debye)      :      1.74890

Rotational constants in cm-1:     0.018631     0.008998     0.007747
Rotational constants in MHz :   558.531552   269.755720   232.247477

                             ****ORCA TERMINATED NORMALLY****
TOTAL RUN TIME: 0 days 0 hours 0 minutes 34 seconds 975 msec
