                         Program Version 4.2.1 -  RELEASE  -
|  1> ! wB97X-D3 SP def2-SVP
|  2> %pal
|  3> nprocs 16
|  4> end
|  5>
|  6> * xyz 0 1
|  7> S 	 32.8656 	 27.8807 	 52.964
|  8> C 	 33.657 	 28.9124 	 51.8068
|  9> C 	 34.8589 	 28.4671 	 51.3131
| 10> C 	 35.1439 	 27.1339 	 51.886
| 11> C 	 34.1654 	 26.6987 	 52.7194
| 12> H 	 35.9508 	 26.3862 	 51.6522
| 13> C 	 35.5775 	 29.1433 	 50.1587
| 14> H 	 35.3715 	 30.1664 	 50.2327
| 15> H 	 35.0021 	 28.831 	 49.2976
| 16> C 	 37.0039 	 28.8392 	 49.8441
| 17> H 	 37.1444 	 27.8594 	 49.4486
| 18> H 	 37.2491 	 29.5019 	 48.9478
| 19> C 	 37.9933 	 29.1298 	 51.0189
| 20> H 	 39.0331 	 28.9189 	 50.8377
| 21> H 	 38.0898 	 30.2184 	 51.2586
| 22> H 	 37.6594 	 28.7382 	 52.0126
| 23> S 	 33.7854 	 25.1953 	 54.9425
| 24> C 	 33.7333 	 23.4211 	 54.7482
| 25> C 	 33.9651 	 23.0453 	 53.4404
| 26> C 	 34.1563 	 24.1319 	 52.5169
| 27> C 	 34.039 	 25.3438 	 53.2241
| 28> H 	 33.9144 	 21.9764 	 53.1656
| 29> C 	 34.3366 	 23.8391 	 51.0311
| 30> H 	 34.6315 	 22.7943 	 50.9899
| 31> H 	 35.2171 	 24.425 	 50.769
| 32> C 	 33.1004 	 23.9529 	 50.115
| 33> H 	 32.6024 	 24.9303 	 50.0781
| 34> H 	 32.2874 	 23.4671 	 50.623
| 35> C 	 33.376 	 23.2732 	 48.7447
| 36> H 	 33.5445 	 22.268 	 48.8619
| 37> H 	 34.1292 	 23.7012 	 48.109
| 38> H 	 32.4077 	 23.1746 	 48.17
| 39> H 	 33.2115 	 29.7581 	 51.3627
| 40> H 	 33.3788 	 22.7975 	 55.5158
| 41> *
| 42>
| 43>                          ****END OF INPUT****

CARTESIAN COORDINATES (ANGSTROEM)
---------------------------------
  S     32.865600   27.880700   52.964000
  C     33.657000   28.912400   51.806800
  C     34.858900   28.467100   51.313100
  C     35.143900   27.133900   51.886000
  C     34.165400   26.698700   52.719400
  H     35.950800   26.386200   51.652200
  C     35.577500   29.143300   50.158700
  H     35.371500   30.166400   50.232700
  H     35.002100   28.831000   49.297600
  C     37.003900   28.839200   49.844100
  H     37.144400   27.859400   49.448600
  H     37.249100   29.501900   48.947800
  C     37.993300   29.129800   51.018900
  H     39.033100   28.918900   50.837700
  H     38.089800   30.218400   51.258600
  H     37.659400   28.738200   52.012600
  S     33.785400   25.195300   54.942500
  C     33.733300   23.421100   54.748200
  C     33.965100   23.045300   53.440400
  C     34.156300   24.131900   52.516900
  C     34.039000   25.343800   53.224100
  H     33.914400   21.976400   53.165600
  C     34.336600   23.839100   51.031100
  H     34.631500   22.794300   50.989900
  H     35.217100   24.425000   50.769000
  C     33.100400   23.952900   50.115000
  H     32.602400   24.930300   50.078100
  H     32.287400   23.467100   50.623000
  C     33.376000   23.273200   48.744700
  H     33.544500   22.268000   48.861900
  H     34.129200   23.701200   48.109000
  H     32.407700   23.174600   48.170000
  H     33.211500   29.758100   51.362700
  H     33.378800   22.797500   55.515800

 Total Charge           Charge          ....    0
 Multiplicity           Mult            ....    1
 Number of Electrons    NEL             ....  134
 Basis Dimension        Dim             ....  322

ORBITAL ENERGIES
----------------

  NO   OCC          E(Eh)            E(eV)
   0   2.0000     -88.965082     -2420.8630
   1   2.0000     -88.964415     -2420.8448
   2   2.0000     -10.325372      -280.9676
   3   2.0000     -10.322422      -280.8874
   4   2.0000     -10.313408      -280.6421
   5   2.0000     -10.305813      -280.4354
   6   2.0000     -10.304981      -280.4128
   7   2.0000     -10.304744      -280.4064
   8   2.0000     -10.298257      -280.2298
   9   2.0000     -10.296143      -280.1723
  10   2.0000     -10.294843      -280.1369
  11   2.0000     -10.294243      -280.1206
  12   2.0000     -10.288908      -279.9754
  13   2.0000     -10.287673      -279.9418
  14   2.0000     -10.281342      -279.7695
  15   2.0000     -10.277413      -279.6626
  16   2.0000      -8.079560      -219.8560
  17   2.0000      -8.079138      -219.8445
  18   2.0000      -6.037992      -164.3021
  19   2.0000      -6.037681      -164.2936
  20   2.0000      -6.034244      -164.2001
  21   2.0000      -6.033843      -164.1892
  22   2.0000      -6.030294      -164.0926
  23   2.0000      -6.029674      -164.0758
  24   2.0000      -1.002679       -27.2843
  25   2.0000      -0.977830       -26.6081
  26   2.0000      -0.914750       -24.8916
  27   2.0000      -0.906424       -24.6651
  28   2.0000      -0.868245       -23.6261
  29   2.0000      -0.851404       -23.1679
  30   2.0000      -0.840292       -22.8655
  31   2.0000      -0.814610       -22.1667
  32   2.0000      -0.785737       -21.3810
  33   2.0000      -0.773376       -21.0446
  34   2.0000      -0.716710       -19.5027
  35   2.0000      -0.705815       -19.2062
  36   2.0000      -0.690251       -18.7827
  37   2.0000      -0.660812       -17.9816
  38   2.0000      -0.640507       -17.4291
  39   2.0000      -0.614609       -16.7244
  40   2.0000      -0.593372       -16.1465
  41   2.0000      -0.562011       -15.2931
  42   2.0000      -0.560703       -15.2575
  43   2.0000      -0.552416       -15.0320
  44   2.0000      -0.535417       -14.5695
  45   2.0000      -0.527314       -14.3490
  46   2.0000      -0.515305       -14.0222
  47   2.0000      -0.512072       -13.9342
  48   2.0000      -0.501131       -13.6365
  49   2.0000      -0.491810       -13.3828
  50   2.0000      -0.487533       -13.2664
  51   2.0000      -0.480257       -13.0685
  52   2.0000      -0.466552       -12.6955
  53   2.0000      -0.462765       -12.5925
  54   2.0000      -0.458682       -12.4814
  55   2.0000      -0.452859       -12.3229
  56   2.0000      -0.445201       -12.1145
  57   2.0000      -0.438544       -11.9334
  58   2.0000      -0.434324       -11.8186
  59   2.0000      -0.432781       -11.7766
  60   2.0000      -0.425320       -11.5735
  61   2.0000      -0.414330       -11.2745
  62   2.0000      -0.411572       -11.1994
  63   2.0000      -0.344442        -9.3727
  64   2.0000      -0.331702        -9.0261
  65   2.0000      -0.326665        -8.8890
  66   2.0000      -0.289278        -7.8717
  67   0.0000       0.032656         0.8886
  68   0.0000       0.069826         1.9001
  69   0.0000       0.105806         2.8791
  70   0.0000       0.118469         3.2237
  71   0.0000       0.132764         3.6127

MULLIKEN ATOMIC CHARGES
-----------------------
   0 S :    0.112554
   1 C :   -0.098608
   2 C :   -0.107254
   3 C :    0.001263
   4 C :   -0.143147
   5 H :    0.038459
   6 C :    0.089350
   7 H :    0.010809
   8 H :    0.038240
   9 C :   -0.051102
  10 H :    0.025117
  11 H :    0.036328
  12 C :   -0.077622
  13 H :    0.032288
  14 H :    0.022931
  15 H :    0.049193
  16 S :    0.102250
  17 C :   -0.082977
  18 C :   -0.042763
  19 C :   -0.056092
  20 C :   -0.185714
  21 H :    0.028505
  22 C :    0.110175
  23 H :    0.006688
  24 H :    0.018751
  25 C :   -0.039299
  26 H :    0.035291
  27 H :    0.011708
  28 C :   -0.031799
  29 H :    0.008236
  30 H :    0.041608
  31 H :    0.030391
  32 H :    0.023163
  33 H :    0.043077
Sum of atomic charges:    0.0000000

LOEWDIN ATOMIC CHARGES
----------------------
   0 S :    0.387721
   1 C :   -0.194250
   2 C :   -0.054804
   3 C :   -0.067423
   4 C :   -0.191361
   5 H :    0.041786
   6 C :   -0.033356
   7 H :    0.025151
   8 H :    0.041659
   9 C :   -0.041512
  10 H :    0.019550
  11 H :    0.038538
  12 C :   -0.079851
  13 H :    0.023221
  14 H :    0.029662
  15 H :    0.032405
  16 S :    0.393110
  17 C :   -0.174339
  18 C :   -0.067906
  19 C :   -0.058609
  20 C :   -0.198544
  21 H :    0.035588
  22 C :   -0.028064
  23 H :    0.030923
  24 H :    0.027622
  25 C :   -0.039102
  26 H :    0.029731
  27 H :    0.025846
  28 C :   -0.063453
  29 H :    0.013526
  30 H :    0.024774
  31 H :    0.036869
  32 H :    0.017034
  33 H :    0.017856

  Mayer bond orders larger than 0.100000
B(  0-S ,  1-C ) :   1.1194 B(  0-S ,  4-C ) :   1.1208 B(  1-C ,  2-C ) :   1.6790
B(  1-C , 32-H ) :   0.9684 B(  2-C ,  3-C ) :   1.1600 B(  2-C ,  6-C ) :   1.0122
B(  3-C ,  4-C ) :   1.6561 B(  3-C ,  5-H ) :   0.9817 B(  4-C , 20-C ) :   1.0253
B(  6-C ,  7-H ) :   0.9348 B(  6-C ,  8-H ) :   0.9282 B(  6-C ,  9-C ) :   1.0924
B(  9-C , 10-H ) :   0.9504 B(  9-C , 11-H ) :   0.9497 B(  9-C , 12-C ) :   1.0652
B( 12-C , 13-H ) :   0.9775 B( 12-C , 14-H ) :   0.9726 B( 12-C , 15-H ) :   0.9769
B( 16-S , 17-C ) :   1.1299 B( 16-S , 20-C ) :   1.1594 B( 17-C , 18-C ) :   1.6297
B( 17-C , 20-C ) :   0.1004 B( 17-C , 33-H ) :   0.9738 B( 18-C , 19-C ) :   1.2359
B( 18-C , 21-H ) :   0.9789 B( 19-C , 20-C ) :   1.5910 B( 19-C , 22-C ) :   1.0359
B( 22-C , 23-H ) :   0.9296 B( 22-C , 24-H ) :   0.9248 B( 22-C , 25-C ) :   1.0589
B( 25-C , 26-H ) :   0.9562 B( 25-C , 27-H ) :   0.9461 B( 25-C , 28-C ) :   1.0777
B( 28-C , 29-H ) :   0.9713 B( 28-C , 30-H ) :   0.9798 B( 28-C , 31-H ) :   0.9707

Dispersion correction           -0.014377848
FINAL SINGLE POINT ENERGY     -1339.865879252457

DIPOLE MOMENT
-------------
                                X             Y             Z
Electronic contribution:    -11.87153       1.51984      24.82104
Nuclear contribution   :     11.98043      -1.75937     -25.61597
                        -----------------------------------------
Total Dipole Moment    :      0.10891      -0.23953      -0.79493
                        -----------------------------------------
Magnitude (a.u.)       :      0.83735
Magnitude (Debye)      :      2.12837

Rotational constants in cm-1:     0.016301     0.009286     0.007442
Rotational constants in MHz :   488.690489   278.372719   223.111396

                             ****ORCA TERMINATED NORMALLY****
TOTAL RUN TIME: 0 days 0 hours 0 minutes 34 seconds 777 msec
