                         Program Version 4.2.1 -  RELEASE  -
|  1> ! wB97X-D3 SP def2-SVP
|  2> %pal
|  3> nprocs 16
|  4> end
|  5>
|  6> * xyz 0 1
|  7> S 	 -95.3257 	 51.4776 	 123.021
|  8> C 	 -96.6476 	 51.4821 	 121.908
|  9> C 	 -97.8682 	 51.1381 	 122.465
| 10> C 	 -97.7006 	 50.6917 	 123.786
| 11> C 	 -96.382 	 50.7815 	 124.216
| 12> H 	 -98.3911 	 50.2045 	 124.384
| 13> C 	 -99.1633 	 50.8587 	 121.74
| 14> H 	 -99.4662 	 49.8763 	 122.164
| 15> H 	 -98.8986 	 50.7881 	 120.691
| 16> C 	 -100.34 	 51.8852 	 121.956
| 17> H 	 -100.674 	 51.667 	 122.958
| 18> H 	 -100.201 	 52.9807 	 121.916
| 19> C 	 -101.562 	 51.5206 	 121.128
| 20> H 	 -101.548 	 52.1198 	 120.13
| 21> H 	 -101.683 	 50.4448 	 120.948
| 22> H 	 -102.473 	 51.8625 	 121.648
| 23> S 	 -94.4551 	 49.3307 	 125.15
| 24> C 	 -94.364 	 49.1274 	 126.922
| 25> C 	 -95.2989 	 49.8575 	 127.631
| 26> C 	 -96.1654 	 50.5356 	 126.771
| 27> C 	 -95.9411 	 50.2335 	 125.426
| 28> H 	 -95.1917 	 49.9622 	 128.655
| 29> C 	 -97.1405 	 51.5766 	 127.277
| 30> H 	 -97.1769 	 52.2789 	 126.48
| 31> H 	 -96.6747 	 52.1773 	 128.09
| 32> C 	 -98.6224 	 51.1944 	 127.658
| 33> H 	 -98.6031 	 50.3174 	 128.314
| 34> H 	 -99.0088 	 50.8435 	 126.742
| 35> C 	 -99.4091 	 52.4795 	 128.105
| 36> H 	 -99.0804 	 53.3931 	 127.533
| 37> H 	 -99.0908 	 52.8042 	 129.117
| 38> H 	 -100.458 	 52.4319 	 127.946
| 39> H 	 -96.5831 	 51.8089 	 120.886
| 40> H 	 -93.6591 	 48.5525 	 127.482
| 41> *
| 42>
| 43>                          ****END OF INPUT****

CARTESIAN COORDINATES (ANGSTROEM)
---------------------------------
  S    -95.325700   51.477600  123.021000
  C    -96.647600   51.482100  121.908000
  C    -97.868200   51.138100  122.465000
  C    -97.700600   50.691700  123.786000
  C    -96.382000   50.781500  124.216000
  H    -98.391100   50.204500  124.384000
  C    -99.163300   50.858700  121.740000
  H    -99.466200   49.876300  122.164000
  H    -98.898600   50.788100  120.691000
  C    -100.340000   51.885200  121.956000
  H    -100.674000   51.667000  122.958000
  H    -100.201000   52.980700  121.916000
  C    -101.562000   51.520600  121.128000
  H    -101.548000   52.119800  120.130000
  H    -101.683000   50.444800  120.948000
  H    -102.473000   51.862500  121.648000
  S    -94.455100   49.330700  125.150000
  C    -94.364000   49.127400  126.922000
  C    -95.298900   49.857500  127.631000
  C    -96.165400   50.535600  126.771000
  C    -95.941100   50.233500  125.426000
  H    -95.191700   49.962200  128.655000
  C    -97.140500   51.576600  127.277000
  H    -97.176900   52.278900  126.480000
  H    -96.674700   52.177300  128.090000
  C    -98.622400   51.194400  127.658000
  H    -98.603100   50.317400  128.314000
  H    -99.008800   50.843500  126.742000
  C    -99.409100   52.479500  128.105000
  H    -99.080400   53.393100  127.533000
  H    -99.090800   52.804200  129.117000
  H    -100.458000   52.431900  127.946000
  H    -96.583100   51.808900  120.886000
  H    -93.659100   48.552500  127.482000

 Total Charge           Charge          ....    0
 Multiplicity           Mult            ....    1
 Number of Electrons    NEL             ....  134
 Basis Dimension        Dim             ....  322

ORBITAL ENERGIES
----------------

  NO   OCC          E(Eh)            E(eV)
   0   2.0000     -88.970505     -2421.0105
   1   2.0000     -88.966886     -2420.9120
   2   2.0000     -10.319375      -280.8045
   3   2.0000     -10.318980      -280.7937
   4   2.0000     -10.314348      -280.6677
   5   2.0000     -10.308444      -280.5070
   6   2.0000     -10.301571      -280.3200
   7   2.0000     -10.298149      -280.2269
   8   2.0000     -10.295123      -280.1445
   9   2.0000     -10.290346      -280.0145
  10   2.0000     -10.289115      -279.9811
  11   2.0000     -10.288625      -279.9677
  12   2.0000     -10.286115      -279.8994
  13   2.0000     -10.285315      -279.8776
  14   2.0000     -10.285237      -279.8755
  15   2.0000     -10.282835      -279.8102
  16   2.0000      -8.085530      -220.0185
  17   2.0000      -8.081040      -219.8963
  18   2.0000      -6.043916      -164.4633
  19   2.0000      -6.040068      -164.3586
  20   2.0000      -6.039477      -164.3425
  21   2.0000      -6.036332      -164.2569
  22   2.0000      -6.035865      -164.2442
  23   2.0000      -6.031645      -164.1294
  24   2.0000      -1.013265       -27.5723
  25   2.0000      -0.983417       -26.7601
  26   2.0000      -0.910899       -24.7868
  27   2.0000      -0.900784       -24.5116
  28   2.0000      -0.876377       -23.8474
  29   2.0000      -0.857431       -23.3319
  30   2.0000      -0.848366       -23.0852
  31   2.0000      -0.812754       -22.1162
  32   2.0000      -0.778460       -21.1830
  33   2.0000      -0.765783       -20.8380
  34   2.0000      -0.713227       -19.4079
  35   2.0000      -0.700341       -19.0572
  36   2.0000      -0.695493       -18.9253
  37   2.0000      -0.669736       -18.2244
  38   2.0000      -0.645483       -17.5645
  39   2.0000      -0.620273       -16.8785
  40   2.0000      -0.590956       -16.0807
  41   2.0000      -0.571703       -15.5568
  42   2.0000      -0.562925       -15.3180
  43   2.0000      -0.551581       -15.0093
  44   2.0000      -0.526559       -14.3284
  45   2.0000      -0.524428       -14.2704
  46   2.0000      -0.514687       -14.0053
  47   2.0000      -0.507599       -13.8125
  48   2.0000      -0.504393       -13.7252
  49   2.0000      -0.498474       -13.5642
  50   2.0000      -0.489881       -13.3303
  51   2.0000      -0.475169       -12.9300
  52   2.0000      -0.470600       -12.8057
  53   2.0000      -0.467137       -12.7114
  54   2.0000      -0.461584       -12.5603
  55   2.0000      -0.452690       -12.3183
  56   2.0000      -0.445432       -12.1208
  57   2.0000      -0.442338       -12.0366
  58   2.0000      -0.432899       -11.7798
  59   2.0000      -0.426039       -11.5931
  60   2.0000      -0.422976       -11.5098
  61   2.0000      -0.417798       -11.3688
  62   2.0000      -0.409846       -11.1525
  63   2.0000      -0.347301        -9.4505
  64   2.0000      -0.333041        -9.0625
  65   2.0000      -0.332109        -9.0371
  66   2.0000      -0.282048        -7.6749
  67   0.0000       0.026063         0.7092
  68   0.0000       0.064201         1.7470
  69   0.0000       0.104759         2.8506
  70   0.0000       0.123550         3.3620
  71   0.0000       0.124727         3.3940

MULLIKEN ATOMIC CHARGES
-----------------------
   0 S :    0.139735
   1 C :   -0.132280
   2 C :   -0.033915
   3 C :    0.026681
   4 C :   -0.159562
   5 H :   -0.012790
   6 C :    0.040879
   7 H :    0.038826
   8 H :    0.023958
   9 C :   -0.061273
  10 H :    0.015083
  11 H :    0.045113
  12 C :   -0.083434
  13 H :    0.043593
  14 H :    0.035565
  15 H :    0.033423
  16 S :    0.095615
  17 C :   -0.072433
  18 C :   -0.009904
  19 C :   -0.012851
  20 C :   -0.161771
  21 H :   -0.006682
  22 C :    0.021230
  23 H :    0.014735
  24 H :    0.023636
  25 C :   -0.015171
  26 H :    0.034239
  27 H :    0.002983
  28 C :   -0.051985
  29 H :    0.027826
  30 H :    0.035602
  31 H :    0.040138
  32 H :    0.037468
  33 H :    0.037721
Sum of atomic charges:   -0.0000000

LOEWDIN ATOMIC CHARGES
----------------------
   0 S :    0.419726
   1 C :   -0.206217
   2 C :   -0.063497
   3 C :   -0.053020
   4 C :   -0.205541
   5 H :    0.017230
   6 C :   -0.024554
   7 H :    0.039793
   8 H :    0.026613
   9 C :   -0.047070
  10 H :    0.020412
  11 H :    0.031311
  12 C :   -0.074673
  13 H :    0.032339
  14 H :    0.024464
  15 H :    0.026318
  16 S :    0.392047
  17 C :   -0.166567
  18 C :   -0.059331
  19 C :   -0.051705
  20 C :   -0.190191
  21 H :    0.023213
  22 C :   -0.034129
  23 H :    0.024327
  24 H :    0.030838
  25 C :   -0.031075
  26 H :    0.024911
  27 H :    0.013639
  28 C :   -0.068105
  29 H :    0.033607
  30 H :    0.029415
  31 H :    0.022216
  32 H :    0.022583
  33 H :    0.020673

  Mayer bond orders larger than 0.100000
B(  0-S ,  1-C ) :   1.1327 B(  0-S ,  4-C ) :   1.1472 B(  1-C ,  2-C ) :   1.6064
B(  1-C , 32-H ) :   0.9638 B(  2-C ,  3-C ) :   1.2400 B(  2-C ,  6-C ) :   1.0204
B(  3-C ,  4-C ) :   1.5514 B(  3-C ,  5-H ) :   1.0040 B(  4-C , 20-C ) :   1.0971
B(  6-C ,  7-H ) :   0.9435 B(  6-C ,  8-H ) :   0.9501 B(  6-C ,  9-C ) :   1.0492
B(  9-C , 10-H ) :   0.9562 B(  9-C , 11-H ) :   0.9620 B(  9-C , 12-C ) :   1.0815
B( 12-C , 13-H ) :   0.9763 B( 12-C , 14-H ) :   0.9723 B( 12-C , 15-H ) :   0.9764
B( 16-S , 17-C ) :   1.1408 B( 16-S , 20-C ) :   1.1218 B( 17-C , 18-C ) :   1.6240
B( 17-C , 20-C ) :   0.1026 B( 17-C , 33-H ) :   0.9654 B( 18-C , 19-C ) :   1.2412
B( 18-C , 21-H ) :   1.0011 B( 19-C , 20-C ) :   1.5730 B( 19-C , 22-C ) :   1.0389
B( 22-C , 23-H ) :   0.9243 B( 22-C , 24-H ) :   0.9438 B( 22-C , 25-C ) :   1.0522
B( 25-C , 26-H ) :   0.9614 B( 25-C , 27-H ) :   0.9520 B( 25-C , 28-C ) :   1.0647
B( 28-C , 29-H ) :   0.9726 B( 28-C , 30-H ) :   0.9764 B( 28-C , 31-H ) :   0.9773

Dispersion correction           -0.013751992
FINAL SINGLE POINT ENERGY     -1339.851962327599

DIPOLE MOMENT
-------------
                                X             Y             Z
Electronic contribution:     30.39731      -8.61897      -2.82154
Nuclear contribution   :    -30.87053       8.78644       3.01553
                        -----------------------------------------
Total Dipole Moment    :     -0.47322       0.16748       0.19399
                        -----------------------------------------
Magnitude (a.u.)       :      0.53816
Magnitude (Debye)      :      1.36789

Rotational constants in cm-1:     0.016994     0.009071     0.006458
Rotational constants in MHz :   509.453754   271.938308   193.602979

                             ****ORCA TERMINATED NORMALLY****
TOTAL RUN TIME: 0 days 0 hours 0 minutes 35 seconds 386 msec
