                         Program Version 4.2.1 -  RELEASE  -
|  1> ! wB97X-D3 SP def2-SVP
|  2> %pal
|  3> nprocs 16
|  4> end
|  5>
|  6> * xyz 0 1
|  7> S 	 -38.4511 	 16.09 	 78.563
|  8> C 	 -36.9661 	 15.9137 	 77.6328
|  9> C 	 -37.0867 	 14.9301 	 76.6477
| 10> C 	 -38.4276 	 14.4619 	 76.5426
| 11> C 	 -39.2612 	 14.9822 	 77.5266
| 12> H 	 -38.7913 	 13.6667 	 75.9684
| 13> C 	 -35.958 	 14.5474 	 75.6451
| 14> H 	 -36.2877 	 13.645 	 75.2692
| 15> H 	 -35.0549 	 14.2632 	 76.2121
| 16> C 	 -35.6304 	 15.5542 	 74.558
| 17> H 	 -35.3579 	 16.5009 	 74.9779
| 18> H 	 -34.8262 	 15.2204 	 73.9281
| 19> C 	 -36.8192 	 16.0059 	 73.5856
| 20> H 	 -37.4689 	 16.4778 	 74.2062
| 21> H 	 -36.4679 	 16.7477 	 72.842
| 22> H 	 -37.2966 	 15.1435 	 73.0726
| 23> S 	 -41.7333 	 16.1994 	 77.3949
| 24> C 	 -43.1617 	 15.1788 	 77.5986
| 25> C 	 -42.8387 	 13.8555 	 77.7715
| 26> C 	 -41.4282 	 13.5925 	 77.6998
| 27> C 	 -40.6922 	 14.765 	 77.5968
| 28> H 	 -43.5553 	 13.0879 	 77.8524
| 29> C 	 -40.9117 	 12.1549 	 77.9402
| 30> H 	 -40.4233 	 11.8845 	 77.048
| 31> H 	 -41.7794 	 11.5513 	 78.1302
| 32> C 	 -39.9084 	 11.9701 	 79.1223
| 33> H 	 -39.0047 	 12.5939 	 78.868
| 34> H 	 -39.6718 	 10.8927 	 79.1776
| 35> C 	 -40.5484 	 12.3799 	 80.4573
| 36> H 	 -40.6026 	 13.4184 	 80.6291
| 37> H 	 -40.041 	 12.0088 	 81.3449
| 38> H 	 -41.6144 	 11.9404 	 80.6236
| 39> H 	 -36.0598 	 16.4307 	 77.9344
| 40> H 	 -44.2114 	 15.4711 	 77.7771
| 41> *
| 42>
| 43>                          ****END OF INPUT****

CARTESIAN COORDINATES (ANGSTROEM)
---------------------------------
  S    -38.451100   16.090000   78.563000
  C    -36.966100   15.913700   77.632800
  C    -37.086700   14.930100   76.647700
  C    -38.427600   14.461900   76.542600
  C    -39.261200   14.982200   77.526600
  H    -38.791300   13.666700   75.968400
  C    -35.958000   14.547400   75.645100
  H    -36.287700   13.645000   75.269200
  H    -35.054900   14.263200   76.212100
  C    -35.630400   15.554200   74.558000
  H    -35.357900   16.500900   74.977900
  H    -34.826200   15.220400   73.928100
  C    -36.819200   16.005900   73.585600
  H    -37.468900   16.477800   74.206200
  H    -36.467900   16.747700   72.842000
  H    -37.296600   15.143500   73.072600
  S    -41.733300   16.199400   77.394900
  C    -43.161700   15.178800   77.598600
  C    -42.838700   13.855500   77.771500
  C    -41.428200   13.592500   77.699800
  C    -40.692200   14.765000   77.596800
  H    -43.555300   13.087900   77.852400
  C    -40.911700   12.154900   77.940200
  H    -40.423300   11.884500   77.048000
  H    -41.779400   11.551300   78.130200
  C    -39.908400   11.970100   79.122300
  H    -39.004700   12.593900   78.868000
  H    -39.671800   10.892700   79.177600
  C    -40.548400   12.379900   80.457300
  H    -40.602600   13.418400   80.629100
  H    -40.041000   12.008800   81.344900
  H    -41.614400   11.940400   80.623600
  H    -36.059800   16.430700   77.934400
  H    -44.211400   15.471100   77.777100

 Total Charge           Charge          ....    0
 Multiplicity           Mult            ....    1
 Number of Electrons    NEL             ....  134
 Basis Dimension        Dim             ....  322

ORBITAL ENERGIES
----------------

  NO   OCC          E(Eh)            E(eV)
   0   2.0000     -88.970192     -2421.0020
   1   2.0000     -88.966958     -2420.9140
   2   2.0000     -10.326464      -280.9974
   3   2.0000     -10.325837      -280.9803
   4   2.0000     -10.317295      -280.7479
   5   2.0000     -10.317170      -280.7445
   6   2.0000     -10.306955      -280.4665
   7   2.0000     -10.302608      -280.3482
   8   2.0000     -10.292067      -280.0614
   9   2.0000     -10.291579      -280.0481
  10   2.0000     -10.291483      -280.0455
  11   2.0000     -10.289428      -279.9896
  12   2.0000     -10.288311      -279.9592
  13   2.0000     -10.284964      -279.8681
  14   2.0000     -10.274752      -279.5902
  15   2.0000     -10.272477      -279.5283
  16   2.0000      -8.085117      -220.0072
  17   2.0000      -8.080732      -219.8879
  18   2.0000      -6.043394      -164.4491
  19   2.0000      -6.039548      -164.3445
  20   2.0000      -6.039425      -164.3411
  21   2.0000      -6.036166      -164.2524
  22   2.0000      -6.035435      -164.2325
  23   2.0000      -6.031292      -164.1198
  24   2.0000      -1.006236       -27.3811
  25   2.0000      -0.979932       -26.6653
  26   2.0000      -0.907989       -24.7076
  27   2.0000      -0.902329       -24.5536
  28   2.0000      -0.866039       -23.5661
  29   2.0000      -0.849086       -23.1048
  30   2.0000      -0.841382       -22.8952
  31   2.0000      -0.810690       -22.0600
  32   2.0000      -0.786883       -21.4122
  33   2.0000      -0.773779       -21.0556
  34   2.0000      -0.707235       -19.2448
  35   2.0000      -0.704131       -19.1604
  36   2.0000      -0.683938       -18.6109
  37   2.0000      -0.663690       -18.0599
  38   2.0000      -0.646958       -17.6046
  39   2.0000      -0.611078       -16.6283
  40   2.0000      -0.585341       -15.9279
  41   2.0000      -0.572066       -15.5667
  42   2.0000      -0.560229       -15.2446
  43   2.0000      -0.547644       -14.9022
  44   2.0000      -0.542273       -14.7560
  45   2.0000      -0.536984       -14.6121
  46   2.0000      -0.515938       -14.0394
  47   2.0000      -0.505576       -13.7574
  48   2.0000      -0.499232       -13.5848
  49   2.0000      -0.491246       -13.3675
  50   2.0000      -0.482310       -13.1243
  51   2.0000      -0.476930       -12.9779
  52   2.0000      -0.471430       -12.8283
  53   2.0000      -0.465120       -12.6566
  54   2.0000      -0.460474       -12.5301
  55   2.0000      -0.450786       -12.2665
  56   2.0000      -0.445941       -12.1347
  57   2.0000      -0.440759       -11.9937
  58   2.0000      -0.438340       -11.9278
  59   2.0000      -0.420091       -11.4313
  60   2.0000      -0.417688       -11.3659
  61   2.0000      -0.414776       -11.2866
  62   2.0000      -0.410274       -11.1641
  63   2.0000      -0.341955        -9.3051
  64   2.0000      -0.335061        -9.1175
  65   2.0000      -0.330440        -8.9917
  66   2.0000      -0.294610        -8.0167
  67   0.0000       0.028667         0.7801
  68   0.0000       0.065758         1.7894
  69   0.0000       0.109711         2.9854
  70   0.0000       0.117171         3.1884
  71   0.0000       0.133458         3.6316

MULLIKEN ATOMIC CHARGES
-----------------------
   0 S :    0.124978
   1 C :   -0.140557
   2 C :   -0.111015
   3 C :    0.061516
   4 C :   -0.194689
   5 H :   -0.005954
   6 C :    0.131297
   7 H :   -0.008449
   8 H :    0.033050
   9 C :   -0.061140
  10 H :    0.020194
  11 H :    0.030575
  12 C :   -0.061701
  13 H :    0.025662
  14 H :    0.039127
  15 H :    0.036501
  16 S :    0.112440
  17 C :   -0.084988
  18 C :   -0.031646
  19 C :   -0.047762
  20 C :   -0.169178
  21 H :    0.001340
  22 C :    0.109249
  23 H :    0.020641
  24 H :    0.011130
  25 C :   -0.079134
  26 H :    0.058837
  27 H :    0.037894
  28 C :   -0.063066
  29 H :    0.032653
  30 H :    0.025955
  31 H :    0.027555
  32 H :    0.055098
  33 H :    0.063588
Sum of atomic charges:   -0.0000000

LOEWDIN ATOMIC CHARGES
----------------------
   0 S :    0.422497
   1 C :   -0.196245
   2 C :   -0.058220
   3 C :   -0.056941
   4 C :   -0.208775
   5 H :    0.023212
   6 C :   -0.024579
   7 H :    0.016995
   8 H :    0.037894
   9 C :   -0.033047
  10 H :    0.020834
  11 H :    0.021370
  12 C :   -0.057991
  13 H :    0.010152
  14 H :    0.030937
  15 H :    0.025248
  16 S :    0.387813
  17 C :   -0.186990
  18 C :   -0.067290
  19 C :   -0.051808
  20 C :   -0.194215
  21 H :    0.022740
  22 C :   -0.021017
  23 H :    0.023729
  24 H :    0.024756
  25 C :   -0.039843
  26 H :    0.034332
  27 H :    0.028219
  28 C :   -0.074284
  29 H :    0.019223
  30 H :    0.024031
  31 H :    0.032067
  32 H :    0.026958
  33 H :    0.038240

  Mayer bond orders larger than 0.100000
B(  0-S ,  1-C ) :   1.1502 B(  0-S ,  4-C ) :   1.1738 B(  1-C ,  2-C ) :   1.5782
B(  1-C , 32-H ) :   0.9723 B(  2-C ,  3-C ) :   1.2560 B(  2-C ,  6-C ) :   1.0110
B(  3-C ,  4-C ) :   1.5539 B(  3-C ,  5-H ) :   0.9984 B(  4-C , 20-C ) :   1.0347
B(  6-C ,  7-H ) :   0.9338 B(  6-C ,  8-H ) :   0.9372 B(  6-C ,  9-C ) :   1.0719
B(  9-C , 10-H ) :   0.9595 B(  9-C , 11-H ) :   0.9588 B(  9-C , 12-C ) :   1.0667
B( 12-C , 13-H ) :   0.9797 B( 12-C , 14-H ) :   0.9760 B( 12-C , 15-H ) :   0.9788
B( 16-S , 17-C ) :   1.1356 B( 16-S , 20-C ) :   1.1307 B( 17-C , 18-C ) :   1.6407
B( 17-C , 33-H ) :   0.9575 B( 18-C , 19-C ) :   1.2393 B( 18-C , 21-H ) :   0.9868
B( 19-C , 20-C ) :   1.6106 B( 19-C , 22-C ) :   1.0254 B( 22-C , 23-H ) :   0.9259
B( 22-C , 24-H ) :   0.9386 B( 22-C , 25-C ) :   1.0802 B( 25-C , 26-H ) :   0.9500
B( 25-C , 27-H ) :   0.9556 B( 25-C , 28-C ) :   1.0688 B( 28-C , 29-H ) :   0.9749
B( 28-C , 30-H ) :   0.9751 B( 28-C , 31-H ) :   0.9744

Dispersion correction           -0.015617704
FINAL SINGLE POINT ENERGY     -1339.875922470742

DIPOLE MOMENT
-------------
                                X             Y             Z
Electronic contribution:    -10.51516      13.26199       6.17830
Nuclear contribution   :     10.74007     -13.74901      -6.27208
                        -----------------------------------------
Total Dipole Moment    :      0.22491      -0.48701      -0.09379
                        -----------------------------------------
Magnitude (a.u.)       :      0.54458
Magnitude (Debye)      :      1.38421

Rotational constants in cm-1:     0.020659     0.008626     0.007716
Rotational constants in MHz :   619.353669   258.597334   231.321420

                             ****ORCA TERMINATED NORMALLY****
TOTAL RUN TIME: 0 days 0 hours 0 minutes 29 seconds 651 msec
