                         Program Version 4.2.1 -  RELEASE  -
|  1> ! wB97X-D3 SP def2-SVP
|  2> %pal
|  3> nprocs 16
|  4> end
|  5>
|  6> * xyz 0 1
|  7> S 	 -70.9101 	 48.8048 	 136.513
|  8> C 	 -70.5193 	 48.6156 	 138.21
|  9> C 	 -71.6718 	 48.5888 	 138.986
| 10> C 	 -72.8622 	 48.7856 	 138.214
| 11> C 	 -72.6313 	 48.832 	 136.834
| 12> H 	 -73.9356 	 48.8362 	 138.594
| 13> C 	 -71.6544 	 48.3716 	 140.474
| 14> H 	 -70.593 	 48.2657 	 140.723
| 15> H 	 -71.9753 	 47.3766 	 140.767
| 16> C 	 -72.141 	 49.5643 	 141.267
| 17> H 	 -71.4575 	 50.3746 	 141.277
| 18> H 	 -73.0895 	 50.0277 	 140.888
| 19> C 	 -72.2622 	 49.2823 	 142.712
| 20> H 	 -72.4757 	 50.2708 	 143.25
| 21> H 	 -73.1442 	 48.6097 	 142.925
| 22> H 	 -71.3362 	 48.8137 	 143.043
| 23> S 	 -74.5718 	 47.6248 	 135.287
| 24> C 	 -75.5704 	 48.5645 	 134.238
| 25> C 	 -75.1091 	 49.8095 	 134.148
| 26> C 	 -74.1329 	 50.0964 	 135.162
| 27> C 	 -73.6347 	 49.0047 	 135.814
| 28> H 	 -75.5305 	 50.5295 	 133.51
| 29> C 	 -73.4595 	 51.4508 	 135.325
| 30> H 	 -73.4498 	 51.9376 	 134.333
| 31> H 	 -72.466 	 51.4064 	 135.712
| 32> C 	 -74.2272 	 52.3034 	 136.363
| 33> H 	 -74.1691 	 51.7275 	 137.296
| 34> H 	 -75.2648 	 52.161 	 135.96
| 35> C 	 -73.8915 	 53.776 	 136.589
| 36> H 	 -72.9347 	 53.9326 	 137.047
| 37> H 	 -74.4709 	 54.4082 	 137.232
| 38> H 	 -73.8916 	 54.1387 	 135.552
| 39> H 	 -69.5304 	 48.5184 	 138.601
| 40> H 	 -76.2093 	 48.1745 	 133.473
| 41> *
| 42>
| 43>                          ****END OF INPUT****

CARTESIAN COORDINATES (ANGSTROEM)
---------------------------------
  S    -70.910100   48.804800  136.513000
  C    -70.519300   48.615600  138.210000
  C    -71.671800   48.588800  138.986000
  C    -72.862200   48.785600  138.214000
  C    -72.631300   48.832000  136.834000
  H    -73.935600   48.836200  138.594000
  C    -71.654400   48.371600  140.474000
  H    -70.593000   48.265700  140.723000
  H    -71.975300   47.376600  140.767000
  C    -72.141000   49.564300  141.267000
  H    -71.457500   50.374600  141.277000
  H    -73.089500   50.027700  140.888000
  C    -72.262200   49.282300  142.712000
  H    -72.475700   50.270800  143.250000
  H    -73.144200   48.609700  142.925000
  H    -71.336200   48.813700  143.043000
  S    -74.571800   47.624800  135.287000
  C    -75.570400   48.564500  134.238000
  C    -75.109100   49.809500  134.148000
  C    -74.132900   50.096400  135.162000
  C    -73.634700   49.004700  135.814000
  H    -75.530500   50.529500  133.510000
  C    -73.459500   51.450800  135.325000
  H    -73.449800   51.937600  134.333000
  H    -72.466000   51.406400  135.712000
  C    -74.227200   52.303400  136.363000
  H    -74.169100   51.727500  137.296000
  H    -75.264800   52.161000  135.960000
  C    -73.891500   53.776000  136.589000
  H    -72.934700   53.932600  137.047000
  H    -74.470900   54.408200  137.232000
  H    -73.891600   54.138700  135.552000
  H    -69.530400   48.518400  138.601000
  H    -76.209300   48.174500  133.473000

 Total Charge           Charge          ....    0
 Multiplicity           Mult            ....    1
 Number of Electrons    NEL             ....  134
 Basis Dimension        Dim             ....  322

ORBITAL ENERGIES
----------------

  NO   OCC          E(Eh)            E(eV)
   0   2.0000     -88.969929     -2420.9949
   1   2.0000     -88.959119     -2420.7007
   2   2.0000     -10.331212      -281.1266
   3   2.0000     -10.321865      -280.8722
   4   2.0000     -10.316975      -280.7392
   5   2.0000     -10.310770      -280.5703
   6   2.0000     -10.303766      -280.3797
   7   2.0000     -10.303484      -280.3721
   8   2.0000     -10.299862      -280.2735
   9   2.0000     -10.292290      -280.0674
  10   2.0000     -10.287617      -279.9403
  11   2.0000     -10.285501      -279.8827
  12   2.0000     -10.283305      -279.8229
  13   2.0000     -10.283008      -279.8149
  14   2.0000     -10.281966      -279.7865
  15   2.0000     -10.273327      -279.5514
  16   2.0000      -8.084154      -219.9810
  17   2.0000      -8.074841      -219.7276
  18   2.0000      -6.042637      -164.4285
  19   2.0000      -6.038627      -164.3194
  20   2.0000      -6.035064      -164.2224
  21   2.0000      -6.033381      -164.1767
  22   2.0000      -6.029105      -164.0603
  23   2.0000      -6.025586      -163.9645
  24   2.0000      -1.011993       -27.5377
  25   2.0000      -0.989055       -26.9136
  26   2.0000      -0.922076       -25.0910
  27   2.0000      -0.905739       -24.6464
  28   2.0000      -0.878877       -23.9155
  29   2.0000      -0.852108       -23.1870
  30   2.0000      -0.845530       -23.0080
  31   2.0000      -0.820722       -22.3330
  32   2.0000      -0.783204       -21.3121
  33   2.0000      -0.771419       -20.9914
  34   2.0000      -0.710456       -19.3325
  35   2.0000      -0.693399       -18.8683
  36   2.0000      -0.687158       -18.6985
  37   2.0000      -0.665522       -18.1098
  38   2.0000      -0.644527       -17.5385
  39   2.0000      -0.619170       -16.8485
  40   2.0000      -0.598190       -16.2776
  41   2.0000      -0.577182       -15.7059
  42   2.0000      -0.566505       -15.4154
  43   2.0000      -0.563271       -15.3274
  44   2.0000      -0.538425       -14.6513
  45   2.0000      -0.529188       -14.3999
  46   2.0000      -0.521945       -14.2028
  47   2.0000      -0.510126       -13.8812
  48   2.0000      -0.506745       -13.7892
  49   2.0000      -0.501906       -13.6575
  50   2.0000      -0.494045       -13.4436
  51   2.0000      -0.475944       -12.9511
  52   2.0000      -0.475285       -12.9332
  53   2.0000      -0.463506       -12.6126
  54   2.0000      -0.459169       -12.4946
  55   2.0000      -0.454645       -12.3715
  56   2.0000      -0.449395       -12.2287
  57   2.0000      -0.438907       -11.9433
  58   2.0000      -0.423874       -11.5342
  59   2.0000      -0.420529       -11.4432
  60   2.0000      -0.409901       -11.1540
  61   2.0000      -0.408614       -11.1190
  62   2.0000      -0.403331       -10.9752
  63   2.0000      -0.335552        -9.1308
  64   2.0000      -0.333555        -9.0765
  65   2.0000      -0.324828        -8.8390
  66   2.0000      -0.313404        -8.5281
  67   0.0000       0.043194         1.1754
  68   0.0000       0.055693         1.5155
  69   0.0000       0.116236         3.1629
  70   0.0000       0.122232         3.3261
  71   0.0000       0.127797         3.4775

MULLIKEN ATOMIC CHARGES
-----------------------
   0 S :    0.124961
   1 C :   -0.109726
   2 C :   -0.096944
   3 C :    0.035878
   4 C :   -0.186908
   5 H :    0.047050
   6 C :    0.095019
   7 H :   -0.003543
   8 H :    0.038027
   9 C :   -0.070658
  10 H :    0.017786
  11 H :    0.031974
  12 C :   -0.068224
  13 H :    0.043605
  14 H :    0.037489
  15 H :    0.029021
  16 S :    0.097354
  17 C :   -0.058247
  18 C :   -0.014314
  19 C :   -0.051541
  20 C :   -0.167982
  21 H :    0.004668
  22 C :    0.083596
  23 H :    0.021176
  24 H :    0.016292
  25 C :   -0.119843
  26 H :    0.024719
  27 H :    0.023020
  28 C :    0.003555
  29 H :    0.019810
  30 H :    0.030665
  31 H :    0.025856
  32 H :    0.041823
  33 H :    0.054582
Sum of atomic charges:   -0.0000000

LOEWDIN ATOMIC CHARGES
----------------------
   0 S :    0.415350
   1 C :   -0.192059
   2 C :   -0.063847
   3 C :   -0.059484
   4 C :   -0.204534
   5 H :    0.046535
   6 C :   -0.034350
   7 H :    0.031518
   8 H :    0.033528
   9 C :   -0.048155
  10 H :    0.023102
  11 H :    0.025784
  12 C :   -0.067420
  13 H :    0.034590
  14 H :    0.025992
  15 H :    0.021930
  16 S :    0.409666
  17 C :   -0.182350
  18 C :   -0.067194
  19 C :   -0.051503
  20 C :   -0.203911
  21 H :    0.025317
  22 C :   -0.027010
  23 H :    0.027364
  24 H :    0.018787
  25 C :   -0.047124
  26 H :    0.020236
  27 H :    0.023330
  28 C :   -0.069332
  29 H :    0.023131
  30 H :    0.026392
  31 H :    0.029291
  32 H :    0.024999
  33 H :    0.031433

  Mayer bond orders larger than 0.100000
B(  0-S ,  1-C ) :   1.1446 B(  0-S ,  4-C ) :   1.1555 B(  1-C ,  2-C ) :   1.6056
B(  1-C ,  4-C ) :   0.1011 B(  1-C , 32-H ) :   0.9688 B(  2-C ,  3-C ) :   1.2421
B(  2-C ,  6-C ) :   1.0290 B(  3-C ,  4-C ) :   1.5813 B(  3-C ,  5-H ) :   0.9795
B(  4-C , 20-C ) :   1.0124 B(  6-C ,  7-H ) :   0.9224 B(  6-C ,  8-H ) :   0.9432
B(  6-C ,  9-C ) :   1.0526 B(  9-C , 10-H ) :   0.9506 B(  9-C , 11-H ) :   0.9588
B(  9-C , 12-C ) :   1.0893 B( 12-C , 13-H ) :   0.9735 B( 12-C , 14-H ) :   0.9756
B( 12-C , 15-H ) :   0.9687 B( 16-S , 17-C ) :   1.1585 B( 16-S , 20-C ) :   1.1344
B( 17-C , 18-C ) :   1.6294 B( 17-C , 33-H ) :   0.9597 B( 18-C , 19-C ) :   1.2295
B( 18-C , 21-H ) :   0.9924 B( 19-C , 20-C ) :   1.6318 B( 19-C , 22-C ) :   1.0489
B( 22-C , 23-H ) :   0.9372 B( 22-C , 24-H ) :   0.9350 B( 22-C , 25-C ) :   1.0458
B( 25-C , 26-H ) :   0.9558 B( 25-C , 27-H ) :   0.9624 B( 25-C , 28-C ) :   1.0695
B( 28-C , 29-H ) :   0.9709 B( 28-C , 30-H ) :   0.9747 B( 28-C , 31-H ) :   0.9732

Dispersion correction           -0.014184919
FINAL SINGLE POINT ENERGY     -1339.870590386495

DIPOLE MOMENT
-------------
                                X             Y             Z
Electronic contribution:      1.41086     -18.12721     -20.43054
Nuclear contribution   :     -1.37937      18.45825      20.73908
                        -----------------------------------------
Total Dipole Moment    :      0.03149       0.33105       0.30854
                        -----------------------------------------
Magnitude (a.u.)       :      0.45363
Magnitude (Debye)      :      1.15304

Rotational constants in cm-1:     0.017604     0.008313     0.007088
Rotational constants in MHz :   527.741664   249.223745   212.499371

                             ****ORCA TERMINATED NORMALLY****
TOTAL RUN TIME: 0 days 0 hours 0 minutes 34 seconds 875 msec
