                         Program Version 4.2.1 -  RELEASE  -
|  1> ! wB97X-D3 SP def2-SVP
|  2> %pal
|  3> nprocs 16
|  4> end
|  5>
|  6> * xyz 0 1
|  7> S 	 -39.3105 	 52.14 	 105.314
|  8> C 	 -38.048 	 51.0376 	 105.973
|  9> C 	 -38.5185 	 49.7472 	 105.972
| 10> C 	 -39.8936 	 49.6497 	 105.652
| 11> C 	 -40.4707 	 50.8137 	 105.127
| 12> H 	 -40.4948 	 48.7023 	 105.64
| 13> C 	 -37.6104 	 48.5025 	 106.053
| 14> H 	 -36.642 	 48.8358 	 106.486
| 15> H 	 -37.3976 	 48.1164 	 105.102
| 16> C 	 -38.1735 	 47.2939 	 106.784
| 17> H 	 -39.0763 	 47.0668 	 106.28
| 18> H 	 -37.5473 	 46.364 	 106.689
| 19> C 	 -38.2887 	 47.4349 	 108.29
| 20> H 	 -39.1916 	 46.8434 	 108.541
| 21> H 	 -37.283 	 47.1807 	 108.698
| 22> H 	 -38.5717 	 48.4038 	 108.614
| 23> S 	 -42.4073 	 52.6777 	 104.884
| 24> C 	 -44.0614 	 52.2504 	 104.588
| 25> C 	 -44.1019 	 50.8882 	 104.305
| 26> C 	 -42.8841 	 50.187 	 104.312
| 27> C 	 -41.8748 	 51.0556 	 104.757
| 28> H 	 -45.098 	 50.4713 	 104.108
| 29> C 	 -42.6914 	 48.7045 	 103.944
| 30> H 	 -42.4208 	 48.1089 	 104.796
| 31> H 	 -41.8983 	 48.5378 	 103.207
| 32> C 	 -43.9166 	 48.001 	 103.342
| 33> H 	 -44.6799 	 47.854 	 104.139
| 34> H 	 -43.5602 	 47.0588 	 103.208
| 35> C 	 -44.5244 	 48.553 	 102.025
| 36> H 	 -45.1625 	 49.3875 	 102.103
| 37> H 	 -45.0746 	 47.7188 	 101.534
| 38> H 	 -43.8049 	 48.8918 	 101.391
| 39> H 	 -36.9134 	 51.1656 	 106.016
| 40> H 	 -44.8771 	 52.926 	 104.258
| 41> *
| 42>
| 43>                          ****END OF INPUT****

CARTESIAN COORDINATES (ANGSTROEM)
---------------------------------
  S    -39.310500   52.140000  105.314000
  C    -38.048000   51.037600  105.973000
  C    -38.518500   49.747200  105.972000
  C    -39.893600   49.649700  105.652000
  C    -40.470700   50.813700  105.127000
  H    -40.494800   48.702300  105.640000
  C    -37.610400   48.502500  106.053000
  H    -36.642000   48.835800  106.486000
  H    -37.397600   48.116400  105.102000
  C    -38.173500   47.293900  106.784000
  H    -39.076300   47.066800  106.280000
  H    -37.547300   46.364000  106.689000
  C    -38.288700   47.434900  108.290000
  H    -39.191600   46.843400  108.541000
  H    -37.283000   47.180700  108.698000
  H    -38.571700   48.403800  108.614000
  S    -42.407300   52.677700  104.884000
  C    -44.061400   52.250400  104.588000
  C    -44.101900   50.888200  104.305000
  C    -42.884100   50.187000  104.312000
  C    -41.874800   51.055600  104.757000
  H    -45.098000   50.471300  104.108000
  C    -42.691400   48.704500  103.944000
  H    -42.420800   48.108900  104.796000
  H    -41.898300   48.537800  103.207000
  C    -43.916600   48.001000  103.342000
  H    -44.679900   47.854000  104.139000
  H    -43.560200   47.058800  103.208000
  C    -44.524400   48.553000  102.025000
  H    -45.162500   49.387500  102.103000
  H    -45.074600   47.718800  101.534000
  H    -43.804900   48.891800  101.391000
  H    -36.913400   51.165600  106.016000
  H    -44.877100   52.926000  104.258000

 Total Charge           Charge          ....    0
 Multiplicity           Mult            ....    1
 Number of Electrons    NEL             ....  134
 Basis Dimension        Dim             ....  322

ORBITAL ENERGIES
----------------

  NO   OCC          E(Eh)            E(eV)
   0   2.0000     -88.968890     -2420.9666
   1   2.0000     -88.967877     -2420.9390
   2   2.0000     -10.338600      -281.3276
   3   2.0000     -10.330576      -281.1093
   4   2.0000     -10.321637      -280.8660
   5   2.0000     -10.317443      -280.7519
   6   2.0000     -10.307773      -280.4888
   7   2.0000     -10.302851      -280.3548
   8   2.0000     -10.298756      -280.2434
   9   2.0000     -10.298504      -280.2365
  10   2.0000     -10.296133      -280.1720
  11   2.0000     -10.291817      -280.0546
  12   2.0000     -10.284923      -279.8670
  13   2.0000     -10.283687      -279.8334
  14   2.0000     -10.274854      -279.5930
  15   2.0000     -10.272389      -279.5259
  16   2.0000      -8.083481      -219.9627
  17   2.0000      -8.082234      -219.9288
  18   2.0000      -6.041889      -164.4082
  19   2.0000      -6.041068      -164.3858
  20   2.0000      -6.037756      -164.2957
  21   2.0000      -6.036949      -164.2737
  22   2.0000      -6.034402      -164.2044
  23   2.0000      -6.032696      -164.1580
  24   2.0000      -1.011269       -27.5180
  25   2.0000      -0.983981       -26.7755
  26   2.0000      -0.915540       -24.9131
  27   2.0000      -0.912777       -24.8379
  28   2.0000      -0.870887       -23.6980
  29   2.0000      -0.853167       -23.2158
  30   2.0000      -0.839130       -22.8339
  31   2.0000      -0.815258       -22.1843
  32   2.0000      -0.794749       -21.6262
  33   2.0000      -0.780271       -21.2323
  34   2.0000      -0.714183       -19.4339
  35   2.0000      -0.702079       -19.1045
  36   2.0000      -0.689021       -18.7492
  37   2.0000      -0.656227       -17.8568
  38   2.0000      -0.633753       -17.2453
  39   2.0000      -0.617811       -16.8115
  40   2.0000      -0.601522       -16.3683
  41   2.0000      -0.567786       -15.4503
  42   2.0000      -0.559333       -15.2202
  43   2.0000      -0.556019       -15.1301
  44   2.0000      -0.541672       -14.7397
  45   2.0000      -0.533959       -14.5298
  46   2.0000      -0.519125       -14.1261
  47   2.0000      -0.514155       -13.9909
  48   2.0000      -0.511023       -13.9056
  49   2.0000      -0.501978       -13.6595
  50   2.0000      -0.489236       -13.3128
  51   2.0000      -0.483231       -13.1494
  52   2.0000      -0.481287       -13.0965
  53   2.0000      -0.467660       -12.7257
  54   2.0000      -0.460065       -12.5190
  55   2.0000      -0.445744       -12.1293
  56   2.0000      -0.441601       -12.0166
  57   2.0000      -0.438969       -11.9450
  58   2.0000      -0.428935       -11.6719
  59   2.0000      -0.426073       -11.5940
  60   2.0000      -0.422472       -11.4961
  61   2.0000      -0.415329       -11.3017
  62   2.0000      -0.409130       -11.1330
  63   2.0000      -0.357564        -9.7298
  64   2.0000      -0.338198        -9.2028
  65   2.0000      -0.329028        -8.9533
  66   2.0000      -0.284776        -7.7491
  67   0.0000       0.013336         0.3629
  68   0.0000       0.083269         2.2659
  69   0.0000       0.092068         2.5053
  70   0.0000       0.121013         3.2929
  71   0.0000       0.130529         3.5519

MULLIKEN ATOMIC CHARGES
-----------------------
   0 S :    0.085529
   1 C :   -0.128151
   2 C :   -0.087176
   3 C :   -0.027410
   4 C :   -0.109353
   5 H :    0.020865
   6 C :    0.097363
   7 H :    0.011227
   8 H :    0.030780
   9 C :   -0.116497
  10 H :    0.013348
  11 H :    0.033305
  12 C :   -0.030100
  13 H :    0.035060
  14 H :    0.045242
  15 H :    0.022279
  16 S :    0.109314
  17 C :   -0.096031
  18 C :   -0.088578
  19 C :   -0.013673
  20 C :   -0.143305
  21 H :    0.031174
  22 C :    0.037684
  23 H :    0.043704
  24 H :    0.039675
  25 C :   -0.059008
  26 H :    0.028085
  27 H :   -0.001821
  28 C :   -0.001253
  29 H :    0.018247
  30 H :    0.039071
  31 H :    0.007150
  32 H :    0.075205
  33 H :    0.078048
Sum of atomic charges:   -0.0000000

LOEWDIN ATOMIC CHARGES
----------------------
   0 S :    0.372514
   1 C :   -0.200159
   2 C :   -0.066181
   3 C :   -0.077413
   4 C :   -0.174830
   5 H :    0.034123
   6 C :   -0.023335
   7 H :    0.027275
   8 H :    0.028006
   9 C :   -0.049018
  10 H :    0.011921
  11 H :    0.032488
  12 C :   -0.067161
  13 H :    0.035619
  14 H :    0.033649
  15 H :    0.016837
  16 S :    0.435824
  17 C :   -0.214616
  18 C :   -0.070959
  19 C :   -0.062952
  20 C :   -0.200314
  21 H :    0.033173
  22 C :   -0.028611
  23 H :    0.029747
  24 H :    0.034929
  25 C :   -0.036327
  26 H :    0.025980
  27 H :    0.013855
  28 C :   -0.055475
  29 H :    0.018077
  30 H :    0.035909
  31 H :    0.014811
  32 H :    0.049321
  33 H :    0.043292

  Mayer bond orders larger than 0.100000
B(  0-S ,  1-C ) :   1.1121 B(  0-S ,  4-C ) :   1.1387 B(  1-C ,  2-C ) :   1.6466
B(  1-C , 32-H ) :   0.9483 B(  2-C ,  3-C ) :   1.2352 B(  2-C ,  6-C ) :   1.0127
B(  3-C ,  4-C ) :   1.5809 B(  3-C ,  5-H ) :   0.9742 B(  4-C , 20-C ) :   1.0730
B(  6-C ,  7-H ) :   0.9396 B(  6-C ,  8-H ) :   0.9385 B(  6-C ,  9-C ) :   1.0757
B(  9-C , 10-H ) :   0.9549 B(  9-C , 11-H ) :   0.9565 B(  9-C , 12-C ) :   1.0691
B( 12-C , 13-H ) :   0.9727 B( 12-C , 14-H ) :   0.9775 B( 12-C , 15-H ) :   0.9797
B( 16-S , 17-C ) :   1.1586 B( 16-S , 20-C ) :   1.1815 B( 17-C , 18-C ) :   1.5765
B( 17-C , 20-C ) :   0.1064 B( 17-C , 33-H ) :   0.9580 B( 18-C , 19-C ) :   1.3037
B( 18-C , 21-H ) :   0.9759 B( 19-C , 20-C ) :   1.5245 B( 19-C , 22-C ) :   1.0230
B( 22-C , 23-H ) :   0.9227 B( 22-C , 24-H ) :   0.9368 B( 22-C , 25-C ) :   1.1035
B( 25-C , 26-H ) :   0.9484 B( 25-C , 27-H ) :   0.9458 B( 25-C , 28-C ) :   1.0702
B( 28-C , 29-H ) :   0.9739 B( 28-C , 30-H ) :   0.9748 B( 28-C , 31-H ) :   0.9716

Dispersion correction           -0.013951063
FINAL SINGLE POINT ENERGY     -1339.850911082601

DIPOLE MOMENT
-------------
                                X             Y             Z
Electronic contribution:      1.13850      27.90299       0.29577
Nuclear contribution   :     -1.23669     -28.72277      -0.63458
                        -----------------------------------------
Total Dipole Moment    :     -0.09819      -0.81978      -0.33881
                        -----------------------------------------
Magnitude (a.u.)       :      0.89245
Magnitude (Debye)      :      2.26843

Rotational constants in cm-1:     0.018502     0.008657     0.006444
Rotational constants in MHz :   554.687443   259.522967   193.198688

                             ****ORCA TERMINATED NORMALLY****
TOTAL RUN TIME: 0 days 0 hours 0 minutes 29 seconds 957 msec
