                         Program Version 4.2.1 -  RELEASE  -
|  1> ! wB97X-D3 SP def2-SVP
|  2> %pal
|  3> nprocs 16
|  4> end
|  5>
|  6> * xyz 0 1
|  7> S 	 5.55587 	 -4.27169 	 89.68
|  8> C 	 7.22021 	 -3.81153 	 89.8613
|  9> C 	 8.01061 	 -4.24129 	 88.8078
| 10> C 	 7.27832 	 -5.13405 	 87.9357
| 11> C 	 5.90507 	 -4.98253 	 88.1113
| 12> H 	 7.80111 	 -5.65671 	 87.1497
| 13> C 	 9.47411 	 -4.02933 	 88.6161
| 14> H 	 9.99354 	 -4.77748 	 89.3019
| 15> H 	 9.59219 	 -2.97058 	 89.0521
| 16> C 	 10.1171 	 -4.11783 	 87.1571
| 17> H 	 9.92062 	 -5.13338 	 86.7487
| 18> H 	 9.53936 	 -3.52384 	 86.3659
| 19> C 	 11.6393 	 -3.74839 	 87.3233
| 20> H 	 11.9837 	 -3.63695 	 86.2725
| 21> H 	 11.6997 	 -2.7363 	 87.8494
| 22> H 	 12.1711 	 -4.51248 	 87.8931
| 23> S 	 3.81041 	 -6.59628 	 88.5091
| 24> C 	 2.75777 	 -6.90428 	 87.0855
| 25> C 	 3.27919 	 -6.47543 	 85.9026
| 26> C 	 4.48911 	 -5.74566 	 86.0639
| 27> C 	 4.88607 	 -5.70303 	 87.4266
| 28> H 	 2.84176 	 -6.65851 	 84.9175
| 29> C 	 5.20378 	 -5.02645 	 84.9205
| 30> H 	 5.77463 	 -4.26273 	 85.4102
| 31> H 	 4.50487 	 -4.58535 	 84.2456
| 32> C 	 5.92039 	 -6.02909 	 83.9826
| 33> H 	 5.2409 	 -6.51152 	 83.324
| 34> H 	 6.28373 	 -6.85019 	 84.6463
| 35> C 	 7.12661 	 -5.37741 	 83.3128
| 36> H 	 7.68437 	 -6.10727 	 82.6299
| 37> H 	 7.71075 	 -4.79482 	 83.9993
| 38> H 	 6.79428 	 -4.57796 	 82.5515
| 39> H 	 7.55284 	 -3.22456 	 90.7137
| 40> H 	 2.03474 	 -7.64994 	 87.1011
| 41> *
| 42>
| 43>                          ****END OF INPUT****

CARTESIAN COORDINATES (ANGSTROEM)
---------------------------------
  S      5.555870   -4.271690   89.680000
  C      7.220210   -3.811530   89.861300
  C      8.010610   -4.241290   88.807800
  C      7.278320   -5.134050   87.935700
  C      5.905070   -4.982530   88.111300
  H      7.801110   -5.656710   87.149700
  C      9.474110   -4.029330   88.616100
  H      9.993540   -4.777480   89.301900
  H      9.592190   -2.970580   89.052100
  C     10.117100   -4.117830   87.157100
  H      9.920620   -5.133380   86.748700
  H      9.539360   -3.523840   86.365900
  C     11.639300   -3.748390   87.323300
  H     11.983700   -3.636950   86.272500
  H     11.699700   -2.736300   87.849400
  H     12.171100   -4.512480   87.893100
  S      3.810410   -6.596280   88.509100
  C      2.757770   -6.904280   87.085500
  C      3.279190   -6.475430   85.902600
  C      4.489110   -5.745660   86.063900
  C      4.886070   -5.703030   87.426600
  H      2.841760   -6.658510   84.917500
  C      5.203780   -5.026450   84.920500
  H      5.774630   -4.262730   85.410200
  H      4.504870   -4.585350   84.245600
  C      5.920390   -6.029090   83.982600
  H      5.240900   -6.511520   83.324000
  H      6.283730   -6.850190   84.646300
  C      7.126610   -5.377410   83.312800
  H      7.684370   -6.107270   82.629900
  H      7.710750   -4.794820   83.999300
  H      6.794280   -4.577960   82.551500
  H      7.552840   -3.224560   90.713700
  H      2.034740   -7.649940   87.101100

 Total Charge           Charge          ....    0
 Multiplicity           Mult            ....    1
 Number of Electrons    NEL             ....  134
 Basis Dimension        Dim             ....  322

ORBITAL ENERGIES
----------------

  NO   OCC          E(Eh)            E(eV)
   0   2.0000     -88.965328     -2420.8696
   1   2.0000     -88.964940     -2420.8591
   2   2.0000     -10.326056      -280.9863
   3   2.0000     -10.325195      -280.9628
   4   2.0000     -10.310595      -280.5655
   5   2.0000     -10.310248      -280.5561
   6   2.0000     -10.306819      -280.4628
   7   2.0000     -10.304899      -280.4106
   8   2.0000     -10.303920      -280.3839
   9   2.0000     -10.298797      -280.2445
  10   2.0000     -10.294770      -280.1349
  11   2.0000     -10.294196      -280.1193
  12   2.0000     -10.293379      -280.0971
  13   2.0000     -10.289890      -280.0021
  14   2.0000     -10.287898      -279.9479
  15   2.0000     -10.287742      -279.9437
  16   2.0000      -8.079855      -219.8640
  17   2.0000      -8.079172      -219.8455
  18   2.0000      -6.038377      -164.3126
  19   2.0000      -6.037679      -164.2936
  20   2.0000      -6.034471      -164.2063
  21   2.0000      -6.033993      -164.1933
  22   2.0000      -6.030445      -164.0968
  23   2.0000      -6.029780      -164.0786
  24   2.0000      -1.005538       -27.3621
  25   2.0000      -0.977917       -26.6105
  26   2.0000      -0.910230       -24.7686
  27   2.0000      -0.903527       -24.5862
  28   2.0000      -0.870627       -23.6910
  29   2.0000      -0.849469       -23.1152
  30   2.0000      -0.843708       -22.9585
  31   2.0000      -0.812305       -22.1040
  32   2.0000      -0.776242       -21.1226
  33   2.0000      -0.762659       -20.7530
  34   2.0000      -0.712578       -19.3902
  35   2.0000      -0.700997       -19.0751
  36   2.0000      -0.693172       -18.8622
  37   2.0000      -0.660348       -17.9690
  38   2.0000      -0.635540       -17.2939
  39   2.0000      -0.619832       -16.8665
  40   2.0000      -0.594579       -16.1793
  41   2.0000      -0.568623       -15.4730
  42   2.0000      -0.563113       -15.3231
  43   2.0000      -0.551782       -15.0148
  44   2.0000      -0.531225       -14.4554
  45   2.0000      -0.523467       -14.2443
  46   2.0000      -0.516034       -14.0420
  47   2.0000      -0.503499       -13.7009
  48   2.0000      -0.502006       -13.6603
  49   2.0000      -0.494387       -13.4530
  50   2.0000      -0.487035       -13.2529
  51   2.0000      -0.483237       -13.1495
  52   2.0000      -0.471255       -12.8235
  53   2.0000      -0.465107       -12.6562
  54   2.0000      -0.461039       -12.5455
  55   2.0000      -0.453364       -12.3367
  56   2.0000      -0.449225       -12.2240
  57   2.0000      -0.436924       -11.8893
  58   2.0000      -0.433663       -11.8006
  59   2.0000      -0.422632       -11.5004
  60   2.0000      -0.418272       -11.3817
  61   2.0000      -0.415773       -11.3138
  62   2.0000      -0.405823       -11.0430
  63   2.0000      -0.347735        -9.4624
  64   2.0000      -0.331229        -9.0132
  65   2.0000      -0.323653        -8.8070
  66   2.0000      -0.283323        -7.7096
  67   0.0000       0.024617         0.6699
  68   0.0000       0.067432         1.8349
  69   0.0000       0.099203         2.6995
  70   0.0000       0.118209         3.2166
  71   0.0000       0.123986         3.3738

MULLIKEN ATOMIC CHARGES
-----------------------
   0 S :    0.106014
   1 C :   -0.133353
   2 C :   -0.073594
   3 C :    0.022935
   4 C :   -0.133662
   5 H :    0.013749
   6 C :   -0.011902
   7 H :    0.061409
   8 H :    0.043514
   9 C :   -0.132873
  10 H :    0.038759
  11 H :    0.048067
  12 C :   -0.050050
  13 H :    0.047424
  14 H :    0.048531
  15 H :    0.049067
  16 S :    0.090853
  17 C :   -0.052614
  18 C :   -0.031872
  19 C :   -0.057720
  20 C :   -0.168113
  21 H :    0.022435
  22 C :    0.098675
  23 H :    0.029208
  24 H :    0.018104
  25 C :   -0.074255
  26 H :    0.025114
  27 H :    0.036828
  28 C :   -0.071100
  29 H :    0.049800
  30 H :    0.031651
  31 H :    0.026778
  32 H :    0.048261
  33 H :    0.033929
Sum of atomic charges:   -0.0000000

LOEWDIN ATOMIC CHARGES
----------------------
   0 S :    0.406512
   1 C :   -0.207861
   2 C :   -0.069466
   3 C :   -0.055094
   4 C :   -0.196866
   5 H :    0.027464
   6 C :   -0.050094
   7 H :    0.044540
   8 H :    0.040393
   9 C :   -0.052913
  10 H :    0.021807
  11 H :    0.030822
  12 C :   -0.066245
  13 H :    0.031969
  14 H :    0.035954
  15 H :    0.028338
  16 S :    0.376882
  17 C :   -0.162680
  18 C :   -0.063911
  19 C :   -0.050434
  20 C :   -0.190326
  21 H :    0.035211
  22 C :   -0.024152
  23 H :    0.028574
  24 H :    0.028420
  25 C :   -0.040520
  26 H :    0.018888
  27 H :    0.025685
  28 C :   -0.074523
  29 H :    0.034540
  30 H :    0.020480
  31 H :    0.029734
  32 H :    0.026567
  33 H :    0.012307

  Mayer bond orders larger than 0.100000
B(  0-S ,  1-C ) :   1.1308 B(  0-S ,  4-C ) :   1.1456 B(  1-C ,  2-C ) :   1.6072
B(  1-C , 32-H ) :   0.9705 B(  2-C ,  3-C ) :   1.2432 B(  2-C ,  6-C ) :   1.0170
B(  3-C ,  4-C ) :   1.5507 B(  3-C ,  5-H ) :   0.9863 B(  4-C , 20-C ) :   1.0684
B(  6-C ,  7-H ) :   0.9362 B(  6-C ,  8-H ) :   0.9459 B(  6-C ,  9-C ) :   1.0504
B(  9-C , 10-H ) :   0.9483 B(  9-C , 11-H ) :   0.9616 B(  9-C , 12-C ) :   1.0628
B( 12-C , 13-H ) :   0.9748 B( 12-C , 14-H ) :   0.9757 B( 12-C , 15-H ) :   0.9754
B( 16-S , 17-C ) :   1.1219 B( 16-S , 20-C ) :   1.1412 B( 17-C , 18-C ) :   1.6382
B( 17-C , 33-H ) :   0.9676 B( 18-C , 19-C ) :   1.2382 B( 18-C , 21-H ) :   0.9828
B( 19-C , 20-C ) :   1.5842 B( 19-C , 22-C ) :   1.0539 B( 22-C , 23-H ) :   0.9410
B( 22-C , 24-H ) :   0.9323 B( 22-C , 25-C ) :   1.0308 B( 25-C , 26-H ) :   0.9546
B( 25-C , 27-H ) :   0.9617 B( 25-C , 28-C ) :   1.0836 B( 28-C , 29-H ) :   0.9725
B( 28-C , 30-H ) :   0.9771 B( 28-C , 31-H ) :   0.9694

Dispersion correction           -0.014299137
FINAL SINGLE POINT ENERGY     -1339.855614106211

DIPOLE MOMENT
-------------
                                X             Y             Z
Electronic contribution:    -24.78971      -4.59348      21.17121
Nuclear contribution   :     25.32928       4.55822     -21.71886
                        -----------------------------------------
Total Dipole Moment    :      0.53957      -0.03526      -0.54765
                        -----------------------------------------
Magnitude (a.u.)       :      0.76961
Magnitude (Debye)      :      1.95618

Rotational constants in cm-1:     0.016993     0.009735     0.006519
Rotational constants in MHz :   509.425638   291.848074   195.441700

                             ****ORCA TERMINATED NORMALLY****
TOTAL RUN TIME: 0 days 0 hours 0 minutes 32 seconds 502 msec
