                         Program Version 4.2.1 -  RELEASE  -
|  1> ! wB97X-D3 SP def2-SVP
|  2> %pal
|  3> nprocs 16
|  4> end
|  5>
|  6> * xyz 0 1
|  7> S 	 -42.5956 	 55.5392 	 112.499
|  8> C 	 -43.31 	 54.6407 	 111.17
|  9> C 	 -42.424 	 54.4094 	 110.128
| 10> C 	 -41.1151 	 54.876 	 110.508
| 11> C 	 -41.0427 	 55.4848 	 111.75
| 12> H 	 -40.283 	 54.9729 	 109.797
| 13> C 	 -42.6291 	 53.8051 	 108.742
| 14> H 	 -43.3351 	 52.9475 	 108.78
| 15> H 	 -41.7745 	 53.263 	 108.533
| 16> C 	 -42.8887 	 54.7704 	 107.482
| 17> H 	 -42.0407 	 55.483 	 107.523
| 18> H 	 -42.7808 	 54.1753 	 106.532
| 19> C 	 -44.172 	 55.6102 	 107.53
| 20> H 	 -45.1573 	 55.0422 	 107.382
| 21> H 	 -44.1997 	 56.2914 	 108.442
| 22> H 	 -44.1767 	 56.2182 	 106.57
| 23> S 	 -40.0165 	 57.2362 	 113.542
| 24> C 	 -38.4136 	 56.9193 	 114.226
| 25> C 	 -37.7006 	 55.8873 	 113.572
| 26> C 	 -38.5904 	 55.232 	 112.599
| 27> C 	 -39.8203 	 55.8278 	 112.505
| 28> H 	 -36.6613 	 55.6646 	 113.824
| 29> C 	 -38.1602 	 53.9546 	 111.861
| 30> H 	 -37.1429 	 53.8271 	 112.265
| 31> H 	 -37.9839 	 54.0542 	 110.819
| 32> C 	 -38.9123 	 52.693 	 112.232
| 33> H 	 -39.93 	 52.7135 	 111.762
| 34> H 	 -39.1529 	 52.7117 	 113.304
| 35> C 	 -38.2701 	 51.313 	 111.938
| 36> H 	 -38.0208 	 51.1854 	 110.877
| 37> H 	 -38.9855 	 50.6163 	 112.23
| 38> H 	 -37.355 	 51.276 	 112.515
| 39> H 	 -44.3826 	 54.6155 	 111.03
| 40> H 	 -37.9486 	 57.5891 	 114.914
| 41> *
| 42>
| 43>                          ****END OF INPUT****

CARTESIAN COORDINATES (ANGSTROEM)
---------------------------------
  S    -42.595600   55.539200  112.499000
  C    -43.310000   54.640700  111.170000
  C    -42.424000   54.409400  110.128000
  C    -41.115100   54.876000  110.508000
  C    -41.042700   55.484800  111.750000
  H    -40.283000   54.972900  109.797000
  C    -42.629100   53.805100  108.742000
  H    -43.335100   52.947500  108.780000
  H    -41.774500   53.263000  108.533000
  C    -42.888700   54.770400  107.482000
  H    -42.040700   55.483000  107.523000
  H    -42.780800   54.175300  106.532000
  C    -44.172000   55.610200  107.530000
  H    -45.157300   55.042200  107.382000
  H    -44.199700   56.291400  108.442000
  H    -44.176700   56.218200  106.570000
  S    -40.016500   57.236200  113.542000
  C    -38.413600   56.919300  114.226000
  C    -37.700600   55.887300  113.572000
  C    -38.590400   55.232000  112.599000
  C    -39.820300   55.827800  112.505000
  H    -36.661300   55.664600  113.824000
  C    -38.160200   53.954600  111.861000
  H    -37.142900   53.827100  112.265000
  H    -37.983900   54.054200  110.819000
  C    -38.912300   52.693000  112.232000
  H    -39.930000   52.713500  111.762000
  H    -39.152900   52.711700  113.304000
  C    -38.270100   51.313000  111.938000
  H    -38.020800   51.185400  110.877000
  H    -38.985500   50.616300  112.230000
  H    -37.355000   51.276000  112.515000
  H    -44.382600   54.615500  111.030000
  H    -37.948600   57.589100  114.914000

 Total Charge           Charge          ....    0
 Multiplicity           Mult            ....    1
 Number of Electrons    NEL             ....  134
 Basis Dimension        Dim             ....  322

ORBITAL ENERGIES
----------------

  NO   OCC          E(Eh)            E(eV)
   0   2.0000     -88.967427     -2420.9268
   1   2.0000     -88.967369     -2420.9252
   2   2.0000     -10.328295      -281.0472
   3   2.0000     -10.327492      -281.0253
   4   2.0000     -10.322298      -280.8840
   5   2.0000     -10.314802      -280.6800
   6   2.0000     -10.309573      -280.5378
   7   2.0000     -10.306656      -280.4584
   8   2.0000     -10.306484      -280.4537
   9   2.0000     -10.302630      -280.3488
  10   2.0000     -10.294312      -280.1225
  11   2.0000     -10.293810      -280.1088
  12   2.0000     -10.293277      -280.0943
  13   2.0000     -10.288927      -279.9759
  14   2.0000     -10.280893      -279.7573
  15   2.0000     -10.272344      -279.5247
  16   2.0000      -8.082475      -219.9353
  17   2.0000      -8.081875      -219.9190
  18   2.0000      -6.041017      -164.3844
  19   2.0000      -6.040339      -164.3660
  20   2.0000      -6.036916      -164.2728
  21   2.0000      -6.036563      -164.2632
  22   2.0000      -6.033182      -164.1712
  23   2.0000      -6.032576      -164.1547
  24   2.0000      -1.005758       -27.3681
  25   2.0000      -0.979529       -26.6543
  26   2.0000      -0.905274       -24.6338
  27   2.0000      -0.901984       -24.5442
  28   2.0000      -0.863503       -23.4971
  29   2.0000      -0.850323       -23.1385
  30   2.0000      -0.843900       -22.9637
  31   2.0000      -0.810333       -22.0503
  32   2.0000      -0.784682       -21.3523
  33   2.0000      -0.776375       -21.1262
  34   2.0000      -0.701149       -19.0792
  35   2.0000      -0.695195       -18.9172
  36   2.0000      -0.684643       -18.6301
  37   2.0000      -0.667531       -18.1645
  38   2.0000      -0.637629       -17.3508
  39   2.0000      -0.617659       -16.8074
  40   2.0000      -0.593774       -16.1574
  41   2.0000      -0.568373       -15.4662
  42   2.0000      -0.558566       -15.1994
  43   2.0000      -0.542685       -14.7672
  44   2.0000      -0.532632       -14.4937
  45   2.0000      -0.527242       -14.3470
  46   2.0000      -0.511287       -13.9128
  47   2.0000      -0.509112       -13.8536
  48   2.0000      -0.498830       -13.5739
  49   2.0000      -0.492929       -13.4133
  50   2.0000      -0.488637       -13.2965
  51   2.0000      -0.486205       -13.2303
  52   2.0000      -0.474334       -12.9073
  53   2.0000      -0.457405       -12.4466
  54   2.0000      -0.456416       -12.4197
  55   2.0000      -0.451738       -12.2924
  56   2.0000      -0.443355       -12.0643
  57   2.0000      -0.438618       -11.9354
  58   2.0000      -0.428207       -11.6521
  59   2.0000      -0.426098       -11.5947
  60   2.0000      -0.420270       -11.4361
  61   2.0000      -0.414656       -11.2834
  62   2.0000      -0.403349       -10.9757
  63   2.0000      -0.349202        -9.5023
  64   2.0000      -0.333747        -9.0817
  65   2.0000      -0.331181        -9.0119
  66   2.0000      -0.290412        -7.9025
  67   0.0000       0.024566         0.6685
  68   0.0000       0.070956         1.9308
  69   0.0000       0.093986         2.5575
  70   0.0000       0.116218         3.1624
  71   0.0000       0.134439         3.6583

MULLIKEN ATOMIC CHARGES
-----------------------
   0 S :    0.110148
   1 C :   -0.121802
   2 C :   -0.093105
   3 C :   -0.027775
   4 C :   -0.110227
   5 H :    0.027396
   6 C :    0.083890
   7 H :    0.025342
   8 H :    0.001049
   9 C :   -0.075669
  10 H :    0.032316
  11 H :    0.045057
  12 C :   -0.104780
  13 H :    0.042628
  14 H :    0.063448
  15 H :    0.041043
  16 S :    0.093264
  17 C :   -0.080118
  18 C :   -0.038588
  19 C :   -0.077684
  20 C :   -0.129735
  21 H :    0.035167
  22 C :    0.104142
  23 H :   -0.003915
  24 H :    0.026861
  25 C :   -0.121937
  26 H :    0.043388
  27 H :    0.029568
  28 C :   -0.011875
  29 H :    0.029145
  30 H :    0.030711
  31 H :    0.028950
  32 H :    0.053301
  33 H :    0.050395
Sum of atomic charges:    0.0000000

LOEWDIN ATOMIC CHARGES
----------------------
   0 S :    0.414923
   1 C :   -0.197361
   2 C :   -0.060476
   3 C :   -0.071401
   4 C :   -0.203970
   5 H :    0.033416
   6 C :   -0.036757
   7 H :    0.033371
   8 H :    0.021590
   9 C :   -0.040811
  10 H :    0.027129
  11 H :    0.032029
  12 C :   -0.087750
  13 H :    0.030421
  14 H :    0.036538
  15 H :    0.033772
  16 S :    0.387394
  17 C :   -0.170771
  18 C :   -0.065151
  19 C :   -0.051758
  20 C :   -0.188545
  21 H :    0.037176
  22 C :   -0.034120
  23 H :    0.029581
  24 H :    0.023446
  25 C :   -0.047887
  26 H :    0.027068
  27 H :    0.027132
  28 C :   -0.054240
  29 H :    0.024368
  30 H :    0.021978
  31 H :    0.022831
  32 H :    0.026205
  33 H :    0.020631

  Mayer bond orders larger than 0.100000
B(  0-S ,  1-C ) :   1.1421 B(  0-S ,  4-C ) :   1.1591 B(  1-C ,  2-C ) :   1.6098
B(  1-C , 32-H ) :   0.9639 B(  2-C ,  3-C ) :   1.2472 B(  2-C ,  6-C ) :   1.0209
B(  3-C ,  4-C ) :   1.5741 B(  3-C ,  5-H ) :   0.9906 B(  4-C , 20-C ) :   1.0218
B(  6-C ,  7-H ) :   0.9430 B(  6-C ,  8-H ) :   0.9320 B(  6-C ,  9-C ) :   1.0552
B(  9-C , 10-H ) :   0.9556 B(  9-C , 11-H ) :   0.9564 B(  9-C , 12-C ) :   1.0751
B( 12-C , 13-H ) :   0.9742 B( 12-C , 14-H ) :   0.9713 B( 12-C , 15-H ) :   0.9714
B( 16-S , 17-C ) :   1.1475 B( 16-S , 20-C ) :   1.1244 B( 17-C , 18-C ) :   1.6329
B( 17-C , 33-H ) :   0.9675 B( 18-C , 19-C ) :   1.2143 B( 18-C , 21-H ) :   0.9839
B( 19-C , 20-C ) :   1.6421 B( 19-C , 22-C ) :   1.0328 B( 22-C , 23-H ) :   0.9245
B( 22-C , 24-H ) :   0.9338 B( 22-C , 25-C ) :   1.0636 B( 25-C , 26-H ) :   0.9490
B( 25-C , 27-H ) :   0.9531 B( 25-C , 28-C ) :   1.0884 B( 28-C , 29-H ) :   0.9754
B( 28-C , 30-H ) :   0.9737 B( 28-C , 31-H ) :   0.9756

Dispersion correction           -0.014717622
FINAL SINGLE POINT ENERGY     -1339.873036003858

DIPOLE MOMENT
-------------
                                X             Y             Z
Electronic contribution:     -1.57154      17.18381      19.62937
Nuclear contribution   :      1.87075     -17.47085     -20.12280
                        -----------------------------------------
Total Dipole Moment    :      0.29921      -0.28704      -0.49343
                        -----------------------------------------
Magnitude (a.u.)       :      0.64451
Magnitude (Debye)      :      1.63821

Rotational constants in cm-1:     0.018696     0.008801     0.006903
Rotational constants in MHz :   560.479394   263.844874   206.960864

                             ****ORCA TERMINATED NORMALLY****
TOTAL RUN TIME: 0 days 0 hours 0 minutes 30 seconds 517 msec
