                         Program Version 4.2.1 -  RELEASE  -
|  1> ! wB97X-D3 SP def2-SVP
|  2> %pal
|  3> nprocs 16
|  4> end
|  5>
|  6> * xyz 0 1
|  7> S 	 -12.696 	 -2.1336 	 86.0115
|  8> C 	 -11.9453 	 -2.90652 	 84.6909
|  9> C 	 -12.3488 	 -4.21439 	 84.6245
| 10> C 	 -13.1113 	 -4.67199 	 85.7042
| 11> C 	 -13.5297 	 -3.62875 	 86.5075
| 12> H 	 -13.4977 	 -5.66775 	 85.9068
| 13> C 	 -11.8145 	 -5.20513 	 83.5387
| 14> H 	 -11.3348 	 -6.02518 	 84.153
| 15> H 	 -11.0883 	 -4.62537 	 82.9427
| 16> C 	 -12.8467 	 -5.74082 	 82.5503
| 17> H 	 -13.7768 	 -5.9423 	 83.1185
| 18> H 	 -13.2382 	 -5.0514 	 81.8452
| 19> C 	 -12.5094 	 -7.10947 	 81.9132
| 20> H 	 -11.9146 	 -7.73129 	 82.587
| 21> H 	 -13.386 	 -7.69424 	 81.5673
| 22> H 	 -11.8915 	 -6.96419 	 81.0497
| 23> S 	 -15.5877 	 -5.0103 	 87.811
| 24> C 	 -15.8458 	 -4.72886 	 89.5096
| 25> C 	 -14.8517 	 -3.84613 	 90.0114
| 26> C 	 -14.0289 	 -3.27337 	 88.9751
| 27> C 	 -14.2725 	 -3.76491 	 87.7151
| 28> H 	 -14.8123 	 -3.63023 	 91.1117
| 29> C 	 -12.9524 	 -2.25759 	 89.3522
| 30> H 	 -12.1004 	 -2.5674 	 88.717
| 31> H 	 -12.6112 	 -2.43746 	 90.3537
| 32> C 	 -13.2838 	 -0.831575 	 89.0267
| 33> H 	 -13.7145 	 -0.779411 	 88.0364
| 34> H 	 -12.3241 	 -0.338816 	 88.898
| 35> C 	 -14.208 	 -0.12356 	 90.023
| 36> H 	 -14.3654 	 0.892675 	 89.8155
| 37> H 	 -13.7206 	 0.0552081 	 90.9303
| 38> H 	 -15.1904 	 -0.629897 	 90.187
| 39> H 	 -11.1748 	 -2.47622 	 84.041
| 40> H 	 -16.6072 	 -5.17375 	 90.1001
| 41> *
| 42>
| 43>                          ****END OF INPUT****

CARTESIAN COORDINATES (ANGSTROEM)
---------------------------------
  S    -12.696000   -2.133600   86.011500
  C    -11.945300   -2.906520   84.690900
  C    -12.348800   -4.214390   84.624500
  C    -13.111300   -4.671990   85.704200
  C    -13.529700   -3.628750   86.507500
  H    -13.497700   -5.667750   85.906800
  C    -11.814500   -5.205130   83.538700
  H    -11.334800   -6.025180   84.153000
  H    -11.088300   -4.625370   82.942700
  C    -12.846700   -5.740820   82.550300
  H    -13.776800   -5.942300   83.118500
  H    -13.238200   -5.051400   81.845200
  C    -12.509400   -7.109470   81.913200
  H    -11.914600   -7.731290   82.587000
  H    -13.386000   -7.694240   81.567300
  H    -11.891500   -6.964190   81.049700
  S    -15.587700   -5.010300   87.811000
  C    -15.845800   -4.728860   89.509600
  C    -14.851700   -3.846130   90.011400
  C    -14.028900   -3.273370   88.975100
  C    -14.272500   -3.764910   87.715100
  H    -14.812300   -3.630230   91.111700
  C    -12.952400   -2.257590   89.352200
  H    -12.100400   -2.567400   88.717000
  H    -12.611200   -2.437460   90.353700
  C    -13.283800   -0.831575   89.026700
  H    -13.714500   -0.779411   88.036400
  H    -12.324100   -0.338816   88.898000
  C    -14.208000   -0.123560   90.023000
  H    -14.365400    0.892675   89.815500
  H    -13.720600    0.055208   90.930300
  H    -15.190400   -0.629897   90.187000
  H    -11.174800   -2.476220   84.041000
  H    -16.607200   -5.173750   90.100100

 Total Charge           Charge          ....    0
 Multiplicity           Mult            ....    1
 Number of Electrons    NEL             ....  134
 Basis Dimension        Dim             ....  322

ORBITAL ENERGIES
----------------

  NO   OCC          E(Eh)            E(eV)
   0   2.0000     -88.969292     -2420.9775
   1   2.0000     -88.967273     -2420.9226
   2   2.0000     -10.330616      -281.1104
   3   2.0000     -10.328311      -281.0476
   4   2.0000     -10.322439      -280.8879
   5   2.0000     -10.311427      -280.5882
   6   2.0000     -10.303927      -280.3841
   7   2.0000     -10.302619      -280.3485
   8   2.0000     -10.298553      -280.2379
   9   2.0000     -10.297904      -280.2202
  10   2.0000     -10.291975      -280.0589
  11   2.0000     -10.286130      -279.8998
  12   2.0000     -10.282644      -279.8050
  13   2.0000     -10.280374      -279.7432
  14   2.0000     -10.277311      -279.6599
  15   2.0000     -10.267461      -279.3918
  16   2.0000      -8.083500      -219.9632
  17   2.0000      -8.081027      -219.8959
  18   2.0000      -6.042003      -164.4113
  19   2.0000      -6.039634      -164.3468
  20   2.0000      -6.037987      -164.3020
  21   2.0000      -6.035650      -164.2384
  22   2.0000      -6.034371      -164.2036
  23   2.0000      -6.031775      -164.1330
  24   2.0000      -1.009592       -27.4724
  25   2.0000      -0.982603       -26.7380
  26   2.0000      -0.911694       -24.8085
  27   2.0000      -0.904079       -24.6012
  28   2.0000      -0.874577       -23.7985
  29   2.0000      -0.852092       -23.1866
  30   2.0000      -0.845045       -22.9949
  31   2.0000      -0.809796       -22.0357
  32   2.0000      -0.787508       -21.4292
  33   2.0000      -0.770865       -20.9763
  34   2.0000      -0.712997       -19.4016
  35   2.0000      -0.697552       -18.9813
  36   2.0000      -0.694585       -18.9006
  37   2.0000      -0.669962       -18.2306
  38   2.0000      -0.639535       -17.4026
  39   2.0000      -0.611788       -16.6476
  40   2.0000      -0.593576       -16.1520
  41   2.0000      -0.567316       -15.4374
  42   2.0000      -0.555981       -15.1290
  43   2.0000      -0.553075       -15.0499
  44   2.0000      -0.544090       -14.8054
  45   2.0000      -0.519818       -14.1450
  46   2.0000      -0.518425       -14.1071
  47   2.0000      -0.513254       -13.9664
  48   2.0000      -0.507251       -13.8030
  49   2.0000      -0.497227       -13.5302
  50   2.0000      -0.495536       -13.4842
  51   2.0000      -0.482016       -13.1163
  52   2.0000      -0.472686       -12.8624
  53   2.0000      -0.469413       -12.7734
  54   2.0000      -0.461963       -12.5707
  55   2.0000      -0.449240       -12.2244
  56   2.0000      -0.445383       -12.1195
  57   2.0000      -0.439611       -11.9624
  58   2.0000      -0.430894       -11.7252
  59   2.0000      -0.422366       -11.4932
  60   2.0000      -0.412353       -11.2207
  61   2.0000      -0.407350       -11.0846
  62   2.0000      -0.401169       -10.9164
  63   2.0000      -0.359674        -9.7872
  64   2.0000      -0.331980        -9.0336
  65   2.0000      -0.330229        -8.9860
  66   2.0000      -0.284818        -7.7503
  67   0.0000       0.021733         0.5914
  68   0.0000       0.073804         2.0083
  69   0.0000       0.108351         2.9484
  70   0.0000       0.115361         3.1391
  71   0.0000       0.136031         3.7016

MULLIKEN ATOMIC CHARGES
-----------------------
   0 S :    0.092054
   1 C :   -0.114246
   2 C :   -0.088367
   3 C :    0.002975
   4 C :   -0.136909
   5 H :    0.023738
   6 C :    0.064150
   7 H :    0.046462
   8 H :    0.017464
   9 C :   -0.067774
  10 H :    0.019836
  11 H :    0.022587
  12 C :   -0.052223
  13 H :    0.025090
  14 H :    0.041542
  15 H :    0.024249
  16 S :    0.093295
  17 C :   -0.087287
  18 C :   -0.053794
  19 C :   -0.062705
  20 C :   -0.131406
  21 H :    0.040480
  22 C :    0.061390
  23 H :    0.031480
  24 H :    0.013784
  25 C :   -0.049490
  26 H :    0.030198
  27 H :    0.022495
  28 C :    0.001890
  29 H :    0.009785
  30 H :    0.000307
  31 H :    0.047391
  32 H :    0.057814
  33 H :    0.053744
Sum of atomic charges:    0.0000000

LOEWDIN ATOMIC CHARGES
----------------------
   0 S :    0.432564
   1 C :   -0.218700
   2 C :   -0.068519
   3 C :   -0.065527
   4 C :   -0.175661
   5 H :    0.031465
   6 C :   -0.027747
   7 H :    0.039518
   8 H :    0.026777
   9 C :   -0.049841
  10 H :    0.025501
  11 H :    0.022011
  12 C :   -0.066066
  13 H :    0.023625
  14 H :    0.031340
  15 H :    0.019185
  16 S :    0.386706
  17 C :   -0.181898
  18 C :   -0.077753
  19 C :   -0.052043
  20 C :   -0.182955
  21 H :    0.039401
  22 C :   -0.034221
  23 H :    0.030052
  24 H :    0.025877
  25 C :   -0.042786
  26 H :    0.012301
  27 H :    0.026885
  28 C :   -0.065771
  29 H :    0.022308
  30 H :    0.017824
  31 H :    0.034407
  32 H :    0.036455
  33 H :    0.025284

  Mayer bond orders larger than 0.100000
B(  0-S ,  1-C ) :   1.1388 B(  0-S ,  4-C ) :   1.1407 B(  1-C ,  2-C ) :   1.6078
B(  1-C , 32-H ) :   0.9635 B(  2-C ,  3-C ) :   1.2626 B(  2-C ,  6-C ) :   1.0171
B(  3-C ,  4-C ) :   1.5554 B(  3-C ,  5-H ) :   0.9842 B(  4-C , 20-C ) :   1.0871
B(  6-C ,  7-H ) :   0.9445 B(  6-C ,  8-H ) :   0.9429 B(  6-C ,  9-C ) :   1.0571
B(  9-C , 10-H ) :   0.9619 B(  9-C , 11-H ) :   0.9539 B(  9-C , 12-C ) :   1.0701
B( 12-C , 13-H ) :   0.9767 B( 12-C , 14-H ) :   0.9768 B( 12-C , 15-H ) :   0.9774
B( 16-S , 17-C ) :   1.1642 B( 16-S , 20-C ) :   1.1111 B( 17-C , 18-C ) :   1.5845
B( 17-C , 33-H ) :   0.9731 B( 18-C , 19-C ) :   1.2502 B( 18-C , 21-H ) :   0.9825
B( 19-C , 20-C ) :   1.5794 B( 19-C , 22-C ) :   1.0369 B( 22-C , 23-H ) :   0.9209
B( 22-C , 24-H ) :   0.9385 B( 22-C , 25-C ) :   1.0765 B( 25-C , 26-H ) :   0.9470
B( 25-C , 27-H ) :   0.9503 B( 25-C , 28-C ) :   1.0811 B( 28-C , 29-H ) :   0.9657
B( 28-C , 30-H ) :   0.9666 B( 28-C , 31-H ) :   0.9741

Dispersion correction           -0.014236332
FINAL SINGLE POINT ENERGY     -1339.874546380386

DIPOLE MOMENT
-------------
                                X             Y             Z
Electronic contribution:     -6.78220       0.26030       5.91535
Nuclear contribution   :      7.07286      -0.31592      -5.75922
                        -----------------------------------------
Total Dipole Moment    :      0.29066      -0.05562       0.15613
                        -----------------------------------------
Magnitude (a.u.)       :      0.33459
Magnitude (Debye)      :      0.85047

Rotational constants in cm-1:     0.023532     0.007889     0.006172
Rotational constants in MHz :   705.466507   236.507757   185.019726

                             ****ORCA TERMINATED NORMALLY****
TOTAL RUN TIME: 0 days 0 hours 0 minutes 33 seconds 557 msec
