                         Program Version 4.2.1 -  RELEASE  -
|  1> ! wB97X-D3 SP def2-SVP
|  2> %pal
|  3> nprocs 16
|  4> end
|  5>
|  6> * xyz 0 1
|  7> S 	 -38.9933 	 53.9209 	 109.309
|  8> C 	 -38.647 	 54.2494 	 110.993
|  9> C 	 -38.1808 	 53.1302 	 111.665
| 10> C 	 -38.0728 	 52.0123 	 110.807
| 11> C 	 -38.5159 	 52.2795 	 109.5
| 12> H 	 -37.7098 	 50.9971 	 111.068
| 13> C 	 -37.6846 	 53.1517 	 113.087
| 14> H 	 -37.4138 	 54.234 	 113.278
| 15> H 	 -36.8187 	 52.6475 	 113.297
| 16> C 	 -38.7552 	 52.7899 	 114.151
| 17> H 	 -39.0596 	 51.7604 	 113.882
| 18> H 	 -38.4026 	 52.7135 	 115.185
| 19> C 	 -40.008 	 53.7146 	 114.174
| 20> H 	 -40.7471 	 53.4779 	 113.412
| 21> H 	 -40.4792 	 53.6964 	 115.131
| 22> H 	 -39.7551 	 54.8464 	 114.065
| 23> S 	 -37.5949 	 51.6451 	 107.077
| 24> C 	 -38.183 	 50.1927 	 106.263
| 25> C 	 -39.0657 	 49.4941 	 107.031
| 26> C 	 -39.3046 	 50.1389 	 108.295
| 27> C 	 -38.6307 	 51.3399 	 108.379
| 28> H 	 -39.4412 	 48.5554 	 106.603
| 29> C 	 -40.1814 	 49.5953 	 109.433
| 30> H 	 -40.6415 	 50.3972 	 109.857
| 31> H 	 -39.5255 	 49.1975 	 110.237
| 32> C 	 -41.2175 	 48.5408 	 108.951
| 33> H 	 -41.7835 	 48.103 	 109.846
| 34> H 	 -40.7508 	 47.7173 	 108.468
| 35> C 	 -42.1302 	 49.1188 	 107.812
| 36> H 	 -42.9746 	 48.5034 	 107.565
| 37> H 	 -41.5547 	 49.1553 	 106.86
| 38> H 	 -42.4531 	 50.1542 	 108.151
| 39> H 	 -38.8749 	 55.1208 	 111.512
| 40> H 	 -37.9805 	 49.9882 	 105.202
| 41> *
| 42>
| 43>                          ****END OF INPUT****

CARTESIAN COORDINATES (ANGSTROEM)
---------------------------------
  S    -38.993300   53.920900  109.309000
  C    -38.647000   54.249400  110.993000
  C    -38.180800   53.130200  111.665000
  C    -38.072800   52.012300  110.807000
  C    -38.515900   52.279500  109.500000
  H    -37.709800   50.997100  111.068000
  C    -37.684600   53.151700  113.087000
  H    -37.413800   54.234000  113.278000
  H    -36.818700   52.647500  113.297000
  C    -38.755200   52.789900  114.151000
  H    -39.059600   51.760400  113.882000
  H    -38.402600   52.713500  115.185000
  C    -40.008000   53.714600  114.174000
  H    -40.747100   53.477900  113.412000
  H    -40.479200   53.696400  115.131000
  H    -39.755100   54.846400  114.065000
  S    -37.594900   51.645100  107.077000
  C    -38.183000   50.192700  106.263000
  C    -39.065700   49.494100  107.031000
  C    -39.304600   50.138900  108.295000
  C    -38.630700   51.339900  108.379000
  H    -39.441200   48.555400  106.603000
  C    -40.181400   49.595300  109.433000
  H    -40.641500   50.397200  109.857000
  H    -39.525500   49.197500  110.237000
  C    -41.217500   48.540800  108.951000
  H    -41.783500   48.103000  109.846000
  H    -40.750800   47.717300  108.468000
  C    -42.130200   49.118800  107.812000
  H    -42.974600   48.503400  107.565000
  H    -41.554700   49.155300  106.860000
  H    -42.453100   50.154200  108.151000
  H    -38.874900   55.120800  111.512000
  H    -37.980500   49.988200  105.202000

 Total Charge           Charge          ....    0
 Multiplicity           Mult            ....    1
 Number of Electrons    NEL             ....  134
 Basis Dimension        Dim             ....  322

ORBITAL ENERGIES
----------------

  NO   OCC          E(Eh)            E(eV)
   0   2.0000     -88.970526     -2421.0111
   1   2.0000     -88.962308     -2420.7875
   2   2.0000     -10.327492      -281.0253
   3   2.0000     -10.318492      -280.7804
   4   2.0000     -10.314906      -280.6829
   5   2.0000     -10.309523      -280.5364
   6   2.0000     -10.303521      -280.3731
   7   2.0000     -10.300649      -280.2949
   8   2.0000     -10.297389      -280.2062
   9   2.0000     -10.296568      -280.1839
  10   2.0000     -10.292129      -280.0631
  11   2.0000     -10.291478      -280.0453
  12   2.0000     -10.290437      -280.0170
  13   2.0000     -10.288313      -279.9592
  14   2.0000     -10.282497      -279.8010
  15   2.0000     -10.280934      -279.7584
  16   2.0000      -8.085486      -220.0173
  17   2.0000      -8.078250      -219.8204
  18   2.0000      -6.043827      -164.4609
  19   2.0000      -6.039871      -164.3532
  20   2.0000      -6.036655      -164.2657
  21   2.0000      -6.036511      -164.2618
  22   2.0000      -6.032589      -164.1551
  23   2.0000      -6.029034      -164.0584
  24   2.0000      -1.012313       -27.5464
  25   2.0000      -0.988066       -26.8867
  26   2.0000      -0.910775       -24.7834
  27   2.0000      -0.904646       -24.6167
  28   2.0000      -0.868674       -23.6378
  29   2.0000      -0.847872       -23.0718
  30   2.0000      -0.839817       -22.8526
  31   2.0000      -0.814533       -22.1646
  32   2.0000      -0.786379       -21.3985
  33   2.0000      -0.773211       -21.0401
  34   2.0000      -0.706349       -19.2207
  35   2.0000      -0.696432       -18.9509
  36   2.0000      -0.694564       -18.9000
  37   2.0000      -0.655096       -17.8261
  38   2.0000      -0.642522       -17.4839
  39   2.0000      -0.618976       -16.8432
  40   2.0000      -0.598830       -16.2950
  41   2.0000      -0.575815       -15.6687
  42   2.0000      -0.555039       -15.1034
  43   2.0000      -0.547635       -14.9019
  44   2.0000      -0.543234       -14.7821
  45   2.0000      -0.524981       -14.2855
  46   2.0000      -0.520199       -14.1553
  47   2.0000      -0.510407       -13.8889
  48   2.0000      -0.499069       -13.5804
  49   2.0000      -0.490243       -13.3402
  50   2.0000      -0.488519       -13.2933
  51   2.0000      -0.478042       -13.0082
  52   2.0000      -0.470007       -12.7895
  53   2.0000      -0.466013       -12.6809
  54   2.0000      -0.459554       -12.5051
  55   2.0000      -0.449023       -12.2185
  56   2.0000      -0.440269       -11.9803
  57   2.0000      -0.438187       -11.9237
  58   2.0000      -0.432494       -11.7688
  59   2.0000      -0.428216       -11.6524
  60   2.0000      -0.421997       -11.4831
  61   2.0000      -0.417123       -11.3505
  62   2.0000      -0.415176       -11.2975
  63   2.0000      -0.342856        -9.3296
  64   2.0000      -0.335875        -9.1396
  65   2.0000      -0.324126        -8.8199
  66   2.0000      -0.298348        -8.1185
  67   0.0000       0.036416         0.9909
  68   0.0000       0.067928         1.8484
  69   0.0000       0.116001         3.1565
  70   0.0000       0.123977         3.3736
  71   0.0000       0.129893         3.5346

MULLIKEN ATOMIC CHARGES
-----------------------
   0 S :    0.133799
   1 C :   -0.085676
   2 C :   -0.084552
   3 C :    0.034865
   4 C :   -0.193050
   5 H :    0.023927
   6 C :    0.087546
   7 H :    0.022263
   8 H :    0.009934
   9 C :   -0.076150
  10 H :    0.025421
  11 H :    0.034615
  12 C :   -0.081119
  13 H :    0.048676
  14 H :    0.029325
  15 H :    0.028859
  16 S :    0.113851
  17 C :   -0.107336
  18 C :   -0.057602
  19 C :   -0.049376
  20 C :   -0.166548
  21 H :    0.031727
  22 C :    0.131778
  23 H :    0.010638
  24 H :    0.039805
  25 C :   -0.088638
  26 H :    0.044817
  27 H :    0.019678
  28 C :   -0.078769
  29 H :    0.033173
  30 H :    0.037521
  31 H :    0.045138
  32 H :    0.019210
  33 H :    0.062250
Sum of atomic charges:   -0.0000000

LOEWDIN ATOMIC CHARGES
----------------------
   0 S :    0.432159
   1 C :   -0.187444
   2 C :   -0.061429
   3 C :   -0.063627
   4 C :   -0.211099
   5 H :    0.036739
   6 C :   -0.024780
   7 H :    0.034799
   8 H :    0.018659
   9 C :   -0.041127
  10 H :    0.024322
  11 H :    0.024956
  12 C :   -0.075198
  13 H :    0.026441
  14 H :    0.022254
  15 H :    0.029727
  16 S :    0.421911
  17 C :   -0.185995
  18 C :   -0.074806
  19 C :   -0.053951
  20 C :   -0.223267
  21 H :    0.037578
  22 C :   -0.022500
  23 H :    0.017662
  24 H :    0.037079
  25 C :   -0.043937
  26 H :    0.033200
  27 H :    0.014465
  28 C :   -0.070122
  29 H :    0.021144
  30 H :    0.028683
  31 H :    0.031826
  32 H :    0.013799
  33 H :    0.031877

  Mayer bond orders larger than 0.100000
B(  0-S ,  1-C ) :   1.1492 B(  0-S ,  4-C ) :   1.1844 B(  1-C ,  2-C ) :   1.5959
B(  1-C ,  4-C ) :   0.1045 B(  1-C , 32-H ) :   0.9702 B(  2-C ,  3-C ) :   1.2634
B(  2-C ,  6-C ) :   1.0144 B(  3-C ,  4-C ) :   1.5486 B(  3-C ,  5-H ) :   0.9922
B(  4-C , 20-C ) :   0.9918 B(  6-C ,  7-H ) :   0.9467 B(  6-C ,  8-H ) :   0.9484
B(  6-C ,  9-C ) :   1.0631 B(  9-C , 10-H ) :   0.9562 B(  9-C , 11-H ) :   0.9638
B(  9-C , 12-C ) :   1.0679 B( 12-C , 13-H ) :   0.9756 B( 12-C , 14-H ) :   0.9763
B( 12-C , 15-H ) :   0.9745 B( 16-S , 17-C ) :   1.1457 B( 16-S , 20-C ) :   1.1723
B( 17-C , 18-C ) :   1.6376 B( 17-C , 33-H ) :   0.9609 B( 18-C , 19-C ) :   1.2121
B( 18-C , 21-H ) :   0.9821 B( 19-C , 20-C ) :   1.6182 B( 19-C , 22-C ) :   1.0214
B( 22-C , 23-H ) :   0.9278 B( 22-C , 24-H ) :   0.9298 B( 22-C , 25-C ) :   1.0759
B( 25-C , 26-H ) :   0.9581 B( 25-C , 27-H ) :   0.9528 B( 25-C , 28-C ) :   1.0665
B( 28-C , 29-H ) :   0.9740 B( 28-C , 30-H ) :   0.9696 B( 28-C , 31-H ) :   0.9784

Dispersion correction           -0.014832821
FINAL SINGLE POINT ENERGY     -1339.876139521734

DIPOLE MOMENT
-------------
                                X             Y             Z
Electronic contribution:     13.35343       9.18895     -18.87701
Nuclear contribution   :    -13.50707      -9.58392      19.30904
                        -----------------------------------------
Total Dipole Moment    :     -0.15364      -0.39497       0.43203
                        -----------------------------------------
Magnitude (a.u.)       :      0.60519
Magnitude (Debye)      :      1.53827

Rotational constants in cm-1:     0.020947     0.008335     0.006802
Rotational constants in MHz :   627.989035   249.873366   203.933185

                             ****ORCA TERMINATED NORMALLY****
TOTAL RUN TIME: 0 days 0 hours 0 minutes 30 seconds 601 msec
