                         Program Version 4.2.1 -  RELEASE  -
|  1> ! wB97X-D3 SP def2-SVP
|  2> %pal
|  3> nprocs 16
|  4> end
|  5>
|  6> * xyz 0 1
|  7> S 	 -5.83715 	 -17.085 	 71.1695
|  8> C 	 -4.80914 	 -17.9708 	 70.1685
|  9> C 	 -4.26366 	 -17.3022 	 69.1037
| 10> C 	 -4.6557 	 -15.9144 	 69.1472
| 11> C 	 -5.5027 	 -15.6281 	 70.1982
| 12> H 	 -4.42542 	 -15.1759 	 68.4114
| 13> C 	 -3.28781 	 -17.8235 	 68.1219
| 14> H 	 -2.71593 	 -18.6091 	 68.6389
| 15> H 	 -2.73075 	 -17.02 	 67.7493
| 16> C 	 -3.8191 	 -18.5669 	 66.932
| 17> H 	 -3.05464 	 -19.1734 	 66.4812
| 18> H 	 -4.56426 	 -19.2697 	 67.4184
| 19> C 	 -4.67385 	 -17.6503 	 66.056
| 20> H 	 -5.42792 	 -17.1173 	 66.5476
| 21> H 	 -3.99698 	 -16.9346 	 65.5531
| 22> H 	 -5.07039 	 -18.3632 	 65.315
| 23> S 	 -7.92622 	 -14.1868 	 70.1281
| 24> C 	 -7.86723 	 -12.4733 	 70.298
| 25> C 	 -6.56406 	 -12.084 	 70.6095
| 26> C 	 -5.58426 	 -13.094 	 70.6136
| 27> C 	 -6.13417 	 -14.3469 	 70.4705
| 28> H 	 -6.31691 	 -11.0321 	 70.7378
| 29> C 	 -4.09692 	 -12.7119 	 70.8593
| 30> H 	 -4.00747 	 -11.6782 	 70.4528
| 31> H 	 -3.48981 	 -13.3146 	 70.2854
| 32> C 	 -3.66192 	 -12.6194 	 72.3484
| 33> H 	 -3.8555 	 -13.5249 	 72.8718
| 34> H 	 -4.42681 	 -12.052 	 72.9031
| 35> C 	 -2.22233 	 -12.1611 	 72.6874
| 36> H 	 -1.48812 	 -12.9421 	 73.1231
| 37> H 	 -2.19912 	 -11.2945 	 73.2824
| 38> H 	 -1.81479 	 -11.8597 	 71.7514
| 39> H 	 -4.67677 	 -19.0656 	 70.2552
| 40> H 	 -8.68716 	 -11.8045 	 70.3004
| 41> *
| 42>
| 43>                          ****END OF INPUT****

CARTESIAN COORDINATES (ANGSTROEM)
---------------------------------
  S     -5.837150  -17.085000   71.169500
  C     -4.809140  -17.970800   70.168500
  C     -4.263660  -17.302200   69.103700
  C     -4.655700  -15.914400   69.147200
  C     -5.502700  -15.628100   70.198200
  H     -4.425420  -15.175900   68.411400
  C     -3.287810  -17.823500   68.121900
  H     -2.715930  -18.609100   68.638900
  H     -2.730750  -17.020000   67.749300
  C     -3.819100  -18.566900   66.932000
  H     -3.054640  -19.173400   66.481200
  H     -4.564260  -19.269700   67.418400
  C     -4.673850  -17.650300   66.056000
  H     -5.427920  -17.117300   66.547600
  H     -3.996980  -16.934600   65.553100
  H     -5.070390  -18.363200   65.315000
  S     -7.926220  -14.186800   70.128100
  C     -7.867230  -12.473300   70.298000
  C     -6.564060  -12.084000   70.609500
  C     -5.584260  -13.094000   70.613600
  C     -6.134170  -14.346900   70.470500
  H     -6.316910  -11.032100   70.737800
  C     -4.096920  -12.711900   70.859300
  H     -4.007470  -11.678200   70.452800
  H     -3.489810  -13.314600   70.285400
  C     -3.661920  -12.619400   72.348400
  H     -3.855500  -13.524900   72.871800
  H     -4.426810  -12.052000   72.903100
  C     -2.222330  -12.161100   72.687400
  H     -1.488120  -12.942100   73.123100
  H     -2.199120  -11.294500   73.282400
  H     -1.814790  -11.859700   71.751400
  H     -4.676770  -19.065600   70.255200
  H     -8.687160  -11.804500   70.300400

 Total Charge           Charge          ....    0
 Multiplicity           Mult            ....    1
 Number of Electrons    NEL             ....  134
 Basis Dimension        Dim             ....  322

ORBITAL ENERGIES
----------------

  NO   OCC          E(Eh)            E(eV)
   0   2.0000     -88.967311     -2420.9236
   1   2.0000     -88.963938     -2420.8318
   2   2.0000     -10.328711      -281.0585
   3   2.0000     -10.328182      -281.0441
   4   2.0000     -10.316764      -280.7334
   5   2.0000     -10.310672      -280.5677
   6   2.0000     -10.304233      -280.3924
   7   2.0000     -10.296000      -280.1684
   8   2.0000     -10.294601      -280.1303
   9   2.0000     -10.294589      -280.1300
  10   2.0000     -10.290739      -280.0253
  11   2.0000     -10.284163      -279.8463
  12   2.0000     -10.283370      -279.8247
  13   2.0000     -10.280894      -279.7574
  14   2.0000     -10.278522      -279.6928
  15   2.0000     -10.273989      -279.5694
  16   2.0000      -8.082837      -219.9452
  17   2.0000      -8.078120      -219.8168
  18   2.0000      -6.041161      -164.3883
  19   2.0000      -6.037308      -164.2835
  20   2.0000      -6.036637      -164.2652
  21   2.0000      -6.033676      -164.1847
  22   2.0000      -6.032699      -164.1581
  23   2.0000      -6.028893      -164.0545
  24   2.0000      -1.005915       -27.3723
  25   2.0000      -0.985043       -26.8044
  26   2.0000      -0.922303       -25.0971
  27   2.0000      -0.902566       -24.5601
  28   2.0000      -0.869948       -23.6725
  29   2.0000      -0.852325       -23.1929
  30   2.0000      -0.848230       -23.0815
  31   2.0000      -0.810664       -22.0593
  32   2.0000      -0.786075       -21.3902
  33   2.0000      -0.774765       -21.0824
  34   2.0000      -0.708571       -19.2812
  35   2.0000      -0.702329       -19.1113
  36   2.0000      -0.697525       -18.9806
  37   2.0000      -0.663024       -18.0418
  38   2.0000      -0.642264       -17.4769
  39   2.0000      -0.611919       -16.6512
  40   2.0000      -0.597026       -16.2459
  41   2.0000      -0.579816       -15.7776
  42   2.0000      -0.554866       -15.0987
  43   2.0000      -0.552549       -15.0356
  44   2.0000      -0.542108       -14.7515
  45   2.0000      -0.525754       -14.3065
  46   2.0000      -0.520160       -14.1543
  47   2.0000      -0.510728       -13.8976
  48   2.0000      -0.504710       -13.7339
  49   2.0000      -0.497914       -13.5489
  50   2.0000      -0.490831       -13.3562
  51   2.0000      -0.479890       -13.0585
  52   2.0000      -0.479629       -13.0514
  53   2.0000      -0.465637       -12.6706
  54   2.0000      -0.463230       -12.6051
  55   2.0000      -0.449890       -12.2421
  56   2.0000      -0.445510       -12.1229
  57   2.0000      -0.438325       -11.9274
  58   2.0000      -0.435281       -11.8446
  59   2.0000      -0.422721       -11.5028
  60   2.0000      -0.414489       -11.2788
  61   2.0000      -0.411523       -11.1981
  62   2.0000      -0.405632       -11.0378
  63   2.0000      -0.343584        -9.3494
  64   2.0000      -0.335046        -9.1171
  65   2.0000      -0.324589        -8.8325
  66   2.0000      -0.296934        -8.0800
  67   0.0000       0.034087         0.9276
  68   0.0000       0.059895         1.6298
  69   0.0000       0.113711         3.0942
  70   0.0000       0.120412         3.2766
  71   0.0000       0.126443         3.4407

MULLIKEN ATOMIC CHARGES
-----------------------
   0 S :    0.128004
   1 C :   -0.115382
   2 C :   -0.120048
   3 C :    0.048610
   4 C :   -0.184131
   5 H :    0.010242
   6 C :    0.112604
   7 H :    0.024757
   8 H :    0.002302
   9 C :   -0.089555
  10 H :    0.034721
  11 H :    0.018116
  12 C :   -0.040548
  13 H :    0.041794
  14 H :    0.024214
  15 H :    0.039064
  16 S :    0.095826
  17 C :   -0.068022
  18 C :   -0.048673
  19 C :   -0.048738
  20 C :   -0.159200
  21 H :    0.015870
  22 C :    0.129177
  23 H :    0.019944
  24 H :    0.001898
  25 C :   -0.069246
  26 H :    0.017290
  27 H :    0.015128
  28 C :   -0.028834
  29 H :    0.055496
  30 H :    0.026695
  31 H :    0.011385
  32 H :    0.051626
  33 H :    0.047615
Sum of atomic charges:    0.0000000

LOEWDIN ATOMIC CHARGES
----------------------
   0 S :    0.420559
   1 C :   -0.213760
   2 C :   -0.068947
   3 C :   -0.048325
   4 C :   -0.192870
   5 H :    0.029078
   6 C :   -0.032765
   7 H :    0.037105
   8 H :    0.019708
   9 C :   -0.041137
  10 H :    0.022508
  11 H :    0.025744
  12 C :   -0.060415
  13 H :    0.020485
  14 H :    0.023458
  15 H :    0.032307
  16 S :    0.386289
  17 C :   -0.184094
  18 C :   -0.077098
  19 C :   -0.051073
  20 C :   -0.182020
  21 H :    0.028552
  22 C :   -0.015287
  23 H :    0.033573
  24 H :    0.014409
  25 C :   -0.048646
  26 H :    0.022797
  27 H :    0.027622
  28 C :   -0.067530
  29 H :    0.040852
  30 H :    0.021134
  31 H :    0.020621
  32 H :    0.031853
  33 H :    0.025312

  Mayer bond orders larger than 0.100000
B(  0-S ,  1-C ) :   1.1548 B(  0-S ,  4-C ) :   1.1428 B(  1-C ,  2-C ) :   1.6315
B(  1-C , 32-H ) :   0.9509 B(  2-C ,  3-C ) :   1.2251 B(  2-C ,  6-C ) :   1.0333
B(  3-C ,  4-C ) :   1.5937 B(  3-C ,  5-H ) :   0.9947 B(  4-C , 20-C ) :   1.0275
B(  6-C ,  7-H ) :   0.9331 B(  6-C ,  8-H ) :   0.9347 B(  6-C ,  9-C ) :   1.0746
B(  9-C , 10-H ) :   0.9586 B(  9-C , 11-H ) :   0.9542 B(  9-C , 12-C ) :   1.0678
B( 12-C , 13-H ) :   0.9748 B( 12-C , 14-H ) :   0.9761 B( 12-C , 15-H ) :   0.9746
B( 16-S , 17-C ) :   1.1652 B( 16-S , 20-C ) :   1.1272 B( 17-C , 18-C ) :   1.5920
B( 17-C , 20-C ) :   0.1058 B( 17-C , 33-H ) :   0.9713 B( 18-C , 19-C ) :   1.2619
B( 18-C , 21-H ) :   0.9838 B( 19-C , 20-C ) :   1.6050 B( 19-C , 22-C ) :   1.0327
B( 22-C , 23-H ) :   0.9304 B( 22-C , 24-H ) :   0.9289 B( 22-C , 25-C ) :   1.0711
B( 25-C , 26-H ) :   0.9550 B( 25-C , 27-H ) :   0.9544 B( 25-C , 28-C ) :   1.0551
B( 28-C , 29-H ) :   0.9769 B( 28-C , 30-H ) :   0.9757 B( 28-C , 31-H ) :   0.9782

Dispersion correction           -0.014124739
FINAL SINGLE POINT ENERGY     -1339.863841840128

DIPOLE MOMENT
-------------
                                X             Y             Z
Electronic contribution:    -20.27485      -2.69421       7.53274
Nuclear contribution   :     20.75315       2.85553      -7.80286
                        -----------------------------------------
Total Dipole Moment    :      0.47830       0.16132      -0.27012
                        -----------------------------------------
Magnitude (a.u.)       :      0.57250
Magnitude (Debye)      :      1.45519

Rotational constants in cm-1:     0.017418     0.008359     0.007098
Rotational constants in MHz :   522.179441   250.586107   212.800996

                             ****ORCA TERMINATED NORMALLY****
TOTAL RUN TIME: 0 days 0 hours 0 minutes 34 seconds 470 msec
