                         Program Version 4.2.1 -  RELEASE  -
|  1> ! wB97X-D3 SP def2-SVP
|  2> %pal
|  3> nprocs 16
|  4> end
|  5>
|  6> * xyz 0 1
|  7> S 	 -88.6667 	 47.7059 	 127.73
|  8> C 	 -89.3852 	 49.2379 	 128.207
|  9> C 	 -88.417 	 50.1789 	 128.587
| 10> C 	 -87.1415 	 49.5884 	 128.684
| 11> C 	 -87.0923 	 48.2408 	 128.297
| 12> H 	 -86.3197 	 50.1381 	 128.995
| 13> C 	 -88.5091 	 51.732 	 128.722
| 14> H 	 -89.4258 	 52.1054 	 128.297
| 15> H 	 -87.8015 	 52.2561 	 128.022
| 16> C 	 -88.2828 	 52.2555 	 130.172
| 17> H 	 -88.9713 	 51.6628 	 130.689
| 18> H 	 -87.2912 	 51.9405 	 130.514
| 19> C 	 -88.6131 	 53.6939 	 130.318
| 20> H 	 -89.64 	 53.8025 	 130.29
| 21> H 	 -88.1554 	 54.0014 	 131.274
| 22> H 	 -88.2117 	 54.3538 	 129.491
| 23> S 	 -85.8156 	 46.2219 	 127.147
| 24> C 	 -84.4606 	 45.3681 	 127.976
| 25> C 	 -84.2191 	 45.9212 	 129.199
| 26> C 	 -85.1115 	 47.022 	 129.471
| 27> C 	 -86.059 	 47.2494 	 128.513
| 28> H 	 -83.5064 	 45.4782 	 129.844
| 29> C 	 -85.005 	 47.7684 	 130.809
| 30> H 	 -85.2579 	 48.8343 	 130.795
| 31> H 	 -83.9139 	 47.831 	 130.951
| 32> C 	 -85.7231 	 47.0594 	 131.954
| 33> H 	 -85.2845 	 47.339 	 132.994
| 34> H 	 -85.5617 	 46.0213 	 131.986
| 35> C 	 -87.2355 	 47.3782 	 132.095
| 36> H 	 -87.4224 	 48.4521 	 132.162
| 37> H 	 -87.6562 	 46.9235 	 132.996
| 38> H 	 -87.8522 	 47.1631 	 131.252
| 39> H 	 -90.3627 	 49.5829 	 128.034
| 40> H 	 -84.1123 	 44.3983 	 127.797
| 41> *
| 42>
| 43>                          ****END OF INPUT****

CARTESIAN COORDINATES (ANGSTROEM)
---------------------------------
  S    -88.666700   47.705900  127.730000
  C    -89.385200   49.237900  128.207000
  C    -88.417000   50.178900  128.587000
  C    -87.141500   49.588400  128.684000
  C    -87.092300   48.240800  128.297000
  H    -86.319700   50.138100  128.995000
  C    -88.509100   51.732000  128.722000
  H    -89.425800   52.105400  128.297000
  H    -87.801500   52.256100  128.022000
  C    -88.282800   52.255500  130.172000
  H    -88.971300   51.662800  130.689000
  H    -87.291200   51.940500  130.514000
  C    -88.613100   53.693900  130.318000
  H    -89.640000   53.802500  130.290000
  H    -88.155400   54.001400  131.274000
  H    -88.211700   54.353800  129.491000
  S    -85.815600   46.221900  127.147000
  C    -84.460600   45.368100  127.976000
  C    -84.219100   45.921200  129.199000
  C    -85.111500   47.022000  129.471000
  C    -86.059000   47.249400  128.513000
  H    -83.506400   45.478200  129.844000
  C    -85.005000   47.768400  130.809000
  H    -85.257900   48.834300  130.795000
  H    -83.913900   47.831000  130.951000
  C    -85.723100   47.059400  131.954000
  H    -85.284500   47.339000  132.994000
  H    -85.561700   46.021300  131.986000
  C    -87.235500   47.378200  132.095000
  H    -87.422400   48.452100  132.162000
  H    -87.656200   46.923500  132.996000
  H    -87.852200   47.163100  131.252000
  H    -90.362700   49.582900  128.034000
  H    -84.112300   44.398300  127.797000

 Total Charge           Charge          ....    0
 Multiplicity           Mult            ....    1
 Number of Electrons    NEL             ....  134
 Basis Dimension        Dim             ....  322

ORBITAL ENERGIES
----------------

  NO   OCC          E(Eh)            E(eV)
   0   2.0000     -88.973322     -2421.0872
   1   2.0000     -88.961494     -2420.7653
   2   2.0000     -10.333048      -281.1765
   3   2.0000     -10.324412      -280.9415
   4   2.0000     -10.316975      -280.7392
   5   2.0000     -10.313692      -280.6498
   6   2.0000     -10.304601      -280.4024
   7   2.0000     -10.303560      -280.3741
   8   2.0000     -10.299495      -280.2635
   9   2.0000     -10.294078      -280.1161
  10   2.0000     -10.293273      -280.0942
  11   2.0000     -10.291206      -280.0379
  12   2.0000     -10.288568      -279.9662
  13   2.0000     -10.282716      -279.8069
  14   2.0000     -10.279186      -279.7109
  15   2.0000     -10.269408      -279.4448
  16   2.0000      -8.087319      -220.0671
  17   2.0000      -8.076257      -219.7661
  18   2.0000      -6.045938      -164.5183
  19   2.0000      -6.041850      -164.4071
  20   2.0000      -6.038078      -164.3045
  21   2.0000      -6.034972      -164.2199
  22   2.0000      -6.030748      -164.1050
  23   2.0000      -6.026798      -163.9975
  24   2.0000      -1.008777       -27.4502
  25   2.0000      -0.982839       -26.7444
  26   2.0000      -0.915803       -24.9203
  27   2.0000      -0.901880       -24.5414
  28   2.0000      -0.877136       -23.8681
  29   2.0000      -0.853973       -23.2378
  30   2.0000      -0.840716       -22.8771
  31   2.0000      -0.816577       -22.2202
  32   2.0000      -0.782551       -21.2943
  33   2.0000      -0.773417       -21.0457
  34   2.0000      -0.711974       -19.3738
  35   2.0000      -0.701708       -19.0945
  36   2.0000      -0.696298       -18.9472
  37   2.0000      -0.668595       -18.1934
  38   2.0000      -0.643143       -17.5008
  39   2.0000      -0.630183       -17.1482
  40   2.0000      -0.595403       -16.2017
  41   2.0000      -0.573929       -15.6174
  42   2.0000      -0.568399       -15.4669
  43   2.0000      -0.548563       -14.9272
  44   2.0000      -0.534809       -14.5529
  45   2.0000      -0.523754       -14.2521
  46   2.0000      -0.516242       -14.0477
  47   2.0000      -0.506913       -13.7938
  48   2.0000      -0.503538       -13.7020
  49   2.0000      -0.501019       -13.6334
  50   2.0000      -0.495072       -13.4716
  51   2.0000      -0.480088       -13.0639
  52   2.0000      -0.474467       -12.9109
  53   2.0000      -0.469374       -12.7723
  54   2.0000      -0.459801       -12.5118
  55   2.0000      -0.448586       -12.2066
  56   2.0000      -0.443630       -12.0718
  57   2.0000      -0.440483       -11.9862
  58   2.0000      -0.432493       -11.7687
  59   2.0000      -0.425093       -11.5674
  60   2.0000      -0.423226       -11.5166
  61   2.0000      -0.415530       -11.3072
  62   2.0000      -0.399332       -10.8664
  63   2.0000      -0.352597        -9.5947
  64   2.0000      -0.335694        -9.1347
  65   2.0000      -0.328171        -8.9300
  66   2.0000      -0.291040        -7.9196
  67   0.0000       0.022066         0.6005
  68   0.0000       0.067858         1.8465
  69   0.0000       0.098818         2.6890
  70   0.0000       0.120224         3.2715
  71   0.0000       0.127618         3.4727

MULLIKEN ATOMIC CHARGES
-----------------------
   0 S :    0.121994
   1 C :   -0.088766
   2 C :   -0.092349
   3 C :    0.039343
   4 C :   -0.119532
   5 H :   -0.011344
   6 C :    0.016731
   7 H :    0.004311
   8 H :    0.038973
   9 C :   -0.059229
  10 H :    0.018163
  11 H :    0.025907
  12 C :   -0.013319
  13 H :    0.020264
  14 H :    0.041471
  15 H :    0.034035
  16 S :    0.072393
  17 C :   -0.052765
  18 C :   -0.035516
  19 C :   -0.069469
  20 C :   -0.105379
  21 H :    0.013482
  22 C :    0.068348
  23 H :    0.016387
  24 H :    0.023287
  25 C :   -0.055289
  26 H :    0.026656
  27 H :    0.013321
  28 C :   -0.037500
  29 H :    0.015317
  30 H :    0.033678
  31 H :    0.029213
  32 H :    0.026060
  33 H :    0.041123
Sum of atomic charges:    0.0000000

LOEWDIN ATOMIC CHARGES
----------------------
   0 S :    0.413225
   1 C :   -0.190096
   2 C :   -0.059386
   3 C :   -0.048759
   4 C :   -0.193356
   5 H :    0.018089
   6 C :   -0.031617
   7 H :    0.020733
   8 H :    0.034499
   9 C :   -0.038866
  10 H :    0.019905
  11 H :    0.020870
  12 C :   -0.059301
  13 H :    0.017256
  14 H :    0.034174
  15 H :    0.031259
  16 S :    0.383320
  17 C :   -0.163226
  18 C :   -0.056085
  19 C :   -0.060757
  20 C :   -0.199277
  21 H :    0.029447
  22 C :   -0.035095
  23 H :    0.027962
  24 H :    0.034241
  25 C :   -0.040234
  26 H :    0.031633
  27 H :    0.014896
  28 C :   -0.066496
  29 H :    0.023392
  30 H :    0.027476
  31 H :    0.021076
  32 H :    0.018122
  33 H :    0.020974

  Mayer bond orders larger than 0.100000
B(  0-S ,  1-C ) :   1.1456 B(  0-S ,  4-C ) :   1.1464 B(  1-C ,  2-C ) :   1.6004
B(  1-C ,  4-C ) :   0.1110 B(  1-C , 32-H ) :   0.9671 B(  2-C ,  3-C ) :   1.2624
B(  2-C ,  6-C ) :   1.0143 B(  3-C ,  4-C ) :   1.5493 B(  3-C ,  5-H ) :   1.0099
B(  4-C , 20-C ) :   1.0121 B(  6-C ,  7-H ) :   0.9477 B(  6-C ,  8-H ) :   0.9471
B(  6-C ,  9-C ) :   1.0403 B(  9-C , 10-H ) :   0.9533 B(  9-C , 11-H ) :   0.9605
B(  9-C , 12-C ) :   1.0867 B( 12-C , 13-H ) :   0.9727 B( 12-C , 14-H ) :   0.9717
B( 12-C , 15-H ) :   0.9732 B( 16-S , 17-C ) :   1.1249 B( 16-S , 20-C ) :   1.1232
B( 17-C , 18-C ) :   1.6591 B( 17-C , 33-H ) :   0.9645 B( 18-C , 19-C ) :   1.2082
B( 18-C , 21-H ) :   0.9931 B( 19-C , 20-C ) :   1.6475 B( 19-C , 22-C ) :   1.0319
B( 22-C , 23-H ) :   0.9446 B( 22-C , 24-H ) :   0.9313 B( 22-C , 25-C ) :   1.0660
B( 25-C , 26-H ) :   0.9532 B( 25-C , 27-H ) :   0.9568 B( 25-C , 28-C ) :   1.0756
B( 28-C , 29-H ) :   0.9730 B( 28-C , 30-H ) :   0.9742 B( 28-C , 31-H ) :   0.9752

Dispersion correction           -0.015040481
FINAL SINGLE POINT ENERGY     -1339.859283645354

DIPOLE MOMENT
-------------
                                X             Y             Z
Electronic contribution:      1.88501     -20.05553     -21.85886
Nuclear contribution   :     -1.81284      20.51210      22.38937
                        -----------------------------------------
Total Dipole Moment    :      0.07217       0.45657       0.53051
                        -----------------------------------------
Magnitude (a.u.)       :      0.70363
Magnitude (Debye)      :      1.78849

Rotational constants in cm-1:     0.020452     0.008654     0.007101
Rotational constants in MHz :   613.141167   259.452991   212.870905

                             ****ORCA TERMINATED NORMALLY****
TOTAL RUN TIME: 0 days 0 hours 0 minutes 35 seconds 881 msec
