                         Program Version 4.2.1 -  RELEASE  -
|  1> ! wB97X-D3 SP def2-SVP
|  2> %pal
|  3> nprocs 16
|  4> end
|  5>
|  6> * xyz 0 1
|  7> S 	 1.96661 	 16.0791 	 86.4356
|  8> C 	 2.5584 	 17.3755 	 85.3808
|  9> C 	 3.17998 	 16.8217 	 84.2491
| 10> C 	 3.17053 	 15.3361 	 84.2731
| 11> C 	 2.48682 	 14.7741 	 85.3005
| 12> H 	 3.58843 	 14.6872 	 83.5519
| 13> C 	 3.81051 	 17.6042 	 83.105
| 14> H 	 4.6074 	 18.249 	 83.508
| 15> H 	 3.00707 	 18.1981 	 82.5575
| 16> C 	 4.64738 	 16.6819 	 82.1328
| 17> H 	 5.42107 	 16.2089 	 82.6136
| 18> H 	 3.9532 	 15.8514 	 81.8704
| 19> C 	 5.24313 	 17.4163 	 80.8645
| 20> H 	 4.59447 	 17.4925 	 80.0005
| 21> H 	 5.61253 	 18.3157 	 81.2495
| 22> H 	 6.07827 	 16.8654 	 80.3999
| 23> S 	 0.573973 	 12.7772 	 85.0312
| 24> C 	 1.12614 	 11.1438 	 85.4949
| 25> C 	 2.38415 	 11.1317 	 86.0046
| 26> C 	 3.00419 	 12.3947 	 85.924
| 27> C 	 2.15133 	 13.3844 	 85.5062
| 28> H 	 2.89327 	 10.2905 	 86.3751
| 29> C 	 4.42971 	 12.625 	 86.4309
| 30> H 	 4.70112 	 11.7353 	 87.0189
| 31> H 	 4.45631 	 13.4123 	 87.156
| 32> C 	 5.47496 	 12.8379 	 85.3904
| 33> H 	 6.49032 	 13.1179 	 85.8268
| 34> H 	 5.11991 	 13.7172 	 84.8187
| 35> C 	 5.59633 	 11.7834 	 84.2872
| 36> H 	 6.1433 	 12.1162 	 83.4
| 37> H 	 4.58667 	 11.6601 	 83.9588
| 38> H 	 6.08332 	 10.9663 	 84.6904
| 39> H 	 2.496 	 18.4761 	 85.7168
| 40> H 	 0.550665 	 10.27 	 85.2072
| 41> *
| 42>
| 43>                          ****END OF INPUT****

CARTESIAN COORDINATES (ANGSTROEM)
---------------------------------
  S      1.966610   16.079100   86.435600
  C      2.558400   17.375500   85.380800
  C      3.179980   16.821700   84.249100
  C      3.170530   15.336100   84.273100
  C      2.486820   14.774100   85.300500
  H      3.588430   14.687200   83.551900
  C      3.810510   17.604200   83.105000
  H      4.607400   18.249000   83.508000
  H      3.007070   18.198100   82.557500
  C      4.647380   16.681900   82.132800
  H      5.421070   16.208900   82.613600
  H      3.953200   15.851400   81.870400
  C      5.243130   17.416300   80.864500
  H      4.594470   17.492500   80.000500
  H      5.612530   18.315700   81.249500
  H      6.078270   16.865400   80.399900
  S      0.573973   12.777200   85.031200
  C      1.126140   11.143800   85.494900
  C      2.384150   11.131700   86.004600
  C      3.004190   12.394700   85.924000
  C      2.151330   13.384400   85.506200
  H      2.893270   10.290500   86.375100
  C      4.429710   12.625000   86.430900
  H      4.701120   11.735300   87.018900
  H      4.456310   13.412300   87.156000
  C      5.474960   12.837900   85.390400
  H      6.490320   13.117900   85.826800
  H      5.119910   13.717200   84.818700
  C      5.596330   11.783400   84.287200
  H      6.143300   12.116200   83.400000
  H      4.586670   11.660100   83.958800
  H      6.083320   10.966300   84.690400
  H      2.496000   18.476100   85.716800
  H      0.550665   10.270000   85.207200

 Total Charge           Charge          ....    0
 Multiplicity           Mult            ....    1
 Number of Electrons    NEL             ....  134
 Basis Dimension        Dim             ....  322

ORBITAL ENERGIES
----------------

  NO   OCC          E(Eh)            E(eV)
   0   2.0000     -88.968532     -2420.9568
   1   2.0000     -88.960735     -2420.7447
   2   2.0000     -10.328363      -281.0490
   3   2.0000     -10.327025      -281.0126
   4   2.0000     -10.323750      -280.9235
   5   2.0000     -10.320993      -280.8485
   6   2.0000     -10.312055      -280.6053
   7   2.0000     -10.302867      -280.3553
   8   2.0000     -10.300394      -280.2880
   9   2.0000     -10.295658      -280.1591
  10   2.0000     -10.290403      -280.0161
  11   2.0000     -10.288262      -279.9579
  12   2.0000     -10.288037      -279.9517
  13   2.0000     -10.283122      -279.8180
  14   2.0000     -10.279171      -279.7105
  15   2.0000     -10.266630      -279.3692
  16   2.0000      -8.082826      -219.9449
  17   2.0000      -8.074514      -219.7187
  18   2.0000      -6.041329      -164.3929
  19   2.0000      -6.037496      -164.2886
  20   2.0000      -6.033516      -164.1803
  21   2.0000      -6.033267      -164.1735
  22   2.0000      -6.029060      -164.0591
  23   2.0000      -6.025160      -163.9529
  24   2.0000      -1.005454       -27.3598
  25   2.0000      -0.976556       -26.5734
  26   2.0000      -0.913093       -24.8465
  27   2.0000      -0.903251       -24.5787
  28   2.0000      -0.871848       -23.7242
  29   2.0000      -0.850507       -23.1435
  30   2.0000      -0.838328       -22.8121
  31   2.0000      -0.818558       -22.2741
  32   2.0000      -0.786967       -21.4145
  33   2.0000      -0.769294       -20.9336
  34   2.0000      -0.714901       -19.4535
  35   2.0000      -0.696134       -18.9428
  36   2.0000      -0.679994       -18.5036
  37   2.0000      -0.667457       -18.1624
  38   2.0000      -0.642911       -17.4945
  39   2.0000      -0.616006       -16.7624
  40   2.0000      -0.600410       -16.3380
  41   2.0000      -0.567992       -15.4559
  42   2.0000      -0.559782       -15.2324
  43   2.0000      -0.558086       -15.1863
  44   2.0000      -0.553794       -15.0695
  45   2.0000      -0.525067       -14.2878
  46   2.0000      -0.515382       -14.0243
  47   2.0000      -0.511709       -13.9243
  48   2.0000      -0.504348       -13.7240
  49   2.0000      -0.493653       -13.4330
  50   2.0000      -0.490483       -13.3467
  51   2.0000      -0.482931       -13.1412
  52   2.0000      -0.471468       -12.8293
  53   2.0000      -0.462425       -12.5832
  54   2.0000      -0.454200       -12.3594
  55   2.0000      -0.451805       -12.2942
  56   2.0000      -0.449270       -12.2253
  57   2.0000      -0.444417       -12.0932
  58   2.0000      -0.433250       -11.7893
  59   2.0000      -0.419418       -11.4129
  60   2.0000      -0.414862       -11.2890
  61   2.0000      -0.411842       -11.2068
  62   2.0000      -0.399768       -10.8782
  63   2.0000      -0.344244        -9.3673
  64   2.0000      -0.330441        -8.9917
  65   2.0000      -0.321770        -8.7558
  66   2.0000      -0.306878        -8.3506
  67   0.0000       0.040643         1.1060
  68   0.0000       0.049877         1.3572
  69   0.0000       0.110708         3.0125
  70   0.0000       0.116146         3.1605
  71   0.0000       0.128718         3.5026

MULLIKEN ATOMIC CHARGES
-----------------------
   0 S :    0.084851
   1 C :   -0.153818
   2 C :   -0.099144
   3 C :    0.067760
   4 C :   -0.178055
   5 H :    0.007758
   6 C :    0.036083
   7 H :    0.041206
   8 H :    0.065714
   9 C :   -0.121244
  10 H :    0.016774
  11 H :    0.040059
  12 C :   -0.005095
  13 H :    0.036365
  14 H :    0.020237
  15 H :    0.027237
  16 S :    0.117049
  17 C :   -0.094752
  18 C :    0.013468
  19 C :   -0.070582
  20 C :   -0.178321
  21 H :    0.001123
  22 C :    0.138179
  23 H :    0.006496
  24 H :    0.030718
  25 C :   -0.113573
  26 H :    0.035362
  27 H :    0.010665
  28 C :   -0.011550
  29 H :    0.029687
  30 H :    0.030095
  31 H :    0.017657
  32 H :    0.088887
  33 H :    0.062703
Sum of atomic charges:   -0.0000000

LOEWDIN ATOMIC CHARGES
----------------------
   0 S :    0.363713
   1 C :   -0.200246
   2 C :   -0.066632
   3 C :   -0.056220
   4 C :   -0.177852
   5 H :    0.023594
   6 C :   -0.038850
   7 H :    0.034123
   8 H :    0.044303
   9 C :   -0.038254
  10 H :    0.011792
  11 H :    0.023443
  12 C :   -0.060030
  13 H :    0.026621
  14 H :    0.017128
  15 H :    0.030612
  16 S :    0.394699
  17 C :   -0.163601
  18 C :   -0.062270
  19 C :   -0.051611
  20 C :   -0.204387
  21 H :    0.026891
  22 C :   -0.026680
  23 H :    0.026792
  24 H :    0.033413
  25 C :   -0.049477
  26 H :    0.027997
  27 H :    0.022982
  28 C :   -0.056770
  29 H :    0.028602
  30 H :    0.024664
  31 H :    0.011871
  32 H :    0.050146
  33 H :    0.029493

  Mayer bond orders larger than 0.100000
B(  0-S ,  1-C ) :   1.1320 B(  0-S ,  4-C ) :   1.1172 B(  1-C ,  2-C ) :   1.6304
B(  1-C , 32-H ) :   0.9628 B(  2-C ,  3-C ) :   1.2074 B(  2-C ,  6-C ) :   1.0115
B(  3-C ,  4-C ) :   1.6331 B(  3-C ,  5-H ) :   0.9784 B(  4-C , 20-C ) :   1.0218
B(  6-C ,  7-H ) :   0.9374 B(  6-C ,  8-H ) :   0.9442 B(  6-C ,  9-C ) :   1.0850
B(  9-C , 10-H ) :   0.9588 B(  9-C , 11-H ) :   0.9478 B(  9-C , 12-C ) :   1.0655
B( 12-C , 13-H ) :   0.9785 B( 12-C , 14-H ) :   0.9749 B( 12-C , 15-H ) :   0.9746
B( 16-S , 17-C ) :   1.1469 B( 16-S , 20-C ) :   1.1396 B( 17-C , 18-C ) :   1.6073
B( 17-C , 33-H ) :   0.9660 B( 18-C , 19-C ) :   1.2488 B( 18-C , 21-H ) :   0.9942
B( 19-C , 20-C ) :   1.6202 B( 19-C , 22-C ) :   1.0192 B( 22-C , 23-H ) :   0.9342
B( 22-C , 24-H ) :   0.9276 B( 22-C , 25-C ) :   1.0739 B( 25-C , 26-H ) :   0.9518
B( 25-C , 27-H ) :   0.9527 B( 25-C , 28-C ) :   1.0735 B( 28-C , 29-H ) :   0.9741
B( 28-C , 30-H ) :   0.9705 B( 28-C , 31-H ) :   0.9781

Dispersion correction           -0.015324979
FINAL SINGLE POINT ENERGY     -1339.862187450153

DIPOLE MOMENT
-------------
                                X             Y             Z
Electronic contribution:    -24.09147      -2.31687      15.77082
Nuclear contribution   :     24.65558       2.22583     -16.11562
                        -----------------------------------------
Total Dipole Moment    :      0.56411      -0.09104      -0.34480
                        -----------------------------------------
Magnitude (a.u.)       :      0.66738
Magnitude (Debye)      :      1.69634

Rotational constants in cm-1:     0.017857     0.009204     0.007536
Rotational constants in MHz :   535.354053   275.935082   225.909986

                             ****ORCA TERMINATED NORMALLY****
TOTAL RUN TIME: 0 days 0 hours 0 minutes 35 seconds 682 msec
