                         Program Version 4.2.1 -  RELEASE  -
|  1> ! wB97X-D3 SP def2-SVP
|  2> %pal
|  3> nprocs 16
|  4> end
|  5>
|  6> * xyz 0 1
|  7> S 	 3.66528 	 -11.5942 	 57.365
|  8> C 	 3.78885 	 -11.2375 	 59.0971
|  9> C 	 2.73842 	 -11.8094 	 59.7724
| 10> C 	 1.8957 	 -12.6054 	 58.9326
| 11> C 	 2.22096 	 -12.5413 	 57.603
| 12> H 	 0.934814 	 -13.0043 	 59.2101
| 13> C 	 2.35888 	 -11.5762 	 61.2143
| 14> H 	 1.27089 	 -11.4852 	 61.3522
| 15> H 	 2.74345 	 -10.6048 	 61.4719
| 16> C 	 2.95355 	 -12.5571 	 62.2612
| 17> H 	 2.43744 	 -12.5459 	 63.2144
| 18> H 	 2.85686 	 -13.6057 	 61.97
| 19> C 	 4.40355 	 -12.2428 	 62.6668
| 20> H 	 4.48394 	 -11.2919 	 63.1663
| 21> H 	 4.85895 	 -12.8811 	 63.4199
| 22> H 	 5.1384 	 -12.271 	 61.8224
| 23> S 	 0.694111 	 -11.966 	 55.4679
| 24> C 	 -0.148959 	 -13.2993 	 54.6896
| 25> C 	 0.149916 	 -14.4681 	 55.2549
| 26> C 	 1.03311 	 -14.4365 	 56.3854
| 27> C 	 1.45795 	 -13.1138 	 56.539
| 28> H 	 -0.255086 	 -15.3452 	 54.8605
| 29> C 	 1.46692 	 -15.7112 	 57.1498
| 30> H 	 0.600429 	 -16.3583 	 57.1402
| 31> H 	 1.83454 	 -15.6102 	 58.1661
| 32> C 	 2.50595 	 -16.4828 	 56.3467
| 33> H 	 2.27675 	 -16.4646 	 55.2336
| 34> H 	 2.73785 	 -17.4835 	 56.6774
| 35> C 	 3.94271 	 -15.817 	 56.2835
| 36> H 	 4.54646 	 -16.035 	 57.1333
| 37> H 	 3.85513 	 -14.7866 	 56.3401
| 38> H 	 4.52927 	 -16.156 	 55.4723
| 39> H 	 4.44538 	 -10.4551 	 59.5128
| 40> H 	 -0.731338 	 -13.2497 	 53.729
| 41> *
| 42>
| 43>                          ****END OF INPUT****

CARTESIAN COORDINATES (ANGSTROEM)
---------------------------------
  S      3.665280  -11.594200   57.365000
  C      3.788850  -11.237500   59.097100
  C      2.738420  -11.809400   59.772400
  C      1.895700  -12.605400   58.932600
  C      2.220960  -12.541300   57.603000
  H      0.934814  -13.004300   59.210100
  C      2.358880  -11.576200   61.214300
  H      1.270890  -11.485200   61.352200
  H      2.743450  -10.604800   61.471900
  C      2.953550  -12.557100   62.261200
  H      2.437440  -12.545900   63.214400
  H      2.856860  -13.605700   61.970000
  C      4.403550  -12.242800   62.666800
  H      4.483940  -11.291900   63.166300
  H      4.858950  -12.881100   63.419900
  H      5.138400  -12.271000   61.822400
  S      0.694111  -11.966000   55.467900
  C     -0.148959  -13.299300   54.689600
  C      0.149916  -14.468100   55.254900
  C      1.033110  -14.436500   56.385400
  C      1.457950  -13.113800   56.539000
  H     -0.255086  -15.345200   54.860500
  C      1.466920  -15.711200   57.149800
  H      0.600429  -16.358300   57.140200
  H      1.834540  -15.610200   58.166100
  C      2.505950  -16.482800   56.346700
  H      2.276750  -16.464600   55.233600
  H      2.737850  -17.483500   56.677400
  C      3.942710  -15.817000   56.283500
  H      4.546460  -16.035000   57.133300
  H      3.855130  -14.786600   56.340100
  H      4.529270  -16.156000   55.472300
  H      4.445380  -10.455100   59.512800
  H     -0.731338  -13.249700   53.729000

 Total Charge           Charge          ....    0
 Multiplicity           Mult            ....    1
 Number of Electrons    NEL             ....  134
 Basis Dimension        Dim             ....  322

ORBITAL ENERGIES
----------------

  NO   OCC          E(Eh)            E(eV)
   0   2.0000     -88.966069     -2420.8898
   1   2.0000     -88.965842     -2420.8836
   2   2.0000     -10.324893      -280.9546
   3   2.0000     -10.323521      -280.9173
   4   2.0000     -10.316836      -280.7354
   5   2.0000     -10.316125      -280.7160
   6   2.0000     -10.309870      -280.5458
   7   2.0000     -10.301366      -280.3144
   8   2.0000     -10.298553      -280.2379
   9   2.0000     -10.293801      -280.1086
  10   2.0000     -10.289026      -279.9786
  11   2.0000     -10.288429      -279.9624
  12   2.0000     -10.287987      -279.9504
  13   2.0000     -10.286327      -279.9052
  14   2.0000     -10.276794      -279.6458
  15   2.0000     -10.256567      -279.0954
  16   2.0000      -8.081017      -219.8956
  17   2.0000      -8.080195      -219.8733
  18   2.0000      -6.039531      -164.3440
  19   2.0000      -6.038721      -164.3219
  20   2.0000      -6.035624      -164.2377
  21   2.0000      -6.034740      -164.2136
  22   2.0000      -6.031610      -164.1284
  23   2.0000      -6.030965      -164.1109
  24   2.0000      -1.010435       -27.4953
  25   2.0000      -0.985459       -26.8157
  26   2.0000      -0.909693       -24.7540
  27   2.0000      -0.906632       -24.6707
  28   2.0000      -0.873537       -23.7702
  29   2.0000      -0.847862       -23.0715
  30   2.0000      -0.843711       -22.9585
  31   2.0000      -0.814162       -22.1545
  32   2.0000      -0.787457       -21.4278
  33   2.0000      -0.775996       -21.1159
  34   2.0000      -0.709733       -19.3128
  35   2.0000      -0.699752       -19.0412
  36   2.0000      -0.689525       -18.7629
  37   2.0000      -0.660213       -17.9653
  38   2.0000      -0.642058       -17.4713
  39   2.0000      -0.620286       -16.8788
  40   2.0000      -0.601574       -16.3696
  41   2.0000      -0.567965       -15.4551
  42   2.0000      -0.552672       -15.0390
  43   2.0000      -0.549725       -14.9588
  44   2.0000      -0.539571       -14.6825
  45   2.0000      -0.534980       -14.5575
  46   2.0000      -0.515499       -14.0274
  47   2.0000      -0.509739       -13.8707
  48   2.0000      -0.503158       -13.6916
  49   2.0000      -0.495573       -13.4852
  50   2.0000      -0.488851       -13.3023
  51   2.0000      -0.478396       -13.0178
  52   2.0000      -0.471495       -12.8300
  53   2.0000      -0.467369       -12.7178
  54   2.0000      -0.459955       -12.5160
  55   2.0000      -0.447261       -12.1706
  56   2.0000      -0.441778       -12.0214
  57   2.0000      -0.437468       -11.9041
  58   2.0000      -0.433947       -11.8083
  59   2.0000      -0.427569       -11.6347
  60   2.0000      -0.416569       -11.3354
  61   2.0000      -0.414508       -11.2793
  62   2.0000      -0.407394       -11.0858
  63   2.0000      -0.345725        -9.4077
  64   2.0000      -0.331832        -9.0296
  65   2.0000      -0.329558        -8.9677
  66   2.0000      -0.300819        -8.1857
  67   0.0000       0.032760         0.8914
  68   0.0000       0.071071         1.9339
  69   0.0000       0.112909         3.0724
  70   0.0000       0.119366         3.2481
  71   0.0000       0.128262         3.4902

MULLIKEN ATOMIC CHARGES
-----------------------
   0 S :    0.106289
   1 C :   -0.126918
   2 C :   -0.089494
   3 C :    0.050578
   4 C :   -0.167748
   5 H :    0.012370
   6 C :    0.074780
   7 H :    0.035475
   8 H :    0.007000
   9 C :   -0.044240
  10 H :    0.024287
  11 H :    0.027165
  12 C :   -0.078819
  13 H :    0.020404
  14 H :    0.027009
  15 H :    0.037168
  16 S :    0.113311
  17 C :   -0.095062
  18 C :   -0.012502
  19 C :   -0.034019
  20 C :   -0.182062
  21 H :   -0.009290
  22 C :    0.133943
  23 H :    0.023989
  24 H :    0.035599
  25 C :   -0.122708
  26 H :    0.039096
  27 H :    0.034183
  28 C :   -0.014035
  29 H :    0.008773
  30 H :    0.004946
  31 H :    0.026163
  32 H :    0.062406
  33 H :    0.071964
Sum of atomic charges:   -0.0000000

LOEWDIN ATOMIC CHARGES
----------------------
   0 S :    0.397208
   1 C :   -0.196965
   2 C :   -0.060741
   3 C :   -0.060774
   4 C :   -0.200557
   5 H :    0.031034
   6 C :   -0.028326
   7 H :    0.035736
   8 H :    0.027075
   9 C :   -0.040143
  10 H :    0.025478
  11 H :    0.023708
  12 C :   -0.075091
  13 H :    0.020396
  14 H :    0.026105
  15 H :    0.026502
  16 S :    0.402964
  17 C :   -0.189552
  18 C :   -0.064986
  19 C :   -0.044656
  20 C :   -0.200059
  21 H :    0.021223
  22 C :   -0.024269
  23 H :    0.034431
  24 H :    0.033298
  25 C :   -0.041023
  26 H :    0.031578
  27 H :    0.020970
  28 C :   -0.060302
  29 H :    0.018040
  30 H :    0.011112
  31 H :    0.021165
  32 H :    0.035407
  33 H :    0.044016

  Mayer bond orders larger than 0.100000
B(  0-S ,  1-C ) :   1.1210 B(  0-S ,  4-C ) :   1.1475 B(  1-C ,  2-C ) :   1.6339
B(  1-C , 32-H ) :   0.9623 B(  2-C ,  3-C ) :   1.2282 B(  2-C ,  6-C ) :   1.0235
B(  3-C ,  4-C ) :   1.5960 B(  3-C ,  5-H ) :   0.9941 B(  4-C , 20-C ) :   1.0237
B(  6-C ,  7-H ) :   0.9463 B(  6-C ,  8-H ) :   0.9403 B(  6-C ,  9-C ) :   1.0569
B(  9-C , 10-H ) :   0.9548 B(  9-C , 11-H ) :   0.9588 B(  9-C , 12-C ) :   1.0795
B( 12-C , 13-H ) :   0.9735 B( 12-C , 14-H ) :   0.9736 B( 12-C , 15-H ) :   0.9764
B( 16-S , 17-C ) :   1.1192 B( 16-S , 20-C ) :   1.1563 B( 17-C , 18-C ) :   1.6689
B( 17-C , 33-H ) :   0.9561 B( 18-C , 19-C ) :   1.2125 B( 18-C , 21-H ) :   0.9894
B( 19-C , 20-C ) :   1.6047 B( 19-C , 22-C ) :   1.0393 B( 22-C , 23-H ) :   0.9236
B( 22-C , 24-H ) :   0.9420 B( 22-C , 25-C ) :   1.0684 B( 25-C , 26-H ) :   0.9632
B( 25-C , 27-H ) :   0.9612 B( 25-C , 28-C ) :   1.0604 B( 28-C , 29-H ) :   0.9731
B( 28-C , 30-H ) :   0.9749 B( 28-C , 31-H ) :   0.9777

Dispersion correction           -0.014972929
FINAL SINGLE POINT ENERGY     -1339.876204482028

DIPOLE MOMENT
-------------
                                X             Y             Z
Electronic contribution:     -8.18014      13.85430     -18.56193
Nuclear contribution   :      7.91758     -14.17467      18.97600
                        -----------------------------------------
Total Dipole Moment    :     -0.26255      -0.32037       0.41406
                        -----------------------------------------
Magnitude (a.u.)       :      0.58568
Magnitude (Debye)      :      1.48868

Rotational constants in cm-1:     0.021056     0.008307     0.007273
Rotational constants in MHz :   631.253640   249.049686   218.025527

                             ****ORCA TERMINATED NORMALLY****
TOTAL RUN TIME: 0 days 0 hours 0 minutes 31 seconds 10 msec
