                         Program Version 4.2.1 -  RELEASE  -
|  1> ! wB97X-D3 SP def2-SVP
|  2> %pal
|  3> nprocs 16
|  4> end
|  5>
|  6> * xyz 0 1
|  7> S 	 0.403253 	 -27.1948 	 84.9557
|  8> C 	 -0.480496 	 -28.4399 	 84.0809
|  9> C 	 -0.590622 	 -29.6148 	 84.8863
| 10> C 	 0.144211 	 -29.4426 	 86.1451
| 11> C 	 0.866161 	 -28.2924 	 86.2323
| 12> H 	 0.241964 	 -30.2164 	 86.8952
| 13> C 	 -1.48465 	 -30.773 	 84.5407
| 14> H 	 -2.56224 	 -30.4114 	 84.5284
| 15> H 	 -1.49816 	 -31.3483 	 85.5037
| 16> C 	 -1.13508 	 -31.5999 	 83.2763
| 17> H 	 -1.89453 	 -32.434 	 83.3317
| 18> H 	 -1.16367 	 -30.9532 	 82.3658
| 19> C 	 0.325464 	 -32.1395 	 83.4036
| 20> H 	 0.388193 	 -32.8372 	 84.2432
| 21> H 	 0.651911 	 -32.6155 	 82.52
| 22> H 	 0.906628 	 -31.2808 	 83.5427
| 23> S 	 3.57682 	 -27.7969 	 86.6537
| 24> C 	 4.21734 	 -27.8102 	 88.2701
| 25> C 	 3.22613 	 -27.9781 	 89.2236
| 26> C 	 1.94375 	 -28.0604 	 88.6124
| 27> C 	 1.92894 	 -27.9853 	 87.1915
| 28> H 	 3.52904 	 -28.032 	 90.2965
| 29> C 	 0.681848 	 -28.2808 	 89.4248
| 30> H 	 1.05183 	 -28.6598 	 90.3812
| 31> H 	 0.146147 	 -29.0518 	 88.9925
| 32> C 	 -0.259818 	 -27.071 	 89.495
| 33> H 	 -0.853432 	 -27.0115 	 88.563
| 34> H 	 0.334484 	 -26.1088 	 89.4392
| 35> C 	 -1.34187 	 -27.182 	 90.5968
| 36> H 	 -0.832196 	 -27.1481 	 91.558
| 37> H 	 -1.93514 	 -28.0987 	 90.5041
| 38> H 	 -1.97849 	 -26.3533 	 90.4322
| 39> H 	 -0.855103 	 -28.3359 	 83.1251
| 40> H 	 5.2696 	 -28.0271 	 88.365
| 41> *
| 42>
| 43>                          ****END OF INPUT****

CARTESIAN COORDINATES (ANGSTROEM)
---------------------------------
  S      0.403253  -27.194800   84.955700
  C     -0.480496  -28.439900   84.080900
  C     -0.590622  -29.614800   84.886300
  C      0.144211  -29.442600   86.145100
  C      0.866161  -28.292400   86.232300
  H      0.241964  -30.216400   86.895200
  C     -1.484650  -30.773000   84.540700
  H     -2.562240  -30.411400   84.528400
  H     -1.498160  -31.348300   85.503700
  C     -1.135080  -31.599900   83.276300
  H     -1.894530  -32.434000   83.331700
  H     -1.163670  -30.953200   82.365800
  C      0.325464  -32.139500   83.403600
  H      0.388193  -32.837200   84.243200
  H      0.651911  -32.615500   82.520000
  H      0.906628  -31.280800   83.542700
  S      3.576820  -27.796900   86.653700
  C      4.217340  -27.810200   88.270100
  C      3.226130  -27.978100   89.223600
  C      1.943750  -28.060400   88.612400
  C      1.928940  -27.985300   87.191500
  H      3.529040  -28.032000   90.296500
  C      0.681848  -28.280800   89.424800
  H      1.051830  -28.659800   90.381200
  H      0.146147  -29.051800   88.992500
  C     -0.259818  -27.071000   89.495000
  H     -0.853432  -27.011500   88.563000
  H      0.334484  -26.108800   89.439200
  C     -1.341870  -27.182000   90.596800
  H     -0.832196  -27.148100   91.558000
  H     -1.935140  -28.098700   90.504100
  H     -1.978490  -26.353300   90.432200
  H     -0.855103  -28.335900   83.125100
  H      5.269600  -28.027100   88.365000

 Total Charge           Charge          ....    0
 Multiplicity           Mult            ....    1
 Number of Electrons    NEL             ....  134
 Basis Dimension        Dim             ....  322

ORBITAL ENERGIES
----------------

  NO   OCC          E(Eh)            E(eV)
   0   2.0000     -88.965616     -2420.8775
   1   2.0000     -88.965149     -2420.8648
   2   2.0000     -10.330191      -281.0988
   3   2.0000     -10.328503      -281.0528
   4   2.0000     -10.317275      -280.7473
   5   2.0000     -10.314228      -280.6644
   6   2.0000     -10.308479      -280.5080
   7   2.0000     -10.306079      -280.4427
   8   2.0000     -10.300988      -280.3041
   9   2.0000     -10.299384      -280.2605
  10   2.0000     -10.299270      -280.2574
  11   2.0000     -10.297039      -280.1967
  12   2.0000     -10.286004      -279.8964
  13   2.0000     -10.281454      -279.7726
  14   2.0000     -10.274722      -279.5894
  15   2.0000     -10.268694      -279.4254
  16   2.0000      -8.080249      -219.8747
  17   2.0000      -8.080224      -219.8741
  18   2.0000      -6.038781      -164.3236
  19   2.0000      -6.038577      -164.3180
  20   2.0000      -6.034708      -164.2127
  21   2.0000      -6.034510      -164.2074
  22   2.0000      -6.031339      -164.1211
  23   2.0000      -6.031006      -164.1120
  24   2.0000      -1.004637       -27.3376
  25   2.0000      -0.981840       -26.7172
  26   2.0000      -0.909155       -24.7394
  27   2.0000      -0.905873       -24.6500
  28   2.0000      -0.866693       -23.5839
  29   2.0000      -0.849718       -23.1220
  30   2.0000      -0.842880       -22.9359
  31   2.0000      -0.815756       -22.1979
  32   2.0000      -0.781705       -21.2713
  33   2.0000      -0.769317       -20.9342
  34   2.0000      -0.704987       -19.1837
  35   2.0000      -0.701571       -19.0907
  36   2.0000      -0.688036       -18.7224
  37   2.0000      -0.659809       -17.9543
  38   2.0000      -0.641941       -17.4681
  39   2.0000      -0.613152       -16.6847
  40   2.0000      -0.594044       -16.1648
  41   2.0000      -0.576505       -15.6875
  42   2.0000      -0.559811       -15.2332
  43   2.0000      -0.547283       -14.8923
  44   2.0000      -0.543929       -14.8011
  45   2.0000      -0.527187       -14.3455
  46   2.0000      -0.517536       -14.0829
  47   2.0000      -0.514287       -13.9945
  48   2.0000      -0.501592       -13.6490
  49   2.0000      -0.499671       -13.5967
  50   2.0000      -0.487224       -13.2580
  51   2.0000      -0.483678       -13.1615
  52   2.0000      -0.466644       -12.6980
  53   2.0000      -0.464702       -12.6452
  54   2.0000      -0.458657       -12.4807
  55   2.0000      -0.446510       -12.1502
  56   2.0000      -0.443036       -12.0556
  57   2.0000      -0.439981       -11.9725
  58   2.0000      -0.435135       -11.8406
  59   2.0000      -0.420657       -11.4467
  60   2.0000      -0.417913       -11.3720
  61   2.0000      -0.414292       -11.2735
  62   2.0000      -0.403809       -10.9882
  63   2.0000      -0.346086        -9.4175
  64   2.0000      -0.330316        -8.9883
  65   2.0000      -0.322793        -8.7836
  66   2.0000      -0.293827        -7.9954
  67   0.0000       0.028441         0.7739
  68   0.0000       0.058556         1.5934
  69   0.0000       0.103251         2.8096
  70   0.0000       0.124418         3.3856
  71   0.0000       0.139673         3.8007

MULLIKEN ATOMIC CHARGES
-----------------------
   0 S :    0.112041
   1 C :   -0.090964
   2 C :   -0.130443
   3 C :    0.052534
   4 C :   -0.169599
   5 H :    0.017486
   6 C :    0.012703
   7 H :    0.053099
   8 H :    0.019594
   9 C :   -0.085544
  10 H :    0.046691
  11 H :    0.044590
  12 C :   -0.022104
  13 H :    0.030142
  14 H :    0.026012
  15 H :    0.034847
  16 S :    0.109043
  17 C :   -0.108502
  18 C :   -0.046990
  19 C :   -0.078167
  20 C :   -0.133856
  21 H :    0.044126
  22 C :    0.143619
  23 H :    0.008658
  24 H :   -0.011134
  25 C :   -0.124425
  26 H :    0.031042
  27 H :    0.042363
  28 C :   -0.017624
  29 H :    0.033919
  30 H :    0.032741
  31 H :    0.030412
  32 H :    0.024552
  33 H :    0.069137
Sum of atomic charges:    0.0000000

LOEWDIN ATOMIC CHARGES
----------------------
   0 S :    0.404114
   1 C :   -0.184560
   2 C :   -0.061301
   3 C :   -0.063944
   4 C :   -0.197269
   5 H :    0.029037
   6 C :   -0.050934
   7 H :    0.040749
   8 H :    0.032081
   9 C :   -0.037831
  10 H :    0.031935
  11 H :    0.028432
  12 C :   -0.055164
  13 H :    0.026060
  14 H :    0.019160
  15 H :    0.020511
  16 S :    0.425144
  17 C :   -0.189073
  18 C :   -0.079289
  19 C :   -0.049228
  20 C :   -0.213627
  21 H :    0.044658
  22 C :   -0.030062
  23 H :    0.026854
  24 H :    0.017884
  25 C :   -0.045260
  26 H :    0.026424
  27 H :    0.029247
  28 C :   -0.057851
  29 H :    0.023464
  30 H :    0.027579
  31 H :    0.023313
  32 H :    0.010630
  33 H :    0.028116

  Mayer bond orders larger than 0.100000
B(  0-S ,  1-C ) :   1.1418 B(  0-S ,  4-C ) :   1.1471 B(  1-C ,  2-C ) :   1.5799
B(  1-C , 32-H ) :   0.9840 B(  2-C ,  3-C ) :   1.2391 B(  2-C ,  6-C ) :   1.0149
B(  3-C ,  4-C ) :   1.5947 B(  3-C ,  5-H ) :   0.9826 B(  4-C , 20-C ) :   1.0270
B(  6-C ,  7-H ) :   0.9411 B(  6-C ,  8-H ) :   0.9441 B(  6-C ,  9-C ) :   1.0535
B(  9-C , 10-H ) :   0.9567 B(  9-C , 11-H ) :   0.9586 B(  9-C , 12-C ) :   1.0675
B( 12-C , 13-H ) :   0.9777 B( 12-C , 14-H ) :   0.9757 B( 12-C , 15-H ) :   0.9732
B( 16-S , 17-C ) :   1.1939 B( 16-S , 20-C ) :   1.1564 B( 17-C , 18-C ) :   1.5586
B( 17-C , 20-C ) :   0.1052 B( 17-C , 33-H ) :   0.9634 B( 18-C , 19-C ) :   1.2830
B( 18-C , 21-H ) :   0.9879 B( 19-C , 20-C ) :   1.5377 B( 19-C , 22-C ) :   1.0497
B( 22-C , 23-H ) :   0.9387 B( 22-C , 24-H ) :   0.9156 B( 22-C , 25-C ) :   1.0513
B( 25-C , 26-H ) :   0.9513 B( 25-C , 27-H ) :   0.9629 B( 25-C , 28-C ) :   1.0776
B( 28-C , 29-H ) :   0.9791 B( 28-C , 30-H ) :   0.9729 B( 28-C , 31-H ) :   0.9753

Dispersion correction           -0.014609579
FINAL SINGLE POINT ENERGY     -1339.869004318298

DIPOLE MOMENT
-------------
                                X             Y             Z
Electronic contribution:     15.85066      13.12002      -5.86595
Nuclear contribution   :    -16.09824     -13.66909       6.10580
                        -----------------------------------------
Total Dipole Moment    :     -0.24759      -0.54907       0.23985
                        -----------------------------------------
Magnitude (a.u.)       :      0.64831
Magnitude (Debye)      :      1.64787

Rotational constants in cm-1:     0.018251     0.008477     0.007145
Rotational constants in MHz :   547.163514   254.137950   214.187499

                             ****ORCA TERMINATED NORMALLY****
TOTAL RUN TIME: 0 days 0 hours 0 minutes 34 seconds 177 msec
