                         Program Version 4.2.1 -  RELEASE  -
|  1> ! wB97X-D3 SP def2-SVP
|  2> %pal
|  3> nprocs 16
|  4> end
|  5>
|  6> * xyz 0 1
|  7> S 	 -105.977 	 39.8152 	 128.631
|  8> C 	 -104.868 	 39.8327 	 129.95
|  9> C 	 -105.474 	 39.2134 	 131.075
| 10> C 	 -106.667 	 38.492 	 130.769
| 11> C 	 -107.012 	 38.6515 	 129.458
| 12> H 	 -107.267 	 37.8797 	 131.458
| 13> C 	 -104.912 	 39.1628 	 132.495
| 14> H 	 -105.69 	 39.5764 	 133.13
| 15> H 	 -104.026 	 39.8563 	 132.491
| 16> C 	 -104.141 	 37.9568 	 132.846
| 17> H 	 -103.817 	 37.8932 	 133.867
| 18> H 	 -104.837 	 37.2022 	 132.677
| 19> C 	 -102.86 	 37.7889 	 132.003
| 20> H 	 -102.221 	 38.6395 	 132.182
| 21> H 	 -102.318 	 36.8674 	 132.228
| 22> H 	 -103.053 	 37.8397 	 130.935
| 23> S 	 -109.03 	 39.2191 	 127.729
| 24> C 	 -110.282 	 38.0452 	 127.483
| 25> C 	 -110.035 	 36.8608 	 128.127
| 26> C 	 -108.78 	 36.8127 	 128.817
| 27> C 	 -108.164 	 38.0676 	 128.797
| 28> H 	 -110.831 	 36.09 	 128.075
| 29> C 	 -108.264 	 35.604 	 129.524
| 30> H 	 -109.012 	 35.1295 	 130.103
| 31> H 	 -107.585 	 35.9429 	 130.3
| 32> C 	 -107.635 	 34.4296 	 128.733
| 33> H 	 -106.834 	 34.8566 	 128.15
| 34> H 	 -108.309 	 33.9438 	 128.028
| 35> C 	 -107.039 	 33.3796 	 129.647
| 36> H 	 -107.822 	 32.7071 	 130.133
| 37> H 	 -106.495 	 33.8079 	 130.424
| 38> H 	 -106.296 	 32.7949 	 129.099
| 39> H 	 -104.14 	 40.6413 	 130.043
| 40> H 	 -111.15 	 38.1862 	 126.945
| 41> *
| 42>
| 43>                          ****END OF INPUT****

CARTESIAN COORDINATES (ANGSTROEM)
---------------------------------
  S    -105.977000   39.815200  128.631000
  C    -104.868000   39.832700  129.950000
  C    -105.474000   39.213400  131.075000
  C    -106.667000   38.492000  130.769000
  C    -107.012000   38.651500  129.458000
  H    -107.267000   37.879700  131.458000
  C    -104.912000   39.162800  132.495000
  H    -105.690000   39.576400  133.130000
  H    -104.026000   39.856300  132.491000
  C    -104.141000   37.956800  132.846000
  H    -103.817000   37.893200  133.867000
  H    -104.837000   37.202200  132.677000
  C    -102.860000   37.788900  132.003000
  H    -102.221000   38.639500  132.182000
  H    -102.318000   36.867400  132.228000
  H    -103.053000   37.839700  130.935000
  S    -109.030000   39.219100  127.729000
  C    -110.282000   38.045200  127.483000
  C    -110.035000   36.860800  128.127000
  C    -108.780000   36.812700  128.817000
  C    -108.164000   38.067600  128.797000
  H    -110.831000   36.090000  128.075000
  C    -108.264000   35.604000  129.524000
  H    -109.012000   35.129500  130.103000
  H    -107.585000   35.942900  130.300000
  C    -107.635000   34.429600  128.733000
  H    -106.834000   34.856600  128.150000
  H    -108.309000   33.943800  128.028000
  C    -107.039000   33.379600  129.647000
  H    -107.822000   32.707100  130.133000
  H    -106.495000   33.807900  130.424000
  H    -106.296000   32.794900  129.099000
  H    -104.140000   40.641300  130.043000
  H    -111.150000   38.186200  126.945000

 Total Charge           Charge          ....    0
 Multiplicity           Mult            ....    1
 Number of Electrons    NEL             ....  134
 Basis Dimension        Dim             ....  322

ORBITAL ENERGIES
----------------

  NO   OCC          E(Eh)            E(eV)
   0   2.0000     -88.967073     -2420.9171
   1   2.0000     -88.965490     -2420.8741
   2   2.0000     -10.331040      -281.1219
   3   2.0000     -10.330749      -281.1140
   4   2.0000     -10.315559      -280.7006
   5   2.0000     -10.310218      -280.5553
   6   2.0000     -10.308508      -280.5088
   7   2.0000     -10.306675      -280.4589
   8   2.0000     -10.295744      -280.1614
   9   2.0000     -10.295295      -280.1492
  10   2.0000     -10.289338      -279.9871
  11   2.0000     -10.287163      -279.9279
  12   2.0000     -10.284010      -279.8421
  13   2.0000     -10.276980      -279.6509
  14   2.0000     -10.276568      -279.6396
  15   2.0000     -10.273505      -279.5563
  16   2.0000      -8.082120      -219.9257
  17   2.0000      -8.080105      -219.8708
  18   2.0000      -6.040633      -164.3740
  19   2.0000      -6.038575      -164.3180
  20   2.0000      -6.036608      -164.2645
  21   2.0000      -6.034743      -164.2137
  22   2.0000      -6.032840      -164.1619
  23   2.0000      -6.030810      -164.1067
  24   2.0000      -1.008630       -27.4462
  25   2.0000      -0.984446       -26.7881
  26   2.0000      -0.921695       -25.0806
  27   2.0000      -0.912073       -24.8188
  28   2.0000      -0.871183       -23.7061
  29   2.0000      -0.857277       -23.3277
  30   2.0000      -0.848175       -23.0800
  31   2.0000      -0.813141       -22.1267
  32   2.0000      -0.783804       -21.3284
  33   2.0000      -0.772974       -21.0337
  34   2.0000      -0.710831       -19.3427
  35   2.0000      -0.700945       -19.0737
  36   2.0000      -0.697500       -18.9799
  37   2.0000      -0.660207       -17.9651
  38   2.0000      -0.641283       -17.4502
  39   2.0000      -0.625956       -17.0331
  40   2.0000      -0.600942       -16.3525
  41   2.0000      -0.569911       -15.5081
  42   2.0000      -0.568707       -15.4753
  43   2.0000      -0.559768       -15.2321
  44   2.0000      -0.544140       -14.8068
  45   2.0000      -0.525473       -14.2988
  46   2.0000      -0.514614       -14.0034
  47   2.0000      -0.513719       -13.9790
  48   2.0000      -0.504012       -13.7149
  49   2.0000      -0.496569       -13.5123
  50   2.0000      -0.492535       -13.4025
  51   2.0000      -0.483946       -13.1688
  52   2.0000      -0.464988       -12.6530
  53   2.0000      -0.463982       -12.6256
  54   2.0000      -0.458030       -12.4636
  55   2.0000      -0.451638       -12.2897
  56   2.0000      -0.451277       -12.2799
  57   2.0000      -0.443811       -12.0767
  58   2.0000      -0.437222       -11.8974
  59   2.0000      -0.427183       -11.6242
  60   2.0000      -0.417483       -11.3603
  61   2.0000      -0.412941       -11.2367
  62   2.0000      -0.405197       -11.0260
  63   2.0000      -0.354936        -9.6583
  64   2.0000      -0.334326        -9.0975
  65   2.0000      -0.329677        -8.9710
  66   2.0000      -0.286353        -7.7921
  67   0.0000       0.021358         0.5812
  68   0.0000       0.068912         1.8752
  69   0.0000       0.100849         2.7442
  70   0.0000       0.116269         3.1638
  71   0.0000       0.130501         3.5511

MULLIKEN ATOMIC CHARGES
-----------------------
   0 S :    0.107353
   1 C :   -0.097237
   2 C :   -0.154354
   3 C :    0.015047
   4 C :   -0.127332
   5 H :    0.035490
   6 C :    0.043541
   7 H :    0.046224
   8 H :    0.001811
   9 C :    0.006436
  10 H :    0.029761
  11 H :   -0.004206
  12 C :   -0.072414
  13 H :    0.018215
  14 H :    0.040317
  15 H :    0.042755
  16 S :    0.090738
  17 C :   -0.049079
  18 C :   -0.056745
  19 C :   -0.009174
  20 C :   -0.151428
  21 H :    0.029116
  22 C :    0.076967
  23 H :    0.004668
  24 H :   -0.005089
  25 C :   -0.051208
  26 H :    0.026773
  27 H :    0.031133
  28 C :   -0.044003
  29 H :    0.040031
  30 H :    0.010811
  31 H :    0.035764
  32 H :    0.064534
  33 H :    0.024783
Sum of atomic charges:   -0.0000000

LOEWDIN ATOMIC CHARGES
----------------------
   0 S :    0.409783
   1 C :   -0.220968
   2 C :   -0.052357
   3 C :   -0.069997
   4 C :   -0.184000
   5 H :    0.038232
   6 C :   -0.039371
   7 H :    0.034488
   8 H :    0.029666
   9 C :   -0.035694
  10 H :    0.026085
  11 H :    0.009147
  12 C :   -0.062163
  13 H :    0.020825
  14 H :    0.028691
  15 H :    0.026126
  16 S :    0.387870
  17 C :   -0.175635
  18 C :   -0.071278
  19 C :   -0.052633
  20 C :   -0.174810
  21 H :    0.037612
  22 C :   -0.035553
  23 H :    0.025265
  24 H :    0.027749
  25 C :   -0.033942
  26 H :    0.024200
  27 H :    0.024278
  28 C :   -0.063665
  29 H :    0.031894
  30 H :    0.014070
  31 H :    0.030759
  32 H :    0.030628
  33 H :    0.014697

  Mayer bond orders larger than 0.100000
B(  0-S ,  1-C ) :   1.1371 B(  0-S ,  4-C ) :   1.1586 B(  1-C ,  2-C ) :   1.5924
B(  1-C ,  4-C ) :   0.1028 B(  1-C , 32-H ) :   0.9589 B(  2-C ,  3-C ) :   1.2417
B(  2-C ,  6-C ) :   1.0335 B(  3-C ,  4-C ) :   1.5656 B(  3-C ,  5-H ) :   0.9857
B(  4-C , 20-C ) :   1.0562 B(  6-C ,  7-H ) :   0.9429 B(  6-C ,  8-H ) :   0.9404
B(  6-C ,  9-C ) :   1.0527 B(  9-C , 10-H ) :   0.9536 B(  9-C , 11-H ) :   0.9506
B(  9-C , 12-C ) :   1.0770 B( 12-C , 13-H ) :   0.9714 B( 12-C , 14-H ) :   0.9737
B( 12-C , 15-H ) :   0.9743 B( 16-S , 17-C ) :   1.1430 B( 16-S , 20-C ) :   1.1248
B( 17-C , 18-C ) :   1.6457 B( 17-C , 33-H ) :   0.9736 B( 18-C , 19-C ) :   1.2060
B( 18-C , 21-H ) :   0.9854 B( 19-C , 20-C ) :   1.6009 B( 19-C , 22-C ) :   1.0582
B( 22-C , 23-H ) :   0.9245 B( 22-C , 24-H ) :   0.9258 B( 22-C , 25-C ) :   1.0616
B( 25-C , 26-H ) :   0.9526 B( 25-C , 27-H ) :   0.9551 B( 25-C , 28-C ) :   1.0895
B( 28-C , 29-H ) :   0.9733 B( 28-C , 30-H ) :   0.9726 B( 28-C , 31-H ) :   0.9733

Dispersion correction           -0.013981385
FINAL SINGLE POINT ENERGY     -1339.866047279727

DIPOLE MOMENT
-------------
                                X             Y             Z
Electronic contribution:    -13.22516      21.00826     -16.63039
Nuclear contribution   :     13.13638     -21.42513      17.10846
                        -----------------------------------------
Total Dipole Moment    :     -0.08878      -0.41686       0.47807
                        -----------------------------------------
Magnitude (a.u.)       :      0.64047
Magnitude (Debye)      :      1.62796

Rotational constants in cm-1:     0.017252     0.009587     0.006802
Rotational constants in MHz :   517.188400   287.421451   203.916191

                             ****ORCA TERMINATED NORMALLY****
TOTAL RUN TIME: 0 days 0 hours 0 minutes 33 seconds 191 msec
