                         Program Version 4.2.1 -  RELEASE  -
|  1> ! wB97X-D3 SP def2-SVP
|  2> %pal
|  3> nprocs 16
|  4> end
|  5>
|  6> * xyz 0 1
|  7> S 	 40.2491 	 8.2931 	 77.347
|  8> C 	 39.982 	 6.57921 	 77.7765
|  9> C 	 38.6699 	 6.18667 	 77.8285
| 10> C 	 37.8585 	 7.2886 	 77.4455
| 11> C 	 38.5276 	 8.4592 	 77.0606
| 12> H 	 36.7338 	 7.29283 	 77.5665
| 13> C 	 38.1229 	 4.86019 	 78.2203
| 14> H 	 38.9601 	 4.11761 	 78.1285
| 15> H 	 37.457 	 4.68258 	 77.4187
| 16> C 	 37.3295 	 4.74694 	 79.5401
| 17> H 	 36.4562 	 5.31666 	 79.3856
| 18> H 	 36.9221 	 3.67578 	 79.62
| 19> C 	 38.0827 	 5.04994 	 80.8935
| 20> H 	 38.404 	 6.10973 	 80.9742
| 21> H 	 37.3399 	 5.00111 	 81.6851
| 22> H 	 38.8568 	 4.36404 	 81.2599
| 23> S 	 36.8682 	 10.4364 	 78.0566
| 24> C 	 36.4025 	 11.7801 	 77.1101
| 25> C 	 36.9424 	 11.6528 	 75.8405
| 26> C 	 37.8232 	 10.5245 	 75.6681
| 27> C 	 37.9473 	 9.76942 	 76.8807
| 28> H 	 36.7975 	 12.3895 	 75.0504
| 29> C 	 38.6739 	 10.2742 	 74.391
| 30> H 	 39.6634 	 9.86307 	 74.6067
| 31> H 	 38.731 	 11.2763 	 73.8588
| 32> C 	 37.9549 	 9.33735 	 73.4147
| 33> H 	 38.0001 	 8.27882 	 73.7597
| 34> H 	 38.4948 	 9.27631 	 72.4783
| 35> C 	 36.4856 	 9.82937 	 73.0803
| 36> H 	 35.7879 	 9.6599 	 73.8374
| 37> H 	 36.2201 	 9.17929 	 72.2433
| 38> H 	 36.3657 	 10.8327 	 72.8077
| 39> H 	 40.7858 	 5.99284 	 78.1592
| 40> H 	 35.6401 	 12.3919 	 77.472
| 41> *
| 42>
| 43>                          ****END OF INPUT****

CARTESIAN COORDINATES (ANGSTROEM)
---------------------------------
  S     40.249100    8.293100   77.347000
  C     39.982000    6.579210   77.776500
  C     38.669900    6.186670   77.828500
  C     37.858500    7.288600   77.445500
  C     38.527600    8.459200   77.060600
  H     36.733800    7.292830   77.566500
  C     38.122900    4.860190   78.220300
  H     38.960100    4.117610   78.128500
  H     37.457000    4.682580   77.418700
  C     37.329500    4.746940   79.540100
  H     36.456200    5.316660   79.385600
  H     36.922100    3.675780   79.620000
  C     38.082700    5.049940   80.893500
  H     38.404000    6.109730   80.974200
  H     37.339900    5.001110   81.685100
  H     38.856800    4.364040   81.259900
  S     36.868200   10.436400   78.056600
  C     36.402500   11.780100   77.110100
  C     36.942400   11.652800   75.840500
  C     37.823200   10.524500   75.668100
  C     37.947300    9.769420   76.880700
  H     36.797500   12.389500   75.050400
  C     38.673900   10.274200   74.391000
  H     39.663400    9.863070   74.606700
  H     38.731000   11.276300   73.858800
  C     37.954900    9.337350   73.414700
  H     38.000100    8.278820   73.759700
  H     38.494800    9.276310   72.478300
  C     36.485600    9.829370   73.080300
  H     35.787900    9.659900   73.837400
  H     36.220100    9.179290   72.243300
  H     36.365700   10.832700   72.807700
  H     40.785800    5.992840   78.159200
  H     35.640100   12.391900   77.472000

 Total Charge           Charge          ....    0
 Multiplicity           Mult            ....    1
 Number of Electrons    NEL             ....  134
 Basis Dimension        Dim             ....  322

ORBITAL ENERGIES
----------------

  NO   OCC          E(Eh)            E(eV)
   0   2.0000     -88.966553     -2420.9030
   1   2.0000     -88.963911     -2420.8311
   2   2.0000     -10.328769      -281.0601
   3   2.0000     -10.323601      -280.9195
   4   2.0000     -10.313404      -280.6420
   5   2.0000     -10.312549      -280.6187
   6   2.0000     -10.307421      -280.4792
   7   2.0000     -10.299221      -280.2560
   8   2.0000     -10.299162      -280.2544
   9   2.0000     -10.298900      -280.2473
  10   2.0000     -10.296888      -280.1926
  11   2.0000     -10.295920      -280.1662
  12   2.0000     -10.293771      -280.1077
  13   2.0000     -10.285079      -279.8712
  14   2.0000     -10.284263      -279.8490
  15   2.0000     -10.266136      -279.3558
  16   2.0000      -8.080634      -219.8852
  17   2.0000      -8.079629      -219.8579
  18   2.0000      -6.039079      -164.3317
  19   2.0000      -6.037892      -164.2994
  20   2.0000      -6.035423      -164.2322
  21   2.0000      -6.033763      -164.1871
  22   2.0000      -6.031309      -164.1203
  23   2.0000      -6.030827      -164.1072
  24   2.0000      -1.005170       -27.3521
  25   2.0000      -0.983484       -26.7620
  26   2.0000      -0.912007       -24.8170
  27   2.0000      -0.901028       -24.5182
  28   2.0000      -0.867037       -23.5933
  29   2.0000      -0.844938       -22.9919
  30   2.0000      -0.838216       -22.8090
  31   2.0000      -0.807891       -21.9838
  32   2.0000      -0.788294       -21.4506
  33   2.0000      -0.776982       -21.1427
  34   2.0000      -0.712258       -19.3815
  35   2.0000      -0.701682       -19.0937
  36   2.0000      -0.689548       -18.7636
  37   2.0000      -0.661260       -17.9938
  38   2.0000      -0.632809       -17.2196
  39   2.0000      -0.616062       -16.7639
  40   2.0000      -0.591999       -16.1091
  41   2.0000      -0.563531       -15.3345
  42   2.0000      -0.551490       -15.0068
  43   2.0000      -0.551049       -14.9948
  44   2.0000      -0.540251       -14.7010
  45   2.0000      -0.536278       -14.5929
  46   2.0000      -0.516248       -14.0478
  47   2.0000      -0.510735       -13.8978
  48   2.0000      -0.497798       -13.5458
  49   2.0000      -0.491567       -13.3762
  50   2.0000      -0.487272       -13.2593
  51   2.0000      -0.479543       -13.0490
  52   2.0000      -0.474204       -12.9037
  53   2.0000      -0.464842       -12.6490
  54   2.0000      -0.460710       -12.5365
  55   2.0000      -0.444008       -12.0821
  56   2.0000      -0.439307       -11.9541
  57   2.0000      -0.436220       -11.8701
  58   2.0000      -0.430769       -11.7218
  59   2.0000      -0.430019       -11.7014
  60   2.0000      -0.419711       -11.4209
  61   2.0000      -0.417750       -11.3676
  62   2.0000      -0.407165       -11.0795
  63   2.0000      -0.335893        -9.1401
  64   2.0000      -0.329576        -8.9682
  65   2.0000      -0.328134        -8.9290
  66   2.0000      -0.297217        -8.0877
  67   0.0000       0.033969         0.9243
  68   0.0000       0.059006         1.6056
  69   0.0000       0.108962         2.9650
  70   0.0000       0.117396         3.1945
  71   0.0000       0.121830         3.3152

MULLIKEN ATOMIC CHARGES
-----------------------
   0 S :    0.103523
   1 C :   -0.126277
   2 C :   -0.079281
   3 C :   -0.024351
   4 C :   -0.147817
   5 H :    0.034266
   6 C :    0.088853
   7 H :    0.027555
   8 H :    0.023409
   9 C :   -0.071060
  10 H :    0.020468
  11 H :    0.040696
  12 C :   -0.059657
  13 H :    0.047002
  14 H :    0.022746
  15 H :    0.043325
  16 S :    0.112419
  17 C :   -0.079937
  18 C :   -0.027313
  19 C :   -0.054547
  20 C :   -0.153998
  21 H :    0.021474
  22 C :    0.069120
  23 H :    0.033069
  24 H :    0.032608
  25 C :   -0.093153
  26 H :    0.040984
  27 H :    0.025202
  28 C :   -0.029732
  29 H :    0.032995
  30 H :    0.028541
  31 H :    0.015588
  32 H :    0.035982
  33 H :    0.047296
Sum of atomic charges:   -0.0000000

LOEWDIN ATOMIC CHARGES
----------------------
   0 S :    0.393561
   1 C :   -0.177200
   2 C :   -0.067614
   3 C :   -0.066377
   4 C :   -0.200118
   5 H :    0.036097
   6 C :   -0.032935
   7 H :    0.035153
   8 H :    0.032439
   9 C :   -0.036479
  10 H :    0.018456
  11 H :    0.036217
  12 C :   -0.075639
  13 H :    0.032229
  14 H :    0.027147
  15 H :    0.029257
  16 S :    0.442903
  17 C :   -0.192225
  18 C :   -0.075290
  19 C :   -0.047156
  20 C :   -0.224740
  21 H :    0.029490
  22 C :   -0.033293
  23 H :    0.028319
  24 H :    0.035925
  25 C :   -0.039738
  26 H :    0.029430
  27 H :    0.020067
  28 C :   -0.058843
  29 H :    0.018535
  30 H :    0.030075
  31 H :    0.014958
  32 H :    0.018681
  33 H :    0.018709

  Mayer bond orders larger than 0.100000
B(  0-S ,  1-C ) :   1.1394 B(  0-S ,  4-C ) :   1.1473 B(  1-C ,  2-C ) :   1.6196
B(  1-C , 32-H ) :   0.9658 B(  2-C ,  3-C ) :   1.2353 B(  2-C ,  6-C ) :   1.0114
B(  3-C ,  4-C ) :   1.5920 B(  3-C ,  5-H ) :   0.9823 B(  4-C , 20-C ) :   1.0259
B(  6-C ,  7-H ) :   0.9414 B(  6-C ,  8-H ) :   0.9314 B(  6-C ,  9-C ) :   1.0761
B(  9-C , 10-H ) :   0.9546 B(  9-C , 11-H ) :   0.9543 B(  9-C , 12-C ) :   1.0682
B( 12-C , 13-H ) :   0.9750 B( 12-C , 14-H ) :   0.9716 B( 12-C , 15-H ) :   0.9774
B( 16-S , 17-C ) :   1.1926 B( 16-S , 20-C ) :   1.1705 B( 17-C , 18-C ) :   1.5353
B( 17-C , 20-C ) :   0.1033 B( 17-C , 33-H ) :   0.9804 B( 18-C , 19-C ) :   1.3085
B( 18-C , 21-H ) :   0.9867 B( 19-C , 20-C ) :   1.5231 B( 19-C , 22-C ) :   1.0257
B( 22-C , 23-H ) :   0.9421 B( 22-C , 24-H ) :   0.9415 B( 22-C , 25-C ) :   1.0762
B( 25-C , 26-H ) :   0.9549 B( 25-C , 27-H ) :   0.9600 B( 25-C , 28-C ) :   1.0660
B( 28-C , 29-H ) :   0.9735 B( 28-C , 30-H ) :   0.9748 B( 28-C , 31-H ) :   0.9778

Dispersion correction           -0.014971995
FINAL SINGLE POINT ENERGY     -1339.872346827136

DIPOLE MOMENT
-------------
                                X             Y             Z
Electronic contribution:      6.67207      12.87027       5.69548
Nuclear contribution   :     -7.02996     -13.20399      -5.71565
                        -----------------------------------------
Total Dipole Moment    :     -0.35789      -0.33372      -0.02017
                        -----------------------------------------
Magnitude (a.u.)       :      0.48976
Magnitude (Debye)      :      1.24487

Rotational constants in cm-1:     0.021641     0.008013     0.007224
Rotational constants in MHz :   648.785532   240.224842   216.568090

                             ****ORCA TERMINATED NORMALLY****
TOTAL RUN TIME: 0 days 0 hours 0 minutes 30 seconds 162 msec
