                         Program Version 4.2.1 -  RELEASE  -
|  1> ! wB97X-D3 SP def2-SVP
|  2> %pal
|  3> nprocs 16
|  4> end
|  5>
|  6> * xyz 0 1
|  7> S 	 11.4159 	 22.2534 	 35.0062
|  8> C 	 12.0469 	 20.6685 	 34.7768
|  9> C 	 11.3601 	 19.8143 	 35.5916
| 10> C 	 10.3793 	 20.4881 	 36.4588
| 11> C 	 10.4923 	 21.8753 	 36.4443
| 12> H 	 9.84334 	 20.0118 	 37.2703
| 13> C 	 11.3061 	 18.2829 	 35.4312
| 14> H 	 11.2285 	 18.1777 	 34.3773
| 15> H 	 10.3571 	 17.9239 	 35.8253
| 16> C 	 12.4921 	 17.5376 	 36.087
| 17> H 	 13.4725 	 17.796 	 35.5957
| 18> H 	 12.6243 	 17.7657 	 37.157
| 19> C 	 12.3512 	 16.0176 	 35.8812
| 20> H 	 13.2664 	 15.6601 	 36.2107
| 21> H 	 11.5519 	 15.535 	 36.4286
| 22> H 	 12.2972 	 15.8011 	 34.8417
| 23> S 	 9.07171 	 24.2381 	 36.3926
| 24> C 	 8.44721 	 24.7803 	 37.8945
| 25> C 	 9.02266 	 24.1193 	 38.9683
| 26> C 	 9.82078 	 22.9942 	 38.583
| 27> C 	 9.73011 	 22.8109 	 37.2409
| 28> H 	 9.05191 	 24.4869 	 39.9302
| 29> C 	 10.4356 	 22.0914 	 39.5702
| 30> H 	 10.6788 	 21.1413 	 39.0135
| 31> H 	 9.74401 	 21.7706 	 40.3473
| 32> C 	 11.7202 	 22.6876 	 40.2193
| 33> H 	 11.527 	 23.6644 	 40.7585
| 34> H 	 12.3995 	 22.957 	 39.4367
| 35> C 	 12.5831 	 21.7548 	 41.1905
| 36> H 	 13.355 	 22.271 	 41.6482
| 37> H 	 13.1753 	 20.9593 	 40.6614
| 38> H 	 11.9247 	 21.4727 	 42.028
| 39> H 	 12.6046 	 20.3846 	 33.9332
| 40> H 	 7.94817 	 25.7717 	 37.9515
| 41> *
| 42>
| 43>                          ****END OF INPUT****

CARTESIAN COORDINATES (ANGSTROEM)
---------------------------------
  S     11.415900   22.253400   35.006200
  C     12.046900   20.668500   34.776800
  C     11.360100   19.814300   35.591600
  C     10.379300   20.488100   36.458800
  C     10.492300   21.875300   36.444300
  H      9.843340   20.011800   37.270300
  C     11.306100   18.282900   35.431200
  H     11.228500   18.177700   34.377300
  H     10.357100   17.923900   35.825300
  C     12.492100   17.537600   36.087000
  H     13.472500   17.796000   35.595700
  H     12.624300   17.765700   37.157000
  C     12.351200   16.017600   35.881200
  H     13.266400   15.660100   36.210700
  H     11.551900   15.535000   36.428600
  H     12.297200   15.801100   34.841700
  S      9.071710   24.238100   36.392600
  C      8.447210   24.780300   37.894500
  C      9.022660   24.119300   38.968300
  C      9.820780   22.994200   38.583000
  C      9.730110   22.810900   37.240900
  H      9.051910   24.486900   39.930200
  C     10.435600   22.091400   39.570200
  H     10.678800   21.141300   39.013500
  H      9.744010   21.770600   40.347300
  C     11.720200   22.687600   40.219300
  H     11.527000   23.664400   40.758500
  H     12.399500   22.957000   39.436700
  C     12.583100   21.754800   41.190500
  H     13.355000   22.271000   41.648200
  H     13.175300   20.959300   40.661400
  H     11.924700   21.472700   42.028000
  H     12.604600   20.384600   33.933200
  H      7.948170   25.771700   37.951500

 Total Charge           Charge          ....    0
 Multiplicity           Mult            ....    1
 Number of Electrons    NEL             ....  134
 Basis Dimension        Dim             ....  322

ORBITAL ENERGIES
----------------

  NO   OCC          E(Eh)            E(eV)
   0   2.0000     -88.966014     -2420.8883
   1   2.0000     -88.959572     -2420.7130
   2   2.0000     -10.327637      -281.0293
   3   2.0000     -10.325267      -280.9648
   4   2.0000     -10.320510      -280.8353
   5   2.0000     -10.306017      -280.4410
   6   2.0000     -10.301185      -280.3095
   7   2.0000     -10.299525      -280.2643
   8   2.0000     -10.295741      -280.1614
   9   2.0000     -10.294462      -280.1265
  10   2.0000     -10.292393      -280.0702
  11   2.0000     -10.291454      -280.0447
  12   2.0000     -10.289283      -279.9856
  13   2.0000     -10.288311      -279.9592
  14   2.0000     -10.281445      -279.7723
  15   2.0000     -10.267268      -279.3866
  16   2.0000      -8.081308      -219.9036
  17   2.0000      -8.074971      -219.7311
  18   2.0000      -6.039696      -164.3485
  19   2.0000      -6.036138      -164.2517
  20   2.0000      -6.033555      -164.1814
  21   2.0000      -6.031758      -164.1325
  22   2.0000      -6.029417      -164.0688
  23   2.0000      -6.025566      -163.9640
  24   2.0000      -1.011266       -27.5180
  25   2.0000      -0.987510       -26.8715
  26   2.0000      -0.908056       -24.7095
  27   2.0000      -0.906792       -24.6751
  28   2.0000      -0.873271       -23.7629
  29   2.0000      -0.851948       -23.1827
  30   2.0000      -0.842275       -22.9195
  31   2.0000      -0.813913       -22.1477
  32   2.0000      -0.786354       -21.3978
  33   2.0000      -0.771859       -21.0034
  34   2.0000      -0.705862       -19.2075
  35   2.0000      -0.699620       -19.0376
  36   2.0000      -0.694918       -18.9097
  37   2.0000      -0.667702       -18.1691
  38   2.0000      -0.643706       -17.5161
  39   2.0000      -0.613236       -16.6870
  40   2.0000      -0.600457       -16.3393
  41   2.0000      -0.567062       -15.4305
  42   2.0000      -0.562369       -15.3028
  43   2.0000      -0.555404       -15.1133
  44   2.0000      -0.529814       -14.4170
  45   2.0000      -0.523439       -14.2435
  46   2.0000      -0.520265       -14.1571
  47   2.0000      -0.511694       -13.9239
  48   2.0000      -0.506322       -13.7777
  49   2.0000      -0.500805       -13.6276
  50   2.0000      -0.492535       -13.4026
  51   2.0000      -0.486302       -13.2330
  52   2.0000      -0.472946       -12.8695
  53   2.0000      -0.462944       -12.5973
  54   2.0000      -0.458842       -12.4857
  55   2.0000      -0.456567       -12.4238
  56   2.0000      -0.446752       -12.1567
  57   2.0000      -0.437523       -11.9056
  58   2.0000      -0.428530       -11.6609
  59   2.0000      -0.422487       -11.4965
  60   2.0000      -0.418404       -11.3854
  61   2.0000      -0.415738       -11.3128
  62   2.0000      -0.405335       -11.0297
  63   2.0000      -0.353109        -9.6086
  64   2.0000      -0.330876        -9.0036
  65   2.0000      -0.319852        -8.7036
  66   2.0000      -0.292287        -7.9535
  67   0.0000       0.025712         0.6996
  68   0.0000       0.066025         1.7966
  69   0.0000       0.103068         2.8046
  70   0.0000       0.115104         3.1321
  71   0.0000       0.128899         3.5075

MULLIKEN ATOMIC CHARGES
-----------------------
   0 S :    0.086834
   1 C :   -0.084406
   2 C :   -0.115165
   3 C :    0.018976
   4 C :   -0.145170
   5 H :    0.025187
   6 C :    0.077609
   7 H :    0.020687
   8 H :    0.017633
   9 C :   -0.110212
  10 H :    0.030995
  11 H :    0.036111
  12 C :    0.007745
  13 H :    0.010567
  14 H :    0.034068
  15 H :    0.018110
  16 S :    0.097690
  17 C :   -0.084590
  18 C :    0.008751
  19 C :   -0.036755
  20 C :   -0.156353
  21 H :   -0.010974
  22 C :    0.081177
  23 H :    0.021137
  24 H :    0.033424
  25 C :   -0.122096
  26 H :    0.037103
  27 H :    0.031244
  28 C :   -0.032510
  29 H :    0.012815
  30 H :    0.046101
  31 H :    0.035099
  32 H :    0.035748
  33 H :    0.073421
Sum of atomic charges:   -0.0000000

LOEWDIN ATOMIC CHARGES
----------------------
   0 S :    0.404504
   1 C :   -0.202704
   2 C :   -0.061876
   3 C :   -0.073636
   4 C :   -0.189811
   5 H :    0.025942
   6 C :   -0.029353
   7 H :    0.026471
   8 H :    0.029075
   9 C :   -0.038130
  10 H :    0.028103
  11 H :    0.025879
  12 C :   -0.056792
  13 H :    0.017632
  14 H :    0.023308
  15 H :    0.020992
  16 S :    0.400565
  17 C :   -0.189719
  18 C :   -0.058990
  19 C :   -0.046508
  20 C :   -0.183243
  21 H :    0.016908
  22 C :   -0.036119
  23 H :    0.037935
  24 H :    0.031805
  25 C :   -0.040332
  26 H :    0.027624
  27 H :    0.022831
  28 C :   -0.069109
  29 H :    0.016350
  30 H :    0.034925
  31 H :    0.027675
  32 H :    0.022003
  33 H :    0.035793

  Mayer bond orders larger than 0.100000
B(  0-S ,  1-C ) :   1.1329 B(  0-S ,  4-C ) :   1.1479 B(  1-C ,  2-C ) :   1.6142
B(  1-C , 32-H ) :   0.9771 B(  2-C ,  3-C ) :   1.2471 B(  2-C ,  6-C ) :   1.0086
B(  3-C ,  4-C ) :   1.5615 B(  3-C ,  5-H ) :   0.9821 B(  4-C , 20-C ) :   1.0649
B(  6-C ,  7-H ) :   0.9437 B(  6-C ,  8-H ) :   0.9499 B(  6-C ,  9-C ) :   1.0595
B(  9-C , 10-H ) :   0.9581 B(  9-C , 11-H ) :   0.9590 B(  9-C , 12-C ) :   1.0817
B( 12-C , 13-H ) :   0.9726 B( 12-C , 14-H ) :   0.9762 B( 12-C , 15-H ) :   0.9733
B( 16-S , 17-C ) :   1.1619 B( 16-S , 20-C ) :   1.1226 B( 17-C , 18-C ) :   1.6008
B( 17-C , 33-H ) :   0.9612 B( 18-C , 19-C ) :   1.2331 B( 18-C , 21-H ) :   1.0000
B( 19-C , 20-C ) :   1.6072 B( 19-C , 22-C ) :   1.0543 B( 22-C , 23-H ) :   0.9250
B( 22-C , 24-H ) :   0.9366 B( 22-C , 25-C ) :   1.0435 B( 25-C , 26-H ) :   0.9610
B( 25-C , 27-H ) :   0.9567 B( 25-C , 28-C ) :   1.0834 B( 28-C , 29-H ) :   0.9726
B( 28-C , 30-H ) :   0.9754 B( 28-C , 31-H ) :   0.9751

Dispersion correction           -0.013550766
FINAL SINGLE POINT ENERGY     -1339.852401724020

DIPOLE MOMENT
-------------
                                X             Y             Z
Electronic contribution:    -12.44020      23.60611     -15.26600
Nuclear contribution   :     12.64290     -23.93649      15.72282
                        -----------------------------------------
Total Dipole Moment    :      0.20270      -0.33038       0.45682
                        -----------------------------------------
Magnitude (a.u.)       :      0.59910
Magnitude (Debye)      :      1.52279

Rotational constants in cm-1:     0.018222     0.008281     0.006339
Rotational constants in MHz :   546.277924   248.250171   190.052816

                             ****ORCA TERMINATED NORMALLY****
TOTAL RUN TIME: 0 days 0 hours 0 minutes 32 seconds 261 msec
