                         Program Version 4.2.1 -  RELEASE  -
|  1> ! wB97X-D3 SP def2-SVP
|  2> %pal
|  3> nprocs 16
|  4> end
|  5>
|  6> * xyz 0 1
|  7> S 	 -26.325 	 55.9814 	 108.74
|  8> C 	 -25.8922 	 55.692 	 110.411
|  9> C 	 -26.5 	 56.5605 	 111.283
| 10> C 	 -27.3026 	 57.5289 	 110.597
| 11> C 	 -27.4929 	 57.1987 	 109.263
| 12> H 	 -27.9348 	 58.3254 	 111.067
| 13> C 	 -26.4328 	 56.6301 	 112.769
| 14> H 	 -25.8512 	 55.7007 	 112.948
| 15> H 	 -27.4898 	 56.6074 	 113.042
| 16> C 	 -25.7758 	 57.8781 	 113.41
| 17> H 	 -26.4362 	 58.7372 	 113.154
| 18> H 	 -25.6148 	 57.7338 	 114.453
| 19> C 	 -24.3869 	 58.2974 	 112.806
| 20> H 	 -24.1016 	 59.2159 	 113.292
| 21> H 	 -23.656 	 57.5499 	 113.13
| 22> H 	 -24.4167 	 58.4588 	 111.735
| 23> S 	 -27.1665 	 58.6079 	 107.027
| 24> C 	 -28.4712 	 59.4588 	 106.334
| 25> C 	 -29.634 	 59.4065 	 107.073
| 26> C 	 -29.4823 	 58.5004 	 108.203
| 27> C 	 -28.1843 	 58.042 	 108.324
| 28> H 	 -30.5415 	 59.9537 	 106.837
| 29> C 	 -30.5955 	 58.2094 	 109.175
| 30> H 	 -30.264 	 57.5533 	 109.988
| 31> H 	 -31.3504 	 57.6069 	 108.725
| 32> C 	 -31.435 	 59.4748 	 109.614
| 33> H 	 -32.2823 	 59.0351 	 110.231
| 34> H 	 -31.9043 	 59.8818 	 108.745
| 35> C 	 -30.7073 	 60.4855 	 110.548
| 36> H 	 -31.4993 	 60.8948 	 111.131
| 37> H 	 -30.1497 	 61.2172 	 109.975
| 38> H 	 -30.0718 	 59.8882 	 111.153
| 39> H 	 -25.2291 	 54.9126 	 110.828
| 40> H 	 -28.3767 	 60.1321 	 105.5
| 41> *
| 42>
| 43>                          ****END OF INPUT****

CARTESIAN COORDINATES (ANGSTROEM)
---------------------------------
  S    -26.325000   55.981400  108.740000
  C    -25.892200   55.692000  110.411000
  C    -26.500000   56.560500  111.283000
  C    -27.302600   57.528900  110.597000
  C    -27.492900   57.198700  109.263000
  H    -27.934800   58.325400  111.067000
  C    -26.432800   56.630100  112.769000
  H    -25.851200   55.700700  112.948000
  H    -27.489800   56.607400  113.042000
  C    -25.775800   57.878100  113.410000
  H    -26.436200   58.737200  113.154000
  H    -25.614800   57.733800  114.453000
  C    -24.386900   58.297400  112.806000
  H    -24.101600   59.215900  113.292000
  H    -23.656000   57.549900  113.130000
  H    -24.416700   58.458800  111.735000
  S    -27.166500   58.607900  107.027000
  C    -28.471200   59.458800  106.334000
  C    -29.634000   59.406500  107.073000
  C    -29.482300   58.500400  108.203000
  C    -28.184300   58.042000  108.324000
  H    -30.541500   59.953700  106.837000
  C    -30.595500   58.209400  109.175000
  H    -30.264000   57.553300  109.988000
  H    -31.350400   57.606900  108.725000
  C    -31.435000   59.474800  109.614000
  H    -32.282300   59.035100  110.231000
  H    -31.904300   59.881800  108.745000
  C    -30.707300   60.485500  110.548000
  H    -31.499300   60.894800  111.131000
  H    -30.149700   61.217200  109.975000
  H    -30.071800   59.888200  111.153000
  H    -25.229100   54.912600  110.828000
  H    -28.376700   60.132100  105.500000

 Total Charge           Charge          ....    0
 Multiplicity           Mult            ....    1
 Number of Electrons    NEL             ....  134
 Basis Dimension        Dim             ....  322

ORBITAL ENERGIES
----------------

  NO   OCC          E(Eh)            E(eV)
   0   2.0000     -88.968674     -2420.9607
   1   2.0000     -88.962826     -2420.8016
   2   2.0000     -10.327833      -281.0346
   3   2.0000     -10.320098      -280.8242
   4   2.0000     -10.314446      -280.6703
   5   2.0000     -10.312061      -280.6054
   6   2.0000     -10.303150      -280.3630
   7   2.0000     -10.295951      -280.1671
   8   2.0000     -10.294969      -280.1403
   9   2.0000     -10.294702      -280.1331
  10   2.0000     -10.293221      -280.0928
  11   2.0000     -10.292863      -280.0830
  12   2.0000     -10.291485      -280.0455
  13   2.0000     -10.288798      -279.9724
  14   2.0000     -10.274940      -279.5953
  15   2.0000     -10.274183      -279.5747
  16   2.0000      -8.083018      -219.9501
  17   2.0000      -8.078824      -219.8360
  18   2.0000      -6.041593      -164.4001
  19   2.0000      -6.037782      -164.2964
  20   2.0000      -6.037266      -164.2823
  21   2.0000      -6.033508      -164.1801
  22   2.0000      -6.033164      -164.1707
  23   2.0000      -6.029552      -164.0724
  24   2.0000      -1.010315       -27.4921
  25   2.0000      -0.985261       -26.8103
  26   2.0000      -0.911912       -24.8144
  27   2.0000      -0.905407       -24.6374
  28   2.0000      -0.869935       -23.6721
  29   2.0000      -0.851096       -23.1595
  30   2.0000      -0.844346       -22.9758
  31   2.0000      -0.812984       -22.1224
  32   2.0000      -0.785557       -21.3761
  33   2.0000      -0.774854       -21.0848
  34   2.0000      -0.709509       -19.3067
  35   2.0000      -0.696531       -18.9536
  36   2.0000      -0.695218       -18.9178
  37   2.0000      -0.657418       -17.8893
  38   2.0000      -0.631036       -17.1714
  39   2.0000      -0.617267       -16.7967
  40   2.0000      -0.599043       -16.3008
  41   2.0000      -0.561454       -15.2779
  42   2.0000      -0.554979       -15.1017
  43   2.0000      -0.548755       -14.9324
  44   2.0000      -0.545200       -14.8356
  45   2.0000      -0.543519       -14.7899
  46   2.0000      -0.520094       -14.1525
  47   2.0000      -0.510415       -13.8891
  48   2.0000      -0.502119       -13.6634
  49   2.0000      -0.497550       -13.5390
  50   2.0000      -0.490654       -13.3514
  51   2.0000      -0.478020       -13.0076
  52   2.0000      -0.468146       -12.7389
  53   2.0000      -0.465298       -12.6614
  54   2.0000      -0.462892       -12.5959
  55   2.0000      -0.454129       -12.3575
  56   2.0000      -0.443694       -12.0735
  57   2.0000      -0.437454       -11.9037
  58   2.0000      -0.430193       -11.7061
  59   2.0000      -0.427031       -11.6201
  60   2.0000      -0.418478       -11.3874
  61   2.0000      -0.416934       -11.3453
  62   2.0000      -0.413286       -11.2461
  63   2.0000      -0.347768        -9.4632
  64   2.0000      -0.328629        -8.9425
  65   2.0000      -0.326844        -8.8939
  66   2.0000      -0.291305        -7.9268
  67   0.0000       0.034243         0.9318
  68   0.0000       0.069548         1.8925
  69   0.0000       0.107783         2.9329
  70   0.0000       0.116711         3.1759
  71   0.0000       0.125438         3.4133

MULLIKEN ATOMIC CHARGES
-----------------------
   0 S :    0.112026
   1 C :   -0.120166
   2 C :   -0.118256
   3 C :   -0.002974
   4 C :   -0.146490
   5 H :    0.034346
   6 C :    0.097635
   7 H :    0.013326
   8 H :    0.042360
   9 C :   -0.090803
  10 H :    0.035140
  11 H :    0.038969
  12 C :   -0.056749
  13 H :    0.028042
  14 H :    0.029549
  15 H :    0.052879
  16 S :    0.110022
  17 C :   -0.071183
  18 C :   -0.046573
  19 C :   -0.023464
  20 C :   -0.169614
  21 H :    0.020665
  22 C :    0.069094
  23 H :    0.020100
  24 H :    0.022313
  25 C :   -0.144690
  26 H :    0.032800
  27 H :    0.027548
  28 C :    0.013844
  29 H :    0.031447
  30 H :    0.044668
  31 H :    0.015476
  32 H :    0.048600
  33 H :    0.050112
Sum of atomic charges:   -0.0000000

LOEWDIN ATOMIC CHARGES
----------------------
   0 S :    0.396216
   1 C :   -0.207891
   2 C :   -0.069456
   3 C :   -0.064505
   4 C :   -0.189994
   5 H :    0.036713
   6 C :   -0.035065
   7 H :    0.030952
   8 H :    0.037771
   9 C :   -0.036730
  10 H :    0.026574
  11 H :    0.023654
  12 C :   -0.062514
  13 H :    0.024097
  14 H :    0.023623
  15 H :    0.027233
  16 S :    0.422683
  17 C :   -0.194081
  18 C :   -0.072102
  19 C :   -0.055646
  20 C :   -0.202181
  21 H :    0.031186
  22 C :   -0.037425
  23 H :    0.029107
  24 H :    0.031552
  25 C :   -0.036845
  26 H :    0.029894
  27 H :    0.014477
  28 C :   -0.055189
  29 H :    0.026070
  30 H :    0.027798
  31 H :    0.019177
  32 H :    0.034744
  33 H :    0.026104

  Mayer bond orders larger than 0.100000
B(  0-S ,  1-C ) :   1.1156 B(  0-S ,  4-C ) :   1.1400 B(  1-C ,  2-C ) :   1.6431
B(  1-C , 32-H ) :   0.9528 B(  2-C ,  3-C ) :   1.2143 B(  2-C ,  6-C ) :   1.0097
B(  3-C ,  4-C ) :   1.5891 B(  3-C ,  5-H ) :   0.9808 B(  4-C , 20-C ) :   1.0409
B(  6-C ,  7-H ) :   0.9331 B(  6-C ,  8-H ) :   0.9397 B(  6-C ,  9-C ) :   1.0670
B(  9-C , 10-H ) :   0.9536 B(  9-C , 11-H ) :   0.9601 B(  9-C , 12-C ) :   1.0828
B( 12-C , 13-H ) :   0.9747 B( 12-C , 14-H ) :   0.9783 B( 12-C , 15-H ) :   0.9725
B( 16-S , 17-C ) :   1.1618 B( 16-S , 20-C ) :   1.1367 B( 17-C , 18-C ) :   1.6215
B( 17-C , 33-H ) :   0.9653 B( 18-C , 19-C ) :   1.2173 B( 18-C , 21-H ) :   0.9892
B( 19-C , 20-C ) :   1.6206 B( 19-C , 22-C ) :   1.0540 B( 22-C , 23-H ) :   0.9368
B( 22-C , 24-H ) :   0.9228 B( 22-C , 25-C ) :   1.0771 B( 25-C , 26-H ) :   0.9605
B( 25-C , 27-H ) :   0.9545 B( 25-C , 28-C ) :   1.0549 B( 28-C , 29-H ) :   0.9761
B( 28-C , 30-H ) :   0.9771 B( 28-C , 31-H ) :   0.9762

Dispersion correction           -0.014810846
FINAL SINGLE POINT ENERGY     -1339.874899182915

DIPOLE MOMENT
-------------
                                X             Y             Z
Electronic contribution:      7.64225      -9.85755     -22.74516
Nuclear contribution   :     -8.00050      10.16628      23.26576
                        -----------------------------------------
Total Dipole Moment    :     -0.35825       0.30873       0.52060
                        -----------------------------------------
Magnitude (a.u.)       :      0.70333
Magnitude (Debye)      :      1.78773

Rotational constants in cm-1:     0.018349     0.009341     0.007332
Rotational constants in MHz :   550.077484   280.028054   219.814338

                             ****ORCA TERMINATED NORMALLY****
TOTAL RUN TIME: 0 days 0 hours 0 minutes 30 seconds 554 msec
