                         Program Version 4.2.1 -  RELEASE  -
|  1> ! wB97X-D3 SP def2-SVP
|  2> %pal
|  3> nprocs 16
|  4> end
|  5>
|  6> * xyz 0 1
|  7> S 	 40.0823 	 9.22423 	 77.6971
|  8> C 	 40.3192 	 8.5041 	 79.2677
|  9> C 	 39.4262 	 8.99301 	 80.1611
| 10> C 	 38.5299 	 9.92972 	 79.5641
| 11> C 	 38.9138 	 10.3471 	 78.3269
| 12> H 	 37.6654 	 10.3941 	 79.9747
| 13> C 	 39.3735 	 8.52022 	 81.593
| 14> H 	 39.7283 	 7.41921 	 81.7179
| 15> H 	 38.2779 	 8.60802 	 81.941
| 16> C 	 40.2947 	 9.29196 	 82.6102
| 17> H 	 40.119 	 10.4121 	 82.6471
| 18> H 	 40.0673 	 9.00475 	 83.607
| 19> C 	 41.7628 	 9.02732 	 82.3105
| 20> H 	 42.0642 	 7.97584 	 82.4477
| 21> H 	 42.0955 	 9.24123 	 81.2586
| 22> H 	 42.3585 	 9.73488 	 82.8466
| 23> S 	 39.375 	 12.3241 	 76.5859
| 24> C 	 38.0529 	 13.32 	 76.1095
| 25> C 	 36.8528 	 12.8313 	 76.4889
| 26> C 	 36.9303 	 11.5984 	 77.1958
| 27> C 	 38.266 	 11.3457 	 77.5309
| 28> H 	 35.9355 	 13.3411 	 76.1809
| 29> C 	 35.8058 	 10.689 	 77.6986
| 30> H 	 36.2498 	 9.78003 	 77.9796
| 31> H 	 35.0255 	 10.546 	 76.9269
| 32> C 	 35.0335 	 11.2401 	 78.8682
| 33> H 	 35.7337 	 11.6156 	 79.6133
| 34> H 	 34.5237 	 10.4463 	 79.3149
| 35> C 	 34.1022 	 12.3878 	 78.5866
| 36> H 	 34.6858 	 13.3893 	 78.491
| 37> H 	 33.2186 	 12.5098 	 79.1825
| 38> H 	 33.7264 	 12.347 	 77.5434
| 39> H 	 40.9484 	 7.66985 	 79.5654
| 40> H 	 38.028 	 14.2149 	 75.4334
| 41> *
| 42>
| 43>                          ****END OF INPUT****

CARTESIAN COORDINATES (ANGSTROEM)
---------------------------------
  S     40.082300    9.224230   77.697100
  C     40.319200    8.504100   79.267700
  C     39.426200    8.993010   80.161100
  C     38.529900    9.929720   79.564100
  C     38.913800   10.347100   78.326900
  H     37.665400   10.394100   79.974700
  C     39.373500    8.520220   81.593000
  H     39.728300    7.419210   81.717900
  H     38.277900    8.608020   81.941000
  C     40.294700    9.291960   82.610200
  H     40.119000   10.412100   82.647100
  H     40.067300    9.004750   83.607000
  C     41.762800    9.027320   82.310500
  H     42.064200    7.975840   82.447700
  H     42.095500    9.241230   81.258600
  H     42.358500    9.734880   82.846600
  S     39.375000   12.324100   76.585900
  C     38.052900   13.320000   76.109500
  C     36.852800   12.831300   76.488900
  C     36.930300   11.598400   77.195800
  C     38.266000   11.345700   77.530900
  H     35.935500   13.341100   76.180900
  C     35.805800   10.689000   77.698600
  H     36.249800    9.780030   77.979600
  H     35.025500   10.546000   76.926900
  C     35.033500   11.240100   78.868200
  H     35.733700   11.615600   79.613300
  H     34.523700   10.446300   79.314900
  C     34.102200   12.387800   78.586600
  H     34.685800   13.389300   78.491000
  H     33.218600   12.509800   79.182500
  H     33.726400   12.347000   77.543400
  H     40.948400    7.669850   79.565400
  H     38.028000   14.214900   75.433400

 Total Charge           Charge          ....    0
 Multiplicity           Mult            ....    1
 Number of Electrons    NEL             ....  134
 Basis Dimension        Dim             ....  322

ORBITAL ENERGIES
----------------

  NO   OCC          E(Eh)            E(eV)
   0   2.0000     -88.966195     -2420.8932
   1   2.0000     -88.964731     -2420.8534
   2   2.0000     -10.324250      -280.9371
   3   2.0000     -10.322979      -280.9026
   4   2.0000     -10.314246      -280.6649
   5   2.0000     -10.309395      -280.5329
   6   2.0000     -10.307736      -280.4877
   7   2.0000     -10.306564      -280.4559
   8   2.0000     -10.297239      -280.2021
   9   2.0000     -10.291289      -280.0402
  10   2.0000     -10.290932      -280.0305
  11   2.0000     -10.290369      -280.0152
  12   2.0000     -10.289086      -279.9803
  13   2.0000     -10.283358      -279.8244
  14   2.0000     -10.279468      -279.7185
  15   2.0000     -10.276160      -279.6285
  16   2.0000      -8.081454      -219.9075
  17   2.0000      -8.079809      -219.8628
  18   2.0000      -6.039845      -164.3525
  19   2.0000      -6.038398      -164.3132
  20   2.0000      -6.036061      -164.2496
  21   2.0000      -6.034396      -164.2043
  22   2.0000      -6.032117      -164.1423
  23   2.0000      -6.030317      -164.0933
  24   2.0000      -1.015498       -27.6331
  25   2.0000      -0.991393       -26.9772
  26   2.0000      -0.919382       -25.0177
  27   2.0000      -0.908575       -24.7236
  28   2.0000      -0.874148       -23.7868
  29   2.0000      -0.853006       -23.2115
  30   2.0000      -0.844727       -22.9862
  31   2.0000      -0.818756       -22.2795
  32   2.0000      -0.785552       -21.3759
  33   2.0000      -0.771978       -21.0066
  34   2.0000      -0.713617       -19.4185
  35   2.0000      -0.697631       -18.9835
  36   2.0000      -0.693134       -18.8611
  37   2.0000      -0.660341       -17.9688
  38   2.0000      -0.640221       -17.4213
  39   2.0000      -0.618700       -16.8357
  40   2.0000      -0.598902       -16.2970
  41   2.0000      -0.568503       -15.4698
  42   2.0000      -0.561058       -15.2672
  43   2.0000      -0.548977       -14.9384
  44   2.0000      -0.543496       -14.7893
  45   2.0000      -0.540567       -14.7096
  46   2.0000      -0.517400       -14.0792
  47   2.0000      -0.510888       -13.9020
  48   2.0000      -0.503834       -13.7100
  49   2.0000      -0.496348       -13.5063
  50   2.0000      -0.487062       -13.2536
  51   2.0000      -0.478629       -13.0242
  52   2.0000      -0.475230       -12.9317
  53   2.0000      -0.468955       -12.7609
  54   2.0000      -0.459367       -12.5000
  55   2.0000      -0.449231       -12.2242
  56   2.0000      -0.445912       -12.1339
  57   2.0000      -0.435887       -11.8611
  58   2.0000      -0.433248       -11.7893
  59   2.0000      -0.428055       -11.6480
  60   2.0000      -0.419372       -11.4117
  61   2.0000      -0.414779       -11.2867
  62   2.0000      -0.411316       -11.1925
  63   2.0000      -0.350160        -9.5283
  64   2.0000      -0.332773        -9.0552
  65   2.0000      -0.328789        -8.9468
  66   2.0000      -0.290846        -7.9143
  67   0.0000       0.029114         0.7922
  68   0.0000       0.070382         1.9152
  69   0.0000       0.107188         2.9167
  70   0.0000       0.116701         3.1756
  71   0.0000       0.135048         3.6748

MULLIKEN ATOMIC CHARGES
-----------------------
   0 S :    0.112091
   1 C :   -0.104581
   2 C :   -0.049080
   3 C :    0.013880
   4 C :   -0.115788
   5 H :   -0.017921
   6 C :   -0.015862
   7 H :    0.041748
   8 H :    0.041687
   9 C :   -0.040691
  10 H :    0.034380
  11 H :    0.023942
  12 C :   -0.072343
  13 H :    0.029257
  14 H :    0.038365
  15 H :    0.028352
  16 S :    0.115568
  17 C :   -0.076740
  18 C :   -0.059016
  19 C :   -0.025365
  20 C :   -0.196599
  21 H :    0.018750
  22 C :    0.088710
  23 H :    0.019458
  24 H :    0.031277
  25 C :   -0.045784
  26 H :    0.035775
  27 H :    0.017882
  28 C :   -0.075490
  29 H :    0.042534
  30 H :    0.041707
  31 H :    0.011724
  32 H :    0.044239
  33 H :    0.063934
Sum of atomic charges:   -0.0000000

LOEWDIN ATOMIC CHARGES
----------------------
   0 S :    0.405300
   1 C :   -0.197436
   2 C :   -0.070487
   3 C :   -0.059774
   4 C :   -0.199768
   5 H :    0.023827
   6 C :   -0.040017
   7 H :    0.038191
   8 H :    0.037123
   9 C :   -0.041118
  10 H :    0.030445
  11 H :    0.019076
  12 C :   -0.075318
  13 H :    0.023339
  14 H :    0.031029
  15 H :    0.024069
  16 S :    0.415650
  17 C :   -0.201706
  18 C :   -0.080085
  19 C :   -0.045418
  20 C :   -0.193352
  21 H :    0.032811
  22 C :   -0.020734
  23 H :    0.026134
  24 H :    0.035378
  25 C :   -0.042730
  26 H :    0.024508
  27 H :    0.018782
  28 C :   -0.075653
  29 H :    0.036665
  30 H :    0.025357
  31 H :    0.020688
  32 H :    0.032350
  33 H :    0.042872

  Mayer bond orders larger than 0.100000
B(  0-S ,  1-C ) :   1.1206 B(  0-S ,  4-C ) :   1.1411 B(  1-C ,  2-C ) :   1.6319
B(  1-C , 32-H ) :   0.9619 B(  2-C ,  3-C ) :   1.2162 B(  2-C ,  6-C ) :   1.0238
B(  3-C ,  4-C ) :   1.5818 B(  3-C ,  5-H ) :   1.0121 B(  4-C , 20-C ) :   1.0618
B(  6-C ,  7-H ) :   0.9465 B(  6-C ,  8-H ) :   0.9430 B(  6-C ,  9-C ) :   1.0592
B(  9-C , 10-H ) :   0.9562 B(  9-C , 11-H ) :   0.9558 B(  9-C , 12-C ) :   1.0758
B( 12-C , 13-H ) :   0.9746 B( 12-C , 14-H ) :   0.9698 B( 12-C , 15-H ) :   0.9713
B( 16-S , 17-C ) :   1.1450 B( 16-S , 20-C ) :   1.1376 B( 17-C , 18-C ) :   1.6464
B( 17-C , 33-H ) :   0.9551 B( 18-C , 19-C ) :   1.2234 B( 18-C , 21-H ) :   0.9833
B( 19-C , 20-C ) :   1.5726 B( 19-C , 22-C ) :   1.0579 B( 22-C , 23-H ) :   0.9213
B( 22-C , 24-H ) :   0.9310 B( 22-C , 25-C ) :   1.0842 B( 25-C , 26-H ) :   0.9437
B( 25-C , 27-H ) :   0.9540 B( 25-C , 28-C ) :   1.0760 B( 28-C , 29-H ) :   0.9698
B( 28-C , 30-H ) :   0.9729 B( 28-C , 31-H ) :   0.9719

Dispersion correction           -0.014855663
FINAL SINGLE POINT ENERGY     -1339.866830145494

DIPOLE MOMENT
-------------
                                X             Y             Z
Electronic contribution:     11.43979       2.26439     -20.26014
Nuclear contribution   :    -11.98072      -2.32991      20.63527
                        -----------------------------------------
Total Dipole Moment    :     -0.54093      -0.06551       0.37513
                        -----------------------------------------
Magnitude (a.u.)       :      0.66153
Magnitude (Debye)      :      1.68147

Rotational constants in cm-1:     0.020629     0.008480     0.006847
Rotational constants in MHz :   618.428776   254.215507   205.268481

                             ****ORCA TERMINATED NORMALLY****
TOTAL RUN TIME: 0 days 0 hours 0 minutes 31 seconds 67 msec
