                         Program Version 4.2.1 -  RELEASE  -
|  1> ! wB97X-D3 SP def2-SVP
|  2> %pal
|  3> nprocs 16
|  4> end
|  5>
|  6> * xyz 0 1
|  7> S 	 39.0791 	 8.08964 	 88.9978
|  8> C 	 40.2793 	 8.06766 	 87.6606
|  9> C 	 40.1221 	 6.97653 	 86.8843
| 10> C 	 39.0535 	 6.1653 	 87.344
| 11> C 	 38.3833 	 6.65808 	 88.4805
| 12> H 	 38.7231 	 5.29116 	 86.8428
| 13> C 	 41.0085 	 6.56185 	 85.7029
| 14> H 	 41.9358 	 7.10219 	 85.6928
| 15> H 	 40.5057 	 6.75767 	 84.7757
| 16> C 	 41.4756 	 5.08805 	 85.7072
| 17> H 	 40.5906 	 4.42756 	 85.6992
| 18> H 	 41.9639 	 4.86111 	 84.7371
| 19> C 	 42.3585 	 4.84051 	 86.9516
| 20> H 	 41.9208 	 5.16671 	 87.9562
| 21> H 	 42.8077 	 3.8151 	 87.0186
| 22> H 	 43.1764 	 5.53343 	 86.7556
| 23> S 	 35.6251 	 6.69948 	 88.3469
| 24> C 	 34.7318 	 5.94878 	 89.6281
| 25> C 	 35.5804 	 5.38502 	 90.5714
| 26> C 	 36.9744 	 5.72063 	 90.4252
| 27> C 	 37.1828 	 6.12091 	 89.0919
| 28> H 	 35.0441 	 5.0593 	 91.4793
| 29> C 	 37.9408 	 5.72275 	 91.5155
| 30> H 	 37.3711 	 5.78687 	 92.4197
| 31> H 	 38.6045 	 6.63066 	 91.3738
| 32> C 	 38.7171 	 4.3466 	 91.6647
| 33> H 	 39.2472 	 4.14283 	 90.7503
| 34> H 	 37.9614 	 3.60573 	 91.6933
| 35> C 	 39.5472 	 4.17554 	 92.8984
| 36> H 	 39.9784 	 3.15173 	 92.8047
| 37> H 	 38.9474 	 4.2665 	 93.7295
| 38> H 	 40.399 	 4.74293 	 92.7785
| 39> H 	 41.0763 	 8.79822 	 87.531
| 40> H 	 33.6876 	 5.75712 	 89.5809
| 41> *
| 42>
| 43>                          ****END OF INPUT****

CARTESIAN COORDINATES (ANGSTROEM)
---------------------------------
  S     39.079100    8.089640   88.997800
  C     40.279300    8.067660   87.660600
  C     40.122100    6.976530   86.884300
  C     39.053500    6.165300   87.344000
  C     38.383300    6.658080   88.480500
  H     38.723100    5.291160   86.842800
  C     41.008500    6.561850   85.702900
  H     41.935800    7.102190   85.692800
  H     40.505700    6.757670   84.775700
  C     41.475600    5.088050   85.707200
  H     40.590600    4.427560   85.699200
  H     41.963900    4.861110   84.737100
  C     42.358500    4.840510   86.951600
  H     41.920800    5.166710   87.956200
  H     42.807700    3.815100   87.018600
  H     43.176400    5.533430   86.755600
  S     35.625100    6.699480   88.346900
  C     34.731800    5.948780   89.628100
  C     35.580400    5.385020   90.571400
  C     36.974400    5.720630   90.425200
  C     37.182800    6.120910   89.091900
  H     35.044100    5.059300   91.479300
  C     37.940800    5.722750   91.515500
  H     37.371100    5.786870   92.419700
  H     38.604500    6.630660   91.373800
  C     38.717100    4.346600   91.664700
  H     39.247200    4.142830   90.750300
  H     37.961400    3.605730   91.693300
  C     39.547200    4.175540   92.898400
  H     39.978400    3.151730   92.804700
  H     38.947400    4.266500   93.729500
  H     40.399000    4.742930   92.778500
  H     41.076300    8.798220   87.531000
  H     33.687600    5.757120   89.580900

 Total Charge           Charge          ....    0
 Multiplicity           Mult            ....    1
 Number of Electrons    NEL             ....  134
 Basis Dimension        Dim             ....  322

ORBITAL ENERGIES
----------------

  NO   OCC          E(Eh)            E(eV)
   0   2.0000     -88.965117     -2420.8639
   1   2.0000     -88.962706     -2420.7983
   2   2.0000     -10.326186      -280.9898
   3   2.0000     -10.322398      -280.8867
   4   2.0000     -10.315349      -280.6949
   5   2.0000     -10.312648      -280.6214
   6   2.0000     -10.308343      -280.5043
   7   2.0000     -10.297790      -280.2171
   8   2.0000     -10.294685      -280.1326
   9   2.0000     -10.293131      -280.0903
  10   2.0000     -10.292192      -280.0648
  11   2.0000     -10.291241      -280.0389
  12   2.0000     -10.287955      -279.9495
  13   2.0000     -10.284607      -279.8584
  14   2.0000     -10.279172      -279.7105
  15   2.0000     -10.266681      -279.3706
  16   2.0000      -8.080406      -219.8790
  17   2.0000      -8.076843      -219.7821
  18   2.0000      -6.038857      -164.3257
  19   2.0000      -6.035450      -164.2329
  20   2.0000      -6.034673      -164.2118
  21   2.0000      -6.031515      -164.1259
  22   2.0000      -6.031356      -164.1216
  23   2.0000      -6.027439      -164.0150
  24   2.0000      -1.007643       -27.4194
  25   2.0000      -0.981852       -26.7176
  26   2.0000      -0.913983       -24.8707
  27   2.0000      -0.913010       -24.8443
  28   2.0000      -0.868771       -23.6405
  29   2.0000      -0.858559       -23.3626
  30   2.0000      -0.839135       -22.8340
  31   2.0000      -0.807500       -21.9732
  32   2.0000      -0.785560       -21.3762
  33   2.0000      -0.774867       -21.0852
  34   2.0000      -0.709598       -19.3091
  35   2.0000      -0.699166       -19.0253
  36   2.0000      -0.688564       -18.7368
  37   2.0000      -0.659093       -17.9348
  38   2.0000      -0.636080       -17.3086
  39   2.0000      -0.621701       -16.9173
  40   2.0000      -0.591544       -16.0967
  41   2.0000      -0.580363       -15.7925
  42   2.0000      -0.564161       -15.3516
  43   2.0000      -0.556962       -15.1557
  44   2.0000      -0.536169       -14.5899
  45   2.0000      -0.530338       -14.4312
  46   2.0000      -0.521777       -14.1983
  47   2.0000      -0.506982       -13.7957
  48   2.0000      -0.502041       -13.6612
  49   2.0000      -0.495400       -13.4805
  50   2.0000      -0.487738       -13.2720
  51   2.0000      -0.479481       -13.0474
  52   2.0000      -0.474665       -12.9163
  53   2.0000      -0.466098       -12.6832
  54   2.0000      -0.453845       -12.3497
  55   2.0000      -0.449381       -12.2283
  56   2.0000      -0.445292       -12.1170
  57   2.0000      -0.434178       -11.8146
  58   2.0000      -0.427984       -11.6460
  59   2.0000      -0.426640       -11.6095
  60   2.0000      -0.421394       -11.4667
  61   2.0000      -0.418685       -11.3930
  62   2.0000      -0.414171       -11.2702
  63   2.0000      -0.337592        -9.1864
  64   2.0000      -0.323578        -8.8050
  65   2.0000      -0.318795        -8.6749
  66   2.0000      -0.305136        -8.3032
  67   0.0000       0.036093         0.9821
  68   0.0000       0.054248         1.4762
  69   0.0000       0.099148         2.6980
  70   0.0000       0.117068         3.1856
  71   0.0000       0.130153         3.5417

MULLIKEN ATOMIC CHARGES
-----------------------
   0 S :    0.116988
   1 C :   -0.150753
   2 C :   -0.060269
   3 C :    0.036086
   4 C :   -0.169175
   5 H :   -0.006811
   6 C :    0.092276
   7 H :    0.008564
   8 H :    0.036900
   9 C :   -0.097230
  10 H :    0.028977
  11 H :    0.036630
  12 C :   -0.078876
  13 H :    0.064090
  14 H :    0.048178
  15 H :    0.018331
  16 S :    0.100759
  17 C :   -0.090601
  18 C :   -0.033420
  19 C :   -0.062186
  20 C :   -0.149864
  21 H :    0.027915
  22 C :    0.087244
  23 H :    0.009156
  24 H :    0.040965
  25 C :   -0.098965
  26 H :    0.024543
  27 H :    0.008384
  28 C :    0.045260
  29 H :    0.026895
  30 H :    0.023903
  31 H :    0.016480
  32 H :    0.043303
  33 H :    0.056323
Sum of atomic charges:   -0.0000000

LOEWDIN ATOMIC CHARGES
----------------------
   0 S :    0.426586
   1 C :   -0.186355
   2 C :   -0.065327
   3 C :   -0.059445
   4 C :   -0.226735
   5 H :    0.022906
   6 C :   -0.022439
   7 H :    0.023858
   8 H :    0.031455
   9 C :   -0.044075
  10 H :    0.017342
  11 H :    0.029462
  12 C :   -0.076811
  13 H :    0.039200
  14 H :    0.030164
  15 H :    0.022296
  16 S :    0.386912
  17 C :   -0.181649
  18 C :   -0.081608
  19 C :   -0.039820
  20 C :   -0.190574
  21 H :    0.033753
  22 C :   -0.035404
  23 H :    0.029560
  24 H :    0.032744
  25 C :   -0.029501
  26 H :    0.021572
  27 H :    0.016713
  28 C :   -0.049381
  29 H :    0.037935
  30 H :    0.016040
  31 H :    0.018095
  32 H :    0.028237
  33 H :    0.024296

  Mayer bond orders larger than 0.100000
B(  0-S ,  1-C ) :   1.1298 B(  0-S ,  4-C ) :   1.1794 B(  1-C ,  2-C ) :   1.6235
B(  1-C , 32-H ) :   0.9667 B(  2-C ,  3-C ) :   1.2428 B(  2-C ,  6-C ) :   1.0111
B(  3-C ,  4-C ) :   1.5507 B(  3-C ,  5-H ) :   1.0053 B(  4-C , 20-C ) :   1.0300
B(  6-C ,  7-H ) :   0.9474 B(  6-C ,  8-H ) :   0.9333 B(  6-C ,  9-C ) :   1.0775
B(  9-C , 10-H ) :   0.9525 B(  9-C , 11-H ) :   0.9562 B(  9-C , 12-C ) :   1.0552
B( 12-C , 13-H ) :   0.9731 B( 12-C , 14-H ) :   0.9752 B( 12-C , 15-H ) :   0.9746
B( 16-S , 17-C ) :   1.1628 B( 16-S , 20-C ) :   1.1330 B( 17-C , 18-C ) :   1.6421
B( 17-C , 20-C ) :   0.1019 B( 17-C , 33-H ) :   0.9632 B( 18-C , 19-C ) :   1.2188
B( 18-C , 21-H ) :   0.9742 B( 19-C , 20-C ) :   1.5713 B( 19-C , 22-C ) :   1.0722
B( 22-C , 23-H ) :   0.9188 B( 22-C , 24-H ) :   0.9227 B( 22-C , 25-C ) :   1.0548
B( 25-C , 26-H ) :   0.9571 B( 25-C , 27-H ) :   0.9551 B( 25-C , 28-C ) :   1.0952
B( 28-C , 29-H ) :   0.9657 B( 28-C , 30-H ) :   0.9733 B( 28-C , 31-H ) :   0.9708

Dispersion correction           -0.014392965
FINAL SINGLE POINT ENERGY     -1339.856605341348

DIPOLE MOMENT
-------------
                                X             Y             Z
Electronic contribution:    -19.44031      15.40345      -3.90710
Nuclear contribution   :     19.72513     -15.70217       4.02967
                        -----------------------------------------
Total Dipole Moment    :      0.28482      -0.29872       0.12257
                        -----------------------------------------
Magnitude (a.u.)       :      0.43056
Magnitude (Debye)      :      1.09439

Rotational constants in cm-1:     0.017489     0.009212     0.007335
Rotational constants in MHz :   524.303298   276.156096   219.902266

                             ****ORCA TERMINATED NORMALLY****
TOTAL RUN TIME: 0 days 0 hours 0 minutes 31 seconds 55 msec
