                         Program Version 4.2.1 -  RELEASE  -
|  1> ! wB97X-D3 SP def2-SVP
|  2> %pal
|  3> nprocs 16
|  4> end
|  5>
|  6> * xyz 0 1
|  7> S 	 42.8685 	 16.1717 	 85.1548
|  8> C 	 43.8531 	 15.3489 	 83.9421
|  9> C 	 43.2418 	 14.1933 	 83.4372
| 10> C 	 42.033 	 13.9394 	 84.1099
| 11> C 	 41.854 	 14.7227 	 85.3209
| 12> H 	 41.3125 	 13.1382 	 83.9039
| 13> C 	 43.598 	 13.2879 	 82.3528
| 14> H 	 43.9834 	 13.8014 	 81.4511
| 15> H 	 42.6752 	 12.7951 	 82.0704
| 16> C 	 44.6511 	 12.2629 	 82.7614
| 17> H 	 45.488 	 12.8062 	 83.0805
| 18> H 	 44.4104 	 11.5756 	 83.5601
| 19> C 	 45.0047 	 11.3959 	 81.6223
| 20> H 	 44.0384 	 10.9665 	 81.3717
| 21> H 	 45.3583 	 11.906 	 80.7233
| 22> H 	 45.6458 	 10.4937 	 81.8037
| 23> S 	 39.9199 	 16.2181 	 86.6541
| 24> C 	 38.7495 	 15.3756 	 87.5867
| 25> C 	 38.8857 	 14.0243 	 87.4098
| 26> C 	 39.9221 	 13.6474 	 86.5646
| 27> C 	 40.6672 	 14.7089 	 86.1359
| 28> H 	 38.2982 	 13.3248 	 88.013
| 29> C 	 40.228 	 12.1856 	 86.3648
| 30> H 	 40.1161 	 11.6217 	 87.2235
| 31> H 	 41.3016 	 12.0796 	 86.0783
| 32> C 	 39.374 	 11.6253 	 85.2863
| 33> H 	 39.4101 	 12.1797 	 84.3786
| 34> H 	 38.3168 	 11.6503 	 85.5935
| 35> C 	 39.728 	 10.1635 	 85.0447
| 36> H 	 39.204 	 9.74148 	 84.2192
| 37> H 	 39.6428 	 9.62268 	 85.9407
| 38> H 	 40.7638 	 10.0269 	 84.6783
| 39> H 	 44.7584 	 15.8041 	 83.6211
| 40> H 	 38.0247 	 15.8909 	 88.2285
| 41> *
| 42>
| 43>                          ****END OF INPUT****

CARTESIAN COORDINATES (ANGSTROEM)
---------------------------------
  S     42.868500   16.171700   85.154800
  C     43.853100   15.348900   83.942100
  C     43.241800   14.193300   83.437200
  C     42.033000   13.939400   84.109900
  C     41.854000   14.722700   85.320900
  H     41.312500   13.138200   83.903900
  C     43.598000   13.287900   82.352800
  H     43.983400   13.801400   81.451100
  H     42.675200   12.795100   82.070400
  C     44.651100   12.262900   82.761400
  H     45.488000   12.806200   83.080500
  H     44.410400   11.575600   83.560100
  C     45.004700   11.395900   81.622300
  H     44.038400   10.966500   81.371700
  H     45.358300   11.906000   80.723300
  H     45.645800   10.493700   81.803700
  S     39.919900   16.218100   86.654100
  C     38.749500   15.375600   87.586700
  C     38.885700   14.024300   87.409800
  C     39.922100   13.647400   86.564600
  C     40.667200   14.708900   86.135900
  H     38.298200   13.324800   88.013000
  C     40.228000   12.185600   86.364800
  H     40.116100   11.621700   87.223500
  H     41.301600   12.079600   86.078300
  C     39.374000   11.625300   85.286300
  H     39.410100   12.179700   84.378600
  H     38.316800   11.650300   85.593500
  C     39.728000   10.163500   85.044700
  H     39.204000    9.741480   84.219200
  H     39.642800    9.622680   85.940700
  H     40.763800   10.026900   84.678300
  H     44.758400   15.804100   83.621100
  H     38.024700   15.890900   88.228500

 Total Charge           Charge          ....    0
 Multiplicity           Mult            ....    1
 Number of Electrons    NEL             ....  134
 Basis Dimension        Dim             ....  322

ORBITAL ENERGIES
----------------

  NO   OCC          E(Eh)            E(eV)
   0   2.0000     -88.969288     -2420.9774
   1   2.0000     -88.962808     -2420.8011
   2   2.0000     -10.333735      -281.1952
   3   2.0000     -10.322246      -280.8826
   4   2.0000     -10.317408      -280.7510
   5   2.0000     -10.314308      -280.6666
   6   2.0000     -10.301309      -280.3129
   7   2.0000     -10.299812      -280.2721
   8   2.0000     -10.292575      -280.0752
   9   2.0000     -10.291573      -280.0479
  10   2.0000     -10.287785      -279.9449
  11   2.0000     -10.282838      -279.8102
  12   2.0000     -10.281100      -279.7630
  13   2.0000     -10.277696      -279.6703
  14   2.0000     -10.275950      -279.6228
  15   2.0000     -10.272114      -279.5184
  16   2.0000      -8.083169      -219.9542
  17   2.0000      -8.078278      -219.8211
  18   2.0000      -6.041652      -164.4017
  19   2.0000      -6.037970      -164.3015
  20   2.0000      -6.036766      -164.2687
  21   2.0000      -6.033849      -164.1894
  22   2.0000      -6.032674      -164.1574
  23   2.0000      -6.029043      -164.0586
  24   2.0000      -1.010449       -27.4957
  25   2.0000      -0.985566       -26.8186
  26   2.0000      -0.926474       -25.2106
  27   2.0000      -0.922734       -25.1089
  28   2.0000      -0.873714       -23.7750
  29   2.0000      -0.859308       -23.3830
  30   2.0000      -0.851268       -23.1642
  31   2.0000      -0.806738       -21.9524
  32   2.0000      -0.785038       -21.3620
  33   2.0000      -0.773073       -21.0364
  34   2.0000      -0.708722       -19.2853
  35   2.0000      -0.705100       -19.1868
  36   2.0000      -0.698875       -19.0174
  37   2.0000      -0.667685       -18.1686
  38   2.0000      -0.640077       -17.4174
  39   2.0000      -0.622007       -16.9257
  40   2.0000      -0.605385       -16.4734
  41   2.0000      -0.580139       -15.7864
  42   2.0000      -0.573721       -15.6118
  43   2.0000      -0.562270       -15.3002
  44   2.0000      -0.533085       -14.5060
  45   2.0000      -0.525149       -14.2900
  46   2.0000      -0.521211       -14.1829
  47   2.0000      -0.513607       -13.9760
  48   2.0000      -0.512332       -13.9413
  49   2.0000      -0.503875       -13.7111
  50   2.0000      -0.494059       -13.4440
  51   2.0000      -0.482041       -13.1170
  52   2.0000      -0.473270       -12.8783
  53   2.0000      -0.462293       -12.5796
  54   2.0000      -0.459609       -12.5066
  55   2.0000      -0.450849       -12.2682
  56   2.0000      -0.444498       -12.0954
  57   2.0000      -0.439179       -11.9507
  58   2.0000      -0.436114       -11.8673
  59   2.0000      -0.431326       -11.7370
  60   2.0000      -0.421528       -11.4703
  61   2.0000      -0.419477       -11.4146
  62   2.0000      -0.413592       -11.2544
  63   2.0000      -0.354105        -9.6357
  64   2.0000      -0.334584        -9.1045
  65   2.0000      -0.329231        -8.9588
  66   2.0000      -0.277763        -7.5583
  67   0.0000       0.012574         0.3421
  68   0.0000       0.074534         2.0282
  69   0.0000       0.098872         2.6904
  70   0.0000       0.124682         3.3928
  71   0.0000       0.129996         3.5374

MULLIKEN ATOMIC CHARGES
-----------------------
   0 S :    0.094959
   1 C :   -0.111799
   2 C :   -0.033633
   3 C :   -0.019044
   4 C :   -0.133281
   5 H :    0.012141
   6 C :    0.053565
   7 H :    0.029594
   8 H :    0.016444
   9 C :   -0.023509
  10 H :    0.009609
  11 H :    0.025258
  12 C :   -0.047864
  13 H :    0.008041
  14 H :    0.027018
  15 H :    0.042202
  16 S :    0.097547
  17 C :   -0.100172
  18 C :   -0.030046
  19 C :   -0.037576
  20 C :   -0.133177
  21 H :    0.018706
  22 C :    0.083909
  23 H :    0.000156
  24 H :    0.026827
  25 C :   -0.090341
  26 H :    0.025597
  27 H :    0.025422
  28 C :    0.004199
  29 H :    0.024392
  30 H :    0.020609
  31 H :    0.013767
  32 H :    0.036568
  33 H :    0.063915
Sum of atomic charges:    0.0000000

LOEWDIN ATOMIC CHARGES
----------------------
   0 S :    0.395580
   1 C :   -0.182589
   2 C :   -0.062886
   3 C :   -0.053340
   4 C :   -0.183936
   5 H :    0.029729
   6 C :   -0.027318
   7 H :    0.035419
   8 H :    0.029566
   9 C :   -0.035222
  10 H :    0.014770
  11 H :    0.027997
  12 C :   -0.070346
  13 H :    0.022786
  14 H :    0.021694
  15 H :    0.031336
  16 S :    0.404425
  17 C :   -0.193778
  18 C :   -0.074815
  19 C :   -0.060745
  20 C :   -0.194665
  21 H :    0.033092
  22 C :   -0.023877
  23 H :    0.019323
  24 H :    0.032750
  25 C :   -0.037492
  26 H :    0.016249
  27 H :    0.027020
  28 C :   -0.058798
  29 H :    0.022535
  30 H :    0.018536
  31 H :    0.025035
  32 H :    0.018043
  33 H :    0.033920

  Mayer bond orders larger than 0.100000
B(  0-S ,  1-C ) :   1.1536 B(  0-S ,  4-C ) :   1.1543 B(  1-C ,  2-C ) :   1.5362
B(  1-C ,  4-C ) :   0.1134 B(  1-C , 32-H ) :   0.9792 B(  2-C ,  3-C ) :   1.2988
B(  2-C ,  6-C ) :   1.0368 B(  3-C ,  4-C ) :   1.4858 B(  3-C ,  5-H ) :   0.9782
B(  4-C , 20-C ) :   1.1067 B(  6-C ,  7-H ) :   0.9337 B(  6-C ,  8-H ) :   0.9350
B(  6-C ,  9-C ) :   1.0641 B(  9-C , 10-H ) :   0.9518 B(  9-C , 11-H ) :   0.9511
B(  9-C , 12-C ) :   1.0876 B( 12-C , 13-H ) :   0.9685 B( 12-C , 14-H ) :   0.9713
B( 12-C , 15-H ) :   0.9731 B( 16-S , 17-C ) :   1.1613 B( 16-S , 20-C ) :   1.1247
B( 17-C , 18-C ) :   1.5844 B( 17-C , 33-H ) :   0.9678 B( 18-C , 19-C ) :   1.2671
B( 18-C , 21-H ) :   0.9893 B( 19-C , 20-C ) :   1.5913 B( 19-C , 22-C ) :   1.0439
B( 22-C , 23-H ) :   0.9318 B( 22-C , 24-H ) :   0.9324 B( 22-C , 25-C ) :   1.0623
B( 25-C , 26-H ) :   0.9492 B( 25-C , 27-H ) :   0.9475 B( 25-C , 28-C ) :   1.0921
B( 28-C , 29-H ) :   0.9712 B( 28-C , 30-H ) :   0.9705 B( 28-C , 31-H ) :   0.9697

Dispersion correction           -0.014093888
FINAL SINGLE POINT ENERGY     -1339.866526407939

DIPOLE MOMENT
-------------
                                X             Y             Z
Electronic contribution:     -4.88207      29.93021      14.27451
Nuclear contribution   :      4.82788     -30.57945     -14.52531
                        -----------------------------------------
Total Dipole Moment    :     -0.05419      -0.64923      -0.25080
                        -----------------------------------------
Magnitude (a.u.)       :      0.69810
Magnitude (Debye)      :      1.77443

Rotational constants in cm-1:     0.018321     0.009492     0.006467
Rotational constants in MHz :   549.243051   284.548827   193.876840

                             ****ORCA TERMINATED NORMALLY****
TOTAL RUN TIME: 0 days 0 hours 0 minutes 31 seconds 602 msec
