                         Program Version 4.2.1 -  RELEASE  -
|  1> ! wB97X-D3 SP def2-SVP
|  2> %pal
|  3> nprocs 16
|  4> end
|  5>
|  6> * xyz 0 1
|  7> S 	 -101.241 	 56.364 	 121.421
|  8> C 	 -100.154 	 56.8532 	 120.091
|  9> C 	 -100.59 	 57.9337 	 119.296
| 10> C 	 -101.879 	 58.3401 	 119.853
| 11> C 	 -102.215 	 57.7274 	 121.077
| 12> H 	 -102.547 	 59.171 	 119.483
| 13> C 	 -99.8602 	 58.3705 	 118.005
| 14> H 	 -99.0914 	 57.7518 	 117.778
| 15> H 	 -99.3119 	 59.3316 	 118.235
| 16> C 	 -100.814 	 58.5045 	 116.799
| 17> H 	 -101.614 	 59.2579 	 117.037
| 18> H 	 -100.287 	 58.8799 	 115.906
| 19> C 	 -101.336 	 57.1416 	 116.386
| 20> H 	 -101.975 	 57.0537 	 115.552
| 21> H 	 -100.427 	 56.5479 	 116.088
| 22> H 	 -101.881 	 56.7246 	 117.261
| 23> S 	 -104.432 	 56.8186 	 122.373
| 24> C 	 -105.236 	 57.9221 	 123.461
| 25> C 	 -104.704 	 59.205 	 123.489
| 26> C 	 -103.554 	 59.3429 	 122.556
| 27> C 	 -103.235 	 58.1322 	 121.992
| 28> H 	 -105.22 	 59.9946 	 123.99
| 29> C 	 -102.832 	 60.6736 	 122.461
| 30> H 	 -103.612 	 61.4892 	 122.304
| 31> H 	 -102.174 	 60.5732 	 121.64
| 32> C 	 -101.961 	 60.8388 	 123.716
| 33> H 	 -101.019 	 60.281 	 123.349
| 34> H 	 -102.393 	 60.3174 	 124.514
| 35> C 	 -101.86 	 62.3393 	 124.061
| 36> H 	 -101.519 	 62.9858 	 123.188
| 37> H 	 -101.18 	 62.5611 	 124.854
| 38> H 	 -102.88 	 62.6901 	 124.304
| 39> H 	 -99.2501 	 56.359 	 119.889
| 40> H 	 -106.151 	 57.6307 	 123.935
| 41> *
| 42>
| 43>                          ****END OF INPUT****

CARTESIAN COORDINATES (ANGSTROEM)
---------------------------------
  S    -101.241000   56.364000  121.421000
  C    -100.154000   56.853200  120.091000
  C    -100.590000   57.933700  119.296000
  C    -101.879000   58.340100  119.853000
  C    -102.215000   57.727400  121.077000
  H    -102.547000   59.171000  119.483000
  C    -99.860200   58.370500  118.005000
  H    -99.091400   57.751800  117.778000
  H    -99.311900   59.331600  118.235000
  C    -100.814000   58.504500  116.799000
  H    -101.614000   59.257900  117.037000
  H    -100.287000   58.879900  115.906000
  C    -101.336000   57.141600  116.386000
  H    -101.975000   57.053700  115.552000
  H    -100.427000   56.547900  116.088000
  H    -101.881000   56.724600  117.261000
  S    -104.432000   56.818600  122.373000
  C    -105.236000   57.922100  123.461000
  C    -104.704000   59.205000  123.489000
  C    -103.554000   59.342900  122.556000
  C    -103.235000   58.132200  121.992000
  H    -105.220000   59.994600  123.990000
  C    -102.832000   60.673600  122.461000
  H    -103.612000   61.489200  122.304000
  H    -102.174000   60.573200  121.640000
  C    -101.961000   60.838800  123.716000
  H    -101.019000   60.281000  123.349000
  H    -102.393000   60.317400  124.514000
  C    -101.860000   62.339300  124.061000
  H    -101.519000   62.985800  123.188000
  H    -101.180000   62.561100  124.854000
  H    -102.880000   62.690100  124.304000
  H    -99.250100   56.359000  119.889000
  H    -106.151000   57.630700  123.935000

 Total Charge           Charge          ....    0
 Multiplicity           Mult            ....    1
 Number of Electrons    NEL             ....  134
 Basis Dimension        Dim             ....  322

ORBITAL ENERGIES
----------------

  NO   OCC          E(Eh)            E(eV)
   0   2.0000     -88.968730     -2420.9622
   1   2.0000     -88.962171     -2420.7837
   2   2.0000     -10.325731      -280.9774
   3   2.0000     -10.325181      -280.9625
   4   2.0000     -10.318440      -280.7790
   5   2.0000     -10.313397      -280.6418
   6   2.0000     -10.312755      -280.6243
   7   2.0000     -10.308735      -280.5149
   8   2.0000     -10.303938      -280.3844
   9   2.0000     -10.297623      -280.2126
  10   2.0000     -10.297264      -280.2028
  11   2.0000     -10.292935      -280.0850
  12   2.0000     -10.291455      -280.0447
  13   2.0000     -10.287407      -279.9346
  14   2.0000     -10.284133      -279.8455
  15   2.0000     -10.275431      -279.6087
  16   2.0000      -8.083570      -219.9651
  17   2.0000      -8.076540      -219.7738
  18   2.0000      -6.041888      -164.4081
  19   2.0000      -6.038284      -164.3101
  20   2.0000      -6.035071      -164.2226
  21   2.0000      -6.034299      -164.2016
  22   2.0000      -6.031365      -164.1218
  23   2.0000      -6.027039      -164.0041
  24   2.0000      -1.002154       -27.2700
  25   2.0000      -0.974161       -26.5083
  26   2.0000      -0.915020       -24.8990
  27   2.0000      -0.911237       -24.7960
  28   2.0000      -0.866968       -23.5914
  29   2.0000      -0.847935       -23.0735
  30   2.0000      -0.838251       -22.8100
  31   2.0000      -0.808198       -21.9922
  32   2.0000      -0.785387       -21.3715
  33   2.0000      -0.771478       -20.9930
  34   2.0000      -0.706973       -19.2377
  35   2.0000      -0.695103       -18.9147
  36   2.0000      -0.688428       -18.7331
  37   2.0000      -0.662255       -18.0209
  38   2.0000      -0.642385       -17.4802
  39   2.0000      -0.615877       -16.7589
  40   2.0000      -0.597773       -16.2662
  41   2.0000      -0.568410       -15.4672
  42   2.0000      -0.558971       -15.2104
  43   2.0000      -0.555153       -15.1065
  44   2.0000      -0.542258       -14.7556
  45   2.0000      -0.521475       -14.1901
  46   2.0000      -0.514433       -13.9984
  47   2.0000      -0.509786       -13.8720
  48   2.0000      -0.504053       -13.7160
  49   2.0000      -0.491699       -13.3798
  50   2.0000      -0.489561       -13.3216
  51   2.0000      -0.468363       -12.7448
  52   2.0000      -0.463056       -12.6004
  53   2.0000      -0.460721       -12.5369
  54   2.0000      -0.457032       -12.4365
  55   2.0000      -0.451079       -12.2745
  56   2.0000      -0.447167       -12.1680
  57   2.0000      -0.441105       -12.0031
  58   2.0000      -0.434314       -11.8183
  59   2.0000      -0.425548       -11.5797
  60   2.0000      -0.423148       -11.5144
  61   2.0000      -0.416376       -11.3302
  62   2.0000      -0.414873       -11.2893
  63   2.0000      -0.341074        -9.2811
  64   2.0000      -0.332235        -9.0406
  65   2.0000      -0.326246        -8.8776
  66   2.0000      -0.288780        -7.8581
  67   0.0000       0.031785         0.8649
  68   0.0000       0.063420         1.7258
  69   0.0000       0.098951         2.6926
  70   0.0000       0.116506         3.1703
  71   0.0000       0.121459         3.3051

MULLIKEN ATOMIC CHARGES
-----------------------
   0 S :    0.126412
   1 C :   -0.098263
   2 C :   -0.123738
   3 C :    0.012767
   4 C :   -0.181543
   5 H :    0.037391
   6 C :    0.128321
   7 H :   -0.015305
   8 H :    0.045330
   9 C :   -0.099776
  10 H :    0.041981
  11 H :    0.031717
  12 C :   -0.056408
  13 H :    0.027813
  14 H :    0.028628
  15 H :    0.054117
  16 S :    0.081145
  17 C :   -0.073534
  18 C :   -0.030712
  19 C :   -0.069477
  20 C :   -0.156199
  21 H :    0.017392
  22 C :    0.077911
  23 H :    0.043673
  24 H :    0.007337
  25 C :   -0.063566
  26 H :    0.050704
  27 H :    0.031974
  28 C :   -0.060410
  29 H :    0.037641
  30 H :    0.035367
  31 H :    0.033696
  32 H :    0.024951
  33 H :    0.052663
Sum of atomic charges:    0.0000000

LOEWDIN ATOMIC CHARGES
----------------------
   0 S :    0.412778
   1 C :   -0.181123
   2 C :   -0.053966
   3 C :   -0.074277
   4 C :   -0.216001
   5 H :    0.037221
   6 C :   -0.019524
   7 H :    0.012932
   8 H :    0.042200
   9 C :   -0.045283
  10 H :    0.026265
  11 H :    0.026200
  12 C :   -0.067912
  13 H :    0.017449
  14 H :    0.031304
  15 H :    0.032948
  16 S :    0.363831
  17 C :   -0.170727
  18 C :   -0.070666
  19 C :   -0.041368
  20 C :   -0.184950
  21 H :    0.027739
  22 C :   -0.029398
  23 H :    0.036358
  24 H :    0.021562
  25 C :   -0.035638
  26 H :    0.041322
  27 H :    0.015368
  28 C :   -0.067565
  29 H :    0.031574
  30 H :    0.020103
  31 H :    0.027217
  32 H :    0.011297
  33 H :    0.022732

  Mayer bond orders larger than 0.100000
B(  0-S ,  1-C ) :   1.1354 B(  0-S ,  4-C ) :   1.1572 B(  1-C ,  2-C ) :   1.6195
B(  1-C , 32-H ) :   0.9705 B(  2-C ,  3-C ) :   1.2192 B(  2-C ,  6-C ) :   1.0144
B(  3-C ,  4-C ) :   1.5785 B(  3-C ,  5-H ) :   0.9781 B(  4-C , 20-C ) :   1.0424
B(  6-C ,  7-H ) :   0.9375 B(  6-C ,  8-H ) :   0.9325 B(  6-C ,  9-C ) :   1.0696
B(  9-C , 10-H ) :   0.9556 B(  9-C , 11-H ) :   0.9565 B(  9-C , 12-C ) :   1.0662
B( 12-C , 13-H ) :   0.9762 B( 12-C , 14-H ) :   0.9717 B( 12-C , 15-H ) :   0.9754
B( 16-S , 17-C ) :   1.1385 B( 16-S , 20-C ) :   1.1032 B( 17-C , 18-C ) :   1.6605
B( 17-C , 33-H ) :   0.9679 B( 18-C , 19-C ) :   1.1610 B( 18-C , 21-H ) :   0.9885
B( 19-C , 20-C ) :   1.6735 B( 19-C , 22-C ) :   1.0489 B( 22-C , 23-H ) :   0.9408
B( 22-C , 24-H ) :   0.9250 B( 22-C , 25-C ) :   1.0364 B( 25-C , 26-H ) :   0.9555
B( 25-C , 27-H ) :   0.9695 B( 25-C , 28-C ) :   1.0636 B( 28-C , 29-H ) :   0.9741
B( 28-C , 30-H ) :   0.9755 B( 28-C , 31-H ) :   0.9759

Dispersion correction           -0.014379970
FINAL SINGLE POINT ENERGY     -1339.859101870089

DIPOLE MOMENT
-------------
                                X             Y             Z
Electronic contribution:     -8.35134     -18.71187      10.61098
Nuclear contribution   :      8.47158      19.29402     -10.87289
                        -----------------------------------------
Total Dipole Moment    :      0.12024       0.58215      -0.26192
                        -----------------------------------------
Magnitude (a.u.)       :      0.64958
Magnitude (Debye)      :      1.65110

Rotational constants in cm-1:     0.018625     0.008384     0.006921
Rotational constants in MHz :   558.378132   251.334110   207.499611

                             ****ORCA TERMINATED NORMALLY****
TOTAL RUN TIME: 0 days 0 hours 0 minutes 35 seconds 172 msec
