                         Program Version 4.2.1 -  RELEASE  -
|  1> ! wB97X-D3 SP def2-SVP
|  2> %pal
|  3> nprocs 16
|  4> end
|  5>
|  6> * xyz 0 1
|  7> S 	 -31.642 	 1.79692 	 100.22
|  8> C 	 -32.559 	 0.731403 	 101.222
|  9> C 	 -32.8523 	 1.26408 	 102.447
| 10> C 	 -32.0025 	 2.36938 	 102.74
| 11> C 	 -31.3553 	 2.84626 	 101.565
| 12> H 	 -31.9762 	 2.94681 	 103.64
| 13> C 	 -33.8501 	 0.715969 	 103.463
| 14> H 	 -34.676 	 0.159278 	 102.988
| 15> H 	 -34.35 	 1.56209 	 103.895
| 16> C 	 -33.1607 	 -0.104697 	 104.603
| 17> H 	 -32.4035 	 0.516765 	 105.037
| 18> H 	 -33.8148 	 -0.194367 	 105.494
| 19> C 	 -32.6845 	 -1.47187 	 104.295
| 20> H 	 -32.3098 	 -1.82343 	 105.241
| 21> H 	 -33.4698 	 -2.22998 	 104.027
| 22> H 	 -31.9172 	 -1.4106 	 103.557
| 23> S 	 -29.3401 	 3.84268 	 99.9552
| 24> C 	 -28.561 	 5.36964 	 100.395
| 25> C 	 -29.12 	 5.81322 	 101.562
| 26> C 	 -30.225 	 5.09412 	 102.086
| 27> C 	 -30.3884 	 3.91006 	 101.416
| 28> H 	 -28.7877 	 6.72168 	 102.047
| 29> C 	 -31.0269 	 5.67511 	 103.274
| 30> H 	 -32.0232 	 5.12035 	 103.404
| 31> H 	 -31.3899 	 6.65348 	 103.08
| 32> C 	 -30.3941 	 5.87583 	 104.696
| 33> H 	 -29.9299 	 6.86829 	 104.811
| 34> H 	 -29.5723 	 5.14825 	 104.702
| 35> C 	 -31.4064 	 5.53345 	 105.739
| 36> H 	 -31.5791 	 4.40176 	 105.75
| 37> H 	 -32.3268 	 6.08228 	 105.507
| 38> H 	 -31.1593 	 5.84158 	 106.734
| 39> H 	 -32.9432 	 -0.182294 	 100.933
| 40> H 	 -27.7465 	 5.8059 	 99.8412
| 41> *
| 42>
| 43>                          ****END OF INPUT****

CARTESIAN COORDINATES (ANGSTROEM)
---------------------------------
  S    -31.642000    1.796920  100.220000
  C    -32.559000    0.731403  101.222000
  C    -32.852300    1.264080  102.447000
  C    -32.002500    2.369380  102.740000
  C    -31.355300    2.846260  101.565000
  H    -31.976200    2.946810  103.640000
  C    -33.850100    0.715969  103.463000
  H    -34.676000    0.159278  102.988000
  H    -34.350000    1.562090  103.895000
  C    -33.160700   -0.104697  104.603000
  H    -32.403500    0.516765  105.037000
  H    -33.814800   -0.194367  105.494000
  C    -32.684500   -1.471870  104.295000
  H    -32.309800   -1.823430  105.241000
  H    -33.469800   -2.229980  104.027000
  H    -31.917200   -1.410600  103.557000
  S    -29.340100    3.842680   99.955200
  C    -28.561000    5.369640  100.395000
  C    -29.120000    5.813220  101.562000
  C    -30.225000    5.094120  102.086000
  C    -30.388400    3.910060  101.416000
  H    -28.787700    6.721680  102.047000
  C    -31.026900    5.675110  103.274000
  H    -32.023200    5.120350  103.404000
  H    -31.389900    6.653480  103.080000
  C    -30.394100    5.875830  104.696000
  H    -29.929900    6.868290  104.811000
  H    -29.572300    5.148250  104.702000
  C    -31.406400    5.533450  105.739000
  H    -31.579100    4.401760  105.750000
  H    -32.326800    6.082280  105.507000
  H    -31.159300    5.841580  106.734000
  H    -32.943200   -0.182294  100.933000
  H    -27.746500    5.805900   99.841200

 Total Charge           Charge          ....    0
 Multiplicity           Mult            ....    1
 Number of Electrons    NEL             ....  134
 Basis Dimension        Dim             ....  322

ORBITAL ENERGIES
----------------

  NO   OCC          E(Eh)            E(eV)
   0   2.0000     -88.966728     -2420.9077
   1   2.0000     -88.963486     -2420.8195
   2   2.0000     -10.330565      -281.1090
   3   2.0000     -10.329581      -281.0822
   4   2.0000     -10.319386      -280.8048
   5   2.0000     -10.304513      -280.4001
   6   2.0000     -10.303840      -280.3817
   7   2.0000     -10.299474      -280.2629
   8   2.0000     -10.298521      -280.2370
   9   2.0000     -10.295223      -280.1473
  10   2.0000     -10.293559      -280.1020
  11   2.0000     -10.291632      -280.0496
  12   2.0000     -10.290660      -280.0231
  13   2.0000     -10.285769      -279.8900
  14   2.0000     -10.284172      -279.8465
  15   2.0000     -10.273190      -279.5477
  16   2.0000      -8.082254      -219.9293
  17   2.0000      -8.077503      -219.8000
  18   2.0000      -6.040667      -164.3749
  19   2.0000      -6.036725      -164.2676
  20   2.0000      -6.036217      -164.2538
  21   2.0000      -6.033004      -164.1664
  22   2.0000      -6.032187      -164.1442
  23   2.0000      -6.028006      -164.0304
  24   2.0000      -1.008980       -27.4557
  25   2.0000      -0.984303       -26.7842
  26   2.0000      -0.913026       -24.8447
  27   2.0000      -0.910080       -24.7645
  28   2.0000      -0.872387       -23.7389
  29   2.0000      -0.857754       -23.3407
  30   2.0000      -0.846026       -23.0215
  31   2.0000      -0.811965       -22.0947
  32   2.0000      -0.784272       -21.3411
  33   2.0000      -0.777173       -21.1480
  34   2.0000      -0.708920       -19.2907
  35   2.0000      -0.697839       -18.9892
  36   2.0000      -0.695622       -18.9288
  37   2.0000      -0.663977       -18.0677
  38   2.0000      -0.641095       -17.4451
  39   2.0000      -0.620435       -16.8829
  40   2.0000      -0.604345       -16.4451
  41   2.0000      -0.569842       -15.5062
  42   2.0000      -0.567373       -15.4390
  43   2.0000      -0.550006       -14.9664
  44   2.0000      -0.539626       -14.6840
  45   2.0000      -0.529000       -14.3948
  46   2.0000      -0.522017       -14.2048
  47   2.0000      -0.508564       -13.8387
  48   2.0000      -0.506128       -13.7724
  49   2.0000      -0.496913       -13.5217
  50   2.0000      -0.490461       -13.3461
  51   2.0000      -0.485964       -13.2238
  52   2.0000      -0.479421       -13.0457
  53   2.0000      -0.468068       -12.7368
  54   2.0000      -0.458421       -12.4743
  55   2.0000      -0.453512       -12.3407
  56   2.0000      -0.442476       -12.0404
  57   2.0000      -0.437125       -11.8948
  58   2.0000      -0.431244       -11.7347
  59   2.0000      -0.428830       -11.6691
  60   2.0000      -0.418042       -11.3755
  61   2.0000      -0.412121       -11.2144
  62   2.0000      -0.409443       -11.1415
  63   2.0000      -0.358314        -9.7502
  64   2.0000      -0.334230        -9.0949
  65   2.0000      -0.328040        -8.9264
  66   2.0000      -0.280499        -7.6328
  67   0.0000       0.017342         0.4719
  68   0.0000       0.085846         2.3360
  69   0.0000       0.092544         2.5183
  70   0.0000       0.116232         3.1628
  71   0.0000       0.125486         3.4147

MULLIKEN ATOMIC CHARGES
-----------------------
   0 S :    0.111962
   1 C :   -0.084524
   2 C :   -0.093463
   3 C :    0.025581
   4 C :   -0.134981
   5 H :   -0.013664
   6 C :    0.091038
   7 H :    0.024282
   8 H :    0.019634
   9 C :   -0.087624
  10 H :    0.014780
  11 H :    0.017724
  12 C :   -0.016984
  13 H :    0.024583
  14 H :    0.035194
  15 H :    0.033670
  16 S :    0.073329
  17 C :   -0.080714
  18 C :   -0.011187
  19 C :   -0.031674
  20 C :   -0.119032
  21 H :    0.010319
  22 C :    0.002138
  23 H :    0.035312
  24 H :    0.023423
  25 C :   -0.056180
  26 H :    0.037477
  27 H :    0.031979
  28 C :   -0.070648
  29 H :    0.054146
  30 H :    0.033634
  31 H :    0.027163
  32 H :    0.011669
  33 H :    0.061639
Sum of atomic charges:   -0.0000000

LOEWDIN ATOMIC CHARGES
----------------------
   0 S :    0.423433
   1 C :   -0.193370
   2 C :   -0.058699
   3 C :   -0.061003
   4 C :   -0.190375
   5 H :    0.021274
   6 C :   -0.028987
   7 H :    0.030667
   8 H :    0.030642
   9 C :   -0.044876
  10 H :    0.021172
  11 H :    0.024097
  12 C :   -0.062918
  13 H :    0.028555
  14 H :    0.030756
  15 H :    0.021004
  16 S :    0.363730
  17 C :   -0.172524
  18 C :   -0.066861
  19 C :   -0.061873
  20 C :   -0.172802
  21 H :    0.027820
  22 C :   -0.037276
  23 H :    0.036653
  24 H :    0.028274
  25 C :   -0.044266
  26 H :    0.024728
  27 H :    0.024078
  28 C :   -0.066059
  29 H :    0.035741
  30 H :    0.025494
  31 H :    0.020971
  32 H :    0.011162
  33 H :    0.031638

  Mayer bond orders larger than 0.100000
B(  0-S ,  1-C ) :   1.1431 B(  0-S ,  4-C ) :   1.1551 B(  1-C ,  2-C ) :   1.5993
B(  1-C , 32-H ) :   0.9740 B(  2-C ,  3-C ) :   1.2470 B(  2-C ,  6-C ) :   1.0289
B(  3-C ,  4-C ) :   1.5442 B(  3-C ,  5-H ) :   0.9841 B(  4-C , 20-C ) :   1.0918
B(  6-C ,  7-H ) :   0.9467 B(  6-C ,  8-H ) :   0.9323 B(  6-C ,  9-C ) :   1.0657
B(  9-C , 10-H ) :   0.9522 B(  9-C , 11-H ) :   0.9531 B(  9-C , 12-C ) :   1.0899
B( 12-C , 13-H ) :   0.9673 B( 12-C , 14-H ) :   0.9721 B( 12-C , 15-H ) :   0.9742
B( 16-S , 17-C ) :   1.1250 B( 16-S , 20-C ) :   1.1188 B( 17-C , 18-C ) :   1.6191
B( 17-C , 33-H ) :   0.9739 B( 18-C , 19-C ) :   1.2314 B( 18-C , 21-H ) :   0.9882
B( 19-C , 20-C ) :   1.6126 B( 19-C , 22-C ) :   1.0463 B( 22-C , 23-H ) :   0.9432
B( 22-C , 24-H ) :   0.9276 B( 22-C , 25-C ) :   1.0243 B( 25-C , 26-H ) :   0.9554
B( 25-C , 27-H ) :   0.9642 B( 25-C , 28-C ) :   1.0878 B( 28-C , 29-H ) :   0.9721
B( 28-C , 30-H ) :   0.9724 B( 28-C , 31-H ) :   0.9696

Dispersion correction           -0.014152492
FINAL SINGLE POINT ENERGY     -1339.869688980676

DIPOLE MOMENT
-------------
                                X             Y             Z
Electronic contribution:     10.00977       2.54235     -28.54591
Nuclear contribution   :    -10.22612      -2.27374      29.26019
                        -----------------------------------------
Total Dipole Moment    :     -0.21636       0.26861       0.71428
                        -----------------------------------------
Magnitude (a.u.)       :      0.79319
Magnitude (Debye)      :      2.01613

Rotational constants in cm-1:     0.017518     0.009338     0.006516
Rotational constants in MHz :   525.190204   279.936485   195.338168

                             ****ORCA TERMINATED NORMALLY****
TOTAL RUN TIME: 0 days 0 hours 0 minutes 30 seconds 716 msec
