                         Program Version 4.2.1 -  RELEASE  -
|  1> ! wB97X-D3 SP def2-SVP
|  2> %pal
|  3> nprocs 16
|  4> end
|  5>
|  6> * xyz 0 1
|  7> S 	 -115.257 	 54.3208 	 110.599
|  8> C 	 -113.667 	 53.6651 	 110.423
|  9> C 	 -112.836 	 54.0547 	 111.469
| 10> C 	 -113.504 	 54.9827 	 112.366
| 11> C 	 -114.8 	 55.248 	 111.966
| 12> H 	 -113.044 	 55.3777 	 113.234
| 13> C 	 -111.361 	 53.6651 	 111.702
| 14> H 	 -111.209 	 52.607 	 111.451
| 15> H 	 -111.097 	 53.7768 	 112.744
| 16> C 	 -110.41 	 54.4944 	 110.782
| 17> H 	 -110.548 	 54.1561 	 109.735
| 18> H 	 -110.809 	 55.4947 	 110.782
| 19> C 	 -109.016 	 54.3798 	 111.316
| 20> H 	 -108.175 	 54.5745 	 110.577
| 21> H 	 -108.79 	 55.0357 	 112.222
| 22> H 	 -108.874 	 53.3975 	 111.691
| 23> S 	 -116.518 	 57.2305 	 111.422
| 24> C 	 -117.45 	 57.9624 	 112.608
| 25> C 	 -117.03 	 57.5583 	 113.877
| 26> C 	 -116.06 	 56.5589 	 113.871
| 27> C 	 -115.658 	 56.2607 	 112.545
| 28> H 	 -117.389 	 57.943 	 114.885
| 29> C 	 -115.589 	 55.9363 	 115.152
| 30> H 	 -115.278 	 54.871 	 114.962
| 31> H 	 -116.333 	 55.8613 	 115.915
| 32> C 	 -114.414 	 56.7195 	 115.865
| 33> H 	 -113.474 	 56.4228 	 115.322
| 34> H 	 -114.262 	 56.32 	 116.914
| 35> C 	 -114.475 	 58.2655 	 115.735
| 36> H 	 -113.738 	 58.7411 	 116.417
| 37> H 	 -115.364 	 58.8359 	 116.017
| 38> H 	 -114.165 	 58.6676 	 114.765
| 39> H 	 -113.371 	 52.9339 	 109.662
| 40> H 	 -118.068 	 58.7978 	 112.466
| 41> *
| 42>
| 43>                          ****END OF INPUT****

CARTESIAN COORDINATES (ANGSTROEM)
---------------------------------
  S    -115.257000   54.320800  110.599000
  C    -113.667000   53.665100  110.423000
  C    -112.836000   54.054700  111.469000
  C    -113.504000   54.982700  112.366000
  C    -114.800000   55.248000  111.966000
  H    -113.044000   55.377700  113.234000
  C    -111.361000   53.665100  111.702000
  H    -111.209000   52.607000  111.451000
  H    -111.097000   53.776800  112.744000
  C    -110.410000   54.494400  110.782000
  H    -110.548000   54.156100  109.735000
  H    -110.809000   55.494700  110.782000
  C    -109.016000   54.379800  111.316000
  H    -108.175000   54.574500  110.577000
  H    -108.790000   55.035700  112.222000
  H    -108.874000   53.397500  111.691000
  S    -116.518000   57.230500  111.422000
  C    -117.450000   57.962400  112.608000
  C    -117.030000   57.558300  113.877000
  C    -116.060000   56.558900  113.871000
  C    -115.658000   56.260700  112.545000
  H    -117.389000   57.943000  114.885000
  C    -115.589000   55.936300  115.152000
  H    -115.278000   54.871000  114.962000
  H    -116.333000   55.861300  115.915000
  C    -114.414000   56.719500  115.865000
  H    -113.474000   56.422800  115.322000
  H    -114.262000   56.320000  116.914000
  C    -114.475000   58.265500  115.735000
  H    -113.738000   58.741100  116.417000
  H    -115.364000   58.835900  116.017000
  H    -114.165000   58.667600  114.765000
  H    -113.371000   52.933900  109.662000
  H    -118.068000   58.797800  112.466000

 Total Charge           Charge          ....    0
 Multiplicity           Mult            ....    1
 Number of Electrons    NEL             ....  134
 Basis Dimension        Dim             ....  322

ORBITAL ENERGIES
----------------

  NO   OCC          E(Eh)            E(eV)
   0   2.0000     -88.968483     -2420.9555
   1   2.0000     -88.967635     -2420.9324
   2   2.0000     -10.325560      -280.9728
   3   2.0000     -10.324090      -280.9328
   4   2.0000     -10.312846      -280.6268
   5   2.0000     -10.307604      -280.4842
   6   2.0000     -10.303250      -280.3657
   7   2.0000     -10.301927      -280.3297
   8   2.0000     -10.299708      -280.2693
   9   2.0000     -10.294228      -280.1202
  10   2.0000     -10.294099      -280.1167
  11   2.0000     -10.293064      -280.0885
  12   2.0000     -10.290708      -280.0244
  13   2.0000     -10.285590      -279.8851
  14   2.0000     -10.283025      -279.8153
  15   2.0000     -10.281509      -279.7741
  16   2.0000      -8.084027      -219.9776
  17   2.0000      -8.083926      -219.9748
  18   2.0000      -6.042384      -164.4216
  19   2.0000      -6.042126      -164.4146
  20   2.0000      -6.038293      -164.3103
  21   2.0000      -6.038117      -164.3055
  22   2.0000      -6.035292      -164.2286
  23   2.0000      -6.034739      -164.2136
  24   2.0000      -1.016406       -27.6578
  25   2.0000      -0.990664       -26.9573
  26   2.0000      -0.912225       -24.8229
  27   2.0000      -0.906021       -24.6541
  28   2.0000      -0.869924       -23.6718
  29   2.0000      -0.850653       -23.1474
  30   2.0000      -0.845391       -23.0043
  31   2.0000      -0.809489       -22.0273
  32   2.0000      -0.785116       -21.3641
  33   2.0000      -0.769539       -20.9402
  34   2.0000      -0.705085       -19.1863
  35   2.0000      -0.702192       -19.1076
  36   2.0000      -0.690646       -18.7934
  37   2.0000      -0.665599       -18.1119
  38   2.0000      -0.640337       -17.4245
  39   2.0000      -0.620834       -16.8938
  40   2.0000      -0.597942       -16.2708
  41   2.0000      -0.566613       -15.4183
  42   2.0000      -0.558044       -15.1851
  43   2.0000      -0.549168       -14.9436
  44   2.0000      -0.535079       -14.5602
  45   2.0000      -0.523470       -14.2444
  46   2.0000      -0.514554       -14.0017
  47   2.0000      -0.508119       -13.8266
  48   2.0000      -0.501875       -13.6567
  49   2.0000      -0.497236       -13.5305
  50   2.0000      -0.490808       -13.3556
  51   2.0000      -0.487533       -13.2664
  52   2.0000      -0.474546       -12.9131
  53   2.0000      -0.463196       -12.6042
  54   2.0000      -0.460327       -12.5261
  55   2.0000      -0.451279       -12.2799
  56   2.0000      -0.444206       -12.0875
  57   2.0000      -0.436724       -11.8839
  58   2.0000      -0.432595       -11.7715
  59   2.0000      -0.424987       -11.5645
  60   2.0000      -0.421333       -11.4650
  61   2.0000      -0.416426       -11.3315
  62   2.0000      -0.411735       -11.2039
  63   2.0000      -0.350035        -9.5249
  64   2.0000      -0.334269        -9.0959
  65   2.0000      -0.327318        -8.9068
  66   2.0000      -0.286752        -7.8029
  67   0.0000       0.030783         0.8376
  68   0.0000       0.076295         2.0761
  69   0.0000       0.114777         3.1233
  70   0.0000       0.125556         3.4165
  71   0.0000       0.128391         3.4937

MULLIKEN ATOMIC CHARGES
-----------------------
   0 S :    0.131885
   1 C :   -0.140659
   2 C :   -0.095266
   3 C :    0.038304
   4 C :   -0.127900
   5 H :   -0.018368
   6 C :    0.041549
   7 H :    0.030804
   8 H :    0.022446
   9 C :   -0.054271
  10 H :    0.032576
  11 H :    0.031151
  12 C :   -0.059411
  13 H :    0.043951
  14 H :    0.041829
  15 H :    0.018182
  16 S :    0.131305
  17 C :   -0.070951
  18 C :   -0.061973
  19 C :   -0.027314
  20 C :   -0.176092
  21 H :    0.034613
  22 C :    0.059882
  23 H :    0.039271
  24 H :    0.020803
  25 C :   -0.091525
  26 H :    0.031845
  27 H :    0.045765
  28 C :   -0.066829
  29 H :    0.026963
  30 H :    0.028179
  31 H :    0.042359
  32 H :    0.053373
  33 H :    0.043522
Sum of atomic charges:    0.0000000

LOEWDIN ATOMIC CHARGES
----------------------
   0 S :    0.433490
   1 C :   -0.216871
   2 C :   -0.057216
   3 C :   -0.061081
   4 C :   -0.208321
   5 H :    0.021586
   6 C :   -0.028637
   7 H :    0.029847
   8 H :    0.025513
   9 C :   -0.041581
  10 H :    0.028277
  11 H :    0.022466
  12 C :   -0.075084
  13 H :    0.032741
  14 H :    0.034527
  15 H :    0.017592
  16 S :    0.466578
  17 C :   -0.214330
  18 C :   -0.072548
  19 C :   -0.061158
  20 C :   -0.211046
  21 H :    0.038534
  22 C :   -0.036065
  23 H :    0.038318
  24 H :    0.025662
  25 C :   -0.042229
  26 H :    0.025381
  27 H :    0.030868
  28 C :   -0.081935
  29 H :    0.031101
  30 H :    0.021931
  31 H :    0.031037
  32 H :    0.031998
  33 H :    0.020656

  Mayer bond orders larger than 0.100000
B(  0-S ,  1-C ) :   1.1382 B(  0-S ,  4-C ) :   1.1704 B(  1-C ,  2-C ) :   1.5989
B(  1-C , 32-H ) :   0.9675 B(  2-C ,  3-C ) :   1.2548 B(  2-C ,  6-C ) :   1.0276
B(  3-C ,  4-C ) :   1.5381 B(  3-C ,  5-H ) :   1.0054 B(  4-C , 20-C ) :   1.0444
B(  6-C ,  7-H ) :   0.9354 B(  6-C ,  8-H ) :   0.9517 B(  6-C ,  9-C ) :   1.0497
B(  9-C , 10-H ) :   0.9541 B(  9-C , 11-H ) :   0.9628 B(  9-C , 12-C ) :   1.0731
B( 12-C , 13-H ) :   0.9727 B( 12-C , 14-H ) :   0.9736 B( 12-C , 15-H ) :   0.9709
B( 16-S , 17-C ) :   1.1917 B( 16-S , 20-C ) :   1.1891 B( 17-C , 18-C ) :   1.5243
B( 17-C , 20-C ) :   0.1114 B( 17-C , 33-H ) :   0.9747 B( 18-C , 19-C ) :   1.3306
B( 18-C , 21-H ) :   0.9729 B( 19-C , 20-C ) :   1.5012 B( 19-C , 22-C ) :   1.0584
B( 22-C , 23-H ) :   0.9359 B( 22-C , 24-H ) :   0.9377 B( 22-C , 25-C ) :   1.0536
B( 25-C , 26-H ) :   0.9534 B( 25-C , 27-H ) :   0.9615 B( 25-C , 28-C ) :   1.0733
B( 28-C , 29-H ) :   0.9704 B( 28-C , 30-H ) :   0.9756 B( 28-C , 31-H ) :   0.9692

Dispersion correction           -0.014564564
FINAL SINGLE POINT ENERGY     -1339.884418274450

DIPOLE MOMENT
-------------
                                X             Y             Z
Electronic contribution:    -23.69132      -0.73108     -15.15317
Nuclear contribution   :     24.13904       0.76592      15.57797
                        -----------------------------------------
Total Dipole Moment    :      0.44772       0.03484       0.42479
                        -----------------------------------------
Magnitude (a.u.)       :      0.61815
Magnitude (Debye)      :      1.57122

Rotational constants in cm-1:     0.019548     0.008489     0.006659
Rotational constants in MHz :   586.035649   254.502038   199.619417

                             ****ORCA TERMINATED NORMALLY****
TOTAL RUN TIME: 0 days 0 hours 0 minutes 32 seconds 868 msec
