                         Program Version 4.2.1 -  RELEASE  -
|  1> ! wB97X-D3 SP def2-SVP
|  2> %pal
|  3> nprocs 16
|  4> end
|  5>
|  6> * xyz 0 1
|  7> S 	 -37.6451 	 12.661 	 80.1891
|  8> C 	 -37.1532 	 11.9941 	 78.6592
|  9> C 	 -37.6533 	 12.7237 	 77.5605
| 10> C 	 -38.4496 	 13.8337 	 77.9638
| 11> C 	 -38.6115 	 13.8899 	 79.3088
| 12> H 	 -38.9471 	 14.7143 	 77.4568
| 13> C 	 -37.388 	 12.3694 	 76.1488
| 14> H 	 -37.7861 	 13.1373 	 75.5763
| 15> H 	 -37.9276 	 11.4556 	 75.9734
| 16> C 	 -35.917 	 12.156 	 75.5476
| 17> H 	 -35.2423 	 11.7992 	 76.3372
| 18> H 	 -35.9193 	 11.4475 	 74.7611
| 19> C 	 -35.2223 	 13.4806 	 75.0956
| 20> H 	 -35.7721 	 13.9872 	 74.3248
| 21> H 	 -35.1281 	 14.1802 	 76.0174
| 22> H 	 -34.2485 	 13.1849 	 74.7121
| 23> S 	 -39.0584 	 16.5868 	 79.9776
| 24> C 	 -40.5639 	 16.9143 	 80.801
| 25> C 	 -41.3219 	 15.8258 	 81.0777
| 26> C 	 -40.7218 	 14.6163 	 80.6208
| 27> C 	 -39.4704 	 14.8651 	 80.0423
| 28> H 	 -42.3021 	 15.8853 	 81.5934
| 29> C 	 -41.3112 	 13.2721 	 80.8721
| 30> H 	 -41.7574 	 13.1468 	 81.8491
| 31> H 	 -40.5657 	 12.4624 	 80.8389
| 32> C 	 -42.4677 	 12.8103 	 79.981
| 33> H 	 -43.2449 	 13.5785 	 79.9674
| 34> H 	 -42.9474 	 11.9501 	 80.4046
| 35> C 	 -42.2242 	 12.3876 	 78.4667
| 36> H 	 -43.2084 	 12.277 	 78.0484
| 37> H 	 -41.5518 	 11.5108 	 78.2999
| 38> H 	 -41.8452 	 13.3459 	 77.9579
| 39> H 	 -36.7262 	 11.0354 	 78.5198
| 40> H 	 -40.9803 	 17.933 	 80.9343
| 41> *
| 42>
| 43>                          ****END OF INPUT****

CARTESIAN COORDINATES (ANGSTROEM)
---------------------------------
  S    -37.645100   12.661000   80.189100
  C    -37.153200   11.994100   78.659200
  C    -37.653300   12.723700   77.560500
  C    -38.449600   13.833700   77.963800
  C    -38.611500   13.889900   79.308800
  H    -38.947100   14.714300   77.456800
  C    -37.388000   12.369400   76.148800
  H    -37.786100   13.137300   75.576300
  H    -37.927600   11.455600   75.973400
  C    -35.917000   12.156000   75.547600
  H    -35.242300   11.799200   76.337200
  H    -35.919300   11.447500   74.761100
  C    -35.222300   13.480600   75.095600
  H    -35.772100   13.987200   74.324800
  H    -35.128100   14.180200   76.017400
  H    -34.248500   13.184900   74.712100
  S    -39.058400   16.586800   79.977600
  C    -40.563900   16.914300   80.801000
  C    -41.321900   15.825800   81.077700
  C    -40.721800   14.616300   80.620800
  C    -39.470400   14.865100   80.042300
  H    -42.302100   15.885300   81.593400
  C    -41.311200   13.272100   80.872100
  H    -41.757400   13.146800   81.849100
  H    -40.565700   12.462400   80.838900
  C    -42.467700   12.810300   79.981000
  H    -43.244900   13.578500   79.967400
  H    -42.947400   11.950100   80.404600
  C    -42.224200   12.387600   78.466700
  H    -43.208400   12.277000   78.048400
  H    -41.551800   11.510800   78.299900
  H    -41.845200   13.345900   77.957900
  H    -36.726200   11.035400   78.519800
  H    -40.980300   17.933000   80.934300

 Total Charge           Charge          ....    0
 Multiplicity           Mult            ....    1
 Number of Electrons    NEL             ....  134
 Basis Dimension        Dim             ....  322

ORBITAL ENERGIES
----------------

  NO   OCC          E(Eh)            E(eV)
   0   2.0000     -88.970520     -2421.0109
   1   2.0000     -88.966992     -2420.9149
   2   2.0000     -10.328419      -281.0506
   3   2.0000     -10.327128      -281.0155
   4   2.0000     -10.317376      -280.7501
   5   2.0000     -10.310554      -280.5644
   6   2.0000     -10.304300      -280.3943
   7   2.0000     -10.303257      -280.3659
   8   2.0000     -10.296308      -280.1768
   9   2.0000     -10.294369      -280.1240
  10   2.0000     -10.288813      -279.9728
  11   2.0000     -10.287519      -279.9376
  12   2.0000     -10.283790      -279.8362
  13   2.0000     -10.283605      -279.8311
  14   2.0000     -10.282461      -279.8000
  15   2.0000     -10.280725      -279.7527
  16   2.0000      -8.084815      -219.9990
  17   2.0000      -8.080768      -219.8889
  18   2.0000      -6.043236      -164.4448
  19   2.0000      -6.039546      -164.3444
  20   2.0000      -6.039206      -164.3352
  21   2.0000      -6.035544      -164.2355
  22   2.0000      -6.035423      -164.2322
  23   2.0000      -6.031661      -164.1298
  24   2.0000      -1.003083       -27.2953
  25   2.0000      -0.982815       -26.7438
  26   2.0000      -0.904923       -24.6242
  27   2.0000      -0.903115       -24.5750
  28   2.0000      -0.864774       -23.5317
  29   2.0000      -0.850199       -23.1351
  30   2.0000      -0.845434       -23.0054
  31   2.0000      -0.815186       -22.1823
  32   2.0000      -0.782782       -21.3006
  33   2.0000      -0.766922       -20.8690
  34   2.0000      -0.705203       -19.1896
  35   2.0000      -0.697618       -18.9831
  36   2.0000      -0.685311       -18.6483
  37   2.0000      -0.656805       -17.8726
  38   2.0000      -0.638963       -17.3871
  39   2.0000      -0.609266       -16.5790
  40   2.0000      -0.596317       -16.2266
  41   2.0000      -0.569268       -15.4906
  42   2.0000      -0.553955       -15.0739
  43   2.0000      -0.542096       -14.7512
  44   2.0000      -0.539143       -14.6708
  45   2.0000      -0.531055       -14.4507
  46   2.0000      -0.517629       -14.0854
  47   2.0000      -0.514065       -13.9884
  48   2.0000      -0.495359       -13.4794
  49   2.0000      -0.491694       -13.3797
  50   2.0000      -0.482327       -13.1248
  51   2.0000      -0.478578       -13.0228
  52   2.0000      -0.468354       -12.7446
  53   2.0000      -0.463662       -12.6169
  54   2.0000      -0.461545       -12.5593
  55   2.0000      -0.448275       -12.1982
  56   2.0000      -0.438706       -11.9378
  57   2.0000      -0.434050       -11.8111
  58   2.0000      -0.431918       -11.7531
  59   2.0000      -0.428350       -11.6560
  60   2.0000      -0.419639       -11.4189
  61   2.0000      -0.416054       -11.3214
  62   2.0000      -0.406008       -11.0481
  63   2.0000      -0.340143        -9.2558
  64   2.0000      -0.337009        -9.1705
  65   2.0000      -0.319987        -8.7073
  66   2.0000      -0.299780        -8.1574
  67   0.0000       0.035821         0.9747
  68   0.0000       0.060043         1.6338
  69   0.0000       0.104748         2.8503
  70   0.0000       0.117715         3.2032
  71   0.0000       0.126003         3.4287

MULLIKEN ATOMIC CHARGES
-----------------------
   0 S :    0.112651
   1 C :   -0.100949
   2 C :   -0.111624
   3 C :    0.033888
   4 C :   -0.186784
   5 H :    0.041705
   6 C :    0.100765
   7 H :   -0.001453
   8 H :    0.037484
   9 C :   -0.064986
  10 H :    0.028049
  11 H :    0.022085
  12 C :   -0.086383
  13 H :    0.031412
  14 H :    0.055880
  15 H :    0.037933
  16 S :    0.118752
  17 C :   -0.094173
  18 C :   -0.039366
  19 C :    0.010988
  20 C :   -0.196174
  21 H :    0.032514
  22 C :    0.094041
  23 H :    0.023027
  24 H :    0.016812
  25 C :   -0.102424
  26 H :    0.014731
  27 H :    0.020833
  28 C :   -0.072741
  29 H :    0.028793
  30 H :    0.055246
  31 H :    0.037421
  32 H :    0.037949
  33 H :    0.064094
Sum of atomic charges:    0.0000000

LOEWDIN ATOMIC CHARGES
----------------------
   0 S :    0.395192
   1 C :   -0.199646
   2 C :   -0.060366
   3 C :   -0.069853
   4 C :   -0.180085
   5 H :    0.049323
   6 C :   -0.031650
   7 H :    0.020418
   8 H :    0.036926
   9 C :   -0.032274
  10 H :    0.024291
  11 H :    0.016416
  12 C :   -0.068304
  13 H :    0.016030
  14 H :    0.038872
  15 H :    0.025581
  16 S :    0.400150
  17 C :   -0.188472
  18 C :   -0.073824
  19 C :   -0.049724
  20 C :   -0.197571
  21 H :    0.040322
  22 C :   -0.038347
  23 H :    0.036180
  24 H :    0.027355
  25 C :   -0.039119
  26 H :    0.018856
  27 H :    0.018757
  28 C :   -0.074334
  29 H :    0.022095
  30 H :    0.030018
  31 H :    0.031345
  32 H :    0.020208
  33 H :    0.035231

  Mayer bond orders larger than 0.100000
B(  0-S ,  1-C ) :   1.1391 B(  0-S ,  4-C ) :   1.1413 B(  1-C ,  2-C ) :   1.6083
B(  1-C , 32-H ) :   0.9688 B(  2-C ,  3-C ) :   1.2117 B(  2-C ,  6-C ) :   1.0339
B(  3-C ,  4-C ) :   1.6331 B(  3-C ,  5-H ) :   0.9748 B(  4-C , 20-C ) :   0.9942
B(  6-C ,  7-H ) :   0.9410 B(  6-C ,  8-H ) :   0.9290 B(  6-C ,  9-C ) :   1.0538
B(  9-C , 10-H ) :   0.9623 B(  9-C , 11-H ) :   0.9584 B(  9-C , 12-C ) :   1.0756
B( 12-C , 13-H ) :   0.9772 B( 12-C , 14-H ) :   0.9790 B( 12-C , 15-H ) :   0.9750
B( 16-S , 17-C ) :   1.1450 B( 16-S , 20-C ) :   1.1399 B( 17-C , 18-C ) :   1.6379
B( 17-C , 33-H ) :   0.9567 B( 18-C , 19-C ) :   1.2354 B( 18-C , 21-H ) :   0.9819
B( 19-C , 20-C ) :   1.5974 B( 19-C , 22-C ) :   1.0523 B( 22-C , 23-H ) :   0.9321
B( 22-C , 24-H ) :   0.9281 B( 22-C , 25-C ) :   1.0675 B( 25-C , 26-H ) :   0.9572
B( 25-C , 27-H ) :   0.9573 B( 25-C , 28-C ) :   1.0751 B( 28-C , 29-H ) :   0.9728
B( 28-C , 30-H ) :   0.9757 B( 28-C , 31-H ) :   0.9759

Dispersion correction           -0.015031391
FINAL SINGLE POINT ENERGY     -1339.869152244605

DIPOLE MOMENT
-------------
                                X             Y             Z
Electronic contribution:      3.99270      11.63366      17.33616
Nuclear contribution   :     -4.40155     -11.82993     -17.65971
                        -----------------------------------------
Total Dipole Moment    :     -0.40884      -0.19627      -0.32355
                        -----------------------------------------
Magnitude (a.u.)       :      0.55710
Magnitude (Debye)      :      1.41603

Rotational constants in cm-1:     0.020474     0.008169     0.007122
Rotational constants in MHz :   613.808695   244.899975   213.498164

                             ****ORCA TERMINATED NORMALLY****
TOTAL RUN TIME: 0 days 0 hours 0 minutes 30 seconds 18 msec
