                         Program Version 4.2.1 -  RELEASE  -
|  1> ! wB97X-D3 SP def2-SVP
|  2> %pal
|  3> nprocs 16
|  4> end
|  5>
|  6> * xyz 0 1
|  7> S 	 11.1714 	 26.2973 	 62.548
|  8> C 	 11.4483 	 26.0126 	 60.8437
|  9> C 	 10.3328 	 25.477 	 60.3422
| 10> C 	 9.19591 	 25.4091 	 61.194
| 11> C 	 9.38114 	 25.9114 	 62.4372
| 12> H 	 8.15654 	 25.0336 	 60.9782
| 13> C 	 10.1657 	 24.9456 	 58.9151
| 14> H 	 10.2326 	 25.7864 	 58.1844
| 15> H 	 9.18241 	 24.5058 	 58.7353
| 16> C 	 11.206 	 23.8987 	 58.5195
| 17> H 	 10.9069 	 23.4056 	 57.5977
| 18> H 	 12.1188 	 24.3885 	 58.2006
| 19> C 	 11.4829 	 22.8124 	 59.6745
| 20> H 	 12.0878 	 23.1463 	 60.4557
| 21> H 	 10.51 	 22.386 	 60.0349
| 22> H 	 11.9798 	 21.9082 	 59.261
| 23> S 	 9.46864 	 24.9469 	 65.0444
| 24> C 	 8.0543 	 25.1058 	 66.0777
| 25> C 	 7.11831 	 25.8747 	 65.4267
| 26> C 	 7.41481 	 26.2295 	 64.0693
| 27> C 	 8.64473 	 25.8123 	 63.6753
| 28> H 	 6.25244 	 26.0952 	 65.9731
| 29> C 	 6.34483 	 27.0263 	 63.301
| 30> H 	 6.76442 	 27.4623 	 62.4273
| 31> H 	 6.11887 	 27.9585 	 63.8672
| 32> C 	 5.00974 	 26.2462 	 62.8818
| 33> H 	 4.13938 	 26.9217 	 62.8256
| 34> H 	 4.67646 	 25.5094 	 63.666
| 35> C 	 5.11371 	 25.3323 	 61.6653
| 36> H 	 5.80405 	 24.5381 	 61.8312
| 37> H 	 5.47257 	 25.8568 	 60.7003
| 38> H 	 4.15453 	 24.9021 	 61.3549
| 39> H 	 12.388 	 25.8518 	 60.4356
| 40> H 	 7.94522 	 25.0646 	 67.0936
| 41> *
| 42>
| 43>                          ****END OF INPUT****

CARTESIAN COORDINATES (ANGSTROEM)
---------------------------------
  S     11.171400   26.297300   62.548000
  C     11.448300   26.012600   60.843700
  C     10.332800   25.477000   60.342200
  C      9.195910   25.409100   61.194000
  C      9.381140   25.911400   62.437200
  H      8.156540   25.033600   60.978200
  C     10.165700   24.945600   58.915100
  H     10.232600   25.786400   58.184400
  H      9.182410   24.505800   58.735300
  C     11.206000   23.898700   58.519500
  H     10.906900   23.405600   57.597700
  H     12.118800   24.388500   58.200600
  C     11.482900   22.812400   59.674500
  H     12.087800   23.146300   60.455700
  H     10.510000   22.386000   60.034900
  H     11.979800   21.908200   59.261000
  S      9.468640   24.946900   65.044400
  C      8.054300   25.105800   66.077700
  C      7.118310   25.874700   65.426700
  C      7.414810   26.229500   64.069300
  C      8.644730   25.812300   63.675300
  H      6.252440   26.095200   65.973100
  C      6.344830   27.026300   63.301000
  H      6.764420   27.462300   62.427300
  H      6.118870   27.958500   63.867200
  C      5.009740   26.246200   62.881800
  H      4.139380   26.921700   62.825600
  H      4.676460   25.509400   63.666000
  C      5.113710   25.332300   61.665300
  H      5.804050   24.538100   61.831200
  H      5.472570   25.856800   60.700300
  H      4.154530   24.902100   61.354900
  H     12.388000   25.851800   60.435600
  H      7.945220   25.064600   67.093600

 Total Charge           Charge          ....    0
 Multiplicity           Mult            ....    1
 Number of Electrons    NEL             ....  134
 Basis Dimension        Dim             ....  322

ORBITAL ENERGIES
----------------

  NO   OCC          E(Eh)            E(eV)
   0   2.0000     -88.965093     -2420.8632
   1   2.0000     -88.957860     -2420.6664
   2   2.0000     -10.334297      -281.2105
   3   2.0000     -10.333986      -281.2021
   4   2.0000     -10.311540      -280.5913
   5   2.0000     -10.308029      -280.4957
   6   2.0000     -10.307534      -280.4823
   7   2.0000     -10.301170      -280.3091
   8   2.0000     -10.300118      -280.2805
   9   2.0000     -10.299000      -280.2500
  10   2.0000     -10.298400      -280.2337
  11   2.0000     -10.292324      -280.0684
  12   2.0000     -10.289261      -279.9850
  13   2.0000     -10.288611      -279.9674
  14   2.0000     -10.284848      -279.8649
  15   2.0000     -10.280165      -279.7375
  16   2.0000      -8.078653      -219.8313
  17   2.0000      -8.072082      -219.6525
  18   2.0000      -6.037475      -164.2880
  19   2.0000      -6.033361      -164.1761
  20   2.0000      -6.030775      -164.1057
  21   2.0000      -6.029052      -164.0589
  22   2.0000      -6.026742      -163.9960
  23   2.0000      -6.022539      -163.8816
  24   2.0000      -1.006095       -27.3772
  25   2.0000      -0.984952       -26.8019
  26   2.0000      -0.905894       -24.6506
  27   2.0000      -0.900002       -24.4903
  28   2.0000      -0.873793       -23.7771
  29   2.0000      -0.849308       -23.1109
  30   2.0000      -0.839379       -22.8407
  31   2.0000      -0.817970       -22.2581
  32   2.0000      -0.783062       -21.3082
  33   2.0000      -0.777153       -21.1474
  34   2.0000      -0.716114       -19.4864
  35   2.0000      -0.704365       -19.1667
  36   2.0000      -0.698775       -19.0146
  37   2.0000      -0.663530       -18.0556
  38   2.0000      -0.646871       -17.6022
  39   2.0000      -0.610477       -16.6119
  40   2.0000      -0.594651       -16.1813
  41   2.0000      -0.572429       -15.5766
  42   2.0000      -0.553837       -15.0707
  43   2.0000      -0.551543       -15.0082
  44   2.0000      -0.539838       -14.6898
  45   2.0000      -0.528011       -14.3679
  46   2.0000      -0.522966       -14.2306
  47   2.0000      -0.517381       -14.0786
  48   2.0000      -0.509965       -13.8768
  49   2.0000      -0.495371       -13.4797
  50   2.0000      -0.491674       -13.3791
  51   2.0000      -0.475171       -12.9300
  52   2.0000      -0.470742       -12.8095
  53   2.0000      -0.467164       -12.7122
  54   2.0000      -0.456182       -12.4133
  55   2.0000      -0.441392       -12.0109
  56   2.0000      -0.440290       -11.9809
  57   2.0000      -0.436691       -11.8830
  58   2.0000      -0.430201       -11.7064
  59   2.0000      -0.421902       -11.4805
  60   2.0000      -0.418929       -11.3996
  61   2.0000      -0.413356       -11.2480
  62   2.0000      -0.405043       -11.0218
  63   2.0000      -0.353927        -9.6309
  64   2.0000      -0.331322        -9.0157
  65   2.0000      -0.325732        -8.8636
  66   2.0000      -0.302138        -8.2216
  67   0.0000       0.022109         0.6016
  68   0.0000       0.061183         1.6649
  69   0.0000       0.109244         2.9727
  70   0.0000       0.121202         3.2981
  71   0.0000       0.130169         3.5421

MULLIKEN ATOMIC CHARGES
-----------------------
   0 S :    0.053090
   1 C :   -0.066912
   2 C :   -0.096436
   3 C :    0.029596
   4 C :   -0.146799
   5 H :    0.024150
   6 C :    0.067206
   7 H :    0.043968
   8 H :    0.019634
   9 C :   -0.093255
  10 H :    0.025638
  11 H :    0.021337
  12 C :   -0.050568
  13 H :    0.034262
  14 H :    0.034524
  15 H :    0.032387
  16 S :    0.094595
  17 C :   -0.033352
  18 C :   -0.052667
  19 C :   -0.018286
  20 C :   -0.151177
  21 H :    0.002417
  22 C :    0.077811
  23 H :    0.012728
  24 H :    0.040719
  25 C :   -0.080626
  26 H :    0.035355
  27 H :    0.036409
  28 C :   -0.081070
  29 H :    0.043537
  30 H :    0.033839
  31 H :    0.037615
  32 H :    0.038564
  33 H :    0.031765
Sum of atomic charges:   -0.0000000

LOEWDIN ATOMIC CHARGES
----------------------
   0 S :    0.359485
   1 C :   -0.176696
   2 C :   -0.066248
   3 C :   -0.062223
   4 C :   -0.160213
   5 H :    0.042965
   6 C :   -0.033870
   7 H :    0.037972
   8 H :    0.026521
   9 C :   -0.043424
  10 H :    0.024610
  11 H :    0.017502
  12 C :   -0.066279
  13 H :    0.015386
  14 H :    0.031230
  15 H :    0.028841
  16 S :    0.374930
  17 C :   -0.172063
  18 C :   -0.059103
  19 C :   -0.057574
  20 C :   -0.174911
  21 H :    0.021463
  22 C :   -0.029148
  23 H :    0.024104
  24 H :    0.041506
  25 C :   -0.045022
  26 H :    0.026490
  27 H :    0.031465
  28 C :   -0.073622
  29 H :    0.019438
  30 H :    0.027296
  31 H :    0.029682
  32 H :    0.021051
  33 H :    0.018459

  Mayer bond orders larger than 0.100000
B(  0-S ,  1-C ) :   1.1181 B(  0-S ,  4-C ) :   1.1138 B(  1-C ,  2-C ) :   1.6440
B(  1-C , 32-H ) :   0.9711 B(  2-C ,  3-C ) :   1.2213 B(  2-C ,  6-C ) :   1.0089
B(  3-C ,  4-C ) :   1.6156 B(  3-C ,  5-H ) :   0.9818 B(  4-C , 20-C ) :   1.0511
B(  6-C ,  7-H ) :   0.9420 B(  6-C ,  8-H ) :   0.9484 B(  6-C ,  9-C ) :   1.0736
B(  9-C , 10-H ) :   0.9595 B(  9-C , 11-H ) :   0.9557 B(  9-C , 12-C ) :   1.0652
B( 12-C , 13-H ) :   0.9755 B( 12-C , 14-H ) :   0.9781 B( 12-C , 15-H ) :   0.9767
B( 16-S , 17-C ) :   1.1278 B( 16-S , 20-C ) :   1.1089 B( 17-C , 18-C ) :   1.6629
B( 17-C , 33-H ) :   0.9651 B( 18-C , 19-C ) :   1.2032 B( 18-C , 21-H ) :   0.9917
B( 19-C , 20-C ) :   1.6385 B( 19-C , 22-C ) :   1.0452 B( 22-C , 23-H ) :   0.9368
B( 22-C , 24-H ) :   0.9404 B( 22-C , 25-C ) :   1.0399 B( 25-C , 26-H ) :   0.9600
B( 25-C , 27-H ) :   0.9611 B( 25-C , 28-C ) :   1.0734 B( 28-C , 29-H ) :   0.9736
B( 28-C , 30-H ) :   0.9730 B( 28-C , 31-H ) :   0.9700

Dispersion correction           -0.014958673
FINAL SINGLE POINT ENERGY     -1339.854599150892

DIPOLE MOMENT
-------------
                                X             Y             Z
Electronic contribution:     12.48009       6.89353      19.07079
Nuclear contribution   :    -13.06926      -7.00823     -19.44384
                        -----------------------------------------
Total Dipole Moment    :     -0.58917      -0.11469      -0.37305
                        -----------------------------------------
Magnitude (a.u.)       :      0.70671
Magnitude (Debye)      :      1.79632

Rotational constants in cm-1:     0.019745     0.008802     0.007058
Rotational constants in MHz :   591.925488   263.874827   211.588550

                             ****ORCA TERMINATED NORMALLY****
TOTAL RUN TIME: 0 days 0 hours 0 minutes 35 seconds 270 msec
