                         Program Version 4.2.1 -  RELEASE  -
|  1> ! wB97X-D3 SP def2-SVP
|  2> %pal
|  3> nprocs 16
|  4> end
|  5>
|  6> * xyz 0 1
|  7> S 	 47.5836 	 8.65137 	 101.929
|  8> C 	 48.8133 	 9.57092 	 102.851
|  9> C 	 49.911 	 9.88373 	 102.051
| 10> C 	 49.7301 	 9.39523 	 100.745
| 11> C 	 48.5572 	 8.76175 	 100.459
| 12> H 	 50.3783 	 9.54513 	 99.9267
| 13> C 	 51.1121 	 10.7868 	 102.439
| 14> H 	 51.0085 	 11.1538 	 103.446
| 15> H 	 51.2211 	 11.6071 	 101.795
| 16> C 	 52.4624 	 10.0239 	 102.429
| 17> H 	 52.398 	 9.3587 	 103.271
| 18> H 	 52.4952 	 9.36244 	 101.613
| 19> C 	 53.7519 	 10.9371 	 102.318
| 20> H 	 54.6126 	 10.3673 	 102.609
| 21> H 	 54.0219 	 11.04 	 101.205
| 22> H 	 53.7572 	 11.8874 	 102.851
| 23> S 	 48.2592 	 6.44042 	 98.9452
| 24> C 	 47.8028 	 6.581 	 97.278
| 25> C 	 47.5643 	 7.87038 	 96.9373
| 26> C 	 47.6876 	 8.84631 	 98.0285
| 27> C 	 48.1563 	 8.24785 	 99.1668
| 28> H 	 47.257 	 8.16149 	 95.9053
| 29> C 	 47.4106 	 10.3142 	 97.7909
| 30> H 	 47.8851 	 10.8175 	 96.9649
| 31> H 	 47.7449 	 10.7693 	 98.677
| 32> C 	 45.8738 	 10.6389 	 97.7006
| 33> H 	 45.3989 	 9.8485 	 97.1175
| 34> H 	 45.7808 	 11.6447 	 97.3475
| 35> C 	 45.2225 	 10.5987 	 99.0515
| 36> H 	 45.418 	 9.50709 	 99.3581
| 37> H 	 44.1758 	 10.8725 	 99.0592
| 38> H 	 45.7353 	 11.272 	 99.7497
| 39> H 	 48.7704 	 10.003 	 103.826
| 40> H 	 47.7806 	 5.71238 	 96.6371
| 41> *
| 42>
| 43>                          ****END OF INPUT****

CARTESIAN COORDINATES (ANGSTROEM)
---------------------------------
  S     47.583600    8.651370  101.929000
  C     48.813300    9.570920  102.851000
  C     49.911000    9.883730  102.051000
  C     49.730100    9.395230  100.745000
  C     48.557200    8.761750  100.459000
  H     50.378300    9.545130   99.926700
  C     51.112100   10.786800  102.439000
  H     51.008500   11.153800  103.446000
  H     51.221100   11.607100  101.795000
  C     52.462400   10.023900  102.429000
  H     52.398000    9.358700  103.271000
  H     52.495200    9.362440  101.613000
  C     53.751900   10.937100  102.318000
  H     54.612600   10.367300  102.609000
  H     54.021900   11.040000  101.205000
  H     53.757200   11.887400  102.851000
  S     48.259200    6.440420   98.945200
  C     47.802800    6.581000   97.278000
  C     47.564300    7.870380   96.937300
  C     47.687600    8.846310   98.028500
  C     48.156300    8.247850   99.166800
  H     47.257000    8.161490   95.905300
  C     47.410600   10.314200   97.790900
  H     47.885100   10.817500   96.964900
  H     47.744900   10.769300   98.677000
  C     45.873800   10.638900   97.700600
  H     45.398900    9.848500   97.117500
  H     45.780800   11.644700   97.347500
  C     45.222500   10.598700   99.051500
  H     45.418000    9.507090   99.358100
  H     44.175800   10.872500   99.059200
  H     45.735300   11.272000   99.749700
  H     48.770400   10.003000  103.826000
  H     47.780600    5.712380   96.637100

 Total Charge           Charge          ....    0
 Multiplicity           Mult            ....    1
 Number of Electrons    NEL             ....  134
 Basis Dimension        Dim             ....  322

ORBITAL ENERGIES
----------------

  NO   OCC          E(Eh)            E(eV)
   0   2.0000     -88.969019     -2420.9701
   1   2.0000     -88.960593     -2420.7408
   2   2.0000     -10.331623      -281.1378
   3   2.0000     -10.327492      -281.0253
   4   2.0000     -10.318640      -280.7845
   5   2.0000     -10.317743      -280.7601
   6   2.0000     -10.310283      -280.5571
   7   2.0000     -10.303308      -280.3673
   8   2.0000     -10.297165      -280.2001
   9   2.0000     -10.291387      -280.0429
  10   2.0000     -10.287932      -279.9489
  11   2.0000     -10.287526      -279.9378
  12   2.0000     -10.287089      -279.9259
  13   2.0000     -10.284092      -279.8444
  14   2.0000     -10.280674      -279.7514
  15   2.0000     -10.272376      -279.5256
  16   2.0000      -8.082442      -219.9344
  17   2.0000      -8.075257      -219.7389
  18   2.0000      -6.041090      -164.3864
  19   2.0000      -6.037118      -164.2783
  20   2.0000      -6.033912      -164.1911
  21   2.0000      -6.033115      -164.1694
  22   2.0000      -6.029864      -164.0809
  23   2.0000      -6.025763      -163.9693
  24   2.0000      -1.003330       -27.3020
  25   2.0000      -0.981109       -26.6973
  26   2.0000      -0.912024       -24.8174
  27   2.0000      -0.906879       -24.6774
  28   2.0000      -0.870147       -23.6779
  29   2.0000      -0.847182       -23.0530
  30   2.0000      -0.842368       -22.9220
  31   2.0000      -0.813247       -22.1296
  32   2.0000      -0.784162       -21.3381
  33   2.0000      -0.774539       -21.0763
  34   2.0000      -0.708859       -19.2890
  35   2.0000      -0.700631       -19.0651
  36   2.0000      -0.690814       -18.7980
  37   2.0000      -0.655862       -17.8469
  38   2.0000      -0.645679       -17.5698
  39   2.0000      -0.621138       -16.9020
  40   2.0000      -0.606324       -16.4989
  41   2.0000      -0.567823       -15.4512
  42   2.0000      -0.561608       -15.2821
  43   2.0000      -0.559470       -15.2240
  44   2.0000      -0.542960       -14.7747
  45   2.0000      -0.523818       -14.2538
  46   2.0000      -0.515239       -14.0204
  47   2.0000      -0.508124       -13.8268
  48   2.0000      -0.502889       -13.6843
  49   2.0000      -0.494006       -13.4426
  50   2.0000      -0.492240       -13.3945
  51   2.0000      -0.481979       -13.1153
  52   2.0000      -0.470020       -12.7899
  53   2.0000      -0.463687       -12.6176
  54   2.0000      -0.457060       -12.4372
  55   2.0000      -0.447738       -12.1836
  56   2.0000      -0.440655       -11.9908
  57   2.0000      -0.436344       -11.8735
  58   2.0000      -0.427239       -11.6258
  59   2.0000      -0.425220       -11.5708
  60   2.0000      -0.420609       -11.4453
  61   2.0000      -0.416010       -11.3202
  62   2.0000      -0.411343       -11.1932
  63   2.0000      -0.336722        -9.1627
  64   2.0000      -0.331959        -9.0331
  65   2.0000      -0.326828        -8.8934
  66   2.0000      -0.309892        -8.4326
  67   0.0000       0.041722         1.1353
  68   0.0000       0.052732         1.4349
  69   0.0000       0.112775         3.0688
  70   0.0000       0.120379         3.2757
  71   0.0000       0.122956         3.3458

MULLIKEN ATOMIC CHARGES
-----------------------
   0 S :    0.118718
   1 C :   -0.106280
   2 C :   -0.096129
   3 C :    0.064540
   4 C :   -0.176097
   5 H :   -0.006013
   6 C :    0.118129
   7 H :    0.012360
   8 H :    0.019791
   9 C :   -0.078855
  10 H :    0.022172
  11 H :    0.016051
  12 C :   -0.063372
  13 H :    0.027688
  14 H :    0.038860
  15 H :    0.047116
  16 S :    0.086838
  17 C :   -0.077447
  18 C :   -0.036486
  19 C :   -0.036648
  20 C :   -0.188662
  21 H :    0.031382
  22 C :    0.101154
  23 H :    0.034799
  24 H :    0.001154
  25 C :   -0.059162
  26 H :    0.033499
  27 H :    0.023765
  28 C :   -0.078395
  29 H :    0.041189
  30 H :    0.040247
  31 H :    0.027990
  32 H :    0.035109
  33 H :    0.060997
Sum of atomic charges:   -0.0000000

LOEWDIN ATOMIC CHARGES
----------------------
   0 S :    0.390303
   1 C :   -0.180502
   2 C :   -0.061129
   3 C :   -0.052580
   4 C :   -0.197647
   5 H :    0.025444
   6 C :   -0.017523
   7 H :    0.026301
   8 H :    0.021969
   9 C :   -0.035676
  10 H :    0.021003
  11 H :    0.016098
  12 C :   -0.073824
  13 H :    0.025698
  14 H :    0.037670
  15 H :    0.025282
  16 S :    0.371725
  17 C :   -0.177936
  18 C :   -0.079544
  19 C :   -0.046253
  20 C :   -0.178006
  21 H :    0.035804
  22 C :   -0.024228
  23 H :    0.032036
  24 H :    0.022783
  25 C :   -0.034742
  26 H :    0.024293
  27 H :    0.018287
  28 C :   -0.070225
  29 H :    0.033517
  30 H :    0.023064
  31 H :    0.021488
  32 H :    0.026298
  33 H :    0.030750

  Mayer bond orders larger than 0.100000
B(  0-S ,  1-C ) :   1.1356 B(  0-S ,  4-C ) :   1.1264 B(  1-C ,  2-C ) :   1.6268
B(  1-C , 32-H ) :   0.9645 B(  2-C ,  3-C ) :   1.2270 B(  2-C ,  6-C ) :   1.0279
B(  3-C ,  4-C ) :   1.6129 B(  3-C ,  5-H ) :   0.9976 B(  4-C , 20-C ) :   1.0316
B(  6-C ,  7-H ) :   0.9390 B(  6-C ,  8-H ) :   0.9476 B(  6-C ,  9-C ) :   1.0470
B(  9-C , 10-H ) :   0.9603 B(  9-C , 11-H ) :   0.9656 B(  9-C , 12-C ) :   1.0647
B( 12-C , 13-H ) :   0.9731 B( 12-C , 14-H ) :   0.9755 B( 12-C , 15-H ) :   0.9792
B( 16-S , 17-C ) :   1.1399 B( 16-S , 20-C ) :   1.1146 B( 17-C , 18-C ) :   1.6472
B( 17-C , 33-H ) :   0.9683 B( 18-C , 19-C ) :   1.1853 B( 18-C , 21-H ) :   0.9813
B( 19-C , 20-C ) :   1.6529 B( 19-C , 22-C ) :   1.0443 B( 22-C , 23-H ) :   0.9451
B( 22-C , 24-H ) :   0.9242 B( 22-C , 25-C ) :   1.0625 B( 25-C , 26-H ) :   0.9618
B( 25-C , 27-H ) :   0.9547 B( 25-C , 28-C ) :   1.0771 B( 28-C , 29-H ) :   0.9765
B( 28-C , 30-H ) :   0.9733 B( 28-C , 31-H ) :   0.9729

Dispersion correction           -0.014660205
FINAL SINGLE POINT ENERGY     -1339.870304522819

DIPOLE MOMENT
-------------
                                X             Y             Z
Electronic contribution:     -9.27601     -18.79622      -0.16857
Nuclear contribution   :      9.62171      19.35677      -0.11698
                        -----------------------------------------
Total Dipole Moment    :      0.34570       0.56054      -0.28555
                        -----------------------------------------
Magnitude (a.u.)       :      0.71781
Magnitude (Debye)      :      1.82453

Rotational constants in cm-1:     0.019493     0.007678     0.007147
Rotational constants in MHz :   584.395631   230.183441   214.259153

                             ****ORCA TERMINATED NORMALLY****
TOTAL RUN TIME: 0 days 0 hours 0 minutes 30 seconds 829 msec
