                         Program Version 4.2.1 -  RELEASE  -
|  1> ! wB97X-D3 SP def2-SVP
|  2> %pal
|  3> nprocs 16
|  4> end
|  5>
|  6> * xyz 0 1
|  7> S 	 -46.8117 	 49.4421 	 101.29
|  8> C 	 -45.7312 	 50.6127 	 102.017
|  9> C 	 -44.867 	 50.0373 	 102.92
| 10> C 	 -44.9724 	 48.6513 	 102.853
| 11> C 	 -46.0321 	 48.1912 	 102.148
| 12> H 	 -44.5004 	 47.9767 	 103.557
| 13> C 	 -43.9685 	 50.9188 	 103.797
| 14> H 	 -43.6322 	 51.7396 	 103.158
| 15> H 	 -43.0809 	 50.3576 	 104.165
| 16> C 	 -44.7485 	 51.6162 	 104.883
| 17> H 	 -45.7184 	 51.9312 	 104.467
| 18> H 	 -44.8298 	 50.8474 	 105.7
| 19> C 	 -44.1459 	 52.8382 	 105.459
| 20> H 	 -43.2784 	 52.537 	 105.942
| 21> H 	 -43.8981 	 53.5609 	 104.712
| 22> H 	 -44.8473 	 53.2308 	 106.162
| 23> S 	 -46.1989 	 46.0052 	 100.678
| 24> C 	 -46.6205 	 44.4304 	 101.379
| 25> C 	 -46.9163 	 44.6267 	 102.685
| 26> C 	 -46.9726 	 45.9786 	 103.083
| 27> C 	 -46.5316 	 46.8508 	 102.111
| 28> H 	 -47.2274 	 43.8485 	 103.348
| 29> C 	 -47.3443 	 46.4247 	 104.504
| 30> H 	 -47.0237 	 47.4858 	 104.602
| 31> H 	 -46.6985 	 45.821 	 105.153
| 32> C 	 -48.7935 	 46.3552 	 104.966
| 33> H 	 -49.1008 	 45.3497 	 104.936
| 34> H 	 -49.4952 	 46.8778 	 104.263
| 35> C 	 -48.9927 	 46.9263 	 106.401
| 36> H 	 -48.7451 	 47.9472 	 106.369
| 37> H 	 -48.4566 	 46.5313 	 107.253
| 38> H 	 -50.0725 	 46.8465 	 106.611
| 39> H 	 -45.727 	 51.7109 	 102
| 40> H 	 -46.448 	 43.543 	 100.848
| 41> *
| 42>
| 43>                          ****END OF INPUT****

CARTESIAN COORDINATES (ANGSTROEM)
---------------------------------
  S    -46.811700   49.442100  101.290000
  C    -45.731200   50.612700  102.017000
  C    -44.867000   50.037300  102.920000
  C    -44.972400   48.651300  102.853000
  C    -46.032100   48.191200  102.148000
  H    -44.500400   47.976700  103.557000
  C    -43.968500   50.918800  103.797000
  H    -43.632200   51.739600  103.158000
  H    -43.080900   50.357600  104.165000
  C    -44.748500   51.616200  104.883000
  H    -45.718400   51.931200  104.467000
  H    -44.829800   50.847400  105.700000
  C    -44.145900   52.838200  105.459000
  H    -43.278400   52.537000  105.942000
  H    -43.898100   53.560900  104.712000
  H    -44.847300   53.230800  106.162000
  S    -46.198900   46.005200  100.678000
  C    -46.620500   44.430400  101.379000
  C    -46.916300   44.626700  102.685000
  C    -46.972600   45.978600  103.083000
  C    -46.531600   46.850800  102.111000
  H    -47.227400   43.848500  103.348000
  C    -47.344300   46.424700  104.504000
  H    -47.023700   47.485800  104.602000
  H    -46.698500   45.821000  105.153000
  C    -48.793500   46.355200  104.966000
  H    -49.100800   45.349700  104.936000
  H    -49.495200   46.877800  104.263000
  C    -48.992700   46.926300  106.401000
  H    -48.745100   47.947200  106.369000
  H    -48.456600   46.531300  107.253000
  H    -50.072500   46.846500  106.611000
  H    -45.727000   51.710900  102.000000
  H    -46.448000   43.543000  100.848000

 Total Charge           Charge          ....    0
 Multiplicity           Mult            ....    1
 Number of Electrons    NEL             ....  134
 Basis Dimension        Dim             ....  322

ORBITAL ENERGIES
----------------

  NO   OCC          E(Eh)            E(eV)
   0   2.0000     -88.968259     -2420.9494
   1   2.0000     -88.958385     -2420.6807
   2   2.0000     -10.319242      -280.8008
   3   2.0000     -10.316540      -280.7273
   4   2.0000     -10.314325      -280.6670
   5   2.0000     -10.308876      -280.5188
   6   2.0000     -10.298164      -280.2273
   7   2.0000     -10.295144      -280.1451
   8   2.0000     -10.294598      -280.1303
   9   2.0000     -10.290277      -280.0127
  10   2.0000     -10.289534      -279.9924
  11   2.0000     -10.285657      -279.8869
  12   2.0000     -10.285556      -279.8842
  13   2.0000     -10.284026      -279.8426
  14   2.0000     -10.274750      -279.5902
  15   2.0000     -10.266160      -279.3564
  16   2.0000      -8.083551      -219.9646
  17   2.0000      -8.074356      -219.7144
  18   2.0000      -6.041977      -164.4105
  19   2.0000      -6.037953      -164.3010
  20   2.0000      -6.034402      -164.2044
  21   2.0000      -6.032788      -164.1605
  22   2.0000      -6.028504      -164.0439
  23   2.0000      -6.025290      -163.9565
  24   2.0000      -1.019156       -27.7327
  25   2.0000      -0.993102       -27.0237
  26   2.0000      -0.923633       -25.1333
  27   2.0000      -0.904581       -24.6149
  28   2.0000      -0.879780       -23.9400
  29   2.0000      -0.855129       -23.2692
  30   2.0000      -0.848195       -23.0806
  31   2.0000      -0.821124       -22.3439
  32   2.0000      -0.786196       -21.3935
  33   2.0000      -0.772055       -21.0087
  34   2.0000      -0.706477       -19.2242
  35   2.0000      -0.700066       -19.0498
  36   2.0000      -0.691893       -18.8274
  37   2.0000      -0.667422       -18.1615
  38   2.0000      -0.640797       -17.4370
  39   2.0000      -0.619828       -16.8664
  40   2.0000      -0.600052       -16.3283
  41   2.0000      -0.585589       -15.9347
  42   2.0000      -0.565644       -15.3919
  43   2.0000      -0.561012       -15.2659
  44   2.0000      -0.534575       -14.5465
  45   2.0000      -0.526034       -14.3141
  46   2.0000      -0.520418       -14.1613
  47   2.0000      -0.518649       -14.1132
  48   2.0000      -0.508179       -13.8282
  49   2.0000      -0.500518       -13.6198
  50   2.0000      -0.499647       -13.5961
  51   2.0000      -0.480358       -13.0712
  52   2.0000      -0.469226       -12.7683
  53   2.0000      -0.464732       -12.6460
  54   2.0000      -0.462024       -12.5723
  55   2.0000      -0.446787       -12.1577
  56   2.0000      -0.441940       -12.0258
  57   2.0000      -0.438357       -11.9283
  58   2.0000      -0.436902       -11.8887
  59   2.0000      -0.422732       -11.5031
  60   2.0000      -0.420338       -11.4380
  61   2.0000      -0.418414       -11.3856
  62   2.0000      -0.411949       -11.2097
  63   2.0000      -0.343474        -9.3464
  64   2.0000      -0.335626        -9.1329
  65   2.0000      -0.321423        -8.7464
  66   2.0000      -0.302206        -8.2234
  67   0.0000       0.043126         1.1735
  68   0.0000       0.060003         1.6328
  69   0.0000       0.119205         3.2437
  70   0.0000       0.126098         3.4313
  71   0.0000       0.133463         3.6317

MULLIKEN ATOMIC CHARGES
-----------------------
   0 S :    0.136630
   1 C :   -0.110059
   2 C :   -0.115932
   3 C :    0.068792
   4 C :   -0.194467
   5 H :    0.005781
   6 C :    0.073743
   7 H :    0.014960
   8 H :    0.033524
   9 C :   -0.116346
  10 H :    0.027895
  11 H :    0.030544
  12 C :    0.026768
  13 H :    0.009713
  14 H :    0.020405
  15 H :    0.032610
  16 S :    0.093388
  17 C :   -0.070385
  18 C :   -0.010409
  19 C :   -0.045282
  20 C :   -0.150860
  21 H :    0.011379
  22 C :    0.046784
  23 H :    0.027365
  24 H :    0.024611
  25 C :   -0.051070
  26 H :    0.010954
  27 H :    0.037311
  28 C :   -0.040647
  29 H :    0.019749
  30 H :    0.031321
  31 H :    0.035309
  32 H :    0.040157
  33 H :    0.045762
Sum of atomic charges:    0.0000000

LOEWDIN ATOMIC CHARGES
----------------------
   0 S :    0.433370
   1 C :   -0.205167
   2 C :   -0.061425
   3 C :   -0.064394
   4 C :   -0.215474
   5 H :    0.031319
   6 C :   -0.031941
   7 H :    0.029096
   8 H :    0.032658
   9 C :   -0.045163
  10 H :    0.023677
  11 H :    0.028454
  12 C :   -0.052751
  13 H :    0.016266
  14 H :    0.020498
  15 H :    0.028929
  16 S :    0.420686
  17 C :   -0.164428
  18 C :   -0.068239
  19 C :   -0.061199
  20 C :   -0.219947
  21 H :    0.028878
  22 C :   -0.035304
  23 H :    0.031387
  24 H :    0.030188
  25 C :   -0.036535
  26 H :    0.012258
  27 H :    0.033207
  28 C :   -0.062512
  29 H :    0.018350
  30 H :    0.024004
  31 H :    0.031426
  32 H :    0.029535
  33 H :    0.020292

  Mayer bond orders larger than 0.100000
B(  0-S ,  1-C ) :   1.1417 B(  0-S ,  4-C ) :   1.1688 B(  1-C ,  2-C ) :   1.6159
B(  1-C ,  4-C ) :   0.1027 B(  1-C , 32-H ) :   0.9573 B(  2-C ,  3-C ) :   1.2750
B(  2-C ,  6-C ) :   1.0179 B(  3-C ,  4-C ) :   1.5790 B(  3-C ,  5-H ) :   0.9927
B(  4-C , 20-C ) :   0.9835 B(  6-C ,  7-H ) :   0.9361 B(  6-C ,  8-H ) :   0.9415
B(  6-C ,  9-C ) :   1.0652 B(  9-C , 10-H ) :   0.9580 B(  9-C , 11-H ) :   0.9500
B(  9-C , 12-C ) :   1.0945 B( 12-C , 13-H ) :   0.9686 B( 12-C , 14-H ) :   0.9701
B( 12-C , 15-H ) :   0.9702 B( 16-S , 17-C ) :   1.1547 B( 16-S , 20-C ) :   1.1741
B( 17-C , 18-C ) :   1.5775 B( 17-C , 20-C ) :   0.1010 B( 17-C , 33-H ) :   0.9815
B( 18-C , 19-C ) :   1.2680 B( 18-C , 21-H ) :   0.9935 B( 19-C , 20-C ) :   1.5950
B( 19-C , 22-C ) :   1.0340 B( 22-C , 23-H ) :   0.9370 B( 22-C , 24-H ) :   0.9345
B( 22-C , 25-C ) :   1.0702 B( 25-C , 26-H ) :   0.9545 B( 25-C , 27-H ) :   0.9514
B( 25-C , 28-C ) :   1.0787 B( 28-C , 29-H ) :   0.9762 B( 28-C , 30-H ) :   0.9769
B( 28-C , 31-H ) :   0.9749

Dispersion correction           -0.013748392
FINAL SINGLE POINT ENERGY     -1339.870900089584

DIPOLE MOMENT
-------------
                                X             Y             Z
Electronic contribution:     -0.05080     -11.48620     -27.68034
Nuclear contribution   :      0.17440      11.53289      28.44406
                        -----------------------------------------
Total Dipole Moment    :      0.12360       0.04669       0.76373
                        -----------------------------------------
Magnitude (a.u.)       :      0.77507
Magnitude (Debye)      :      1.97008

Rotational constants in cm-1:     0.018112     0.008536     0.006592
Rotational constants in MHz :   542.970508   255.903007   197.625636

                             ****ORCA TERMINATED NORMALLY****
TOTAL RUN TIME: 0 days 0 hours 0 minutes 29 seconds 687 msec
