                         Program Version 4.2.1 -  RELEASE  -
|  1> ! wB97X-D3 SP def2-SVP
|  2> %pal
|  3> nprocs 16
|  4> end
|  5>
|  6> * xyz 0 1
|  7> S 	 -113.946 	 41.0655 	 131.554
|  8> C 	 -114.64 	 40.105 	 132.854
|  9> C 	 -114.577 	 40.7843 	 134.018
| 10> C 	 -114.24 	 42.1584 	 133.916
| 11> C 	 -113.846 	 42.4512 	 132.629
| 12> H 	 -114.203 	 42.9742 	 134.647
| 13> C 	 -115.244 	 40.2345 	 135.36
| 14> H 	 -115.654 	 39.2349 	 135.173
| 15> H 	 -116.057 	 40.9441 	 135.555
| 16> C 	 -114.2 	 40.2293 	 136.553
| 17> H 	 -114.354 	 39.3317 	 137.236
| 18> H 	 -113.198 	 40.0861 	 136.207
| 19> C 	 -114.254 	 41.517 	 137.394
| 20> H 	 -115.119 	 41.4447 	 138.123
| 21> H 	 -113.387 	 41.6596 	 138.072
| 22> H 	 -114.282 	 42.5239 	 136.852
| 23> S 	 -111.739 	 43.9114 	 131.367
| 24> C 	 -112.055 	 45.5132 	 130.902
| 25> C 	 -113.134 	 46.0221 	 131.53
| 26> C 	 -113.882 	 44.9962 	 132.276
| 27> C 	 -113.331 	 43.7684 	 132.155
| 28> H 	 -113.38 	 47.0296 	 131.287
| 29> C 	 -115.175 	 45.2504 	 132.996
| 30> H 	 -115.743 	 44.3632 	 133.11
| 31> H 	 -115.851 	 45.9801 	 132.449
| 32> C 	 -114.984 	 45.8584 	 134.386
| 33> H 	 -114.773 	 46.9089 	 134.352
| 34> H 	 -114.131 	 45.4264 	 134.891
| 35> C 	 -116.249 	 45.6538 	 135.205
| 36> H 	 -117.152 	 45.9312 	 134.613
| 37> H 	 -116.107 	 46.1978 	 136.175
| 38> H 	 -116.271 	 44.6309 	 135.584
| 39> H 	 -115.05 	 39.0925 	 132.739
| 40> H 	 -111.429 	 46.1162 	 130.218
| 41> *
| 42>
| 43>                          ****END OF INPUT****

CARTESIAN COORDINATES (ANGSTROEM)
---------------------------------
  S    -113.946000   41.065500  131.554000
  C    -114.640000   40.105000  132.854000
  C    -114.577000   40.784300  134.018000
  C    -114.240000   42.158400  133.916000
  C    -113.846000   42.451200  132.629000
  H    -114.203000   42.974200  134.647000
  C    -115.244000   40.234500  135.360000
  H    -115.654000   39.234900  135.173000
  H    -116.057000   40.944100  135.555000
  C    -114.200000   40.229300  136.553000
  H    -114.354000   39.331700  137.236000
  H    -113.198000   40.086100  136.207000
  C    -114.254000   41.517000  137.394000
  H    -115.119000   41.444700  138.123000
  H    -113.387000   41.659600  138.072000
  H    -114.282000   42.523900  136.852000
  S    -111.739000   43.911400  131.367000
  C    -112.055000   45.513200  130.902000
  C    -113.134000   46.022100  131.530000
  C    -113.882000   44.996200  132.276000
  C    -113.331000   43.768400  132.155000
  H    -113.380000   47.029600  131.287000
  C    -115.175000   45.250400  132.996000
  H    -115.743000   44.363200  133.110000
  H    -115.851000   45.980100  132.449000
  C    -114.984000   45.858400  134.386000
  H    -114.773000   46.908900  134.352000
  H    -114.131000   45.426400  134.891000
  C    -116.249000   45.653800  135.205000
  H    -117.152000   45.931200  134.613000
  H    -116.107000   46.197800  136.175000
  H    -116.271000   44.630900  135.584000
  H    -115.050000   39.092500  132.739000
  H    -111.429000   46.116200  130.218000

 Total Charge           Charge          ....    0
 Multiplicity           Mult            ....    1
 Number of Electrons    NEL             ....  134
 Basis Dimension        Dim             ....  322

ORBITAL ENERGIES
----------------

  NO   OCC          E(Eh)            E(eV)
   0   2.0000     -88.966736     -2420.9080
   1   2.0000     -88.958309     -2420.6786
   2   2.0000     -10.332286      -281.1558
   3   2.0000     -10.324524      -280.9446
   4   2.0000     -10.314771      -280.6792
   5   2.0000     -10.312002      -280.6038
   6   2.0000     -10.302659      -280.3496
   7   2.0000     -10.302374      -280.3419
   8   2.0000     -10.301775      -280.3256
   9   2.0000     -10.297477      -280.2086
  10   2.0000     -10.294992      -280.1410
  11   2.0000     -10.291744      -280.0526
  12   2.0000     -10.289764      -279.9987
  13   2.0000     -10.288726      -279.9705
  14   2.0000     -10.283444      -279.8267
  15   2.0000     -10.280792      -279.7546
  16   2.0000      -8.081297      -219.9033
  17   2.0000      -8.074136      -219.7084
  18   2.0000      -6.039832      -164.3522
  19   2.0000      -6.035888      -164.2449
  20   2.0000      -6.032735      -164.1591
  21   2.0000      -6.031969      -164.1382
  22   2.0000      -6.028612      -164.0469
  23   2.0000      -6.024602      -163.9378
  24   2.0000      -1.008843       -27.4520
  25   2.0000      -0.989333       -26.9211
  26   2.0000      -0.915595       -24.9146
  27   2.0000      -0.899326       -24.4719
  28   2.0000      -0.870283       -23.6816
  29   2.0000      -0.849326       -23.1113
  30   2.0000      -0.842969       -22.9384
  31   2.0000      -0.818106       -22.2618
  32   2.0000      -0.779018       -21.1982
  33   2.0000      -0.769082       -20.9278
  34   2.0000      -0.701510       -19.0891
  35   2.0000      -0.696854       -18.9624
  36   2.0000      -0.695090       -18.9144
  37   2.0000      -0.657819       -17.9002
  38   2.0000      -0.642395       -17.4805
  39   2.0000      -0.618417       -16.8280
  40   2.0000      -0.599114       -16.3027
  41   2.0000      -0.571363       -15.5476
  42   2.0000      -0.565947       -15.4002
  43   2.0000      -0.542498       -14.7621
  44   2.0000      -0.533426       -14.5153
  45   2.0000      -0.523335       -14.2407
  46   2.0000      -0.521299       -14.1853
  47   2.0000      -0.511495       -13.9185
  48   2.0000      -0.506632       -13.7862
  49   2.0000      -0.500279       -13.6133
  50   2.0000      -0.485696       -13.2165
  51   2.0000      -0.483664       -13.1612
  52   2.0000      -0.473046       -12.8722
  53   2.0000      -0.464311       -12.6346
  54   2.0000      -0.456005       -12.4085
  55   2.0000      -0.445888       -12.1332
  56   2.0000      -0.441957       -12.0263
  57   2.0000      -0.439799       -11.9675
  58   2.0000      -0.436652       -11.8819
  59   2.0000      -0.426397       -11.6029
  60   2.0000      -0.422187       -11.4883
  61   2.0000      -0.412857       -11.2344
  62   2.0000      -0.405036       -11.0216
  63   2.0000      -0.347688        -9.4611
  64   2.0000      -0.334958        -9.1147
  65   2.0000      -0.324444        -8.8286
  66   2.0000      -0.300974        -8.1899
  67   0.0000       0.035391         0.9630
  68   0.0000       0.075342         2.0502
  69   0.0000       0.110776         3.0144
  70   0.0000       0.119259         3.2452
  71   0.0000       0.124991         3.4012

MULLIKEN ATOMIC CHARGES
-----------------------
   0 S :    0.116657
   1 C :   -0.139859
   2 C :   -0.048581
   3 C :    0.032701
   4 C :   -0.167420
   5 H :    0.007471
   6 C :    0.039755
   7 H :    0.023608
   8 H :    0.046776
   9 C :   -0.058262
  10 H :    0.039764
  11 H :    0.034244
  12 C :   -0.112780
  13 H :    0.041646
  14 H :    0.035728
  15 H :    0.042916
  16 S :    0.098758
  17 C :   -0.098004
  18 C :   -0.016342
  19 C :   -0.020093
  20 C :   -0.155194
  21 H :    0.006535
  22 C :    0.048924
  23 H :    0.021209
  24 H :    0.033000
  25 C :   -0.077393
  26 H :    0.023971
  27 H :    0.024176
  28 C :   -0.060016
  29 H :    0.050330
  30 H :    0.035280
  31 H :    0.026073
  32 H :    0.059178
  33 H :    0.065246
Sum of atomic charges:   -0.0000000

LOEWDIN ATOMIC CHARGES
----------------------
   0 S :    0.399166
   1 C :   -0.196066
   2 C :   -0.063988
   3 C :   -0.065020
   4 C :   -0.180080
   5 H :    0.034884
   6 C :   -0.020307
   7 H :    0.026377
   8 H :    0.031989
   9 C :   -0.046615
  10 H :    0.033623
  11 H :    0.021511
  12 C :   -0.084857
  13 H :    0.030229
  14 H :    0.027875
  15 H :    0.028167
  16 S :    0.391917
  17 C :   -0.194390
  18 C :   -0.074334
  19 C :   -0.051484
  20 C :   -0.190076
  21 H :    0.027553
  22 C :   -0.032807
  23 H :    0.023465
  24 H :    0.036655
  25 C :   -0.041584
  26 H :    0.019734
  27 H :    0.018034
  28 C :   -0.069093
  29 H :    0.031660
  30 H :    0.031970
  31 H :    0.021828
  32 H :    0.035887
  33 H :    0.038175

  Mayer bond orders larger than 0.100000
B(  0-S ,  1-C ) :   1.1196 B(  0-S ,  4-C ) :   1.1571 B(  1-C ,  2-C ) :   1.6506
B(  1-C , 32-H ) :   0.9652 B(  2-C ,  3-C ) :   1.1975 B(  2-C ,  6-C ) :   1.0130
B(  3-C ,  4-C ) :   1.5971 B(  3-C ,  5-H ) :   0.9906 B(  4-C , 20-C ) :   1.0223
B(  6-C ,  7-H ) :   0.9504 B(  6-C ,  8-H ) :   0.9590 B(  6-C ,  9-C ) :   1.0290
B(  9-C , 10-H ) :   0.9597 B(  9-C , 11-H ) :   0.9659 B(  9-C , 12-C ) :   1.0678
B( 12-C , 13-H ) :   0.9762 B( 12-C , 14-H ) :   0.9726 B( 12-C , 15-H ) :   0.9736
B( 16-S , 17-C ) :   1.1451 B( 16-S , 20-C ) :   1.1122 B( 17-C , 18-C ) :   1.6631
B( 17-C , 33-H ) :   0.9600 B( 18-C , 19-C ) :   1.1689 B( 18-C , 21-H ) :   0.9990
B( 19-C , 20-C ) :   1.6604 B( 19-C , 22-C ) :   1.0671 B( 22-C , 23-H ) :   0.9368
B( 22-C , 24-H ) :   0.9282 B( 22-C , 25-C ) :   1.0515 B( 25-C , 26-H ) :   0.9515
B( 25-C , 27-H ) :   0.9531 B( 25-C , 28-C ) :   1.0923 B( 28-C , 29-H ) :   0.9695
B( 28-C , 30-H ) :   0.9704 B( 28-C , 31-H ) :   0.9727

Dispersion correction           -0.015084869
FINAL SINGLE POINT ENERGY     -1339.876837426560

DIPOLE MOMENT
-------------
                                X             Y             Z
Electronic contribution:     13.92050      -5.10182     -26.99575
Nuclear contribution   :    -14.28746       5.29659      27.48134
                        -----------------------------------------
Total Dipole Moment    :     -0.36696       0.19477       0.48559
                        -----------------------------------------
Magnitude (a.u.)       :      0.63906
Magnitude (Debye)      :      1.62436

Rotational constants in cm-1:     0.017018     0.010056     0.007382
Rotational constants in MHz :   510.195731   301.458793   221.304232

                             ****ORCA TERMINATED NORMALLY****
TOTAL RUN TIME: 0 days 0 hours 0 minutes 36 seconds 254 msec
