                         Program Version 4.2.1 -  RELEASE  -
|  1> ! wB97X-D3 SP def2-SVP
|  2> %pal
|  3> nprocs 16
|  4> end
|  5>
|  6> * xyz 0 1
|  7> S 	 37.7935 	 12.8319 	 81.6213
|  8> C 	 38.1137 	 14.544 	 81.3319
|  9> C 	 38.2549 	 15.2127 	 82.5029
| 10> C 	 37.7569 	 14.4507 	 83.6176
| 11> C 	 37.4817 	 13.1209 	 83.3028
| 12> H 	 37.7269 	 14.75 	 84.684
| 13> C 	 38.9107 	 16.5988 	 82.6513
| 14> H 	 38.6316 	 17.0526 	 83.5768
| 15> H 	 38.6095 	 17.2656 	 81.8247
| 16> C 	 40.491 	 16.6187 	 82.618
| 17> H 	 40.7236 	 16.3518 	 81.6275
| 18> H 	 40.8886 	 17.6293 	 82.6383
| 19> C 	 41.2013 	 15.6738 	 83.5476
| 20> H 	 42.2028 	 16.0439 	 83.7279
| 21> H 	 40.7151 	 15.6145 	 84.5228
| 22> H 	 41.2917 	 14.8006 	 82.887
| 23> S 	 35.4577 	 11.7882 	 84.3465
| 24> C 	 35.7916 	 10.4966 	 85.4019
| 25> C 	 37.1059 	 10.2934 	 85.5207
| 26> C 	 37.9395 	 11.2029 	 84.8762
| 27> C 	 37.1412 	 12.0473 	 84.1899
| 28> H 	 37.4806 	 9.61303 	 86.1946
| 29> C 	 39.4227 	 11.2512 	 85.1055
| 30> H 	 39.9607 	 11.0954 	 84.1717
| 31> H 	 39.5923 	 10.3403 	 85.6603
| 32> C 	 40.0395 	 12.4702 	 85.8776
| 33> H 	 40.0088 	 13.4753 	 85.4125
| 34> H 	 41.0876 	 12.3735 	 85.809
| 35> C 	 39.69 	 12.384 	 87.3929
| 36> H 	 38.7592 	 12.9091 	 87.5612
| 37> H 	 40.3624 	 12.923 	 88.0955
| 38> H 	 39.5424 	 11.3639 	 87.7887
| 39> H 	 38.4364 	 15.0321 	 80.4343
| 40> H 	 35.1595 	 9.74267 	 85.9632
| 41> *
| 42>
| 43>                          ****END OF INPUT****

CARTESIAN COORDINATES (ANGSTROEM)
---------------------------------
  S     37.793500   12.831900   81.621300
  C     38.113700   14.544000   81.331900
  C     38.254900   15.212700   82.502900
  C     37.756900   14.450700   83.617600
  C     37.481700   13.120900   83.302800
  H     37.726900   14.750000   84.684000
  C     38.910700   16.598800   82.651300
  H     38.631600   17.052600   83.576800
  H     38.609500   17.265600   81.824700
  C     40.491000   16.618700   82.618000
  H     40.723600   16.351800   81.627500
  H     40.888600   17.629300   82.638300
  C     41.201300   15.673800   83.547600
  H     42.202800   16.043900   83.727900
  H     40.715100   15.614500   84.522800
  H     41.291700   14.800600   82.887000
  S     35.457700   11.788200   84.346500
  C     35.791600   10.496600   85.401900
  C     37.105900   10.293400   85.520700
  C     37.939500   11.202900   84.876200
  C     37.141200   12.047300   84.189900
  H     37.480600    9.613030   86.194600
  C     39.422700   11.251200   85.105500
  H     39.960700   11.095400   84.171700
  H     39.592300   10.340300   85.660300
  C     40.039500   12.470200   85.877600
  H     40.008800   13.475300   85.412500
  H     41.087600   12.373500   85.809000
  C     39.690000   12.384000   87.392900
  H     38.759200   12.909100   87.561200
  H     40.362400   12.923000   88.095500
  H     39.542400   11.363900   87.788700
  H     38.436400   15.032100   80.434300
  H     35.159500    9.742670   85.963200

 Total Charge           Charge          ....    0
 Multiplicity           Mult            ....    1
 Number of Electrons    NEL             ....  134
 Basis Dimension        Dim             ....  322

ORBITAL ENERGIES
----------------

  NO   OCC          E(Eh)            E(eV)
   0   2.0000     -88.965856     -2420.8840
   1   2.0000     -88.964249     -2420.8403
   2   2.0000     -10.322187      -280.8810
   3   2.0000     -10.311859      -280.5999
   4   2.0000     -10.308074      -280.4969
   5   2.0000     -10.307603      -280.4841
   6   2.0000     -10.299637      -280.2674
   7   2.0000     -10.295040      -280.1423
   8   2.0000     -10.294770      -280.1349
   9   2.0000     -10.293861      -280.1102
  10   2.0000     -10.290289      -280.0130
  11   2.0000     -10.288801      -279.9725
  12   2.0000     -10.280140      -279.7368
  13   2.0000     -10.279759      -279.7265
  14   2.0000     -10.276287      -279.6320
  15   2.0000     -10.272526      -279.5297
  16   2.0000      -8.082172      -219.9271
  17   2.0000      -8.078892      -219.8378
  18   2.0000      -6.040489      -164.3701
  19   2.0000      -6.037444      -164.2872
  20   2.0000      -6.036515      -164.2619
  21   2.0000      -6.033475      -164.1792
  22   2.0000      -6.032958      -164.1651
  23   2.0000      -6.029539      -164.0721
  24   2.0000      -1.020965       -27.7819
  25   2.0000      -0.989457       -26.9245
  26   2.0000      -0.910149       -24.7664
  27   2.0000      -0.907141       -24.6846
  28   2.0000      -0.875038       -23.8110
  29   2.0000      -0.854015       -23.2389
  30   2.0000      -0.843664       -22.9573
  31   2.0000      -0.813800       -22.1446
  32   2.0000      -0.786659       -21.4061
  33   2.0000      -0.775858       -21.1122
  34   2.0000      -0.717041       -19.5117
  35   2.0000      -0.700268       -19.0553
  36   2.0000      -0.696549       -18.9541
  37   2.0000      -0.664709       -18.0876
  38   2.0000      -0.637187       -17.3387
  39   2.0000      -0.607602       -16.5337
  40   2.0000      -0.592549       -16.1241
  41   2.0000      -0.576603       -15.6902
  42   2.0000      -0.553718       -15.0674
  43   2.0000      -0.549047       -14.9403
  44   2.0000      -0.546541       -14.8721
  45   2.0000      -0.534135       -14.5346
  46   2.0000      -0.516800       -14.0628
  47   2.0000      -0.513614       -13.9762
  48   2.0000      -0.501444       -13.6450
  49   2.0000      -0.492805       -13.4099
  50   2.0000      -0.482108       -13.1188
  51   2.0000      -0.477969       -13.0062
  52   2.0000      -0.473058       -12.8726
  53   2.0000      -0.469596       -12.7784
  54   2.0000      -0.463536       -12.6135
  55   2.0000      -0.446386       -12.1468
  56   2.0000      -0.441238       -12.0067
  57   2.0000      -0.437445       -11.9035
  58   2.0000      -0.434578       -11.8255
  59   2.0000      -0.431052       -11.7295
  60   2.0000      -0.425053       -11.5663
  61   2.0000      -0.411817       -11.2061
  62   2.0000      -0.408077       -11.1044
  63   2.0000      -0.338246        -9.2041
  64   2.0000      -0.325904        -8.8683
  65   2.0000      -0.318656        -8.6711
  66   2.0000      -0.314103        -8.5472
  67   0.0000       0.050176         1.3654
  68   0.0000       0.056681         1.5424
  69   0.0000       0.113501         3.0885
  70   0.0000       0.124043         3.3754
  71   0.0000       0.131017         3.5652

MULLIKEN ATOMIC CHARGES
-----------------------
   0 S :    0.119238
   1 C :   -0.101598
   2 C :   -0.102346
   3 C :    0.048988
   4 C :   -0.180730
   5 H :    0.022343
   6 C :    0.068544
   7 H :    0.017637
   8 H :    0.032703
   9 C :   -0.074241
  10 H :   -0.002174
  11 H :    0.021434
  12 C :   -0.036200
  13 H :    0.026470
  14 H :    0.043512
  15 H :    0.048296
  16 S :    0.148317
  17 C :   -0.075097
  18 C :   -0.038055
  19 C :    0.009700
  20 C :   -0.245351
  21 H :   -0.026882
  22 C :    0.109391
  23 H :    0.030321
  24 H :    0.004229
  25 C :   -0.029518
  26 H :    0.027558
  27 H :    0.010363
  28 C :   -0.070577
  29 H :    0.030904
  30 H :    0.033861
  31 H :    0.032044
  32 H :    0.033845
  33 H :    0.063071
Sum of atomic charges:   -0.0000000

LOEWDIN ATOMIC CHARGES
----------------------
   0 S :    0.407713
   1 C :   -0.195029
   2 C :   -0.065392
   3 C :   -0.065213
   4 C :   -0.205297
   5 H :    0.034778
   6 C :   -0.023812
   7 H :    0.021026
   8 H :    0.034966
   9 C :   -0.041911
  10 H :    0.012038
  11 H :    0.020552
  12 C :   -0.067619
  13 H :    0.027416
  14 H :    0.024374
  15 H :    0.038474
  16 S :    0.454429
  17 C :   -0.213901
  18 C :   -0.072878
  19 C :   -0.057533
  20 C :   -0.215933
  21 H :    0.013846
  22 C :   -0.020558
  23 H :    0.035214
  24 H :    0.029370
  25 C :   -0.040175
  26 H :    0.031289
  27 H :    0.020477
  28 C :   -0.073103
  29 H :    0.024206
  30 H :    0.028205
  31 H :    0.026334
  32 H :    0.025366
  33 H :    0.048281

  Mayer bond orders larger than 0.100000
B(  0-S ,  1-C ) :   1.1260 B(  0-S ,  4-C ) :   1.1587 B(  1-C ,  2-C ) :   1.6402
B(  1-C , 32-H ) :   0.9660 B(  2-C ,  3-C ) :   1.2224 B(  2-C ,  6-C ) :   1.0224
B(  3-C ,  4-C ) :   1.5969 B(  3-C ,  5-H ) :   0.9854 B(  4-C , 20-C ) :   1.0063
B(  6-C ,  7-H ) :   0.9462 B(  6-C ,  8-H ) :   0.9436 B(  6-C ,  9-C ) :   1.0656
B(  9-C , 10-H ) :   0.9596 B(  9-C , 11-H ) :   0.9574 B(  9-C , 12-C ) :   1.0695
B( 12-C , 13-H ) :   0.9693 B( 12-C , 14-H ) :   0.9728 B( 12-C , 15-H ) :   0.9776
B( 16-S , 17-C ) :   1.1427 B( 16-S , 20-C ) :   1.1791 B( 17-C , 18-C ) :   1.6404
B( 17-C , 33-H ) :   0.9503 B( 18-C , 19-C ) :   1.2580 B( 18-C , 21-H ) :   0.9862
B( 19-C , 20-C ) :   1.6018 B( 19-C , 22-C ) :   1.0435 B( 22-C , 23-H ) :   0.9178
B( 22-C , 24-H ) :   0.9285 B( 22-C , 25-C ) :   1.0802 B( 25-C , 26-H ) :   0.9510
B( 25-C , 27-H ) :   0.9489 B( 25-C , 28-C ) :   1.0535 B( 28-C , 29-H ) :   0.9781
B( 28-C , 30-H ) :   0.9768 B( 28-C , 31-H ) :   0.9774

Dispersion correction           -0.016377207
FINAL SINGLE POINT ENERGY     -1339.854217871657

DIPOLE MOMENT
-------------
                                X             Y             Z
Electronic contribution:    -23.08168     -11.77180     -11.74010
Nuclear contribution   :     23.73493      12.00337      12.08319
                        -----------------------------------------
Total Dipole Moment    :      0.65325       0.23156       0.34309
                        -----------------------------------------
Magnitude (a.u.)       :      0.77335
Magnitude (Debye)      :      1.96570

Rotational constants in cm-1:     0.019771     0.010269     0.007760
Rotational constants in MHz :   592.724923   307.861929   232.629042

                             ****ORCA TERMINATED NORMALLY****
TOTAL RUN TIME: 0 days 0 hours 0 minutes 31 seconds 511 msec
