                         Program Version 4.2.1 -  RELEASE  -
|  1> ! wB97X-D3 SP def2-SVP
|  2> %pal
|  3> nprocs 16
|  4> end
|  5>
|  6> * xyz 0 1
|  7> S 	 44.6974 	 10.426 	 89.6843
|  8> C 	 44.5572 	 9.12738 	 90.9494
|  9> C 	 43.8281 	 9.59357 	 92.0431
| 10> C 	 43.6341 	 11.0067 	 91.9515
| 11> C 	 44.2364 	 11.5968 	 90.901
| 12> H 	 43.1538 	 11.6671 	 92.666
| 13> C 	 43.324 	 8.85655 	 93.1838
| 14> H 	 42.2717 	 9.11176 	 93.2726
| 15> H 	 43.8094 	 9.17283 	 94.0687
| 16> C 	 43.4388 	 7.30311 	 93.1347
| 17> H 	 42.5696 	 6.93584 	 93.6791
| 18> H 	 43.1235 	 6.92057 	 92.2065
| 19> C 	 44.9154 	 6.77578 	 93.4861
| 20> H 	 45.768 	 7.03681 	 92.8266
| 21> H 	 45.2051 	 6.93527 	 94.6074
| 22> H 	 44.961 	 5.69073 	 93.3679
| 23> S 	 45.6863 	 13.9139 	 90.4978
| 24> C 	 44.8079 	 15.4399 	 90.1473
| 25> C 	 43.5038 	 15.1495 	 89.7636
| 26> C 	 43.1391 	 13.7797 	 90.0908
| 27> C 	 44.1893 	 12.9619 	 90.5107
| 28> H 	 42.941 	 16.0312 	 89.36
| 29> C 	 41.7525 	 13.2472 	 89.8431
| 30> H 	 41.8842 	 12.244 	 89.5053
| 31> H 	 41.1755 	 13.8108 	 89.0563
| 32> C 	 40.7635 	 13.297 	 91.0101
| 33> H 	 40.4543 	 14.2752 	 91.2479
| 34> H 	 41.3168 	 12.8262 	 91.8327
| 35> C 	 39.454 	 12.3873 	 90.828
| 36> H 	 38.7937 	 12.7873 	 90.0769
| 37> H 	 39.016 	 12.539 	 91.8106
| 38> H 	 39.8427 	 11.3564 	 90.6723
| 39> H 	 44.7461 	 8.09189 	 90.9714
| 40> H 	 45.2829 	 16.3731 	 89.9894
| 41> *
| 42>
| 43>                          ****END OF INPUT****

CARTESIAN COORDINATES (ANGSTROEM)
---------------------------------
  S     44.697400   10.426000   89.684300
  C     44.557200    9.127380   90.949400
  C     43.828100    9.593570   92.043100
  C     43.634100   11.006700   91.951500
  C     44.236400   11.596800   90.901000
  H     43.153800   11.667100   92.666000
  C     43.324000    8.856550   93.183800
  H     42.271700    9.111760   93.272600
  H     43.809400    9.172830   94.068700
  C     43.438800    7.303110   93.134700
  H     42.569600    6.935840   93.679100
  H     43.123500    6.920570   92.206500
  C     44.915400    6.775780   93.486100
  H     45.768000    7.036810   92.826600
  H     45.205100    6.935270   94.607400
  H     44.961000    5.690730   93.367900
  S     45.686300   13.913900   90.497800
  C     44.807900   15.439900   90.147300
  C     43.503800   15.149500   89.763600
  C     43.139100   13.779700   90.090800
  C     44.189300   12.961900   90.510700
  H     42.941000   16.031200   89.360000
  C     41.752500   13.247200   89.843100
  H     41.884200   12.244000   89.505300
  H     41.175500   13.810800   89.056300
  C     40.763500   13.297000   91.010100
  H     40.454300   14.275200   91.247900
  H     41.316800   12.826200   91.832700
  C     39.454000   12.387300   90.828000
  H     38.793700   12.787300   90.076900
  H     39.016000   12.539000   91.810600
  H     39.842700   11.356400   90.672300
  H     44.746100    8.091890   90.971400
  H     45.282900   16.373100   89.989400

 Total Charge           Charge          ....    0
 Multiplicity           Mult            ....    1
 Number of Electrons    NEL             ....  134
 Basis Dimension        Dim             ....  322

ORBITAL ENERGIES
----------------

  NO   OCC          E(Eh)            E(eV)
   0   2.0000     -88.966282     -2420.8956
   1   2.0000     -88.961285     -2420.7596
   2   2.0000     -10.325137      -280.9613
   3   2.0000     -10.323098      -280.9058
   4   2.0000     -10.320104      -280.8243
   5   2.0000     -10.313463      -280.6436
   6   2.0000     -10.308814      -280.5171
   7   2.0000     -10.302640      -280.3491
   8   2.0000     -10.298738      -280.2429
   9   2.0000     -10.298551      -280.2378
  10   2.0000     -10.295654      -280.1590
  11   2.0000     -10.290789      -280.0266
  12   2.0000     -10.288765      -279.9715
  13   2.0000     -10.285402      -279.8800
  14   2.0000     -10.282470      -279.8002
  15   2.0000     -10.282307      -279.7958
  16   2.0000      -8.079843      -219.8637
  17   2.0000      -8.075191      -219.7371
  18   2.0000      -6.038677      -164.3208
  19   2.0000      -6.034824      -164.2159
  20   2.0000      -6.033847      -164.1893
  21   2.0000      -6.029984      -164.0842
  22   2.0000      -6.029836      -164.0802
  23   2.0000      -6.025806      -163.9705
  24   2.0000      -1.005586       -27.3634
  25   2.0000      -0.977430       -26.5972
  26   2.0000      -0.916909       -24.9504
  27   2.0000      -0.902759       -24.5653
  28   2.0000      -0.866164       -23.5695
  29   2.0000      -0.845893       -23.0179
  30   2.0000      -0.841043       -22.8860
  31   2.0000      -0.814360       -22.1599
  32   2.0000      -0.786328       -21.3971
  33   2.0000      -0.769667       -20.9437
  34   2.0000      -0.723635       -19.6911
  35   2.0000      -0.708772       -19.2867
  36   2.0000      -0.689622       -18.7656
  37   2.0000      -0.657954       -17.9039
  38   2.0000      -0.638860       -17.3843
  39   2.0000      -0.612250       -16.6602
  40   2.0000      -0.590826       -16.0772
  41   2.0000      -0.575744       -15.6668
  42   2.0000      -0.571460       -15.5502
  43   2.0000      -0.559484       -15.2243
  44   2.0000      -0.532091       -14.4789
  45   2.0000      -0.525897       -14.3104
  46   2.0000      -0.516809       -14.0631
  47   2.0000      -0.508537       -13.8380
  48   2.0000      -0.507882       -13.8202
  49   2.0000      -0.493046       -13.4165
  50   2.0000      -0.487525       -13.2662
  51   2.0000      -0.480410       -13.0726
  52   2.0000      -0.470994       -12.8164
  53   2.0000      -0.467654       -12.7255
  54   2.0000      -0.461960       -12.5706
  55   2.0000      -0.448136       -12.1944
  56   2.0000      -0.445862       -12.1325
  57   2.0000      -0.437596       -11.9076
  58   2.0000      -0.429480       -11.6868
  59   2.0000      -0.423925       -11.5356
  60   2.0000      -0.418821       -11.3967
  61   2.0000      -0.410513       -11.1706
  62   2.0000      -0.406581       -11.0636
  63   2.0000      -0.334780        -9.1098
  64   2.0000      -0.326864        -8.8944
  65   2.0000      -0.320772        -8.7286
  66   2.0000      -0.305988        -8.3264
  67   0.0000       0.034497         0.9387
  68   0.0000       0.053057         1.4438
  69   0.0000       0.095230         2.5913
  70   0.0000       0.107142         2.9155
  71   0.0000       0.133642         3.6366

MULLIKEN ATOMIC CHARGES
-----------------------
   0 S :    0.106309
   1 C :   -0.068477
   2 C :   -0.105885
   3 C :    0.021203
   4 C :   -0.139483
   5 H :    0.021248
   6 C :    0.077694
   7 H :    0.032306
   8 H :    0.032509
   9 C :   -0.045223
  10 H :    0.023083
  11 H :    0.006323
  12 C :   -0.104171
  13 H :    0.053033
  14 H :    0.055720
  15 H :    0.032322
  16 S :    0.092556
  17 C :   -0.090736
  18 C :   -0.049984
  19 C :   -0.002270
  20 C :   -0.181273
  21 H :    0.046293
  22 C :    0.069956
  23 H :    0.014768
  24 H :    0.023507
  25 C :   -0.087279
  26 H :    0.019800
  27 H :    0.008815
  28 C :   -0.055566
  29 H :    0.040439
  30 H :    0.038802
  31 H :    0.047846
  32 H :    0.015210
  33 H :    0.050603
Sum of atomic charges:   -0.0000000

LOEWDIN ATOMIC CHARGES
----------------------
   0 S :    0.379294
   1 C :   -0.177271
   2 C :   -0.055938
   3 C :   -0.054505
   4 C :   -0.190987
   5 H :    0.031940
   6 C :   -0.031588
   7 H :    0.038393
   8 H :    0.032538
   9 C :   -0.040832
  10 H :    0.032603
  11 H :    0.016089
  12 C :   -0.084423
  13 H :    0.032458
  14 H :    0.039041
  15 H :    0.026459
  16 S :    0.376849
  17 C :   -0.162786
  18 C :   -0.075763
  19 C :   -0.048202
  20 C :   -0.204263
  21 H :    0.044996
  22 C :   -0.038955
  23 H :    0.023504
  24 H :    0.034229
  25 C :   -0.032353
  26 H :    0.012934
  27 H :    0.016915
  28 C :   -0.060616
  29 H :    0.020834
  30 H :    0.028697
  31 H :    0.031357
  32 H :    0.017151
  33 H :    0.022201

  Mayer bond orders larger than 0.100000
B(  0-S ,  1-C ) :   1.0978 B(  0-S ,  4-C ) :   1.1265 B(  1-C ,  2-C ) :   1.6589
B(  1-C , 32-H ) :   0.9592 B(  2-C ,  3-C ) :   1.1881 B(  2-C ,  6-C ) :   1.0272
B(  3-C ,  4-C ) :   1.6380 B(  3-C ,  5-H ) :   0.9950 B(  4-C , 20-C ) :   1.0390
B(  6-C ,  7-H ) :   0.9307 B(  6-C ,  8-H ) :   0.9312 B(  6-C ,  9-C ) :   1.0828
B(  9-C , 10-H ) :   0.9538 B(  9-C , 11-H ) :   0.9534 B(  9-C , 12-C ) :   1.0482
B( 12-C , 13-H ) :   0.9761 B( 12-C , 14-H ) :   0.9761 B( 12-C , 15-H ) :   0.9753
B( 16-S , 17-C ) :   1.1514 B( 16-S , 20-C ) :   1.1167 B( 17-C , 18-C ) :   1.6316
B( 17-C , 20-C ) :   0.1022 B( 17-C , 33-H ) :   0.9694 B( 18-C , 19-C ) :   1.2061
B( 18-C , 21-H ) :   0.9837 B( 19-C , 20-C ) :   1.6031 B( 19-C , 22-C ) :   1.0548
B( 22-C , 23-H ) :   0.9254 B( 22-C , 24-H ) :   0.9394 B( 22-C , 25-C ) :   1.0667
B( 25-C , 26-H ) :   0.9581 B( 25-C , 27-H ) :   0.9549 B( 25-C , 28-C ) :   1.0720
B( 28-C , 29-H ) :   0.9786 B( 28-C , 30-H ) :   0.9775 B( 28-C , 31-H ) :   0.9769

Dispersion correction           -0.014700275
FINAL SINGLE POINT ENERGY     -1339.837404286624

DIPOLE MOMENT
-------------
                                X             Y             Z
Electronic contribution:     18.46632      13.90592     -12.04788
Nuclear contribution   :    -19.12176     -14.02470      12.37228
                        -----------------------------------------
Total Dipole Moment    :     -0.65545      -0.11878       0.32440
                        -----------------------------------------
Magnitude (a.u.)       :      0.74091
Magnitude (Debye)      :      1.88326

Rotational constants in cm-1:     0.020159     0.008366     0.006639
Rotational constants in MHz :   604.349192   250.807766   199.035609

                             ****ORCA TERMINATED NORMALLY****
TOTAL RUN TIME: 0 days 0 hours 0 minutes 30 seconds 773 msec
