                         Program Version 4.2.1 -  RELEASE  -
|  1> ! wB97X-D3 SP def2-SVP
|  2> %pal
|  3> nprocs 16
|  4> end
|  5>
|  6> * xyz 0 1
|  7> S 	 41.8664 	 9.57121 	 85.8216
|  8> C 	 42.6564 	 10.0536 	 84.3467
|  9> C 	 42.0718 	 9.40492 	 83.282
| 10> C 	 41.0051 	 8.53266 	 83.6384
| 11> C 	 40.8193 	 8.51498 	 85.0199
| 12> H 	 40.3839 	 7.93967 	 82.9275
| 13> C 	 42.2571 	 9.6589 	 81.7782
| 14> H 	 42.6126 	 10.7526 	 81.4622
| 15> H 	 41.2991 	 9.59262 	 81.3803
| 16> C 	 43.0972 	 8.53622 	 80.9971
| 17> H 	 42.7124 	 7.56151 	 81.2382
| 18> H 	 42.9935 	 8.56107 	 79.9147
| 19> C 	 44.6562 	 8.6634 	 81.4008
| 20> H 	 44.7002 	 8.48839 	 82.5205
| 21> H 	 45.3484 	 7.91391 	 80.9854
| 22> H 	 44.9778 	 9.7139 	 81.1889
| 23> S 	 38.8258 	 8.21184 	 86.834
| 24> C 	 38.3669 	 6.60747 	 87.3142
| 25> C 	 38.9332 	 5.63972 	 86.4623
| 26> C 	 39.9105 	 6.16727 	 85.577
| 27> C 	 39.959 	 7.56949 	 85.6817
| 28> H 	 38.5726 	 4.61651 	 86.6218
| 29> C 	 40.8823 	 5.27381 	 84.838
| 30> H 	 41.6379 	 5.93644 	 84.5304
| 31> H 	 40.4377 	 4.91433 	 83.9301
| 32> C 	 41.6022 	 4.11567 	 85.5997
| 33> H 	 42.2155 	 3.56879 	 84.8515
| 34> H 	 40.9345 	 3.281 	 85.8789
| 35> C 	 42.2877 	 4.66638 	 86.8973
| 36> H 	 42.7818 	 3.84565 	 87.4016
| 37> H 	 41.6653 	 5.12266 	 87.6255
| 38> H 	 43.1136 	 5.35236 	 86.7037
| 39> H 	 43.1977 	 11.0061 	 84.2391
| 40> H 	 37.7451 	 6.38736 	 88.2027
| 41> *
| 42>
| 43>                          ****END OF INPUT****

CARTESIAN COORDINATES (ANGSTROEM)
---------------------------------
  S     41.866400    9.571210   85.821600
  C     42.656400   10.053600   84.346700
  C     42.071800    9.404920   83.282000
  C     41.005100    8.532660   83.638400
  C     40.819300    8.514980   85.019900
  H     40.383900    7.939670   82.927500
  C     42.257100    9.658900   81.778200
  H     42.612600   10.752600   81.462200
  H     41.299100    9.592620   81.380300
  C     43.097200    8.536220   80.997100
  H     42.712400    7.561510   81.238200
  H     42.993500    8.561070   79.914700
  C     44.656200    8.663400   81.400800
  H     44.700200    8.488390   82.520500
  H     45.348400    7.913910   80.985400
  H     44.977800    9.713900   81.188900
  S     38.825800    8.211840   86.834000
  C     38.366900    6.607470   87.314200
  C     38.933200    5.639720   86.462300
  C     39.910500    6.167270   85.577000
  C     39.959000    7.569490   85.681700
  H     38.572600    4.616510   86.621800
  C     40.882300    5.273810   84.838000
  H     41.637900    5.936440   84.530400
  H     40.437700    4.914330   83.930100
  C     41.602200    4.115670   85.599700
  H     42.215500    3.568790   84.851500
  H     40.934500    3.281000   85.878900
  C     42.287700    4.666380   86.897300
  H     42.781800    3.845650   87.401600
  H     41.665300    5.122660   87.625500
  H     43.113600    5.352360   86.703700
  H     43.197700   11.006100   84.239100
  H     37.745100    6.387360   88.202700

 Total Charge           Charge          ....    0
 Multiplicity           Mult            ....    1
 Number of Electrons    NEL             ....  134
 Basis Dimension        Dim             ....  322

ORBITAL ENERGIES
----------------

  NO   OCC          E(Eh)            E(eV)
   0   2.0000     -88.967595     -2420.9313
   1   2.0000     -88.966495     -2420.9014
   2   2.0000     -10.324223      -280.9364
   3   2.0000     -10.323787      -280.9245
   4   2.0000     -10.320029      -280.8223
   5   2.0000     -10.314165      -280.6627
   6   2.0000     -10.306084      -280.4428
   7   2.0000     -10.303845      -280.3819
   8   2.0000     -10.302657      -280.3496
   9   2.0000     -10.296157      -280.1727
  10   2.0000     -10.296079      -280.1705
  11   2.0000     -10.295717      -280.1607
  12   2.0000     -10.295030      -280.1420
  13   2.0000     -10.286144      -279.9002
  14   2.0000     -10.285141      -279.8729
  15   2.0000     -10.272030      -279.5161
  16   2.0000      -8.083522      -219.9638
  17   2.0000      -8.081706      -219.9144
  18   2.0000      -6.041972      -164.4104
  19   2.0000      -6.039997      -164.3567
  20   2.0000      -6.037661      -164.2931
  21   2.0000      -6.036118      -164.2511
  22   2.0000      -6.034468      -164.2062
  23   2.0000      -6.032723      -164.1587
  24   2.0000      -1.013916       -27.5901
  25   2.0000      -0.987020       -26.8582
  26   2.0000      -0.904439       -24.6110
  27   2.0000      -0.900202       -24.4957
  28   2.0000      -0.866243       -23.5717
  29   2.0000      -0.847019       -23.0486
  30   2.0000      -0.840764       -22.8784
  31   2.0000      -0.806725       -21.9521
  32   2.0000      -0.781397       -21.2629
  33   2.0000      -0.771719       -20.9996
  34   2.0000      -0.710974       -19.3466
  35   2.0000      -0.699872       -19.0445
  36   2.0000      -0.695468       -18.9246
  37   2.0000      -0.655462       -17.8360
  38   2.0000      -0.638345       -17.3702
  39   2.0000      -0.617418       -16.8008
  40   2.0000      -0.592346       -16.1185
  41   2.0000      -0.561966       -15.2919
  42   2.0000      -0.552654       -15.0385
  43   2.0000      -0.544869       -14.8266
  44   2.0000      -0.534474       -14.5438
  45   2.0000      -0.528783       -14.3889
  46   2.0000      -0.515489       -14.0272
  47   2.0000      -0.505857       -13.7651
  48   2.0000      -0.503625       -13.7043
  49   2.0000      -0.493097       -13.4179
  50   2.0000      -0.490977       -13.3602
  51   2.0000      -0.473332       -12.8800
  52   2.0000      -0.465810       -12.6753
  53   2.0000      -0.462062       -12.5733
  54   2.0000      -0.453645       -12.3443
  55   2.0000      -0.451003       -12.2724
  56   2.0000      -0.442667       -12.0456
  57   2.0000      -0.434355       -11.8194
  58   2.0000      -0.432405       -11.7663
  59   2.0000      -0.426576       -11.6077
  60   2.0000      -0.423548       -11.5253
  61   2.0000      -0.416575       -11.3356
  62   2.0000      -0.412826       -11.2336
  63   2.0000      -0.337412        -9.1815
  64   2.0000      -0.334942        -9.1142
  65   2.0000      -0.329951        -8.9784
  66   2.0000      -0.295848        -8.0504
  67   0.0000       0.026907         0.7322
  68   0.0000       0.073635         2.0037
  69   0.0000       0.111518         3.0346
  70   0.0000       0.123884         3.3711
  71   0.0000       0.128153         3.4872

MULLIKEN ATOMIC CHARGES
-----------------------
   0 S :    0.123494
   1 C :   -0.125058
   2 C :   -0.073071
   3 C :   -0.000063
   4 C :   -0.142065
   5 H :    0.035093
   6 C :    0.021332
   7 H :    0.046801
   8 H :    0.014872
   9 C :   -0.065562
  10 H :    0.018272
  11 H :    0.034041
  12 C :   -0.095927
  13 H :    0.046286
  14 H :    0.044544
  15 H :    0.038080
  16 S :    0.117593
  17 C :   -0.123218
  18 C :   -0.053541
  19 C :   -0.028878
  20 C :   -0.189560
  21 H :    0.028149
  22 C :    0.114865
  23 H :    0.014323
  24 H :    0.024890
  25 C :   -0.078908
  26 H :    0.032444
  27 H :    0.024161
  28 C :   -0.036904
  29 H :    0.022274
  30 H :    0.041590
  31 H :    0.030460
  32 H :    0.067423
  33 H :    0.071769
Sum of atomic charges:    0.0000000

LOEWDIN ATOMIC CHARGES
----------------------
   0 S :    0.441162
   1 C :   -0.214471
   2 C :   -0.063035
   3 C :   -0.066588
   4 C :   -0.220148
   5 H :    0.040409
   6 C :   -0.031552
   7 H :    0.039659
   8 H :    0.019645
   9 C :   -0.035494
  10 H :    0.016929
  11 H :    0.021325
  12 C :   -0.078736
  13 H :    0.031897
  14 H :    0.024498
  15 H :    0.026140
  16 S :    0.417558
  17 C :   -0.197233
  18 C :   -0.071800
  19 C :   -0.051542
  20 C :   -0.208239
  21 H :    0.035337
  22 C :   -0.030252
  23 H :    0.025935
  24 H :    0.029092
  25 C :   -0.039191
  26 H :    0.031348
  27 H :    0.021426
  28 C :   -0.064084
  29 H :    0.025161
  30 H :    0.025232
  31 H :    0.027212
  32 H :    0.037539
  33 H :    0.034860

  Mayer bond orders larger than 0.100000
B(  0-S ,  1-C ) :   1.1370 B(  0-S ,  4-C ) :   1.1891 B(  1-C ,  2-C ) :   1.5950
B(  1-C , 32-H ) :   0.9621 B(  2-C ,  3-C ) :   1.2640 B(  2-C ,  6-C ) :   1.0083
B(  3-C ,  4-C ) :   1.5219 B(  3-C ,  5-H ) :   0.9935 B(  4-C , 20-C ) :   1.0316
B(  6-C ,  7-H ) :   0.9546 B(  6-C ,  8-H ) :   0.9428 B(  6-C ,  9-C ) :   1.0583
B(  9-C , 10-H ) :   0.9589 B(  9-C , 11-H ) :   0.9630 B(  9-C , 12-C ) :   1.0534
B( 12-C , 13-H ) :   0.9779 B( 12-C , 14-H ) :   0.9784 B( 12-C , 15-H ) :   0.9782
B( 16-S , 17-C ) :   1.1642 B( 16-S , 20-C ) :   1.1612 B( 17-C , 18-C ) :   1.5909
B( 17-C , 20-C ) :   0.1053 B( 17-C , 33-H ) :   0.9655 B( 18-C , 19-C ) :   1.2382
B( 18-C , 21-H ) :   0.9911 B( 19-C , 20-C ) :   1.5647 B( 19-C , 22-C ) :   1.0392
B( 22-C , 23-H ) :   0.9273 B( 22-C , 24-H ) :   0.9247 B( 22-C , 25-C ) :   1.0758
B( 25-C , 26-H ) :   0.9552 B( 25-C , 27-H ) :   0.9536 B( 25-C , 28-C ) :   1.0629
B( 28-C , 29-H ) :   0.9738 B( 28-C , 30-H ) :   0.9748 B( 28-C , 31-H ) :   0.9777

Dispersion correction           -0.015216447
FINAL SINGLE POINT ENERGY     -1339.869393319679

DIPOLE MOMENT
-------------
                                X             Y             Z
Electronic contribution:    -16.03309      13.48102      15.70301
Nuclear contribution   :     16.04443     -13.88079     -16.02703
                        -----------------------------------------
Total Dipole Moment    :      0.01133      -0.39977      -0.32402
                        -----------------------------------------
Magnitude (a.u.)       :      0.51472
Magnitude (Debye)      :      1.30831

Rotational constants in cm-1:     0.020078     0.008870     0.007285
Rotational constants in MHz :   601.913862   265.904091   218.399630

                             ****ORCA TERMINATED NORMALLY****
TOTAL RUN TIME: 0 days 0 hours 0 minutes 31 seconds 247 msec
