                         Program Version 4.2.1 -  RELEASE  -
|  1> ! wB97X-D3 SP def2-SVP
|  2> %pal
|  3> nprocs 16
|  4> end
|  5>
|  6> * xyz 0 1
|  7> S 	 67.4512 	 14.0056 	 76.7005
|  8> C 	 66.1005 	 13.8954 	 75.6459
|  9> C 	 66.3649 	 14.3879 	 74.3905
| 10> C 	 67.6566 	 15.0186 	 74.352
| 11> C 	 68.381 	 14.9835 	 75.5669
| 12> H 	 68.1141 	 15.5772 	 73.5153
| 13> C 	 65.3493 	 14.3389 	 73.2301
| 14> H 	 64.7237 	 13.4327 	 73.2145
| 15> H 	 65.9965 	 14.3977 	 72.3229
| 16> C 	 64.4448 	 15.5841 	 73.04
| 17> H 	 65.148 	 16.4129 	 72.6913
| 18> H 	 63.7649 	 15.399 	 72.2245
| 19> C 	 63.7291 	 16.0223 	 74.2931
| 20> H 	 63.09 	 15.2194 	 74.6696
| 21> H 	 64.3629 	 16.2755 	 75.1355
| 22> H 	 63.0933 	 16.8913 	 74.1591
| 23> S 	 71.0466 	 14.8621 	 76.3648
| 24> C 	 72.0143 	 16.3392 	 76.6729
| 25> C 	 71.2724 	 17.4125 	 76.1938
| 26> C 	 69.8995 	 17.1346 	 75.8498
| 27> C 	 69.6143 	 15.7536 	 75.8736
| 28> H 	 71.5755 	 18.4303 	 76.3253
| 29> C 	 68.831 	 18.2108 	 75.6872
| 30> H 	 68.1338 	 17.8255 	 74.9647
| 31> H 	 69.2507 	 18.9896 	 75.0432
| 32> C 	 68.218 	 18.8012 	 77.0406
| 33> H 	 67.6581 	 19.6411 	 76.6889
| 34> H 	 68.8884 	 19.292 	 77.7027
| 35> C 	 67.4432 	 17.8193 	 77.938
| 36> H 	 68.0841 	 17.1483 	 78.5032
| 37> H 	 66.7319 	 17.1467 	 77.439
| 38> H 	 67.0178 	 18.4472 	 78.6883
| 39> H 	 65.1756 	 13.3168 	 75.9875
| 40> H 	 73.0315 	 16.3664 	 77.0865
| 41> *
| 42>
| 43>                          ****END OF INPUT****

CARTESIAN COORDINATES (ANGSTROEM)
---------------------------------
  S     67.451200   14.005600   76.700500
  C     66.100500   13.895400   75.645900
  C     66.364900   14.387900   74.390500
  C     67.656600   15.018600   74.352000
  C     68.381000   14.983500   75.566900
  H     68.114100   15.577200   73.515300
  C     65.349300   14.338900   73.230100
  H     64.723700   13.432700   73.214500
  H     65.996500   14.397700   72.322900
  C     64.444800   15.584100   73.040000
  H     65.148000   16.412900   72.691300
  H     63.764900   15.399000   72.224500
  C     63.729100   16.022300   74.293100
  H     63.090000   15.219400   74.669600
  H     64.362900   16.275500   75.135500
  H     63.093300   16.891300   74.159100
  S     71.046600   14.862100   76.364800
  C     72.014300   16.339200   76.672900
  C     71.272400   17.412500   76.193800
  C     69.899500   17.134600   75.849800
  C     69.614300   15.753600   75.873600
  H     71.575500   18.430300   76.325300
  C     68.831000   18.210800   75.687200
  H     68.133800   17.825500   74.964700
  H     69.250700   18.989600   75.043200
  C     68.218000   18.801200   77.040600
  H     67.658100   19.641100   76.688900
  H     68.888400   19.292000   77.702700
  C     67.443200   17.819300   77.938000
  H     68.084100   17.148300   78.503200
  H     66.731900   17.146700   77.439000
  H     67.017800   18.447200   78.688300
  H     65.175600   13.316800   75.987500
  H     73.031500   16.366400   77.086500

 Total Charge           Charge          ....    0
 Multiplicity           Mult            ....    1
 Number of Electrons    NEL             ....  134
 Basis Dimension        Dim             ....  322

ORBITAL ENERGIES
----------------

  NO   OCC          E(Eh)            E(eV)
   0   2.0000     -88.967767     -2420.9360
   1   2.0000     -88.962440     -2420.7911
   2   2.0000     -10.335914      -281.2545
   3   2.0000     -10.331976      -281.1474
   4   2.0000     -10.326008      -280.9850
   5   2.0000     -10.320361      -280.8313
   6   2.0000     -10.306810      -280.4626
   7   2.0000     -10.305722      -280.4329
   8   2.0000     -10.303943      -280.3845
   9   2.0000     -10.299858      -280.2734
  10   2.0000     -10.295195      -280.1465
  11   2.0000     -10.293241      -280.0933
  12   2.0000     -10.291246      -280.0390
  13   2.0000     -10.287004      -279.9236
  14   2.0000     -10.272399      -279.5262
  15   2.0000     -10.270639      -279.4783
  16   2.0000      -8.082638      -219.9398
  17   2.0000      -8.076482      -219.7722
  18   2.0000      -6.041051      -164.3853
  19   2.0000      -6.036946      -164.2737
  20   2.0000      -6.035095      -164.2233
  21   2.0000      -6.033655      -164.1841
  22   2.0000      -6.030949      -164.1105
  23   2.0000      -6.027301      -164.0112
  24   2.0000      -1.001599       -27.2549
  25   2.0000      -0.979886       -26.6641
  26   2.0000      -0.908892       -24.7322
  27   2.0000      -0.896688       -24.4001
  28   2.0000      -0.865213       -23.5436
  29   2.0000      -0.847577       -23.0637
  30   2.0000      -0.842844       -22.9350
  31   2.0000      -0.811386       -22.0789
  32   2.0000      -0.783800       -21.3283
  33   2.0000      -0.772765       -21.0280
  34   2.0000      -0.707591       -19.2545
  35   2.0000      -0.698093       -18.9961
  36   2.0000      -0.689525       -18.7629
  37   2.0000      -0.657588       -17.8939
  38   2.0000      -0.640706       -17.4345
  39   2.0000      -0.613966       -16.7069
  40   2.0000      -0.590403       -16.0657
  41   2.0000      -0.564932       -15.3726
  42   2.0000      -0.550596       -14.9825
  43   2.0000      -0.546422       -14.8689
  44   2.0000      -0.541554       -14.7364
  45   2.0000      -0.529925       -14.4200
  46   2.0000      -0.519928       -14.1479
  47   2.0000      -0.510686       -13.8965
  48   2.0000      -0.500167       -13.6102
  49   2.0000      -0.491957       -13.3868
  50   2.0000      -0.489612       -13.3230
  51   2.0000      -0.481030       -13.0895
  52   2.0000      -0.468810       -12.7570
  53   2.0000      -0.465607       -12.6698
  54   2.0000      -0.459910       -12.5148
  55   2.0000      -0.447792       -12.1850
  56   2.0000      -0.440592       -11.9891
  57   2.0000      -0.437442       -11.9034
  58   2.0000      -0.430019       -11.7014
  59   2.0000      -0.420311       -11.4372
  60   2.0000      -0.416523       -11.3342
  61   2.0000      -0.414543       -11.2803
  62   2.0000      -0.404857       -11.0167
  63   2.0000      -0.340645        -9.2694
  64   2.0000      -0.331914        -9.0318
  65   2.0000      -0.326708        -8.8902
  66   2.0000      -0.297815        -8.1039
  67   0.0000       0.029259         0.7962
  68   0.0000       0.062501         1.7008
  69   0.0000       0.112058         3.0493
  70   0.0000       0.121034         3.2935
  71   0.0000       0.129796         3.5319

MULLIKEN ATOMIC CHARGES
-----------------------
   0 S :    0.122928
   1 C :   -0.166421
   2 C :   -0.071912
   3 C :    0.028527
   4 C :   -0.168898
   5 H :    0.027291
   6 C :    0.046839
   7 H :    0.039757
   8 H :    0.031409
   9 C :   -0.071657
  10 H :    0.029234
  11 H :    0.033940
  12 C :   -0.050654
  13 H :    0.018065
  14 H :    0.042092
  15 H :    0.031330
  16 S :    0.088159
  17 C :   -0.112191
  18 C :   -0.002675
  19 C :   -0.080295
  20 C :   -0.163513
  21 H :    0.013556
  22 C :    0.087617
  23 H :    0.009512
  24 H :    0.012796
  25 C :   -0.029863
  26 H :    0.020867
  27 H :    0.014098
  28 C :   -0.036650
  29 H :    0.032189
  30 H :    0.041797
  31 H :    0.023619
  32 H :    0.082018
  33 H :    0.077091
Sum of atomic charges:    0.0000000

LOEWDIN ATOMIC CHARGES
----------------------
   0 S :    0.421899
   1 C :   -0.211411
   2 C :   -0.073401
   3 C :   -0.058502
   4 C :   -0.203551
   5 H :    0.035930
   6 C :   -0.032120
   7 H :    0.030758
   8 H :    0.037711
   9 C :   -0.042167
  10 H :    0.027614
  11 H :    0.023882
  12 C :   -0.073394
  13 H :    0.022672
  14 H :    0.026782
  15 H :    0.025921
  16 S :    0.384629
  17 C :   -0.176032
  18 C :   -0.069638
  19 C :   -0.058733
  20 C :   -0.200448
  21 H :    0.026358
  22 C :   -0.036146
  23 H :    0.028791
  24 H :    0.031491
  25 C :   -0.030080
  26 H :    0.022212
  27 H :    0.022208
  28 C :   -0.063280
  29 H :    0.026442
  30 H :    0.024820
  31 H :    0.025286
  32 H :    0.044505
  33 H :    0.038995

  Mayer bond orders larger than 0.100000
B(  0-S ,  1-C ) :   1.1697 B(  0-S ,  4-C ) :   1.1537 B(  1-C ,  2-C ) :   1.5761
B(  1-C , 32-H ) :   0.9593 B(  2-C ,  3-C ) :   1.2545 B(  2-C ,  6-C ) :   1.0184
B(  3-C ,  4-C ) :   1.5621 B(  3-C ,  5-H ) :   0.9876 B(  4-C , 20-C ) :   1.0240
B(  6-C ,  7-H ) :   0.9491 B(  6-C ,  8-H ) :   0.9415 B(  6-C ,  9-C ) :   1.0691
B(  9-C , 10-H ) :   0.9558 B(  9-C , 11-H ) :   0.9558 B(  9-C , 12-C ) :   1.0841
B( 12-C , 13-H ) :   0.9724 B( 12-C , 14-H ) :   0.9694 B( 12-C , 15-H ) :   0.9723
B( 16-S , 17-C ) :   1.1450 B( 16-S , 20-C ) :   1.1464 B( 17-C , 18-C ) :   1.5934
B( 17-C , 20-C ) :   0.1025 B( 17-C , 33-H ) :   0.9689 B( 18-C , 19-C ) :   1.2589
B( 18-C , 21-H ) :   0.9830 B( 19-C , 20-C ) :   1.5799 B( 19-C , 22-C ) :   1.0481
B( 22-C , 23-H ) :   0.9295 B( 22-C , 24-H ) :   0.9275 B( 22-C , 25-C ) :   1.0498
B( 25-C , 26-H ) :   0.9571 B( 25-C , 27-H ) :   0.9570 B( 25-C , 28-C ) :   1.0709
B( 28-C , 29-H ) :   0.9735 B( 28-C , 30-H ) :   0.9780 B( 28-C , 31-H ) :   0.9705

Dispersion correction           -0.016096545
FINAL SINGLE POINT ENERGY     -1339.878479794450

DIPOLE MOMENT
-------------
                                X             Y             Z
Electronic contribution:     20.43879     -15.55605       5.63085
Nuclear contribution   :    -20.83711      16.09337      -5.81656
                        -----------------------------------------
Total Dipole Moment    :     -0.39832       0.53731      -0.18570
                        -----------------------------------------
Magnitude (a.u.)       :      0.69416
Magnitude (Debye)      :      1.76441

Rotational constants in cm-1:     0.021368     0.008878     0.007658
Rotational constants in MHz :   640.610086   266.155783   229.583298

                             ****ORCA TERMINATED NORMALLY****
TOTAL RUN TIME: 0 days 0 hours 0 minutes 32 seconds 257 msec
