                         Program Version 4.2.1 -  RELEASE  -
|  1> ! wB97X-D3 SP def2-SVP
|  2> %pal
|  3> nprocs 16
|  4> end
|  5>
|  6> * xyz 0 1
|  7> S 	 -53.7287 	 7.83292 	 90.967
|  8> C 	 -54.1135 	 7.60053 	 92.7025
|  9> C 	 -53.7327 	 8.76843 	 93.4165
| 10> C 	 -53.4648 	 9.86717 	 92.516
| 11> C 	 -53.4763 	 9.57054 	 91.158
| 12> H 	 -53.1512 	 10.8342 	 92.8022
| 13> C 	 -53.6106 	 8.82363 	 94.8473
| 14> H 	 -54.5736 	 8.7109 	 95.1968
| 15> H 	 -53.4497 	 9.8848 	 95.0269
| 16> C 	 -52.5179 	 8.05362 	 95.654
| 17> H 	 -52.552 	 8.36142 	 96.6748
| 18> H 	 -52.8119 	 7.004 	 95.6195
| 19> C 	 -51.1117 	 8.10575 	 94.9732
| 20> H 	 -50.7656 	 9.17774 	 95.06
| 21> H 	 -50.3874 	 7.44773 	 95.4281
| 22> H 	 -51.0795 	 7.84682 	 93.977
| 23> S 	 -51.9644 	 9.78632 	 88.8665
| 24> C 	 -52.2302 	 11.1082 	 87.7348
| 25> C 	 -53.1977 	 11.989 	 88.2333
| 26> C 	 -53.7077 	 11.649 	 89.5152
| 27> C 	 -53.0877 	 10.4476 	 90.0286
| 28> H 	 -53.5294 	 12.8074 	 87.5879
| 29> C 	 -54.8545 	 12.397 	 90.0921
| 30> H 	 -55.3116 	 11.8325 	 90.8947
| 31> H 	 -55.6834 	 12.5719 	 89.3542
| 32> C 	 -54.4062 	 13.7063 	 90.798
| 33> H 	 -55.2868 	 14.2939 	 90.9555
| 34> H 	 -53.7643 	 14.3575 	 90.0957
| 35> C 	 -53.5875 	 13.4944 	 92.1323
| 36> H 	 -53.5257 	 14.4576 	 92.6559
| 37> H 	 -52.6629 	 13.1963 	 91.8053
| 38> H 	 -54.1117 	 12.764 	 92.7965
| 39> H 	 -54.3771 	 6.59903 	 93.1288
| 40> H 	 -51.624 	 11.1889 	 86.8527
| 41> *
| 42>
| 43>                          ****END OF INPUT****

CARTESIAN COORDINATES (ANGSTROEM)
---------------------------------
  S    -53.728700    7.832920   90.967000
  C    -54.113500    7.600530   92.702500
  C    -53.732700    8.768430   93.416500
  C    -53.464800    9.867170   92.516000
  C    -53.476300    9.570540   91.158000
  H    -53.151200   10.834200   92.802200
  C    -53.610600    8.823630   94.847300
  H    -54.573600    8.710900   95.196800
  H    -53.449700    9.884800   95.026900
  C    -52.517900    8.053620   95.654000
  H    -52.552000    8.361420   96.674800
  H    -52.811900    7.004000   95.619500
  C    -51.111700    8.105750   94.973200
  H    -50.765600    9.177740   95.060000
  H    -50.387400    7.447730   95.428100
  H    -51.079500    7.846820   93.977000
  S    -51.964400    9.786320   88.866500
  C    -52.230200   11.108200   87.734800
  C    -53.197700   11.989000   88.233300
  C    -53.707700   11.649000   89.515200
  C    -53.087700   10.447600   90.028600
  H    -53.529400   12.807400   87.587900
  C    -54.854500   12.397000   90.092100
  H    -55.311600   11.832500   90.894700
  H    -55.683400   12.571900   89.354200
  C    -54.406200   13.706300   90.798000
  H    -55.286800   14.293900   90.955500
  H    -53.764300   14.357500   90.095700
  C    -53.587500   13.494400   92.132300
  H    -53.525700   14.457600   92.655900
  H    -52.662900   13.196300   91.805300
  H    -54.111700   12.764000   92.796500
  H    -54.377100    6.599030   93.128800
  H    -51.624000   11.188900   86.852700

 Total Charge           Charge          ....    0
 Multiplicity           Mult            ....    1
 Number of Electrons    NEL             ....  134
 Basis Dimension        Dim             ....  322

ORBITAL ENERGIES
----------------

  NO   OCC          E(Eh)            E(eV)
   0   2.0000     -88.968439     -2420.9543
   1   2.0000     -88.964742     -2420.8537
   2   2.0000     -10.335594      -281.2458
   3   2.0000     -10.333918      -281.2002
   4   2.0000     -10.322252      -280.8828
   5   2.0000     -10.321136      -280.8524
   6   2.0000     -10.309693      -280.5410
   7   2.0000     -10.303979      -280.3855
   8   2.0000     -10.299005      -280.2502
   9   2.0000     -10.292779      -280.0808
  10   2.0000     -10.292152      -280.0637
  11   2.0000     -10.292067      -280.0614
  12   2.0000     -10.291158      -280.0367
  13   2.0000     -10.279748      -279.7262
  14   2.0000     -10.278593      -279.6947
  15   2.0000     -10.273866      -279.5661
  16   2.0000      -8.082906      -219.9471
  17   2.0000      -8.078373      -219.8237
  18   2.0000      -6.041313      -164.3925
  19   2.0000      -6.037297      -164.2832
  20   2.0000      -6.037002      -164.2752
  21   2.0000      -6.033957      -164.1923
  22   2.0000      -6.033053      -164.1677
  23   2.0000      -6.029036      -164.0584
  24   2.0000      -0.999320       -27.1929
  25   2.0000      -0.977340       -26.5948
  26   2.0000      -0.913811       -24.8661
  27   2.0000      -0.906864       -24.6770
  28   2.0000      -0.861935       -23.4545
  29   2.0000      -0.845674       -23.0120
  30   2.0000      -0.843912       -22.9640
  31   2.0000      -0.814110       -22.1531
  32   2.0000      -0.783549       -21.3214
  33   2.0000      -0.771490       -20.9933
  34   2.0000      -0.713606       -19.4182
  35   2.0000      -0.702227       -19.1086
  36   2.0000      -0.691284       -18.8108
  37   2.0000      -0.655508       -17.8373
  38   2.0000      -0.637138       -17.3374
  39   2.0000      -0.615995       -16.7621
  40   2.0000      -0.597461       -16.2578
  41   2.0000      -0.570595       -15.5267
  42   2.0000      -0.555858       -15.1257
  43   2.0000      -0.553138       -15.0517
  44   2.0000      -0.543164       -14.7803
  45   2.0000      -0.536128       -14.5888
  46   2.0000      -0.518509       -14.1094
  47   2.0000      -0.509599       -13.8669
  48   2.0000      -0.499450       -13.5907
  49   2.0000      -0.495438       -13.4816
  50   2.0000      -0.491750       -13.3812
  51   2.0000      -0.475772       -12.9464
  52   2.0000      -0.469032       -12.7630
  53   2.0000      -0.466850       -12.7036
  54   2.0000      -0.457169       -12.4402
  55   2.0000      -0.445271       -12.1164
  56   2.0000      -0.444304       -12.0901
  57   2.0000      -0.438625       -11.9356
  58   2.0000      -0.436303       -11.8724
  59   2.0000      -0.426901       -11.6166
  60   2.0000      -0.421515       -11.4700
  61   2.0000      -0.414098       -11.2682
  62   2.0000      -0.403909       -10.9909
  63   2.0000      -0.345525        -9.4022
  64   2.0000      -0.331542        -9.0217
  65   2.0000      -0.324407        -8.8276
  66   2.0000      -0.286390        -7.7931
  67   0.0000       0.024137         0.6568
  68   0.0000       0.058942         1.6039
  69   0.0000       0.106372         2.8945
  70   0.0000       0.119703         3.2573
  71   0.0000       0.125685         3.4201

MULLIKEN ATOMIC CHARGES
-----------------------
   0 S :    0.094246
   1 C :   -0.143862
   2 C :   -0.126449
   3 C :    0.051958
   4 C :   -0.130135
   5 H :   -0.020856
   6 C :    0.095812
   7 H :    0.018716
   8 H :    0.000304
   9 C :   -0.033681
  10 H :    0.033802
  11 H :    0.020468
  12 C :   -0.044523
  13 H :    0.032023
  14 H :    0.031420
  15 H :    0.030947
  16 S :    0.100153
  17 C :   -0.107978
  18 C :   -0.029182
  19 C :   -0.034391
  20 C :   -0.154795
  21 H :    0.030970
  22 C :    0.058853
  23 H :    0.020967
  24 H :    0.046977
  25 C :   -0.113173
  26 H :    0.022951
  27 H :    0.031522
  28 C :   -0.040628
  29 H :    0.040922
  30 H :    0.036569
  31 H :    0.046290
  32 H :    0.072135
  33 H :    0.061647
Sum of atomic charges:    0.0000000

LOEWDIN ATOMIC CHARGES
----------------------
   0 S :    0.381819
   1 C :   -0.195937
   2 C :   -0.058678
   3 C :   -0.063686
   4 C :   -0.188041
   5 H :    0.020479
   6 C :   -0.041883
   7 H :    0.029034
   8 H :    0.030542
   9 C :   -0.025025
  10 H :    0.024303
  11 H :    0.020065
  12 C :   -0.059651
  13 H :    0.030497
  14 H :    0.025601
  15 H :    0.017315
  16 S :    0.411707
  17 C :   -0.182339
  18 C :   -0.069106
  19 C :   -0.054357
  20 C :   -0.203499
  21 H :    0.036237
  22 C :   -0.037872
  23 H :    0.029521
  24 H :    0.040809
  25 C :   -0.038115
  26 H :    0.014956
  27 H :    0.025547
  28 C :   -0.058339
  29 H :    0.031896
  30 H :    0.014317
  31 H :    0.028078
  32 H :    0.037552
  33 H :    0.026253

  Mayer bond orders larger than 0.100000
B(  0-S ,  1-C ) :   1.1335 B(  0-S ,  4-C ) :   1.1469 B(  1-C ,  2-C ) :   1.5612
B(  1-C , 32-H ) :   0.9689 B(  2-C ,  3-C ) :   1.2530 B(  2-C ,  6-C ) :   1.0324
B(  3-C ,  4-C ) :   1.5602 B(  3-C ,  5-H ) :   0.9893 B(  4-C , 20-C ) :   1.0450
B(  6-C ,  7-H ) :   0.9231 B(  6-C ,  8-H ) :   0.9288 B(  6-C ,  9-C ) :   1.0584
B(  9-C , 10-H ) :   0.9587 B(  9-C , 11-H ) :   0.9561 B(  9-C , 12-C ) :   1.0735
B( 12-C , 13-H ) :   0.9790 B( 12-C , 14-H ) :   0.9758 B( 12-C , 15-H ) :   0.9724
B( 16-S , 17-C ) :   1.1671 B( 16-S , 20-C ) :   1.1634 B( 17-C , 18-C ) :   1.5650
B( 17-C , 20-C ) :   0.1082 B( 17-C , 33-H ) :   0.9727 B( 18-C , 19-C ) :   1.2804
B( 18-C , 21-H ) :   0.9885 B( 19-C , 20-C ) :   1.5172 B( 19-C , 22-C ) :   1.0575
B( 22-C , 23-H ) :   0.9294 B( 22-C , 24-H ) :   0.9408 B( 22-C , 25-C ) :   1.0580
B( 25-C , 26-H ) :   0.9589 B( 25-C , 27-H ) :   0.9616 B( 25-C , 28-C ) :   1.0624
B( 28-C , 29-H ) :   0.9706 B( 28-C , 30-H ) :   0.9755 B( 28-C , 31-H ) :   0.9684

Dispersion correction           -0.015308158
FINAL SINGLE POINT ENERGY     -1339.861501500002

DIPOLE MOMENT
-------------
                                X             Y             Z
Electronic contribution:      0.50463     -11.92036     -20.77697
Nuclear contribution   :     -0.59984      12.30204      21.11464
                        -----------------------------------------
Total Dipole Moment    :     -0.09520       0.38168       0.33767
                        -----------------------------------------
Magnitude (a.u.)       :      0.51842
Magnitude (Debye)      :      1.31772

Rotational constants in cm-1:     0.020270     0.008785     0.007197
Rotational constants in MHz :   607.682209   263.359014   215.772376

                             ****ORCA TERMINATED NORMALLY****
TOTAL RUN TIME: 0 days 0 hours 0 minutes 30 seconds 921 msec
