                         Program Version 4.2.1 -  RELEASE  -
|  1> ! wB97X-D3 SP def2-SVP
|  2> %pal
|  3> nprocs 16
|  4> end
|  5>
|  6> * xyz 0 1
|  7> S 	 -15.8258 	 -7.33909 	 90.755
|  8> C 	 -17.3072 	 -7.49831 	 89.8017
|  9> C 	 -17.7495 	 -8.83192 	 89.8073
| 10> C 	 -16.842 	 -9.71583 	 90.478
| 11> C 	 -15.696 	 -9.06247 	 91.0693
| 12> H 	 -16.8843 	 -10.78 	 90.5256
| 13> C 	 -18.9663 	 -9.29307 	 89.1158
| 14> H 	 -18.5668 	 -9.66202 	 88.1407
| 15> H 	 -19.4935 	 -8.40357 	 88.8841
| 16> C 	 -19.8518 	 -10.2973 	 89.8636
| 17> H 	 -19.1841 	 -11.0042 	 90.442
| 18> H 	 -20.344 	 -9.73239 	 90.5962
| 19> C 	 -20.7128 	 -11.1953 	 88.9899
| 20> H 	 -21.352 	 -11.9488 	 89.316
| 21> H 	 -21.471 	 -10.5197 	 88.5866
| 22> H 	 -20.1926 	 -11.5964 	 88.1726
| 23> S 	 -12.998 	 -8.82073 	 91.3921
| 24> C 	 -12.245 	 -9.79434 	 92.5877
| 25> C 	 -12.9645 	 -10.9145 	 92.8546
| 26> C 	 -14.282 	 -10.9126 	 92.228
| 27> C 	 -14.5271 	 -9.64574 	 91.6846
| 28> H 	 -12.6298 	 -11.7132 	 93.5198
| 29> C 	 -15.3075 	 -12.0081 	 92.5337
| 30> H 	 -15.5153 	 -12.6524 	 91.6413
| 31> H 	 -16.189 	 -11.441 	 92.833
| 32> C 	 -15.0619 	 -12.844 	 93.7984
| 33> H 	 -15.2115 	 -12.1673 	 94.6054
| 34> H 	 -14.0132 	 -13.2379 	 93.8462
| 35> C 	 -15.843 	 -14.1461 	 93.8731
| 36> H 	 -15.4032 	 -14.8907 	 93.2405
| 37> H 	 -16.7948 	 -14.0836 	 93.4598
| 38> H 	 -15.8911 	 -14.5553 	 94.7723
| 39> H 	 -17.8025 	 -6.67231 	 89.3093
| 40> H 	 -11.2698 	 -9.65168 	 92.9246
| 41> *
| 42>
| 43>                          ****END OF INPUT****

CARTESIAN COORDINATES (ANGSTROEM)
---------------------------------
  S    -15.825800   -7.339090   90.755000
  C    -17.307200   -7.498310   89.801700
  C    -17.749500   -8.831920   89.807300
  C    -16.842000   -9.715830   90.478000
  C    -15.696000   -9.062470   91.069300
  H    -16.884300  -10.780000   90.525600
  C    -18.966300   -9.293070   89.115800
  H    -18.566800   -9.662020   88.140700
  H    -19.493500   -8.403570   88.884100
  C    -19.851800  -10.297300   89.863600
  H    -19.184100  -11.004200   90.442000
  H    -20.344000   -9.732390   90.596200
  C    -20.712800  -11.195300   88.989900
  H    -21.352000  -11.948800   89.316000
  H    -21.471000  -10.519700   88.586600
  H    -20.192600  -11.596400   88.172600
  S    -12.998000   -8.820730   91.392100
  C    -12.245000   -9.794340   92.587700
  C    -12.964500  -10.914500   92.854600
  C    -14.282000  -10.912600   92.228000
  C    -14.527100   -9.645740   91.684600
  H    -12.629800  -11.713200   93.519800
  C    -15.307500  -12.008100   92.533700
  H    -15.515300  -12.652400   91.641300
  H    -16.189000  -11.441000   92.833000
  C    -15.061900  -12.844000   93.798400
  H    -15.211500  -12.167300   94.605400
  H    -14.013200  -13.237900   93.846200
  C    -15.843000  -14.146100   93.873100
  H    -15.403200  -14.890700   93.240500
  H    -16.794800  -14.083600   93.459800
  H    -15.891100  -14.555300   94.772300
  H    -17.802500   -6.672310   89.309300
  H    -11.269800   -9.651680   92.924600

 Total Charge           Charge          ....    0
 Multiplicity           Mult            ....    1
 Number of Electrons    NEL             ....  134
 Basis Dimension        Dim             ....  322

ORBITAL ENERGIES
----------------

  NO   OCC          E(Eh)            E(eV)
   0   2.0000     -88.967202     -2420.9206
   1   2.0000     -88.961540     -2420.7666
   2   2.0000     -10.335050      -281.2310
   3   2.0000     -10.328529      -281.0536
   4   2.0000     -10.316802      -280.7345
   5   2.0000     -10.307801      -280.4895
   6   2.0000     -10.305955      -280.4393
   7   2.0000     -10.303750      -280.3793
   8   2.0000     -10.298275      -280.2303
   9   2.0000     -10.297224      -280.2017
  10   2.0000     -10.291956      -280.0584
  11   2.0000     -10.289818      -280.0002
  12   2.0000     -10.289569      -279.9934
  13   2.0000     -10.287753      -279.9440
  14   2.0000     -10.270539      -279.4756
  15   2.0000     -10.262052      -279.2446
  16   2.0000      -8.081063      -219.8969
  17   2.0000      -8.077088      -219.7887
  18   2.0000      -6.039560      -164.3448
  19   2.0000      -6.035611      -164.2373
  20   2.0000      -6.035545      -164.2355
  21   2.0000      -6.032024      -164.1397
  22   2.0000      -6.031778      -164.1330
  23   2.0000      -6.027474      -164.0159
  24   2.0000      -1.005330       -27.3564
  25   2.0000      -0.980126       -26.6706
  26   2.0000      -0.917735       -24.9728
  27   2.0000      -0.913749       -24.8644
  28   2.0000      -0.871807       -23.7231
  29   2.0000      -0.856585       -23.3089
  30   2.0000      -0.844743       -22.9866
  31   2.0000      -0.813613       -22.1395
  32   2.0000      -0.789161       -21.4742
  33   2.0000      -0.777098       -21.1459
  34   2.0000      -0.719930       -19.5903
  35   2.0000      -0.706085       -19.2136
  36   2.0000      -0.697147       -18.9703
  37   2.0000      -0.652387       -17.7524
  38   2.0000      -0.637602       -17.3500
  39   2.0000      -0.619783       -16.8651
  40   2.0000      -0.601990       -16.3810
  41   2.0000      -0.577006       -15.7011
  42   2.0000      -0.571760       -15.5584
  43   2.0000      -0.560378       -15.2487
  44   2.0000      -0.535454       -14.5704
  45   2.0000      -0.524548       -14.2737
  46   2.0000      -0.520795       -14.1716
  47   2.0000      -0.512558       -13.9474
  48   2.0000      -0.509623       -13.8675
  49   2.0000      -0.502997       -13.6872
  50   2.0000      -0.497944       -13.5497
  51   2.0000      -0.486669       -13.2429
  52   2.0000      -0.470418       -12.8007
  53   2.0000      -0.464714       -12.6455
  54   2.0000      -0.461392       -12.5551
  55   2.0000      -0.458675       -12.4812
  56   2.0000      -0.451765       -12.2932
  57   2.0000      -0.440516       -11.9871
  58   2.0000      -0.433968       -11.8089
  59   2.0000      -0.432504       -11.7690
  60   2.0000      -0.416714       -11.3394
  61   2.0000      -0.408218       -11.1082
  62   2.0000      -0.405999       -11.0478
  63   2.0000      -0.354046        -9.6341
  64   2.0000      -0.328242        -8.9319
  65   2.0000      -0.325258        -8.8507
  66   2.0000      -0.279144        -7.5959
  67   0.0000       0.012863         0.3500
  68   0.0000       0.083972         2.2850
  69   0.0000       0.103023         2.8034
  70   0.0000       0.117887         3.2079
  71   0.0000       0.134293         3.6543

MULLIKEN ATOMIC CHARGES
-----------------------
   0 S :    0.106682
   1 C :   -0.130013
   2 C :   -0.102063
   3 C :    0.020187
   4 C :   -0.154402
   5 H :    0.000081
   6 C :    0.094329
   7 H :    0.044688
   8 H :    0.004704
   9 C :   -0.065059
  10 H :    0.031030
  11 H :    0.023134
  12 C :   -0.007780
  13 H :    0.019874
  14 H :    0.013479
  15 H :    0.019613
  16 S :    0.097976
  17 C :   -0.037906
  18 C :   -0.047084
  19 C :   -0.039078
  20 C :   -0.135862
  21 H :    0.021193
  22 C :    0.015095
  23 H :    0.054676
  24 H :    0.043156
  25 C :   -0.108883
  26 H :    0.032256
  27 H :    0.038303
  28 C :    0.050225
  29 H :    0.013433
  30 H :    0.002734
  31 H :    0.002417
  32 H :    0.051078
  33 H :    0.027787
Sum of atomic charges:   -0.0000000

LOEWDIN ATOMIC CHARGES
----------------------
   0 S :    0.403066
   1 C :   -0.201130
   2 C :   -0.059610
   3 C :   -0.064143
   4 C :   -0.192297
   5 H :    0.021868
   6 C :   -0.031436
   7 H :    0.041563
   8 H :    0.024543
   9 C :   -0.032994
  10 H :    0.026486
  11 H :    0.020977
  12 C :   -0.064736
  13 H :    0.021142
  14 H :    0.028691
  15 H :    0.020827
  16 S :    0.404781
  17 C :   -0.183732
  18 C :   -0.070414
  19 C :   -0.052909
  20 C :   -0.189319
  21 H :    0.031892
  22 C :   -0.040768
  23 H :    0.034752
  24 H :    0.039988
  25 C :   -0.037385
  26 H :    0.021496
  27 H :    0.025790
  28 C :   -0.046726
  29 H :    0.027914
  30 H :    0.016481
  31 H :    0.009954
  32 H :    0.028938
  33 H :    0.016449

  Mayer bond orders larger than 0.100000
B(  0-S ,  1-C ) :   1.1375 B(  0-S ,  4-C ) :   1.1631 B(  1-C ,  2-C ) :   1.5671
B(  1-C ,  4-C ) :   0.1031 B(  1-C , 32-H ) :   0.9694 B(  2-C ,  3-C ) :   1.2646
B(  2-C ,  6-C ) :   1.0323 B(  3-C ,  4-C ) :   1.5098 B(  3-C ,  5-H ) :   0.9878
B(  4-C , 20-C ) :   1.1097 B(  6-C ,  7-H ) :   0.9324 B(  6-C ,  8-H ) :   0.9320
B(  6-C ,  9-C ) :   1.0418 B(  9-C , 10-H ) :   0.9639 B(  9-C , 11-H ) :   0.9597
B(  9-C , 12-C ) :   1.0677 B( 12-C , 13-H ) :   0.9758 B( 12-C , 14-H ) :   0.9700
B( 12-C , 15-H ) :   0.9766 B( 16-S , 17-C ) :   1.1353 B( 16-S , 20-C ) :   1.1383
B( 17-C , 18-C ) :   1.6223 B( 17-C , 33-H ) :   0.9736 B( 18-C , 19-C ) :   1.2267
B( 18-C , 21-H ) :   0.9839 B( 19-C , 20-C ) :   1.5770 B( 19-C , 22-C ) :   1.0311
B( 22-C , 23-H ) :   0.9304 B( 22-C , 24-H ) :   0.9354 B( 22-C , 25-C ) :   1.0752
B( 25-C , 26-H ) :   0.9612 B( 25-C , 27-H ) :   0.9513 B( 25-C , 28-C ) :   1.0793
B( 28-C , 29-H ) :   0.9701 B( 28-C , 30-H ) :   0.9695 B( 28-C , 31-H ) :   0.9678

Dispersion correction           -0.013265758
FINAL SINGLE POINT ENERGY     -1339.842586817788

DIPOLE MOMENT
-------------
                                X             Y             Z
Electronic contribution:     21.37223      24.27120      -1.82509
Nuclear contribution   :    -21.81607     -24.92375       1.82940
                        -----------------------------------------
Total Dipole Moment    :     -0.44384      -0.65255       0.00431
                        -----------------------------------------
Magnitude (a.u.)       :      0.78920
Magnitude (Debye)      :      2.00598

Rotational constants in cm-1:     0.015718     0.009207     0.006013
Rotational constants in MHz :   471.207572   276.028012   180.263760

                             ****ORCA TERMINATED NORMALLY****
TOTAL RUN TIME: 0 days 0 hours 0 minutes 32 seconds 483 msec
