                         Program Version 4.2.1 -  RELEASE  -
|  1> ! wB97X-D3 SP def2-SVP
|  2> %pal
|  3> nprocs 16
|  4> end
|  5>
|  6> * xyz 0 1
|  7> S 	 1.69256 	 16.2601 	 86.9035
|  8> C 	 2.50397 	 17.6319 	 86.1651
|  9> C 	 3.71602 	 17.2757 	 85.5975
| 10> C 	 3.88813 	 15.8366 	 85.6845
| 11> C 	 2.93289 	 15.1759 	 86.3428
| 12> H 	 4.66498 	 15.2255 	 85.2868
| 13> C 	 4.78066 	 18.2405 	 85.1809
| 14> H 	 5.72361 	 17.6206 	 85.1439
| 15> H 	 4.94814 	 18.9635 	 85.9754
| 16> C 	 4.69449 	 18.9986 	 83.7904
| 17> H 	 4.24932 	 18.3777 	 83.0147
| 18> H 	 3.85646 	 19.7321 	 83.9517
| 19> C 	 5.95053 	 19.7918 	 83.42
| 20> H 	 6.16801 	 20.4749 	 84.1997
| 21> H 	 6.78351 	 19.0783 	 83.2083
| 22> H 	 5.85412 	 20.2975 	 82.4967
| 23> S 	 1.46344 	 12.8366 	 86.3533
| 24> C 	 2.00627 	 11.4033 	 87.1403
| 25> C 	 3.26845 	 11.6104 	 87.704
| 26> C 	 3.75827 	 12.9389 	 87.4793
| 27> C 	 2.91442 	 13.7743 	 86.7196
| 28> H 	 3.72733 	 10.8496 	 88.3886
| 29> C 	 5.12782 	 13.385 	 88.0802
| 30> H 	 5.3316 	 12.8244 	 88.9955
| 31> H 	 5.09281 	 14.4461 	 88.457
| 32> C 	 6.28797 	 13.3445 	 87.0722
| 33> H 	 7.13671 	 13.8124 	 87.5011
| 34> H 	 6.07666 	 13.9107 	 86.2105
| 35> C 	 6.89171 	 11.9529 	 86.7781
| 36> H 	 7.6861 	 12.0146 	 86.0253
| 37> H 	 6.07726 	 11.2619 	 86.4184
| 38> H 	 7.29552 	 11.3879 	 87.6255
| 39> H 	 2.15793 	 18.6124 	 86.2948
| 40> H 	 1.29467 	 10.5991 	 87.4219
| 41> *
| 42>
| 43>                          ****END OF INPUT****

CARTESIAN COORDINATES (ANGSTROEM)
---------------------------------
  S      1.692560   16.260100   86.903500
  C      2.503970   17.631900   86.165100
  C      3.716020   17.275700   85.597500
  C      3.888130   15.836600   85.684500
  C      2.932890   15.175900   86.342800
  H      4.664980   15.225500   85.286800
  C      4.780660   18.240500   85.180900
  H      5.723610   17.620600   85.143900
  H      4.948140   18.963500   85.975400
  C      4.694490   18.998600   83.790400
  H      4.249320   18.377700   83.014700
  H      3.856460   19.732100   83.951700
  C      5.950530   19.791800   83.420000
  H      6.168010   20.474900   84.199700
  H      6.783510   19.078300   83.208300
  H      5.854120   20.297500   82.496700
  S      1.463440   12.836600   86.353300
  C      2.006270   11.403300   87.140300
  C      3.268450   11.610400   87.704000
  C      3.758270   12.938900   87.479300
  C      2.914420   13.774300   86.719600
  H      3.727330   10.849600   88.388600
  C      5.127820   13.385000   88.080200
  H      5.331600   12.824400   88.995500
  H      5.092810   14.446100   88.457000
  C      6.287970   13.344500   87.072200
  H      7.136710   13.812400   87.501100
  H      6.076660   13.910700   86.210500
  C      6.891710   11.952900   86.778100
  H      7.686100   12.014600   86.025300
  H      6.077260   11.261900   86.418400
  H      7.295520   11.387900   87.625500
  H      2.157930   18.612400   86.294800
  H      1.294670   10.599100   87.421900

 Total Charge           Charge          ....    0
 Multiplicity           Mult            ....    1
 Number of Electrons    NEL             ....  134
 Basis Dimension        Dim             ....  322

ORBITAL ENERGIES
----------------

  NO   OCC          E(Eh)            E(eV)
   0   2.0000     -88.964387     -2420.8440
   1   2.0000     -88.963491     -2420.8197
   2   2.0000     -10.330020      -281.0941
   3   2.0000     -10.324641      -280.9478
   4   2.0000     -10.321247      -280.8554
   5   2.0000     -10.313839      -280.6538
   6   2.0000     -10.311052      -280.5780
   7   2.0000     -10.306138      -280.4443
   8   2.0000     -10.301581      -280.3203
   9   2.0000     -10.298904      -280.2474
  10   2.0000     -10.297083      -280.1979
  11   2.0000     -10.293654      -280.1046
  12   2.0000     -10.291036      -280.0333
  13   2.0000     -10.280286      -279.7408
  14   2.0000     -10.279406      -279.7169
  15   2.0000     -10.278903      -279.7032
  16   2.0000      -8.079550      -219.8557
  17   2.0000      -8.078564      -219.8289
  18   2.0000      -6.038073      -164.3043
  19   2.0000      -6.036978      -164.2745
  20   2.0000      -6.034051      -164.1949
  21   2.0000      -6.032772      -164.1601
  22   2.0000      -6.030198      -164.0900
  23   2.0000      -6.029648      -164.0751
  24   2.0000      -1.008828       -27.4516
  25   2.0000      -0.984571       -26.7915
  26   2.0000      -0.907405       -24.6918
  27   2.0000      -0.903623       -24.5888
  28   2.0000      -0.871808       -23.7231
  29   2.0000      -0.851804       -23.1788
  30   2.0000      -0.843089       -22.9416
  31   2.0000      -0.818136       -22.2626
  32   2.0000      -0.781770       -21.2731
  33   2.0000      -0.771585       -20.9959
  34   2.0000      -0.707000       -19.2384
  35   2.0000      -0.705361       -19.1938
  36   2.0000      -0.691052       -18.8045
  37   2.0000      -0.661003       -17.9868
  38   2.0000      -0.649932       -17.6855
  39   2.0000      -0.617300       -16.7976
  40   2.0000      -0.592720       -16.1287
  41   2.0000      -0.567608       -15.4454
  42   2.0000      -0.558415       -15.1952
  43   2.0000      -0.547231       -14.8909
  44   2.0000      -0.541473       -14.7342
  45   2.0000      -0.530214       -14.4279
  46   2.0000      -0.515641       -14.0313
  47   2.0000      -0.510099       -13.8805
  48   2.0000      -0.509356       -13.8603
  49   2.0000      -0.502755       -13.6807
  50   2.0000      -0.490203       -13.3391
  51   2.0000      -0.478137       -13.0108
  52   2.0000      -0.471621       -12.8335
  53   2.0000      -0.463842       -12.6218
  54   2.0000      -0.460763       -12.5380
  55   2.0000      -0.453835       -12.3495
  56   2.0000      -0.441921       -12.0253
  57   2.0000      -0.440459       -11.9855
  58   2.0000      -0.438993       -11.9456
  59   2.0000      -0.428327       -11.6554
  60   2.0000      -0.416837       -11.3427
  61   2.0000      -0.407329       -11.0840
  62   2.0000      -0.402234       -10.9453
  63   2.0000      -0.344903        -9.3853
  64   2.0000      -0.331907        -9.0316
  65   2.0000      -0.328257        -8.9323
  66   2.0000      -0.299894        -8.1605
  67   0.0000       0.030447         0.8285
  68   0.0000       0.065436         1.7806
  69   0.0000       0.109253         2.9729
  70   0.0000       0.123851         3.3702
  71   0.0000       0.128480         3.4961

MULLIKEN ATOMIC CHARGES
-----------------------
   0 S :    0.110042
   1 C :   -0.097995
   2 C :   -0.056541
   3 C :    0.023830
   4 C :   -0.120452
   5 H :    0.000263
   6 C :    0.025499
   7 H :    0.022970
   8 H :    0.036059
   9 C :   -0.091595
  10 H :    0.033163
  11 H :    0.022146
  12 C :   -0.015850
  13 H :    0.032320
  14 H :    0.034207
  15 H :    0.029362
  16 S :    0.099334
  17 C :   -0.111868
  18 C :   -0.053758
  19 C :   -0.030202
  20 C :   -0.179662
  21 H :    0.043159
  22 C :    0.048946
  23 H :    0.019059
  24 H :    0.040004
  25 C :   -0.015125
  26 H :    0.015397
  27 H :    0.005930
  28 C :   -0.081529
  29 H :    0.036447
  30 H :    0.034366
  31 H :    0.027684
  32 H :    0.031326
  33 H :    0.083066
Sum of atomic charges:   -0.0000000

LOEWDIN ATOMIC CHARGES
----------------------
   0 S :    0.403826
   1 C :   -0.174923
   2 C :   -0.062611
   3 C :   -0.057200
   4 C :   -0.199199
   5 H :    0.027354
   6 C :   -0.038126
   7 H :    0.032951
   8 H :    0.031933
   9 C :   -0.044430
  10 H :    0.023742
  11 H :    0.023769
  12 C :   -0.059491
  13 H :    0.023383
  14 H :    0.030687
  15 H :    0.024643
  16 S :    0.416103
  17 C :   -0.203095
  18 C :   -0.084476
  19 C :   -0.052491
  20 C :   -0.202006
  21 H :    0.041543
  22 C :   -0.030543
  23 H :    0.028156
  24 H :    0.039342
  25 C :   -0.036504
  26 H :    0.022284
  27 H :    0.014880
  28 C :   -0.072733
  29 H :    0.026180
  30 H :    0.026714
  31 H :    0.023389
  32 H :    0.016497
  33 H :    0.040454

  Mayer bond orders larger than 0.100000
B(  0-S ,  1-C ) :   1.1400 B(  0-S ,  4-C ) :   1.1350 B(  1-C ,  2-C ) :   1.6176
B(  1-C , 32-H ) :   0.9786 B(  2-C ,  3-C ) :   1.2012 B(  2-C ,  6-C ) :   1.0196
B(  3-C ,  4-C ) :   1.6296 B(  3-C ,  5-H ) :   1.0008 B(  4-C , 20-C ) :   1.0281
B(  6-C ,  7-H ) :   0.9474 B(  6-C ,  8-H ) :   0.9437 B(  6-C ,  9-C ) :   1.0441
B(  9-C , 10-H ) :   0.9614 B(  9-C , 11-H ) :   0.9543 B(  9-C , 12-C ) :   1.0795
B( 12-C , 13-H ) :   0.9743 B( 12-C , 14-H ) :   0.9750 B( 12-C , 15-H ) :   0.9723
B( 16-S , 17-C ) :   1.1877 B( 16-S , 20-C ) :   1.1488 B( 17-C , 18-C ) :   1.5605
B( 17-C , 20-C ) :   0.1083 B( 17-C , 33-H ) :   0.9606 B( 18-C , 19-C ) :   1.2840
B( 18-C , 21-H ) :   0.9812 B( 19-C , 20-C ) :   1.5624 B( 19-C , 22-C ) :   1.0335
B( 22-C , 23-H ) :   0.9426 B( 22-C , 24-H ) :   0.9369 B( 22-C , 25-C ) :   1.0755
B( 25-C , 26-H ) :   0.9484 B( 25-C , 27-H ) :   0.9549 B( 25-C , 28-C ) :   1.0722
B( 28-C , 29-H ) :   0.9747 B( 28-C , 30-H ) :   0.9761 B( 28-C , 31-H ) :   0.9755

Dispersion correction           -0.014175187
FINAL SINGLE POINT ENERGY     -1339.880120319370

DIPOLE MOMENT
-------------
                                X             Y             Z
Electronic contribution:    -27.03730      -8.86597       6.66906
Nuclear contribution   :     27.63830       9.13408      -6.49574
                        -----------------------------------------
Total Dipole Moment    :      0.60100       0.26811       0.17332
                        -----------------------------------------
Magnitude (a.u.)       :      0.68053
Magnitude (Debye)      :      1.72978

Rotational constants in cm-1:     0.019729     0.007941     0.006164
Rotational constants in MHz :   591.462931   238.055604   184.787147

                             ****ORCA TERMINATED NORMALLY****
TOTAL RUN TIME: 0 days 0 hours 0 minutes 35 seconds 107 msec
