                         Program Version 4.2.1 -  RELEASE  -
|  1> ! wB97X-D3 SP def2-SVP
|  2> %pal
|  3> nprocs 16
|  4> end
|  5>
|  6> * xyz 0 1
|  7> S 	 -80.2153 	 43.1503 	 128.605
|  8> C 	 -81.7553 	 43.1075 	 127.846
|  9> C 	 -82.2428 	 44.4068 	 127.647
| 10> C 	 -81.4703 	 45.381 	 128.363
| 11> C 	 -80.3991 	 44.8782 	 128.998
| 12> H 	 -81.6527 	 46.4527 	 128.53
| 13> C 	 -83.5297 	 44.7849 	 126.862
| 14> H 	 -83.206 	 44.9795 	 125.843
| 15> H 	 -83.8498 	 45.7823 	 127.217
| 16> C 	 -84.5613 	 43.7296 	 126.794
| 17> H 	 -84.0152 	 42.9359 	 126.252
| 18> H 	 -84.838 	 43.3304 	 127.755
| 19> C 	 -85.8286 	 44.0343 	 126.032
| 20> H 	 -86.4812 	 44.579 	 126.694
| 21> H 	 -85.604 	 44.6703 	 125.13
| 22> H 	 -86.3469 	 43.193 	 125.719
| 23> S 	 -77.9013 	 46.2145 	 129.237
| 24> C 	 -77.5608 	 47.1892 	 130.685
| 25> C 	 -78.4303 	 46.9262 	 131.68
| 26> C 	 -79.5139 	 46.0606 	 131.257
| 27> C 	 -79.447 	 45.6348 	 129.885
| 28> H 	 -78.2472 	 47.3654 	 132.574
| 29> C 	 -80.6473 	 45.5836 	 132.168
| 30> H 	 -81.6178 	 45.6863 	 131.638
| 31> H 	 -80.9064 	 46.2656 	 132.95
| 32> C 	 -80.5788 	 44.1366 	 132.718
| 33> H 	 -79.5353 	 43.9566 	 133.065
| 34> H 	 -80.5611 	 43.4212 	 131.923
| 35> C 	 -81.6288 	 43.9063 	 133.817
| 36> H 	 -81.4026 	 44.6008 	 134.666
| 37> H 	 -81.8652 	 42.8632 	 134.227
| 38> H 	 -82.5548 	 44.2035 	 133.359
| 39> H 	 -82.0021 	 42.299 	 127.159
| 40> H 	 -76.6309 	 47.75 	 130.741
| 41> *
| 42>
| 43>                          ****END OF INPUT****

CARTESIAN COORDINATES (ANGSTROEM)
---------------------------------
  S    -80.215300   43.150300  128.605000
  C    -81.755300   43.107500  127.846000
  C    -82.242800   44.406800  127.647000
  C    -81.470300   45.381000  128.363000
  C    -80.399100   44.878200  128.998000
  H    -81.652700   46.452700  128.530000
  C    -83.529700   44.784900  126.862000
  H    -83.206000   44.979500  125.843000
  H    -83.849800   45.782300  127.217000
  C    -84.561300   43.729600  126.794000
  H    -84.015200   42.935900  126.252000
  H    -84.838000   43.330400  127.755000
  C    -85.828600   44.034300  126.032000
  H    -86.481200   44.579000  126.694000
  H    -85.604000   44.670300  125.130000
  H    -86.346900   43.193000  125.719000
  S    -77.901300   46.214500  129.237000
  C    -77.560800   47.189200  130.685000
  C    -78.430300   46.926200  131.680000
  C    -79.513900   46.060600  131.257000
  C    -79.447000   45.634800  129.885000
  H    -78.247200   47.365400  132.574000
  C    -80.647300   45.583600  132.168000
  H    -81.617800   45.686300  131.638000
  H    -80.906400   46.265600  132.950000
  C    -80.578800   44.136600  132.718000
  H    -79.535300   43.956600  133.065000
  H    -80.561100   43.421200  131.923000
  C    -81.628800   43.906300  133.817000
  H    -81.402600   44.600800  134.666000
  H    -81.865200   42.863200  134.227000
  H    -82.554800   44.203500  133.359000
  H    -82.002100   42.299000  127.159000
  H    -76.630900   47.750000  130.741000

 Total Charge           Charge          ....    0
 Multiplicity           Mult            ....    1
 Number of Electrons    NEL             ....  134
 Basis Dimension        Dim             ....  322

ORBITAL ENERGIES
----------------

  NO   OCC          E(Eh)            E(eV)
   0   2.0000     -88.965024     -2420.8614
   1   2.0000     -88.962485     -2420.7923
   2   2.0000     -10.337173      -281.2888
   3   2.0000     -10.333019      -281.1757
   4   2.0000     -10.319494      -280.8077
   5   2.0000     -10.316227      -280.7188
   6   2.0000     -10.314811      -280.6803
   7   2.0000     -10.308786      -280.5163
   8   2.0000     -10.295752      -280.1617
   9   2.0000     -10.294478      -280.1270
  10   2.0000     -10.291292      -280.0403
  11   2.0000     -10.288827      -279.9732
  12   2.0000     -10.283536      -279.8292
  13   2.0000     -10.282804      -279.8093
  14   2.0000     -10.282029      -279.7882
  15   2.0000     -10.275564      -279.6123
  16   2.0000      -8.079823      -219.8632
  17   2.0000      -8.076718      -219.7787
  18   2.0000      -6.038328      -164.3113
  19   2.0000      -6.035216      -164.2266
  20   2.0000      -6.034346      -164.2029
  21   2.0000      -6.031241      -164.1184
  22   2.0000      -6.030529      -164.0990
  23   2.0000      -6.027564      -164.0183
  24   2.0000      -1.003030       -27.2938
  25   2.0000      -0.982026       -26.7223
  26   2.0000      -0.919098       -25.0099
  27   2.0000      -0.900586       -24.5062
  28   2.0000      -0.871007       -23.7013
  29   2.0000      -0.852040       -23.1852
  30   2.0000      -0.841412       -22.8960
  31   2.0000      -0.822675       -22.3861
  32   2.0000      -0.782760       -21.3000
  33   2.0000      -0.763619       -20.7791
  34   2.0000      -0.708399       -19.2765
  35   2.0000      -0.702003       -19.1025
  36   2.0000      -0.688280       -18.7290
  37   2.0000      -0.659954       -17.9583
  38   2.0000      -0.647456       -17.6182
  39   2.0000      -0.615038       -16.7360
  40   2.0000      -0.598406       -16.2835
  41   2.0000      -0.575734       -15.6665
  42   2.0000      -0.573145       -15.5961
  43   2.0000      -0.550868       -14.9899
  44   2.0000      -0.526788       -14.3346
  45   2.0000      -0.520733       -14.1699
  46   2.0000      -0.516769       -14.0620
  47   2.0000      -0.513186       -13.9645
  48   2.0000      -0.507657       -13.8140
  49   2.0000      -0.497409       -13.5352
  50   2.0000      -0.494190       -13.4476
  51   2.0000      -0.478337       -13.0162
  52   2.0000      -0.472865       -12.8673
  53   2.0000      -0.456878       -12.4323
  54   2.0000      -0.456019       -12.4089
  55   2.0000      -0.451474       -12.2852
  56   2.0000      -0.447255       -12.1704
  57   2.0000      -0.438826       -11.9411
  58   2.0000      -0.432011       -11.7556
  59   2.0000      -0.421213       -11.4618
  60   2.0000      -0.419148       -11.4056
  61   2.0000      -0.414361       -11.2753
  62   2.0000      -0.400491       -10.8979
  63   2.0000      -0.343059        -9.3351
  64   2.0000      -0.333730        -9.0813
  65   2.0000      -0.318813        -8.6754
  66   2.0000      -0.309394        -8.4190
  67   0.0000       0.040350         1.0980
  68   0.0000       0.047190         1.2841
  69   0.0000       0.118252         3.2178
  70   0.0000       0.120214         3.2712
  71   0.0000       0.129937         3.5358

MULLIKEN ATOMIC CHARGES
-----------------------
   0 S :    0.110148
   1 C :   -0.114880
   2 C :   -0.125903
   3 C :    0.053539
   4 C :   -0.167539
   5 H :    0.025954
   6 C :    0.097044
   7 H :    0.028997
   8 H :    0.017375
   9 C :   -0.105417
  10 H :    0.022643
  11 H :    0.030563
  12 C :   -0.001092
  13 H :    0.026423
  14 H :    0.027794
  15 H :    0.021855
  16 S :    0.086737
  17 C :   -0.102115
  18 C :    0.029481
  19 C :   -0.020017
  20 C :   -0.165995
  21 H :   -0.019254
  22 C :    0.041753
  23 H :    0.021096
  24 H :    0.001442
  25 C :   -0.031966
  26 H :    0.018543
  27 H :    0.014340
  28 C :   -0.067681
  29 H :    0.040838
  30 H :    0.051348
  31 H :    0.022074
  32 H :    0.065781
  33 H :    0.066093
Sum of atomic charges:    0.0000000

LOEWDIN ATOMIC CHARGES
----------------------
   0 S :    0.404844
   1 C :   -0.216274
   2 C :   -0.056234
   3 C :   -0.060583
   4 C :   -0.186078
   5 H :    0.041886
   6 C :   -0.030710
   7 H :    0.034304
   8 H :    0.026082
   9 C :   -0.047219
  10 H :    0.025548
  11 H :    0.022943
  12 C :   -0.055173
  13 H :    0.024557
  14 H :    0.030460
  15 H :    0.018383
  16 S :    0.381135
  17 C :   -0.164329
  18 C :   -0.061541
  19 C :   -0.042452
  20 C :   -0.196492
  21 H :    0.018949
  22 C :   -0.041964
  23 H :    0.034687
  24 H :    0.022321
  25 C :   -0.042460
  26 H :    0.022895
  27 H :    0.016229
  28 C :   -0.073568
  29 H :    0.030310
  30 H :    0.036549
  31 H :    0.020887
  32 H :    0.030702
  33 H :    0.031405

  Mayer bond orders larger than 0.100000
B(  0-S ,  1-C ) :   1.1454 B(  0-S ,  4-C ) :   1.1402 B(  1-C ,  2-C ) :   1.6237
B(  1-C , 32-H ) :   0.9565 B(  2-C ,  3-C ) :   1.2217 B(  2-C ,  6-C ) :   1.0100
B(  3-C ,  4-C ) :   1.6343 B(  3-C ,  5-H ) :   0.9873 B(  4-C , 20-C ) :   0.9998
B(  6-C ,  7-H ) :   0.9193 B(  6-C ,  8-H ) :   0.9492 B(  6-C ,  9-C ) :   1.0786
B(  9-C , 10-H ) :   0.9409 B(  9-C , 11-H ) :   0.9613 B(  9-C , 12-C ) :   1.0916
B( 12-C , 13-H ) :   0.9731 B( 12-C , 14-H ) :   0.9718 B( 12-C , 15-H ) :   0.9717
B( 16-S , 17-C ) :   1.1560 B( 16-S , 20-C ) :   1.1433 B( 17-C , 18-C ) :   1.6090
B( 17-C , 33-H ) :   0.9648 B( 18-C , 19-C ) :   1.2229 B( 18-C , 21-H ) :   1.0169
B( 19-C , 20-C ) :   1.5855 B( 19-C , 22-C ) :   1.0468 B( 22-C , 23-H ) :   0.9256
B( 22-C , 24-H ) :   0.9407 B( 22-C , 25-C ) :   1.0461 B( 25-C , 26-H ) :   0.9571
B( 25-C , 27-H ) :   0.9518 B( 25-C , 28-C ) :   1.0595 B( 28-C , 29-H ) :   0.9760
B( 28-C , 30-H ) :   0.9745 B( 28-C , 31-H ) :   0.9750

Dispersion correction           -0.013916695
FINAL SINGLE POINT ENERGY     -1339.863160172404

DIPOLE MOMENT
-------------
                                X             Y             Z
Electronic contribution:     25.40741       3.59337      -4.94803
Nuclear contribution   :    -25.87455      -3.35024       4.98079
                        -----------------------------------------
Total Dipole Moment    :     -0.46714       0.24313       0.03276
                        -----------------------------------------
Magnitude (a.u.)       :      0.52764
Magnitude (Debye)      :      1.34116

Rotational constants in cm-1:     0.019512     0.007459     0.006328
Rotational constants in MHz :   584.954522   223.615972   189.711420

                             ****ORCA TERMINATED NORMALLY****
TOTAL RUN TIME: 0 days 0 hours 0 minutes 32 seconds 478 msec
