                         Program Version 4.2.1 -  RELEASE  -
|  1> ! wB97X-D3 SP def2-SVP
|  2> %pal
|  3> nprocs 16
|  4> end
|  5>
|  6> * xyz 0 1
|  7> S 	 2.92521 	 -14.3315 	 56.7455
|  8> C 	 3.28703 	 -14.357 	 58.4118
|  9> C 	 2.60894 	 -15.3348 	 59.1297
| 10> C 	 1.73533 	 -16.078 	 58.2905
| 11> C 	 1.87784 	 -15.7641 	 56.9459
| 12> H 	 1.29599 	 -16.9967 	 58.6831
| 13> C 	 2.59679 	 -15.5571 	 60.6319
| 14> H 	 1.51539 	 -15.5153 	 60.9602
| 15> H 	 3.05293 	 -14.6884 	 61.1924
| 16> C 	 3.16228 	 -16.8632 	 61.1259
| 17> H 	 3.14282 	 -16.8872 	 62.2415
| 18> H 	 2.47447 	 -17.6055 	 60.6739
| 19> C 	 4.6032 	 -16.997 	 60.7655
| 20> H 	 5.28255 	 -16.3975 	 61.4176
| 21> H 	 4.84813 	 -18.0264 	 60.8292
| 22> H 	 4.78607 	 -16.7703 	 59.7745
| 23> S 	 0.338058 	 -15.1584 	 54.7329
| 24> C 	 -0.536868 	 -16.5952 	 54.037
| 25> C 	 -0.182282 	 -17.7252 	 54.6539
| 26> C 	 0.7719 	 -17.6002 	 55.6973
| 27> C 	 1.09871 	 -16.2937 	 55.8681
| 28> H 	 -0.670666 	 -18.6154 	 54.3419
| 29> C 	 1.30237 	 -18.8018 	 56.4274
| 30> H 	 2.06802 	 -18.5109 	 57.1824
| 31> H 	 1.85336 	 -19.4175 	 55.7591
| 32> C 	 0.263809 	 -19.5198 	 57.3054
| 33> H 	 -0.706095 	 -19.7488 	 56.888
| 34> H 	 0.084547 	 -18.8495 	 58.0772
| 35> C 	 0.912958 	 -20.7752 	 57.9205
| 36> H 	 1.91676 	 -20.5925 	 58.3221
| 37> H 	 0.845715 	 -21.5932 	 57.1988
| 38> H 	 0.295097 	 -21.0541 	 58.7886
| 39> H 	 4.12414 	 -13.8447 	 58.8883
| 40> H 	 -1.20186 	 -16.6627 	 53.1456
| 41> *
| 42>
| 43>                          ****END OF INPUT****

CARTESIAN COORDINATES (ANGSTROEM)
---------------------------------
  S      2.925210  -14.331500   56.745500
  C      3.287030  -14.357000   58.411800
  C      2.608940  -15.334800   59.129700
  C      1.735330  -16.078000   58.290500
  C      1.877840  -15.764100   56.945900
  H      1.295990  -16.996700   58.683100
  C      2.596790  -15.557100   60.631900
  H      1.515390  -15.515300   60.960200
  H      3.052930  -14.688400   61.192400
  C      3.162280  -16.863200   61.125900
  H      3.142820  -16.887200   62.241500
  H      2.474470  -17.605500   60.673900
  C      4.603200  -16.997000   60.765500
  H      5.282550  -16.397500   61.417600
  H      4.848130  -18.026400   60.829200
  H      4.786070  -16.770300   59.774500
  S      0.338058  -15.158400   54.732900
  C     -0.536868  -16.595200   54.037000
  C     -0.182282  -17.725200   54.653900
  C      0.771900  -17.600200   55.697300
  C      1.098710  -16.293700   55.868100
  H     -0.670666  -18.615400   54.341900
  C      1.302370  -18.801800   56.427400
  H      2.068020  -18.510900   57.182400
  H      1.853360  -19.417500   55.759100
  C      0.263809  -19.519800   57.305400
  H     -0.706095  -19.748800   56.888000
  H      0.084547  -18.849500   58.077200
  C      0.912958  -20.775200   57.920500
  H      1.916760  -20.592500   58.322100
  H      0.845715  -21.593200   57.198800
  H      0.295097  -21.054100   58.788600
  H      4.124140  -13.844700   58.888300
  H     -1.201860  -16.662700   53.145600

 Total Charge           Charge          ....    0
 Multiplicity           Mult            ....    1
 Number of Electrons    NEL             ....  134
 Basis Dimension        Dim             ....  322

ORBITAL ENERGIES
----------------

  NO   OCC          E(Eh)            E(eV)
   0   2.0000     -88.969902     -2420.9941
   1   2.0000     -88.965921     -2420.8858
   2   2.0000     -10.330088      -281.0960
   3   2.0000     -10.322989      -280.9028
   4   2.0000     -10.317350      -280.7494
   5   2.0000     -10.311460      -280.5891
   6   2.0000     -10.298845      -280.2458
   7   2.0000     -10.295929      -280.1665
   8   2.0000     -10.295867      -280.1648
   9   2.0000     -10.294858      -280.1373
  10   2.0000     -10.291164      -280.0368
  11   2.0000     -10.288670      -279.9689
  12   2.0000     -10.285091      -279.8715
  13   2.0000     -10.283610      -279.8313
  14   2.0000     -10.282727      -279.8072
  15   2.0000     -10.266651      -279.3698
  16   2.0000      -8.084726      -219.9966
  17   2.0000      -8.079340      -219.8500
  18   2.0000      -6.043153      -164.4426
  19   2.0000      -6.039270      -164.3369
  20   2.0000      -6.038097      -164.3050
  21   2.0000      -6.035531      -164.2352
  22   2.0000      -6.034352      -164.2031
  23   2.0000      -6.029588      -164.0734
  24   2.0000      -1.008430       -27.4408
  25   2.0000      -0.984235       -26.7824
  26   2.0000      -0.919848       -25.0303
  27   2.0000      -0.913639       -24.8614
  28   2.0000      -0.874814       -23.8049
  29   2.0000      -0.856743       -23.3132
  30   2.0000      -0.848105       -23.0781
  31   2.0000      -0.814640       -22.1675
  32   2.0000      -0.784779       -21.3549
  33   2.0000      -0.773264       -21.0416
  34   2.0000      -0.711380       -19.3576
  35   2.0000      -0.702792       -19.1240
  36   2.0000      -0.692420       -18.8417
  37   2.0000      -0.661055       -17.9882
  38   2.0000      -0.632228       -17.2038
  39   2.0000      -0.626712       -17.0537
  40   2.0000      -0.599056       -16.3011
  41   2.0000      -0.572600       -15.5812
  42   2.0000      -0.569742       -15.5035
  43   2.0000      -0.553711       -15.0672
  44   2.0000      -0.547863       -14.9081
  45   2.0000      -0.526785       -14.3346
  46   2.0000      -0.516671       -14.0593
  47   2.0000      -0.512768       -13.9531
  48   2.0000      -0.505765       -13.7626
  49   2.0000      -0.495593       -13.4858
  50   2.0000      -0.489609       -13.3229
  51   2.0000      -0.481791       -13.1102
  52   2.0000      -0.469996       -12.7892
  53   2.0000      -0.466916       -12.7054
  54   2.0000      -0.460933       -12.5426
  55   2.0000      -0.450255       -12.2521
  56   2.0000      -0.442994       -12.0545
  57   2.0000      -0.438231       -11.9249
  58   2.0000      -0.429628       -11.6908
  59   2.0000      -0.426496       -11.6055
  60   2.0000      -0.423671       -11.5287
  61   2.0000      -0.419083       -11.4038
  62   2.0000      -0.418613       -11.3910
  63   2.0000      -0.356480        -9.7003
  64   2.0000      -0.335923        -9.1409
  65   2.0000      -0.330273        -8.9872
  66   2.0000      -0.285776        -7.7764
  67   0.0000       0.026282         0.7152
  68   0.0000       0.072767         1.9801
  69   0.0000       0.098995         2.6938
  70   0.0000       0.114222         3.1081
  71   0.0000       0.119588         3.2541

MULLIKEN ATOMIC CHARGES
-----------------------
   0 S :    0.117118
   1 C :   -0.102728
   2 C :   -0.114621
   3 C :    0.041784
   4 C :   -0.176224
   5 H :    0.006934
   6 C :    0.012797
   7 H :    0.044433
   8 H :    0.023386
   9 C :   -0.079041
  10 H :    0.039515
  11 H :    0.024847
  12 C :   -0.002008
  13 H :    0.033828
  14 H :    0.017675
  15 H :    0.014434
  16 S :    0.093598
  17 C :   -0.096693
  18 C :   -0.017991
  19 C :   -0.020820
  20 C :   -0.116243
  21 H :    0.001393
  22 C :    0.062557
  23 H :    0.016359
  24 H :    0.027254
  25 C :   -0.059485
  26 H :    0.029872
  27 H :    0.006177
  28 C :   -0.045129
  29 H :    0.032871
  30 H :    0.040167
  31 H :    0.030537
  32 H :    0.050359
  33 H :    0.063088
Sum of atomic charges:   -0.0000000

LOEWDIN ATOMIC CHARGES
----------------------
   0 S :    0.411338
   1 C :   -0.213876
   2 C :   -0.068065
   3 C :   -0.058798
   4 C :   -0.177029
   5 H :    0.029294
   6 C :   -0.043108
   7 H :    0.038908
   8 H :    0.030090
   9 C :   -0.046406
  10 H :    0.032809
  11 H :    0.022672
  12 C :   -0.059697
  13 H :    0.032155
  14 H :    0.023768
  15 H :    0.013778
  16 S :    0.354046
  17 C :   -0.169119
  18 C :   -0.063268
  19 C :   -0.059616
  20 C :   -0.180955
  21 H :    0.027285
  22 C :   -0.027685
  23 H :    0.033057
  24 H :    0.026295
  25 C :   -0.031831
  26 H :    0.021996
  27 H :    0.011632
  28 C :   -0.061611
  29 H :    0.025372
  30 H :    0.026568
  31 H :    0.027633
  32 H :    0.031025
  33 H :    0.041344

  Mayer bond orders larger than 0.100000
B(  0-S ,  1-C ) :   1.1484 B(  0-S ,  4-C ) :   1.1440 B(  1-C ,  2-C ) :   1.6093
B(  1-C , 32-H ) :   0.9555 B(  2-C ,  3-C ) :   1.2669 B(  2-C ,  6-C ) :   1.0179
B(  3-C ,  4-C ) :   1.5541 B(  3-C ,  5-H ) :   0.9754 B(  4-C , 20-C ) :   1.0660
B(  6-C ,  7-H ) :   0.9445 B(  6-C ,  8-H ) :   0.9434 B(  6-C ,  9-C ) :   1.0740
B(  9-C , 10-H ) :   0.9516 B(  9-C , 11-H ) :   0.9536 B(  9-C , 12-C ) :   1.0828
B( 12-C , 13-H ) :   0.9712 B( 12-C , 14-H ) :   0.9680 B( 12-C , 15-H ) :   0.9724
B( 16-S , 17-C ) :   1.0937 B( 16-S , 20-C ) :   1.1083 B( 17-C , 18-C ) :   1.7025
B( 17-C , 33-H ) :   0.9571 B( 18-C , 19-C ) :   1.1826 B( 18-C , 21-H ) :   0.9894
B( 19-C , 20-C ) :   1.6476 B( 19-C , 22-C ) :   1.0459 B( 22-C , 23-H ) :   0.9261
B( 22-C , 24-H ) :   0.9399 B( 22-C , 25-C ) :   1.0481 B( 25-C , 26-H ) :   0.9570
B( 25-C , 27-H ) :   0.9525 B( 25-C , 28-C ) :   1.0872 B( 28-C , 29-H ) :   0.9706
B( 28-C , 30-H ) :   0.9778 B( 28-C , 31-H ) :   0.9749

Dispersion correction           -0.014863637
FINAL SINGLE POINT ENERGY     -1339.871535108070

DIPOLE MOMENT
-------------
                                X             Y             Z
Electronic contribution:     -4.38713      22.67490     -22.31246
Nuclear contribution   :      4.37542     -23.36872      22.76041
                        -----------------------------------------
Total Dipole Moment    :     -0.01171      -0.69382       0.44795
                        -----------------------------------------
Magnitude (a.u.)       :      0.82594
Magnitude (Debye)      :      2.09937

Rotational constants in cm-1:     0.017181     0.010466     0.006953
Rotational constants in MHz :   515.086867   313.749275   208.445452

                             ****ORCA TERMINATED NORMALLY****
TOTAL RUN TIME: 0 days 0 hours 0 minutes 31 seconds 16 msec
