                         Program Version 4.2.1 -  RELEASE  -
|  1> ! wB97X-D3 SP def2-SVP
|  2> %pal
|  3> nprocs 16
|  4> end
|  5>
|  6> * xyz 0 1
|  7> S 	 -58.0215 	 45.3267 	 136.242
|  8> C 	 -56.4614 	 45.9828 	 136.396
|  9> C 	 -56.0668 	 46.7999 	 135.381
| 10> C 	 -57.0503 	 46.8823 	 134.375
| 11> C 	 -58.2178 	 46.2486 	 134.69
| 12> H 	 -56.8666 	 47.4909 	 133.5
| 13> C 	 -54.7574 	 47.651 	 135.315
| 14> H 	 -54.255 	 47.4592 	 134.356
| 15> H 	 -54.0741 	 47.2843 	 136.088
| 16> C 	 -54.844 	 49.1408 	 135.419
| 17> H 	 -55.2627 	 49.551 	 134.481
| 18> H 	 -55.5426 	 49.2819 	 136.191
| 19> C 	 -53.5159 	 49.6968 	 135.831
| 20> H 	 -53.5188 	 50.7423 	 135.451
| 21> H 	 -53.3663 	 49.7154 	 136.913
| 22> H 	 -52.6793 	 49.1331 	 135.434
| 23> S 	 -60.8703 	 46.5488 	 135.183
| 24> C 	 -62.0064 	 46.4878 	 133.884
| 25> C 	 -61.3643 	 46.4361 	 132.647
| 26> C 	 -59.953 	 46.4606 	 132.712
| 27> C 	 -59.4888 	 46.4125 	 134.089
| 28> H 	 -61.9446 	 46.4114 	 131.725
| 29> C 	 -59.1998 	 46.4081 	 131.376
| 30> H 	 -59.0585 	 45.4048 	 131.017
| 31> H 	 -58.2087 	 46.6853 	 131.608
| 32> C 	 -59.7362 	 47.2287 	 130.135
| 33> H 	 -60.2163 	 48.1168 	 130.417
| 34> H 	 -60.5149 	 46.6594 	 129.724
| 35> C 	 -58.8243 	 47.5154 	 128.956
| 36> H 	 -57.8839 	 48.1035 	 129.168
| 37> H 	 -59.3525 	 48.0752 	 128.193
| 38> H 	 -58.6069 	 46.5903 	 128.373
| 39> H 	 -55.7916 	 45.7806 	 137.307
| 40> H 	 -63.0624 	 46.4606 	 134.009
| 41> *
| 42>
| 43>                          ****END OF INPUT****

CARTESIAN COORDINATES (ANGSTROEM)
---------------------------------
  S    -58.021500   45.326700  136.242000
  C    -56.461400   45.982800  136.396000
  C    -56.066800   46.799900  135.381000
  C    -57.050300   46.882300  134.375000
  C    -58.217800   46.248600  134.690000
  H    -56.866600   47.490900  133.500000
  C    -54.757400   47.651000  135.315000
  H    -54.255000   47.459200  134.356000
  H    -54.074100   47.284300  136.088000
  C    -54.844000   49.140800  135.419000
  H    -55.262700   49.551000  134.481000
  H    -55.542600   49.281900  136.191000
  C    -53.515900   49.696800  135.831000
  H    -53.518800   50.742300  135.451000
  H    -53.366300   49.715400  136.913000
  H    -52.679300   49.133100  135.434000
  S    -60.870300   46.548800  135.183000
  C    -62.006400   46.487800  133.884000
  C    -61.364300   46.436100  132.647000
  C    -59.953000   46.460600  132.712000
  C    -59.488800   46.412500  134.089000
  H    -61.944600   46.411400  131.725000
  C    -59.199800   46.408100  131.376000
  H    -59.058500   45.404800  131.017000
  H    -58.208700   46.685300  131.608000
  C    -59.736200   47.228700  130.135000
  H    -60.216300   48.116800  130.417000
  H    -60.514900   46.659400  129.724000
  C    -58.824300   47.515400  128.956000
  H    -57.883900   48.103500  129.168000
  H    -59.352500   48.075200  128.193000
  H    -58.606900   46.590300  128.373000
  H    -55.791600   45.780600  137.307000
  H    -63.062400   46.460600  134.009000

 Total Charge           Charge          ....    0
 Multiplicity           Mult            ....    1
 Number of Electrons    NEL             ....  134
 Basis Dimension        Dim             ....  322

ORBITAL ENERGIES
----------------

  NO   OCC          E(Eh)            E(eV)
   0   2.0000     -88.967754     -2420.9357
   1   2.0000     -88.967513     -2420.9291
   2   2.0000     -10.331674      -281.1391
   3   2.0000     -10.329167      -281.0709
   4   2.0000     -10.313486      -280.6442
   5   2.0000     -10.312454      -280.6161
   6   2.0000     -10.309831      -280.5448
   7   2.0000     -10.295546      -280.1560
   8   2.0000     -10.290941      -280.0307
   9   2.0000     -10.290872      -280.0289
  10   2.0000     -10.290794      -280.0268
  11   2.0000     -10.290749      -280.0255
  12   2.0000     -10.286256      -279.9033
  13   2.0000     -10.283036      -279.8156
  14   2.0000     -10.278999      -279.7058
  15   2.0000     -10.277790      -279.6729
  16   2.0000      -8.082301      -219.9306
  17   2.0000      -8.082255      -219.9293
  18   2.0000      -6.040807      -164.3787
  19   2.0000      -6.040715      -164.3762
  20   2.0000      -6.036949      -164.2737
  21   2.0000      -6.036633      -164.2651
  22   2.0000      -6.033274      -164.1737
  23   2.0000      -6.032875      -164.1629
  24   2.0000      -1.006925       -27.3998
  25   2.0000      -0.982405       -26.7326
  26   2.0000      -0.919017       -25.0077
  27   2.0000      -0.905980       -24.6530
  28   2.0000      -0.873254       -23.7624
  29   2.0000      -0.857484       -23.3333
  30   2.0000      -0.850123       -23.1330
  31   2.0000      -0.809817       -22.0362
  32   2.0000      -0.783674       -21.3248
  33   2.0000      -0.768587       -20.9143
  34   2.0000      -0.712444       -19.3866
  35   2.0000      -0.702928       -19.1276
  36   2.0000      -0.693552       -18.8725
  37   2.0000      -0.656625       -17.8677
  38   2.0000      -0.633362       -17.2346
  39   2.0000      -0.627378       -17.0718
  40   2.0000      -0.599285       -16.3074
  41   2.0000      -0.577674       -15.7193
  42   2.0000      -0.566628       -15.4187
  43   2.0000      -0.557757       -15.1773
  44   2.0000      -0.525786       -14.3074
  45   2.0000      -0.520478       -14.1629
  46   2.0000      -0.515698       -14.0329
  47   2.0000      -0.507226       -13.8023
  48   2.0000      -0.505857       -13.7651
  49   2.0000      -0.499454       -13.5908
  50   2.0000      -0.490874       -13.3574
  51   2.0000      -0.482349       -13.1254
  52   2.0000      -0.476328       -12.9616
  53   2.0000      -0.465407       -12.6644
  54   2.0000      -0.460116       -12.5204
  55   2.0000      -0.452681       -12.3181
  56   2.0000      -0.445410       -12.1202
  57   2.0000      -0.436627       -11.8812
  58   2.0000      -0.427141       -11.6231
  59   2.0000      -0.425350       -11.5744
  60   2.0000      -0.423811       -11.5325
  61   2.0000      -0.418398       -11.3852
  62   2.0000      -0.414987       -11.2924
  63   2.0000      -0.357746        -9.7348
  64   2.0000      -0.332224        -9.0403
  65   2.0000      -0.331239        -9.0135
  66   2.0000      -0.276669        -7.5286
  67   0.0000       0.020667         0.5624
  68   0.0000       0.072420         1.9706
  69   0.0000       0.109171         2.9707
  70   0.0000       0.122801         3.3416
  71   0.0000       0.134501         3.6600

MULLIKEN ATOMIC CHARGES
-----------------------
   0 S :    0.115820
   1 C :   -0.156031
   2 C :   -0.075861
   3 C :    0.025013
   4 C :   -0.142743
   5 H :    0.013560
   6 C :    0.026301
   7 H :    0.027178
   8 H :    0.013248
   9 C :   -0.035425
  10 H :    0.031734
  11 H :    0.019057
  12 C :   -0.052388
  13 H :    0.039210
  14 H :    0.037521
  15 H :    0.030597
  16 S :    0.112418
  17 C :   -0.085257
  18 C :   -0.047390
  19 C :   -0.033593
  20 C :   -0.156858
  21 H :    0.022635
  22 C :    0.123744
  23 H :    0.032205
  24 H :   -0.014671
  25 C :   -0.057928
  26 H :    0.019814
  27 H :    0.015741
  28 C :   -0.069421
  29 H :    0.046305
  30 H :    0.027173
  31 H :    0.030799
  32 H :    0.069741
  33 H :    0.047753
Sum of atomic charges:    0.0000000

LOEWDIN ATOMIC CHARGES
----------------------
   0 S :    0.396897
   1 C :   -0.220094
   2 C :   -0.073295
   3 C :   -0.053599
   4 C :   -0.176924
   5 H :    0.031329
   6 C :   -0.031342
   7 H :    0.028975
   8 H :    0.026263
   9 C :   -0.044286
  10 H :    0.024905
  11 H :    0.020735
  12 C :   -0.062646
  13 H :    0.034069
  14 H :    0.028847
  15 H :    0.022702
  16 S :    0.420322
  17 C :   -0.195676
  18 C :   -0.072616
  19 C :   -0.050667
  20 C :   -0.196185
  21 H :    0.032527
  22 C :   -0.026701
  23 H :    0.034594
  24 H :    0.018248
  25 C :   -0.036899
  26 H :    0.018050
  27 H :    0.019485
  28 C :   -0.070106
  29 H :    0.029978
  30 H :    0.028399
  31 H :    0.028470
  32 H :    0.042842
  33 H :    0.023400

  Mayer bond orders larger than 0.100000
B(  0-S ,  1-C ) :   1.1380 B(  0-S ,  4-C ) :   1.1222 B(  1-C ,  2-C ) :   1.6377
B(  1-C , 32-H ) :   0.9465 B(  2-C ,  3-C ) :   1.2578 B(  2-C ,  6-C ) :   1.0196
B(  3-C ,  4-C ) :   1.5582 B(  3-C ,  5-H ) :   0.9929 B(  4-C , 20-C ) :   1.1189
B(  6-C ,  7-H ) :   0.9333 B(  6-C ,  8-H ) :   0.9473 B(  6-C ,  9-C ) :   1.0667
B(  9-C , 10-H ) :   0.9534 B(  9-C , 11-H ) :   0.9525 B(  9-C , 12-C ) :   1.0832
B( 12-C , 13-H ) :   0.9729 B( 12-C , 14-H ) :   0.9732 B( 12-C , 15-H ) :   0.9752
B( 16-S , 17-C ) :   1.1645 B( 16-S , 20-C ) :   1.1575 B( 17-C , 18-C ) :   1.5637
B( 17-C , 20-C ) :   0.1096 B( 17-C , 33-H ) :   0.9720 B( 18-C , 19-C ) :   1.2971
B( 18-C , 21-H ) :   0.9869 B( 19-C , 20-C ) :   1.5038 B( 19-C , 22-C ) :   1.0415
B( 22-C , 23-H ) :   0.9276 B( 22-C , 24-H ) :   0.9308 B( 22-C , 25-C ) :   1.0486
B( 25-C , 26-H ) :   0.9629 B( 25-C , 27-H ) :   0.9442 B( 25-C , 28-C ) :   1.1024
B( 28-C , 29-H ) :   0.9740 B( 28-C , 30-H ) :   0.9691 B( 28-C , 31-H ) :   0.9729

Dispersion correction           -0.012979528
FINAL SINGLE POINT ENERGY     -1339.864196341701

DIPOLE MOMENT
-------------
                                X             Y             Z
Electronic contribution:    -17.66367     -14.48390      18.83210
Nuclear contribution   :     17.90679      14.81671     -19.31589
                        -----------------------------------------
Total Dipole Moment    :      0.24312       0.33281      -0.48378
                        -----------------------------------------
Magnitude (a.u.)       :      0.63555
Magnitude (Debye)      :      1.61543

Rotational constants in cm-1:     0.016219     0.008160     0.006024
Rotational constants in MHz :   486.246040   244.620102   180.594336

                             ****ORCA TERMINATED NORMALLY****
TOTAL RUN TIME: 0 days 0 hours 0 minutes 33 seconds 545 msec
