                         Program Version 4.2.1 -  RELEASE  -
|  1> ! wB97X-D3 SP def2-SVP
|  2> %pal
|  3> nprocs 16
|  4> end
|  5>
|  6> * xyz 0 1
|  7> S 	 -31.9341 	 59.9788 	 111.017
|  8> C 	 -30.6884 	 60.7211 	 109.95
|  9> C 	 -30.9991 	 62.0998 	 109.873
| 10> C 	 -32.2082 	 62.4507 	 110.566
| 11> C 	 -32.7806 	 61.4673 	 111.312
| 12> H 	 -32.7135 	 63.4063 	 110.577
| 13> C 	 -30.3527 	 63.115 	 109.049
| 14> H 	 -31.0171 	 63.8676 	 108.62
| 15> H 	 -30.103 	 62.56 	 108.092
| 16> C 	 -29.0732 	 63.6624 	 109.703
| 17> H 	 -28.5404 	 62.7442 	 110.13
| 18> H 	 -28.4168 	 64.0187 	 108.925
| 19> C 	 -29.4024 	 64.7154 	 110.762
| 20> H 	 -29.9348 	 65.5941 	 110.409
| 21> H 	 -30.0032 	 64.2497 	 111.491
| 22> H 	 -28.5209 	 65.1189 	 111.305
| 23> S 	 -34.5011 	 62.7536 	 113.129
| 24> C 	 -36.0874 	 62.0922 	 113.504
| 25> C 	 -36.3241 	 60.9405 	 112.795
| 26> C 	 -35.2303 	 60.5429 	 111.914
| 27> C 	 -34.112 	 61.4261 	 111.966
| 28> H 	 -37.2642 	 60.4551 	 112.925
| 29> C 	 -35.3487 	 59.2551 	 111.092
| 30> H 	 -36.0552 	 58.5676 	 111.508
| 31> H 	 -34.3757 	 58.7858 	 111.028
| 32> C 	 -35.8821 	 59.4987 	 109.701
| 33> H 	 -36.6886 	 60.1618 	 109.734
| 34> H 	 -36.3843 	 58.6134 	 109.259
| 35> C 	 -34.7793 	 60.1541 	 108.802
| 36> H 	 -33.7903 	 59.6919 	 108.714
| 37> H 	 -34.63 	 61.1542 	 109.155
| 38> H 	 -35.1437 	 60.1834 	 107.793
| 39> H 	 -29.8521 	 60.1971 	 109.51
| 40> H 	 -36.8061 	 62.4514 	 114.152
| 41> *
| 42>
| 43>                          ****END OF INPUT****

CARTESIAN COORDINATES (ANGSTROEM)
---------------------------------
  S    -31.934100   59.978800  111.017000
  C    -30.688400   60.721100  109.950000
  C    -30.999100   62.099800  109.873000
  C    -32.208200   62.450700  110.566000
  C    -32.780600   61.467300  111.312000
  H    -32.713500   63.406300  110.577000
  C    -30.352700   63.115000  109.049000
  H    -31.017100   63.867600  108.620000
  H    -30.103000   62.560000  108.092000
  C    -29.073200   63.662400  109.703000
  H    -28.540400   62.744200  110.130000
  H    -28.416800   64.018700  108.925000
  C    -29.402400   64.715400  110.762000
  H    -29.934800   65.594100  110.409000
  H    -30.003200   64.249700  111.491000
  H    -28.520900   65.118900  111.305000
  S    -34.501100   62.753600  113.129000
  C    -36.087400   62.092200  113.504000
  C    -36.324100   60.940500  112.795000
  C    -35.230300   60.542900  111.914000
  C    -34.112000   61.426100  111.966000
  H    -37.264200   60.455100  112.925000
  C    -35.348700   59.255100  111.092000
  H    -36.055200   58.567600  111.508000
  H    -34.375700   58.785800  111.028000
  C    -35.882100   59.498700  109.701000
  H    -36.688600   60.161800  109.734000
  H    -36.384300   58.613400  109.259000
  C    -34.779300   60.154100  108.802000
  H    -33.790300   59.691900  108.714000
  H    -34.630000   61.154200  109.155000
  H    -35.143700   60.183400  107.793000
  H    -29.852100   60.197100  109.510000
  H    -36.806100   62.451400  114.152000

 Total Charge           Charge          ....    0
 Multiplicity           Mult            ....    1
 Number of Electrons    NEL             ....  134
 Basis Dimension        Dim             ....  322

ORBITAL ENERGIES
----------------

  NO   OCC          E(Eh)            E(eV)
   0   2.0000     -88.967693     -2420.9340
   1   2.0000     -88.967051     -2420.9165
   2   2.0000     -10.341418      -281.4043
   3   2.0000     -10.333395      -281.1860
   4   2.0000     -10.326679      -281.0032
   5   2.0000     -10.315753      -280.7059
   6   2.0000     -10.315165      -280.6899
   7   2.0000     -10.307480      -280.4808
   8   2.0000     -10.295445      -280.1533
   9   2.0000     -10.293896      -280.1111
  10   2.0000     -10.291923      -280.0575
  11   2.0000     -10.291148      -280.0364
  12   2.0000     -10.284031      -279.8427
  13   2.0000     -10.278001      -279.6786
  14   2.0000     -10.273945      -279.5682
  15   2.0000     -10.263514      -279.2844
  16   2.0000      -8.081138      -219.8989
  17   2.0000      -8.080676      -219.8864
  18   2.0000      -6.039817      -164.3518
  19   2.0000      -6.039357      -164.3393
  20   2.0000      -6.035761      -164.2414
  21   2.0000      -6.035115      -164.2238
  22   2.0000      -6.031861      -164.1353
  23   2.0000      -6.031519      -164.1260
  24   2.0000      -1.002157       -27.2701
  25   2.0000      -0.978428       -26.6244
  26   2.0000      -0.917583       -24.9687
  27   2.0000      -0.907507       -24.6945
  28   2.0000      -0.867208       -23.5979
  29   2.0000      -0.845648       -23.0113
  30   2.0000      -0.835991       -22.7485
  31   2.0000      -0.818545       -22.2737
  32   2.0000      -0.783470       -21.3193
  33   2.0000      -0.771501       -20.9936
  34   2.0000      -0.709535       -19.3074
  35   2.0000      -0.704853       -19.1800
  36   2.0000      -0.693480       -18.8705
  37   2.0000      -0.663182       -18.0461
  38   2.0000      -0.642278       -17.4773
  39   2.0000      -0.616188       -16.7673
  40   2.0000      -0.595466       -16.2035
  41   2.0000      -0.581092       -15.8123
  42   2.0000      -0.553940       -15.0735
  43   2.0000      -0.550186       -14.9713
  44   2.0000      -0.542194       -14.7539
  45   2.0000      -0.535800       -14.5799
  46   2.0000      -0.515578       -14.0296
  47   2.0000      -0.510470       -13.8906
  48   2.0000      -0.505108       -13.7447
  49   2.0000      -0.499656       -13.5963
  50   2.0000      -0.486249       -13.2315
  51   2.0000      -0.480188       -13.0666
  52   2.0000      -0.470601       -12.8057
  53   2.0000      -0.466423       -12.6920
  54   2.0000      -0.464410       -12.6372
  55   2.0000      -0.446041       -12.1374
  56   2.0000      -0.440403       -11.9840
  57   2.0000      -0.431418       -11.7395
  58   2.0000      -0.429240       -11.6802
  59   2.0000      -0.417203       -11.3527
  60   2.0000      -0.415782       -11.3140
  61   2.0000      -0.411587       -11.1999
  62   2.0000      -0.406969       -11.0742
  63   2.0000      -0.350699        -9.5430
  64   2.0000      -0.329888        -8.9767
  65   2.0000      -0.328282        -8.9330
  66   2.0000      -0.294244        -8.0068
  67   0.0000       0.021628         0.5885
  68   0.0000       0.069468         1.8903
  69   0.0000       0.103866         2.8263
  70   0.0000       0.117927         3.2090
  71   0.0000       0.125496         3.4149

MULLIKEN ATOMIC CHARGES
-----------------------
   0 S :    0.083313
   1 C :   -0.114873
   2 C :   -0.077607
   3 C :    0.024402
   4 C :   -0.118322
   5 H :    0.012584
   6 C :    0.010253
   7 H :    0.031385
   8 H :    0.030082
   9 C :   -0.056765
  10 H :    0.035442
  11 H :    0.026164
  12 C :   -0.028137
  13 H :    0.027350
  14 H :    0.024486
  15 H :    0.036523
  16 S :    0.090886
  17 C :   -0.047191
  18 C :   -0.036973
  19 C :   -0.054006
  20 C :   -0.155316
  21 H :    0.013925
  22 C :    0.098060
  23 H :    0.011391
  24 H :    0.029239
  25 C :   -0.047471
  26 H :    0.003765
  27 H :    0.025434
  28 C :   -0.050673
  29 H :    0.031330
  30 H :    0.035511
  31 H :    0.020217
  32 H :    0.056445
  33 H :    0.029146
Sum of atomic charges:   -0.0000000

LOEWDIN ATOMIC CHARGES
----------------------
   0 S :    0.411755
   1 C :   -0.183507
   2 C :   -0.059192
   3 C :   -0.068159
   4 C :   -0.195146
   5 H :    0.031026
   6 C :   -0.045695
   7 H :    0.031524
   8 H :    0.039283
   9 C :   -0.036720
  10 H :    0.033149
  11 H :    0.018775
  12 C :   -0.065984
  13 H :    0.024999
  14 H :    0.020996
  15 H :    0.030832
  16 S :    0.380973
  17 C :   -0.168388
  18 C :   -0.067084
  19 C :   -0.045542
  20 C :   -0.186177
  21 H :    0.029005
  22 C :   -0.031756
  23 H :    0.028100
  24 H :    0.019510
  25 C :   -0.034185
  26 H :    0.015209
  27 H :    0.023904
  28 C :   -0.066826
  29 H :    0.020372
  30 H :    0.024238
  31 H :    0.020559
  32 H :    0.031431
  33 H :    0.018721

  Mayer bond orders larger than 0.100000
B(  0-S ,  1-C ) :   1.1313 B(  0-S ,  4-C ) :   1.1539 B(  1-C ,  2-C ) :   1.5755
B(  1-C , 32-H ) :   0.9756 B(  2-C ,  3-C ) :   1.2417 B(  2-C ,  6-C ) :   1.0324
B(  3-C ,  4-C ) :   1.5796 B(  3-C ,  5-H ) :   0.9906 B(  4-C , 20-C ) :   1.0158
B(  6-C ,  7-H ) :   0.9501 B(  6-C ,  8-H ) :   0.9370 B(  6-C ,  9-C ) :   1.0577
B(  9-C , 10-H ) :   0.9575 B(  9-C , 11-H ) :   0.9565 B(  9-C , 12-C ) :   1.0687
B( 12-C , 13-H ) :   0.9750 B( 12-C , 14-H ) :   0.9735 B( 12-C , 15-H ) :   0.9726
B( 16-S , 17-C ) :   1.1423 B( 16-S , 20-C ) :   1.1253 B( 17-C , 18-C ) :   1.6357
B( 17-C , 33-H ) :   0.9722 B( 18-C , 19-C ) :   1.2316 B( 18-C , 21-H ) :   0.9901
B( 19-C , 20-C ) :   1.5834 B( 19-C , 22-C ) :   1.0404 B( 22-C , 23-H ) :   0.9285
B( 22-C , 24-H ) :   0.9407 B( 22-C , 25-C ) :   1.0731 B( 25-C , 26-H ) :   0.9490
B( 25-C , 27-H ) :   0.9584 B( 25-C , 28-C ) :   1.0709 B( 28-C , 29-H ) :   0.9764
B( 28-C , 30-H ) :   0.9735 B( 28-C , 31-H ) :   0.9733

Dispersion correction           -0.016055803
FINAL SINGLE POINT ENERGY     -1339.870785620308

DIPOLE MOMENT
-------------
                                X             Y             Z
Electronic contribution:     -5.39402      -3.78657      14.63574
Nuclear contribution   :      5.24712       3.85960     -15.02727
                        -----------------------------------------
Total Dipole Moment    :     -0.14690       0.07302      -0.39153
                        -----------------------------------------
Magnitude (a.u.)       :      0.42451
Magnitude (Debye)      :      1.07901

Rotational constants in cm-1:     0.021706     0.009090     0.007285
Rotational constants in MHz :   650.726422   272.510315   218.406993

                             ****ORCA TERMINATED NORMALLY****
TOTAL RUN TIME: 0 days 0 hours 0 minutes 33 seconds 182 msec
