                         Program Version 4.2.1 -  RELEASE  -
|  1> ! wB97X-D3 SP def2-SVP
|  2> %pal
|  3> nprocs 16
|  4> end
|  5>
|  6> * xyz 0 1
|  7> S 	 58.6186 	 -7.62289 	 88.7351
|  8> C 	 58.8358 	 -5.87068 	 88.7144
|  9> C 	 58.5029 	 -5.30915 	 87.483
| 10> C 	 57.989 	 -6.28692 	 86.5912
| 11> C 	 57.947 	 -7.56892 	 87.1696
| 12> H 	 57.6364 	 -6.11744 	 85.596
| 13> C 	 58.4937 	 -3.84597 	 87.0759
| 14> H 	 58.553 	 -3.30091 	 88.0523
| 15> H 	 57.5051 	 -3.50595 	 86.8023
| 16> C 	 59.6224 	 -3.42633 	 86.024
| 17> H 	 59.6164 	 -2.32809 	 86.2121
| 18> H 	 60.5238 	 -3.8948 	 86.3592
| 19> C 	 59.3742 	 -3.78609 	 84.5335
| 20> H 	 59.3633 	 -4.80497 	 84.2435
| 21> H 	 58.5592 	 -3.24711 	 84.1319
| 22> H 	 60.2395 	 -3.43654 	 83.9899
| 23> S 	 55.8572 	 -9.41945 	 87.2495
| 24> C 	 55.6944 	 -10.6052 	 86.0021
| 25> C 	 56.6577 	 -10.426 	 85.0197
| 26> C 	 57.5438 	 -9.35238 	 85.3077
| 27> C 	 57.3297 	 -8.75967 	 86.5183
| 28> H 	 56.6353 	 -11.1966 	 84.272
| 29> C 	 58.6711 	 -8.95313 	 84.4054
| 30> H 	 59.0912 	 -7.93893 	 84.7129
| 31> H 	 58.3027 	 -8.68086 	 83.3965
| 32> C 	 59.9017 	 -9.83986 	 84.2003
| 33> H 	 59.5666 	 -10.8369 	 83.7404
| 34> H 	 60.256 	 -9.98138 	 85.1617
| 35> C 	 61.0516 	 -9.29777 	 83.3653
| 36> H 	 61.5655 	 -8.52089 	 83.9658
| 37> H 	 60.792 	 -8.83423 	 82.4123
| 38> H 	 61.7959 	 -10.038 	 83.0926
| 39> H 	 59.2738 	 -5.30375 	 89.5385
| 40> H 	 55.0758 	 -11.489 	 85.9525
| 41> *
| 42>
| 43>                          ****END OF INPUT****

CARTESIAN COORDINATES (ANGSTROEM)
---------------------------------
  S     58.618600   -7.622890   88.735100
  C     58.835800   -5.870680   88.714400
  C     58.502900   -5.309150   87.483000
  C     57.989000   -6.286920   86.591200
  C     57.947000   -7.568920   87.169600
  H     57.636400   -6.117440   85.596000
  C     58.493700   -3.845970   87.075900
  H     58.553000   -3.300910   88.052300
  H     57.505100   -3.505950   86.802300
  C     59.622400   -3.426330   86.024000
  H     59.616400   -2.328090   86.212100
  H     60.523800   -3.894800   86.359200
  C     59.374200   -3.786090   84.533500
  H     59.363300   -4.804970   84.243500
  H     58.559200   -3.247110   84.131900
  H     60.239500   -3.436540   83.989900
  S     55.857200   -9.419450   87.249500
  C     55.694400  -10.605200   86.002100
  C     56.657700  -10.426000   85.019700
  C     57.543800   -9.352380   85.307700
  C     57.329700   -8.759670   86.518300
  H     56.635300  -11.196600   84.272000
  C     58.671100   -8.953130   84.405400
  H     59.091200   -7.938930   84.712900
  H     58.302700   -8.680860   83.396500
  C     59.901700   -9.839860   84.200300
  H     59.566600  -10.836900   83.740400
  H     60.256000   -9.981380   85.161700
  C     61.051600   -9.297770   83.365300
  H     61.565500   -8.520890   83.965800
  H     60.792000   -8.834230   82.412300
  H     61.795900  -10.038000   83.092600
  H     59.273800   -5.303750   89.538500
  H     55.075800  -11.489000   85.952500

 Total Charge           Charge          ....    0
 Multiplicity           Mult            ....    1
 Number of Electrons    NEL             ....  134
 Basis Dimension        Dim             ....  322

ORBITAL ENERGIES
----------------

  NO   OCC          E(Eh)            E(eV)
   0   2.0000     -88.971487     -2421.0372
   1   2.0000     -88.962864     -2420.8026
   2   2.0000     -10.329097      -281.0690
   3   2.0000     -10.326507      -280.9985
   4   2.0000     -10.316880      -280.7366
   5   2.0000     -10.313801      -280.6528
   6   2.0000     -10.302253      -280.3386
   7   2.0000     -10.301176      -280.3092
   8   2.0000     -10.297590      -280.2117
   9   2.0000     -10.296578      -280.1841
  10   2.0000     -10.291363      -280.0422
  11   2.0000     -10.290841      -280.0280
  12   2.0000     -10.290499      -280.0187
  13   2.0000     -10.282843      -279.8104
  14   2.0000     -10.278358      -279.6884
  15   2.0000     -10.276269      -279.6315
  16   2.0000      -8.086436      -220.0431
  17   2.0000      -8.077698      -219.8053
  18   2.0000      -6.044784      -164.4869
  19   2.0000      -6.040923      -164.3819
  20   2.0000      -6.037351      -164.2847
  21   2.0000      -6.036179      -164.2528
  22   2.0000      -6.032124      -164.1424
  23   2.0000      -6.028535      -164.0448
  24   2.0000      -1.006958       -27.4007
  25   2.0000      -0.985700       -26.8223
  26   2.0000      -0.906529       -24.6679
  27   2.0000      -0.904876       -24.6229
  28   2.0000      -0.865446       -23.5500
  29   2.0000      -0.853449       -23.2235
  30   2.0000      -0.846987       -23.0477
  31   2.0000      -0.813415       -22.1341
  32   2.0000      -0.787182       -21.4203
  33   2.0000      -0.773635       -21.0517
  34   2.0000      -0.707520       -19.2526
  35   2.0000      -0.700573       -19.0636
  36   2.0000      -0.691926       -18.8283
  37   2.0000      -0.656736       -17.8707
  38   2.0000      -0.641150       -17.4466
  39   2.0000      -0.620091       -16.8735
  40   2.0000      -0.594313       -16.1721
  41   2.0000      -0.577015       -15.7014
  42   2.0000      -0.563511       -15.3339
  43   2.0000      -0.546335       -14.8665
  44   2.0000      -0.529276       -14.4023
  45   2.0000      -0.521079       -14.1793
  46   2.0000      -0.516608       -14.0576
  47   2.0000      -0.510161       -13.8822
  48   2.0000      -0.505124       -13.7451
  49   2.0000      -0.496093       -13.4994
  50   2.0000      -0.493274       -13.4227
  51   2.0000      -0.484400       -13.1812
  52   2.0000      -0.474283       -12.9059
  53   2.0000      -0.465075       -12.6553
  54   2.0000      -0.458221       -12.4688
  55   2.0000      -0.451163       -12.2768
  56   2.0000      -0.448018       -12.1912
  57   2.0000      -0.440392       -11.9837
  58   2.0000      -0.427964       -11.6455
  59   2.0000      -0.424237       -11.5441
  60   2.0000      -0.419845       -11.4246
  61   2.0000      -0.413187       -11.2434
  62   2.0000      -0.405618       -11.0374
  63   2.0000      -0.337307        -9.1786
  64   2.0000      -0.334161        -9.0930
  65   2.0000      -0.328597        -8.9416
  66   2.0000      -0.298558        -8.1242
  67   0.0000       0.034066         0.9270
  68   0.0000       0.069850         1.9007
  69   0.0000       0.118404         3.2219
  70   0.0000       0.120735         3.2854
  71   0.0000       0.123435         3.3588

MULLIKEN ATOMIC CHARGES
-----------------------
   0 S :    0.133773
   1 C :   -0.137671
   2 C :   -0.079687
   3 C :    0.053310
   4 C :   -0.178848
   5 H :    0.009009
   6 C :    0.031339
   7 H :    0.014387
   8 H :    0.028220
   9 C :   -0.057738
  10 H :    0.043885
  11 H :    0.030865
  12 C :   -0.020134
  13 H :    0.031408
  14 H :    0.026031
  15 H :    0.024991
  16 S :    0.107275
  17 C :   -0.092371
  18 C :   -0.046596
  19 C :    0.018526
  20 C :   -0.152449
  21 H :    0.013514
  22 C :    0.018881
  23 H :    0.015519
  24 H :    0.018864
  25 C :   -0.040416
  26 H :    0.030191
  27 H :    0.015929
  28 C :   -0.056459
  29 H :    0.031706
  30 H :    0.024418
  31 H :    0.036497
  32 H :    0.050578
  33 H :    0.053254
Sum of atomic charges:   -0.0000000

LOEWDIN ATOMIC CHARGES
----------------------
   0 S :    0.431172
   1 C :   -0.202260
   2 C :   -0.064287
   3 C :   -0.054926
   4 C :   -0.212775
   5 H :    0.027767
   6 C :   -0.039983
   7 H :    0.032719
   8 H :    0.028152
   9 C :   -0.027510
  10 H :    0.033850
  11 H :    0.022593
  12 C :   -0.064007
  13 H :    0.022003
  14 H :    0.021500
  15 H :    0.031459
  16 S :    0.403903
  17 C :   -0.191069
  18 C :   -0.070445
  19 C :   -0.061093
  20 C :   -0.190650
  21 H :    0.030822
  22 C :   -0.043202
  23 H :    0.031954
  24 H :    0.028024
  25 C :   -0.038857
  26 H :    0.026159
  27 H :    0.016258
  28 C :   -0.067922
  29 H :    0.028380
  30 H :    0.022077
  31 H :    0.029274
  32 H :    0.028872
  33 H :    0.032048

  Mayer bond orders larger than 0.100000
B(  0-S ,  1-C ) :   1.1406 B(  0-S ,  4-C ) :   1.1856 B(  1-C ,  2-C ) :   1.5942
B(  1-C , 32-H ) :   0.9652 B(  2-C ,  3-C ) :   1.2621 B(  2-C ,  6-C ) :   1.0228
B(  3-C ,  4-C ) :   1.5389 B(  3-C ,  5-H ) :   0.9959 B(  4-C , 20-C ) :   0.9970
B(  6-C ,  7-H ) :   0.9417 B(  6-C ,  8-H ) :   0.9459 B(  6-C ,  9-C ) :   1.0406
B(  9-C , 10-H ) :   0.9584 B(  9-C , 11-H ) :   0.9595 B(  9-C , 12-C ) :   1.0810
B( 12-C , 13-H ) :   0.9724 B( 12-C , 14-H ) :   0.9757 B( 12-C , 15-H ) :   0.9674
B( 16-S , 17-C ) :   1.1579 B( 16-S , 20-C ) :   1.1365 B( 17-C , 18-C ) :   1.6321
B( 17-C , 33-H ) :   0.9632 B( 18-C , 19-C ) :   1.2071 B( 18-C , 21-H ) :   0.9982
B( 19-C , 20-C ) :   1.6223 B( 19-C , 22-C ) :   1.0545 B( 22-C , 23-H ) :   0.9305
B( 22-C , 24-H ) :   0.9278 B( 22-C , 25-C ) :   1.0642 B( 25-C , 26-H ) :   0.9533
B( 25-C , 27-H ) :   0.9528 B( 25-C , 28-C ) :   1.0870 B( 28-C , 29-H ) :   0.9736
B( 28-C , 30-H ) :   0.9755 B( 28-C , 31-H ) :   0.9731

Dispersion correction           -0.014376588
FINAL SINGLE POINT ENERGY     -1339.874023805115

DIPOLE MOMENT
-------------
                                X             Y             Z
Electronic contribution:    -16.22913     -12.82016      21.17752
Nuclear contribution   :     16.51037      13.15793     -21.66430
                        -----------------------------------------
Total Dipole Moment    :      0.28125       0.33776      -0.48678
                        -----------------------------------------
Magnitude (a.u.)       :      0.65585
Magnitude (Debye)      :      1.66704

Rotational constants in cm-1:     0.015979     0.009670     0.007247
Rotational constants in MHz :   479.037649   289.914142   217.260407

                             ****ORCA TERMINATED NORMALLY****
TOTAL RUN TIME: 0 days 0 hours 0 minutes 30 seconds 234 msec
