                         Program Version 4.2.1 -  RELEASE  -
|  1> ! wB97X-D3 SP def2-SVP
|  2> %pal
|  3> nprocs 16
|  4> end
|  5>
|  6> * xyz 0 1
|  7> S 	 -9.60574 	 -13.5128 	 86.7627
|  8> C 	 -11.2517 	 -14.1708 	 86.6929
|  9> C 	 -12.1046 	 -13.4259 	 87.5085
| 10> C 	 -11.4379 	 -12.2703 	 88.0943
| 11> C 	 -10.09 	 -12.1846 	 87.8719
| 12> H 	 -11.9573 	 -11.5773 	 88.7963
| 13> C 	 -13.4966 	 -13.7412 	 87.7496
| 14> H 	 -13.7557 	 -13.6705 	 88.8
| 15> H 	 -13.5847 	 -14.7628 	 87.4378
| 16> C 	 -14.4751 	 -12.8751 	 86.9738
| 17> H 	 -14.2659 	 -11.8293 	 86.8505
| 18> H 	 -14.5027 	 -13.2922 	 85.9754
| 19> C 	 -15.8738 	 -12.9157 	 87.5811
| 20> H 	 -16.5773 	 -12.2918 	 86.9857
| 21> H 	 -16.1363 	 -14.0081 	 87.5147
| 22> H 	 -15.8399 	 -12.5212 	 88.6264
| 23> S 	 -8.40875 	 -10.0396 	 87.5813
| 24> C 	 -7.53137 	 -9.46087 	 88.9175
| 25> C 	 -7.72522 	 -10.1851 	 90.0527
| 26> C 	 -8.72863 	 -11.1667 	 89.9367
| 27> C 	 -9.12937 	 -11.3244 	 88.5743
| 28> H 	 -7.10417 	 -9.98542 	 90.8963
| 29> C 	 -9.05579 	 -12.3041 	 90.9665
| 30> H 	 -10.0862 	 -12.5675 	 90.9275
| 31> H 	 -9.11465 	 -11.8298 	 91.9655
| 32> C 	 -8.23579 	 -13.6366 	 90.8072
| 33> H 	 -8.09118 	 -13.7632 	 89.6869
| 34> H 	 -8.70096 	 -14.5944 	 91.0366
| 35> C 	 -6.85966 	 -13.3798 	 91.4603
| 36> H 	 -6.08938 	 -14.1487 	 91.207
| 37> H 	 -7.02938 	 -13.3208 	 92.5426
| 38> H 	 -6.49495 	 -12.4564 	 91.0828
| 39> H 	 -11.5329 	 -15.1397 	 86.2476
| 40> H 	 -6.83575 	 -8.69503 	 88.907
| 41> *
| 42>
| 43>                          ****END OF INPUT****

CARTESIAN COORDINATES (ANGSTROEM)
---------------------------------
  S     -9.605740  -13.512800   86.762700
  C    -11.251700  -14.170800   86.692900
  C    -12.104600  -13.425900   87.508500
  C    -11.437900  -12.270300   88.094300
  C    -10.090000  -12.184600   87.871900
  H    -11.957300  -11.577300   88.796300
  C    -13.496600  -13.741200   87.749600
  H    -13.755700  -13.670500   88.800000
  H    -13.584700  -14.762800   87.437800
  C    -14.475100  -12.875100   86.973800
  H    -14.265900  -11.829300   86.850500
  H    -14.502700  -13.292200   85.975400
  C    -15.873800  -12.915700   87.581100
  H    -16.577300  -12.291800   86.985700
  H    -16.136300  -14.008100   87.514700
  H    -15.839900  -12.521200   88.626400
  S     -8.408750  -10.039600   87.581300
  C     -7.531370   -9.460870   88.917500
  C     -7.725220  -10.185100   90.052700
  C     -8.728630  -11.166700   89.936700
  C     -9.129370  -11.324400   88.574300
  H     -7.104170   -9.985420   90.896300
  C     -9.055790  -12.304100   90.966500
  H    -10.086200  -12.567500   90.927500
  H     -9.114650  -11.829800   91.965500
  C     -8.235790  -13.636600   90.807200
  H     -8.091180  -13.763200   89.686900
  H     -8.700960  -14.594400   91.036600
  C     -6.859660  -13.379800   91.460300
  H     -6.089380  -14.148700   91.207000
  H     -7.029380  -13.320800   92.542600
  H     -6.494950  -12.456400   91.082800
  H    -11.532900  -15.139700   86.247600
  H     -6.835750   -8.695030   88.907000

 Total Charge           Charge          ....    0
 Multiplicity           Mult            ....    1
 Number of Electrons    NEL             ....  134
 Basis Dimension        Dim             ....  322

ORBITAL ENERGIES
----------------

  NO   OCC          E(Eh)            E(eV)
   0   2.0000     -88.966993     -2420.9150
   1   2.0000     -88.965292     -2420.8687
   2   2.0000     -10.333510      -281.1891
   3   2.0000     -10.332281      -281.1557
   4   2.0000     -10.320932      -280.8468
   5   2.0000     -10.312798      -280.6255
   6   2.0000     -10.307506      -280.4815
   7   2.0000     -10.301382      -280.3149
   8   2.0000     -10.298872      -280.2466
   9   2.0000     -10.294407      -280.1251
  10   2.0000     -10.289979      -280.0046
  11   2.0000     -10.289864      -280.0014
  12   2.0000     -10.286270      -279.9036
  13   2.0000     -10.285918      -279.8941
  14   2.0000     -10.280137      -279.7367
  15   2.0000     -10.273622      -279.5595
  16   2.0000      -8.082258      -219.9294
  17   2.0000      -8.078757      -219.8342
  18   2.0000      -6.040479      -164.3698
  19   2.0000      -6.037447      -164.2873
  20   2.0000      -6.036563      -164.2632
  21   2.0000      -6.033460      -164.1788
  22   2.0000      -6.033417      -164.1776
  23   2.0000      -6.029352      -164.0670
  24   2.0000      -1.003842       -27.3159
  25   2.0000      -0.982844       -26.7445
  26   2.0000      -0.921473       -25.0745
  27   2.0000      -0.899953       -24.4890
  28   2.0000      -0.870690       -23.6927
  29   2.0000      -0.846540       -23.0355
  30   2.0000      -0.845849       -23.0167
  31   2.0000      -0.816788       -22.2259
  32   2.0000      -0.779698       -21.2167
  33   2.0000      -0.766604       -20.8603
  34   2.0000      -0.709031       -19.2937
  35   2.0000      -0.696175       -18.9439
  36   2.0000      -0.692754       -18.8508
  37   2.0000      -0.658524       -17.9193
  38   2.0000      -0.641320       -17.4512
  39   2.0000      -0.621833       -16.9209
  40   2.0000      -0.597376       -16.2554
  41   2.0000      -0.575502       -15.6602
  42   2.0000      -0.567077       -15.4309
  43   2.0000      -0.548707       -14.9311
  44   2.0000      -0.537146       -14.6165
  45   2.0000      -0.527895       -14.3648
  46   2.0000      -0.518596       -14.1117
  47   2.0000      -0.510659       -13.8957
  48   2.0000      -0.504749       -13.7349
  49   2.0000      -0.497760       -13.5447
  50   2.0000      -0.479568       -13.0497
  51   2.0000      -0.477951       -13.0057
  52   2.0000      -0.474553       -12.9132
  53   2.0000      -0.463647       -12.6165
  54   2.0000      -0.458524       -12.4771
  55   2.0000      -0.445667       -12.1272
  56   2.0000      -0.442689       -12.0462
  57   2.0000      -0.436231       -11.8704
  58   2.0000      -0.433151       -11.7866
  59   2.0000      -0.424546       -11.5525
  60   2.0000      -0.415777       -11.3139
  61   2.0000      -0.414512       -11.2794
  62   2.0000      -0.406707       -11.0670
  63   2.0000      -0.340309        -9.2603
  64   2.0000      -0.333251        -9.0682
  65   2.0000      -0.324035        -8.8175
  66   2.0000      -0.301851        -8.2138
  67   0.0000       0.033930         0.9233
  68   0.0000       0.054396         1.4802
  69   0.0000       0.112118         3.0509
  70   0.0000       0.121610         3.3092
  71   0.0000       0.127765         3.4767

MULLIKEN ATOMIC CHARGES
-----------------------
   0 S :    0.094393
   1 C :   -0.121772
   2 C :   -0.124963
   3 C :    0.051657
   4 C :   -0.138179
   5 H :    0.027976
   6 C :    0.097412
   7 H :    0.021761
   8 H :    0.008649
   9 C :   -0.071951
  10 H :    0.030201
  11 H :    0.021485
  12 C :   -0.080496
  13 H :    0.043565
  14 H :    0.037689
  15 H :    0.043902
  16 S :    0.121349
  17 C :   -0.045310
  18 C :   -0.048906
  19 C :   -0.009139
  20 C :   -0.195290
  21 H :    0.015818
  22 C :    0.057244
  23 H :    0.006729
  24 H :    0.018769
  25 C :   -0.062896
  26 H :    0.033977
  27 H :    0.034723
  28 C :   -0.043458
  29 H :    0.038147
  30 H :    0.032852
  31 H :    0.019382
  32 H :    0.061078
  33 H :    0.023600
Sum of atomic charges:   -0.0000000

LOEWDIN ATOMIC CHARGES
----------------------
   0 S :    0.372972
   1 C :   -0.195648
   2 C :   -0.061680
   3 C :   -0.056455
   4 C :   -0.190975
   5 H :    0.038199
   6 C :   -0.033856
   7 H :    0.030066
   8 H :    0.030765
   9 C :   -0.040855
  10 H :    0.020677
  11 H :    0.023933
  12 C :   -0.069240
  13 H :    0.028707
  14 H :    0.029204
  15 H :    0.027045
  16 S :    0.429263
  17 C :   -0.187002
  18 C :   -0.075948
  19 C :   -0.046149
  20 C :   -0.192426
  21 H :    0.029857
  22 C :   -0.035887
  23 H :    0.025536
  24 H :    0.030011
  25 C :   -0.040572
  26 H :    0.029925
  27 H :    0.023750
  28 C :   -0.064898
  29 H :    0.027528
  30 H :    0.024512
  31 H :    0.018540
  32 H :    0.035582
  33 H :    0.015521

  Mayer bond orders larger than 0.100000
B(  0-S ,  1-C ) :   1.1226 B(  0-S ,  4-C ) :   1.1253 B(  1-C ,  2-C ) :   1.6273
B(  1-C , 32-H ) :   0.9603 B(  2-C ,  3-C ) :   1.2087 B(  2-C ,  6-C ) :   1.0577
B(  3-C ,  4-C ) :   1.6153 B(  3-C ,  5-H ) :   0.9861 B(  4-C , 20-C ) :   1.0156
B(  6-C ,  7-H ) :   0.9386 B(  6-C ,  8-H ) :   0.9244 B(  6-C ,  9-C ) :   1.0478
B(  9-C , 10-H ) :   0.9659 B(  9-C , 11-H ) :   0.9507 B(  9-C , 12-C ) :   1.0791
B( 12-C , 13-H ) :   0.9738 B( 12-C , 14-H ) :   0.9744 B( 12-C , 15-H ) :   0.9756
B( 16-S , 17-C ) :   1.1752 B( 16-S , 20-C ) :   1.1689 B( 17-C , 18-C ) :   1.5996
B( 17-C , 20-C ) :   0.1077 B( 17-C , 33-H ) :   0.9714 B( 18-C , 19-C ) :   1.2572
B( 18-C , 21-H ) :   0.9902 B( 19-C , 20-C ) :   1.5473 B( 19-C , 22-C ) :   1.0578
B( 22-C , 23-H ) :   0.9286 B( 22-C , 24-H ) :   0.9391 B( 22-C , 25-C ) :   1.0362
B( 25-C , 26-H ) :   0.9537 B( 25-C , 27-H ) :   0.9627 B( 25-C , 28-C ) :   1.0646
B( 28-C , 29-H ) :   0.9729 B( 28-C , 30-H ) :   0.9791 B( 28-C , 31-H ) :   0.9756

Dispersion correction           -0.014707944
FINAL SINGLE POINT ENERGY     -1339.866880439810

DIPOLE MOMENT
-------------
                                X             Y             Z
Electronic contribution:     14.52415       9.35425     -12.88455
Nuclear contribution   :    -14.90195      -9.48952      13.28825
                        -----------------------------------------
Total Dipole Moment    :     -0.37780      -0.13527       0.40370
                        -----------------------------------------
Magnitude (a.u.)       :      0.56921
Magnitude (Debye)      :      1.44683

Rotational constants in cm-1:     0.020888     0.007538     0.006966
Rotational constants in MHz :   626.193861   225.998177   208.825434

                             ****ORCA TERMINATED NORMALLY****
TOTAL RUN TIME: 0 days 0 hours 0 minutes 33 seconds 947 msec
