                         Program Version 4.2.1 -  RELEASE  -
|  1> ! wB97X-D3 SP def2-SVP
|  2> %pal
|  3> nprocs 16
|  4> end
|  5>
|  6> * xyz 0 1
|  7> S 	 -31.0894 	 66.6 	 105.721
|  8> C 	 -29.6121 	 66.388 	 104.874
|  9> C 	 -29.3614 	 67.3473 	 103.959
| 10> C 	 -30.3778 	 68.3402 	 103.891
| 11> C 	 -31.4303 	 68.1123 	 104.762
| 12> H 	 -30.4208 	 69.191 	 103.209
| 13> C 	 -28.0989 	 67.3898 	 103.072
| 14> H 	 -27.952 	 66.3965 	 102.616
| 15> H 	 -27.2741 	 67.5917 	 103.79
| 16> C 	 -28.0309 	 68.4018 	 101.887
| 17> H 	 -28.9036 	 68.0573 	 101.301
| 18> H 	 -28.216 	 69.4156 	 102.229
| 19> C 	 -26.7479 	 68.412 	 101.022
| 20> H 	 -26.9008 	 69.0806 	 100.113
| 21> H 	 -25.8854 	 68.791 	 101.589
| 22> H 	 -26.5541 	 67.4146 	 100.687
| 23> S 	 -33.6131 	 68.6632 	 106.361
| 24> C 	 -35.0867 	 69.4687 	 105.683
| 25> C 	 -34.8025 	 69.7578 	 104.371
| 26> C 	 -33.4816 	 69.5128 	 103.905
| 27> C 	 -32.6934 	 68.8442 	 104.845
| 28> H 	 -35.6197 	 69.9247 	 103.715
| 29> C 	 -33.0215 	 69.8436 	 102.478
| 30> H 	 -31.9802 	 70.2489 	 102.431
| 31> H 	 -33.6492 	 70.5868 	 102.092
| 32> C 	 -33.1263 	 68.6084 	 101.584
| 33> H 	 -34.1624 	 68.3765 	 101.74
| 34> H 	 -32.5688 	 67.7715 	 101.879
| 35> C 	 -33.1287 	 68.9212 	 100.06
| 36> H 	 -32.1127 	 69.0283 	 99.6994
| 37> H 	 -33.6577 	 69.7872 	 99.7205
| 38> H 	 -33.45 	 68.0487 	 99.5052
| 39> H 	 -28.8502 	 65.5257 	 104.905
| 40> H 	 -36.082 	 69.5397 	 106.073
| 41> *
| 42>
| 43>                          ****END OF INPUT****

CARTESIAN COORDINATES (ANGSTROEM)
---------------------------------
  S    -31.089400   66.600000  105.721000
  C    -29.612100   66.388000  104.874000
  C    -29.361400   67.347300  103.959000
  C    -30.377800   68.340200  103.891000
  C    -31.430300   68.112300  104.762000
  H    -30.420800   69.191000  103.209000
  C    -28.098900   67.389800  103.072000
  H    -27.952000   66.396500  102.616000
  H    -27.274100   67.591700  103.790000
  C    -28.030900   68.401800  101.887000
  H    -28.903600   68.057300  101.301000
  H    -28.216000   69.415600  102.229000
  C    -26.747900   68.412000  101.022000
  H    -26.900800   69.080600  100.113000
  H    -25.885400   68.791000  101.589000
  H    -26.554100   67.414600  100.687000
  S    -33.613100   68.663200  106.361000
  C    -35.086700   69.468700  105.683000
  C    -34.802500   69.757800  104.371000
  C    -33.481600   69.512800  103.905000
  C    -32.693400   68.844200  104.845000
  H    -35.619700   69.924700  103.715000
  C    -33.021500   69.843600  102.478000
  H    -31.980200   70.248900  102.431000
  H    -33.649200   70.586800  102.092000
  C    -33.126300   68.608400  101.584000
  H    -34.162400   68.376500  101.740000
  H    -32.568800   67.771500  101.879000
  C    -33.128700   68.921200  100.060000
  H    -32.112700   69.028300   99.699400
  H    -33.657700   69.787200   99.720500
  H    -33.450000   68.048700   99.505200
  H    -28.850200   65.525700  104.905000
  H    -36.082000   69.539700  106.073000

 Total Charge           Charge          ....    0
 Multiplicity           Mult            ....    1
 Number of Electrons    NEL             ....  134
 Basis Dimension        Dim             ....  322

ORBITAL ENERGIES
----------------

  NO   OCC          E(Eh)            E(eV)
   0   2.0000     -88.971618     -2421.0408
   1   2.0000     -88.964574     -2420.8491
   2   2.0000     -10.338185      -281.3163
   3   2.0000     -10.334943      -281.2281
   4   2.0000     -10.320885      -280.8455
   5   2.0000     -10.314761      -280.6789
   6   2.0000     -10.306693      -280.4594
   7   2.0000     -10.299651      -280.2678
   8   2.0000     -10.299285      -280.2578
   9   2.0000     -10.296793      -280.1900
  10   2.0000     -10.293582      -280.1026
  11   2.0000     -10.293276      -280.0943
  12   2.0000     -10.292568      -280.0750
  13   2.0000     -10.288639      -279.9681
  14   2.0000     -10.279601      -279.7222
  15   2.0000     -10.275527      -279.6113
  16   2.0000      -8.085449      -220.0163
  17   2.0000      -8.077838      -219.8091
  18   2.0000      -6.044170      -164.4702
  19   2.0000      -6.040146      -164.3607
  20   2.0000      -6.036632      -164.2651
  21   2.0000      -6.035951      -164.2466
  22   2.0000      -6.032537      -164.1537
  23   2.0000      -6.028382      -164.0406
  24   2.0000      -1.003726       -27.3128
  25   2.0000      -0.981856       -26.7177
  26   2.0000      -0.910542       -24.7771
  27   2.0000      -0.905631       -24.6435
  28   2.0000      -0.873098       -23.7582
  29   2.0000      -0.851209       -23.1626
  30   2.0000      -0.842517       -22.9261
  31   2.0000      -0.819027       -22.2869
  32   2.0000      -0.781688       -21.2708
  33   2.0000      -0.773149       -21.0385
  34   2.0000      -0.716323       -19.4922
  35   2.0000      -0.701443       -19.0872
  36   2.0000      -0.688629       -18.7386
  37   2.0000      -0.664756       -18.0889
  38   2.0000      -0.633506       -17.2386
  39   2.0000      -0.621815       -16.9205
  40   2.0000      -0.594115       -16.1667
  41   2.0000      -0.575682       -15.6651
  42   2.0000      -0.569892       -15.5076
  43   2.0000      -0.562603       -15.3092
  44   2.0000      -0.526730       -14.3331
  45   2.0000      -0.518374       -14.1057
  46   2.0000      -0.514927       -14.0119
  47   2.0000      -0.509705       -13.8698
  48   2.0000      -0.504747       -13.7349
  49   2.0000      -0.495695       -13.4886
  50   2.0000      -0.492662       -13.4060
  51   2.0000      -0.490018       -13.3341
  52   2.0000      -0.474817       -12.9204
  53   2.0000      -0.472120       -12.8470
  54   2.0000      -0.463512       -12.6128
  55   2.0000      -0.455850       -12.4043
  56   2.0000      -0.445624       -12.1260
  57   2.0000      -0.437180       -11.8963
  58   2.0000      -0.432756       -11.7759
  59   2.0000      -0.426611       -11.6087
  60   2.0000      -0.415739       -11.3128
  61   2.0000      -0.413123       -11.2417
  62   2.0000      -0.406578       -11.0635
  63   2.0000      -0.361559        -9.8385
  64   2.0000      -0.336338        -9.1522
  65   2.0000      -0.327650        -8.9158
  66   2.0000      -0.283288        -7.7087
  67   0.0000       0.015480         0.4212
  68   0.0000       0.074508         2.0275
  69   0.0000       0.104768         2.8509
  70   0.0000       0.117602         3.2001
  71   0.0000       0.125034         3.4023

MULLIKEN ATOMIC CHARGES
-----------------------
   0 S :    0.120743
   1 C :   -0.138190
   2 C :   -0.080219
   3 C :   -0.009532
   4 C :   -0.099370
   5 H :    0.005977
   6 C :    0.035570
   7 H :    0.032656
   8 H :    0.044950
   9 C :   -0.122812
  10 H :    0.035570
  11 H :    0.038759
  12 C :   -0.032358
  13 H :    0.049025
  14 H :    0.040792
  15 H :    0.025463
  16 S :    0.069167
  17 C :   -0.076753
  18 C :   -0.028872
  19 C :   -0.061745
  20 C :   -0.137957
  21 H :    0.015887
  22 C :    0.075592
  23 H :    0.037667
  24 H :   -0.001655
  25 C :   -0.053743
  26 H :    0.012914
  27 H :    0.036174
  28 C :   -0.031930
  29 H :    0.015738
  30 H :    0.028787
  31 H :    0.030057
  32 H :    0.067146
  33 H :    0.056505
Sum of atomic charges:   -0.0000000

LOEWDIN ATOMIC CHARGES
----------------------
   0 S :    0.394981
   1 C :   -0.219848
   2 C :   -0.074879
   3 C :   -0.062899
   4 C :   -0.168533
   5 H :    0.031384
   6 C :   -0.036395
   7 H :    0.031022
   8 H :    0.034132
   9 C :   -0.049471
  10 H :    0.026965
  11 H :    0.019738
  12 C :   -0.062200
  13 H :    0.038449
  14 H :    0.028160
  15 H :    0.019632
  16 S :    0.363618
  17 C :   -0.168578
  18 C :   -0.069034
  19 C :   -0.057219
  20 C :   -0.175196
  21 H :    0.027375
  22 C :   -0.023882
  23 H :    0.028248
  24 H :    0.021786
  25 C :   -0.032466
  26 H :    0.024296
  27 H :    0.020770
  28 C :   -0.064598
  29 H :    0.020040
  30 H :    0.022367
  31 H :    0.027808
  32 H :    0.051459
  33 H :    0.032968

  Mayer bond orders larger than 0.100000
B(  0-S ,  1-C ) :   1.1285 B(  0-S ,  4-C ) :   1.1243 B(  1-C ,  2-C ) :   1.6596
B(  1-C , 32-H ) :   0.9501 B(  2-C ,  3-C ) :   1.2435 B(  2-C ,  6-C ) :   0.9925
B(  3-C ,  4-C ) :   1.5642 B(  3-C ,  5-H ) :   0.9913 B(  4-C , 20-C ) :   1.0899
B(  6-C ,  7-H ) :   0.9451 B(  6-C ,  8-H ) :   0.9400 B(  6-C ,  9-C ) :   1.0747
B(  9-C , 10-H ) :   0.9561 B(  9-C , 11-H ) :   0.9491 B(  9-C , 12-C ) :   1.0835
B( 12-C , 13-H ) :   0.9728 B( 12-C , 14-H ) :   0.9748 B( 12-C , 15-H ) :   0.9746
B( 16-S , 17-C ) :   1.1227 B( 16-S , 20-C ) :   1.1264 B( 17-C , 18-C ) :   1.6342
B( 17-C , 33-H ) :   0.9685 B( 18-C , 19-C ) :   1.2580 B( 18-C , 21-H ) :   0.9796
B( 19-C , 20-C ) :   1.5744 B( 19-C , 22-C ) :   1.0421 B( 22-C , 23-H ) :   0.9403
B( 22-C , 24-H ) :   0.9250 B( 22-C , 25-C ) :   1.0549 B( 25-C , 26-H ) :   0.9529
B( 25-C , 27-H ) :   0.9609 B( 25-C , 28-C ) :   1.0787 B( 28-C , 29-H ) :   0.9733
B( 28-C , 30-H ) :   0.9745 B( 28-C , 31-H ) :   0.9746

Dispersion correction           -0.014369284
FINAL SINGLE POINT ENERGY     -1339.866530593818

DIPOLE MOMENT
-------------
                                X             Y             Z
Electronic contribution:    -13.07567      -5.03528      30.47895
Nuclear contribution   :     13.21007       5.05753     -31.36765
                        -----------------------------------------
Total Dipole Moment    :      0.13440       0.02224      -0.88870
                        -----------------------------------------
Magnitude (a.u.)       :      0.89908
Magnitude (Debye)      :      2.28528

Rotational constants in cm-1:     0.017945     0.009248     0.006620
Rotational constants in MHz :   537.979557   277.239014   198.458616

                             ****ORCA TERMINATED NORMALLY****
TOTAL RUN TIME: 0 days 0 hours 0 minutes 29 seconds 203 msec
