                         Program Version 4.2.1 -  RELEASE  -
|  1> ! wB97X-D3 SP def2-SVP
|  2> %pal
|  3> nprocs 16
|  4> end
|  5>
|  6> * xyz 0 1
|  7> S 	 -97.9492 	 39.4893 	 124.724
|  8> C 	 -98.7194 	 39.6596 	 126.257
|  9> C 	 -98.8531 	 40.9455 	 126.69
| 10> C 	 -98.1303 	 41.8696 	 125.837
| 11> C 	 -97.5169 	 41.1623 	 124.757
| 12> H 	 -98.0862 	 42.9153 	 125.972
| 13> C 	 -99.6595 	 41.4569 	 127.87
| 14> H 	 -100.557 	 40.7767 	 127.895
| 15> H 	 -100.231 	 42.3869 	 127.686
| 16> C 	 -98.8866 	 41.4086 	 129.193
| 17> H 	 -97.8756 	 41.7516 	 128.916
| 18> H 	 -99.2304 	 42.1978 	 129.929
| 19> C 	 -98.8011 	 40.1064 	 129.85
| 20> H 	 -98.2373 	 40.2775 	 130.763
| 21> H 	 -99.7691 	 39.6999 	 129.98
| 22> H 	 -98.2542 	 39.3598 	 129.223
| 23> S 	 -95.3283 	 40.8461 	 123.079
| 24> C 	 -94.8746 	 42.1236 	 121.913
| 25> C 	 -95.7125 	 43.146 	 122.044
| 26> C 	 -96.7614 	 43.0007 	 123.016
| 27> C 	 -96.781 	 41.718 	 123.611
| 28> H 	 -95.4262 	 44.0591 	 121.492
| 29> C 	 -97.8885 	 44.0419 	 123.249
| 30> H 	 -98.8145 	 43.5234 	 123.591
| 31> H 	 -98.1418 	 44.4774 	 122.232
| 32> C 	 -97.4301 	 45.1394 	 124.199
| 33> H 	 -96.62 	 45.6871 	 123.712
| 34> H 	 -97.0077 	 44.7212 	 125.133
| 35> C 	 -98.5318 	 46.1912 	 124.563
| 36> H 	 -99.0359 	 46.4148 	 123.644
| 37> H 	 -97.9834 	 47.083 	 125.024
| 38> H 	 -99.2502 	 45.7623 	 125.174
| 39> H 	 -98.9113 	 38.8756 	 126.942
| 40> H 	 -94.0122 	 42.038 	 121.263
| 41> *
| 42>
| 43>                          ****END OF INPUT****

CARTESIAN COORDINATES (ANGSTROEM)
---------------------------------
  S    -97.949200   39.489300  124.724000
  C    -98.719400   39.659600  126.257000
  C    -98.853100   40.945500  126.690000
  C    -98.130300   41.869600  125.837000
  C    -97.516900   41.162300  124.757000
  H    -98.086200   42.915300  125.972000
  C    -99.659500   41.456900  127.870000
  H    -100.557000   40.776700  127.895000
  H    -100.231000   42.386900  127.686000
  C    -98.886600   41.408600  129.193000
  H    -97.875600   41.751600  128.916000
  H    -99.230400   42.197800  129.929000
  C    -98.801100   40.106400  129.850000
  H    -98.237300   40.277500  130.763000
  H    -99.769100   39.699900  129.980000
  H    -98.254200   39.359800  129.223000
  S    -95.328300   40.846100  123.079000
  C    -94.874600   42.123600  121.913000
  C    -95.712500   43.146000  122.044000
  C    -96.761400   43.000700  123.016000
  C    -96.781000   41.718000  123.611000
  H    -95.426200   44.059100  121.492000
  C    -97.888500   44.041900  123.249000
  H    -98.814500   43.523400  123.591000
  H    -98.141800   44.477400  122.232000
  C    -97.430100   45.139400  124.199000
  H    -96.620000   45.687100  123.712000
  H    -97.007700   44.721200  125.133000
  C    -98.531800   46.191200  124.563000
  H    -99.035900   46.414800  123.644000
  H    -97.983400   47.083000  125.024000
  H    -99.250200   45.762300  125.174000
  H    -98.911300   38.875600  126.942000
  H    -94.012200   42.038000  121.263000

 Total Charge           Charge          ....    0
 Multiplicity           Mult            ....    1
 Number of Electrons    NEL             ....  134
 Basis Dimension        Dim             ....  322

ORBITAL ENERGIES
----------------

  NO   OCC          E(Eh)            E(eV)
   0   2.0000     -88.970586     -2421.0127
   1   2.0000     -88.958899     -2420.6947
   2   2.0000     -10.335219      -281.2356
   3   2.0000     -10.331631      -281.1380
   4   2.0000     -10.317310      -280.7483
   5   2.0000     -10.309577      -280.5379
   6   2.0000     -10.306765      -280.4613
   7   2.0000     -10.301753      -280.3249
   8   2.0000     -10.300346      -280.2867
   9   2.0000     -10.298851      -280.2460
  10   2.0000     -10.297048      -280.1969
  11   2.0000     -10.294518      -280.1281
  12   2.0000     -10.288933      -279.9761
  13   2.0000     -10.286971      -279.9227
  14   2.0000     -10.279165      -279.7103
  15   2.0000     -10.274287      -279.5776
  16   2.0000      -8.085974      -220.0305
  17   2.0000      -8.073220      -219.6835
  18   2.0000      -6.044391      -164.4762
  19   2.0000      -6.040504      -164.3705
  20   2.0000      -6.036680      -164.2664
  21   2.0000      -6.031815      -164.1340
  22   2.0000      -6.027802      -164.0248
  23   2.0000      -6.023874      -163.9179
  24   2.0000      -1.005748       -27.3678
  25   2.0000      -0.983255       -26.7557
  26   2.0000      -0.918694       -24.9989
  27   2.0000      -0.905040       -24.6274
  28   2.0000      -0.873376       -23.7658
  29   2.0000      -0.853867       -23.2349
  30   2.0000      -0.841292       -22.8927
  31   2.0000      -0.815408       -22.1884
  32   2.0000      -0.785417       -21.3723
  33   2.0000      -0.771171       -20.9846
  34   2.0000      -0.707314       -19.2470
  35   2.0000      -0.694084       -18.8870
  36   2.0000      -0.692567       -18.8457
  37   2.0000      -0.659358       -17.9420
  38   2.0000      -0.637746       -17.3539
  39   2.0000      -0.621720       -16.9179
  40   2.0000      -0.594692       -16.1824
  41   2.0000      -0.576516       -15.6878
  42   2.0000      -0.564764       -15.3680
  43   2.0000      -0.553675       -15.0663
  44   2.0000      -0.541825       -14.7438
  45   2.0000      -0.530218       -14.4280
  46   2.0000      -0.523236       -14.2380
  47   2.0000      -0.509795       -13.8722
  48   2.0000      -0.501414       -13.6442
  49   2.0000      -0.498578       -13.5670
  50   2.0000      -0.492179       -13.3929
  51   2.0000      -0.485225       -13.2036
  52   2.0000      -0.472603       -12.8602
  53   2.0000      -0.467096       -12.7103
  54   2.0000      -0.458356       -12.4725
  55   2.0000      -0.450645       -12.2627
  56   2.0000      -0.442548       -12.0423
  57   2.0000      -0.436041       -11.8653
  58   2.0000      -0.432558       -11.7705
  59   2.0000      -0.423774       -11.5315
  60   2.0000      -0.422209       -11.4889
  61   2.0000      -0.409640       -11.1469
  62   2.0000      -0.405062       -11.0223
  63   2.0000      -0.351832        -9.5738
  64   2.0000      -0.333623        -9.0784
  65   2.0000      -0.326463        -8.8835
  66   2.0000      -0.290562        -7.9066
  67   0.0000       0.020782         0.5655
  68   0.0000       0.079273         2.1571
  69   0.0000       0.100697         2.7401
  70   0.0000       0.116411         3.1677
  71   0.0000       0.129599         3.5266

MULLIKEN ATOMIC CHARGES
-----------------------
   0 S :    0.131328
   1 C :   -0.090426
   2 C :   -0.111497
   3 C :    0.043954
   4 C :   -0.137644
   5 H :   -0.017980
   6 C :    0.025574
   7 H :    0.023575
   8 H :    0.035588
   9 C :   -0.074341
  10 H :    0.025402
  11 H :    0.034001
  12 C :   -0.016273
  13 H :    0.040704
  14 H :    0.019573
  15 H :    0.029505
  16 S :    0.064556
  17 C :   -0.091555
  18 C :   -0.022569
  19 C :   -0.049412
  20 C :   -0.115876
  21 H :    0.029997
  22 C :    0.018311
  23 H :    0.041662
  24 H :    0.036925
  25 C :   -0.115882
  26 H :    0.025336
  27 H :    0.037942
  28 C :   -0.005604
  29 H :    0.019710
  30 H :    0.054637
  31 H :    0.016797
  32 H :    0.032225
  33 H :    0.061757
Sum of atomic charges:   -0.0000000

LOEWDIN ATOMIC CHARGES
----------------------
   0 S :    0.435430
   1 C :   -0.206843
   2 C :   -0.058025
   3 C :   -0.052998
   4 C :   -0.195964
   5 H :    0.021350
   6 C :   -0.043283
   7 H :    0.032441
   8 H :    0.036934
   9 C :   -0.050239
  10 H :    0.026154
  11 H :    0.028824
  12 C :   -0.061239
  13 H :    0.032867
  14 H :    0.018173
  15 H :    0.028016
  16 S :    0.365324
  17 C :   -0.165207
  18 C :   -0.081078
  19 C :   -0.054166
  20 C :   -0.192174
  21 H :    0.039246
  22 C :   -0.037722
  23 H :    0.032245
  24 H :    0.035508
  25 C :   -0.046275
  26 H :    0.023328
  27 H :    0.021531
  28 C :   -0.058628
  29 H :    0.021557
  30 H :    0.039908
  31 H :    0.011942
  32 H :    0.019584
  33 H :    0.033479

  Mayer bond orders larger than 0.100000
B(  0-S ,  1-C ) :   1.1350 B(  0-S ,  4-C ) :   1.1782 B(  1-C ,  2-C ) :   1.6298
B(  1-C , 32-H ) :   0.9593 B(  2-C ,  3-C ) :   1.2528 B(  2-C ,  6-C ) :   1.0139
B(  3-C ,  4-C ) :   1.5266 B(  3-C ,  5-H ) :   1.0029 B(  4-C , 20-C ) :   1.0341
B(  6-C ,  7-H ) :   0.9475 B(  6-C ,  8-H ) :   0.9468 B(  6-C ,  9-C ) :   1.0452
B(  9-C , 10-H ) :   0.9520 B(  9-C , 11-H ) :   0.9535 B(  9-C , 12-C ) :   1.0987
B( 12-C , 13-H ) :   0.9672 B( 12-C , 14-H ) :   0.9721 B( 12-C , 15-H ) :   0.9668
B( 16-S , 17-C ) :   1.1307 B( 16-S , 20-C ) :   1.1308 B( 17-C , 18-C ) :   1.6422
B( 17-C , 33-H ) :   0.9683 B( 18-C , 19-C ) :   1.2263 B( 18-C , 21-H ) :   0.9835
B( 19-C , 20-C ) :   1.5984 B( 19-C , 22-C ) :   1.0289 B( 22-C , 23-H ) :   0.9465
B( 22-C , 24-H ) :   0.9387 B( 22-C , 25-C ) :   1.0528 B( 25-C , 26-H ) :   0.9557
B( 25-C , 27-H ) :   0.9550 B( 25-C , 28-C ) :   1.0742 B( 28-C , 29-H ) :   0.9705
B( 28-C , 30-H ) :   0.9759 B( 28-C , 31-H ) :   0.9766

Dispersion correction           -0.014463073
FINAL SINGLE POINT ENERGY     -1339.871053928758

DIPOLE MOMENT
-------------
                                X             Y             Z
Electronic contribution:     11.55004     -18.11309     -18.24261
Nuclear contribution   :    -11.72985      18.73084      18.50091
                        -----------------------------------------
Total Dipole Moment    :     -0.17982       0.61774       0.25830
                        -----------------------------------------
Magnitude (a.u.)       :      0.69329
Magnitude (Debye)      :      1.76221

Rotational constants in cm-1:     0.018312     0.008914     0.006540
Rotational constants in MHz :   548.973179   267.235892   196.050751

                             ****ORCA TERMINATED NORMALLY****
TOTAL RUN TIME: 0 days 0 hours 0 minutes 33 seconds 983 msec
