                         Program Version 4.2.1 -  RELEASE  -
|  1> ! wB97X-D3 SP def2-SVP
|  2> %pal
|  3> nprocs 16
|  4> end
|  5>
|  6> * xyz 0 1
|  7> S 	 -39.3214 	 13.3854 	 79.1917
|  8> C 	 -38.2139 	 13.4409 	 77.8929
|  9> C 	 -38.8583 	 13.3514 	 76.64
| 10> C 	 -40.2464 	 13.306 	 76.821
| 11> C 	 -40.6581 	 13.3589 	 78.1227
| 12> H 	 -41.008 	 13.4137 	 76.0332
| 13> C 	 -38.2041 	 13.5748 	 75.3216
| 14> H 	 -39.0141 	 13.6622 	 74.5737
| 15> H 	 -37.7107 	 12.7323 	 74.9815
| 16> C 	 -37.3815 	 14.8644 	 75.2243
| 17> H 	 -36.5534 	 14.8999 	 75.9242
| 18> H 	 -36.8828 	 14.9197 	 74.3163
| 19> C 	 -38.0955 	 16.1592 	 75.4929
| 20> H 	 -38.7846 	 16.3837 	 74.7345
| 21> H 	 -38.5334 	 16.135 	 76.5049
| 22> H 	 -37.3179 	 16.9522 	 75.4241
| 23> S 	 -42.115 	 15.1141 	 79.7469
| 24> C 	 -43.8034 	 14.9584 	 79.7751
| 25> C 	 -44.2683 	 13.8198 	 79.0794
| 26> C 	 -43.2585 	 13.2014 	 78.3074
| 27> C 	 -42.0097 	 13.7684 	 78.593
| 28> H 	 -45.3559 	 13.487 	 79.1368
| 29> C 	 -43.5485 	 11.8497 	 77.6299
| 30> H 	 -43.5527 	 11.113 	 78.3741
| 31> H 	 -42.6831 	 11.8016 	 76.985
| 32> C 	 -44.7754 	 11.6659 	 76.6655
| 33> H 	 -45.7282 	 11.8865 	 77.1745
| 34> H 	 -44.7204 	 10.6129 	 76.2812
| 35> C 	 -44.8831 	 12.5856 	 75.4246
| 36> H 	 -45.6978 	 12.1368 	 74.8318
| 37> H 	 -43.9934 	 12.7809 	 74.7587
| 38> H 	 -45.1389 	 13.5665 	 75.8074
| 39> H 	 -37.165 	 13.5804 	 78.0288
| 40> H 	 -44.4959 	 15.3804 	 80.5049
| 41> *
| 42>
| 43>                          ****END OF INPUT****

CARTESIAN COORDINATES (ANGSTROEM)
---------------------------------
  S    -39.321400   13.385400   79.191700
  C    -38.213900   13.440900   77.892900
  C    -38.858300   13.351400   76.640000
  C    -40.246400   13.306000   76.821000
  C    -40.658100   13.358900   78.122700
  H    -41.008000   13.413700   76.033200
  C    -38.204100   13.574800   75.321600
  H    -39.014100   13.662200   74.573700
  H    -37.710700   12.732300   74.981500
  C    -37.381500   14.864400   75.224300
  H    -36.553400   14.899900   75.924200
  H    -36.882800   14.919700   74.316300
  C    -38.095500   16.159200   75.492900
  H    -38.784600   16.383700   74.734500
  H    -38.533400   16.135000   76.504900
  H    -37.317900   16.952200   75.424100
  S    -42.115000   15.114100   79.746900
  C    -43.803400   14.958400   79.775100
  C    -44.268300   13.819800   79.079400
  C    -43.258500   13.201400   78.307400
  C    -42.009700   13.768400   78.593000
  H    -45.355900   13.487000   79.136800
  C    -43.548500   11.849700   77.629900
  H    -43.552700   11.113000   78.374100
  H    -42.683100   11.801600   76.985000
  C    -44.775400   11.665900   76.665500
  H    -45.728200   11.886500   77.174500
  H    -44.720400   10.612900   76.281200
  C    -44.883100   12.585600   75.424600
  H    -45.697800   12.136800   74.831800
  H    -43.993400   12.780900   74.758700
  H    -45.138900   13.566500   75.807400
  H    -37.165000   13.580400   78.028800
  H    -44.495900   15.380400   80.504900

 Total Charge           Charge          ....    0
 Multiplicity           Mult            ....    1
 Number of Electrons    NEL             ....  134
 Basis Dimension        Dim             ....  322

ORBITAL ENERGIES
----------------

  NO   OCC          E(Eh)            E(eV)
   0   2.0000     -88.971755     -2421.0445
   1   2.0000     -88.968241     -2420.9489
   2   2.0000     -10.330825      -281.1160
   3   2.0000     -10.322708      -280.8952
   4   2.0000     -10.313125      -280.6344
   5   2.0000     -10.310603      -280.5658
   6   2.0000     -10.302127      -280.3351
   7   2.0000     -10.298967      -280.2491
   8   2.0000     -10.296479      -280.1814
   9   2.0000     -10.296242      -280.1750
  10   2.0000     -10.289995      -280.0050
  11   2.0000     -10.289332      -279.9870
  12   2.0000     -10.285780      -279.8903
  13   2.0000     -10.281676      -279.7786
  14   2.0000     -10.276385      -279.6347
  15   2.0000     -10.270230      -279.4672
  16   2.0000      -8.086488      -220.0445
  17   2.0000      -8.084212      -219.9826
  18   2.0000      -6.044841      -164.4885
  19   2.0000      -6.042448      -164.4234
  20   2.0000      -6.041037      -164.3850
  21   2.0000      -6.038391      -164.3130
  22   2.0000      -6.037375      -164.2853
  23   2.0000      -6.035376      -164.2309
  24   2.0000      -1.012926       -27.5631
  25   2.0000      -0.988618       -26.9017
  26   2.0000      -0.917961       -24.9790
  27   2.0000      -0.903706       -24.5911
  28   2.0000      -0.863432       -23.4952
  29   2.0000      -0.858076       -23.3494
  30   2.0000      -0.849634       -23.1197
  31   2.0000      -0.811182       -22.0734
  32   2.0000      -0.787743       -21.4356
  33   2.0000      -0.773719       -21.0540
  34   2.0000      -0.705630       -19.2012
  35   2.0000      -0.697305       -18.9746
  36   2.0000      -0.688006       -18.7216
  37   2.0000      -0.655031       -17.8243
  38   2.0000      -0.641275       -17.4500
  39   2.0000      -0.614941       -16.7334
  40   2.0000      -0.590579       -16.0705
  41   2.0000      -0.575546       -15.6614
  42   2.0000      -0.558976       -15.2105
  43   2.0000      -0.555187       -15.1074
  44   2.0000      -0.543862       -14.7992
  45   2.0000      -0.540918       -14.7191
  46   2.0000      -0.515939       -14.0394
  47   2.0000      -0.510087       -13.8802
  48   2.0000      -0.502356       -13.6698
  49   2.0000      -0.500098       -13.6084
  50   2.0000      -0.487456       -13.2643
  51   2.0000      -0.473505       -12.8847
  52   2.0000      -0.470012       -12.7897
  53   2.0000      -0.466171       -12.6852
  54   2.0000      -0.451005       -12.2725
  55   2.0000      -0.450258       -12.2522
  56   2.0000      -0.442220       -12.0334
  57   2.0000      -0.438987       -11.9454
  58   2.0000      -0.436651       -11.8819
  59   2.0000      -0.429060       -11.6753
  60   2.0000      -0.422354       -11.4928
  61   2.0000      -0.411983       -11.2106
  62   2.0000      -0.409204       -11.1350
  63   2.0000      -0.348783        -9.4909
  64   2.0000      -0.336023        -9.1437
  65   2.0000      -0.330459        -8.9923
  66   2.0000      -0.286270        -7.7898
  67   0.0000       0.027853         0.7579
  68   0.0000       0.067958         1.8492
  69   0.0000       0.117070         3.1856
  70   0.0000       0.122368         3.3298
  71   0.0000       0.131972         3.5911

MULLIKEN ATOMIC CHARGES
-----------------------
   0 S :    0.122149
   1 C :   -0.133694
   2 C :   -0.099581
   3 C :    0.025470
   4 C :   -0.165010
   5 H :    0.021738
   6 C :    0.131460
   7 H :    0.008220
   8 H :    0.017484
   9 C :   -0.066286
  10 H :    0.012742
  11 H :    0.005247
  12 C :   -0.040168
  13 H :    0.019015
  14 H :    0.053616
  15 H :    0.028716
  16 S :    0.133101
  17 C :   -0.090413
  18 C :   -0.086764
  19 C :   -0.055315
  20 C :   -0.163520
  21 H :    0.044849
  22 C :    0.113745
  23 H :    0.040988
  24 H :    0.009585
  25 C :   -0.106223
  26 H :    0.034910
  27 H :    0.045932
  28 C :   -0.085458
  29 H :    0.044060
  30 H :    0.039615
  31 H :    0.036238
  32 H :    0.042770
  33 H :    0.060783
Sum of atomic charges:   -0.0000000

LOEWDIN ATOMIC CHARGES
----------------------
   0 S :    0.443954
   1 C :   -0.207863
   2 C :   -0.062571
   3 C :   -0.066487
   4 C :   -0.213214
   5 H :    0.034523
   6 C :   -0.026364
   7 H :    0.032750
   8 H :    0.024288
   9 C :   -0.038155
  10 H :    0.020184
  11 H :    0.015323
  12 C :   -0.057025
  13 H :    0.013764
  14 H :    0.031926
  15 H :    0.031329
  16 S :    0.428174
  17 C :   -0.218745
  18 C :   -0.079049
  19 C :   -0.064239
  20 C :   -0.192074
  21 H :    0.040481
  22 C :   -0.023271
  23 H :    0.029670
  24 H :    0.028885
  25 C :   -0.042338
  26 H :    0.024384
  27 H :    0.031974
  28 C :   -0.074741
  29 H :    0.031829
  30 H :    0.026192
  31 H :    0.023625
  32 H :    0.020675
  33 H :    0.032206

  Mayer bond orders larger than 0.100000
B(  0-S ,  1-C ) :   1.1700 B(  0-S ,  4-C ) :   1.1756 B(  1-C ,  2-C ) :   1.5434
B(  1-C , 32-H ) :   0.9769 B(  2-C ,  3-C ) :   1.3004 B(  2-C ,  6-C ) :   1.0218
B(  3-C ,  4-C ) :   1.5470 B(  3-C ,  5-H ) :   0.9806 B(  4-C , 20-C ) :   1.0234
B(  6-C ,  7-H ) :   0.9404 B(  6-C ,  8-H ) :   0.9236 B(  6-C ,  9-C ) :   1.0750
B(  9-C , 10-H ) :   0.9550 B(  9-C , 11-H ) :   0.9507 B(  9-C , 12-C ) :   1.0840
B( 12-C , 13-H ) :   0.9763 B( 12-C , 14-H ) :   0.9726 B( 12-C , 15-H ) :   0.9718
B( 16-S , 17-C ) :   1.1718 B( 16-S , 20-C ) :   1.1556 B( 17-C , 18-C ) :   1.5930
B( 17-C , 20-C ) :   0.1002 B( 17-C , 33-H ) :   0.9595 B( 18-C , 19-C ) :   1.2702
B( 18-C , 21-H ) :   0.9755 B( 19-C , 20-C ) :   1.5742 B( 19-C , 22-C ) :   1.0195
B( 22-C , 23-H ) :   0.9443 B( 22-C , 24-H ) :   0.9266 B( 22-C , 25-C ) :   1.0686
B( 25-C , 26-H ) :   0.9560 B( 25-C , 27-H ) :   0.9600 B( 25-C , 28-C ) :   1.0652
B( 28-C , 29-H ) :   0.9750 B( 28-C , 30-H ) :   0.9768 B( 28-C , 31-H ) :   0.9765

Dispersion correction           -0.014566993
FINAL SINGLE POINT ENERGY     -1339.865553538774

DIPOLE MOMENT
-------------
                                X             Y             Z
Electronic contribution:      3.28809       1.76119      22.92640
Nuclear contribution   :     -3.35187      -1.87661     -23.31563
                        -----------------------------------------
Total Dipole Moment    :     -0.06378      -0.11542      -0.38923
                        -----------------------------------------
Magnitude (a.u.)       :      0.41096
Magnitude (Debye)      :      1.04459

Rotational constants in cm-1:     0.019064     0.008609     0.007133
Rotational constants in MHz :   571.534026   258.089080   213.846467

                             ****ORCA TERMINATED NORMALLY****
TOTAL RUN TIME: 0 days 0 hours 0 minutes 30 seconds 436 msec
