                         Program Version 4.2.1 -  RELEASE  -
|  1> ! wB97X-D3 SP def2-SVP
|  2> %pal
|  3> nprocs 16
|  4> end
|  5>
|  6> * xyz 0 1
|  7> S 	 -34.5278 	 57.696 	 105.03
|  8> C 	 -32.8463 	 57.3587 	 104.601
|  9> C 	 -32.0081 	 57.4418 	 105.749
| 10> C 	 -32.7498 	 57.8398 	 106.876
| 11> C 	 -34.1304 	 58.0081 	 106.731
| 12> H 	 -32.4606 	 57.978 	 107.96
| 13> C 	 -30.4818 	 57.1487 	 105.873
| 14> H 	 -30.1052 	 56.7104 	 104.979
| 15> H 	 -30.4332 	 56.3731 	 106.642
| 16> C 	 -29.804 	 58.3829 	 106.418
| 17> H 	 -30.0848 	 59.2077 	 105.806
| 18> H 	 -30.096 	 58.5676 	 107.375
| 19> C 	 -28.2775 	 58.2039 	 106.392
| 20> H 	 -27.8027 	 58.1043 	 105.443
| 21> H 	 -27.6409 	 58.8799 	 106.936
| 22> H 	 -28.0857 	 57.2403 	 106.823
| 23> S 	 -36.1046 	 56.9526 	 108.36
| 24> C 	 -36.8442 	 57.921 	 109.579
| 25> C 	 -36.3118 	 59.1954 	 109.591
| 26> C 	 -35.3098 	 59.4393 	 108.654
| 27> C 	 -35.0994 	 58.2799 	 107.843
| 28> H 	 -36.5836 	 60.0077 	 110.337
| 29> C 	 -34.645 	 60.792 	 108.472
| 30> H 	 -35.3638 	 61.5658 	 108.345
| 31> H 	 -34.1224 	 60.8575 	 107.497
| 32> C 	 -33.7998 	 61.1897 	 109.724
| 33> H 	 -32.9381 	 60.5344 	 109.913
| 34> H 	 -34.454 	 61.1513 	 110.631
| 35> C 	 -33.3055 	 62.5997 	 109.636
| 36> H 	 -32.5446 	 62.68 	 108.876
| 37> H 	 -32.9841 	 62.862 	 110.577
| 38> H 	 -34.1532 	 63.3295 	 109.392
| 39> H 	 -32.5666 	 56.9679 	 103.683
| 40> H 	 -37.6109 	 57.6193 	 110.313
| 41> *
| 42>
| 43>                          ****END OF INPUT****

CARTESIAN COORDINATES (ANGSTROEM)
---------------------------------
  S    -34.527800   57.696000  105.030000
  C    -32.846300   57.358700  104.601000
  C    -32.008100   57.441800  105.749000
  C    -32.749800   57.839800  106.876000
  C    -34.130400   58.008100  106.731000
  H    -32.460600   57.978000  107.960000
  C    -30.481800   57.148700  105.873000
  H    -30.105200   56.710400  104.979000
  H    -30.433200   56.373100  106.642000
  C    -29.804000   58.382900  106.418000
  H    -30.084800   59.207700  105.806000
  H    -30.096000   58.567600  107.375000
  C    -28.277500   58.203900  106.392000
  H    -27.802700   58.104300  105.443000
  H    -27.640900   58.879900  106.936000
  H    -28.085700   57.240300  106.823000
  S    -36.104600   56.952600  108.360000
  C    -36.844200   57.921000  109.579000
  C    -36.311800   59.195400  109.591000
  C    -35.309800   59.439300  108.654000
  C    -35.099400   58.279900  107.843000
  H    -36.583600   60.007700  110.337000
  C    -34.645000   60.792000  108.472000
  H    -35.363800   61.565800  108.345000
  H    -34.122400   60.857500  107.497000
  C    -33.799800   61.189700  109.724000
  H    -32.938100   60.534400  109.913000
  H    -34.454000   61.151300  110.631000
  C    -33.305500   62.599700  109.636000
  H    -32.544600   62.680000  108.876000
  H    -32.984100   62.862000  110.577000
  H    -34.153200   63.329500  109.392000
  H    -32.566600   56.967900  103.683000
  H    -37.610900   57.619300  110.313000

 Total Charge           Charge          ....    0
 Multiplicity           Mult            ....    1
 Number of Electrons    NEL             ....  134
 Basis Dimension        Dim             ....  322

ORBITAL ENERGIES
----------------

  NO   OCC          E(Eh)            E(eV)
   0   2.0000     -88.970230     -2421.0030
   1   2.0000     -88.965860     -2420.8841
   2   2.0000     -10.332182      -281.1530
   3   2.0000     -10.331452      -281.1331
   4   2.0000     -10.318028      -280.7678
   5   2.0000     -10.316545      -280.7275
   6   2.0000     -10.307403      -280.4787
   7   2.0000     -10.304632      -280.4033
   8   2.0000     -10.295638      -280.1586
   9   2.0000     -10.294046      -280.1152
  10   2.0000     -10.293923      -280.1119
  11   2.0000     -10.292066      -280.0613
  12   2.0000     -10.289945      -280.0036
  13   2.0000     -10.277565      -279.6668
  14   2.0000     -10.273409      -279.5537
  15   2.0000     -10.270318      -279.4696
  16   2.0000      -8.085066      -220.0058
  17   2.0000      -8.079592      -219.8569
  18   2.0000      -6.043396      -164.4492
  19   2.0000      -6.039412      -164.3408
  20   2.0000      -6.038074      -164.3044
  21   2.0000      -6.036154      -164.2521
  22   2.0000      -6.034110      -164.1965
  23   2.0000      -6.030563      -164.1000
  24   2.0000      -1.002341       -27.2751
  25   2.0000      -0.980871       -26.6909
  26   2.0000      -0.916598       -24.9419
  27   2.0000      -0.911806       -24.8115
  28   2.0000      -0.862789       -23.4777
  29   2.0000      -0.857112       -23.3232
  30   2.0000      -0.843924       -22.9643
  31   2.0000      -0.809899       -22.0385
  32   2.0000      -0.782893       -21.3036
  33   2.0000      -0.771519       -20.9941
  34   2.0000      -0.713659       -19.4197
  35   2.0000      -0.697377       -18.9766
  36   2.0000      -0.694206       -18.8903
  37   2.0000      -0.653179       -17.7739
  38   2.0000      -0.645064       -17.5531
  39   2.0000      -0.614593       -16.7239
  40   2.0000      -0.599517       -16.3137
  41   2.0000      -0.574135       -15.6230
  42   2.0000      -0.564730       -15.3671
  43   2.0000      -0.560798       -15.2601
  44   2.0000      -0.534561       -14.5461
  45   2.0000      -0.527021       -14.3410
  46   2.0000      -0.511188       -13.9101
  47   2.0000      -0.508143       -13.8273
  48   2.0000      -0.505498       -13.7553
  49   2.0000      -0.495718       -13.4892
  50   2.0000      -0.490616       -13.3503
  51   2.0000      -0.481102       -13.0915
  52   2.0000      -0.471369       -12.8266
  53   2.0000      -0.459935       -12.5155
  54   2.0000      -0.458532       -12.4773
  55   2.0000      -0.449601       -12.2343
  56   2.0000      -0.446962       -12.1625
  57   2.0000      -0.438728       -11.9384
  58   2.0000      -0.436536       -11.8787
  59   2.0000      -0.426515       -11.6061
  60   2.0000      -0.423322       -11.5192
  61   2.0000      -0.420145       -11.4327
  62   2.0000      -0.415178       -11.2976
  63   2.0000      -0.339001        -9.2247
  64   2.0000      -0.330221        -8.9858
  65   2.0000      -0.324641        -8.8339
  66   2.0000      -0.299842        -8.1591
  67   0.0000       0.035721         0.9720
  68   0.0000       0.058531         1.5927
  69   0.0000       0.122278         3.3273
  70   0.0000       0.124549         3.3892
  71   0.0000       0.128290         3.4909

MULLIKEN ATOMIC CHARGES
-----------------------
   0 S :    0.104503
   1 C :   -0.103374
   2 C :   -0.088935
   3 C :    0.009900
   4 C :   -0.182800
   5 H :    0.034287
   6 C :    0.093948
   7 H :    0.013153
   8 H :    0.032584
   9 C :   -0.026953
  10 H :    0.030542
  11 H :    0.012590
  12 C :   -0.021072
  13 H :    0.018380
  14 H :    0.026298
  15 H :    0.003520
  16 S :    0.135586
  17 C :   -0.097405
  18 C :   -0.061354
  19 C :    0.002223
  20 C :   -0.208350
  21 H :    0.036475
  22 C :    0.086561
  23 H :    0.011897
  24 H :    0.033179
  25 C :   -0.123233
  26 H :    0.035086
  27 H :    0.029302
  28 C :   -0.004865
  29 H :    0.032755
  30 H :    0.015015
  31 H :    0.027885
  32 H :    0.025917
  33 H :    0.066755
Sum of atomic charges:    0.0000000

LOEWDIN ATOMIC CHARGES
----------------------
   0 S :    0.393142
   1 C :   -0.185829
   2 C :   -0.058458
   3 C :   -0.073459
   4 C :   -0.202575
   5 H :    0.041062
   6 C :   -0.016569
   7 H :    0.023484
   8 H :    0.034459
   9 C :   -0.024159
  10 H :    0.023740
  11 H :    0.013684
  12 C :   -0.065136
  13 H :    0.021377
  14 H :    0.022932
  15 H :    0.021590
  16 S :    0.437811
  17 C :   -0.204358
  18 C :   -0.083049
  19 C :   -0.052684
  20 C :   -0.211520
  21 H :    0.040107
  22 C :   -0.030615
  23 H :    0.026699
  24 H :    0.036295
  25 C :   -0.039378
  26 H :    0.025157
  27 H :    0.025432
  28 C :   -0.059027
  29 H :    0.023326
  30 H :    0.014537
  31 H :    0.030807
  32 H :    0.012541
  33 H :    0.038631

  Mayer bond orders larger than 0.100000
B(  0-S ,  1-C ) :   1.1554 B(  0-S ,  4-C ) :   1.1488 B(  1-C ,  2-C ) :   1.5712
B(  1-C ,  4-C ) :   0.1099 B(  1-C , 32-H ) :   0.9799 B(  2-C ,  3-C ) :   1.2509
B(  2-C ,  6-C ) :   1.0158 B(  3-C ,  4-C ) :   1.5848 B(  3-C ,  5-H ) :   0.9771
B(  4-C , 20-C ) :   1.0151 B(  6-C ,  7-H ) :   0.9508 B(  6-C ,  8-H ) :   0.9326
B(  6-C ,  9-C ) :   1.0604 B(  9-C , 10-H ) :   0.9622 B(  9-C , 11-H ) :   0.9485
B(  9-C , 12-C ) :   1.0826 B( 12-C , 13-H ) :   0.9758 B( 12-C , 14-H ) :   0.9759
B( 12-C , 15-H ) :   0.9668 B( 16-S , 17-C ) :   1.1726 B( 16-S , 20-C ) :   1.1776
B( 17-C , 18-C ) :   1.5690 B( 17-C , 20-C ) :   0.1074 B( 17-C , 33-H ) :   0.9638
B( 18-C , 19-C ) :   1.3055 B( 18-C , 21-H ) :   0.9710 B( 19-C , 20-C ) :   1.5379
B( 19-C , 22-C ) :   1.0443 B( 22-C , 23-H ) :   0.9345 B( 22-C , 24-H ) :   0.9348
B( 22-C , 25-C ) :   1.0483 B( 25-C , 26-H ) :   0.9534 B( 25-C , 27-H ) :   0.9586
B( 25-C , 28-C ) :   1.0946 B( 28-C , 29-H ) :   0.9736 B( 28-C , 30-H ) :   0.9708
B( 28-C , 31-H ) :   0.9698

Dispersion correction           -0.013678104
FINAL SINGLE POINT ENERGY     -1339.868751024922

DIPOLE MOMENT
-------------
                                X             Y             Z
Electronic contribution:    -24.72332     -16.35559      -7.87556
Nuclear contribution   :     25.19134      16.61068       8.27829
                        -----------------------------------------
Total Dipole Moment    :      0.46802       0.25509       0.40273
                        -----------------------------------------
Magnitude (a.u.)       :      0.66806
Magnitude (Debye)      :      1.69806

Rotational constants in cm-1:     0.015777     0.008930     0.006565
Rotational constants in MHz :   472.979786   267.710552   196.818572

                             ****ORCA TERMINATED NORMALLY****
TOTAL RUN TIME: 0 days 0 hours 0 minutes 29 seconds 678 msec
