                         Program Version 4.2.1 -  RELEASE  -
|  1> ! wB97X-D3 SP def2-SVP
|  2> %pal
|  3> nprocs 16
|  4> end
|  5>
|  6> * xyz 0 1
|  7> S 	 -45.1109 	 22.5159 	 88.417
|  8> C 	 -44.1159 	 22.8505 	 89.7433
|  9> C 	 -42.8737 	 23.4117 	 89.3385
| 10> C 	 -42.7763 	 23.4634 	 87.9159
| 11> C 	 -43.8979 	 23.0485 	 87.2784
| 12> H 	 -41.9835 	 23.902 	 87.3432
| 13> C 	 -41.708 	 23.8525 	 90.2257
| 14> H 	 -42.0959 	 24.539 	 90.9697
| 15> H 	 -40.946 	 24.4537 	 89.629
| 16> C 	 -40.9812 	 22.7941 	 91.0061
| 17> H 	 -40.413 	 23.2312 	 91.8124
| 18> H 	 -41.6455 	 22.0687 	 91.6032
| 19> C 	 -40.2586 	 21.9093 	 90.016
| 20> H 	 -39.4419 	 21.4014 	 90.6271
| 21> H 	 -40.8817 	 21.2228 	 89.5228
| 22> H 	 -39.7971 	 22.5324 	 89.2715
| 23> S 	 -44.1611 	 24.6181 	 85.0906
| 24> C 	 -44.3471 	 24.0757 	 83.4954
| 25> C 	 -44.2506 	 22.712 	 83.5479
| 26> C 	 -44.1934 	 22.1974 	 84.8626
| 27> C 	 -44.0424 	 23.0929 	 85.8471
| 28> H 	 -44.388 	 22.2303 	 82.6509
| 29> C 	 -44.1007 	 20.7162 	 85.0257
| 30> H 	 -44.5676 	 20.3921 	 84.1186
| 31> H 	 -44.7918 	 20.4506 	 85.8242
| 32> C 	 -42.7058 	 20.0095 	 85.01
| 33> H 	 -41.9925 	 20.2805 	 85.8148
| 34> H 	 -42.2126 	 20.1742 	 84.0449
| 35> C 	 -42.9105 	 18.4838 	 85.208
| 36> H 	 -43.5236 	 17.8408 	 84.4833
| 37> H 	 -43.52 	 18.3055 	 86.1424
| 38> H 	 -41.9148 	 18.094 	 85.2589
| 39> H 	 -44.3754 	 22.6038 	 90.8129
| 40> H 	 -44.4265 	 24.5898 	 82.623
| 41> *
| 42>
| 43>                          ****END OF INPUT****

CARTESIAN COORDINATES (ANGSTROEM)
---------------------------------
  S    -45.110900   22.515900   88.417000
  C    -44.115900   22.850500   89.743300
  C    -42.873700   23.411700   89.338500
  C    -42.776300   23.463400   87.915900
  C    -43.897900   23.048500   87.278400
  H    -41.983500   23.902000   87.343200
  C    -41.708000   23.852500   90.225700
  H    -42.095900   24.539000   90.969700
  H    -40.946000   24.453700   89.629000
  C    -40.981200   22.794100   91.006100
  H    -40.413000   23.231200   91.812400
  H    -41.645500   22.068700   91.603200
  C    -40.258600   21.909300   90.016000
  H    -39.441900   21.401400   90.627100
  H    -40.881700   21.222800   89.522800
  H    -39.797100   22.532400   89.271500
  S    -44.161100   24.618100   85.090600
  C    -44.347100   24.075700   83.495400
  C    -44.250600   22.712000   83.547900
  C    -44.193400   22.197400   84.862600
  C    -44.042400   23.092900   85.847100
  H    -44.388000   22.230300   82.650900
  C    -44.100700   20.716200   85.025700
  H    -44.567600   20.392100   84.118600
  H    -44.791800   20.450600   85.824200
  C    -42.705800   20.009500   85.010000
  H    -41.992500   20.280500   85.814800
  H    -42.212600   20.174200   84.044900
  C    -42.910500   18.483800   85.208000
  H    -43.523600   17.840800   84.483300
  H    -43.520000   18.305500   86.142400
  H    -41.914800   18.094000   85.258900
  H    -44.375400   22.603800   90.812900
  H    -44.426500   24.589800   82.623000

 Total Charge           Charge          ....    0
 Multiplicity           Mult            ....    1
 Number of Electrons    NEL             ....  134
 Basis Dimension        Dim             ....  322

ORBITAL ENERGIES
----------------

  NO   OCC          E(Eh)            E(eV)
   0   2.0000     -88.972072     -2421.0532
   1   2.0000     -88.956326     -2420.6247
   2   2.0000     -10.324464      -280.9429
   3   2.0000     -10.321124      -280.8521
   4   2.0000     -10.314401      -280.6691
   5   2.0000     -10.305952      -280.4392
   6   2.0000     -10.304586      -280.4020
   7   2.0000     -10.294231      -280.1203
   8   2.0000     -10.292012      -280.0599
   9   2.0000     -10.290557      -280.0203
  10   2.0000     -10.289020      -279.9785
  11   2.0000     -10.286342      -279.9056
  12   2.0000     -10.281888      -279.7844
  13   2.0000     -10.281620      -279.7771
  14   2.0000     -10.279283      -279.7135
  15   2.0000     -10.271565      -279.5035
  16   2.0000      -8.087358      -220.0682
  17   2.0000      -8.073138      -219.6813
  18   2.0000      -6.045796      -164.5145
  19   2.0000      -6.041631      -164.4011
  20   2.0000      -6.038315      -164.3109
  21   2.0000      -6.031494      -164.1253
  22   2.0000      -6.027080      -164.0052
  23   2.0000      -6.024153      -163.9255
  24   2.0000      -1.021610       -27.7994
  25   2.0000      -0.997079       -27.1319
  26   2.0000      -0.917148       -24.9569
  27   2.0000      -0.904576       -24.6148
  28   2.0000      -0.880914       -23.9709
  29   2.0000      -0.853261       -23.2184
  30   2.0000      -0.848019       -23.0758
  31   2.0000      -0.819093       -22.2886
  32   2.0000      -0.779030       -21.1985
  33   2.0000      -0.768029       -20.8991
  34   2.0000      -0.705239       -19.1905
  35   2.0000      -0.700277       -19.0555
  36   2.0000      -0.694586       -18.9006
  37   2.0000      -0.672007       -18.2862
  38   2.0000      -0.647895       -17.6301
  39   2.0000      -0.616097       -16.7649
  40   2.0000      -0.592431       -16.1209
  41   2.0000      -0.581268       -15.8171
  42   2.0000      -0.557886       -15.1809
  43   2.0000      -0.554911       -15.0999
  44   2.0000      -0.549413       -14.9503
  45   2.0000      -0.528884       -14.3917
  46   2.0000      -0.521156       -14.1814
  47   2.0000      -0.515709       -14.0332
  48   2.0000      -0.507599       -13.8125
  49   2.0000      -0.499685       -13.5971
  50   2.0000      -0.489834       -13.3291
  51   2.0000      -0.485613       -13.2142
  52   2.0000      -0.473158       -12.8753
  53   2.0000      -0.468731       -12.7548
  54   2.0000      -0.455884       -12.4052
  55   2.0000      -0.443483       -12.0678
  56   2.0000      -0.439882       -11.9698
  57   2.0000      -0.439809       -11.9678
  58   2.0000      -0.431782       -11.7494
  59   2.0000      -0.423496       -11.5239
  60   2.0000      -0.412734       -11.2311
  61   2.0000      -0.407096       -11.0777
  62   2.0000      -0.400682       -10.9031
  63   2.0000      -0.345484        -9.4011
  64   2.0000      -0.332758        -9.0548
  65   2.0000      -0.323735        -8.8093
  66   2.0000      -0.303803        -8.2669
  67   0.0000       0.041075         1.1177
  68   0.0000       0.066653         1.8137
  69   0.0000       0.117756         3.2043
  70   0.0000       0.122401         3.3307
  71   0.0000       0.133799         3.6409

MULLIKEN ATOMIC CHARGES
-----------------------
   0 S :    0.146734
   1 C :   -0.144544
   2 C :   -0.073123
   3 C :    0.019289
   4 C :   -0.142462
   5 H :    0.011639
   6 C :    0.038226
   7 H :    0.026082
   8 H :    0.039460
   9 C :   -0.084933
  10 H :    0.027623
  11 H :    0.027416
  12 C :   -0.030857
  13 H :    0.037383
  14 H :    0.041110
  15 H :    0.012809
  16 S :    0.102320
  17 C :   -0.036601
  18 C :   -0.034779
  19 C :   -0.062473
  20 C :   -0.144481
  21 H :   -0.014254
  22 C :    0.084872
  23 H :    0.001030
  24 H :    0.017129
  25 C :   -0.040655
  26 H :    0.042256
  27 H :    0.030230
  28 C :   -0.091081
  29 H :    0.036936
  30 H :    0.035540
  31 H :    0.035340
  32 H :    0.072571
  33 H :    0.014249
Sum of atomic charges:   -0.0000000

LOEWDIN ATOMIC CHARGES
----------------------
   0 S :    0.443850
   1 C :   -0.224085
   2 C :   -0.062641
   3 C :   -0.056019
   4 C :   -0.204511
   5 H :    0.031537
   6 C :   -0.039142
   7 H :    0.029993
   8 H :    0.037072
   9 C :   -0.050056
  10 H :    0.021580
  11 H :    0.029632
  12 C :   -0.060025
  13 H :    0.034436
  14 H :    0.021345
  15 H :    0.016539
  16 S :    0.447293
  17 C :   -0.180405
  18 C :   -0.070662
  19 C :   -0.070159
  20 C :   -0.213281
  21 H :    0.016823
  22 C :   -0.034889
  23 H :    0.028289
  24 H :    0.026762
  25 C :   -0.032226
  26 H :    0.029844
  27 H :    0.025787
  28 C :   -0.078158
  29 H :    0.028368
  30 H :    0.029530
  31 H :    0.021682
  32 H :    0.041604
  33 H :    0.014292

  Mayer bond orders larger than 0.100000
B(  0-S ,  1-C ) :   1.1743 B(  0-S ,  4-C ) :   1.1490 B(  1-C ,  2-C ) :   1.5659
B(  1-C , 32-H ) :   0.9613 B(  2-C ,  3-C ) :   1.2588 B(  2-C ,  6-C ) :   1.0155
B(  3-C ,  4-C ) :   1.5665 B(  3-C ,  5-H ) :   0.9976 B(  4-C , 20-C ) :   1.0253
B(  6-C ,  7-H ) :   0.9312 B(  6-C ,  8-H ) :   0.9498 B(  6-C ,  9-C ) :   1.0871
B(  9-C , 10-H ) :   0.9574 B(  9-C , 11-H ) :   0.9513 B(  9-C , 12-C ) :   1.0589
B( 12-C , 13-H ) :   0.9736 B( 12-C , 14-H ) :   0.9762 B( 12-C , 15-H ) :   0.9780
B( 16-S , 17-C ) :   1.1869 B( 16-S , 20-C ) :   1.1476 B( 17-C , 18-C ) :   1.5713
B( 17-C , 33-H ) :   0.9808 B( 18-C , 19-C ) :   1.2605 B( 18-C , 21-H ) :   1.0055
B( 19-C , 20-C ) :   1.5856 B( 19-C , 22-C ) :   1.0571 B( 22-C , 23-H ) :   0.9250
B( 22-C , 24-H ) :   0.9281 B( 22-C , 25-C ) :   1.0645 B( 25-C , 26-H ) :   0.9582
B( 25-C , 27-H ) :   0.9528 B( 25-C , 28-C ) :   1.0675 B( 28-C , 29-H ) :   0.9769
B( 28-C , 30-H ) :   0.9754 B( 28-C , 31-H ) :   0.9758

Dispersion correction           -0.014391552
FINAL SINGLE POINT ENERGY     -1339.856466294786

DIPOLE MOMENT
-------------
                                X             Y             Z
Electronic contribution:    -17.40511      17.04218      -6.29921
Nuclear contribution   :     17.72924     -17.26162       6.35873
                        -----------------------------------------
Total Dipole Moment    :      0.32413      -0.21944       0.05951
                        -----------------------------------------
Magnitude (a.u.)       :      0.39592
Magnitude (Debye)      :      1.00636

Rotational constants in cm-1:     0.017969     0.008975     0.007399
Rotational constants in MHz :   538.694639   269.075423   221.805841

                             ****ORCA TERMINATED NORMALLY****
TOTAL RUN TIME: 0 days 0 hours 0 minutes 30 seconds 181 msec
