                         Program Version 4.2.1 -  RELEASE  -
|  1> ! wB97X-D3 SP def2-SVP
|  2> %pal
|  3> nprocs 16
|  4> end
|  5>
|  6> * xyz 0 1
|  7> S 	 -2.25959 	 -13.3389 	 85.3125
|  8> C 	 -3.36026 	 -14.6203 	 85.3597
|  9> C 	 -2.81022 	 -15.8315 	 85.1543
| 10> C 	 -1.36815 	 -15.8103 	 85.3042
| 11> C 	 -0.951122 	 -14.4724 	 85.3047
| 12> H 	 -0.682997 	 -16.6426 	 85.1669
| 13> C 	 -3.56981 	 -17.0995 	 84.9391
| 14> H 	 -3.48752 	 -17.51 	 83.933
| 15> H 	 -4.65088 	 -16.8197 	 84.9446
| 16> C 	 -3.20864 	 -18.1739 	 85.9912
| 17> H 	 -2.24681 	 -18.6246 	 85.8035
| 18> H 	 -3.19146 	 -17.6981 	 87.0096
| 19> C 	 -4.01711 	 -19.4317 	 86.2811
| 20> H 	 -3.96597 	 -20.0875 	 85.3888
| 21> H 	 -3.62782 	 -19.9341 	 87.1366
| 22> H 	 -5.08792 	 -19.2745 	 86.4961
| 23> S 	 0.687874 	 -12.5861 	 84.2571
| 24> C 	 2.44005 	 -12.8825 	 84.2647
| 25> C 	 2.72526 	 -14.0683 	 84.8861
| 26> C 	 1.59776 	 -14.6984 	 85.5553
| 27> C 	 0.413716 	 -14.0321 	 85.2121
| 28> H 	 3.80955 	 -14.4195 	 84.8627
| 29> C 	 1.81785 	 -16.0818 	 86.1223
| 30> H 	 0.945422 	 -16.3283 	 86.7344
| 31> H 	 2.65662 	 -15.9624 	 86.7671
| 32> C 	 2.21471 	 -17.2294 	 85.1561
| 33> H 	 3.2081 	 -17.0741 	 84.8373
| 34> H 	 1.44974 	 -17.2202 	 84.3332
| 35> C 	 2.00382 	 -18.6418 	 85.8496
| 36> H 	 1.07599 	 -18.7974 	 86.284
| 37> H 	 2.62254 	 -18.934 	 86.6718
| 38> H 	 2.17347 	 -19.4035 	 85.0444
| 39> H 	 -4.39376 	 -14.4714 	 85.5661
| 40> H 	 3.10132 	 -12.1188 	 83.8241
| 41> *
| 42>
| 43>                          ****END OF INPUT****

CARTESIAN COORDINATES (ANGSTROEM)
---------------------------------
  S     -2.259590  -13.338900   85.312500
  C     -3.360260  -14.620300   85.359700
  C     -2.810220  -15.831500   85.154300
  C     -1.368150  -15.810300   85.304200
  C     -0.951122  -14.472400   85.304700
  H     -0.682997  -16.642600   85.166900
  C     -3.569810  -17.099500   84.939100
  H     -3.487520  -17.510000   83.933000
  H     -4.650880  -16.819700   84.944600
  C     -3.208640  -18.173900   85.991200
  H     -2.246810  -18.624600   85.803500
  H     -3.191460  -17.698100   87.009600
  C     -4.017110  -19.431700   86.281100
  H     -3.965970  -20.087500   85.388800
  H     -3.627820  -19.934100   87.136600
  H     -5.087920  -19.274500   86.496100
  S      0.687874  -12.586100   84.257100
  C      2.440050  -12.882500   84.264700
  C      2.725260  -14.068300   84.886100
  C      1.597760  -14.698400   85.555300
  C      0.413716  -14.032100   85.212100
  H      3.809550  -14.419500   84.862700
  C      1.817850  -16.081800   86.122300
  H      0.945422  -16.328300   86.734400
  H      2.656620  -15.962400   86.767100
  C      2.214710  -17.229400   85.156100
  H      3.208100  -17.074100   84.837300
  H      1.449740  -17.220200   84.333200
  C      2.003820  -18.641800   85.849600
  H      1.075990  -18.797400   86.284000
  H      2.622540  -18.934000   86.671800
  H      2.173470  -19.403500   85.044400
  H     -4.393760  -14.471400   85.566100
  H      3.101320  -12.118800   83.824100

 Total Charge           Charge          ....    0
 Multiplicity           Mult            ....    1
 Number of Electrons    NEL             ....  134
 Basis Dimension        Dim             ....  322

ORBITAL ENERGIES
----------------

  NO   OCC          E(Eh)            E(eV)
   0   2.0000     -88.966585     -2420.9038
   1   2.0000     -88.961460     -2420.7644
   2   2.0000     -10.327864      -281.0355
   3   2.0000     -10.326779      -281.0059
   4   2.0000     -10.318611      -280.7837
   5   2.0000     -10.303791      -280.3804
   6   2.0000     -10.303503      -280.3726
   7   2.0000     -10.300199      -280.2827
   8   2.0000     -10.298386      -280.2333
   9   2.0000     -10.297899      -280.2201
  10   2.0000     -10.296985      -280.1952
  11   2.0000     -10.296169      -280.1730
  12   2.0000     -10.289301      -279.9861
  13   2.0000     -10.288514      -279.9647
  14   2.0000     -10.280546      -279.7479
  15   2.0000     -10.278738      -279.6987
  16   2.0000      -8.083003      -219.9497
  17   2.0000      -8.076241      -219.7657
  18   2.0000      -6.041376      -164.3942
  19   2.0000      -6.037412      -164.2863
  20   2.0000      -6.034815      -164.2157
  21   2.0000      -6.033696      -164.1852
  22   2.0000      -6.030862      -164.1081
  23   2.0000      -6.026820      -163.9981
  24   2.0000      -1.013697       -27.5841
  25   2.0000      -0.983784       -26.7701
  26   2.0000      -0.912596       -24.8330
  27   2.0000      -0.906502       -24.6672
  28   2.0000      -0.873111       -23.7586
  29   2.0000      -0.856171       -23.2976
  30   2.0000      -0.845595       -23.0098
  31   2.0000      -0.814947       -22.1758
  32   2.0000      -0.784321       -21.3425
  33   2.0000      -0.774492       -21.0750
  34   2.0000      -0.714358       -19.4387
  35   2.0000      -0.700318       -19.0566
  36   2.0000      -0.688796       -18.7431
  37   2.0000      -0.663919       -18.0662
  38   2.0000      -0.637925       -17.3588
  39   2.0000      -0.620635       -16.8883
  40   2.0000      -0.593383       -16.1468
  41   2.0000      -0.573247       -15.5988
  42   2.0000      -0.569962       -15.5095
  43   2.0000      -0.552703       -15.0398
  44   2.0000      -0.532011       -14.4768
  45   2.0000      -0.526916       -14.3381
  46   2.0000      -0.517765       -14.0891
  47   2.0000      -0.513771       -13.9804
  48   2.0000      -0.511362       -13.9149
  49   2.0000      -0.492969       -13.4144
  50   2.0000      -0.490004       -13.3337
  51   2.0000      -0.483088       -13.1455
  52   2.0000      -0.475828       -12.9479
  53   2.0000      -0.468333       -12.7440
  54   2.0000      -0.460280       -12.5249
  55   2.0000      -0.449599       -12.2342
  56   2.0000      -0.448180       -12.1956
  57   2.0000      -0.436555       -11.8793
  58   2.0000      -0.432495       -11.7688
  59   2.0000      -0.427564       -11.6346
  60   2.0000      -0.419180       -11.4065
  61   2.0000      -0.414893       -11.2898
  62   2.0000      -0.413245       -11.2450
  63   2.0000      -0.359862        -9.7923
  64   2.0000      -0.333116        -9.0645
  65   2.0000      -0.325529        -8.8581
  66   2.0000      -0.280835        -7.6419
  67   0.0000       0.023934         0.6513
  68   0.0000       0.081301         2.2123
  69   0.0000       0.099842         2.7168
  70   0.0000       0.121828         3.3151
  71   0.0000       0.123765         3.3678

MULLIKEN ATOMIC CHARGES
-----------------------
   0 S :    0.123902
   1 C :   -0.113020
   2 C :   -0.078281
   3 C :    0.002703
   4 C :   -0.126479
   5 H :    0.006777
   6 C :    0.105946
   7 H :    0.035819
   8 H :    0.011055
   9 C :   -0.130583
  10 H :    0.031121
  11 H :    0.039960
  12 C :   -0.040995
  13 H :    0.027020
  14 H :    0.032040
  15 H :    0.027768
  16 S :    0.075918
  17 C :   -0.111747
  18 C :   -0.062560
  19 C :   -0.045396
  20 C :   -0.109845
  21 H :    0.047099
  22 C :    0.040624
  23 H :    0.028788
  24 H :    0.018677
  25 C :   -0.048119
  26 H :    0.028962
  27 H :    0.043618
  28 C :   -0.046297
  29 H :    0.012095
  30 H :    0.023574
  31 H :    0.041256
  32 H :    0.036459
  33 H :    0.072140
Sum of atomic charges:   -0.0000000

LOEWDIN ATOMIC CHARGES
----------------------
   0 S :    0.431951
   1 C :   -0.209621
   2 C :   -0.059724
   3 C :   -0.058439
   4 C :   -0.190132
   5 H :    0.031240
   6 C :   -0.034587
   7 H :    0.033538
   8 H :    0.032408
   9 C :   -0.051135
  10 H :    0.022952
  11 H :    0.031779
  12 C :   -0.065464
  13 H :    0.023146
  14 H :    0.025163
  15 H :    0.022235
  16 S :    0.377051
  17 C :   -0.182665
  18 C :   -0.075649
  19 C :   -0.063865
  20 C :   -0.188143
  21 H :    0.043028
  22 C :   -0.038958
  23 H :    0.028783
  24 H :    0.028638
  25 C :   -0.023840
  26 H :    0.019410
  27 H :    0.029464
  28 C :   -0.065453
  29 H :    0.014023
  30 H :    0.022328
  31 H :    0.033979
  32 H :    0.022902
  33 H :    0.033655

  Mayer bond orders larger than 0.100000
B(  0-S ,  1-C ) :   1.1347 B(  0-S ,  4-C ) :   1.1599 B(  1-C ,  2-C ) :   1.6368
B(  1-C , 32-H ) :   0.9653 B(  2-C ,  3-C ) :   1.2182 B(  2-C ,  6-C ) :   1.0438
B(  3-C ,  4-C ) :   1.5546 B(  3-C ,  5-H ) :   0.9878 B(  4-C , 20-C ) :   1.0757
B(  6-C ,  7-H ) :   0.9292 B(  6-C ,  8-H ) :   0.9375 B(  6-C ,  9-C ) :   1.0446
B(  9-C , 10-H ) :   0.9510 B(  9-C , 11-H ) :   0.9646 B(  9-C , 12-C ) :   1.0915
B( 12-C , 13-H ) :   0.9739 B( 12-C , 14-H ) :   0.9738 B( 12-C , 15-H ) :   0.9736
B( 16-S , 17-C ) :   1.1247 B( 16-S , 20-C ) :   1.1361 B( 17-C , 18-C ) :   1.6400
B( 17-C , 33-H ) :   0.9682 B( 18-C , 19-C ) :   1.1984 B( 18-C , 21-H ) :   0.9771
B( 19-C , 20-C ) :   1.5893 B( 19-C , 22-C ) :   1.0669 B( 22-C , 23-H ) :   0.9370
B( 22-C , 24-H ) :   0.9198 B( 22-C , 25-C ) :   1.0609 B( 25-C , 26-H ) :   0.9512
B( 25-C , 27-H ) :   0.9591 B( 25-C , 28-C ) :   1.0682 B( 28-C , 29-H ) :   0.9762
B( 28-C , 30-H ) :   0.9753 B( 28-C , 31-H ) :   0.9768

Dispersion correction           -0.014309029
FINAL SINGLE POINT ENERGY     -1339.865056964491

DIPOLE MOMENT
-------------
                                X             Y             Z
Electronic contribution:      0.74959      33.57843      -5.99755
Nuclear contribution   :     -0.62554     -34.31164       6.00102
                        -----------------------------------------
Total Dipole Moment    :      0.12405      -0.73321       0.00347
                        -----------------------------------------
Magnitude (a.u.)       :      0.74364
Magnitude (Debye)      :      1.89018

Rotational constants in cm-1:     0.017249     0.009873     0.006512
Rotational constants in MHz :   517.116828   295.979224   195.236578

                             ****ORCA TERMINATED NORMALLY****
TOTAL RUN TIME: 0 days 0 hours 0 minutes 35 seconds 27 msec
