                         Program Version 4.2.1 -  RELEASE  -
|  1> ! wB97X-D3 SP def2-SVP
|  2> %pal
|  3> nprocs 16
|  4> end
|  5>
|  6> * xyz 0 1
|  7> S 	 69.4 	 21.1141 	 73.3242
|  8> C 	 68.4929 	 19.6984 	 74.0193
|  9> C 	 67.3007 	 20.1784 	 74.5995
| 10> C 	 67.1397 	 21.5784 	 74.4598
| 11> C 	 68.1071 	 22.2261 	 73.7544
| 12> H 	 66.3573 	 22.1159 	 74.8998
| 13> C 	 66.3012 	 19.3619 	 75.5035
| 14> H 	 65.9552 	 18.6005 	 74.7628
| 15> H 	 65.4565 	 19.9815 	 75.7122
| 16> C 	 66.8905 	 18.8002 	 76.778
| 17> H 	 67.8202 	 18.3062 	 76.3937
| 18> H 	 67.3298 	 19.562 	 77.46
| 19> C 	 66.0417 	 17.6865 	 77.3637
| 20> H 	 66.6841 	 17.0421 	 78.0376
| 21> H 	 65.2089 	 18.1153 	 77.9191
| 22> H 	 65.4709 	 17.0362 	 76.7061
| 23> S 	 67.6653 	 24.7582 	 74.6106
| 24> C 	 67.5013 	 25.9994 	 73.4713
| 25> C 	 67.8552 	 25.6189 	 72.2311
| 26> C 	 68.2382 	 24.2541 	 72.1465
| 27> C 	 68.1009 	 23.5966 	 73.3906
| 28> H 	 67.9576 	 26.3219 	 71.4482
| 29> C 	 68.7191 	 23.584 	 70.8663
| 30> H 	 69.0112 	 22.5255 	 71.0645
| 31> H 	 69.523 	 24.1799 	 70.4408
| 32> C 	 67.7067 	 23.5692 	 69.7016
| 33> H 	 66.8256 	 23.0965 	 70.1321
| 34> H 	 68.1139 	 22.9682 	 68.9633
| 35> C 	 67.3503 	 24.9464 	 69.0971
| 36> H 	 68.125 	 25.4288 	 68.4538
| 37> H 	 66.9454 	 25.5125 	 69.9367
| 38> H 	 66.4858 	 24.723 	 68.4978
| 39> H 	 68.7872 	 18.6748 	 74.0593
| 40> H 	 67.2514 	 26.9722 	 73.7327
| 41> *
| 42>
| 43>                          ****END OF INPUT****

CARTESIAN COORDINATES (ANGSTROEM)
---------------------------------
  S     69.400000   21.114100   73.324200
  C     68.492900   19.698400   74.019300
  C     67.300700   20.178400   74.599500
  C     67.139700   21.578400   74.459800
  C     68.107100   22.226100   73.754400
  H     66.357300   22.115900   74.899800
  C     66.301200   19.361900   75.503500
  H     65.955200   18.600500   74.762800
  H     65.456500   19.981500   75.712200
  C     66.890500   18.800200   76.778000
  H     67.820200   18.306200   76.393700
  H     67.329800   19.562000   77.460000
  C     66.041700   17.686500   77.363700
  H     66.684100   17.042100   78.037600
  H     65.208900   18.115300   77.919100
  H     65.470900   17.036200   76.706100
  S     67.665300   24.758200   74.610600
  C     67.501300   25.999400   73.471300
  C     67.855200   25.618900   72.231100
  C     68.238200   24.254100   72.146500
  C     68.100900   23.596600   73.390600
  H     67.957600   26.321900   71.448200
  C     68.719100   23.584000   70.866300
  H     69.011200   22.525500   71.064500
  H     69.523000   24.179900   70.440800
  C     67.706700   23.569200   69.701600
  H     66.825600   23.096500   70.132100
  H     68.113900   22.968200   68.963300
  C     67.350300   24.946400   69.097100
  H     68.125000   25.428800   68.453800
  H     66.945400   25.512500   69.936700
  H     66.485800   24.723000   68.497800
  H     68.787200   18.674800   74.059300
  H     67.251400   26.972200   73.732700

 Total Charge           Charge          ....    0
 Multiplicity           Mult            ....    1
 Number of Electrons    NEL             ....  134
 Basis Dimension        Dim             ....  322

ORBITAL ENERGIES
----------------

  NO   OCC          E(Eh)            E(eV)
   0   2.0000     -88.968805     -2420.9643
   1   2.0000     -88.964686     -2420.8522
   2   2.0000     -10.326335      -280.9939
   3   2.0000     -10.323200      -280.9086
   4   2.0000     -10.319787      -280.8157
   5   2.0000     -10.306475      -280.4534
   6   2.0000     -10.304499      -280.3997
   7   2.0000     -10.303877      -280.3827
   8   2.0000     -10.294985      -280.1408
   9   2.0000     -10.291538      -280.0470
  10   2.0000     -10.287133      -279.9271
  11   2.0000     -10.285597      -279.8853
  12   2.0000     -10.284164      -279.8463
  13   2.0000     -10.282965      -279.8137
  14   2.0000     -10.276422      -279.6356
  15   2.0000     -10.275628      -279.6141
  16   2.0000      -8.081703      -219.9143
  17   2.0000      -8.080769      -219.8889
  18   2.0000      -6.040412      -164.3680
  19   2.0000      -6.039121      -164.3328
  20   2.0000      -6.036466      -164.2606
  21   2.0000      -6.035004      -164.2208
  22   2.0000      -6.032342      -164.1484
  23   2.0000      -6.031709      -164.1312
  24   2.0000      -1.012472       -27.5508
  25   2.0000      -0.982844       -26.7445
  26   2.0000      -0.911743       -24.8098
  27   2.0000      -0.908905       -24.7326
  28   2.0000      -0.874620       -23.7996
  29   2.0000      -0.850843       -23.1526
  30   2.0000      -0.842890       -22.9362
  31   2.0000      -0.815213       -22.1831
  32   2.0000      -0.784795       -21.3553
  33   2.0000      -0.773389       -21.0450
  34   2.0000      -0.711780       -19.3685
  35   2.0000      -0.703062       -19.1313
  36   2.0000      -0.689112       -18.7517
  37   2.0000      -0.668051       -18.1786
  38   2.0000      -0.637045       -17.3349
  39   2.0000      -0.618219       -16.8226
  40   2.0000      -0.600097       -16.3295
  41   2.0000      -0.571242       -15.5443
  42   2.0000      -0.559838       -15.2340
  43   2.0000      -0.555111       -15.1053
  44   2.0000      -0.542692       -14.7674
  45   2.0000      -0.527062       -14.3421
  46   2.0000      -0.517612       -14.0849
  47   2.0000      -0.515220       -14.0198
  48   2.0000      -0.510933       -13.9032
  49   2.0000      -0.498518       -13.5654
  50   2.0000      -0.491512       -13.3747
  51   2.0000      -0.482460       -13.1284
  52   2.0000      -0.480644       -13.0790
  53   2.0000      -0.470648       -12.8070
  54   2.0000      -0.461961       -12.5706
  55   2.0000      -0.449682       -12.2365
  56   2.0000      -0.441660       -12.0182
  57   2.0000      -0.437819       -11.9137
  58   2.0000      -0.422951       -11.5091
  59   2.0000      -0.420520       -11.4429
  60   2.0000      -0.415334       -11.3018
  61   2.0000      -0.412201       -11.2166
  62   2.0000      -0.405239       -11.0271
  63   2.0000      -0.346848        -9.4382
  64   2.0000      -0.333442        -9.0734
  65   2.0000      -0.330189        -8.9849
  66   2.0000      -0.287910        -7.8344
  67   0.0000       0.025986         0.7071
  68   0.0000       0.074513         2.0276
  69   0.0000       0.106002         2.8844
  70   0.0000       0.117162         3.1881
  71   0.0000       0.129016         3.5107

MULLIKEN ATOMIC CHARGES
-----------------------
   0 S :    0.105024
   1 C :   -0.131926
   2 C :   -0.092839
   3 C :    0.026185
   4 C :   -0.127339
   5 H :   -0.011359
   6 C :    0.057647
   7 H :    0.042060
   8 H :    0.013113
   9 C :   -0.066112
  10 H :    0.017070
  11 H :    0.047905
  12 C :   -0.046021
  13 H :    0.046505
  14 H :    0.025784
  15 H :    0.027208
  16 S :    0.116213
  17 C :   -0.051893
  18 C :   -0.032160
  19 C :   -0.031459
  20 C :   -0.168917
  21 H :    0.014353
  22 C :    0.069583
  23 H :    0.030686
  24 H :    0.022711
  25 C :   -0.069647
  26 H :    0.028949
  27 H :    0.016609
  28 C :   -0.059467
  29 H :    0.050468
  30 H :    0.032063
  31 H :    0.027362
  32 H :    0.043728
  33 H :    0.027910
Sum of atomic charges:   -0.0000000

LOEWDIN ATOMIC CHARGES
----------------------
   0 S :    0.391004
   1 C :   -0.184749
   2 C :   -0.054218
   3 C :   -0.067338
   4 C :   -0.187462
   5 H :    0.018783
   6 C :   -0.028672
   7 H :    0.039251
   8 H :    0.019964
   9 C :   -0.051332
  10 H :    0.025714
  11 H :    0.035964
  12 C :   -0.071577
  13 H :    0.034865
  14 H :    0.024242
  15 H :    0.026576
  16 S :    0.440134
  17 C :   -0.185180
  18 C :   -0.074620
  19 C :   -0.047564
  20 C :   -0.206860
  21 H :    0.026861
  22 C :   -0.037434
  23 H :    0.023671
  24 H :    0.030074
  25 C :   -0.031851
  26 H :    0.025520
  27 H :    0.013380
  28 C :   -0.073419
  29 H :    0.031223
  30 H :    0.027119
  31 H :    0.027785
  32 H :    0.023670
  33 H :    0.016474

  Mayer bond orders larger than 0.100000
B(  0-S ,  1-C ) :   1.1212 B(  0-S ,  4-C ) :   1.1344 B(  1-C ,  2-C ) :   1.6020
B(  1-C ,  4-C ) :   0.1009 B(  1-C , 32-H ) :   0.9744 B(  2-C ,  3-C ) :   1.2586
B(  2-C ,  6-C ) :   1.0039 B(  3-C ,  4-C ) :   1.5678 B(  3-C ,  5-H ) :   0.9985
B(  4-C , 20-C ) :   1.0563 B(  6-C ,  7-H ) :   0.9397 B(  6-C ,  8-H ) :   0.9459
B(  6-C ,  9-C ) :   1.0611 B(  9-C , 10-H ) :   0.9573 B(  9-C , 11-H ) :   0.9537
B(  9-C , 12-C ) :   1.0661 B( 12-C , 13-H ) :   0.9756 B( 12-C , 14-H ) :   0.9737
B( 12-C , 15-H ) :   0.9746 B( 16-S , 17-C ) :   1.1751 B( 16-S , 20-C ) :   1.1536
B( 17-C , 18-C ) :   1.5813 B( 17-C , 33-H ) :   0.9728 B( 18-C , 19-C ) :   1.2658
B( 18-C , 21-H ) :   0.9881 B( 19-C , 20-C ) :   1.5414 B( 19-C , 22-C ) :   1.0498
B( 22-C , 23-H ) :   0.9280 B( 22-C , 24-H ) :   0.9293 B( 22-C , 25-C ) :   1.0717
B( 25-C , 26-H ) :   0.9554 B( 25-C , 27-H ) :   0.9554 B( 25-C , 28-C ) :   1.0832
B( 28-C , 29-H ) :   0.9731 B( 28-C , 30-H ) :   0.9655 B( 28-C , 31-H ) :   0.9680

Dispersion correction           -0.013832809
FINAL SINGLE POINT ENERGY     -1339.865627864395

DIPOLE MOMENT
-------------
                                X             Y             Z
Electronic contribution:      9.73221      10.71895       4.46956
Nuclear contribution   :    -10.06506     -10.79962      -4.54775
                        -----------------------------------------
Total Dipole Moment    :     -0.33284      -0.08067      -0.07819
                        -----------------------------------------
Magnitude (a.u.)       :      0.35129
Magnitude (Debye)      :      0.89291

Rotational constants in cm-1:     0.025095     0.006879     0.006067
Rotational constants in MHz :   752.330407   206.214128   181.877469

                             ****ORCA TERMINATED NORMALLY****
TOTAL RUN TIME: 0 days 0 hours 0 minutes 28 seconds 217 msec
