                         Program Version 4.2.1 -  RELEASE  -
|  1> ! wB97X-D3 SP def2-SVP
|  2> %pal
|  3> nprocs 16
|  4> end
|  5>
|  6> * xyz 0 1
|  7> S 	 35.7196 	 3.07293 	 72.4638
|  8> C 	 34.8163 	 4.16647 	 71.548
|  9> C 	 33.4291 	 3.95619 	 71.639
| 10> C 	 33.1185 	 2.94531 	 72.5994
| 11> C 	 34.2626 	 2.32164 	 73.1397
| 12> H 	 32.1656 	 2.48536 	 72.8695
| 13> C 	 32.3385 	 4.61068 	 70.8126
| 14> H 	 31.599 	 4.91232 	 71.5322
| 15> H 	 31.9276 	 3.86905 	 70.0762
| 16> C 	 32.6306 	 5.79456 	 69.9415
| 17> H 	 33.3702 	 5.48348 	 69.1276
| 18> H 	 31.6871 	 6.16523 	 69.3955
| 19> C 	 33.1611 	 7.08414 	 70.6607
| 20> H 	 32.687 	 7.39246 	 71.5613
| 21> H 	 34.1759 	 6.95559 	 70.9713
| 22> H 	 33.1448 	 7.952 	 69.8953
| 23> S 	 33.9606 	 -0.381554 	 73.5764
| 24> C 	 34.0927 	 -0.923103 	 75.2136
| 25> C 	 34.2293 	 0.0581772 	 76.1378
| 26> C 	 34.3235 	 1.35748 	 75.5382
| 27> C 	 34.2306 	 1.30408 	 74.145
| 28> H 	 34.2028 	 -0.259387 	 77.16
| 29> C 	 34.7049 	 2.59547 	 76.3233
| 30> H 	 34.2219 	 3.42098 	 75.7882
| 31> H 	 35.7298 	 2.71185 	 76.298
| 32> C 	 34.1819 	 2.56546 	 77.7819
| 33> H 	 34.634 	 3.45891 	 78.2345
| 34> H 	 34.6418 	 1.73688 	 78.3733
| 35> C 	 32.5824 	 2.50401 	 77.9163
| 36> H 	 32.2576 	 2.27878 	 78.877
| 37> H 	 32.0971 	 1.93457 	 77.1755
| 38> H 	 32.3078 	 3.51669 	 77.7147
| 39> H 	 35.2415 	 4.9604 	 70.9055
| 40> H 	 33.8796 	 -1.88468 	 75.6503
| 41> *
| 42>
| 43>                          ****END OF INPUT****

CARTESIAN COORDINATES (ANGSTROEM)
---------------------------------
  S     35.719600    3.072930   72.463800
  C     34.816300    4.166470   71.548000
  C     33.429100    3.956190   71.639000
  C     33.118500    2.945310   72.599400
  C     34.262600    2.321640   73.139700
  H     32.165600    2.485360   72.869500
  C     32.338500    4.610680   70.812600
  H     31.599000    4.912320   71.532200
  H     31.927600    3.869050   70.076200
  C     32.630600    5.794560   69.941500
  H     33.370200    5.483480   69.127600
  H     31.687100    6.165230   69.395500
  C     33.161100    7.084140   70.660700
  H     32.687000    7.392460   71.561300
  H     34.175900    6.955590   70.971300
  H     33.144800    7.952000   69.895300
  S     33.960600   -0.381554   73.576400
  C     34.092700   -0.923103   75.213600
  C     34.229300    0.058177   76.137800
  C     34.323500    1.357480   75.538200
  C     34.230600    1.304080   74.145000
  H     34.202800   -0.259387   77.160000
  C     34.704900    2.595470   76.323300
  H     34.221900    3.420980   75.788200
  H     35.729800    2.711850   76.298000
  C     34.181900    2.565460   77.781900
  H     34.634000    3.458910   78.234500
  H     34.641800    1.736880   78.373300
  C     32.582400    2.504010   77.916300
  H     32.257600    2.278780   78.877000
  H     32.097100    1.934570   77.175500
  H     32.307800    3.516690   77.714700
  H     35.241500    4.960400   70.905500
  H     33.879600   -1.884680   75.650300

 Total Charge           Charge          ....    0
 Multiplicity           Mult            ....    1
 Number of Electrons    NEL             ....  134
 Basis Dimension        Dim             ....  322

ORBITAL ENERGIES
----------------

  NO   OCC          E(Eh)            E(eV)
   0   2.0000     -88.968237     -2420.9488
   1   2.0000     -88.964137     -2420.8372
   2   2.0000     -10.326662      -281.0027
   3   2.0000     -10.323541      -280.9178
   4   2.0000     -10.315678      -280.7039
   5   2.0000     -10.308827      -280.5174
   6   2.0000     -10.303974      -280.3854
   7   2.0000     -10.303916      -280.3838
   8   2.0000     -10.299989      -280.2770
   9   2.0000     -10.297597      -280.2119
  10   2.0000     -10.293800      -280.1085
  11   2.0000     -10.293114      -280.0899
  12   2.0000     -10.285668      -279.8872
  13   2.0000     -10.285467      -279.8818
  14   2.0000     -10.280951      -279.7589
  15   2.0000     -10.270489      -279.4742
  16   2.0000      -8.083351      -219.9592
  17   2.0000      -8.078507      -219.8273
  18   2.0000      -6.041686      -164.4026
  19   2.0000      -6.037629      -164.2922
  20   2.0000      -6.037033      -164.2760
  21   2.0000      -6.034454      -164.2058
  22   2.0000      -6.033173      -164.1710
  23   2.0000      -6.029167      -164.0620
  24   2.0000      -1.003703       -27.3121
  25   2.0000      -0.983212       -26.7545
  26   2.0000      -0.910717       -24.7819
  27   2.0000      -0.903905       -24.5965
  28   2.0000      -0.871486       -23.7143
  29   2.0000      -0.848974       -23.1018
  30   2.0000      -0.840772       -22.8786
  31   2.0000      -0.811469       -22.0812
  32   2.0000      -0.788166       -21.4471
  33   2.0000      -0.775551       -21.1038
  34   2.0000      -0.708868       -19.2893
  35   2.0000      -0.698532       -19.0080
  36   2.0000      -0.695547       -18.9268
  37   2.0000      -0.648225       -17.6391
  38   2.0000      -0.642936       -17.4952
  39   2.0000      -0.603804       -16.4304
  40   2.0000      -0.590103       -16.0575
  41   2.0000      -0.575902       -15.6711
  42   2.0000      -0.560860       -15.2618
  43   2.0000      -0.554904       -15.0997
  44   2.0000      -0.537281       -14.6202
  45   2.0000      -0.527551       -14.3554
  46   2.0000      -0.514360       -13.9964
  47   2.0000      -0.509840       -13.8734
  48   2.0000      -0.502970       -13.6865
  49   2.0000      -0.497483       -13.5372
  50   2.0000      -0.493280       -13.4228
  51   2.0000      -0.480115       -13.0646
  52   2.0000      -0.474392       -12.9089
  53   2.0000      -0.464882       -12.6501
  54   2.0000      -0.455145       -12.3851
  55   2.0000      -0.450460       -12.2576
  56   2.0000      -0.439762       -11.9665
  57   2.0000      -0.436993       -11.8912
  58   2.0000      -0.434371       -11.8198
  59   2.0000      -0.429218       -11.6796
  60   2.0000      -0.424394       -11.5483
  61   2.0000      -0.410438       -11.1686
  62   2.0000      -0.407738       -11.0951
  63   2.0000      -0.335764        -9.1366
  64   2.0000      -0.331132        -9.0106
  65   2.0000      -0.314758        -8.5650
  66   2.0000      -0.308017        -8.3816
  67   0.0000       0.042376         1.1531
  68   0.0000       0.054172         1.4741
  69   0.0000       0.111908         3.0452
  70   0.0000       0.125636         3.4187
  71   0.0000       0.128638         3.5004

MULLIKEN ATOMIC CHARGES
-----------------------
   0 S :    0.137082
   1 C :   -0.136117
   2 C :   -0.092220
   3 C :    0.036605
   4 C :   -0.199343
   5 H :    0.022600
   6 C :    0.089109
   7 H :    0.029170
   8 H :    0.057038
   9 C :   -0.139256
  10 H :    0.041711
  11 H :    0.046917
  12 C :   -0.058585
  13 H :    0.028647
  14 H :    0.013619
  15 H :    0.044711
  16 S :    0.111797
  17 C :   -0.057284
  18 C :   -0.062224
  19 C :   -0.024646
  20 C :   -0.203723
  21 H :    0.012589
  22 C :    0.128489
  23 H :    0.030082
  24 H :    0.030850
  25 C :   -0.132693
  26 H :    0.031445
  27 H :    0.032339
  28 C :   -0.002786
  29 H :    0.023672
  30 H :    0.036569
  31 H :    0.018946
  32 H :    0.064449
  33 H :    0.040443
Sum of atomic charges:    0.0000000

LOEWDIN ATOMIC CHARGES
----------------------
   0 S :    0.430063
   1 C :   -0.224439
   2 C :   -0.069997
   3 C :   -0.050546
   4 C :   -0.208598
   5 H :    0.036188
   6 C :   -0.041167
   7 H :    0.031041
   8 H :    0.046564
   9 C :   -0.055390
  10 H :    0.029665
  11 H :    0.036577
  12 C :   -0.073056
  13 H :    0.020457
  14 H :    0.015079
  15 H :    0.036747
  16 S :    0.392522
  17 C :   -0.186911
  18 C :   -0.077291
  19 C :   -0.043000
  20 C :   -0.197403
  21 H :    0.030702
  22 C :   -0.022063
  23 H :    0.035543
  24 H :    0.026375
  25 C :   -0.040551
  26 H :    0.025526
  27 H :    0.020000
  28 C :   -0.052541
  29 H :    0.017818
  30 H :    0.022189
  31 H :    0.026289
  32 H :    0.034209
  33 H :    0.029400

  Mayer bond orders larger than 0.100000
B(  0-S ,  1-C ) :   1.1703 B(  0-S ,  4-C ) :   1.1439 B(  1-C ,  2-C ) :   1.5794
B(  1-C , 32-H ) :   0.9533 B(  2-C ,  3-C ) :   1.2643 B(  2-C ,  6-C ) :   1.0065
B(  3-C ,  4-C ) :   1.5653 B(  3-C ,  5-H ) :   0.9907 B(  4-C , 20-C ) :   1.0514
B(  6-C ,  7-H ) :   0.9359 B(  6-C ,  8-H ) :   0.9360 B(  6-C ,  9-C ) :   1.0899
B(  9-C , 10-H ) :   0.9488 B(  9-C , 11-H ) :   0.9555 B(  9-C , 12-C ) :   1.0654
B( 12-C , 13-H ) :   0.9755 B( 12-C , 14-H ) :   0.9744 B( 12-C , 15-H ) :   0.9766
B( 16-S , 17-C ) :   1.1465 B( 16-S , 20-C ) :   1.1203 B( 17-C , 18-C ) :   1.6679
B( 17-C , 33-H ) :   0.9530 B( 18-C , 19-C ) :   1.1987 B( 18-C , 21-H ) :   0.9917
B( 19-C , 20-C ) :   1.6199 B( 19-C , 22-C ) :   1.0280 B( 22-C , 23-H ) :   0.9257
B( 22-C , 24-H ) :   0.9329 B( 22-C , 25-C ) :   1.0804 B( 25-C , 26-H ) :   0.9616
B( 25-C , 27-H ) :   0.9543 B( 25-C , 28-C ) :   1.0512 B( 28-C , 29-H ) :   0.9785
B( 28-C , 30-H ) :   0.9804 B( 28-C , 31-H ) :   0.9756

Dispersion correction           -0.014578773
FINAL SINGLE POINT ENERGY     -1339.867989153909

DIPOLE MOMENT
-------------
                                X             Y             Z
Electronic contribution:     10.66493     -19.62222      -5.77684
Nuclear contribution   :    -10.99269      19.95838       6.03738
                        -----------------------------------------
Total Dipole Moment    :     -0.32775       0.33617       0.26054
                        -----------------------------------------
Magnitude (a.u.)       :      0.53695
Magnitude (Debye)      :      1.36481

Rotational constants in cm-1:     0.022019     0.007391     0.006490
Rotational constants in MHz :   660.104604   221.587609   194.568500

                             ****ORCA TERMINATED NORMALLY****
TOTAL RUN TIME: 0 days 0 hours 0 minutes 29 seconds 827 msec
