                         Program Version 4.2.1 -  RELEASE  -
|  1> ! wB97X-D3 SP def2-SVP
|  2> %pal
|  3> nprocs 16
|  4> end
|  5>
|  6> * xyz 0 1
|  7> S 	 -64.1099 	 41.4227 	 131.217
|  8> C 	 -65.0734 	 40.9955 	 132.61
|  9> C 	 -65.1762 	 39.6358 	 132.765
| 10> C 	 -64.279 	 38.9721 	 131.957
| 11> C 	 -63.5805 	 39.7707 	 131.112
| 12> H 	 -64.2164 	 37.9238 	 131.928
| 13> C 	 -66.0492 	 39.1028 	 133.894
| 14> H 	 -67.0923 	 39.4648 	 133.852
| 15> H 	 -65.7683 	 39.5101 	 134.864
| 16> C 	 -65.9653 	 37.5611 	 134.062
| 17> H 	 -66.4571 	 37.0419 	 133.237
| 18> H 	 -64.9312 	 37.166 	 134.124
| 19> C 	 -66.6776 	 37.1341 	 135.382
| 20> H 	 -67.6904 	 37.3443 	 135.386
| 21> H 	 -66.6698 	 36.0442 	 135.545
| 22> H 	 -66.1914 	 37.5806 	 136.244
| 23> S 	 -63.0867 	 38.8818 	 128.591
| 24> C 	 -61.4623 	 38.4573 	 128.17
| 25> C 	 -60.5758 	 38.6589 	 129.142
| 26> C 	 -61.1849 	 39.0167 	 130.396
| 27> C 	 -62.5291 	 39.3004 	 130.199
| 28> H 	 -59.496 	 38.3951 	 128.929
| 29> C 	 -60.3218 	 39.101 	 131.7
| 30> H 	 -59.9664 	 38.0491 	 131.903
| 31> H 	 -61.0429 	 39.2875 	 132.411
| 32> C 	 -59.2071 	 40.1456 	 131.629
| 33> H 	 -58.6081 	 39.9566 	 130.742
| 34> H 	 -58.4985 	 40.0542 	 132.42
| 35> C 	 -59.8155 	 41.5924 	 131.594
| 36> H 	 -58.9723 	 42.2518 	 131.267
| 37> H 	 -60.0906 	 42.0035 	 132.576
| 38> H 	 -60.6014 	 41.6769 	 130.869
| 39> H 	 -65.5512 	 41.756 	 133.245
| 40> H 	 -61.1665 	 38.2086 	 127.157
| 41> *
| 42>
| 43>                          ****END OF INPUT****

CARTESIAN COORDINATES (ANGSTROEM)
---------------------------------
  S    -64.109900   41.422700  131.217000
  C    -65.073400   40.995500  132.610000
  C    -65.176200   39.635800  132.765000
  C    -64.279000   38.972100  131.957000
  C    -63.580500   39.770700  131.112000
  H    -64.216400   37.923800  131.928000
  C    -66.049200   39.102800  133.894000
  H    -67.092300   39.464800  133.852000
  H    -65.768300   39.510100  134.864000
  C    -65.965300   37.561100  134.062000
  H    -66.457100   37.041900  133.237000
  H    -64.931200   37.166000  134.124000
  C    -66.677600   37.134100  135.382000
  H    -67.690400   37.344300  135.386000
  H    -66.669800   36.044200  135.545000
  H    -66.191400   37.580600  136.244000
  S    -63.086700   38.881800  128.591000
  C    -61.462300   38.457300  128.170000
  C    -60.575800   38.658900  129.142000
  C    -61.184900   39.016700  130.396000
  C    -62.529100   39.300400  130.199000
  H    -59.496000   38.395100  128.929000
  C    -60.321800   39.101000  131.700000
  H    -59.966400   38.049100  131.903000
  H    -61.042900   39.287500  132.411000
  C    -59.207100   40.145600  131.629000
  H    -58.608100   39.956600  130.742000
  H    -58.498500   40.054200  132.420000
  C    -59.815500   41.592400  131.594000
  H    -58.972300   42.251800  131.267000
  H    -60.090600   42.003500  132.576000
  H    -60.601400   41.676900  130.869000
  H    -65.551200   41.756000  133.245000
  H    -61.166500   38.208600  127.157000

 Total Charge           Charge          ....    0
 Multiplicity           Mult            ....    1
 Number of Electrons    NEL             ....  134
 Basis Dimension        Dim             ....  322

ORBITAL ENERGIES
----------------

  NO   OCC          E(Eh)            E(eV)
   0   2.0000     -88.966021     -2420.8885
   1   2.0000     -88.959917     -2420.7224
   2   2.0000     -10.323260      -280.9102
   3   2.0000     -10.320837      -280.8443
   4   2.0000     -10.309501      -280.5358
   5   2.0000     -10.306636      -280.4578
   6   2.0000     -10.304752      -280.4066
   7   2.0000     -10.295829      -280.1637
   8   2.0000     -10.293358      -280.0965
   9   2.0000     -10.291689      -280.0511
  10   2.0000     -10.289800      -279.9997
  11   2.0000     -10.289111      -279.9810
  12   2.0000     -10.285399      -279.8799
  13   2.0000     -10.283026      -279.8154
  14   2.0000     -10.275313      -279.6055
  15   2.0000     -10.274085      -279.5721
  16   2.0000      -8.080926      -219.8932
  17   2.0000      -8.075476      -219.7449
  18   2.0000      -6.039171      -164.3342
  19   2.0000      -6.035517      -164.2348
  20   2.0000      -6.033874      -164.1901
  21   2.0000      -6.031857      -164.1352
  22   2.0000      -6.030030      -164.0855
  23   2.0000      -6.026151      -163.9799
  24   2.0000      -1.010864       -27.5070
  25   2.0000      -0.989515       -26.9261
  26   2.0000      -0.908190       -24.7131
  27   2.0000      -0.903185       -24.5769
  28   2.0000      -0.868669       -23.6377
  29   2.0000      -0.850783       -23.1510
  30   2.0000      -0.840375       -22.8678
  31   2.0000      -0.816129       -22.2080
  32   2.0000      -0.781815       -21.2743
  33   2.0000      -0.769297       -20.9336
  34   2.0000      -0.713729       -19.4216
  35   2.0000      -0.701724       -19.0949
  36   2.0000      -0.685773       -18.6608
  37   2.0000      -0.649032       -17.6611
  38   2.0000      -0.643300       -17.5051
  39   2.0000      -0.626940       -17.0599
  40   2.0000      -0.594881       -16.1875
  41   2.0000      -0.567905       -15.4535
  42   2.0000      -0.563633       -15.3372
  43   2.0000      -0.549512       -14.9530
  44   2.0000      -0.533403       -14.5146
  45   2.0000      -0.520711       -14.1693
  46   2.0000      -0.514282       -13.9943
  47   2.0000      -0.501960       -13.6590
  48   2.0000      -0.501229       -13.6391
  49   2.0000      -0.495504       -13.4833
  50   2.0000      -0.485854       -13.2208
  51   2.0000      -0.480165       -13.0660
  52   2.0000      -0.471712       -12.8359
  53   2.0000      -0.460086       -12.5196
  54   2.0000      -0.456865       -12.4319
  55   2.0000      -0.454688       -12.3727
  56   2.0000      -0.448703       -12.2098
  57   2.0000      -0.435323       -11.8457
  58   2.0000      -0.432832       -11.7780
  59   2.0000      -0.429306       -11.6820
  60   2.0000      -0.423863       -11.5339
  61   2.0000      -0.414894       -11.2898
  62   2.0000      -0.412470       -11.2239
  63   2.0000      -0.339487        -9.2379
  64   2.0000      -0.330488        -8.9930
  65   2.0000      -0.319249        -8.6872
  66   2.0000      -0.306971        -8.3531
  67   0.0000       0.047527         1.2933
  68   0.0000       0.058515         1.5923
  69   0.0000       0.118744         3.2312
  70   0.0000       0.123545         3.3618
  71   0.0000       0.131711         3.5840

MULLIKEN ATOMIC CHARGES
-----------------------
   0 S :    0.128293
   1 C :   -0.152083
   2 C :   -0.021903
   3 C :    0.040709
   4 C :   -0.156923
   5 H :   -0.005956
   6 C :    0.046303
   7 H :    0.034665
   8 H :    0.024321
   9 C :   -0.111678
  10 H :    0.037627
  11 H :    0.044436
  12 C :   -0.031330
  13 H :    0.014744
  14 H :    0.028266
  15 H :    0.030337
  16 S :    0.108140
  17 C :   -0.081058
  18 C :   -0.055596
  19 C :   -0.057616
  20 C :   -0.212969
  21 H :    0.040486
  22 C :    0.124738
  23 H :    0.039871
  24 H :    0.000272
  25 C :   -0.048939
  26 H :    0.024264
  27 H :    0.021497
  28 C :   -0.063113
  29 H :    0.029470
  30 H :    0.039696
  31 H :    0.040775
  32 H :    0.051915
  33 H :    0.048339
Sum of atomic charges:    0.0000000

LOEWDIN ATOMIC CHARGES
----------------------
   0 S :    0.417153
   1 C :   -0.192395
   2 C :   -0.068539
   3 C :   -0.057008
   4 C :   -0.207140
   5 H :    0.026392
   6 C :   -0.032866
   7 H :    0.035782
   8 H :    0.031167
   9 C :   -0.042544
  10 H :    0.023540
  11 H :    0.028124
  12 C :   -0.061764
  13 H :    0.013224
  14 H :    0.028704
  15 H :    0.023672
  16 S :    0.402573
  17 C :   -0.187048
  18 C :   -0.084323
  19 C :   -0.048338
  20 C :   -0.202787
  21 H :    0.042766
  22 C :   -0.021757
  23 H :    0.038418
  24 H :    0.016453
  25 C :   -0.035681
  26 H :    0.022283
  27 H :    0.020684
  28 C :   -0.062584
  29 H :    0.029905
  30 H :    0.027158
  31 H :    0.020535
  32 H :    0.029403
  33 H :    0.026836

  Mayer bond orders larger than 0.100000
B(  0-S ,  1-C ) :   1.1584 B(  0-S ,  4-C ) :   1.1625 B(  1-C ,  2-C ) :   1.5840
B(  1-C ,  4-C ) :   0.1063 B(  1-C , 32-H ) :   0.9718 B(  2-C ,  3-C ) :   1.2840
B(  2-C ,  6-C ) :   0.9993 B(  3-C ,  4-C ) :   1.5574 B(  3-C ,  5-H ) :   1.0071
B(  4-C , 20-C ) :   0.9953 B(  6-C ,  7-H ) :   0.9376 B(  6-C ,  8-H ) :   0.9473
B(  6-C ,  9-C ) :   1.0716 B(  9-C , 10-H ) :   0.9549 B(  9-C , 11-H ) :   0.9533
B(  9-C , 12-C ) :   1.0871 B( 12-C , 13-H ) :   0.9751 B( 12-C , 14-H ) :   0.9728
B( 12-C , 15-H ) :   0.9758 B( 16-S , 17-C ) :   1.1360 B( 16-S , 20-C ) :   1.1544
B( 17-C , 18-C ) :   1.6823 B( 17-C , 33-H ) :   0.9603 B( 18-C , 19-C ) :   1.1916
B( 18-C , 21-H ) :   0.9740 B( 19-C , 20-C ) :   1.6415 B( 19-C , 22-C ) :   1.0208
B( 22-C , 23-H ) :   0.9375 B( 22-C , 24-H ) :   0.9308 B( 22-C , 25-C ) :   1.0665
B( 25-C , 26-H ) :   0.9598 B( 25-C , 27-H ) :   0.9551 B( 25-C , 28-C ) :   1.0643
B( 28-C , 29-H ) :   0.9737 B( 28-C , 30-H ) :   0.9775 B( 28-C , 31-H ) :   0.9780

Dispersion correction           -0.014510657
FINAL SINGLE POINT ENERGY     -1339.877553069329

DIPOLE MOMENT
-------------
                                X             Y             Z
Electronic contribution:     -3.25153       6.06389     -20.70448
Nuclear contribution   :      3.39127      -6.31946      21.20093
                        -----------------------------------------
Total Dipole Moment    :      0.13975      -0.25557       0.49645
                        -----------------------------------------
Magnitude (a.u.)       :      0.57559
Magnitude (Debye)      :      1.46303

Rotational constants in cm-1:     0.019558     0.007741     0.007318
Rotational constants in MHz :   586.320326   232.081161   219.373415

                             ****ORCA TERMINATED NORMALLY****
TOTAL RUN TIME: 0 days 0 hours 0 minutes 36 seconds 207 msec
