                         Program Version 4.2.1 -  RELEASE  -
|  1> ! wB97X-D3 SP def2-SVP
|  2> %pal
|  3> nprocs 16
|  4> end
|  5>
|  6> * xyz 0 1
|  7> S 	 7.57048 	 -15.193 	 85.6887
|  8> C 	 9.02391 	 -14.6617 	 84.8791
|  9> C 	 9.9719 	 -14.1782 	 85.7455
| 10> C 	 9.44121 	 -14.1852 	 87.0799
| 11> C 	 8.15005 	 -14.6525 	 87.2362
| 12> H 	 10.1022 	 -13.9572 	 87.8519
| 13> C 	 11.349 	 -13.6593 	 85.372
| 14> H 	 11.5377 	 -14.0225 	 84.3765
| 15> H 	 11.9911 	 -14.1066 	 86.1062
| 16> C 	 11.5022 	 -12.1285 	 85.5158
| 17> H 	 10.6767 	 -11.6775 	 84.9611
| 18> H 	 11.3997 	 -11.7154 	 86.5398
| 19> C 	 12.8804 	 -11.7806 	 84.8678
| 20> H 	 13.6374 	 -12.1894 	 85.5095
| 21> H 	 13.0907 	 -12.1806 	 83.7996
| 22> H 	 13.0026 	 -10.7654 	 84.6249
| 23> S 	 6.37808 	 -16.3055 	 88.4941
| 24> C 	 5.8372 	 -15.8452 	 90.0698
| 25> C 	 6.42849 	 -14.6599 	 90.5413
| 26> C 	 7.38894 	 -14.1489 	 89.6502
| 27> C 	 7.4104 	 -14.9141 	 88.4443
| 28> H 	 6.25392 	 -14.4015 	 91.5281
| 29> C 	 8.1521 	 -12.8336 	 89.9253
| 30> H 	 7.45569 	 -12.0604 	 90.3687
| 31> H 	 8.41869 	 -12.424 	 88.9626
| 32> C 	 9.47954 	 -12.958 	 90.8358
| 33> H 	 10.2147 	 -13.5899 	 90.3696
| 34> H 	 9.31835 	 -13.4687 	 91.782
| 35> C 	 9.93623 	 -11.5579 	 91.1056
| 36> H 	 9.77316 	 -10.9093 	 90.258
| 37> H 	 11.0145 	 -11.7777 	 91.3275
| 38> H 	 9.35775 	 -11.3067 	 92.0192
| 39> H 	 9.14893 	 -14.6551 	 83.8401
| 40> H 	 5.29319 	 -16.4829 	 90.7223
| 41> *
| 42>
| 43>                          ****END OF INPUT****

CARTESIAN COORDINATES (ANGSTROEM)
---------------------------------
  S      7.570480  -15.193000   85.688700
  C      9.023910  -14.661700   84.879100
  C      9.971900  -14.178200   85.745500
  C      9.441210  -14.185200   87.079900
  C      8.150050  -14.652500   87.236200
  H     10.102200  -13.957200   87.851900
  C     11.349000  -13.659300   85.372000
  H     11.537700  -14.022500   84.376500
  H     11.991100  -14.106600   86.106200
  C     11.502200  -12.128500   85.515800
  H     10.676700  -11.677500   84.961100
  H     11.399700  -11.715400   86.539800
  C     12.880400  -11.780600   84.867800
  H     13.637400  -12.189400   85.509500
  H     13.090700  -12.180600   83.799600
  H     13.002600  -10.765400   84.624900
  S      6.378080  -16.305500   88.494100
  C      5.837200  -15.845200   90.069800
  C      6.428490  -14.659900   90.541300
  C      7.388940  -14.148900   89.650200
  C      7.410400  -14.914100   88.444300
  H      6.253920  -14.401500   91.528100
  C      8.152100  -12.833600   89.925300
  H      7.455690  -12.060400   90.368700
  H      8.418690  -12.424000   88.962600
  C      9.479540  -12.958000   90.835800
  H     10.214700  -13.589900   90.369600
  H      9.318350  -13.468700   91.782000
  C      9.936230  -11.557900   91.105600
  H      9.773160  -10.909300   90.258000
  H     11.014500  -11.777700   91.327500
  H      9.357750  -11.306700   92.019200
  H      9.148930  -14.655100   83.840100
  H      5.293190  -16.482900   90.722300

 Total Charge           Charge          ....    0
 Multiplicity           Mult            ....    1
 Number of Electrons    NEL             ....  134
 Basis Dimension        Dim             ....  322

ORBITAL ENERGIES
----------------

  NO   OCC          E(Eh)            E(eV)
   0   2.0000     -88.971466     -2421.0367
   1   2.0000     -88.962552     -2420.7941
   2   2.0000     -10.327564      -281.0273
   3   2.0000     -10.327325      -281.0208
   4   2.0000     -10.313255      -280.6379
   5   2.0000     -10.305526      -280.4276
   6   2.0000     -10.305440      -280.4253
   7   2.0000     -10.300133      -280.2809
   8   2.0000     -10.295149      -280.1452
   9   2.0000     -10.294571      -280.1295
  10   2.0000     -10.292552      -280.0746
  11   2.0000     -10.288629      -279.9678
  12   2.0000     -10.287350      -279.9330
  13   2.0000     -10.285493      -279.8825
  14   2.0000     -10.282478      -279.8004
  15   2.0000     -10.281677      -279.7786
  16   2.0000      -8.086450      -220.0435
  17   2.0000      -8.077742      -219.8065
  18   2.0000      -6.044734      -164.4856
  19   2.0000      -6.040871      -164.3805
  20   2.0000      -6.037504      -164.2888
  21   2.0000      -6.036375      -164.2581
  22   2.0000      -6.032161      -164.1434
  23   2.0000      -6.028392      -164.0409
  24   2.0000      -1.008546       -27.4439
  25   2.0000      -0.984027       -26.7767
  26   2.0000      -0.913143       -24.8479
  27   2.0000      -0.907190       -24.6859
  28   2.0000      -0.869835       -23.6694
  29   2.0000      -0.859929       -23.3998
  30   2.0000      -0.843995       -22.9663
  31   2.0000      -0.811960       -22.0946
  32   2.0000      -0.780991       -21.2518
  33   2.0000      -0.766766       -20.8648
  34   2.0000      -0.709427       -19.3045
  35   2.0000      -0.700963       -19.0742
  36   2.0000      -0.696501       -18.9528
  37   2.0000      -0.665082       -18.0978
  38   2.0000      -0.638479       -17.3739
  39   2.0000      -0.627842       -17.0844
  40   2.0000      -0.594973       -16.1901
  41   2.0000      -0.575899       -15.6710
  42   2.0000      -0.568052       -15.4575
  43   2.0000      -0.557690       -15.1755
  44   2.0000      -0.532927       -14.5017
  45   2.0000      -0.528877       -14.3915
  46   2.0000      -0.518078       -14.0976
  47   2.0000      -0.513599       -13.9757
  48   2.0000      -0.501002       -13.6329
  49   2.0000      -0.496593       -13.5130
  50   2.0000      -0.492668       -13.4062
  51   2.0000      -0.478145       -13.0110
  52   2.0000      -0.467745       -12.7280
  53   2.0000      -0.464885       -12.6502
  54   2.0000      -0.458499       -12.4764
  55   2.0000      -0.453991       -12.3537
  56   2.0000      -0.450839       -12.2680
  57   2.0000      -0.442455       -12.0398
  58   2.0000      -0.431535       -11.7427
  59   2.0000      -0.430145       -11.7048
  60   2.0000      -0.421581       -11.4718
  61   2.0000      -0.413833       -11.2610
  62   2.0000      -0.410178       -11.1615
  63   2.0000      -0.355352        -9.6696
  64   2.0000      -0.335312        -9.1243
  65   2.0000      -0.327084        -8.9004
  66   2.0000      -0.278543        -7.5795
  67   0.0000       0.024573         0.6687
  68   0.0000       0.078646         2.1401
  69   0.0000       0.108304         2.9471
  70   0.0000       0.121779         3.3138
  71   0.0000       0.129686         3.5289

MULLIKEN ATOMIC CHARGES
-----------------------
   0 S :    0.093437
   1 C :   -0.109006
   2 C :   -0.106988
   3 C :    0.025091
   4 C :   -0.110425
   5 H :   -0.032507
   6 C :    0.101402
   7 H :    0.018375
   8 H :    0.025341
   9 C :   -0.081977
  10 H :    0.030978
  11 H :    0.043163
  12 C :   -0.049270
  13 H :    0.033174
  14 H :    0.031741
  15 H :    0.025367
  16 S :    0.128986
  17 C :   -0.092305
  18 C :   -0.007434
  19 C :   -0.009038
  20 C :   -0.142691
  21 H :   -0.007978
  22 C :    0.006248
  23 H :    0.039558
  24 H :    0.024737
  25 C :   -0.086473
  26 H :    0.024607
  27 H :    0.025103
  28 C :   -0.036113
  29 H :    0.042316
  30 H :    0.041053
  31 H :    0.046702
  32 H :    0.019527
  33 H :    0.045298
Sum of atomic charges:   -0.0000000

LOEWDIN ATOMIC CHARGES
----------------------
   0 S :    0.401349
   1 C :   -0.193515
   2 C :   -0.060235
   3 C :   -0.066970
   4 C :   -0.190005
   5 H :    0.014681
   6 C :   -0.021779
   7 H :    0.030089
   8 H :    0.030491
   9 C :   -0.037599
  10 H :    0.023614
  11 H :    0.029833
  12 C :   -0.069540
  13 H :    0.023234
  14 H :    0.035660
  15 H :    0.017194
  16 S :    0.431674
  17 C :   -0.191487
  18 C :   -0.057864
  19 C :   -0.053023
  20 C :   -0.205515
  21 H :    0.019968
  22 C :   -0.032716
  23 H :    0.036542
  24 H :    0.024749
  25 C :   -0.038794
  26 H :    0.014004
  27 H :    0.022464
  28 C :   -0.066377
  29 H :    0.023207
  30 H :    0.036564
  31 H :    0.034674
  32 H :    0.014749
  33 H :    0.020676

  Mayer bond orders larger than 0.100000
B(  0-S ,  1-C ) :   1.1305 B(  0-S ,  4-C ) :   1.1433 B(  1-C ,  2-C ) :   1.6176
B(  1-C , 32-H ) :   0.9719 B(  2-C ,  3-C ) :   1.2571 B(  2-C ,  6-C ) :   1.0226
B(  3-C ,  4-C ) :   1.5355 B(  3-C ,  5-H ) :   1.0040 B(  4-C , 20-C ) :   1.0839
B(  6-C ,  7-H ) :   0.9451 B(  6-C ,  8-H ) :   0.9301 B(  6-C ,  9-C ) :   1.0560
B(  9-C , 10-H ) :   0.9591 B(  9-C , 11-H ) :   0.9552 B(  9-C , 12-C ) :   1.0721
B( 12-C , 13-H ) :   0.9760 B( 12-C , 14-H ) :   0.9749 B( 12-C , 15-H ) :   0.9754
B( 16-S , 17-C ) :   1.1676 B( 16-S , 20-C ) :   1.1623 B( 17-C , 18-C ) :   1.5742
B( 17-C , 20-C ) :   0.1065 B( 17-C , 33-H ) :   0.9698 B( 18-C , 19-C ) :   1.2840
B( 18-C , 21-H ) :   0.9990 B( 19-C , 20-C ) :   1.5247 B( 19-C , 22-C ) :   1.0349
B( 22-C , 23-H ) :   0.9497 B( 22-C , 24-H ) :   0.9292 B( 22-C , 25-C ) :   1.0448
B( 25-C , 26-H ) :   0.9612 B( 25-C , 27-H ) :   0.9598 B( 25-C , 28-C ) :   1.0588
B( 28-C , 29-H ) :   0.9741 B( 28-C , 30-H ) :   0.9746 B( 28-C , 31-H ) :   0.9799

Dispersion correction           -0.013809203
FINAL SINGLE POINT ENERGY     -1339.865074589670

DIPOLE MOMENT
-------------
                                X             Y             Z
Electronic contribution:    -24.63862     -21.87122      -5.06455
Nuclear contribution   :     25.21457      22.22018       5.38312
                        -----------------------------------------
Total Dipole Moment    :      0.57595       0.34896       0.31857
                        -----------------------------------------
Magnitude (a.u.)       :      0.74497
Magnitude (Debye)      :      1.89356

Rotational constants in cm-1:     0.017257     0.009305     0.006258
Rotational constants in MHz :   517.350623   278.955285   187.600029

                             ****ORCA TERMINATED NORMALLY****
TOTAL RUN TIME: 0 days 0 hours 0 minutes 33 seconds 636 msec
