                         Program Version 4.2.1 -  RELEASE  -
|  1> ! wB97X-D3 SP def2-SVP
|  2> %pal
|  3> nprocs 16
|  4> end
|  5>
|  6> * xyz 0 1
|  7> S 	 -54.4334 	 9.41837 	 88.6915
|  8> C 	 -53.9832 	 10.8114 	 89.6473
|  9> C 	 -53.322 	 11.8134 	 88.8895
| 10> C 	 -53.3754 	 11.4386 	 87.5238
| 11> C 	 -53.8257 	 10.177 	 87.2437
| 12> H 	 -53.0255 	 12.0021 	 86.6936
| 13> C 	 -52.898 	 13.1084 	 89.464
| 14> H 	 -53.6425 	 13.5298 	 90.1378
| 15> H 	 -52.7731 	 13.8516 	 88.6249
| 16> C 	 -51.5236 	 13.0791 	 90.2101
| 17> H 	 -51.297 	 13.9963 	 90.7053
| 18> H 	 -51.5796 	 12.2514 	 90.9845
| 19> C 	 -50.3221 	 12.6302 	 89.3559
| 20> H 	 -49.9319 	 11.5951 	 89.5869
| 21> H 	 -50.6441 	 12.8233 	 88.2767
| 22> H 	 -49.4623 	 13.3133 	 89.4238
| 23> S 	 -53.1096 	 8.00466 	 85.9397
| 24> C 	 -53.3027 	 7.8106 	 84.2298
| 25> C 	 -53.8656 	 8.91564 	 83.6778
| 26> C 	 -54.2117 	 9.96622 	 84.6586
| 27> C 	 -53.7362 	 9.55648 	 85.9133
| 28> H 	 -54.0408 	 8.89372 	 82.6028
| 29> C 	 -54.9489 	 11.2841 	 84.3251
| 30> H 	 -55.0435 	 11.8634 	 85.2258
| 31> H 	 -55.9926 	 11.1432 	 83.9191
| 32> C 	 -54.2568 	 12.2332 	 83.3429
| 33> H 	 -55.037 	 13.0108 	 83.2043
| 34> H 	 -54.112 	 11.7927 	 82.4156
| 35> C 	 -52.9405 	 12.9083 	 83.8209
| 36> H 	 -52.4665 	 13.324 	 83.0002
| 37> H 	 -52.2809 	 12.1529 	 84.2397
| 38> H 	 -53.0286 	 13.7626 	 84.4374
| 39> H 	 -54.3453 	 11.0492 	 90.5893
| 40> H 	 -53.1009 	 6.92752 	 83.6174
| 41> *
| 42>
| 43>                          ****END OF INPUT****

CARTESIAN COORDINATES (ANGSTROEM)
---------------------------------
  S    -54.433400    9.418370   88.691500
  C    -53.983200   10.811400   89.647300
  C    -53.322000   11.813400   88.889500
  C    -53.375400   11.438600   87.523800
  C    -53.825700   10.177000   87.243700
  H    -53.025500   12.002100   86.693600
  C    -52.898000   13.108400   89.464000
  H    -53.642500   13.529800   90.137800
  H    -52.773100   13.851600   88.624900
  C    -51.523600   13.079100   90.210100
  H    -51.297000   13.996300   90.705300
  H    -51.579600   12.251400   90.984500
  C    -50.322100   12.630200   89.355900
  H    -49.931900   11.595100   89.586900
  H    -50.644100   12.823300   88.276700
  H    -49.462300   13.313300   89.423800
  S    -53.109600    8.004660   85.939700
  C    -53.302700    7.810600   84.229800
  C    -53.865600    8.915640   83.677800
  C    -54.211700    9.966220   84.658600
  C    -53.736200    9.556480   85.913300
  H    -54.040800    8.893720   82.602800
  C    -54.948900   11.284100   84.325100
  H    -55.043500   11.863400   85.225800
  H    -55.992600   11.143200   83.919100
  C    -54.256800   12.233200   83.342900
  H    -55.037000   13.010800   83.204300
  H    -54.112000   11.792700   82.415600
  C    -52.940500   12.908300   83.820900
  H    -52.466500   13.324000   83.000200
  H    -52.280900   12.152900   84.239700
  H    -53.028600   13.762600   84.437400
  H    -54.345300   11.049200   90.589300
  H    -53.100900    6.927520   83.617400

 Total Charge           Charge          ....    0
 Multiplicity           Mult            ....    1
 Number of Electrons    NEL             ....  134
 Basis Dimension        Dim             ....  322

ORBITAL ENERGIES
----------------

  NO   OCC          E(Eh)            E(eV)
   0   2.0000     -88.971006     -2421.0241
   1   2.0000     -88.963502     -2420.8200
   2   2.0000     -10.325697      -280.9765
   3   2.0000     -10.324615      -280.9471
   4   2.0000     -10.311588      -280.5926
   5   2.0000     -10.310903      -280.5739
   6   2.0000     -10.309437      -280.5340
   7   2.0000     -10.302963      -280.3579
   8   2.0000     -10.298478      -280.2358
   9   2.0000     -10.295030      -280.1420
  10   2.0000     -10.294721      -280.1336
  11   2.0000     -10.289370      -279.9880
  12   2.0000     -10.287890      -279.9477
  13   2.0000     -10.283671      -279.8329
  14   2.0000     -10.283027      -279.8154
  15   2.0000     -10.268250      -279.4133
  16   2.0000      -8.085370      -220.0141
  17   2.0000      -8.080179      -219.8728
  18   2.0000      -6.043834      -164.4611
  19   2.0000      -6.039873      -164.3533
  20   2.0000      -6.038632      -164.3195
  21   2.0000      -6.036259      -164.2549
  22   2.0000      -6.034364      -164.2034
  23   2.0000      -6.030906      -164.1093
  24   2.0000      -1.012935       -27.5634
  25   2.0000      -0.987221       -26.8637
  26   2.0000      -0.910871       -24.7860
  27   2.0000      -0.906680       -24.6720
  28   2.0000      -0.869492       -23.6601
  29   2.0000      -0.849907       -23.1271
  30   2.0000      -0.843265       -22.9464
  31   2.0000      -0.818397       -22.2697
  32   2.0000      -0.786115       -21.3913
  33   2.0000      -0.773256       -21.0414
  34   2.0000      -0.706890       -19.2354
  35   2.0000      -0.698925       -19.0187
  36   2.0000      -0.691169       -18.8077
  37   2.0000      -0.655840       -17.8463
  38   2.0000      -0.639743       -17.4083
  39   2.0000      -0.618286       -16.8244
  40   2.0000      -0.597288       -16.2530
  41   2.0000      -0.575082       -15.6488
  42   2.0000      -0.552723       -15.0403
  43   2.0000      -0.549448       -14.9513
  44   2.0000      -0.544202       -14.8085
  45   2.0000      -0.539279       -14.6745
  46   2.0000      -0.516823       -14.0635
  47   2.0000      -0.510889       -13.9020
  48   2.0000      -0.501456       -13.6453
  49   2.0000      -0.494986       -13.4693
  50   2.0000      -0.491242       -13.3674
  51   2.0000      -0.474357       -12.9079
  52   2.0000      -0.469194       -12.7674
  53   2.0000      -0.466120       -12.6838
  54   2.0000      -0.461292       -12.5524
  55   2.0000      -0.446599       -12.1526
  56   2.0000      -0.439722       -11.9654
  57   2.0000      -0.439392       -11.9565
  58   2.0000      -0.436574       -11.8798
  59   2.0000      -0.424548       -11.5525
  60   2.0000      -0.421935       -11.4814
  61   2.0000      -0.415154       -11.2969
  62   2.0000      -0.407487       -11.0883
  63   2.0000      -0.350686        -9.5427
  64   2.0000      -0.332911        -9.0590
  65   2.0000      -0.327313        -8.9066
  66   2.0000      -0.290017        -7.8918
  67   0.0000       0.034854         0.9484
  68   0.0000       0.070475         1.9177
  69   0.0000       0.113555         3.0900
  70   0.0000       0.121027         3.2933
  71   0.0000       0.122374         3.3300

MULLIKEN ATOMIC CHARGES
-----------------------
   0 S :    0.132682
   1 C :   -0.090586
   2 C :   -0.067539
   3 C :    0.039671
   4 C :   -0.142987
   5 H :   -0.019109
   6 C :    0.032692
   7 H :    0.036986
   8 H :    0.030348
   9 C :   -0.069782
  10 H :    0.030495
  11 H :    0.033915
  12 C :   -0.094425
  13 H :    0.061539
  14 H :    0.030163
  15 H :    0.030677
  16 S :    0.114818
  17 C :   -0.096219
  18 C :   -0.045277
  19 C :   -0.032848
  20 C :   -0.169514
  21 H :    0.021924
  22 C :    0.059829
  23 H :    0.015083
  24 H :    0.045770
  25 C :   -0.072483
  26 H :    0.025795
  27 H :    0.015791
  28 C :   -0.019792
  29 H :    0.009677
  30 H :    0.047257
  31 H :    0.022713
  32 H :    0.024744
  33 H :    0.057992
Sum of atomic charges:   -0.0000000

LOEWDIN ATOMIC CHARGES
----------------------
   0 S :    0.417195
   1 C :   -0.187095
   2 C :   -0.058335
   3 C :   -0.059333
   4 C :   -0.203277
   5 H :    0.023589
   6 C :   -0.036825
   7 H :    0.034052
   8 H :    0.033290
   9 C :   -0.044566
  10 H :    0.019163
  11 H :    0.029661
  12 C :   -0.081921
  13 H :    0.036876
  14 H :    0.030830
  15 H :    0.025441
  16 S :    0.442937
  17 C :   -0.203794
  18 C :   -0.070632
  19 C :   -0.061907
  20 C :   -0.214352
  21 H :    0.032019
  22 C :   -0.033619
  23 H :    0.027013
  24 H :    0.041143
  25 C :   -0.032560
  26 H :    0.029025
  27 H :    0.010582
  28 C :   -0.063658
  29 H :    0.021023
  30 H :    0.028606
  31 H :    0.020623
  32 H :    0.013104
  33 H :    0.035699

  Mayer bond orders larger than 0.100000
B(  0-S ,  1-C ) :   1.1578 B(  0-S ,  4-C ) :   1.1479 B(  1-C ,  2-C ) :   1.5649
B(  1-C ,  4-C ) :   0.1018 B(  1-C , 32-H ) :   0.9704 B(  2-C ,  3-C ) :   1.2651
B(  2-C ,  6-C ) :   1.0309 B(  3-C ,  4-C ) :   1.5655 B(  3-C ,  5-H ) :   0.9955
B(  4-C , 20-C ) :   1.0175 B(  6-C ,  7-H ) :   0.9419 B(  6-C ,  8-H ) :   0.9444
B(  6-C ,  9-C ) :   1.0720 B(  9-C , 10-H ) :   0.9622 B(  9-C , 11-H ) :   0.9637
B(  9-C , 12-C ) :   1.0508 B( 12-C , 13-H ) :   0.9782 B( 12-C , 14-H ) :   0.9786
B( 12-C , 15-H ) :   0.9765 B( 16-S , 17-C ) :   1.1360 B( 16-S , 20-C ) :   1.1748
B( 17-C , 18-C ) :   1.6543 B( 17-C , 33-H ) :   0.9649 B( 18-C , 19-C ) :   1.2046
B( 18-C , 21-H ) :   0.9857 B( 19-C , 20-C ) :   1.5833 B( 19-C , 22-C ) :   1.0462
B( 22-C , 23-H ) :   0.9322 B( 22-C , 24-H ) :   0.9378 B( 22-C , 25-C ) :   1.0741
B( 25-C , 26-H ) :   0.9538 B( 25-C , 27-H ) :   0.9620 B( 25-C , 28-C ) :   1.0786
B( 28-C , 29-H ) :   0.9663 B( 28-C , 30-H ) :   0.9703 B( 28-C , 31-H ) :   0.9718

Dispersion correction           -0.014830106
FINAL SINGLE POINT ENERGY     -1339.867455051318

DIPOLE MOMENT
-------------
                                X             Y             Z
Electronic contribution:     -8.94478     -24.76651       3.77851
Nuclear contribution   :      8.92297      25.37991      -4.01698
                        -----------------------------------------
Total Dipole Moment    :     -0.02181       0.61341      -0.23847
                        -----------------------------------------
Magnitude (a.u.)       :      0.65849
Magnitude (Debye)      :      1.67375

Rotational constants in cm-1:     0.018378     0.009262     0.007405
Rotational constants in MHz :   550.955758   277.666725   221.994103

                             ****ORCA TERMINATED NORMALLY****
TOTAL RUN TIME: 0 days 0 hours 0 minutes 31 seconds 279 msec
