                         Program Version 4.2.1 -  RELEASE  -
|  1> ! wB97X-D3 SP def2-SVP
|  2> %pal
|  3> nprocs 16
|  4> end
|  5>
|  6> * xyz 0 1
|  7> S 	 -9.42766 	 67.0801 	 52.6369
|  8> C 	 -10.0899 	 65.5 	 52.4493
|  9> C 	 -9.67075 	 64.5862 	 53.3646
| 10> C 	 -8.81009 	 65.2415 	 54.3431
| 11> C 	 -8.61208 	 66.5726 	 54.0654
| 12> H 	 -8.25872 	 64.7956 	 55.1033
| 13> C 	 -10.3368 	 63.2036 	 53.5977
| 14> H 	 -10.5038 	 62.8171 	 52.639
| 15> H 	 -11.3463 	 63.2979 	 54.0099
| 16> C 	 -9.51079 	 62.2008 	 54.5202
| 17> H 	 -8.5745 	 61.9317 	 54.0103
| 18> H 	 -9.07071 	 62.7684 	 55.3054
| 19> C 	 -10.3285 	 60.933 	 54.9273
| 20> H 	 -11.1036 	 60.643 	 54.2552
| 21> H 	 -9.7983 	 60.0414 	 55.1195
| 22> H 	 -10.8586 	 61.1081 	 55.77
| 23> S 	 -6.484 	 68.3199 	 53.8747
| 24> C 	 -5.94908 	 69.3118 	 55.2049
| 25> C 	 -6.76774 	 69.0107 	 56.3268
| 26> C 	 -7.82029 	 68.0426 	 56.0884
| 27> C 	 -7.79893 	 67.5581 	 54.7741
| 28> H 	 -6.41468 	 69.5987 	 57.2508
| 29> C 	 -8.87603 	 67.6928 	 57.0497
| 30> H 	 -8.49288 	 67.5344 	 58.0566
| 31> H 	 -9.20009 	 66.7198 	 56.6966
| 32> C 	 -10.0382 	 68.671 	 57.0608
| 33> H 	 -10.3663 	 68.6124 	 56.0514
| 34> H 	 -9.7028 	 69.7288 	 57.3302
| 35> C 	 -11.2082 	 68.2147 	 57.9347
| 36> H 	 -10.8435 	 67.9484 	 58.8586
| 37> H 	 -11.733 	 67.3154 	 57.7143
| 38> H 	 -11.9381 	 68.9769 	 58.2196
| 39> H 	 -10.8887 	 65.3236 	 51.7154
| 40> H 	 -5.04568 	 69.952 	 55.3046
| 41> *
| 42>
| 43>                          ****END OF INPUT****

CARTESIAN COORDINATES (ANGSTROEM)
---------------------------------
  S     -9.427660   67.080100   52.636900
  C    -10.089900   65.500000   52.449300
  C     -9.670750   64.586200   53.364600
  C     -8.810090   65.241500   54.343100
  C     -8.612080   66.572600   54.065400
  H     -8.258720   64.795600   55.103300
  C    -10.336800   63.203600   53.597700
  H    -10.503800   62.817100   52.639000
  H    -11.346300   63.297900   54.009900
  C     -9.510790   62.200800   54.520200
  H     -8.574500   61.931700   54.010300
  H     -9.070710   62.768400   55.305400
  C    -10.328500   60.933000   54.927300
  H    -11.103600   60.643000   54.255200
  H     -9.798300   60.041400   55.119500
  H    -10.858600   61.108100   55.770000
  S     -6.484000   68.319900   53.874700
  C     -5.949080   69.311800   55.204900
  C     -6.767740   69.010700   56.326800
  C     -7.820290   68.042600   56.088400
  C     -7.798930   67.558100   54.774100
  H     -6.414680   69.598700   57.250800
  C     -8.876030   67.692800   57.049700
  H     -8.492880   67.534400   58.056600
  H     -9.200090   66.719800   56.696600
  C    -10.038200   68.671000   57.060800
  H    -10.366300   68.612400   56.051400
  H     -9.702800   69.728800   57.330200
  C    -11.208200   68.214700   57.934700
  H    -10.843500   67.948400   58.858600
  H    -11.733000   67.315400   57.714300
  H    -11.938100   68.976900   58.219600
  H    -10.888700   65.323600   51.715400
  H     -5.045680   69.952000   55.304600

 Total Charge           Charge          ....    0
 Multiplicity           Mult            ....    1
 Number of Electrons    NEL             ....  134
 Basis Dimension        Dim             ....  322

ORBITAL ENERGIES
----------------

  NO   OCC          E(Eh)            E(eV)
   0   2.0000     -88.967212     -2420.9209
   1   2.0000     -88.964858     -2420.8569
   2   2.0000     -10.328796      -281.0608
   3   2.0000     -10.328611      -281.0558
   4   2.0000     -10.322459      -280.8884
   5   2.0000     -10.312207      -280.6094
   6   2.0000     -10.306403      -280.4515
   7   2.0000     -10.305124      -280.4167
   8   2.0000     -10.303870      -280.3825
   9   2.0000     -10.296540      -280.1831
  10   2.0000     -10.294297      -280.1221
  11   2.0000     -10.293341      -280.0961
  12   2.0000     -10.285006      -279.8692
  13   2.0000     -10.282812      -279.8095
  14   2.0000     -10.269547      -279.4486
  15   2.0000     -10.264555      -279.3127
  16   2.0000      -8.083175      -219.9544
  17   2.0000      -8.079155      -219.8450
  18   2.0000      -6.041524      -164.3982
  19   2.0000      -6.037677      -164.2935
  20   2.0000      -6.037528      -164.2895
  21   2.0000      -6.033995      -164.1933
  22   2.0000      -6.033488      -164.1796
  23   2.0000      -6.030139      -164.0884
  24   2.0000      -1.010801       -27.5053
  25   2.0000      -0.982862       -26.7450
  26   2.0000      -0.913744       -24.8642
  27   2.0000      -0.904216       -24.6050
  28   2.0000      -0.869419       -23.6581
  29   2.0000      -0.852813       -23.2062
  30   2.0000      -0.845908       -23.0183
  31   2.0000      -0.816147       -22.2085
  32   2.0000      -0.786919       -21.4131
  33   2.0000      -0.774914       -21.0865
  34   2.0000      -0.722917       -19.6716
  35   2.0000      -0.703505       -19.1434
  36   2.0000      -0.690904       -18.8004
  37   2.0000      -0.657222       -17.8839
  38   2.0000      -0.646106       -17.5814
  39   2.0000      -0.623752       -16.9732
  40   2.0000      -0.589115       -16.0306
  41   2.0000      -0.567324       -15.4377
  42   2.0000      -0.562800       -15.3146
  43   2.0000      -0.556270       -15.1369
  44   2.0000      -0.525354       -14.2956
  45   2.0000      -0.518803       -14.1174
  46   2.0000      -0.516481       -14.0542
  47   2.0000      -0.511863       -13.9285
  48   2.0000      -0.506373       -13.7791
  49   2.0000      -0.502095       -13.6627
  50   2.0000      -0.496579       -13.5126
  51   2.0000      -0.478953       -13.0330
  52   2.0000      -0.475531       -12.9399
  53   2.0000      -0.471933       -12.8419
  54   2.0000      -0.457563       -12.4509
  55   2.0000      -0.455377       -12.3914
  56   2.0000      -0.442815       -12.0496
  57   2.0000      -0.438579       -11.9343
  58   2.0000      -0.429409       -11.6848
  59   2.0000      -0.425972       -11.5913
  60   2.0000      -0.420797       -11.4505
  61   2.0000      -0.419101       -11.4043
  62   2.0000      -0.412279       -11.2187
  63   2.0000      -0.344945        -9.3864
  64   2.0000      -0.333712        -9.0808
  65   2.0000      -0.325943        -8.8694
  66   2.0000      -0.297373        -8.0919
  67   0.0000       0.036640         0.9970
  68   0.0000       0.061890         1.6841
  69   0.0000       0.114302         3.1103
  70   0.0000       0.119613         3.2548
  71   0.0000       0.130809         3.5595

MULLIKEN ATOMIC CHARGES
-----------------------
   0 S :    0.128797
   1 C :   -0.132385
   2 C :   -0.065199
   3 C :    0.054037
   4 C :   -0.182022
   5 H :   -0.001687
   6 C :    0.063747
   7 H :    0.014228
   8 H :    0.044302
   9 C :   -0.085999
  10 H :    0.027900
  11 H :    0.020902
  12 C :    0.017250
  13 H :    0.017747
  14 H :    0.023148
  15 H :    0.005302
  16 S :    0.107484
  17 C :   -0.121148
  18 C :   -0.089000
  19 C :   -0.018198
  20 C :   -0.165215
  21 H :    0.047847
  22 C :    0.088129
  23 H :    0.016782
  24 H :    0.001730
  25 C :   -0.053922
  26 H :    0.022502
  27 H :    0.042967
  28 C :    0.007782
  29 H :   -0.015625
  30 H :    0.018078
  31 H :    0.030185
  32 H :    0.052308
  33 H :    0.077250
Sum of atomic charges:   -0.0000000

LOEWDIN ATOMIC CHARGES
----------------------
   0 S :    0.431309
   1 C :   -0.200199
   2 C :   -0.063083
   3 C :   -0.055380
   4 C :   -0.202636
   5 H :    0.020444
   6 C :   -0.022037
   7 H :    0.021812
   8 H :    0.033896
   9 C :   -0.036664
  10 H :    0.027099
  11 H :    0.017288
  12 C :   -0.056688
  13 H :    0.026982
  14 H :    0.025540
  15 H :    0.014979
  16 S :    0.405778
  17 C :   -0.207254
  18 C :   -0.086091
  19 C :   -0.055372
  20 C :   -0.201403
  21 H :    0.045216
  22 C :   -0.035562
  23 H :    0.026092
  24 H :    0.029287
  25 C :   -0.032265
  26 H :    0.022496
  27 H :    0.034406
  28 C :   -0.069038
  29 H :    0.012598
  30 H :    0.024583
  31 H :    0.030774
  32 H :    0.029719
  33 H :    0.043376

  Mayer bond orders larger than 0.100000
B(  0-S ,  1-C ) :   1.1454 B(  0-S ,  4-C ) :   1.1596 B(  1-C ,  2-C ) :   1.6449
B(  1-C , 32-H ) :   0.9651 B(  2-C ,  3-C ) :   1.2072 B(  2-C ,  6-C ) :   1.0101
B(  3-C ,  4-C ) :   1.6118 B(  3-C ,  5-H ) :   0.9967 B(  4-C , 20-C ) :   1.0082
B(  6-C ,  7-H ) :   0.9358 B(  6-C ,  8-H ) :   0.9521 B(  6-C ,  9-C ) :   1.0523
B(  9-C , 10-H ) :   0.9633 B(  9-C , 11-H ) :   0.9603 B(  9-C , 12-C ) :   1.0626
B( 12-C , 13-H ) :   0.9757 B( 12-C , 14-H ) :   0.9747 B( 12-C , 15-H ) :   0.9718
B( 16-S , 17-C ) :   1.1584 B( 16-S , 20-C ) :   1.1511 B( 17-C , 18-C ) :   1.6092
B( 17-C , 20-C ) :   0.1066 B( 17-C , 33-H ) :   0.9622 B( 18-C , 19-C ) :   1.2245
B( 18-C , 21-H ) :   0.9793 B( 19-C , 20-C ) :   1.5764 B( 19-C , 22-C ) :   1.0657
B( 22-C , 23-H ) :   0.9220 B( 22-C , 24-H ) :   0.9179 B( 22-C , 25-C ) :   1.0694
B( 25-C , 26-H ) :   0.9533 B( 25-C , 27-H ) :   0.9556 B( 25-C , 28-C ) :   1.0811
B( 28-C , 29-H ) :   0.9628 B( 28-C , 30-H ) :   0.9710 B( 28-C , 31-H ) :   0.9726

Dispersion correction           -0.013838999
FINAL SINGLE POINT ENERGY     -1339.855340513672

DIPOLE MOMENT
-------------
                                X             Y             Z
Electronic contribution:     14.98798      16.95496     -17.42202
Nuclear contribution   :    -15.27467     -17.37027      17.91228
                        -----------------------------------------
Total Dipole Moment    :     -0.28669      -0.41531       0.49026
                        -----------------------------------------
Magnitude (a.u.)       :      0.70358
Magnitude (Debye)      :      1.78836

Rotational constants in cm-1:     0.017562     0.008207     0.006909
Rotational constants in MHz :   526.498063   246.040534   207.123871

                             ****ORCA TERMINATED NORMALLY****
TOTAL RUN TIME: 0 days 0 hours 0 minutes 32 seconds 820 msec
