                         Program Version 4.2.1 -  RELEASE  -
|  1> ! wB97X-D3 SP def2-SVP
|  2> %pal
|  3> nprocs 16
|  4> end
|  5>
|  6> * xyz 0 1
|  7> S 	 53.9738 	 27.6283 	 43.1626
|  8> C 	 55.3248 	 27.7703 	 44.2589
|  9> C 	 56.2218 	 26.7047 	 44.1532
| 10> C 	 55.7001 	 25.7557 	 43.256
| 11> C 	 54.5227 	 26.0981 	 42.654
| 12> H 	 56.1835 	 24.8466 	 42.9616
| 13> C 	 57.446 	 26.4224 	 45.0133
| 14> H 	 58.2194 	 27.1703 	 44.8635
| 15> H 	 57.8995 	 25.5169 	 44.6539
| 16> C 	 57.1273 	 26.119 	 46.5209
| 17> H 	 57.9117 	 25.6558 	 47.0421
| 18> H 	 56.9119 	 27.0851 	 46.915
| 19> C 	 55.9829 	 25.1987 	 46.7381
| 20> H 	 55.0852 	 25.298 	 46.0174
| 21> H 	 56.3864 	 24.2437 	 46.4387
| 22> H 	 55.6214 	 25.1076 	 47.7569
| 23> S 	 52.0039 	 25.3315 	 42.1195
| 24> C 	 51.6844 	 24.3463 	 40.7511
| 25> C 	 52.815 	 23.8883 	 40.1615
| 26> C 	 54.0005 	 24.4368 	 40.753
| 27> C 	 53.711 	 25.2394 	 41.8506
| 28> H 	 52.848 	 23.1919 	 39.3812
| 29> C 	 55.3599 	 24.1599 	 40.0979
| 30> H 	 56.1233 	 24.8667 	 40.4656
| 31> H 	 55.2058 	 24.4631 	 39.0782
| 32> C 	 55.9334 	 22.7317 	 40.2692
| 33> H 	 55.2808 	 22.0067 	 39.7813
| 34> H 	 55.957 	 22.417 	 41.3128
| 35> C 	 57.3622 	 22.6108 	 39.6908
| 36> H 	 57.8054 	 21.6447 	 39.9698
| 37> H 	 57.9986 	 23.471 	 40.0363
| 38> H 	 57.4 	 22.5531 	 38.6028
| 39> H 	 55.4765 	 28.5943 	 44.9294
| 40> H 	 50.7044 	 24.0382 	 40.4692
| 41> *
| 42>
| 43>                          ****END OF INPUT****

CARTESIAN COORDINATES (ANGSTROEM)
---------------------------------
  S     53.973800   27.628300   43.162600
  C     55.324800   27.770300   44.258900
  C     56.221800   26.704700   44.153200
  C     55.700100   25.755700   43.256000
  C     54.522700   26.098100   42.654000
  H     56.183500   24.846600   42.961600
  C     57.446000   26.422400   45.013300
  H     58.219400   27.170300   44.863500
  H     57.899500   25.516900   44.653900
  C     57.127300   26.119000   46.520900
  H     57.911700   25.655800   47.042100
  H     56.911900   27.085100   46.915000
  C     55.982900   25.198700   46.738100
  H     55.085200   25.298000   46.017400
  H     56.386400   24.243700   46.438700
  H     55.621400   25.107600   47.756900
  S     52.003900   25.331500   42.119500
  C     51.684400   24.346300   40.751100
  C     52.815000   23.888300   40.161500
  C     54.000500   24.436800   40.753000
  C     53.711000   25.239400   41.850600
  H     52.848000   23.191900   39.381200
  C     55.359900   24.159900   40.097900
  H     56.123300   24.866700   40.465600
  H     55.205800   24.463100   39.078200
  C     55.933400   22.731700   40.269200
  H     55.280800   22.006700   39.781300
  H     55.957000   22.417000   41.312800
  C     57.362200   22.610800   39.690800
  H     57.805400   21.644700   39.969800
  H     57.998600   23.471000   40.036300
  H     57.400000   22.553100   38.602800
  H     55.476500   28.594300   44.929400
  H     50.704400   24.038200   40.469200

 Total Charge           Charge          ....    0
 Multiplicity           Mult            ....    1
 Number of Electrons    NEL             ....  134
 Basis Dimension        Dim             ....  322

ORBITAL ENERGIES
----------------

  NO   OCC          E(Eh)            E(eV)
   0   2.0000     -88.968419     -2420.9538
   1   2.0000     -88.963366     -2420.8163
   2   2.0000     -10.320847      -280.8445
   3   2.0000     -10.318931      -280.7924
   4   2.0000     -10.311700      -280.5956
   5   2.0000     -10.309905      -280.5468
   6   2.0000     -10.300752      -280.2977
   7   2.0000     -10.299973      -280.2765
   8   2.0000     -10.293020      -280.0873
   9   2.0000     -10.292800      -280.0813
  10   2.0000     -10.291111      -280.0354
  11   2.0000     -10.286357      -279.9060
  12   2.0000     -10.284729      -279.8617
  13   2.0000     -10.284718      -279.8614
  14   2.0000     -10.278462      -279.6912
  15   2.0000     -10.271627      -279.5052
  16   2.0000      -8.083912      -219.9744
  17   2.0000      -8.079358      -219.8505
  18   2.0000      -6.042221      -164.4172
  19   2.0000      -6.038254      -164.3093
  20   2.0000      -6.037787      -164.2965
  21   2.0000      -6.034892      -164.2178
  22   2.0000      -6.033687      -164.1850
  23   2.0000      -6.030123      -164.0880
  24   2.0000      -1.016814       -27.6689
  25   2.0000      -0.990513       -26.9532
  26   2.0000      -0.915573       -24.9140
  27   2.0000      -0.906059       -24.6551
  28   2.0000      -0.873666       -23.7736
  29   2.0000      -0.855384       -23.2762
  30   2.0000      -0.848181       -23.0802
  31   2.0000      -0.813722       -22.1425
  32   2.0000      -0.784475       -21.3466
  33   2.0000      -0.772394       -21.0179
  34   2.0000      -0.706003       -19.2113
  35   2.0000      -0.702202       -19.1079
  36   2.0000      -0.694975       -18.9112
  37   2.0000      -0.668297       -18.1853
  38   2.0000      -0.641009       -17.4427
  39   2.0000      -0.616727       -16.7820
  40   2.0000      -0.599551       -16.3146
  41   2.0000      -0.578007       -15.7284
  42   2.0000      -0.563102       -15.3228
  43   2.0000      -0.553212       -15.0537
  44   2.0000      -0.550594       -14.9824
  45   2.0000      -0.524766       -14.2796
  46   2.0000      -0.517254       -14.0752
  47   2.0000      -0.510703       -13.8969
  48   2.0000      -0.500601       -13.6220
  49   2.0000      -0.498105       -13.5541
  50   2.0000      -0.491672       -13.3791
  51   2.0000      -0.477096       -12.9825
  52   2.0000      -0.468343       -12.7443
  53   2.0000      -0.467635       -12.7250
  54   2.0000      -0.459350       -12.4995
  55   2.0000      -0.453850       -12.3499
  56   2.0000      -0.446507       -12.1501
  57   2.0000      -0.439574       -11.9614
  58   2.0000      -0.436265       -11.8714
  59   2.0000      -0.423343       -11.5197
  60   2.0000      -0.422907       -11.5079
  61   2.0000      -0.417920       -11.3722
  62   2.0000      -0.407189       -11.0802
  63   2.0000      -0.352713        -9.5978
  64   2.0000      -0.335440        -9.1278
  65   2.0000      -0.330878        -9.0036
  66   2.0000      -0.286274        -7.7899
  67   0.0000       0.030404         0.8273
  68   0.0000       0.079458         2.1622
  69   0.0000       0.111923         3.0456
  70   0.0000       0.124355         3.3839
  71   0.0000       0.130230         3.5437

MULLIKEN ATOMIC CHARGES
-----------------------
   0 S :    0.130025
   1 C :   -0.133581
   2 C :   -0.082820
   3 C :    0.007964
   4 C :   -0.138943
   5 H :   -0.003838
   6 C :    0.082979
   7 H :    0.037497
   8 H :    0.003713
   9 C :   -0.023037
  10 H :    0.024060
  11 H :    0.017698
  12 C :   -0.081708
  13 H :    0.058321
  14 H :    0.007979
  15 H :    0.040735
  16 S :    0.104992
  17 C :   -0.070264
  18 C :   -0.000167
  19 C :   -0.049733
  20 C :   -0.149734
  21 H :   -0.006512
  22 C :    0.055021
  23 H :    0.018789
  24 H :    0.028878
  25 C :   -0.063131
  26 H :    0.023543
  27 H :    0.034884
  28 C :   -0.064614
  29 H :    0.033953
  30 H :    0.041861
  31 H :    0.031630
  32 H :    0.039649
  33 H :    0.043908
Sum of atomic charges:   -0.0000000

LOEWDIN ATOMIC CHARGES
----------------------
   0 S :    0.433624
   1 C :   -0.197744
   2 C :   -0.060838
   3 C :   -0.064644
   4 C :   -0.211096
   5 H :    0.025800
   6 C :   -0.024660
   7 H :    0.032644
   8 H :    0.023720
   9 C :   -0.031965
  10 H :    0.021856
  11 H :    0.014449
  12 C :   -0.072861
  13 H :    0.037930
  14 H :    0.019769
  15 H :    0.026540
  16 S :    0.421630
  17 C :   -0.186018
  18 C :   -0.062453
  19 C :   -0.054706
  20 C :   -0.203770
  21 H :    0.021517
  22 C :   -0.033168
  23 H :    0.028637
  24 H :    0.031234
  25 C :   -0.039502
  26 H :    0.021938
  27 H :    0.025647
  28 C :   -0.070707
  29 H :    0.027839
  30 H :    0.030102
  31 H :    0.024069
  32 H :    0.021939
  33 H :    0.023245

  Mayer bond orders larger than 0.100000
B(  0-S ,  1-C ) :   1.1526 B(  0-S ,  4-C ) :   1.1611 B(  1-C ,  2-C ) :   1.5709
B(  1-C , 32-H ) :   0.9735 B(  2-C ,  3-C ) :   1.2690 B(  2-C ,  6-C ) :   1.0250
B(  3-C ,  4-C ) :   1.5491 B(  3-C ,  5-H ) :   0.9987 B(  4-C , 20-C ) :   1.0584
B(  6-C ,  7-H ) :   0.9401 B(  6-C ,  8-H ) :   0.9400 B(  6-C ,  9-C ) :   1.0599
B(  9-C , 10-H ) :   0.9601 B(  9-C , 11-H ) :   0.9577 B(  9-C , 12-C ) :   1.0739
B( 12-C , 13-H ) :   0.9689 B( 12-C , 14-H ) :   0.9762 B( 12-C , 15-H ) :   0.9733
B( 16-S , 17-C ) :   1.1565 B( 16-S , 20-C ) :   1.1400 B( 17-C , 18-C ) :   1.5977
B( 17-C , 33-H ) :   0.9708 B( 18-C , 19-C ) :   1.2493 B( 18-C , 21-H ) :   1.0014
B( 19-C , 20-C ) :   1.5913 B( 19-C , 22-C ) :   1.0381 B( 22-C , 23-H ) :   0.9350
B( 22-C , 24-H ) :   0.9357 B( 22-C , 25-C ) :   1.0564 B( 25-C , 26-H ) :   0.9527
B( 25-C , 27-H ) :   0.9576 B( 25-C , 28-C ) :   1.0830 B( 28-C , 29-H ) :   0.9744
B( 28-C , 30-H ) :   0.9743 B( 28-C , 31-H ) :   0.9760

Dispersion correction           -0.014548436
FINAL SINGLE POINT ENERGY     -1339.887694566701

DIPOLE MOMENT
-------------
                                X             Y             Z
Electronic contribution:    -22.30667      14.05662      -3.46621
Nuclear contribution   :     22.76087     -14.47406       3.38114
                        -----------------------------------------
Total Dipole Moment    :      0.45420      -0.41744      -0.08507
                        -----------------------------------------
Magnitude (a.u.)       :      0.62273
Magnitude (Debye)      :      1.58285

Rotational constants in cm-1:     0.017133     0.009489     0.007067
Rotational constants in MHz :   513.626735   284.469803   211.875371

                             ****ORCA TERMINATED NORMALLY****
TOTAL RUN TIME: 0 days 0 hours 0 minutes 30 seconds 256 msec
