                         Program Version 4.2.1 -  RELEASE  -
|  1> ! wB97X-D3 SP def2-SVP
|  2> %pal
|  3> nprocs 16
|  4> end
|  5>
|  6> * xyz 0 1
|  7> S 	 51.2746 	 14.1521 	 82.6777
|  8> C 	 50.4224 	 14.0252 	 84.3002
|  9> C 	 49.5242 	 15.0701 	 84.5265
| 10> C 	 49.5191 	 15.9353 	 83.3403
| 11> C 	 50.426 	 15.6209 	 82.3486
| 12> H 	 48.8522 	 16.8121 	 83.1085
| 13> C 	 48.5481 	 15.1836 	 85.6586
| 14> H 	 48.0159 	 16.1757 	 85.4449
| 15> H 	 49.1392 	 15.3937 	 86.6353
| 16> C 	 47.4726 	 14.0708 	 85.9032
| 17> H 	 46.5129 	 14.4629 	 86.2638
| 18> H 	 47.2316 	 13.5311 	 84.9923
| 19> C 	 47.9107 	 13.1387 	 87.0585
| 20> H 	 47.1829 	 12.4692 	 87.4493
| 21> H 	 48.8412 	 12.5615 	 86.8937
| 22> H 	 48.1304 	 13.7505 	 87.9336
| 23> S 	 50.1184 	 15.2465 	 79.7148
| 24> C 	 50.3899 	 16.6106 	 78.6332
| 25> C 	 50.3956 	 17.7993 	 79.3044
| 26> C 	 50.6105 	 17.5873 	 80.7291
| 27> C 	 50.5222 	 16.2804 	 81.0523
| 28> H 	 50.4838 	 18.6775 	 78.7198
| 29> C 	 51.0083 	 18.82 	 81.6049
| 30> H 	 51.9346 	 19.1166 	 81.1457
| 31> H 	 51.3493 	 18.5589 	 82.6055
| 32> C 	 49.8643 	 19.8889 	 81.7402
| 33> H 	 48.8864 	 19.5062 	 81.9864
| 34> H 	 49.655 	 20.2553 	 80.7824
| 35> C 	 50.2015 	 21.0071 	 82.7832
| 36> H 	 49.5693 	 21.8439 	 82.6795
| 37> H 	 51.224 	 21.2822 	 82.8108
| 38> H 	 49.9044 	 20.6659 	 83.7061
| 39> H 	 50.6164 	 13.1469 	 84.9081
| 40> H 	 50.3792 	 16.4553 	 77.5514
| 41> *
| 42>
| 43>                          ****END OF INPUT****

CARTESIAN COORDINATES (ANGSTROEM)
---------------------------------
  S     51.274600   14.152100   82.677700
  C     50.422400   14.025200   84.300200
  C     49.524200   15.070100   84.526500
  C     49.519100   15.935300   83.340300
  C     50.426000   15.620900   82.348600
  H     48.852200   16.812100   83.108500
  C     48.548100   15.183600   85.658600
  H     48.015900   16.175700   85.444900
  H     49.139200   15.393700   86.635300
  C     47.472600   14.070800   85.903200
  H     46.512900   14.462900   86.263800
  H     47.231600   13.531100   84.992300
  C     47.910700   13.138700   87.058500
  H     47.182900   12.469200   87.449300
  H     48.841200   12.561500   86.893700
  H     48.130400   13.750500   87.933600
  S     50.118400   15.246500   79.714800
  C     50.389900   16.610600   78.633200
  C     50.395600   17.799300   79.304400
  C     50.610500   17.587300   80.729100
  C     50.522200   16.280400   81.052300
  H     50.483800   18.677500   78.719800
  C     51.008300   18.820000   81.604900
  H     51.934600   19.116600   81.145700
  H     51.349300   18.558900   82.605500
  C     49.864300   19.888900   81.740200
  H     48.886400   19.506200   81.986400
  H     49.655000   20.255300   80.782400
  C     50.201500   21.007100   82.783200
  H     49.569300   21.843900   82.679500
  H     51.224000   21.282200   82.810800
  H     49.904400   20.665900   83.706100
  H     50.616400   13.146900   84.908100
  H     50.379200   16.455300   77.551400

 Total Charge           Charge          ....    0
 Multiplicity           Mult            ....    1
 Number of Electrons    NEL             ....  134
 Basis Dimension        Dim             ....  322

ORBITAL ENERGIES
----------------

  NO   OCC          E(Eh)            E(eV)
   0   2.0000     -88.963543     -2420.8211
   1   2.0000     -88.958801     -2420.6920
   2   2.0000     -10.323018      -280.9036
   3   2.0000     -10.321533      -280.8632
   4   2.0000     -10.318272      -280.7744
   5   2.0000     -10.316497      -280.7262
   6   2.0000     -10.311113      -280.5797
   7   2.0000     -10.308208      -280.5006
   8   2.0000     -10.304417      -280.3974
   9   2.0000     -10.298055      -280.2243
  10   2.0000     -10.296053      -280.1699
  11   2.0000     -10.294863      -280.1375
  12   2.0000     -10.292263      -280.0667
  13   2.0000     -10.286711      -279.9156
  14   2.0000     -10.278247      -279.6853
  15   2.0000     -10.267540      -279.3940
  16   2.0000      -8.077580      -219.8021
  17   2.0000      -8.074373      -219.7149
  18   2.0000      -6.036108      -164.2509
  19   2.0000      -6.032892      -164.1633
  20   2.0000      -6.032274      -164.1465
  21   2.0000      -6.029029      -164.0582
  22   2.0000      -6.028277      -164.0377
  23   2.0000      -6.024783      -163.9427
  24   2.0000      -1.005888       -27.3716
  25   2.0000      -0.975972       -26.5575
  26   2.0000      -0.907184       -24.6857
  27   2.0000      -0.900814       -24.5124
  28   2.0000      -0.867112       -23.5953
  29   2.0000      -0.850316       -23.1383
  30   2.0000      -0.842047       -22.9133
  31   2.0000      -0.809293       -22.0220
  32   2.0000      -0.782660       -21.2973
  33   2.0000      -0.774487       -21.0749
  34   2.0000      -0.714703       -19.4481
  35   2.0000      -0.708422       -19.2771
  36   2.0000      -0.691913       -18.8279
  37   2.0000      -0.663070       -18.0431
  38   2.0000      -0.638232       -17.3672
  39   2.0000      -0.608001       -16.5445
  40   2.0000      -0.595048       -16.1921
  41   2.0000      -0.567033       -15.4298
  42   2.0000      -0.556027       -15.1303
  43   2.0000      -0.544940       -14.8286
  44   2.0000      -0.534757       -14.5515
  45   2.0000      -0.530015       -14.4224
  46   2.0000      -0.518749       -14.1159
  47   2.0000      -0.509224       -13.8567
  48   2.0000      -0.498916       -13.5762
  49   2.0000      -0.494157       -13.4467
  50   2.0000      -0.485758       -13.2181
  51   2.0000      -0.476115       -12.9557
  52   2.0000      -0.470828       -12.8119
  53   2.0000      -0.463267       -12.6061
  54   2.0000      -0.455781       -12.4024
  55   2.0000      -0.451588       -12.2883
  56   2.0000      -0.449070       -12.2198
  57   2.0000      -0.440345       -11.9824
  58   2.0000      -0.435452       -11.8493
  59   2.0000      -0.429231       -11.6800
  60   2.0000      -0.425656       -11.5827
  61   2.0000      -0.410495       -11.1701
  62   2.0000      -0.407653       -11.0928
  63   2.0000      -0.340418        -9.2632
  64   2.0000      -0.331858        -9.0303
  65   2.0000      -0.324272        -8.8239
  66   2.0000      -0.297472        -8.0946
  67   0.0000       0.034059         0.9268
  68   0.0000       0.071154         1.9362
  69   0.0000       0.103245         2.8095
  70   0.0000       0.113010         3.0751
  71   0.0000       0.130453         3.5498

MULLIKEN ATOMIC CHARGES
-----------------------
   0 S :    0.089934
   1 C :   -0.143401
   2 C :   -0.052545
   3 C :    0.012033
   4 C :   -0.164884
   5 H :    0.029174
   6 C :    0.003061
   7 H :    0.035977
   8 H :    0.056568
   9 C :   -0.028099
  10 H :    0.032357
  11 H :    0.042245
  12 C :   -0.071874
  13 H :    0.027321
  14 H :    0.032230
  15 H :    0.019632
  16 S :    0.092428
  17 C :   -0.105413
  18 C :   -0.012748
  19 C :   -0.054099
  20 C :   -0.138421
  21 H :    0.015504
  22 C :    0.080862
  23 H :    0.033051
  24 H :    0.018468
  25 C :   -0.062879
  26 H :    0.019431
  27 H :    0.008216
  28 C :    0.012905
  29 H :    0.015432
  30 H :    0.030151
  31 H :    0.009153
  32 H :    0.056030
  33 H :    0.062201
Sum of atomic charges:   -0.0000000

LOEWDIN ATOMIC CHARGES
----------------------
   0 S :    0.375567
   1 C :   -0.166036
   2 C :   -0.063893
   3 C :   -0.069243
   4 C :   -0.206568
   5 H :    0.039123
   6 C :   -0.044582
   7 H :    0.039842
   8 H :    0.045963
   9 C :   -0.036258
  10 H :    0.030104
  11 H :    0.027090
  12 C :   -0.071380
  13 H :    0.020584
  14 H :    0.023617
  15 H :    0.023924
  16 S :    0.390199
  17 C :   -0.168624
  18 C :   -0.066358
  19 C :   -0.053993
  20 C :   -0.202972
  21 H :    0.027184
  22 C :   -0.022948
  23 H :    0.032726
  24 H :    0.026930
  25 C :   -0.030442
  26 H :    0.024218
  27 H :    0.011757
  28 C :   -0.050903
  29 H :    0.023772
  30 H :    0.022494
  31 H :    0.017321
  32 H :    0.023768
  33 H :    0.028018

  Mayer bond orders larger than 0.100000
B(  0-S ,  1-C ) :   1.1235 B(  0-S ,  4-C ) :   1.1413 B(  1-C ,  2-C ) :   1.6143
B(  1-C , 32-H ) :   0.9732 B(  2-C ,  3-C ) :   1.2066 B(  2-C ,  6-C ) :   1.0316
B(  3-C ,  4-C ) :   1.6248 B(  3-C ,  5-H ) :   0.9766 B(  4-C , 20-C ) :   1.0043
B(  6-C ,  7-H ) :   0.9430 B(  6-C ,  8-H ) :   0.9382 B(  6-C ,  9-C ) :   1.0380
B(  9-C , 10-H ) :   0.9588 B(  9-C , 11-H ) :   0.9635 B(  9-C , 12-C ) :   1.0701
B( 12-C , 13-H ) :   0.9742 B( 12-C , 14-H ) :   0.9786 B( 12-C , 15-H ) :   0.9739
B( 16-S , 17-C ) :   1.1357 B( 16-S , 20-C ) :   1.1320 B( 17-C , 18-C ) :   1.6603
B( 17-C , 33-H ) :   0.9683 B( 18-C , 19-C ) :   1.1762 B( 18-C , 21-H ) :   0.9926
B( 19-C , 20-C ) :   1.6830 B( 19-C , 22-C ) :   1.0225 B( 22-C , 23-H ) :   0.9397
B( 22-C , 24-H ) :   0.9465 B( 22-C , 25-C ) :   1.0387 B( 25-C , 26-H ) :   0.9593
B( 25-C , 27-H ) :   0.9601 B( 25-C , 28-C ) :   1.0799 B( 28-C , 29-H ) :   0.9711
B( 28-C , 30-H ) :   0.9780 B( 28-C , 31-H ) :   0.9740

Dispersion correction           -0.013789554
FINAL SINGLE POINT ENERGY     -1339.857033225445

DIPOLE MOMENT
-------------
                                X             Y             Z
Electronic contribution:     10.59971     -14.00084     -20.12606
Nuclear contribution   :    -10.99574      14.50517      20.42416
                        -----------------------------------------
Total Dipole Moment    :     -0.39603       0.50433       0.29810
                        -----------------------------------------
Magnitude (a.u.)       :      0.70715
Magnitude (Debye)      :      1.79742

Rotational constants in cm-1:     0.018330     0.007994     0.006196
Rotational constants in MHz :   549.520123   239.660766   185.765557

                             ****ORCA TERMINATED NORMALLY****
TOTAL RUN TIME: 0 days 0 hours 0 minutes 29 seconds 144 msec
