                         Program Version 4.2.1 -  RELEASE  -
|  1> ! wB97X-D3 SP def2-SVP
|  2> %pal
|  3> nprocs 16
|  4> end
|  5>
|  6> * xyz 0 1
|  7> S 	 -4.94676 	 -11.1552 	 86.6438
|  8> C 	 -4.18799 	 -12.5139 	 87.5136
|  9> C 	 -3.99559 	 -13.5788 	 86.6328
| 10> C 	 -4.36728 	 -13.3021 	 85.3001
| 11> C 	 -4.77165 	 -11.9774 	 85.1766
| 12> H 	 -4.35633 	 -14 	 84.5206
| 13> C 	 -3.39027 	 -14.9101 	 87.0329
| 14> H 	 -3.68444 	 -14.9354 	 88.1194
| 15> H 	 -2.29055 	 -14.8554 	 87.0435
| 16> C 	 -4.00734 	 -16.1866 	 86.2938
| 17> H 	 -5.03634 	 -16.062 	 86.0355
| 18> H 	 -3.44273 	 -16.2388 	 85.3437
| 19> C 	 -3.77146 	 -17.414 	 87.1354
| 20> H 	 -4.13082 	 -18.2907 	 86.6203
| 21> H 	 -2.68874 	 -17.4183 	 87.2947
| 22> H 	 -4.15526 	 -17.4463 	 88.1795
| 23> S 	 -3.84191 	 -10.4843 	 83.0401
| 24> C 	 -4.80937 	 -10.2636 	 81.6291
| 25> C 	 -6.03249 	 -10.8957 	 81.7385
| 26> C 	 -6.21901 	 -11.4153 	 83.0806
| 27> C 	 -5.09357 	 -11.3388 	 83.8989
| 28> H 	 -6.41645 	 -11.2159 	 80.845
| 29> C 	 -7.47231 	 -12.1023 	 83.4664
| 30> H 	 -8.23601 	 -11.7272 	 82.7855
| 31> H 	 -7.75837 	 -11.8114 	 84.4803
| 32> C 	 -7.40835 	 -13.6297 	 83.3252
| 33> H 	 -6.43654 	 -14.0204 	 83.7764
| 34> H 	 -7.36383 	 -13.9323 	 82.2393
| 35> C 	 -8.63741 	 -14.216 	 83.9932
| 36> H 	 -8.61634 	 -15.259 	 83.7199
| 37> H 	 -9.52776 	 -13.8721 	 83.5182
| 38> H 	 -8.71409 	 -14.0699 	 85.0128
| 39> H 	 -3.93167 	 -12.5455 	 88.5951
| 40> H 	 -4.53468 	 -10.0621 	 80.6346
| 41> *
| 42>
| 43>                          ****END OF INPUT****

CARTESIAN COORDINATES (ANGSTROEM)
---------------------------------
  S     -4.946760  -11.155200   86.643800
  C     -4.187990  -12.513900   87.513600
  C     -3.995590  -13.578800   86.632800
  C     -4.367280  -13.302100   85.300100
  C     -4.771650  -11.977400   85.176600
  H     -4.356330  -14.000000   84.520600
  C     -3.390270  -14.910100   87.032900
  H     -3.684440  -14.935400   88.119400
  H     -2.290550  -14.855400   87.043500
  C     -4.007340  -16.186600   86.293800
  H     -5.036340  -16.062000   86.035500
  H     -3.442730  -16.238800   85.343700
  C     -3.771460  -17.414000   87.135400
  H     -4.130820  -18.290700   86.620300
  H     -2.688740  -17.418300   87.294700
  H     -4.155260  -17.446300   88.179500
  S     -3.841910  -10.484300   83.040100
  C     -4.809370  -10.263600   81.629100
  C     -6.032490  -10.895700   81.738500
  C     -6.219010  -11.415300   83.080600
  C     -5.093570  -11.338800   83.898900
  H     -6.416450  -11.215900   80.845000
  C     -7.472310  -12.102300   83.466400
  H     -8.236010  -11.727200   82.785500
  H     -7.758370  -11.811400   84.480300
  C     -7.408350  -13.629700   83.325200
  H     -6.436540  -14.020400   83.776400
  H     -7.363830  -13.932300   82.239300
  C     -8.637410  -14.216000   83.993200
  H     -8.616340  -15.259000   83.719900
  H     -9.527760  -13.872100   83.518200
  H     -8.714090  -14.069900   85.012800
  H     -3.931670  -12.545500   88.595100
  H     -4.534680  -10.062100   80.634600

 Total Charge           Charge          ....    0
 Multiplicity           Mult            ....    1
 Number of Electrons    NEL             ....  134
 Basis Dimension        Dim             ....  322

ORBITAL ENERGIES
----------------

  NO   OCC          E(Eh)            E(eV)
   0   2.0000     -88.970528     -2421.0111
   1   2.0000     -88.962363     -2420.7890
   2   2.0000     -10.327423      -281.0235
   3   2.0000     -10.321077      -280.8508
   4   2.0000     -10.317636      -280.7571
   5   2.0000     -10.307723      -280.4874
   6   2.0000     -10.300266      -280.2845
   7   2.0000     -10.299223      -280.2561
   8   2.0000     -10.298886      -280.2469
   9   2.0000     -10.293879      -280.1107
  10   2.0000     -10.290287      -280.0130
  11   2.0000     -10.289956      -280.0039
  12   2.0000     -10.283423      -279.8262
  13   2.0000     -10.281144      -279.7641
  14   2.0000     -10.280881      -279.7570
  15   2.0000     -10.264771      -279.3186
  16   2.0000      -8.085471      -220.0169
  17   2.0000      -8.077450      -219.7986
  18   2.0000      -6.043865      -164.4619
  19   2.0000      -6.039900      -164.3540
  20   2.0000      -6.036385      -164.2584
  21   2.0000      -6.035987      -164.2475
  22   2.0000      -6.031782      -164.1331
  23   2.0000      -6.028272      -164.0376
  24   2.0000      -1.009387       -27.4668
  25   2.0000      -0.985718       -26.8227
  26   2.0000      -0.911061       -24.7912
  27   2.0000      -0.910574       -24.7780
  28   2.0000      -0.870985       -23.7007
  29   2.0000      -0.853233       -23.2177
  30   2.0000      -0.849854       -23.1257
  31   2.0000      -0.818405       -22.2699
  32   2.0000      -0.779926       -21.2229
  33   2.0000      -0.765633       -20.8339
  34   2.0000      -0.714309       -19.4373
  35   2.0000      -0.698076       -18.9956
  36   2.0000      -0.687523       -18.7085
  37   2.0000      -0.659912       -17.9571
  38   2.0000      -0.641450       -17.4547
  39   2.0000      -0.624452       -16.9922
  40   2.0000      -0.590788       -16.0762
  41   2.0000      -0.577801       -15.7228
  42   2.0000      -0.567505       -15.4426
  43   2.0000      -0.557918       -15.1817
  44   2.0000      -0.535928       -14.5833
  45   2.0000      -0.523801       -14.2534
  46   2.0000      -0.521181       -14.1820
  47   2.0000      -0.511563       -13.9203
  48   2.0000      -0.501269       -13.6402
  49   2.0000      -0.492424       -13.3995
  50   2.0000      -0.488969       -13.3055
  51   2.0000      -0.482854       -13.1391
  52   2.0000      -0.480804       -13.0833
  53   2.0000      -0.473404       -12.8820
  54   2.0000      -0.459720       -12.5096
  55   2.0000      -0.453296       -12.3348
  56   2.0000      -0.442364       -12.0373
  57   2.0000      -0.436781       -11.8854
  58   2.0000      -0.432154       -11.7595
  59   2.0000      -0.430138       -11.7047
  60   2.0000      -0.412779       -11.2323
  61   2.0000      -0.411896       -11.2083
  62   2.0000      -0.410792       -11.1782
  63   2.0000      -0.335554        -9.1309
  64   2.0000      -0.324297        -8.8246
  65   2.0000      -0.315264        -8.5788
  66   2.0000      -0.310899        -8.4600
  67   0.0000       0.043219         1.1761
  68   0.0000       0.052742         1.4352
  69   0.0000       0.112907         3.0724
  70   0.0000       0.118179         3.2158
  71   0.0000       0.130533         3.5520

MULLIKEN ATOMIC CHARGES
-----------------------
   0 S :    0.138172
   1 C :   -0.149418
   2 C :   -0.087083
   3 C :    0.069291
   4 C :   -0.175357
   5 H :    0.003171
   6 C :    0.014210
   7 H :    0.024541
   8 H :    0.057110
   9 C :   -0.080482
  10 H :    0.033273
  11 H :    0.043790
  12 C :   -0.040858
  13 H :    0.036112
  14 H :    0.026392
  15 H :    0.039819
  16 S :    0.115512
  17 C :   -0.066233
  18 C :   -0.029278
  19 C :   -0.055837
  20 C :   -0.165099
  21 H :    0.006150
  22 C :    0.086704
  23 H :    0.016311
  24 H :    0.022693
  25 C :   -0.120359
  26 H :    0.027306
  27 H :    0.028055
  28 C :    0.026190
  29 H :    0.019306
  30 H :    0.011877
  31 H :    0.027338
  32 H :    0.058933
  33 H :    0.037745
Sum of atomic charges:    0.0000000

LOEWDIN ATOMIC CHARGES
----------------------
   0 S :    0.433767
   1 C :   -0.208288
   2 C :   -0.062958
   3 C :   -0.053109
   4 C :   -0.212457
   5 H :    0.021377
   6 C :   -0.037030
   7 H :    0.032913
   8 H :    0.036170
   9 C :   -0.037822
  10 H :    0.019785
  11 H :    0.029782
  12 C :   -0.067296
  13 H :    0.024720
  14 H :    0.027927
  15 H :    0.029930
  16 S :    0.422249
  17 C :   -0.188111
  18 C :   -0.070561
  19 C :   -0.050988
  20 C :   -0.215033
  21 H :    0.019889
  22 C :   -0.037486
  23 H :    0.030257
  24 H :    0.030218
  25 C :   -0.040079
  26 H :    0.026088
  27 H :    0.026567
  28 C :   -0.055027
  29 H :    0.026399
  30 H :    0.022344
  31 H :    0.016596
  32 H :    0.035996
  33 H :    0.023271

  Mayer bond orders larger than 0.100000
B(  0-S ,  1-C ) :   1.1301 B(  0-S ,  4-C ) :   1.1980 B(  1-C ,  2-C ) :   1.5996
B(  1-C ,  4-C ) :   0.1023 B(  1-C , 32-H ) :   0.9661 B(  2-C ,  3-C ) :   1.2638
B(  2-C ,  6-C ) :   1.0067 B(  3-C ,  4-C ) :   1.5355 B(  3-C ,  5-H ) :   0.9965
B(  4-C , 20-C ) :   0.9955 B(  6-C ,  7-H ) :   0.9486 B(  6-C ,  8-H ) :   0.9381
B(  6-C ,  9-C ) :   1.0489 B(  9-C , 10-H ) :   0.9652 B(  9-C , 11-H ) :   0.9463
B(  9-C , 12-C ) :   1.0865 B( 12-C , 13-H ) :   0.9722 B( 12-C , 14-H ) :   0.9713
B( 12-C , 15-H ) :   0.9761 B( 16-S , 17-C ) :   1.1718 B( 16-S , 20-C ) :   1.1355
B( 17-C , 18-C ) :   1.6376 B( 17-C , 33-H ) :   0.9610 B( 18-C , 19-C ) :   1.2397
B( 18-C , 21-H ) :   0.9864 B( 19-C , 20-C ) :   1.6117 B( 19-C , 22-C ) :   1.0604
B( 22-C , 23-H ) :   0.9242 B( 22-C , 24-H ) :   0.9331 B( 22-C , 25-C ) :   1.0627
B( 25-C , 26-H ) :   0.9526 B( 25-C , 27-H ) :   0.9509 B( 25-C , 28-C ) :   1.0872
B( 28-C , 29-H ) :   0.9689 B( 28-C , 30-H ) :   0.9665 B( 28-C , 31-H ) :   0.9761

Dispersion correction           -0.014819707
FINAL SINGLE POINT ENERGY     -1339.857684521776

DIPOLE MOMENT
-------------
                                X             Y             Z
Electronic contribution:      9.02764      27.95185      -2.74733
Nuclear contribution   :     -9.13788     -28.79717       2.66816
                        -----------------------------------------
Total Dipole Moment    :     -0.11024      -0.84532      -0.07917
                        -----------------------------------------
Magnitude (a.u.)       :      0.85614
Magnitude (Debye)      :      2.17614

Rotational constants in cm-1:     0.017991     0.008965     0.007441
Rotational constants in MHz :   539.342153   268.772215   223.069822

                             ****ORCA TERMINATED NORMALLY****
TOTAL RUN TIME: 0 days 0 hours 0 minutes 34 seconds 902 msec
