                         Program Version 4.2.1 -  RELEASE  -
|  1> ! wB97X-D3 SP def2-SVP
|  2> %pal
|  3> nprocs 16
|  4> end
|  5>
|  6> * xyz 0 1
|  7> S 	 -74.5389 	 48.9554 	 138.359
|  8> C 	 -74.9148 	 50.6334 	 138.292
|  9> C 	 -73.8981 	 51.4583 	 137.902
| 10> C 	 -72.6954 	 50.7188 	 137.924
| 11> C 	 -72.86 	 49.3044 	 138.09
| 12> H 	 -71.7203 	 51.0212 	 137.683
| 13> C 	 -73.9737 	 52.9693 	 137.878
| 14> H 	 -74.3608 	 53.3571 	 138.814
| 15> H 	 -74.7435 	 53.2117 	 137.104
| 16> C 	 -72.7497 	 53.6954 	 137.371
| 17> H 	 -71.8518 	 53.3827 	 137.883
| 18> H 	 -72.5514 	 53.4399 	 136.367
| 19> C 	 -72.9125 	 55.1787 	 137.383
| 20> H 	 -72.063 	 55.6149 	 136.972
| 21> H 	 -73.8834 	 55.4821 	 136.908
| 22> H 	 -72.891 	 55.502 	 138.391
| 23> S 	 -71.7272 	 47.2956 	 139.522
| 24> C 	 -70.5686 	 46.31 	 138.682
| 25> C 	 -70.0834 	 46.8744 	 137.536
| 26> C 	 -70.798 	 48.0605 	 137.172
| 27> C 	 -71.7902 	 48.338 	 138.097
| 28> H 	 -69.3569 	 46.3933 	 137.021
| 29> C 	 -70.6224 	 48.7419 	 135.834
| 30> H 	 -69.7077 	 48.3958 	 135.497
| 31> H 	 -70.4268 	 49.8076 	 135.952
| 32> C 	 -71.723 	 48.4693 	 134.78
| 33> H 	 -72.6668 	 48.7958 	 135.135
| 34> H 	 -71.8259 	 47.3642 	 134.607
| 35> C 	 -71.4303 	 49.1929 	 133.428
| 36> H 	 -70.6457 	 48.8116 	 132.81
| 37> H 	 -71.1998 	 50.2587 	 133.723
| 38> H 	 -72.322 	 49.1618 	 132.797
| 39> H 	 -75.871 	 51.0926 	 138.673
| 40> H 	 -70.1338 	 45.3737 	 138.985
| 41> *
| 42>
| 43>                          ****END OF INPUT****

CARTESIAN COORDINATES (ANGSTROEM)
---------------------------------
  S    -74.538900   48.955400  138.359000
  C    -74.914800   50.633400  138.292000
  C    -73.898100   51.458300  137.902000
  C    -72.695400   50.718800  137.924000
  C    -72.860000   49.304400  138.090000
  H    -71.720300   51.021200  137.683000
  C    -73.973700   52.969300  137.878000
  H    -74.360800   53.357100  138.814000
  H    -74.743500   53.211700  137.104000
  C    -72.749700   53.695400  137.371000
  H    -71.851800   53.382700  137.883000
  H    -72.551400   53.439900  136.367000
  C    -72.912500   55.178700  137.383000
  H    -72.063000   55.614900  136.972000
  H    -73.883400   55.482100  136.908000
  H    -72.891000   55.502000  138.391000
  S    -71.727200   47.295600  139.522000
  C    -70.568600   46.310000  138.682000
  C    -70.083400   46.874400  137.536000
  C    -70.798000   48.060500  137.172000
  C    -71.790200   48.338000  138.097000
  H    -69.356900   46.393300  137.021000
  C    -70.622400   48.741900  135.834000
  H    -69.707700   48.395800  135.497000
  H    -70.426800   49.807600  135.952000
  C    -71.723000   48.469300  134.780000
  H    -72.666800   48.795800  135.135000
  H    -71.825900   47.364200  134.607000
  C    -71.430300   49.192900  133.428000
  H    -70.645700   48.811600  132.810000
  H    -71.199800   50.258700  133.723000
  H    -72.322000   49.161800  132.797000
  H    -75.871000   51.092600  138.673000
  H    -70.133800   45.373700  138.985000

 Total Charge           Charge          ....    0
 Multiplicity           Mult            ....    1
 Number of Electrons    NEL             ....  134
 Basis Dimension        Dim             ....  322

ORBITAL ENERGIES
----------------

  NO   OCC          E(Eh)            E(eV)
   0   2.0000     -88.969422     -2420.9811
   1   2.0000     -88.965036     -2420.8617
   2   2.0000     -10.324732      -280.9502
   3   2.0000     -10.321601      -280.8650
   4   2.0000     -10.311055      -280.5781
   5   2.0000     -10.310140      -280.5532
   6   2.0000     -10.301498      -280.3180
   7   2.0000     -10.296245      -280.1751
   8   2.0000     -10.293116      -280.0899
   9   2.0000     -10.289938      -280.0035
  10   2.0000     -10.286480      -279.9093
  11   2.0000     -10.285359      -279.8788
  12   2.0000     -10.283628      -279.8317
  13   2.0000     -10.279777      -279.7269
  14   2.0000     -10.276808      -279.6462
  15   2.0000     -10.271140      -279.4919
  16   2.0000      -8.084393      -219.9875
  17   2.0000      -8.079858      -219.8641
  18   2.0000      -6.042727      -164.4310
  19   2.0000      -6.038810      -164.3244
  20   2.0000      -6.038302      -164.3105
  21   2.0000      -6.035384      -164.2311
  22   2.0000      -6.034471      -164.2063
  23   2.0000      -6.030565      -164.1000
  24   2.0000      -1.007550       -27.4168
  25   2.0000      -0.986174       -26.8352
  26   2.0000      -0.921264       -25.0689
  27   2.0000      -0.905517       -24.6404
  28   2.0000      -0.874325       -23.7916
  29   2.0000      -0.852900       -23.2086
  30   2.0000      -0.848886       -23.0994
  31   2.0000      -0.811972       -22.0949
  32   2.0000      -0.785907       -21.3856
  33   2.0000      -0.771749       -21.0004
  34   2.0000      -0.714873       -19.4527
  35   2.0000      -0.701076       -19.0773
  36   2.0000      -0.685937       -18.6653
  37   2.0000      -0.665711       -18.1149
  38   2.0000      -0.639234       -17.3944
  39   2.0000      -0.618784       -16.8380
  40   2.0000      -0.595025       -16.1915
  41   2.0000      -0.576874       -15.6975
  42   2.0000      -0.573233       -15.5985
  43   2.0000      -0.560031       -15.2392
  44   2.0000      -0.530351       -14.4316
  45   2.0000      -0.521721       -14.1968
  46   2.0000      -0.513570       -13.9750
  47   2.0000      -0.510476       -13.8908
  48   2.0000      -0.502641       -13.6776
  49   2.0000      -0.498680       -13.5698
  50   2.0000      -0.490942       -13.3592
  51   2.0000      -0.484256       -13.1773
  52   2.0000      -0.470725       -12.8091
  53   2.0000      -0.464435       -12.6379
  54   2.0000      -0.457245       -12.4423
  55   2.0000      -0.450494       -12.2586
  56   2.0000      -0.447162       -12.1679
  57   2.0000      -0.436059       -11.8658
  58   2.0000      -0.434106       -11.8126
  59   2.0000      -0.429896       -11.6981
  60   2.0000      -0.425513       -11.5788
  61   2.0000      -0.419322       -11.4103
  62   2.0000      -0.417509       -11.3610
  63   2.0000      -0.337823        -9.1926
  64   2.0000      -0.333732        -9.0813
  65   2.0000      -0.330610        -8.9964
  66   2.0000      -0.288108        -7.8398
  67   0.0000       0.025215         0.6861
  68   0.0000       0.074468         2.0264
  69   0.0000       0.110326         3.0021
  70   0.0000       0.123548         3.3619
  71   0.0000       0.134463         3.6589

MULLIKEN ATOMIC CHARGES
-----------------------
   0 S :    0.144241
   1 C :   -0.155530
   2 C :   -0.037342
   3 C :    0.032178
   4 C :   -0.177463
   5 H :   -0.013194
   6 C :    0.040885
   7 H :    0.038018
   8 H :    0.031275
   9 C :   -0.088448
  10 H :    0.024995
  11 H :    0.011830
  12 C :    0.017032
  13 H :    0.015275
  14 H :    0.035211
  15 H :    0.013778
  16 S :    0.117258
  17 C :   -0.067797
  18 C :   -0.013260
  19 C :   -0.021446
  20 C :   -0.191575
  21 H :   -0.027449
  22 C :    0.124436
  23 H :   -0.017232
  24 H :    0.015338
  25 C :   -0.054335
  26 H :    0.030328
  27 H :    0.033214
  28 C :   -0.062533
  29 H :    0.032611
  30 H :    0.032880
  31 H :    0.036869
  32 H :    0.059056
  33 H :    0.040895
Sum of atomic charges:    0.0000000

LOEWDIN ATOMIC CHARGES
----------------------
   0 S :    0.433321
   1 C :   -0.214041
   2 C :   -0.070677
   3 C :   -0.052814
   4 C :   -0.213247
   5 H :    0.016530
   6 C :   -0.031421
   7 H :    0.031034
   8 H :    0.039486
   9 C :   -0.042905
  10 H :    0.020226
  11 H :    0.018713
  12 C :   -0.051590
  13 H :    0.019873
  14 H :    0.031862
  15 H :    0.020043
  16 S :    0.401838
  17 C :   -0.180654
  18 C :   -0.058979
  19 C :   -0.046968
  20 C :   -0.194626
  21 H :    0.013626
  22 C :   -0.028087
  23 H :    0.018655
  24 H :    0.028234
  25 C :   -0.029609
  26 H :    0.020069
  27 H :    0.028802
  28 C :   -0.067594
  29 H :    0.019242
  30 H :    0.029731
  31 H :    0.028081
  32 H :    0.037362
  33 H :    0.026485

  Mayer bond orders larger than 0.100000
B(  0-S ,  1-C ) :   1.1650 B(  0-S ,  4-C ) :   1.1561 B(  1-C ,  2-C ) :   1.5839
B(  1-C ,  4-C ) :   0.1002 B(  1-C , 32-H ) :   0.9588 B(  2-C ,  3-C ) :   1.2740
B(  2-C ,  6-C ) :   1.0100 B(  3-C ,  4-C ) :   1.5276 B(  3-C ,  5-H ) :   0.9938
B(  4-C , 20-C ) :   1.0746 B(  6-C ,  7-H ) :   0.9491 B(  6-C ,  8-H ) :   0.9293
B(  6-C ,  9-C ) :   1.0834 B(  9-C , 10-H ) :   0.9415 B(  9-C , 11-H ) :   0.9519
B(  9-C , 12-C ) :   1.1004 B( 12-C , 13-H ) :   0.9660 B( 12-C , 14-H ) :   0.9708
B( 12-C , 15-H ) :   0.9710 B( 16-S , 17-C ) :   1.1411 B( 16-S , 20-C ) :   1.1367
B( 17-C , 18-C ) :   1.6431 B( 17-C , 33-H ) :   0.9628 B( 18-C , 19-C ) :   1.2183
B( 18-C , 21-H ) :   1.0054 B( 19-C , 20-C ) :   1.5948 B( 19-C , 22-C ) :   1.0516
B( 22-C , 23-H ) :   0.9174 B( 22-C , 24-H ) :   0.9222 B( 22-C , 25-C ) :   1.0620
B( 25-C , 26-H ) :   0.9573 B( 25-C , 27-H ) :   0.9545 B( 25-C , 28-C ) :   1.0756
B( 28-C , 29-H ) :   0.9790 B( 28-C , 30-H ) :   0.9746 B( 28-C , 31-H ) :   0.9753

Dispersion correction           -0.014218767
FINAL SINGLE POINT ENERGY     -1339.867288703678

DIPOLE MOMENT
-------------
                                X             Y             Z
Electronic contribution:     -5.18734     -22.19298      19.31116
Nuclear contribution   :      5.45216      22.56340     -19.68103
                        -----------------------------------------
Total Dipole Moment    :      0.26482       0.37042      -0.36987
                        -----------------------------------------
Magnitude (a.u.)       :      0.58664
Magnitude (Debye)      :      1.49111

Rotational constants in cm-1:     0.017522     0.008825     0.007132
Rotational constants in MHz :   525.291821   264.570301   213.810210

                             ****ORCA TERMINATED NORMALLY****
TOTAL RUN TIME: 0 days 0 hours 0 minutes 34 seconds 841 msec
