                         Program Version 4.2.1 -  RELEASE  -
|  1> ! wB97X-D3 SP def2-SVP
|  2> %pal
|  3> nprocs 16
|  4> end
|  5>
|  6> * xyz 0 1
|  7> S 	 -36.0122 	 70.7036 	 170.888
|  8> C 	 -34.4872 	 71.3703 	 171.109
|  9> C 	 -34.2986 	 72.0279 	 172.318
| 10> C 	 -35.4414 	 71.7727 	 173.186
| 11> C 	 -36.3755 	 70.8949 	 172.626
| 12> H 	 -35.5394 	 72.1014 	 174.234
| 13> C 	 -33.142 	 72.954 	 172.674
| 14> H 	 -32.2503 	 72.3695 	 172.923
| 15> H 	 -33.461 	 73.5247 	 173.521
| 16> C 	 -32.7444 	 73.9611 	 171.6
| 17> H 	 -32.3839 	 73.3195 	 170.79
| 18> H 	 -33.5613 	 74.3427 	 171.036
| 19> C 	 -31.7031 	 75.0009 	 172.041
| 20> H 	 -32.2336 	 75.5781 	 172.779
| 21> H 	 -30.8947 	 74.5721 	 172.524
| 22> H 	 -31.3395 	 75.7494 	 171.375
| 23> S 	 -38.976 	 70.312 	 172.211
| 24> C 	 -40.0461 	 69.8061 	 173.441
| 25> C 	 -39.3118 	 69.4088 	 174.552
| 26> C 	 -37.8926 	 69.6487 	 174.385
| 27> C 	 -37.6086 	 70.3437 	 173.238
| 28> H 	 -39.7715 	 68.8965 	 175.401
| 29> C 	 -36.9113 	 69.4472 	 175.517
| 30> H 	 -35.9445 	 69.8324 	 175.177
| 31> H 	 -36.7464 	 68.3428 	 175.716
| 32> C 	 -37.2159 	 70.1945 	 176.809
| 33> H 	 -36.5256 	 69.6929 	 177.542
| 34> H 	 -38.2366 	 69.9694 	 177.185
| 35> C 	 -36.9559 	 71.6801 	 176.757
| 36> H 	 -37.4011 	 72.0581 	 175.813
| 37> H 	 -35.8517 	 71.7316 	 176.798
| 38> H 	 -37.3489 	 72.2349 	 177.619
| 39> H 	 -33.8926 	 71.4079 	 170.193
| 40> H 	 -41.1141 	 69.6902 	 173.241
| 41> *
| 42>
| 43>                          ****END OF INPUT****

CARTESIAN COORDINATES (ANGSTROEM)
---------------------------------
  S    -36.012200   70.703600  170.888000
  C    -34.487200   71.370300  171.109000
  C    -34.298600   72.027900  172.318000
  C    -35.441400   71.772700  173.186000
  C    -36.375500   70.894900  172.626000
  H    -35.539400   72.101400  174.234000
  C    -33.142000   72.954000  172.674000
  H    -32.250300   72.369500  172.923000
  H    -33.461000   73.524700  173.521000
  C    -32.744400   73.961100  171.600000
  H    -32.383900   73.319500  170.790000
  H    -33.561300   74.342700  171.036000
  C    -31.703100   75.000900  172.041000
  H    -32.233600   75.578100  172.779000
  H    -30.894700   74.572100  172.524000
  H    -31.339500   75.749400  171.375000
  S    -38.976000   70.312000  172.211000
  C    -40.046100   69.806100  173.441000
  C    -39.311800   69.408800  174.552000
  C    -37.892600   69.648700  174.385000
  C    -37.608600   70.343700  173.238000
  H    -39.771500   68.896500  175.401000
  C    -36.911300   69.447200  175.517000
  H    -35.944500   69.832400  175.177000
  H    -36.746400   68.342800  175.716000
  C    -37.215900   70.194500  176.809000
  H    -36.525600   69.692900  177.542000
  H    -38.236600   69.969400  177.185000
  C    -36.955900   71.680100  176.757000
  H    -37.401100   72.058100  175.813000
  H    -35.851700   71.731600  176.798000
  H    -37.348900   72.234900  177.619000
  H    -33.892600   71.407900  170.193000
  H    -41.114100   69.690200  173.241000

 Total Charge           Charge          ....    0
 Multiplicity           Mult            ....    1
 Number of Electrons    NEL             ....  134
 Basis Dimension        Dim             ....  322

ORBITAL ENERGIES
----------------

  NO   OCC          E(Eh)            E(eV)
   0   2.0000     -88.965706     -2420.8799
   1   2.0000     -88.959107     -2420.7004
   2   2.0000     -10.335053      -281.2311
   3   2.0000     -10.324509      -280.9442
   4   2.0000     -10.317706      -280.7591
   5   2.0000     -10.312043      -280.6050
   6   2.0000     -10.306802      -280.4623
   7   2.0000     -10.302085      -280.3340
   8   2.0000     -10.301477      -280.3174
   9   2.0000     -10.297548      -280.2105
  10   2.0000     -10.292576      -280.0752
  11   2.0000     -10.291850      -280.0555
  12   2.0000     -10.287381      -279.9339
  13   2.0000     -10.282212      -279.7932
  14   2.0000     -10.281512      -279.7742
  15   2.0000     -10.271638      -279.5055
  16   2.0000      -8.081535      -219.9097
  17   2.0000      -8.076064      -219.7609
  18   2.0000      -6.039988      -164.3564
  19   2.0000      -6.036010      -164.2482
  20   2.0000      -6.034476      -164.2064
  21   2.0000      -6.032170      -164.1437
  22   2.0000      -6.030266      -164.0919
  23   2.0000      -6.026790      -163.9973
  24   2.0000      -1.012771       -27.5589
  25   2.0000      -0.990198       -26.9447
  26   2.0000      -0.913698       -24.8630
  27   2.0000      -0.912713       -24.8362
  28   2.0000      -0.869168       -23.6513
  29   2.0000      -0.853794       -23.2329
  30   2.0000      -0.846954       -23.0468
  31   2.0000      -0.815700       -22.1963
  32   2.0000      -0.781917       -21.2771
  33   2.0000      -0.773252       -21.0413
  34   2.0000      -0.713529       -19.4161
  35   2.0000      -0.697576       -18.9820
  36   2.0000      -0.688700       -18.7405
  37   2.0000      -0.659726       -17.9521
  38   2.0000      -0.643598       -17.5132
  39   2.0000      -0.616538       -16.7768
  40   2.0000      -0.600012       -16.3271
  41   2.0000      -0.569700       -15.5023
  42   2.0000      -0.562851       -15.3160
  43   2.0000      -0.556171       -15.1342
  44   2.0000      -0.542802       -14.7704
  45   2.0000      -0.525280       -14.2936
  46   2.0000      -0.516363       -14.0510
  47   2.0000      -0.513443       -13.9715
  48   2.0000      -0.506516       -13.7830
  49   2.0000      -0.499952       -13.6044
  50   2.0000      -0.491128       -13.3643
  51   2.0000      -0.481378       -13.0990
  52   2.0000      -0.470428       -12.8010
  53   2.0000      -0.466228       -12.6867
  54   2.0000      -0.460704       -12.5364
  55   2.0000      -0.450112       -12.2482
  56   2.0000      -0.446814       -12.1584
  57   2.0000      -0.442797       -12.0491
  58   2.0000      -0.439518       -11.9599
  59   2.0000      -0.430630       -11.7180
  60   2.0000      -0.414886       -11.2896
  61   2.0000      -0.407982       -11.1018
  62   2.0000      -0.403815       -10.9884
  63   2.0000      -0.355751        -9.6805
  64   2.0000      -0.331364        -9.0169
  65   2.0000      -0.324630        -8.8336
  66   2.0000      -0.288771        -7.8579
  67   0.0000       0.030004         0.8165
  68   0.0000       0.067891         1.8474
  69   0.0000       0.105569         2.8727
  70   0.0000       0.117396         3.1945
  71   0.0000       0.134173         3.6510

MULLIKEN ATOMIC CHARGES
-----------------------
   0 S :    0.112241
   1 C :   -0.135935
   2 C :   -0.088759
   3 C :    0.015185
   4 C :   -0.136142
   5 H :    0.014434
   6 C :    0.098071
   7 H :    0.044646
   8 H :    0.010454
   9 C :   -0.093167
  10 H :    0.010551
  11 H :    0.018082
  12 C :    0.012307
  13 H :    0.015189
  14 H :    0.012932
  15 H :    0.031850
  16 S :    0.088740
  17 C :   -0.090105
  18 C :   -0.042179
  19 C :   -0.044367
  20 C :   -0.152204
  21 H :    0.030351
  22 C :    0.035802
  23 H :    0.013825
  24 H :    0.045548
  25 C :   -0.092275
  26 H :    0.029299
  27 H :    0.026621
  28 C :   -0.059087
  29 H :    0.059453
  30 H :    0.038262
  31 H :    0.043087
  32 H :    0.058841
  33 H :    0.068450
Sum of atomic charges:    0.0000000

LOEWDIN ATOMIC CHARGES
----------------------
   0 S :    0.417953
   1 C :   -0.214112
   2 C :   -0.063234
   3 C :   -0.062487
   4 C :   -0.183629
   5 H :    0.033825
   6 C :   -0.025781
   7 H :    0.037275
   8 H :    0.023827
   9 C :   -0.045552
  10 H :    0.018556
  11 H :    0.020562
  12 C :   -0.055816
  13 H :    0.026523
  14 H :    0.016853
  15 H :    0.027607
  16 S :    0.428652
  17 C :   -0.195168
  18 C :   -0.073910
  19 C :   -0.065578
  20 C :   -0.208068
  21 H :    0.033513
  22 C :   -0.038147
  23 H :    0.027936
  24 H :    0.040722
  25 C :   -0.048114
  26 H :    0.027254
  27 H :    0.018527
  28 C :   -0.069746
  29 H :    0.031571
  30 H :    0.028551
  31 H :    0.030379
  32 H :    0.026106
  33 H :    0.033149

  Mayer bond orders larger than 0.100000
B(  0-S ,  1-C ) :   1.1720 B(  0-S ,  4-C ) :   1.1469 B(  1-C ,  2-C ) :   1.5810
B(  1-C , 32-H ) :   0.9672 B(  2-C ,  3-C ) :   1.2508 B(  2-C ,  6-C ) :   1.0197
B(  3-C ,  4-C ) :   1.5721 B(  3-C ,  5-H ) :   0.9841 B(  4-C , 20-C ) :   1.0369
B(  6-C ,  7-H ) :   0.9305 B(  6-C ,  8-H ) :   0.9458 B(  6-C ,  9-C ) :   1.0594
B(  9-C , 10-H ) :   0.9470 B(  9-C , 11-H ) :   0.9619 B(  9-C , 12-C ) :   1.0713
B( 12-C , 13-H ) :   0.9740 B( 12-C , 14-H ) :   0.9735 B( 12-C , 15-H ) :   0.9746
B( 16-S , 17-C ) :   1.1761 B( 16-S , 20-C ) :   1.1506 B( 17-C , 18-C ) :   1.5785
B( 17-C , 33-H ) :   0.9719 B( 18-C , 19-C ) :   1.2315 B( 18-C , 21-H ) :   0.9920
B( 19-C , 20-C ) :   1.5822 B( 19-C , 22-C ) :   1.0617 B( 22-C , 23-H ) :   0.9373
B( 22-C , 24-H ) :   0.9283 B( 22-C , 25-C ) :   1.0641 B( 25-C , 26-H ) :   0.9554
B( 25-C , 27-H ) :   0.9553 B( 25-C , 28-C ) :   1.0694 B( 28-C , 29-H ) :   0.9704
B( 28-C , 30-H ) :   0.9688 B( 28-C , 31-H ) :   0.9698

Dispersion correction           -0.014392293
FINAL SINGLE POINT ENERGY     -1339.874093238772

DIPOLE MOMENT
-------------
                                X             Y             Z
Electronic contribution:    -18.12184     -13.50209     -16.53398
Nuclear contribution   :     18.38705      13.66611      16.96555
                        -----------------------------------------
Total Dipole Moment    :      0.26522       0.16403       0.43157
                        -----------------------------------------
Magnitude (a.u.)       :      0.53245
Magnitude (Debye)      :      1.35338

Rotational constants in cm-1:     0.021704     0.007892     0.006225
Rotational constants in MHz :   650.655845   236.606790   186.614058

                             ****ORCA TERMINATED NORMALLY****
TOTAL RUN TIME: 0 days 0 hours 0 minutes 33 seconds 956 msec
