                         Program Version 4.2.1 -  RELEASE  -
|  1> ! wB97X-D3 SP def2-SVP
|  2> %pal
|  3> nprocs 16
|  4> end
|  5>
|  6> * xyz 0 1
|  7> S 	 -1.57669 	 -7.92318 	 87.1166
|  8> C 	 -0.455643 	 -9.30469 	 87.2267
|  9> C 	 -0.599109 	 -10.1525 	 86.1428
| 10> C 	 -1.52881 	 -9.69727 	 85.1442
| 11> C 	 -2.11816 	 -8.50617 	 85.5478
| 12> H 	 -1.70691 	 -10.0699 	 84.1429
| 13> C 	 0.165368 	 -11.4857 	 85.9628
| 14> H 	 0.723119 	 -11.7052 	 86.9185
| 15> H 	 1.00542 	 -11.2754 	 85.2858
| 16> C 	 -0.576526 	 -12.6996 	 85.5332
| 17> H 	 -1.41089 	 -12.7606 	 86.1799
| 18> H 	 -0.90232 	 -12.6998 	 84.4972
| 19> C 	 0.256126 	 -14.0541 	 85.6001
| 20> H 	 0.67213 	 -14.0758 	 86.5183
| 21> H 	 -0.422769 	 -14.9952 	 85.6047
| 22> H 	 1.10254 	 -14.1184 	 84.8334
| 23> S 	 -2.73165 	 -7.67305 	 83.0066
| 24> C 	 -4.079 	 -6.57112 	 82.8252
| 25> C 	 -5.01244 	 -6.72181 	 83.7949
| 26> C 	 -4.37456 	 -7.26882 	 84.9437
| 27> C 	 -3.06518 	 -7.70507 	 84.701
| 28> H 	 -5.99838 	 -6.40239 	 83.6159
| 29> C 	 -5.13684 	 -7.47184 	 86.1392
| 30> H 	 -5.78935 	 -6.6488 	 86.1693
| 31> H 	 -4.53129 	 -7.28416 	 87.0055
| 32> C 	 -5.98482 	 -8.76829 	 86.3497
| 33> H 	 -5.1736 	 -9.51931 	 86.2884
| 34> H 	 -6.7089 	 -8.81562 	 85.4739
| 35> C 	 -6.70415 	 -8.89884 	 87.6607
| 36> H 	 -6.03944 	 -8.68265 	 88.4936
| 37> H 	 -7.1295 	 -9.90103 	 87.7512
| 38> H 	 -7.46485 	 -8.08445 	 87.7508
| 39> H 	 0.192714 	 -9.52463 	 88.084
| 40> H 	 -4.19588 	 -6.09825 	 81.854
| 41> *
| 42>
| 43>                          ****END OF INPUT****

CARTESIAN COORDINATES (ANGSTROEM)
---------------------------------
  S     -1.576690   -7.923180   87.116600
  C     -0.455643   -9.304690   87.226700
  C     -0.599109  -10.152500   86.142800
  C     -1.528810   -9.697270   85.144200
  C     -2.118160   -8.506170   85.547800
  H     -1.706910  -10.069900   84.142900
  C      0.165368  -11.485700   85.962800
  H      0.723119  -11.705200   86.918500
  H      1.005420  -11.275400   85.285800
  C     -0.576526  -12.699600   85.533200
  H     -1.410890  -12.760600   86.179900
  H     -0.902320  -12.699800   84.497200
  C      0.256126  -14.054100   85.600100
  H      0.672130  -14.075800   86.518300
  H     -0.422769  -14.995200   85.604700
  H      1.102540  -14.118400   84.833400
  S     -2.731650   -7.673050   83.006600
  C     -4.079000   -6.571120   82.825200
  C     -5.012440   -6.721810   83.794900
  C     -4.374560   -7.268820   84.943700
  C     -3.065180   -7.705070   84.701000
  H     -5.998380   -6.402390   83.615900
  C     -5.136840   -7.471840   86.139200
  H     -5.789350   -6.648800   86.169300
  H     -4.531290   -7.284160   87.005500
  C     -5.984820   -8.768290   86.349700
  H     -5.173600   -9.519310   86.288400
  H     -6.708900   -8.815620   85.473900
  C     -6.704150   -8.898840   87.660700
  H     -6.039440   -8.682650   88.493600
  H     -7.129500   -9.901030   87.751200
  H     -7.464850   -8.084450   87.750800
  H      0.192714   -9.524630   88.084000
  H     -4.195880   -6.098250   81.854000

 Total Charge           Charge          ....    0
 Multiplicity           Mult            ....    1
 Number of Electrons    NEL             ....  134
 Basis Dimension        Dim             ....  322

ORBITAL ENERGIES
----------------

  NO   OCC          E(Eh)            E(eV)
   0   2.0000     -88.969501     -2420.9832
   1   2.0000     -88.962836     -2420.8018
   2   2.0000     -10.334884      -281.2265
   3   2.0000     -10.324951      -280.9562
   4   2.0000     -10.316027      -280.7134
   5   2.0000     -10.314445      -280.6703
   6   2.0000     -10.305896      -280.4377
   7   2.0000     -10.299083      -280.2523
   8   2.0000     -10.294797      -280.1357
   9   2.0000     -10.294709      -280.1333
  10   2.0000     -10.290609      -280.0217
  11   2.0000     -10.290166      -280.0097
  12   2.0000     -10.285669      -279.8873
  13   2.0000     -10.284119      -279.8451
  14   2.0000     -10.279554      -279.7209
  15   2.0000     -10.274138      -279.5735
  16   2.0000      -8.083130      -219.9531
  17   2.0000      -8.078491      -219.8269
  18   2.0000      -6.041725      -164.4037
  19   2.0000      -6.037874      -164.2989
  20   2.0000      -6.036812      -164.2700
  21   2.0000      -6.033796      -164.1879
  22   2.0000      -6.033433      -164.1780
  23   2.0000      -6.028846      -164.0532
  24   2.0000      -1.009656       -27.4741
  25   2.0000      -0.983655       -26.7666
  26   2.0000      -0.913334       -24.8531
  27   2.0000      -0.909434       -24.7469
  28   2.0000      -0.869207       -23.6523
  29   2.0000      -0.856228       -23.2991
  30   2.0000      -0.844498       -22.9799
  31   2.0000      -0.815374       -22.1874
  32   2.0000      -0.782116       -21.2825
  33   2.0000      -0.768598       -20.9146
  34   2.0000      -0.706122       -19.2146
  35   2.0000      -0.696673       -18.9574
  36   2.0000      -0.684667       -18.6307
  37   2.0000      -0.670703       -18.2507
  38   2.0000      -0.636046       -17.3077
  39   2.0000      -0.617417       -16.8008
  40   2.0000      -0.600042       -16.3280
  41   2.0000      -0.573056       -15.5936
  42   2.0000      -0.570219       -15.5164
  43   2.0000      -0.558290       -15.1918
  44   2.0000      -0.529726       -14.4146
  45   2.0000      -0.519523       -14.1369
  46   2.0000      -0.517490       -14.0816
  47   2.0000      -0.512470       -13.9450
  48   2.0000      -0.507632       -13.8134
  49   2.0000      -0.498689       -13.5700
  50   2.0000      -0.481695       -13.1076
  51   2.0000      -0.477695       -12.9987
  52   2.0000      -0.466361       -12.6903
  53   2.0000      -0.464819       -12.6484
  54   2.0000      -0.461763       -12.5652
  55   2.0000      -0.454905       -12.3786
  56   2.0000      -0.446233       -12.1426
  57   2.0000      -0.436207       -11.8698
  58   2.0000      -0.432628       -11.7724
  59   2.0000      -0.424717       -11.5571
  60   2.0000      -0.419639       -11.4190
  61   2.0000      -0.413681       -11.2568
  62   2.0000      -0.411802       -11.2057
  63   2.0000      -0.348941        -9.4952
  64   2.0000      -0.332100        -9.0369
  65   2.0000      -0.324688        -8.8352
  66   2.0000      -0.285053        -7.7567
  67   0.0000       0.027227         0.7409
  68   0.0000       0.063544         1.7291
  69   0.0000       0.095163         2.5895
  70   0.0000       0.113813         3.0970
  71   0.0000       0.130474         3.5504

MULLIKEN ATOMIC CHARGES
-----------------------
   0 S :    0.108768
   1 C :   -0.140430
   2 C :   -0.061032
   3 C :    0.000176
   4 C :   -0.133485
   5 H :    0.023857
   6 C :    0.046110
   7 H :    0.012854
   8 H :    0.035960
   9 C :   -0.059155
  10 H :    0.026393
  11 H :    0.035486
  12 C :   -0.065402
  13 H :    0.001088
  14 H :    0.049066
  15 H :    0.048210
  16 S :    0.086523
  17 C :   -0.095215
  18 C :    0.003701
  19 C :   -0.059419
  20 C :   -0.122717
  21 H :    0.009172
  22 C :    0.087260
  23 H :   -0.009923
  24 H :   -0.001923
  25 C :   -0.081221
  26 H :    0.037178
  27 H :    0.033312
  28 C :   -0.027037
  29 H :    0.027422
  30 H :    0.049403
  31 H :    0.027764
  32 H :    0.053397
  33 H :    0.053858
Sum of atomic charges:    0.0000000

LOEWDIN ATOMIC CHARGES
----------------------
   0 S :    0.391391
   1 C :   -0.201634
   2 C :   -0.054815
   3 C :   -0.077947
   4 C :   -0.175281
   5 H :    0.029738
   6 C :   -0.039637
   7 H :    0.031095
   8 H :    0.032959
   9 C :   -0.040552
  10 H :    0.022131
  11 H :    0.024481
  12 C :   -0.064788
  13 H :    0.002099
  14 H :    0.040093
  15 H :    0.034000
  16 S :    0.408598
  17 C :   -0.167060
  18 C :   -0.055886
  19 C :   -0.056089
  20 C :   -0.202424
  21 H :    0.029933
  22 C :   -0.045285
  23 H :    0.019571
  24 H :    0.022661
  25 C :   -0.037986
  26 H :    0.028688
  27 H :    0.027753
  28 C :   -0.067118
  29 H :    0.026056
  30 H :    0.032626
  31 H :    0.028014
  32 H :    0.032309
  33 H :    0.022307

  Mayer bond orders larger than 0.100000
B(  0-S ,  1-C ) :   1.1059 B(  0-S ,  4-C ) :   1.1617 B(  1-C ,  2-C ) :   1.6504
B(  1-C , 32-H ) :   0.9631 B(  2-C ,  3-C ) :   1.2085 B(  2-C ,  6-C ) :   1.0220
B(  3-C ,  4-C ) :   1.5912 B(  3-C ,  5-H ) :   0.9865 B(  4-C , 20-C ) :   1.0193
B(  6-C ,  7-H ) :   0.9408 B(  6-C ,  8-H ) :   0.9321 B(  6-C ,  9-C ) :   1.0709
B(  9-C , 10-H ) :   0.9579 B(  9-C , 11-H ) :   0.9498 B(  9-C , 12-C ) :   1.0757
B( 12-C , 13-H ) :   0.9753 B( 12-C , 14-H ) :   0.9751 B( 12-C , 15-H ) :   0.9763
B( 16-S , 17-C ) :   1.1648 B( 16-S , 20-C ) :   1.1392 B( 17-C , 18-C ) :   1.5963
B( 17-C , 33-H ) :   0.9709 B( 18-C , 19-C ) :   1.2208 B( 18-C , 21-H ) :   1.0083
B( 19-C , 20-C ) :   1.5612 B( 19-C , 22-C ) :   1.0862 B( 22-C , 23-H ) :   0.9111
B( 22-C , 24-H ) :   0.9134 B( 22-C , 25-C ) :   1.0485 B( 25-C , 26-H ) :   0.9554
B( 25-C , 27-H ) :   0.9525 B( 25-C , 28-C ) :   1.0896 B( 28-C , 29-H ) :   0.9707
B( 28-C , 30-H ) :   0.9711 B( 28-C , 31-H ) :   0.9719

Dispersion correction           -0.013899270
FINAL SINGLE POINT ENERGY     -1339.846790920914

DIPOLE MOMENT
-------------
                                X             Y             Z
Electronic contribution:      5.46142      20.21756      -7.97039
Nuclear contribution   :     -5.74975     -20.56482       7.95260
                        -----------------------------------------
Total Dipole Moment    :     -0.28833      -0.34725      -0.01779
                        -----------------------------------------
Magnitude (a.u.)       :      0.45170
Magnitude (Debye)      :      1.14813

Rotational constants in cm-1:     0.017791     0.007902     0.007013
Rotational constants in MHz :   533.354643   236.896812   210.253018

                             ****ORCA TERMINATED NORMALLY****
TOTAL RUN TIME: 0 days 0 hours 0 minutes 32 seconds 946 msec
