                         Program Version 4.2.1 -  RELEASE  -
|  1> ! wB97X-D3 SP def2-SVP
|  2> %pal
|  3> nprocs 16
|  4> end
|  5>
|  6> * xyz 0 1
|  7> S 	 -68.4899 	 37.4712 	 142.393
|  8> C 	 -69.5584 	 37.1003 	 141.065
|  9> C 	 -68.9248 	 37.3814 	 139.86
| 10> C 	 -67.6174 	 37.7961 	 140.046
| 11> C 	 -67.1545 	 37.8488 	 141.312
| 12> H 	 -66.8789 	 38.0877 	 139.314
| 13> C 	 -69.5209 	 37.1028 	 138.544
| 14> H 	 -70.346 	 36.4198 	 138.687
| 15> H 	 -68.8052 	 36.6623 	 137.821
| 16> C 	 -69.994 	 38.2702 	 137.688
| 17> H 	 -70.6687 	 38.8307 	 138.285
| 18> H 	 -69.1504 	 38.915 	 137.411
| 19> C 	 -70.6581 	 37.8244 	 136.452
| 20> H 	 -70.3217 	 36.8295 	 136.217
| 21> H 	 -71.7347 	 37.585 	 136.62
| 22> H 	 -70.5028 	 38.5379 	 135.651
| 23> S 	 -64.6258 	 37.0028 	 141.788
| 24> C 	 -63.4668 	 38.1001 	 142.461
| 25> C 	 -64.036 	 39.248 	 142.878
| 26> C 	 -65.4018 	 39.3752 	 142.583
| 27> C 	 -65.8439 	 38.3061 	 141.806
| 28> H 	 -63.4489 	 39.9335 	 143.48
| 29> C 	 -66.1557 	 40.6052 	 143.099
| 30> H 	 -67.0442 	 40.6897 	 142.436
| 31> H 	 -65.5661 	 41.423 	 142.809
| 32> C 	 -66.5903 	 40.66 	 144.614
| 33> H 	 -66.9697 	 41.6704 	 144.772
| 34> H 	 -65.7841 	 40.6353 	 145.355
| 35> C 	 -67.6249 	 39.5314 	 144.989
| 36> H 	 -68.4486 	 39.5369 	 144.274
| 37> H 	 -67.9959 	 39.7933 	 145.966
| 38> H 	 -67.2706 	 38.5559 	 145.001
| 39> H 	 -70.5553 	 36.8282 	 141.287
| 40> H 	 -62.4369 	 38.0215 	 142.406
| 41> *
| 42>
| 43>                          ****END OF INPUT****

CARTESIAN COORDINATES (ANGSTROEM)
---------------------------------
  S    -68.489900   37.471200  142.393000
  C    -69.558400   37.100300  141.065000
  C    -68.924800   37.381400  139.860000
  C    -67.617400   37.796100  140.046000
  C    -67.154500   37.848800  141.312000
  H    -66.878900   38.087700  139.314000
  C    -69.520900   37.102800  138.544000
  H    -70.346000   36.419800  138.687000
  H    -68.805200   36.662300  137.821000
  C    -69.994000   38.270200  137.688000
  H    -70.668700   38.830700  138.285000
  H    -69.150400   38.915000  137.411000
  C    -70.658100   37.824400  136.452000
  H    -70.321700   36.829500  136.217000
  H    -71.734700   37.585000  136.620000
  H    -70.502800   38.537900  135.651000
  S    -64.625800   37.002800  141.788000
  C    -63.466800   38.100100  142.461000
  C    -64.036000   39.248000  142.878000
  C    -65.401800   39.375200  142.583000
  C    -65.843900   38.306100  141.806000
  H    -63.448900   39.933500  143.480000
  C    -66.155700   40.605200  143.099000
  H    -67.044200   40.689700  142.436000
  H    -65.566100   41.423000  142.809000
  C    -66.590300   40.660000  144.614000
  H    -66.969700   41.670400  144.772000
  H    -65.784100   40.635300  145.355000
  C    -67.624900   39.531400  144.989000
  H    -68.448600   39.536900  144.274000
  H    -67.995900   39.793300  145.966000
  H    -67.270600   38.555900  145.001000
  H    -70.555300   36.828200  141.287000
  H    -62.436900   38.021500  142.406000

 Total Charge           Charge          ....    0
 Multiplicity           Mult            ....    1
 Number of Electrons    NEL             ....  134
 Basis Dimension        Dim             ....  322

ORBITAL ENERGIES
----------------

  NO   OCC          E(Eh)            E(eV)
   0   2.0000     -88.962193     -2420.7843
   1   2.0000     -88.960881     -2420.7486
   2   2.0000     -10.328498      -281.0527
   3   2.0000     -10.323572      -280.9187
   4   2.0000     -10.314083      -280.6605
   5   2.0000     -10.305152      -280.4174
   6   2.0000     -10.303592      -280.3750
   7   2.0000     -10.296731      -280.1883
   8   2.0000     -10.293909      -280.1115
   9   2.0000     -10.292408      -280.0707
  10   2.0000     -10.286164      -279.9007
  11   2.0000     -10.285628      -279.8862
  12   2.0000     -10.283658      -279.8325
  13   2.0000     -10.275207      -279.6026
  14   2.0000     -10.273342      -279.5518
  15   2.0000     -10.268145      -279.4104
  16   2.0000      -8.077018      -219.7868
  17   2.0000      -8.075572      -219.7475
  18   2.0000      -6.035526      -164.2350
  19   2.0000      -6.033935      -164.1917
  20   2.0000      -6.031624      -164.1288
  21   2.0000      -6.029959      -164.0835
  22   2.0000      -6.027663      -164.0211
  23   2.0000      -6.026584      -163.9917
  24   2.0000      -1.009141       -27.4601
  25   2.0000      -0.989677       -26.9305
  26   2.0000      -0.922415       -25.1002
  27   2.0000      -0.898691       -24.4546
  28   2.0000      -0.873602       -23.7719
  29   2.0000      -0.853693       -23.2302
  30   2.0000      -0.846210       -23.0265
  31   2.0000      -0.819225       -22.2923
  32   2.0000      -0.785008       -21.3611
  33   2.0000      -0.769521       -20.9397
  34   2.0000      -0.711566       -19.3627
  35   2.0000      -0.699796       -19.0424
  36   2.0000      -0.693500       -18.8711
  37   2.0000      -0.664820       -18.0907
  38   2.0000      -0.649037       -17.6612
  39   2.0000      -0.622284       -16.9332
  40   2.0000      -0.593041       -16.1375
  41   2.0000      -0.582012       -15.8374
  42   2.0000      -0.565836       -15.3972
  43   2.0000      -0.550770       -14.9872
  44   2.0000      -0.536062       -14.5870
  45   2.0000      -0.531817       -14.4715
  46   2.0000      -0.516267       -14.0483
  47   2.0000      -0.514251       -13.9935
  48   2.0000      -0.506073       -13.7709
  49   2.0000      -0.500812       -13.6278
  50   2.0000      -0.488651       -13.2969
  51   2.0000      -0.478340       -13.0163
  52   2.0000      -0.475060       -12.9270
  53   2.0000      -0.457581       -12.4514
  54   2.0000      -0.455252       -12.3880
  55   2.0000      -0.451164       -12.2768
  56   2.0000      -0.446007       -12.1365
  57   2.0000      -0.435191       -11.8421
  58   2.0000      -0.433120       -11.7858
  59   2.0000      -0.430008       -11.7011
  60   2.0000      -0.415603       -11.3091
  61   2.0000      -0.413275       -11.2458
  62   2.0000      -0.409257       -11.1365
  63   2.0000      -0.336617        -9.1598
  64   2.0000      -0.331740        -9.0271
  65   2.0000      -0.319030        -8.6812
  66   2.0000      -0.309086        -8.4107
  67   0.0000       0.036301         0.9878
  68   0.0000       0.059320         1.6142
  69   0.0000       0.107472         2.9245
  70   0.0000       0.123021         3.3476
  71   0.0000       0.126632         3.4458

MULLIKEN ATOMIC CHARGES
-----------------------
   0 S :    0.098212
   1 C :   -0.121701
   2 C :   -0.013759
   3 C :    0.038308
   4 C :   -0.157219
   5 H :    0.003794
   6 C :    0.032867
   7 H :    0.013813
   8 H :    0.028543
   9 C :   -0.061672
  10 H :    0.012430
  11 H :    0.026286
  12 C :   -0.019047
  13 H :    0.008700
  14 H :    0.028385
  15 H :    0.042381
  16 S :    0.103021
  17 C :   -0.044823
  18 C :   -0.052880
  19 C :   -0.013631
  20 C :   -0.207945
  21 H :    0.015968
  22 C :    0.072443
  23 H :    0.028735
  24 H :    0.015201
  25 C :   -0.058955
  26 H :    0.028744
  27 H :    0.025001
  28 C :   -0.029531
  29 H :    0.028230
  30 H :    0.026054
  31 H :    0.034038
  32 H :    0.039586
  33 H :    0.030424
Sum of atomic charges:   -0.0000000

LOEWDIN ATOMIC CHARGES
----------------------
   0 S :    0.420654
   1 C :   -0.180636
   2 C :   -0.069565
   3 C :   -0.058812
   4 C :   -0.203018
   5 H :    0.034495
   6 C :   -0.034223
   7 H :    0.027537
   8 H :    0.034919
   9 C :   -0.041768
  10 H :    0.015517
  11 H :    0.024285
  12 C :   -0.065292
  13 H :    0.020402
  14 H :    0.031220
  15 H :    0.029331
  16 S :    0.401361
  17 C :   -0.175522
  18 C :   -0.073415
  19 C :   -0.052483
  20 C :   -0.191407
  21 H :    0.032139
  22 C :   -0.029716
  23 H :    0.035290
  24 H :    0.024068
  25 C :   -0.032743
  26 H :    0.026359
  27 H :    0.021673
  28 C :   -0.060376
  29 H :    0.014700
  30 H :    0.025496
  31 H :    0.013460
  32 H :    0.019324
  33 H :    0.016745

  Mayer bond orders larger than 0.100000
B(  0-S ,  1-C ) :   1.1644 B(  0-S ,  4-C ) :   1.1394 B(  1-C ,  2-C ) :   1.5531
B(  1-C , 32-H ) :   0.9813 B(  2-C ,  3-C ) :   1.2437 B(  2-C ,  6-C ) :   1.0433
B(  3-C ,  4-C ) :   1.6020 B(  3-C ,  5-H ) :   0.9969 B(  4-C , 20-C ) :   0.9980
B(  6-C ,  7-H ) :   0.9416 B(  6-C ,  8-H ) :   0.9345 B(  6-C ,  9-C ) :   1.0689
B(  9-C , 10-H ) :   0.9505 B(  9-C , 11-H ) :   0.9560 B(  9-C , 12-C ) :   1.0917
B( 12-C , 13-H ) :   0.9670 B( 12-C , 14-H ) :   0.9681 B( 12-C , 15-H ) :   0.9738
B( 16-S , 17-C ) :   1.1498 B( 16-S , 20-C ) :   1.1502 B( 17-C , 18-C ) :   1.6298
B( 17-C , 20-C ) :   0.1024 B( 17-C , 33-H ) :   0.9680 B( 18-C , 19-C ) :   1.2372
B( 18-C , 21-H ) :   0.9888 B( 19-C , 20-C ) :   1.5948 B( 19-C , 22-C ) :   1.0300
B( 22-C , 23-H ) :   0.9370 B( 22-C , 24-H ) :   0.9354 B( 22-C , 25-C ) :   1.0657
B( 25-C , 26-H ) :   0.9564 B( 25-C , 27-H ) :   0.9587 B( 25-C , 28-C ) :   1.0628
B( 28-C , 29-H ) :   0.9729 B( 28-C , 30-H ) :   0.9712 B( 28-C , 31-H ) :   0.9786

Dispersion correction           -0.014571114
FINAL SINGLE POINT ENERGY     -1339.865347479549

DIPOLE MOMENT
-------------
                                X             Y             Z
Electronic contribution:     13.75306     -10.16442       7.56646
Nuclear contribution   :    -13.86592      10.57848      -7.68538
                        -----------------------------------------
Total Dipole Moment    :     -0.11286       0.41406      -0.11892
                        -----------------------------------------
Magnitude (a.u.)       :      0.44534
Magnitude (Debye)      :      1.13196

Rotational constants in cm-1:     0.022269     0.007622     0.006672
Rotational constants in MHz :   667.603942   228.491921   200.019223

                             ****ORCA TERMINATED NORMALLY****
TOTAL RUN TIME: 0 days 0 hours 0 minutes 35 seconds 112 msec
