                         Program Version 4.2.1 -  RELEASE  -
|  1> ! wB97X-D3 SP def2-SVP
|  2> %pal
|  3> nprocs 16
|  4> end
|  5>
|  6> * xyz 0 1
|  7> S 	 -21.0867 	 -4.25272 	 81.4228
|  8> C 	 -20.5117 	 -5.2957 	 80.1725
|  9> C 	 -19.8758 	 -6.38558 	 80.7413
| 10> C 	 -19.6233 	 -6.30272 	 82.1098
| 11> C 	 -20.1821 	 -5.17051 	 82.6526
| 12> H 	 -19.1019 	 -7.06385 	 82.6676
| 13> C 	 -19.3482 	 -7.54278 	 79.8408
| 14> H 	 -19.478 	 -8.53027 	 80.3397
| 15> H 	 -18.2838 	 -7.40772 	 79.7916
| 16> C 	 -19.9128 	 -7.61575 	 78.4532
| 17> H 	 -19.6549 	 -6.66585 	 77.8964
| 18> H 	 -19.2432 	 -8.36109 	 78.0098
| 19> C 	 -21.4016 	 -7.88302 	 78.3044
| 20> H 	 -22.0053 	 -6.97509 	 78.2755
| 21> H 	 -21.6496 	 -8.45736 	 77.411
| 22> H 	 -21.7862 	 -8.36385 	 79.1753
| 23> S 	 -21.882 	 -4.62275 	 84.8371
| 24> C 	 -21.3576 	 -4.91093 	 86.4425
| 25> C 	 -19.979 	 -4.9793 	 86.4031
| 26> C 	 -19.4081 	 -5.04418 	 85.1085
| 27> C 	 -20.291 	 -4.85454 	 84.0549
| 28> H 	 -19.3798 	 -4.96819 	 87.2868
| 29> C 	 -17.8871 	 -5.14177 	 84.925
| 30> H 	 -17.5823 	 -4.23343 	 84.3615
| 31> H 	 -17.7146 	 -5.96232 	 84.2043
| 32> C 	 -16.9616 	 -5.45047 	 86.1026
| 33> H 	 -17.1066 	 -6.46127 	 86.4505
| 34> H 	 -17.1487 	 -4.76722 	 86.9688
| 35> C 	 -15.4546 	 -5.46192 	 85.794
| 36> H 	 -15.0938 	 -6.13719 	 84.9544
| 37> H 	 -14.905 	 -5.78933 	 86.7031
| 38> H 	 -15.0954 	 -4.4651 	 85.562
| 39> H 	 -20.8601 	 -5.19943 	 79.1433
| 40> H 	 -21.8792 	 -4.68285 	 87.3241
| 41> *
| 42>
| 43>                          ****END OF INPUT****

CARTESIAN COORDINATES (ANGSTROEM)
---------------------------------
  S    -21.086700   -4.252720   81.422800
  C    -20.511700   -5.295700   80.172500
  C    -19.875800   -6.385580   80.741300
  C    -19.623300   -6.302720   82.109800
  C    -20.182100   -5.170510   82.652600
  H    -19.101900   -7.063850   82.667600
  C    -19.348200   -7.542780   79.840800
  H    -19.478000   -8.530270   80.339700
  H    -18.283800   -7.407720   79.791600
  C    -19.912800   -7.615750   78.453200
  H    -19.654900   -6.665850   77.896400
  H    -19.243200   -8.361090   78.009800
  C    -21.401600   -7.883020   78.304400
  H    -22.005300   -6.975090   78.275500
  H    -21.649600   -8.457360   77.411000
  H    -21.786200   -8.363850   79.175300
  S    -21.882000   -4.622750   84.837100
  C    -21.357600   -4.910930   86.442500
  C    -19.979000   -4.979300   86.403100
  C    -19.408100   -5.044180   85.108500
  C    -20.291000   -4.854540   84.054900
  H    -19.379800   -4.968190   87.286800
  C    -17.887100   -5.141770   84.925000
  H    -17.582300   -4.233430   84.361500
  H    -17.714600   -5.962320   84.204300
  C    -16.961600   -5.450470   86.102600
  H    -17.106600   -6.461270   86.450500
  H    -17.148700   -4.767220   86.968800
  C    -15.454600   -5.461920   85.794000
  H    -15.093800   -6.137190   84.954400
  H    -14.905000   -5.789330   86.703100
  H    -15.095400   -4.465100   85.562000
  H    -20.860100   -5.199430   79.143300
  H    -21.879200   -4.682850   87.324100

 Total Charge           Charge          ....    0
 Multiplicity           Mult            ....    1
 Number of Electrons    NEL             ....  134
 Basis Dimension        Dim             ....  322

ORBITAL ENERGIES
----------------

  NO   OCC          E(Eh)            E(eV)
   0   2.0000     -88.966148     -2420.8920
   1   2.0000     -88.960778     -2420.7458
   2   2.0000     -10.333358      -281.1850
   3   2.0000     -10.326581      -281.0006
   4   2.0000     -10.313229      -280.6372
   5   2.0000     -10.312702      -280.6229
   6   2.0000     -10.302273      -280.3391
   7   2.0000     -10.298829      -280.2454
   8   2.0000     -10.294410      -280.1252
   9   2.0000     -10.294242      -280.1206
  10   2.0000     -10.292376      -280.0698
  11   2.0000     -10.292107      -280.0625
  12   2.0000     -10.289211      -279.9837
  13   2.0000     -10.288504      -279.9644
  14   2.0000     -10.286343      -279.9056
  15   2.0000     -10.275834      -279.6197
  16   2.0000      -8.080918      -219.8930
  17   2.0000      -8.075687      -219.7506
  18   2.0000      -6.039429      -164.3412
  19   2.0000      -6.035423      -164.2322
  20   2.0000      -6.034292      -164.2014
  21   2.0000      -6.031686      -164.1305
  22   2.0000      -6.029977      -164.0840
  23   2.0000      -6.026494      -163.9892
  24   2.0000      -1.009318       -27.4649
  25   2.0000      -0.988519       -26.8990
  26   2.0000      -0.914174       -24.8760
  27   2.0000      -0.906484       -24.6667
  28   2.0000      -0.873404       -23.7665
  29   2.0000      -0.854246       -23.2452
  30   2.0000      -0.845942       -23.0192
  31   2.0000      -0.813515       -22.1369
  32   2.0000      -0.786181       -21.3931
  33   2.0000      -0.773771       -21.0554
  34   2.0000      -0.707361       -19.2483
  35   2.0000      -0.703566       -19.1450
  36   2.0000      -0.698225       -18.9997
  37   2.0000      -0.655029       -17.8242
  38   2.0000      -0.640180       -17.4202
  39   2.0000      -0.615612       -16.7517
  40   2.0000      -0.598055       -16.2739
  41   2.0000      -0.578262       -15.7353
  42   2.0000      -0.566811       -15.4237
  43   2.0000      -0.558863       -15.2074
  44   2.0000      -0.537696       -14.6314
  45   2.0000      -0.528792       -14.3892
  46   2.0000      -0.519985       -14.1495
  47   2.0000      -0.510532       -13.8923
  48   2.0000      -0.505053       -13.7432
  49   2.0000      -0.497085       -13.5264
  50   2.0000      -0.488964       -13.3054
  51   2.0000      -0.481133       -13.0923
  52   2.0000      -0.479547       -13.0491
  53   2.0000      -0.474377       -12.9084
  54   2.0000      -0.457116       -12.4388
  55   2.0000      -0.450818       -12.2674
  56   2.0000      -0.446545       -12.1511
  57   2.0000      -0.437889       -11.9156
  58   2.0000      -0.425668       -11.5830
  59   2.0000      -0.424775       -11.5587
  60   2.0000      -0.420977       -11.4554
  61   2.0000      -0.407813       -11.0971
  62   2.0000      -0.407509       -11.0889
  63   2.0000      -0.355310        -9.6685
  64   2.0000      -0.332881        -9.0581
  65   2.0000      -0.325107        -8.8466
  66   2.0000      -0.287425        -7.8212
  67   0.0000       0.021999         0.5986
  68   0.0000       0.068271         1.8578
  69   0.0000       0.114507         3.1159
  70   0.0000       0.126952         3.4545
  71   0.0000       0.132982         3.6186

MULLIKEN ATOMIC CHARGES
-----------------------
   0 S :    0.106912
   1 C :   -0.130127
   2 C :   -0.091169
   3 C :    0.025922
   4 C :   -0.142453
   5 H :    0.018563
   6 C :    0.047874
   7 H :    0.030934
   8 H :    0.034293
   9 C :   -0.105894
  10 H :    0.032393
  11 H :    0.029995
  12 C :   -0.017449
  13 H :    0.024833
  14 H :    0.041309
  15 H :    0.024137
  16 S :    0.086206
  17 C :   -0.046927
  18 C :   -0.047896
  19 C :   -0.066167
  20 C :   -0.107706
  21 H :    0.007426
  22 C :    0.052792
  23 H :    0.048204
  24 H :    0.016168
  25 C :   -0.087801
  26 H :    0.028575
  27 H :    0.041111
  28 C :   -0.072045
  29 H :    0.041505
  30 H :    0.038577
  31 H :    0.029487
  32 H :    0.060048
  33 H :    0.048370
Sum of atomic charges:    0.0000000

LOEWDIN ATOMIC CHARGES
----------------------
   0 S :    0.405826
   1 C :   -0.207345
   2 C :   -0.065601
   3 C :   -0.055185
   4 C :   -0.177017
   5 H :    0.034866
   6 C :   -0.032955
   7 H :    0.031389
   8 H :    0.031960
   9 C :   -0.054126
  10 H :    0.026984
  11 H :    0.030179
  12 C :   -0.066017
  13 H :    0.025718
  14 H :    0.030921
  15 H :    0.024592
  16 S :    0.407781
  17 C :   -0.187798
  18 C :   -0.075707
  19 C :   -0.059132
  20 C :   -0.195998
  21 H :    0.024258
  22 C :   -0.040304
  23 H :    0.039424
  24 H :    0.031968
  25 C :   -0.048334
  26 H :    0.024589
  27 H :    0.026708
  28 C :   -0.069070
  29 H :    0.031011
  30 H :    0.031338
  31 H :    0.019787
  32 H :    0.029569
  33 H :    0.025718

  Mayer bond orders larger than 0.100000
B(  0-S ,  1-C ) :   1.1399 B(  0-S ,  4-C ) :   1.1536 B(  1-C ,  2-C ) :   1.5970
B(  1-C , 32-H ) :   0.9595 B(  2-C ,  3-C ) :   1.2824 B(  2-C ,  6-C ) :   0.9951
B(  3-C ,  4-C ) :   1.5415 B(  3-C ,  5-H ) :   0.9950 B(  4-C , 20-C ) :   1.0545
B(  6-C ,  7-H ) :   0.9399 B(  6-C ,  8-H ) :   0.9370 B(  6-C ,  9-C ) :   1.1076
B(  9-C , 10-H ) :   0.9446 B(  9-C , 11-H ) :   0.9509 B(  9-C , 12-C ) :   1.0643
B( 12-C , 13-H ) :   0.9695 B( 12-C , 14-H ) :   0.9748 B( 12-C , 15-H ) :   0.9768
B( 16-S , 17-C ) :   1.1842 B( 16-S , 20-C ) :   1.1270 B( 17-C , 18-C ) :   1.5493
B( 17-C , 20-C ) :   0.1073 B( 17-C , 33-H ) :   0.9650 B( 18-C , 19-C ) :   1.3074
B( 18-C , 21-H ) :   0.9860 B( 19-C , 20-C ) :   1.5643 B( 19-C , 22-C ) :   1.0194
B( 22-C , 23-H ) :   0.9413 B( 22-C , 24-H ) :   0.9272 B( 22-C , 25-C ) :   1.0766
B( 25-C , 26-H ) :   0.9540 B( 25-C , 27-H ) :   0.9462 B( 25-C , 28-C ) :   1.0859
B( 28-C , 29-H ) :   0.9741 B( 28-C , 30-H ) :   0.9731 B( 28-C , 31-H ) :   0.9759

Dispersion correction           -0.013637083
FINAL SINGLE POINT ENERGY     -1339.877237193612

DIPOLE MOMENT
-------------
                                X             Y             Z
Electronic contribution:    -18.80899      13.58888       6.35527
Nuclear contribution   :     19.35874     -14.05563      -6.35111
                        -----------------------------------------
Total Dipole Moment    :      0.54975      -0.46676       0.00416
                        -----------------------------------------
Magnitude (a.u.)       :      0.72118
Magnitude (Debye)      :      1.83310

Rotational constants in cm-1:     0.019780     0.007679     0.006061
Rotational constants in MHz :   592.999275   230.210208   181.702262

                             ****ORCA TERMINATED NORMALLY****
TOTAL RUN TIME: 0 days 0 hours 0 minutes 32 seconds 775 msec
