                         Program Version 4.2.1 -  RELEASE  -
|  1> ! wB97X-D3 SP def2-SVP
|  2> %pal
|  3> nprocs 16
|  4> end
|  5>
|  6> * xyz 0 1
|  7> S 	 0.707316 	 -3.64616 	 79.2043
|  8> C 	 0.51882 	 -1.96659 	 79.5521
|  9> C 	 0.972015 	 -1.66415 	 80.8239
| 10> C 	 1.60026 	 -2.77128 	 81.4548
| 11> C 	 1.58553 	 -3.93145 	 80.6542
| 12> H 	 1.97453 	 -2.69059 	 82.4876
| 13> C 	 1.03911 	 -0.267114 	 81.3682
| 14> H 	 1.31764 	 0.474174 	 80.5405
| 15> H 	 1.82982 	 -0.2358 	 82.1307
| 16> C 	 -0.188535 	 0.273707 	 82.0259
| 17> H 	 -0.118118 	 1.35468 	 82.0549
| 18> H 	 -1.02946 	 0.0904159 	 81.4337
| 19> C 	 -0.306519 	 -0.120763 	 83.5105
| 20> H 	 -1.10968 	 0.422608 	 84.0418
| 21> H 	 -0.499305 	 -1.23794 	 83.5506
| 22> H 	 0.64947 	 0.0216815 	 84.0622
| 23> S 	 3.37615 	 -5.88166 	 79.8569
| 24> C 	 3.702 	 -7.26782 	 80.9038
| 25> C 	 2.84631 	 -7.30336 	 81.9466
| 26> C 	 2.04489 	 -6.13983 	 82.0169
| 27> C 	 2.23082 	 -5.23431 	 80.9475
| 28> H 	 2.81153 	 -8.18508 	 82.6529
| 29> C 	 1.20642 	 -5.88506 	 83.215
| 30> H 	 0.747239 	 -6.77202 	 83.5453
| 31> H 	 0.391411 	 -5.31712 	 82.9422
| 32> C 	 1.87383 	 -5.35454 	 84.4959
| 33> H 	 2.85534 	 -4.80069 	 84.3032
| 34> H 	 2.14042 	 -6.17293 	 85.1891
| 35> C 	 1.05676 	 -4.29189 	 85.2733
| 36> H 	 0.903677 	 -3.32234 	 84.716
| 37> H 	 1.5878 	 -4.16036 	 86.2847
| 38> H 	 0.0286758 	 -4.61417 	 85.4599
| 39> H 	 0.128922 	 -1.20863 	 78.8686
| 40> H 	 4.491 	 -7.99227 	 80.7714
| 41> *
| 42>
| 43>                          ****END OF INPUT****

CARTESIAN COORDINATES (ANGSTROEM)
---------------------------------
  S      0.707316   -3.646160   79.204300
  C      0.518820   -1.966590   79.552100
  C      0.972015   -1.664150   80.823900
  C      1.600260   -2.771280   81.454800
  C      1.585530   -3.931450   80.654200
  H      1.974530   -2.690590   82.487600
  C      1.039110   -0.267114   81.368200
  H      1.317640    0.474174   80.540500
  H      1.829820   -0.235800   82.130700
  C     -0.188535    0.273707   82.025900
  H     -0.118118    1.354680   82.054900
  H     -1.029460    0.090416   81.433700
  C     -0.306519   -0.120763   83.510500
  H     -1.109680    0.422608   84.041800
  H     -0.499305   -1.237940   83.550600
  H      0.649470    0.021681   84.062200
  S      3.376150   -5.881660   79.856900
  C      3.702000   -7.267820   80.903800
  C      2.846310   -7.303360   81.946600
  C      2.044890   -6.139830   82.016900
  C      2.230820   -5.234310   80.947500
  H      2.811530   -8.185080   82.652900
  C      1.206420   -5.885060   83.215000
  H      0.747239   -6.772020   83.545300
  H      0.391411   -5.317120   82.942200
  C      1.873830   -5.354540   84.495900
  H      2.855340   -4.800690   84.303200
  H      2.140420   -6.172930   85.189100
  C      1.056760   -4.291890   85.273300
  H      0.903677   -3.322340   84.716000
  H      1.587800   -4.160360   86.284700
  H      0.028676   -4.614170   85.459900
  H      0.128922   -1.208630   78.868600
  H      4.491000   -7.992270   80.771400

 Total Charge           Charge          ....    0
 Multiplicity           Mult            ....    1
 Number of Electrons    NEL             ....  134
 Basis Dimension        Dim             ....  322

ORBITAL ENERGIES
----------------

  NO   OCC          E(Eh)            E(eV)
   0   2.0000     -88.970234     -2421.0032
   1   2.0000     -88.965588     -2420.8767
   2   2.0000     -10.333438      -281.1871
   3   2.0000     -10.327113      -281.0150
   4   2.0000     -10.315083      -280.6877
   5   2.0000     -10.312386      -280.6143
   6   2.0000     -10.300199      -280.2827
   7   2.0000     -10.297980      -280.2223
   8   2.0000     -10.297102      -280.1984
   9   2.0000     -10.294004      -280.1141
  10   2.0000     -10.293339      -280.0960
  11   2.0000     -10.292441      -280.0716
  12   2.0000     -10.288486      -279.9639
  13   2.0000     -10.286217      -279.9022
  14   2.0000     -10.278008      -279.6788
  15   2.0000     -10.275191      -279.6022
  16   2.0000      -8.085560      -220.0193
  17   2.0000      -8.080760      -219.8887
  18   2.0000      -6.043926      -164.4636
  19   2.0000      -6.039861      -164.3530
  20   2.0000      -6.039226      -164.3357
  21   2.0000      -6.036562      -164.2632
  22   2.0000      -6.035124      -164.2241
  23   2.0000      -6.031609      -164.1284
  24   2.0000      -1.010671       -27.5017
  25   2.0000      -0.990771       -26.9602
  26   2.0000      -0.918368       -24.9901
  27   2.0000      -0.907816       -24.7029
  28   2.0000      -0.870605       -23.6904
  29   2.0000      -0.849097       -23.1051
  30   2.0000      -0.846724       -23.0405
  31   2.0000      -0.816304       -22.2128
  32   2.0000      -0.780050       -21.2262
  33   2.0000      -0.768972       -20.9248
  34   2.0000      -0.704029       -19.1576
  35   2.0000      -0.701431       -19.0869
  36   2.0000      -0.692630       -18.8474
  37   2.0000      -0.659037       -17.9333
  38   2.0000      -0.637393       -17.3443
  39   2.0000      -0.619107       -16.8468
  40   2.0000      -0.599547       -16.3145
  41   2.0000      -0.578244       -15.7348
  42   2.0000      -0.557722       -15.1764
  43   2.0000      -0.551913       -15.0183
  44   2.0000      -0.539236       -14.6734
  45   2.0000      -0.530352       -14.4316
  46   2.0000      -0.514249       -13.9934
  47   2.0000      -0.509783       -13.8719
  48   2.0000      -0.505288       -13.7496
  49   2.0000      -0.492628       -13.4051
  50   2.0000      -0.485361       -13.2073
  51   2.0000      -0.481397       -13.0995
  52   2.0000      -0.474902       -12.9227
  53   2.0000      -0.470948       -12.8151
  54   2.0000      -0.462240       -12.5782
  55   2.0000      -0.448755       -12.2113
  56   2.0000      -0.442583       -12.0433
  57   2.0000      -0.441048       -12.0015
  58   2.0000      -0.433137       -11.7863
  59   2.0000      -0.423956       -11.5364
  60   2.0000      -0.422080       -11.4854
  61   2.0000      -0.408641       -11.1197
  62   2.0000      -0.406868       -11.0714
  63   2.0000      -0.347569        -9.4578
  64   2.0000      -0.333011        -9.0617
  65   2.0000      -0.325903        -8.8683
  66   2.0000      -0.294810        -8.0222
  67   0.0000       0.032602         0.8871
  68   0.0000       0.067068         1.8250
  69   0.0000       0.114528         3.1165
  70   0.0000       0.120059         3.2670
  71   0.0000       0.122101         3.3225

MULLIKEN ATOMIC CHARGES
-----------------------
   0 S :    0.137719
   1 C :   -0.135847
   2 C :   -0.069062
   3 C :    0.032944
   4 C :   -0.164214
   5 H :    0.016113
   6 C :    0.012944
   7 H :    0.045161
   8 H :    0.014479
   9 C :   -0.013362
  10 H :    0.018099
  11 H :    0.012136
  12 C :   -0.098699
  13 H :    0.046676
  14 H :    0.044248
  15 H :    0.033352
  16 S :    0.114542
  17 C :   -0.095641
  18 C :   -0.036782
  19 C :   -0.055954
  20 C :   -0.154456
  21 H :    0.042035
  22 C :    0.151919
  23 H :    0.000566
  24 H :   -0.000159
  25 C :   -0.099344
  26 H :    0.042874
  27 H :    0.032854
  28 C :   -0.102344
  29 H :    0.043063
  30 H :    0.049481
  31 H :    0.028925
  32 H :    0.052468
  33 H :    0.053268
Sum of atomic charges:    0.0000000

LOEWDIN ATOMIC CHARGES
----------------------
   0 S :    0.440697
   1 C :   -0.210343
   2 C :   -0.070147
   3 C :   -0.063842
   4 C :   -0.207385
   5 H :    0.034334
   6 C :   -0.034914
   7 H :    0.042718
   8 H :    0.027935
   9 C :   -0.041215
  10 H :    0.023678
  11 H :    0.015721
  12 C :   -0.072723
  13 H :    0.028829
  14 H :    0.028281
  15 H :    0.025837
  16 S :    0.420992
  17 C :   -0.178143
  18 C :   -0.076203
  19 C :   -0.053985
  20 C :   -0.218902
  21 H :    0.045342
  22 C :   -0.033764
  23 H :    0.029568
  24 H :    0.020962
  25 C :   -0.045586
  26 H :    0.029825
  27 H :    0.024577
  28 C :   -0.076175
  29 H :    0.026275
  30 H :    0.037049
  31 H :    0.018786
  32 H :    0.031957
  33 H :    0.029964

  Mayer bond orders larger than 0.100000
B(  0-S ,  1-C ) :   1.1531 B(  0-S ,  4-C ) :   1.1884 B(  1-C ,  2-C ) :   1.5759
B(  1-C ,  4-C ) :   0.1002 B(  1-C , 32-H ) :   0.9664 B(  2-C ,  3-C ) :   1.2900
B(  2-C ,  6-C ) :   1.0247 B(  3-C ,  4-C ) :   1.5214 B(  3-C ,  5-H ) :   0.9900
B(  4-C , 20-C ) :   1.0177 B(  6-C ,  7-H ) :   0.9444 B(  6-C ,  8-H ) :   0.9437
B(  6-C ,  9-C ) :   1.0745 B(  9-C , 10-H ) :   0.9505 B(  9-C , 11-H ) :   0.9526
B(  9-C , 12-C ) :   1.0762 B( 12-C , 13-H ) :   0.9742 B( 12-C , 14-H ) :   0.9758
B( 12-C , 15-H ) :   0.9731 B( 16-S , 17-C ) :   1.1594 B( 16-S , 20-C ) :   1.1542
B( 17-C , 18-C ) :   1.6022 B( 17-C , 33-H ) :   0.9672 B( 18-C , 19-C ) :   1.2575
B( 18-C , 21-H ) :   0.9825 B( 19-C , 20-C ) :   1.5623 B( 19-C , 22-C ) :   1.0799
B( 22-C , 23-H ) :   0.9160 B( 22-C , 24-H ) :   0.9263 B( 22-C , 25-C ) :   1.0291
B( 25-C , 26-H ) :   0.9633 B( 25-C , 27-H ) :   0.9577 B( 25-C , 28-C ) :   1.0781
B( 28-C , 29-H ) :   0.9731 B( 28-C , 30-H ) :   0.9718 B( 28-C , 31-H ) :   0.9746

Dispersion correction           -0.015040447
FINAL SINGLE POINT ENERGY     -1339.879145602627

DIPOLE MOMENT
-------------
                                X             Y             Z
Electronic contribution:      8.49430     -15.24164     -26.67753
Nuclear contribution   :     -8.58090      15.41259      27.20077
                        -----------------------------------------
Total Dipole Moment    :     -0.08660       0.17095       0.52324
                        -----------------------------------------
Magnitude (a.u.)       :      0.55723
Magnitude (Debye)      :      1.41637

Rotational constants in cm-1:     0.018722     0.009628     0.006843
Rotational constants in MHz :   561.265415   288.647690   205.141488

                             ****ORCA TERMINATED NORMALLY****
TOTAL RUN TIME: 0 days 0 hours 0 minutes 37 seconds 501 msec
