                         Program Version 4.2.1 -  RELEASE  -
|  1> ! wB97X-D3 SP def2-SVP
|  2> %pal
|  3> nprocs 16
|  4> end
|  5>
|  6> * xyz 0 1
|  7> S 	 -91.3975 	 57.9397 	 126.169
|  8> C 	 -90.3003 	 57.2157 	 127.431
|  9> C 	 -89.2331 	 56.6003 	 126.758
| 10> C 	 -89.3445 	 56.5802 	 125.331
| 11> C 	 -90.5054 	 57.2322 	 124.827
| 12> H 	 -88.6635 	 56.1758 	 124.611
| 13> C 	 -88.0664 	 55.9436 	 127.502
| 14> H 	 -88.0662 	 54.8766 	 127.377
| 15> H 	 -88.1641 	 56.0868 	 128.565
| 16> C 	 -86.6012 	 56.5111 	 127.116
| 17> H 	 -86.4853 	 56.4935 	 126.039
| 18> H 	 -86.3562 	 57.512 	 127.55
| 19> C 	 -85.5718 	 55.6095 	 127.733
| 20> H 	 -85.74 	 54.5545 	 127.481
| 21> H 	 -84.5311 	 55.9061 	 127.355
| 22> H 	 -85.4868 	 55.6023 	 128.807
| 23> S 	 -91.3573 	 58.9642 	 122.816
| 24> C 	 -91.769 	 58.3254 	 121.296
| 25> C 	 -91.8032 	 56.94 	 121.265
| 26> C 	 -91.2725 	 56.3498 	 122.486
| 27> C 	 -90.9907 	 57.3476 	 123.446
| 28> H 	 -92.1406 	 56.4051 	 120.337
| 29> C 	 -91.0011 	 54.8522 	 122.796
| 30> H 	 -89.9677 	 54.6915 	 123.177
| 31> H 	 -91.0315 	 54.335 	 121.843
| 32> C 	 -92.1255 	 54.1941 	 123.677
| 33> H 	 -92.9037 	 53.8016 	 122.959
| 34> H 	 -92.6996 	 54.9771 	 124.268
| 35> C 	 -91.7147 	 53.1033 	 124.646
| 36> H 	 -91.3048 	 52.3119 	 124.008
| 37> H 	 -92.5294 	 52.7892 	 125.291
| 38> H 	 -90.9834 	 53.4062 	 125.4
| 39> H 	 -90.3004 	 57.5067 	 128.482
| 40> H 	 -92.0649 	 58.9873 	 120.494
| 41> *
| 42>
| 43>                          ****END OF INPUT****

CARTESIAN COORDINATES (ANGSTROEM)
---------------------------------
  S    -91.397500   57.939700  126.169000
  C    -90.300300   57.215700  127.431000
  C    -89.233100   56.600300  126.758000
  C    -89.344500   56.580200  125.331000
  C    -90.505400   57.232200  124.827000
  H    -88.663500   56.175800  124.611000
  C    -88.066400   55.943600  127.502000
  H    -88.066200   54.876600  127.377000
  H    -88.164100   56.086800  128.565000
  C    -86.601200   56.511100  127.116000
  H    -86.485300   56.493500  126.039000
  H    -86.356200   57.512000  127.550000
  C    -85.571800   55.609500  127.733000
  H    -85.740000   54.554500  127.481000
  H    -84.531100   55.906100  127.355000
  H    -85.486800   55.602300  128.807000
  S    -91.357300   58.964200  122.816000
  C    -91.769000   58.325400  121.296000
  C    -91.803200   56.940000  121.265000
  C    -91.272500   56.349800  122.486000
  C    -90.990700   57.347600  123.446000
  H    -92.140600   56.405100  120.337000
  C    -91.001100   54.852200  122.796000
  H    -89.967700   54.691500  123.177000
  H    -91.031500   54.335000  121.843000
  C    -92.125500   54.194100  123.677000
  H    -92.903700   53.801600  122.959000
  H    -92.699600   54.977100  124.268000
  C    -91.714700   53.103300  124.646000
  H    -91.304800   52.311900  124.008000
  H    -92.529400   52.789200  125.291000
  H    -90.983400   53.406200  125.400000
  H    -90.300400   57.506700  128.482000
  H    -92.064900   58.987300  120.494000

 Total Charge           Charge          ....    0
 Multiplicity           Mult            ....    1
 Number of Electrons    NEL             ....  134
 Basis Dimension        Dim             ....  322

ORBITAL ENERGIES
----------------

  NO   OCC          E(Eh)            E(eV)
   0   2.0000     -88.967724     -2420.9348
   1   2.0000     -88.965109     -2420.8637
   2   2.0000     -10.337767      -281.3049
   3   2.0000     -10.330436      -281.1054
   4   2.0000     -10.321893      -280.8730
   5   2.0000     -10.318050      -280.7684
   6   2.0000     -10.315487      -280.6987
   7   2.0000     -10.309268      -280.5294
   8   2.0000     -10.304680      -280.4046
   9   2.0000     -10.299610      -280.2666
  10   2.0000     -10.298177      -280.2276
  11   2.0000     -10.295894      -280.1655
  12   2.0000     -10.293741      -280.1069
  13   2.0000     -10.290633      -280.0224
  14   2.0000     -10.280532      -279.7475
  15   2.0000     -10.273947      -279.5683
  16   2.0000      -8.083085      -219.9519
  17   2.0000      -8.078484      -219.8267
  18   2.0000      -6.041390      -164.3946
  19   2.0000      -6.037472      -164.2880
  20   2.0000      -6.037145      -164.2791
  21   2.0000      -6.034062      -164.1952
  22   2.0000      -6.033039      -164.1673
  23   2.0000      -6.029298      -164.0655
  24   2.0000      -1.000727       -27.2312
  25   2.0000      -0.975345       -26.5405
  26   2.0000      -0.905477       -24.6393
  27   2.0000      -0.900165       -24.4947
  28   2.0000      -0.866790       -23.5866
  29   2.0000      -0.850099       -23.1324
  30   2.0000      -0.839568       -22.8458
  31   2.0000      -0.811113       -22.0715
  32   2.0000      -0.782392       -21.2900
  33   2.0000      -0.766711       -20.8633
  34   2.0000      -0.704369       -19.1669
  35   2.0000      -0.694057       -18.8863
  36   2.0000      -0.686272       -18.6744
  37   2.0000      -0.657089       -17.8803
  38   2.0000      -0.641256       -17.4495
  39   2.0000      -0.616281       -16.7699
  40   2.0000      -0.594081       -16.1658
  41   2.0000      -0.567263       -15.4360
  42   2.0000      -0.560493       -15.2518
  43   2.0000      -0.551272       -15.0009
  44   2.0000      -0.529218       -14.4007
  45   2.0000      -0.520534       -14.1645
  46   2.0000      -0.514707       -14.0059
  47   2.0000      -0.506102       -13.7717
  48   2.0000      -0.503632       -13.7045
  49   2.0000      -0.498946       -13.5770
  50   2.0000      -0.494460       -13.4549
  51   2.0000      -0.481184       -13.0937
  52   2.0000      -0.469743       -12.7824
  53   2.0000      -0.467321       -12.7165
  54   2.0000      -0.454825       -12.3764
  55   2.0000      -0.450339       -12.2543
  56   2.0000      -0.436706       -11.8834
  57   2.0000      -0.434662       -11.8278
  58   2.0000      -0.432376       -11.7655
  59   2.0000      -0.426763       -11.6128
  60   2.0000      -0.425757       -11.5854
  61   2.0000      -0.406386       -11.0583
  62   2.0000      -0.402957       -10.9650
  63   2.0000      -0.340919        -9.2769
  64   2.0000      -0.332718        -9.0537
  65   2.0000      -0.328968        -8.9517
  66   2.0000      -0.292403        -7.9567
  67   0.0000       0.025737         0.7003
  68   0.0000       0.062676         1.7055
  69   0.0000       0.111215         3.0263
  70   0.0000       0.117853         3.2069
  71   0.0000       0.126589         3.4446

MULLIKEN ATOMIC CHARGES
-----------------------
   0 S :    0.088789
   1 C :   -0.128915
   2 C :   -0.066127
   3 C :    0.040743
   4 C :   -0.150081
   5 H :    0.011487
   6 C :    0.048282
   7 H :    0.032713
   8 H :    0.012255
   9 C :   -0.073689
  10 H :    0.038128
  11 H :    0.046131
  12 C :   -0.079168
  13 H :    0.023502
  14 H :    0.039492
  15 H :    0.028888
  16 S :    0.121333
  17 C :   -0.096554
  18 C :   -0.050816
  19 C :   -0.042140
  20 C :   -0.177984
  21 H :    0.040842
  22 C :    0.082309
  23 H :    0.037899
  24 H :    0.016494
  25 C :   -0.114801
  26 H :    0.033818
  27 H :    0.047525
  28 C :   -0.038968
  29 H :    0.032461
  30 H :    0.034389
  31 H :    0.034544
  32 H :    0.065120
  33 H :    0.062099
Sum of atomic charges:    0.0000000

LOEWDIN ATOMIC CHARGES
----------------------
   0 S :    0.375488
   1 C :   -0.189484
   2 C :   -0.058171
   3 C :   -0.068184
   4 C :   -0.183208
   5 H :    0.026843
   6 C :   -0.027103
   7 H :    0.028347
   8 H :    0.026156
   9 C :   -0.036530
  10 H :    0.022427
  11 H :    0.033517
  12 C :   -0.074942
  13 H :    0.020655
  14 H :    0.033416
  15 H :    0.020062
  16 S :    0.423299
  17 C :   -0.196916
  18 C :   -0.082341
  19 C :   -0.042775
  20 C :   -0.204758
  21 H :    0.041879
  22 C :   -0.032739
  23 H :    0.033337
  24 H :    0.028867
  25 C :   -0.049153
  26 H :    0.027972
  27 H :    0.029204
  28 C :   -0.069520
  29 H :    0.024907
  30 H :    0.029577
  31 H :    0.026891
  32 H :    0.033875
  33 H :    0.029105

  Mayer bond orders larger than 0.100000
B(  0-S ,  1-C ) :   1.1161 B(  0-S ,  4-C ) :   1.1636 B(  1-C ,  2-C ) :   1.6025
B(  1-C ,  4-C ) :   0.1099 B(  1-C , 32-H ) :   0.9653 B(  2-C ,  3-C ) :   1.2338
B(  2-C ,  6-C ) :   1.0288 B(  3-C ,  4-C ) :   1.5549 B(  3-C ,  5-H ) :   0.9950
B(  4-C , 20-C ) :   1.0463 B(  6-C ,  7-H ) :   0.9483 B(  6-C ,  8-H ) :   0.9448
B(  6-C ,  9-C ) :   1.0479 B(  9-C , 10-H ) :   0.9597 B(  9-C , 11-H ) :   0.9573
B(  9-C , 12-C ) :   1.0826 B( 12-C , 13-H ) :   0.9733 B( 12-C , 14-H ) :   0.9717
B( 12-C , 15-H ) :   0.9760 B( 16-S , 17-C ) :   1.1824 B( 16-S , 20-C ) :   1.1481
B( 17-C , 18-C ) :   1.5894 B( 17-C , 33-H ) :   0.9672 B( 18-C , 19-C ) :   1.2539
B( 18-C , 21-H ) :   0.9830 B( 19-C , 20-C ) :   1.5726 B( 19-C , 22-C ) :   1.0421
B( 22-C , 23-H ) :   0.9500 B( 22-C , 24-H ) :   0.9303 B( 22-C , 25-C ) :   1.0243
B( 25-C , 26-H ) :   0.9566 B( 25-C , 27-H ) :   0.9683 B( 25-C , 28-C ) :   1.0840
B( 28-C , 29-H ) :   0.9749 B( 28-C , 30-H ) :   0.9703 B( 28-C , 31-H ) :   0.9742

Dispersion correction           -0.014448658
FINAL SINGLE POINT ENERGY     -1339.879084803155

DIPOLE MOMENT
-------------
                                X             Y             Z
Electronic contribution:    -15.11677      22.61403      -8.80601
Nuclear contribution   :     15.46676     -23.05234       8.71488
                        -----------------------------------------
Total Dipole Moment    :      0.34999      -0.43831      -0.09114
                        -----------------------------------------
Magnitude (a.u.)       :      0.56826
Magnitude (Debye)      :      1.44439

Rotational constants in cm-1:     0.018553     0.008187     0.007136
Rotational constants in MHz :   556.193397   245.453101   213.927732

                             ****ORCA TERMINATED NORMALLY****
TOTAL RUN TIME: 0 days 0 hours 0 minutes 34 seconds 637 msec
