                         Program Version 4.2.1 -  RELEASE  -
|  1> ! wB97X-D3 SP def2-SVP
|  2> %pal
|  3> nprocs 16
|  4> end
|  5>
|  6> * xyz 0 1
|  7> S 	 -44.4938 	 55.7485 	 102.02
|  8> C 	 -45.3672 	 54.4666 	 101.257
|  9> C 	 -44.5745 	 53.5672 	 100.611
| 10> C 	 -43.1655 	 53.9244 	 100.725
| 11> C 	 -42.9452 	 55.0131 	 101.515
| 12> H 	 -42.2812 	 53.4281 	 100.338
| 13> C 	 -45.0087 	 52.3027 	 99.9422
| 14> H 	 -45.3394 	 52.5355 	 98.9627
| 15> H 	 -45.8748 	 51.9987 	 100.409
| 16> C 	 -44.0612 	 51.1654 	 99.7253
| 17> H 	 -44.5046 	 50.5016 	 99.0095
| 18> H 	 -43.1242 	 51.6341 	 99.3351
| 19> C 	 -43.4965 	 50.5859 	 101.031
| 20> H 	 -43.2687 	 51.4008 	 101.716
| 21> H 	 -44.2562 	 49.9295 	 101.511
| 22> H 	 -42.5803 	 49.9726 	 100.956
| 23> S 	 -40.2335 	 55.4659 	 100.992
| 24> C 	 -39.2491 	 56.2084 	 102.224
| 25> C 	 -39.9984 	 56.6023 	 103.319
| 26> C 	 -41.4009 	 56.148 	 103.248
| 27> C 	 -41.6705 	 55.5189 	 102.04
| 28> H 	 -39.6187 	 57.2046 	 104.087
| 29> C 	 -42.3819 	 56.4546 	 104.376
| 30> H 	 -42.9974 	 55.5455 	 104.508
| 31> H 	 -43.0784 	 57.1976 	 104.095
| 32> C 	 -41.9135 	 56.6902 	 105.796
| 33> H 	 -41.2152 	 57.5308 	 105.667
| 34> H 	 -41.178 	 55.9582 	 106.104
| 35> C 	 -43.0094 	 56.8437 	 106.863
| 36> H 	 -43.8529 	 57.5307 	 106.644
| 37> H 	 -42.6228 	 57.1273 	 107.85
| 38> H 	 -43.4794 	 55.8901 	 107.09
| 39> H 	 -46.4708 	 54.4136 	 101.423
| 40> H 	 -38.183 	 56.5068 	 102.153
| 41> *
| 42>
| 43>                          ****END OF INPUT****

CARTESIAN COORDINATES (ANGSTROEM)
---------------------------------
  S    -44.493800   55.748500  102.020000
  C    -45.367200   54.466600  101.257000
  C    -44.574500   53.567200  100.611000
  C    -43.165500   53.924400  100.725000
  C    -42.945200   55.013100  101.515000
  H    -42.281200   53.428100  100.338000
  C    -45.008700   52.302700   99.942200
  H    -45.339400   52.535500   98.962700
  H    -45.874800   51.998700  100.409000
  C    -44.061200   51.165400   99.725300
  H    -44.504600   50.501600   99.009500
  H    -43.124200   51.634100   99.335100
  C    -43.496500   50.585900  101.031000
  H    -43.268700   51.400800  101.716000
  H    -44.256200   49.929500  101.511000
  H    -42.580300   49.972600  100.956000
  S    -40.233500   55.465900  100.992000
  C    -39.249100   56.208400  102.224000
  C    -39.998400   56.602300  103.319000
  C    -41.400900   56.148000  103.248000
  C    -41.670500   55.518900  102.040000
  H    -39.618700   57.204600  104.087000
  C    -42.381900   56.454600  104.376000
  H    -42.997400   55.545500  104.508000
  H    -43.078400   57.197600  104.095000
  C    -41.913500   56.690200  105.796000
  H    -41.215200   57.530800  105.667000
  H    -41.178000   55.958200  106.104000
  C    -43.009400   56.843700  106.863000
  H    -43.852900   57.530700  106.644000
  H    -42.622800   57.127300  107.850000
  H    -43.479400   55.890100  107.090000
  H    -46.470800   54.413600  101.423000
  H    -38.183000   56.506800  102.153000

 Total Charge           Charge          ....    0
 Multiplicity           Mult            ....    1
 Number of Electrons    NEL             ....  134
 Basis Dimension        Dim             ....  322

ORBITAL ENERGIES
----------------

  NO   OCC          E(Eh)            E(eV)
   0   2.0000     -88.969163     -2420.9740
   1   2.0000     -88.963941     -2420.8319
   2   2.0000     -10.331302      -281.1290
   3   2.0000     -10.330773      -281.1146
   4   2.0000     -10.321887      -280.8728
   5   2.0000     -10.314147      -280.6622
   6   2.0000     -10.310171      -280.5540
   7   2.0000     -10.303250      -280.3657
   8   2.0000     -10.294972      -280.1404
   9   2.0000     -10.294963      -280.1402
  10   2.0000     -10.287925      -279.9487
  11   2.0000     -10.287128      -279.9270
  12   2.0000     -10.285877      -279.8929
  13   2.0000     -10.285125      -279.8725
  14   2.0000     -10.277674      -279.6697
  15   2.0000     -10.276269      -279.6315
  16   2.0000      -8.083258      -219.9566
  17   2.0000      -8.078363      -219.8234
  18   2.0000      -6.041987      -164.4108
  19   2.0000      -6.037914      -164.3000
  20   2.0000      -6.037002      -164.2752
  21   2.0000      -6.033785      -164.1876
  22   2.0000      -6.032939      -164.1646
  23   2.0000      -6.028984      -164.0570
  24   2.0000      -1.003813       -27.3151
  25   2.0000      -0.981770       -26.7153
  26   2.0000      -0.919519       -25.0214
  27   2.0000      -0.910417       -24.7737
  28   2.0000      -0.871148       -23.7051
  29   2.0000      -0.850378       -23.1400
  30   2.0000      -0.840592       -22.8737
  31   2.0000      -0.817985       -22.2585
  32   2.0000      -0.787677       -21.4338
  33   2.0000      -0.775682       -21.1074
  34   2.0000      -0.711162       -19.3517
  35   2.0000      -0.705169       -19.1886
  36   2.0000      -0.685116       -18.6430
  37   2.0000      -0.662563       -18.0292
  38   2.0000      -0.637366       -17.3436
  39   2.0000      -0.625468       -17.0199
  40   2.0000      -0.601454       -16.3664
  41   2.0000      -0.565135       -15.3781
  42   2.0000      -0.563066       -15.3218
  43   2.0000      -0.554893       -15.0994
  44   2.0000      -0.539438       -14.6789
  45   2.0000      -0.519450       -14.1349
  46   2.0000      -0.517841       -14.0912
  47   2.0000      -0.517068       -14.0701
  48   2.0000      -0.506886       -13.7931
  49   2.0000      -0.498800       -13.5730
  50   2.0000      -0.485277       -13.2051
  51   2.0000      -0.483502       -13.1568
  52   2.0000      -0.474226       -12.9044
  53   2.0000      -0.470293       -12.7973
  54   2.0000      -0.458397       -12.4736
  55   2.0000      -0.456081       -12.4106
  56   2.0000      -0.449405       -12.2289
  57   2.0000      -0.437498       -11.9049
  58   2.0000      -0.434452       -11.8221
  59   2.0000      -0.425675       -11.5832
  60   2.0000      -0.423174       -11.5152
  61   2.0000      -0.405676       -11.0390
  62   2.0000      -0.399782       -10.8786
  63   2.0000      -0.357870        -9.7381
  64   2.0000      -0.330643        -8.9973
  65   2.0000      -0.326012        -8.8712
  66   2.0000      -0.288876        -7.8607
  67   0.0000       0.025795         0.7019
  68   0.0000       0.083126         2.2620
  69   0.0000       0.107438         2.9235
  70   0.0000       0.115414         3.1406
  71   0.0000       0.128204         3.4886

MULLIKEN ATOMIC CHARGES
-----------------------
   0 S :    0.087806
   1 C :   -0.148563
   2 C :   -0.083558
   3 C :   -0.006466
   4 C :   -0.138318
   5 H :    0.015210
   6 C :    0.149553
   7 H :    0.021583
   8 H :   -0.009003
   9 C :   -0.070031
  10 H :    0.033364
  11 H :    0.027783
  12 C :   -0.077835
  13 H :    0.043812
  14 H :    0.027333
  15 H :    0.039746
  16 S :    0.103815
  17 C :   -0.088419
  18 C :   -0.031588
  19 C :   -0.058604
  20 C :   -0.122100
  21 H :    0.003418
  22 C :    0.041642
  23 H :    0.032021
  24 H :    0.036401
  25 C :   -0.066854
  26 H :    0.016354
  27 H :    0.022652
  28 C :   -0.037089
  29 H :    0.039300
  30 H :    0.031795
  31 H :    0.029814
  32 H :    0.064215
  33 H :    0.070811
Sum of atomic charges:    0.0000000

LOEWDIN ATOMIC CHARGES
----------------------
   0 S :    0.403709
   1 C :   -0.205384
   2 C :   -0.058420
   3 C :   -0.069680
   4 C :   -0.171999
   5 H :    0.029131
   6 C :   -0.029321
   7 H :    0.035207
   8 H :    0.019421
   9 C :   -0.039354
  10 H :    0.025921
  11 H :    0.028897
  12 C :   -0.072909
  13 H :    0.028495
  14 H :    0.023355
  15 H :    0.027048
  16 S :    0.396667
  17 C :   -0.192616
  18 C :   -0.066201
  19 C :   -0.049815
  20 C :   -0.188291
  21 H :    0.020793
  22 C :   -0.046090
  23 H :    0.032366
  24 H :    0.022006
  25 C :   -0.047087
  26 H :    0.018414
  27 H :    0.025689
  28 C :   -0.065777
  29 H :    0.030280
  30 H :    0.031115
  31 H :    0.027507
  32 H :    0.036086
  33 H :    0.040834

  Mayer bond orders larger than 0.100000
B(  0-S ,  1-C ) :   1.1322 B(  0-S ,  4-C ) :   1.1342 B(  1-C ,  2-C ) :   1.6469
B(  1-C , 32-H ) :   0.9614 B(  2-C ,  3-C ) :   1.1971 B(  2-C ,  6-C ) :   1.0121
B(  3-C ,  4-C ) :   1.6176 B(  3-C ,  5-H ) :   0.9837 B(  4-C , 20-C ) :   1.0504
B(  6-C ,  7-H ) :   0.9145 B(  6-C ,  8-H ) :   0.9285 B(  6-C ,  9-C ) :   1.0941
B(  9-C , 10-H ) :   0.9541 B(  9-C , 11-H ) :   0.9468 B(  9-C , 12-C ) :   1.0660
B( 12-C , 13-H ) :   0.9724 B( 12-C , 14-H ) :   0.9748 B( 12-C , 15-H ) :   0.9780
B( 16-S , 17-C ) :   1.1428 B( 16-S , 20-C ) :   1.1211 B( 17-C , 18-C ) :   1.6323
B( 17-C , 33-H ) :   0.9582 B( 18-C , 19-C ) :   1.2209 B( 18-C , 21-H ) :   0.9921
B( 19-C , 20-C ) :   1.6149 B( 19-C , 22-C ) :   1.0298 B( 22-C , 23-H ) :   0.9327
B( 22-C , 24-H ) :   0.9303 B( 22-C , 25-C ) :   1.0685 B( 25-C , 26-H ) :   0.9454
B( 25-C , 27-H ) :   0.9546 B( 25-C , 28-C ) :   1.0764 B( 28-C , 29-H ) :   0.9769
B( 28-C , 30-H ) :   0.9718 B( 28-C , 31-H ) :   0.9724

Dispersion correction           -0.013944370
FINAL SINGLE POINT ENERGY     -1339.875523916367

DIPOLE MOMENT
-------------
                                X             Y             Z
Electronic contribution:      5.62044      10.76514     -11.90104
Nuclear contribution   :     -5.74761     -10.93199      12.18931
                        -----------------------------------------
Total Dipole Moment    :     -0.12717      -0.16685       0.28827
                        -----------------------------------------
Magnitude (a.u.)       :      0.35653
Magnitude (Debye)      :      0.90622

Rotational constants in cm-1:     0.018455     0.008502     0.006872
Rotational constants in MHz :   553.263576   254.891899   206.022804

                             ****ORCA TERMINATED NORMALLY****
TOTAL RUN TIME: 0 days 0 hours 0 minutes 29 seconds 522 msec
