                         Program Version 4.2.1 -  RELEASE  -
|  1> ! wB97X-D3 SP def2-SVP
|  2> %pal
|  3> nprocs 16
|  4> end
|  5>
|  6> * xyz 0 1
|  7> S 	 47.6093 	 8.92894 	 87.9586
|  8> C 	 47.8358 	 8.6452 	 89.6502
|  9> C 	 46.8553 	 9.32758 	 90.3695
| 10> C 	 45.9875 	 10.0999 	 89.545
| 11> C 	 46.2972 	 10.0294 	 88.1793
| 12> H 	 45.1316 	 10.7018 	 89.8788
| 13> C 	 46.9112 	 9.53095 	 91.8177
| 14> H 	 47.2036 	 8.52787 	 92.3561
| 15> H 	 45.9261 	 9.878 	 92.1657
| 16> C 	 47.7255 	 10.7192 	 92.222
| 17> H 	 47.6784 	 10.7176 	 93.2763
| 18> H 	 48.6904 	 10.4831 	 91.8671
| 19> C 	 47.3567 	 12.0729 	 91.6492
| 20> H 	 46.3676 	 12.4241 	 91.8926
| 21> H 	 47.9679 	 12.9156 	 92.0612
| 22> H 	 47.6523 	 12.0961 	 90.6033
| 23> S 	 47.1064 	 11.2213 	 85.8147
| 24> C 	 46.0541 	 12.2726 	 85.0261
| 25> C 	 44.7647 	 12.0567 	 85.4762
| 26> C 	 44.6382 	 11.207 	 86.5586
| 27> C 	 45.8977 	 10.7993 	 87.0555
| 28> H 	 44.0131 	 12.5433 	 84.9864
| 29> C 	 43.261 	 10.8006 	 87.1039
| 30> H 	 43.0291 	 11.2981 	 88.1012
| 31> H 	 43.2666 	 9.75894 	 87.376
| 32> C 	 42.0332 	 10.7928 	 86.1601
| 33> H 	 42.2247 	 10.1063 	 85.2816
| 34> H 	 41.998 	 11.8806 	 85.8246
| 35> C 	 40.6684 	 10.3863 	 86.7922
| 36> H 	 40.4145 	 10.9519 	 87.6145
| 37> H 	 40.6685 	 9.26491 	 87.046
| 38> H 	 39.8356 	 10.3722 	 86.1294
| 39> H 	 48.4782 	 7.84572 	 89.9653
| 40> H 	 46.3412 	 12.8983 	 84.1488
| 41> *
| 42>
| 43>                          ****END OF INPUT****

CARTESIAN COORDINATES (ANGSTROEM)
---------------------------------
  S     47.609300    8.928940   87.958600
  C     47.835800    8.645200   89.650200
  C     46.855300    9.327580   90.369500
  C     45.987500   10.099900   89.545000
  C     46.297200   10.029400   88.179300
  H     45.131600   10.701800   89.878800
  C     46.911200    9.530950   91.817700
  H     47.203600    8.527870   92.356100
  H     45.926100    9.878000   92.165700
  C     47.725500   10.719200   92.222000
  H     47.678400   10.717600   93.276300
  H     48.690400   10.483100   91.867100
  C     47.356700   12.072900   91.649200
  H     46.367600   12.424100   91.892600
  H     47.967900   12.915600   92.061200
  H     47.652300   12.096100   90.603300
  S     47.106400   11.221300   85.814700
  C     46.054100   12.272600   85.026100
  C     44.764700   12.056700   85.476200
  C     44.638200   11.207000   86.558600
  C     45.897700   10.799300   87.055500
  H     44.013100   12.543300   84.986400
  C     43.261000   10.800600   87.103900
  H     43.029100   11.298100   88.101200
  H     43.266600    9.758940   87.376000
  C     42.033200   10.792800   86.160100
  H     42.224700   10.106300   85.281600
  H     41.998000   11.880600   85.824600
  C     40.668400   10.386300   86.792200
  H     40.414500   10.951900   87.614500
  H     40.668500    9.264910   87.046000
  H     39.835600   10.372200   86.129400
  H     48.478200    7.845720   89.965300
  H     46.341200   12.898300   84.148800

 Total Charge           Charge          ....    0
 Multiplicity           Mult            ....    1
 Number of Electrons    NEL             ....  134
 Basis Dimension        Dim             ....  322

ORBITAL ENERGIES
----------------

  NO   OCC          E(Eh)            E(eV)
   0   2.0000     -88.965509     -2420.8746
   1   2.0000     -88.960807     -2420.7466
   2   2.0000     -10.328687      -281.0579
   3   2.0000     -10.327585      -281.0279
   4   2.0000     -10.315490      -280.6987
   5   2.0000     -10.310569      -280.5648
   6   2.0000     -10.305983      -280.4400
   7   2.0000     -10.301251      -280.3113
   8   2.0000     -10.297905      -280.2202
   9   2.0000     -10.296672      -280.1867
  10   2.0000     -10.296249      -280.1752
  11   2.0000     -10.291340      -280.0416
  12   2.0000     -10.281487      -279.7735
  13   2.0000     -10.281426      -279.7718
  14   2.0000     -10.274741      -279.5899
  15   2.0000     -10.273239      -279.5490
  16   2.0000      -8.081003      -219.8953
  17   2.0000      -8.076683      -219.7777
  18   2.0000      -6.039305      -164.3378
  19   2.0000      -6.035417      -164.2321
  20   2.0000      -6.035023      -164.2213
  21   2.0000      -6.031885      -164.1359
  22   2.0000      -6.030894      -164.1090
  23   2.0000      -6.027690      -164.0218
  24   2.0000      -1.013563       -27.5805
  25   2.0000      -0.990842       -26.9622
  26   2.0000      -0.924186       -25.1484
  27   2.0000      -0.905142       -24.6302
  28   2.0000      -0.873270       -23.7629
  29   2.0000      -0.854362       -23.2484
  30   2.0000      -0.842917       -22.9369
  31   2.0000      -0.814075       -22.1521
  32   2.0000      -0.788113       -21.4456
  33   2.0000      -0.774802       -21.0834
  34   2.0000      -0.707789       -19.2599
  35   2.0000      -0.701134       -19.0788
  36   2.0000      -0.694811       -18.9068
  37   2.0000      -0.656069       -17.8525
  38   2.0000      -0.640792       -17.4368
  39   2.0000      -0.616459       -16.7747
  40   2.0000      -0.601078       -16.3562
  41   2.0000      -0.584915       -15.9164
  42   2.0000      -0.567658       -15.4468
  43   2.0000      -0.548454       -14.9242
  44   2.0000      -0.546283       -14.8651
  45   2.0000      -0.522126       -14.2078
  46   2.0000      -0.517037       -14.0693
  47   2.0000      -0.511277       -13.9125
  48   2.0000      -0.506237       -13.7754
  49   2.0000      -0.505594       -13.7579
  50   2.0000      -0.488696       -13.2981
  51   2.0000      -0.481493       -13.1021
  52   2.0000      -0.472050       -12.8451
  53   2.0000      -0.467141       -12.7115
  54   2.0000      -0.461732       -12.5644
  55   2.0000      -0.453840       -12.3496
  56   2.0000      -0.444123       -12.0852
  57   2.0000      -0.441906       -12.0249
  58   2.0000      -0.433359       -11.7923
  59   2.0000      -0.423533       -11.5249
  60   2.0000      -0.411864       -11.2074
  61   2.0000      -0.405001       -11.0206
  62   2.0000      -0.400722       -10.9042
  63   2.0000      -0.354606        -9.6493
  64   2.0000      -0.333274        -9.0689
  65   2.0000      -0.326430        -8.8826
  66   2.0000      -0.277990        -7.5645
  67   0.0000       0.017715         0.4820
  68   0.0000       0.069314         1.8861
  69   0.0000       0.108151         2.9429
  70   0.0000       0.130012         3.5378
  71   0.0000       0.141182         3.8417

MULLIKEN ATOMIC CHARGES
-----------------------
   0 S :    0.091626
   1 C :   -0.127356
   2 C :   -0.081921
   3 C :    0.020104
   4 C :   -0.160745
   5 H :    0.017777
   6 C :    0.014075
   7 H :    0.049301
   8 H :    0.007896
   9 C :    0.000777
  10 H :    0.021482
  11 H :    0.003678
  12 C :   -0.063210
  13 H :    0.022546
  14 H :    0.029909
  15 H :    0.054081
  16 S :    0.113535
  17 C :   -0.096536
  18 C :   -0.026012
  19 C :    0.016797
  20 C :   -0.148117
  21 H :   -0.023725
  22 C :    0.050326
  23 H :    0.044941
  24 H :    0.020186
  25 C :   -0.138760
  26 H :    0.052219
  27 H :    0.041859
  28 C :   -0.020318
  29 H :    0.023082
  30 H :    0.032665
  31 H :    0.026737
  32 H :    0.056121
  33 H :    0.074982
Sum of atomic charges:   -0.0000000

LOEWDIN ATOMIC CHARGES
----------------------
   0 S :    0.420856
   1 C :   -0.207761
   2 C :   -0.067950
   3 C :   -0.063535
   4 C :   -0.197773
   5 H :    0.034238
   6 C :   -0.042609
   7 H :    0.043404
   8 H :    0.026235
   9 C :   -0.032526
  10 H :    0.019569
  11 H :    0.016947
  12 C :   -0.068178
  13 H :    0.019359
  14 H :    0.034531
  15 H :    0.033201
  16 S :    0.427583
  17 C :   -0.207261
  18 C :   -0.071065
  19 C :   -0.051894
  20 C :   -0.194028
  21 H :    0.013953
  22 C :   -0.043265
  23 H :    0.036940
  24 H :    0.028586
  25 C :   -0.046585
  26 H :    0.033828
  27 H :    0.024195
  28 C :   -0.061806
  29 H :    0.013653
  30 H :    0.035808
  31 H :    0.025489
  32 H :    0.026500
  33 H :    0.041364

  Mayer bond orders larger than 0.100000
B(  0-S ,  1-C ) :   1.1482 B(  0-S ,  4-C ) :   1.1709 B(  1-C ,  2-C ) :   1.5485
B(  1-C ,  4-C ) :   0.1033 B(  1-C , 32-H ) :   0.9758 B(  2-C ,  3-C ) :   1.2736
B(  2-C ,  6-C ) :   1.0585 B(  3-C ,  4-C ) :   1.5219 B(  3-C ,  5-H ) :   0.9907
B(  4-C , 20-C ) :   1.1085 B(  6-C ,  7-H ) :   0.9392 B(  6-C ,  8-H ) :   0.9307
B(  6-C ,  9-C ) :   1.0628 B(  9-C , 10-H ) :   0.9539 B(  9-C , 11-H ) :   0.9447
B(  9-C , 12-C ) :   1.1003 B( 12-C , 13-H ) :   0.9719 B( 12-C , 14-H ) :   0.9665
B( 12-C , 15-H ) :   0.9649 B( 16-S , 17-C ) :   1.1872 B( 16-S , 20-C ) :   1.1523
B( 17-C , 18-C ) :   1.5385 B( 17-C , 20-C ) :   0.1139 B( 17-C , 33-H ) :   0.9627
B( 18-C , 19-C ) :   1.2985 B( 18-C , 21-H ) :   1.0087 B( 19-C , 20-C ) :   1.5066
B( 19-C , 22-C ) :   1.0289 B( 22-C , 23-H ) :   0.9325 B( 22-C , 24-H ) :   0.9342
B( 22-C , 25-C ) :   1.0575 B( 25-C , 26-H ) :   0.9593 B( 25-C , 27-H ) :   0.9488
B( 25-C , 28-C ) :   1.0849 B( 28-C , 29-H ) :   0.9766 B( 28-C , 30-H ) :   0.9705
B( 28-C , 31-H ) :   0.9727

Dispersion correction           -0.014094661
FINAL SINGLE POINT ENERGY     -1339.850533988520

DIPOLE MOMENT
-------------
                                X             Y             Z
Electronic contribution:     17.60905      -5.20409     -14.54208
Nuclear contribution   :    -18.08064       5.38113      14.76469
                        -----------------------------------------
Total Dipole Moment    :     -0.47159       0.17704       0.22261
                        -----------------------------------------
Magnitude (a.u.)       :      0.55072
Magnitude (Debye)      :      1.39982

Rotational constants in cm-1:     0.018342     0.008373     0.006986
Rotational constants in MHz :   549.870902   251.029372   209.439080

                             ****ORCA TERMINATED NORMALLY****
TOTAL RUN TIME: 0 days 0 hours 0 minutes 30 seconds 379 msec
