                         Program Version 4.2.1 -  RELEASE  -
|  1> ! wB97X-D3 SP def2-SVP
|  2> %pal
|  3> nprocs 16
|  4> end
|  5>
|  6> * xyz 0 1
|  7> S 	 -41.3467 	 33.3588 	 84.8927
|  8> C 	 -42.6446 	 34.4505 	 84.7417
|  9> C 	 -43.4701 	 34.0297 	 83.7315
| 10> C 	 -42.9981 	 32.9236 	 83.0105
| 11> C 	 -41.8165 	 32.3578 	 83.5623
| 12> H 	 -43.442 	 32.5223 	 82.1312
| 13> C 	 -44.6845 	 34.7834 	 83.371
| 14> H 	 -44.8826 	 34.6063 	 82.3202
| 15> H 	 -44.4486 	 35.9193 	 83.1679
| 16> C 	 -45.8585 	 34.5776 	 84.3423
| 17> H 	 -46.0094 	 33.4934 	 84.5258
| 18> H 	 -45.5379 	 35.0047 	 85.2782
| 19> C 	 -47.1059 	 35.292 	 84.0451
| 20> H 	 -47.6541 	 34.7468 	 83.2791
| 21> H 	 -47.7452 	 35.5018 	 84.91
| 22> H 	 -46.8789 	 36.286 	 83.6795
| 23> S 	 -39.237 	 31.5626 	 82.6751
| 24> C 	 -38.9512 	 29.9374 	 82.1946
| 25> C 	 -40.0785 	 29.1234 	 82.4345
| 26> C 	 -41.2008 	 29.8982 	 82.8363
| 27> C 	 -40.9366 	 31.2574 	 83.0352
| 28> H 	 -39.9552 	 28.0415 	 82.3578
| 29> C 	 -42.5264 	 29.2039 	 82.9403
| 30> H 	 -43.2521 	 30.0187 	 82.8818
| 31> H 	 -42.4557 	 28.6878 	 83.8825
| 32> C 	 -42.9135 	 28.2666 	 81.7515
| 33> H 	 -43.7313 	 27.7364 	 82.037
| 34> H 	 -42.1727 	 27.4926 	 81.4835
| 35> C 	 -43.3802 	 28.9148 	 80.3776
| 36> H 	 -42.5594 	 29.4783 	 79.8516
| 37> H 	 -44.2692 	 29.5535 	 80.6506
| 38> H 	 -43.8252 	 28.1121 	 79.6962
| 39> H 	 -42.6747 	 35.3965 	 85.2759
| 40> H 	 -37.9565 	 29.5071 	 82.0199
| 41> *
| 42>
| 43>                          ****END OF INPUT****

CARTESIAN COORDINATES (ANGSTROEM)
---------------------------------
  S    -41.346700   33.358800   84.892700
  C    -42.644600   34.450500   84.741700
  C    -43.470100   34.029700   83.731500
  C    -42.998100   32.923600   83.010500
  C    -41.816500   32.357800   83.562300
  H    -43.442000   32.522300   82.131200
  C    -44.684500   34.783400   83.371000
  H    -44.882600   34.606300   82.320200
  H    -44.448600   35.919300   83.167900
  C    -45.858500   34.577600   84.342300
  H    -46.009400   33.493400   84.525800
  H    -45.537900   35.004700   85.278200
  C    -47.105900   35.292000   84.045100
  H    -47.654100   34.746800   83.279100
  H    -47.745200   35.501800   84.910000
  H    -46.878900   36.286000   83.679500
  S    -39.237000   31.562600   82.675100
  C    -38.951200   29.937400   82.194600
  C    -40.078500   29.123400   82.434500
  C    -41.200800   29.898200   82.836300
  C    -40.936600   31.257400   83.035200
  H    -39.955200   28.041500   82.357800
  C    -42.526400   29.203900   82.940300
  H    -43.252100   30.018700   82.881800
  H    -42.455700   28.687800   83.882500
  C    -42.913500   28.266600   81.751500
  H    -43.731300   27.736400   82.037000
  H    -42.172700   27.492600   81.483500
  C    -43.380200   28.914800   80.377600
  H    -42.559400   29.478300   79.851600
  H    -44.269200   29.553500   80.650600
  H    -43.825200   28.112100   79.696200
  H    -42.674700   35.396500   85.275900
  H    -37.956500   29.507100   82.019900

 Total Charge           Charge          ....    0
 Multiplicity           Mult            ....    1
 Number of Electrons    NEL             ....  134
 Basis Dimension        Dim             ....  322

ORBITAL ENERGIES
----------------

  NO   OCC          E(Eh)            E(eV)
   0   2.0000     -88.966585     -2420.9039
   1   2.0000     -88.965402     -2420.8716
   2   2.0000     -10.334643      -281.2199
   3   2.0000     -10.331686      -281.1395
   4   2.0000     -10.319069      -280.7961
   5   2.0000     -10.309374      -280.5323
   6   2.0000     -10.302628      -280.3487
   7   2.0000     -10.294863      -280.1375
   8   2.0000     -10.294049      -280.1153
   9   2.0000     -10.293549      -280.1017
  10   2.0000     -10.293398      -280.0976
  11   2.0000     -10.293108      -280.0897
  12   2.0000     -10.291153      -280.0365
  13   2.0000     -10.284901      -279.8664
  14   2.0000     -10.282381      -279.7978
  15   2.0000     -10.272785      -279.5367
  16   2.0000      -8.081385      -219.9057
  17   2.0000      -8.081137      -219.8989
  18   2.0000      -6.039813      -164.3517
  19   2.0000      -6.039353      -164.3392
  20   2.0000      -6.035766      -164.2415
  21   2.0000      -6.035189      -164.2258
  22   2.0000      -6.032458      -164.1515
  23   2.0000      -6.032333      -164.1481
  24   2.0000      -1.008603       -27.4455
  25   2.0000      -0.989216       -26.9179
  26   2.0000      -0.916420       -24.9371
  27   2.0000      -0.905299       -24.6344
  28   2.0000      -0.868278       -23.6270
  29   2.0000      -0.854189       -23.2437
  30   2.0000      -0.845223       -22.9997
  31   2.0000      -0.814699       -22.1691
  32   2.0000      -0.780207       -21.2305
  33   2.0000      -0.768316       -20.9069
  34   2.0000      -0.703522       -19.1438
  35   2.0000      -0.700299       -19.0561
  36   2.0000      -0.692721       -18.8499
  37   2.0000      -0.657062       -17.8796
  38   2.0000      -0.645300       -17.5595
  39   2.0000      -0.617759       -16.8101
  40   2.0000      -0.590783       -16.0760
  41   2.0000      -0.573856       -15.6154
  42   2.0000      -0.563118       -15.3232
  43   2.0000      -0.557634       -15.1740
  44   2.0000      -0.538958       -14.6658
  45   2.0000      -0.529984       -14.4216
  46   2.0000      -0.521293       -14.1851
  47   2.0000      -0.511282       -13.9127
  48   2.0000      -0.508035       -13.8243
  49   2.0000      -0.502211       -13.6658
  50   2.0000      -0.493689       -13.4340
  51   2.0000      -0.477401       -12.9908
  52   2.0000      -0.467210       -12.7134
  53   2.0000      -0.459627       -12.5071
  54   2.0000      -0.456559       -12.4236
  55   2.0000      -0.449103       -12.2207
  56   2.0000      -0.444516       -12.0959
  57   2.0000      -0.436546       -11.8790
  58   2.0000      -0.429850       -11.6968
  59   2.0000      -0.424093       -11.5402
  60   2.0000      -0.415713       -11.3121
  61   2.0000      -0.415077       -11.2948
  62   2.0000      -0.402044       -10.9402
  63   2.0000      -0.340605        -9.2683
  64   2.0000      -0.331298        -9.0151
  65   2.0000      -0.328399        -8.9362
  66   2.0000      -0.295951        -8.0532
  67   0.0000       0.030390         0.8270
  68   0.0000       0.067206         1.8288
  69   0.0000       0.123501         3.3606
  70   0.0000       0.125403         3.4124
  71   0.0000       0.129873         3.5340

MULLIKEN ATOMIC CHARGES
-----------------------
   0 S :    0.120513
   1 C :   -0.128230
   2 C :   -0.077726
   3 C :    0.060336
   4 C :   -0.178310
   5 H :    0.000012
   6 C :    0.013846
   7 H :    0.003998
   8 H :    0.032339
   9 C :   -0.044714
  10 H :    0.036789
  11 H :    0.013198
  12 C :   -0.020079
  13 H :    0.030495
  14 H :    0.036283
  15 H :    0.015084
  16 S :    0.117916
  17 C :   -0.105307
  18 C :   -0.056015
  19 C :   -0.054869
  20 C :   -0.157305
  21 H :    0.032478
  22 C :    0.115622
  23 H :    0.013478
  24 H :    0.044706
  25 C :   -0.058866
  26 H :    0.006339
  27 H :    0.027318
  28 C :   -0.117396
  29 H :    0.064734
  30 H :    0.035904
  31 H :    0.048958
  32 H :    0.060990
  33 H :    0.067479
Sum of atomic charges:   -0.0000000

LOEWDIN ATOMIC CHARGES
----------------------
   0 S :    0.445620
   1 C :   -0.209241
   2 C :   -0.076223
   3 C :   -0.058399
   4 C :   -0.205137
   5 H :    0.026027
   6 C :   -0.045529
   7 H :    0.022719
   8 H :    0.039703
   9 C :   -0.043276
  10 H :    0.030200
  11 H :    0.022667
  12 C :   -0.065780
  13 H :    0.024411
  14 H :    0.030135
  15 H :    0.023719
  16 S :    0.420216
  17 C :   -0.198340
  18 C :   -0.076183
  19 C :   -0.055270
  20 C :   -0.211921
  21 H :    0.035058
  22 C :   -0.025383
  23 H :    0.030892
  24 H :    0.039161
  25 C :   -0.037911
  26 H :    0.011488
  27 H :    0.021783
  28 C :   -0.076810
  29 H :    0.032060
  30 H :    0.025916
  31 H :    0.035535
  32 H :    0.034221
  33 H :    0.033875

  Mayer bond orders larger than 0.100000
B(  0-S ,  1-C ) :   1.1752 B(  0-S ,  4-C ) :   1.1970 B(  1-C ,  2-C ) :   1.5351
B(  1-C ,  4-C ) :   0.1065 B(  1-C , 32-H ) :   0.9726 B(  2-C ,  3-C ) :   1.3117
B(  2-C ,  6-C ) :   1.0323 B(  3-C ,  4-C ) :   1.4980 B(  3-C ,  5-H ) :   0.9993
B(  4-C , 20-C ) :   1.0217 B(  6-C ,  7-H ) :   0.9401 B(  6-C ,  8-H ) :   0.9352
B(  6-C ,  9-C ) :   1.0463 B(  9-C , 10-H ) :   0.9553 B(  9-C , 11-H ) :   0.9513
B(  9-C , 12-C ) :   1.0943 B( 12-C , 13-H ) :   0.9736 B( 12-C , 14-H ) :   0.9727
B( 12-C , 15-H ) :   0.9653 B( 16-S , 17-C ) :   1.1871 B( 16-S , 20-C ) :   1.1418
B( 17-C , 18-C ) :   1.5782 B( 17-C , 33-H ) :   0.9614 B( 18-C , 19-C ) :   1.2635
B( 18-C , 21-H ) :   0.9889 B( 19-C , 20-C ) :   1.5718 B( 19-C , 22-C ) :   1.0323
B( 22-C , 23-H ) :   0.9357 B( 22-C , 24-H ) :   0.9247 B( 22-C , 25-C ) :   1.0730
B( 25-C , 26-H ) :   0.9522 B( 25-C , 27-H ) :   0.9539 B( 25-C , 28-C ) :   1.0702
B( 28-C , 29-H ) :   0.9772 B( 28-C , 30-H ) :   0.9735 B( 28-C , 31-H ) :   0.9740

Dispersion correction           -0.013766826
FINAL SINGLE POINT ENERGY     -1339.865981400987

DIPOLE MOMENT
-------------
                                X             Y             Z
Electronic contribution:     27.61759       2.78010       7.59324
Nuclear contribution   :    -28.04788      -2.99373      -7.70457
                        -----------------------------------------
Total Dipole Moment    :     -0.43029      -0.21363      -0.11133
                        -----------------------------------------
Magnitude (a.u.)       :      0.49313
Magnitude (Debye)      :      1.25344

Rotational constants in cm-1:     0.019963     0.007878     0.006062
Rotational constants in MHz :   598.462593   236.179756   181.727577

                             ****ORCA TERMINATED NORMALLY****
TOTAL RUN TIME: 0 days 0 hours 0 minutes 29 seconds 441 msec
