                         Program Version 4.2.1 -  RELEASE  -
|  1> ! wB97X-D3 SP def2-SVP
|  2> %pal
|  3> nprocs 16
|  4> end
|  5>
|  6> * xyz 0 1
|  7> S 	 28.7651 	 -7.79085 	 77.6943
|  8> C 	 30.327 	 -7.13126 	 77.3719
|  9> C 	 31.0859 	 -7.1266 	 78.5496
| 10> C 	 30.2603 	 -7.53683 	 79.6762
| 11> C 	 28.9561 	 -7.87359 	 79.4123
| 12> H 	 30.5307 	 -7.64681 	 80.6307
| 13> C 	 32.4616 	 -6.58046 	 78.7254
| 14> H 	 32.8123 	 -6.92504 	 79.6728
| 15> H 	 32.4972 	 -5.46217 	 78.8101
| 16> C 	 33.4856 	 -6.91932 	 77.5612
| 17> H 	 33.5151 	 -7.99866 	 77.316
| 18> H 	 33.1225 	 -6.30717 	 76.6385
| 19> C 	 34.9362 	 -6.42384 	 77.8453
| 20> H 	 35.7241 	 -6.68463 	 77.0329
| 21> H 	 34.9387 	 -5.30986 	 77.9833
| 22> H 	 35.3446 	 -6.95619 	 78.6621
| 23> S 	 26.6165 	 -9.32367 	 79.5009
| 24> C 	 25.7408 	 -9.5882 	 80.961
| 25> C 	 26.2861 	 -8.89149 	 81.9854
| 26> C 	 27.5172 	 -8.24398 	 81.6467
| 27> C 	 27.8863 	 -8.40195 	 80.2755
| 28> H 	 25.8067 	 -8.88713 	 82.9415
| 29> C 	 28.2781 	 -7.29689 	 82.5776
| 30> H 	 27.5125 	 -6.70011 	 83.1673
| 31> H 	 28.7812 	 -6.5798 	 82.0159
| 32> C 	 29.0455 	 -7.97202 	 83.7247
| 33> H 	 29.4478 	 -7.12054 	 84.3069
| 34> H 	 29.892 	 -8.46919 	 83.2856
| 35> C 	 28.3129 	 -8.93993 	 84.7357
| 36> H 	 27.4072 	 -8.51778 	 85.0732
| 37> H 	 28.9797 	 -9.10963 	 85.6029
| 38> H 	 28.1437 	 -9.8989 	 84.2516
| 39> H 	 30.7551 	 -6.73902 	 76.4052
| 40> H 	 24.8123 	 -10.0778 	 80.885
| 41> *
| 42>
| 43>                          ****END OF INPUT****

CARTESIAN COORDINATES (ANGSTROEM)
---------------------------------
  S     28.765100   -7.790850   77.694300
  C     30.327000   -7.131260   77.371900
  C     31.085900   -7.126600   78.549600
  C     30.260300   -7.536830   79.676200
  C     28.956100   -7.873590   79.412300
  H     30.530700   -7.646810   80.630700
  C     32.461600   -6.580460   78.725400
  H     32.812300   -6.925040   79.672800
  H     32.497200   -5.462170   78.810100
  C     33.485600   -6.919320   77.561200
  H     33.515100   -7.998660   77.316000
  H     33.122500   -6.307170   76.638500
  C     34.936200   -6.423840   77.845300
  H     35.724100   -6.684630   77.032900
  H     34.938700   -5.309860   77.983300
  H     35.344600   -6.956190   78.662100
  S     26.616500   -9.323670   79.500900
  C     25.740800   -9.588200   80.961000
  C     26.286100   -8.891490   81.985400
  C     27.517200   -8.243980   81.646700
  C     27.886300   -8.401950   80.275500
  H     25.806700   -8.887130   82.941500
  C     28.278100   -7.296890   82.577600
  H     27.512500   -6.700110   83.167300
  H     28.781200   -6.579800   82.015900
  C     29.045500   -7.972020   83.724700
  H     29.447800   -7.120540   84.306900
  H     29.892000   -8.469190   83.285600
  C     28.312900   -8.939930   84.735700
  H     27.407200   -8.517780   85.073200
  H     28.979700   -9.109630   85.602900
  H     28.143700   -9.898900   84.251600
  H     30.755100   -6.739020   76.405200
  H     24.812300  -10.077800   80.885000

 Total Charge           Charge          ....    0
 Multiplicity           Mult            ....    1
 Number of Electrons    NEL             ....  134
 Basis Dimension        Dim             ....  322

ORBITAL ENERGIES
----------------

  NO   OCC          E(Eh)            E(eV)
   0   2.0000     -88.964783     -2420.8548
   1   2.0000     -88.962408     -2420.7902
   2   2.0000     -10.335340      -281.2389
   3   2.0000     -10.331958      -281.1469
   4   2.0000     -10.319556      -280.8094
   5   2.0000     -10.313193      -280.6363
   6   2.0000     -10.310160      -280.5537
   7   2.0000     -10.305203      -280.4188
   8   2.0000     -10.303312      -280.3674
   9   2.0000     -10.297682      -280.2142
  10   2.0000     -10.294420      -280.1254
  11   2.0000     -10.292649      -280.0772
  12   2.0000     -10.289134      -279.9816
  13   2.0000     -10.289007      -279.9781
  14   2.0000     -10.286349      -279.9058
  15   2.0000     -10.282043      -279.7886
  16   2.0000      -8.080106      -219.8709
  17   2.0000      -8.078065      -219.8153
  18   2.0000      -6.038689      -164.3211
  19   2.0000      -6.036522      -164.2621
  20   2.0000      -6.034400      -164.2044
  21   2.0000      -6.032334      -164.1481
  22   2.0000      -6.030859      -164.1080
  23   2.0000      -6.028941      -164.0558
  24   2.0000      -1.010547       -27.4984
  25   2.0000      -0.988858       -26.9082
  26   2.0000      -0.907293       -24.6887
  27   2.0000      -0.905828       -24.6488
  28   2.0000      -0.870524       -23.6882
  29   2.0000      -0.850056       -23.1312
  30   2.0000      -0.841887       -22.9089
  31   2.0000      -0.821242       -22.3471
  32   2.0000      -0.787067       -21.4172
  33   2.0000      -0.772235       -21.0136
  34   2.0000      -0.707400       -19.2493
  35   2.0000      -0.700771       -19.0689
  36   2.0000      -0.690473       -18.7887
  37   2.0000      -0.666310       -18.1312
  38   2.0000      -0.642377       -17.4800
  39   2.0000      -0.617930       -16.8147
  40   2.0000      -0.600155       -16.3310
  41   2.0000      -0.572564       -15.5802
  42   2.0000      -0.565230       -15.3807
  43   2.0000      -0.559646       -15.2287
  44   2.0000      -0.541191       -14.7265
  45   2.0000      -0.521604       -14.1936
  46   2.0000      -0.514556       -14.0018
  47   2.0000      -0.509464       -13.8632
  48   2.0000      -0.507199       -13.8016
  49   2.0000      -0.498847       -13.5743
  50   2.0000      -0.493427       -13.4268
  51   2.0000      -0.488480       -13.2922
  52   2.0000      -0.476236       -12.9590
  53   2.0000      -0.465364       -12.6632
  54   2.0000      -0.463716       -12.6184
  55   2.0000      -0.449189       -12.2230
  56   2.0000      -0.447171       -12.1681
  57   2.0000      -0.440391       -11.9836
  58   2.0000      -0.433119       -11.7858
  59   2.0000      -0.420364       -11.4387
  60   2.0000      -0.418637       -11.3917
  61   2.0000      -0.415325       -11.3016
  62   2.0000      -0.403315       -10.9748
  63   2.0000      -0.364131        -9.9085
  64   2.0000      -0.332786        -9.0556
  65   2.0000      -0.323239        -8.7958
  66   2.0000      -0.285955        -7.7812
  67   0.0000       0.022148         0.6027
  68   0.0000       0.080525         2.1912
  69   0.0000       0.106174         2.8891
  70   0.0000       0.117858         3.2071
  71   0.0000       0.135062         3.6752

MULLIKEN ATOMIC CHARGES
-----------------------
   0 S :    0.100790
   1 C :   -0.126066
   2 C :   -0.072692
   3 C :    0.050931
   4 C :   -0.112054
   5 H :   -0.058012
   6 C :    0.067065
   7 H :    0.010626
   8 H :    0.047807
   9 C :   -0.135191
  10 H :    0.048616
  11 H :    0.042828
  12 C :   -0.071482
  13 H :    0.046229
  14 H :    0.043337
  15 H :    0.026785
  16 S :    0.081606
  17 C :   -0.070420
  18 C :   -0.013572
  19 C :   -0.053312
  20 C :   -0.129576
  21 H :    0.013752
  22 C :    0.056628
  23 H :    0.025355
  24 H :    0.017253
  25 C :   -0.085617
  26 H :    0.030797
  27 H :    0.023076
  28 C :   -0.039323
  29 H :    0.022130
  30 H :    0.043042
  31 H :    0.046030
  32 H :    0.073391
  33 H :    0.049241
Sum of atomic charges:    0.0000000

LOEWDIN ATOMIC CHARGES
----------------------
   0 S :    0.420810
   1 C :   -0.212061
   2 C :   -0.064959
   3 C :   -0.058180
   4 C :   -0.192656
   5 H :    0.004792
   6 C :   -0.035905
   7 H :    0.023597
   8 H :    0.040676
   9 C :   -0.046106
  10 H :    0.027200
  11 H :    0.029488
  12 C :   -0.077458
  13 H :    0.037945
  14 H :    0.029599
  15 H :    0.016431
  16 S :    0.412413
  17 C :   -0.178593
  18 C :   -0.070428
  19 C :   -0.054670
  20 C :   -0.195911
  21 H :    0.031208
  22 C :   -0.033299
  23 H :    0.037343
  24 H :    0.021518
  25 C :   -0.039630
  26 H :    0.025663
  27 H :    0.015682
  28 C :   -0.059393
  29 H :    0.014840
  30 H :    0.034623
  31 H :    0.028067
  32 H :    0.045452
  33 H :    0.021899

  Mayer bond orders larger than 0.100000
B(  0-S ,  1-C ) :   1.1525 B(  0-S ,  4-C ) :   1.1474 B(  1-C ,  2-C ) :   1.5810
B(  1-C , 32-H ) :   0.9630 B(  2-C ,  3-C ) :   1.2384 B(  2-C ,  6-C ) :   1.0371
B(  3-C ,  4-C ) :   1.5674 B(  3-C ,  5-H ) :   1.0183 B(  4-C , 20-C ) :   1.0654
B(  6-C ,  7-H ) :   0.9418 B(  6-C ,  8-H ) :   0.9344 B(  6-C ,  9-C ) :   1.0453
B(  9-C , 10-H ) :   0.9635 B(  9-C , 11-H ) :   0.9532 B(  9-C , 12-C ) :   1.0777
B( 12-C , 13-H ) :   0.9743 B( 12-C , 14-H ) :   0.9738 B( 12-C , 15-H ) :   0.9761
B( 16-S , 17-C ) :   1.1710 B( 16-S , 20-C ) :   1.1511 B( 17-C , 18-C ) :   1.5766
B( 17-C , 33-H ) :   0.9757 B( 18-C , 19-C ) :   1.2635 B( 18-C , 21-H ) :   0.9975
B( 19-C , 20-C ) :   1.5454 B( 19-C , 22-C ) :   1.0367 B( 22-C , 23-H ) :   0.9383
B( 22-C , 24-H ) :   0.9409 B( 22-C , 25-C ) :   1.0628 B( 25-C , 26-H ) :   0.9579
B( 25-C , 27-H ) :   0.9551 B( 25-C , 28-C ) :   1.0782 B( 28-C , 29-H ) :   0.9751
B( 28-C , 30-H ) :   0.9732 B( 28-C , 31-H ) :   0.9727

Dispersion correction           -0.013657675
FINAL SINGLE POINT ENERGY     -1339.867659913232

DIPOLE MOMENT
-------------
                                X             Y             Z
Electronic contribution:    -22.83951      -7.19914     -14.29892
Nuclear contribution   :     23.18446       7.44662      14.82852
                        -----------------------------------------
Total Dipole Moment    :      0.34496       0.24749       0.52960
                        -----------------------------------------
Magnitude (a.u.)       :      0.67876
Magnitude (Debye)      :      1.72528

Rotational constants in cm-1:     0.021338     0.007332     0.005645
Rotational constants in MHz :   639.683511   219.795582   169.227116

                             ****ORCA TERMINATED NORMALLY****
TOTAL RUN TIME: 0 days 0 hours 0 minutes 29 seconds 315 msec
