                         Program Version 4.2.1 -  RELEASE  -
|  1> ! wB97X-D3 SP def2-SVP
|  2> %pal
|  3> nprocs 16
|  4> end
|  5>
|  6> * xyz 0 1
|  7> S 	 -28.412 	 64.1311 	 103.562
|  8> C 	 -30.1066 	 64.4507 	 103.067
|  9> C 	 -30.9497 	 63.4237 	 103.45
| 10> C 	 -30.2364 	 62.3716 	 104.089
| 11> C 	 -28.8906 	 62.6315 	 104.301
| 12> H 	 -30.7719 	 61.562 	 104.507
| 13> C 	 -32.4308 	 63.4769 	 103.125
| 14> H 	 -32.5908 	 63.0697 	 102.143
| 15> H 	 -32.8782 	 64.4595 	 103.049
| 16> C 	 -33.3611 	 62.6927 	 104.056
| 17> H 	 -33.1153 	 61.6601 	 104.351
| 18> H 	 -33.4211 	 63.3279 	 104.944
| 19> C 	 -34.8227 	 62.7416 	 103.454
| 20> H 	 -35.589 	 62.3397 	 104.152
| 21> H 	 -35.2176 	 63.7162 	 103.183
| 22> H 	 -35.0388 	 62.0852 	 102.643
| 23> S 	 -27.0335 	 62.2389 	 106.274
| 24> C 	 -25.9409 	 60.8955 	 106.13
| 25> C 	 -26.4131 	 59.9328 	 105.162
| 26> C 	 -27.6385 	 60.4142 	 104.572
| 27> C 	 -27.8559 	 61.7595 	 104.785
| 28> H 	 -25.8939 	 58.9613 	 105.062
| 29> C 	 -28.4491 	 59.4411 	 103.684
| 30> H 	 -27.783 	 58.8895 	 103.035
| 31> H 	 -29.1076 	 60.1063 	 102.985
| 32> C 	 -29.3646 	 58.3902 	 104.392
| 33> H 	 -30.0657 	 58.9431 	 105.051
| 34> H 	 -28.7005 	 57.8193 	 105.136
| 35> C 	 -30.1274 	 57.4632 	 103.354
| 36> H 	 -29.3819 	 57.0018 	 102.714
| 37> H 	 -30.7365 	 57.9798 	 102.642
| 38> H 	 -30.7001 	 56.7164 	 103.873
| 39> H 	 -30.5039 	 65.3072 	 102.534
| 40> H 	 -25.0821 	 60.7202 	 106.734
| 41> *
| 42>
| 43>                          ****END OF INPUT****

CARTESIAN COORDINATES (ANGSTROEM)
---------------------------------
  S    -28.412000   64.131100  103.562000
  C    -30.106600   64.450700  103.067000
  C    -30.949700   63.423700  103.450000
  C    -30.236400   62.371600  104.089000
  C    -28.890600   62.631500  104.301000
  H    -30.771900   61.562000  104.507000
  C    -32.430800   63.476900  103.125000
  H    -32.590800   63.069700  102.143000
  H    -32.878200   64.459500  103.049000
  C    -33.361100   62.692700  104.056000
  H    -33.115300   61.660100  104.351000
  H    -33.421100   63.327900  104.944000
  C    -34.822700   62.741600  103.454000
  H    -35.589000   62.339700  104.152000
  H    -35.217600   63.716200  103.183000
  H    -35.038800   62.085200  102.643000
  S    -27.033500   62.238900  106.274000
  C    -25.940900   60.895500  106.130000
  C    -26.413100   59.932800  105.162000
  C    -27.638500   60.414200  104.572000
  C    -27.855900   61.759500  104.785000
  H    -25.893900   58.961300  105.062000
  C    -28.449100   59.441100  103.684000
  H    -27.783000   58.889500  103.035000
  H    -29.107600   60.106300  102.985000
  C    -29.364600   58.390200  104.392000
  H    -30.065700   58.943100  105.051000
  H    -28.700500   57.819300  105.136000
  C    -30.127400   57.463200  103.354000
  H    -29.381900   57.001800  102.714000
  H    -30.736500   57.979800  102.642000
  H    -30.700100   56.716400  103.873000
  H    -30.503900   65.307200  102.534000
  H    -25.082100   60.720200  106.734000

 Total Charge           Charge          ....    0
 Multiplicity           Mult            ....    1
 Number of Electrons    NEL             ....  134
 Basis Dimension        Dim             ....  322

ORBITAL ENERGIES
----------------

  NO   OCC          E(Eh)            E(eV)
   0   2.0000     -88.967089     -2420.9176
   1   2.0000     -88.965851     -2420.8839
   2   2.0000     -10.327833      -281.0346
   3   2.0000     -10.323831      -280.9257
   4   2.0000     -10.320608      -280.8380
   5   2.0000     -10.314004      -280.6583
   6   2.0000     -10.309047      -280.5234
   7   2.0000     -10.302662      -280.3497
   8   2.0000     -10.302085      -280.3340
   9   2.0000     -10.300311      -280.2857
  10   2.0000     -10.299127      -280.2535
  11   2.0000     -10.295824      -280.1636
  12   2.0000     -10.293289      -280.0946
  13   2.0000     -10.292890      -280.0838
  14   2.0000     -10.282466      -279.8001
  15   2.0000     -10.281158      -279.7645
  16   2.0000      -8.081202      -219.9007
  17   2.0000      -8.080499      -219.8816
  18   2.0000      -6.039729      -164.3494
  19   2.0000      -6.038976      -164.3289
  20   2.0000      -6.035740      -164.2408
  21   2.0000      -6.035229      -164.2269
  22   2.0000      -6.032020      -164.1396
  23   2.0000      -6.031084      -164.1141
  24   2.0000      -1.005307       -27.3558
  25   2.0000      -0.979781       -26.6612
  26   2.0000      -0.913005       -24.8441
  27   2.0000      -0.897088       -24.4110
  28   2.0000      -0.867168       -23.5968
  29   2.0000      -0.847773       -23.0691
  30   2.0000      -0.841295       -22.8928
  31   2.0000      -0.810110       -22.0442
  32   2.0000      -0.783021       -21.3071
  33   2.0000      -0.773021       -21.0350
  34   2.0000      -0.714528       -19.4433
  35   2.0000      -0.697646       -18.9839
  36   2.0000      -0.690229       -18.7821
  37   2.0000      -0.660687       -17.9782
  38   2.0000      -0.641157       -17.4468
  39   2.0000      -0.625408       -17.0182
  40   2.0000      -0.588926       -16.0255
  41   2.0000      -0.570504       -15.5242
  42   2.0000      -0.566702       -15.4207
  43   2.0000      -0.553047       -15.0492
  44   2.0000      -0.524480       -14.2718
  45   2.0000      -0.520914       -14.1748
  46   2.0000      -0.515806       -14.0358
  47   2.0000      -0.507165       -13.8007
  48   2.0000      -0.504930       -13.7398
  49   2.0000      -0.494109       -13.4454
  50   2.0000      -0.489698       -13.3254
  51   2.0000      -0.478487       -13.0203
  52   2.0000      -0.469383       -12.7726
  53   2.0000      -0.466267       -12.6878
  54   2.0000      -0.458924       -12.4880
  55   2.0000      -0.454067       -12.3558
  56   2.0000      -0.445066       -12.1109
  57   2.0000      -0.440907       -11.9977
  58   2.0000      -0.432903       -11.7799
  59   2.0000      -0.425862       -11.5883
  60   2.0000      -0.420623       -11.4457
  61   2.0000      -0.416388       -11.3305
  62   2.0000      -0.413833       -11.2610
  63   2.0000      -0.335494        -9.1293
  64   2.0000      -0.334897        -9.1130
  65   2.0000      -0.324321        -8.8252
  66   2.0000      -0.292799        -7.9675
  67   0.0000       0.024838         0.6759
  68   0.0000       0.063512         1.7283
  69   0.0000       0.098238         2.6732
  70   0.0000       0.118887         3.2351
  71   0.0000       0.124961         3.4004

MULLIKEN ATOMIC CHARGES
-----------------------
   0 S :    0.117235
   1 C :   -0.122784
   2 C :   -0.069806
   3 C :    0.043586
   4 C :   -0.143507
   5 H :   -0.008415
   6 C :    0.070739
   7 H :    0.032328
   8 H :    0.021234
   9 C :   -0.095197
  10 H :    0.048776
  11 H :    0.039319
  12 C :   -0.073551
  13 H :    0.025932
  14 H :    0.028360
  15 H :    0.023987
  16 S :    0.112941
  17 C :   -0.087442
  18 C :   -0.049284
  19 C :   -0.015467
  20 C :   -0.145459
  21 H :    0.039485
  22 C :    0.004158
  23 H :    0.022065
  24 H :    0.043162
  25 C :   -0.097277
  26 H :    0.030988
  27 H :    0.037909
  28 C :   -0.018339
  29 H :    0.023999
  30 H :    0.027513
  31 H :    0.041651
  32 H :    0.040504
  33 H :    0.050657
Sum of atomic charges:    0.0000000

LOEWDIN ATOMIC CHARGES
----------------------
   0 S :    0.405631
   1 C :   -0.185679
   2 C :   -0.061419
   3 C :   -0.058572
   4 C :   -0.198755
   5 H :    0.022796
   6 C :   -0.032712
   7 H :    0.030669
   8 H :    0.032734
   9 C :   -0.037172
  10 H :    0.026209
  11 H :    0.028767
  12 C :   -0.074658
  13 H :    0.030334
  14 H :    0.023281
  15 H :    0.019294
  16 S :    0.408900
  17 C :   -0.183362
  18 C :   -0.073925
  19 C :   -0.047921
  20 C :   -0.206525
  21 H :    0.038610
  22 C :   -0.040885
  23 H :    0.023196
  24 H :    0.037266
  25 C :   -0.042667
  26 H :    0.020429
  27 H :    0.029614
  28 C :   -0.059758
  29 H :    0.026019
  30 H :    0.023668
  31 H :    0.026845
  32 H :    0.028177
  33 H :    0.021572

  Mayer bond orders larger than 0.100000
B(  0-S ,  1-C ) :   1.1321 B(  0-S ,  4-C ) :   1.1602 B(  1-C ,  2-C ) :   1.6182
B(  1-C ,  4-C ) :   0.1022 B(  1-C , 32-H ) :   0.9689 B(  2-C ,  3-C ) :   1.2634
B(  2-C ,  6-C ) :   1.0086 B(  3-C ,  4-C ) :   1.5518 B(  3-C ,  5-H ) :   1.0007
B(  4-C , 20-C ) :   1.0266 B(  6-C ,  7-H ) :   0.9383 B(  6-C ,  8-H ) :   0.9458
B(  6-C ,  9-C ) :   1.0564 B(  9-C , 10-H ) :   0.9552 B(  9-C , 11-H ) :   0.9612
B(  9-C , 12-C ) :   1.0760 B( 12-C , 13-H ) :   0.9726 B( 12-C , 14-H ) :   0.9758
B( 12-C , 15-H ) :   0.9763 B( 16-S , 17-C ) :   1.1733 B( 16-S , 20-C ) :   1.1320
B( 17-C , 18-C ) :   1.5816 B( 17-C , 20-C ) :   0.1108 B( 17-C , 33-H ) :   0.9726
B( 18-C , 19-C ) :   1.2287 B( 18-C , 21-H ) :   0.9873 B( 19-C , 20-C ) :   1.5976
B( 19-C , 22-C ) :   1.0397 B( 22-C , 23-H ) :   0.9427 B( 22-C , 24-H ) :   0.9389
B( 22-C , 25-C ) :   1.0500 B( 25-C , 26-H ) :   0.9560 B( 25-C , 27-H ) :   0.9562
B( 25-C , 28-C ) :   1.0645 B( 28-C , 29-H ) :   0.9748 B( 28-C , 30-H ) :   0.9766
B( 28-C , 31-H ) :   0.9770

Dispersion correction           -0.013901234
FINAL SINGLE POINT ENERGY     -1339.859204527866

DIPOLE MOMENT
-------------
                                X             Y             Z
Electronic contribution:     26.54175      16.83463       7.98841
Nuclear contribution   :    -27.12951     -17.35671      -8.15679
                        -----------------------------------------
Total Dipole Moment    :     -0.58776      -0.52208      -0.16838
                        -----------------------------------------
Magnitude (a.u.)       :      0.80398
Magnitude (Debye)      :      2.04355

Rotational constants in cm-1:     0.016393     0.009038     0.006512
Rotational constants in MHz :   491.444713   270.965354   195.211322

                             ****ORCA TERMINATED NORMALLY****
TOTAL RUN TIME: 0 days 0 hours 0 minutes 29 seconds 866 msec
