                         Program Version 4.2.1 -  RELEASE  -
|  1> ! wB97X-D3 SP def2-SVP
|  2> %pal
|  3> nprocs 16
|  4> end
|  5>
|  6> * xyz 0 1
|  7> S 	 -38.5409 	 25.6644 	 76.4097
|  8> C 	 -37.5159 	 25.7982 	 74.935
|  9> C 	 -36.5758 	 26.8393 	 75.1488
| 10> C 	 -36.5705 	 27.3896 	 76.5074
| 11> C 	 -37.5782 	 26.8383 	 77.2888
| 12> H 	 -35.8958 	 28.1356 	 76.9987
| 13> C 	 -35.6012 	 27.3965 	 74.0695
| 14> H 	 -35.57 	 26.5644 	 73.3013
| 15> H 	 -34.6274 	 27.3433 	 74.5216
| 16> C 	 -36.0984 	 28.6942 	 73.3386
| 17> H 	 -37.0283 	 28.4494 	 72.7602
| 18> H 	 -36.5427 	 29.4559 	 73.9835
| 19> C 	 -35.0581 	 29.3523 	 72.5006
| 20> H 	 -34.0712 	 29.4375 	 72.9436
| 21> H 	 -35.1283 	 28.966 	 71.4654
| 22> H 	 -35.4455 	 30.3081 	 72.4223
| 23> S 	 -38.1908 	 26.0868 	 79.924
| 24> C 	 -38.3514 	 27.2846 	 81.1775
| 25> C 	 -38.3473 	 28.5269 	 80.6186
| 26> C 	 -38.0997 	 28.5259 	 79.1803
| 27> C 	 -37.8976 	 27.249 	 78.6533
| 28> H 	 -38.53 	 29.477 	 81.2119
| 29> C 	 -38.0055 	 29.782 	 78.3267
| 30> H 	 -38.8915 	 29.8229 	 77.691
| 31> H 	 -37.0286 	 29.7896 	 77.8874
| 32> C 	 -38.0178 	 31.1323 	 79.1388
| 33> H 	 -38.5911 	 31.0585 	 80.0483
| 34> H 	 -38.5694 	 31.9238 	 78.5602
| 35> C 	 -36.5932 	 31.5492 	 79.5198
| 36> H 	 -35.928 	 30.7423 	 79.6894
| 37> H 	 -36.6052 	 32.3819 	 80.2772
| 38> H 	 -36.1892 	 32.0644 	 78.7007
| 39> H 	 -37.6038 	 25.3529 	 73.9873
| 40> H 	 -38.7202 	 27.1006 	 82.1728
| 41> *
| 42>
| 43>                          ****END OF INPUT****

CARTESIAN COORDINATES (ANGSTROEM)
---------------------------------
  S    -38.540900   25.664400   76.409700
  C    -37.515900   25.798200   74.935000
  C    -36.575800   26.839300   75.148800
  C    -36.570500   27.389600   76.507400
  C    -37.578200   26.838300   77.288800
  H    -35.895800   28.135600   76.998700
  C    -35.601200   27.396500   74.069500
  H    -35.570000   26.564400   73.301300
  H    -34.627400   27.343300   74.521600
  C    -36.098400   28.694200   73.338600
  H    -37.028300   28.449400   72.760200
  H    -36.542700   29.455900   73.983500
  C    -35.058100   29.352300   72.500600
  H    -34.071200   29.437500   72.943600
  H    -35.128300   28.966000   71.465400
  H    -35.445500   30.308100   72.422300
  S    -38.190800   26.086800   79.924000
  C    -38.351400   27.284600   81.177500
  C    -38.347300   28.526900   80.618600
  C    -38.099700   28.525900   79.180300
  C    -37.897600   27.249000   78.653300
  H    -38.530000   29.477000   81.211900
  C    -38.005500   29.782000   78.326700
  H    -38.891500   29.822900   77.691000
  H    -37.028600   29.789600   77.887400
  C    -38.017800   31.132300   79.138800
  H    -38.591100   31.058500   80.048300
  H    -38.569400   31.923800   78.560200
  C    -36.593200   31.549200   79.519800
  H    -35.928000   30.742300   79.689400
  H    -36.605200   32.381900   80.277200
  H    -36.189200   32.064400   78.700700
  H    -37.603800   25.352900   73.987300
  H    -38.720200   27.100600   82.172800

 Total Charge           Charge          ....    0
 Multiplicity           Mult            ....    1
 Number of Electrons    NEL             ....  134
 Basis Dimension        Dim             ....  322

ORBITAL ENERGIES
----------------

  NO   OCC          E(Eh)            E(eV)
   0   2.0000     -88.969091     -2420.9720
   1   2.0000     -88.962563     -2420.7944
   2   2.0000     -10.333052      -281.1766
   3   2.0000     -10.327121      -281.0152
   4   2.0000     -10.319268      -280.8016
   5   2.0000     -10.315941      -280.7110
   6   2.0000     -10.311508      -280.5904
   7   2.0000     -10.306141      -280.4444
   8   2.0000     -10.301795      -280.3261
   9   2.0000     -10.299340      -280.2593
  10   2.0000     -10.299240      -280.2566
  11   2.0000     -10.292232      -280.0659
  12   2.0000     -10.291364      -280.0422
  13   2.0000     -10.288691      -279.9695
  14   2.0000     -10.274617      -279.5865
  15   2.0000     -10.272148      -279.5194
  16   2.0000      -8.082525      -219.9367
  17   2.0000      -8.077604      -219.8028
  18   2.0000      -6.041239      -164.3905
  19   2.0000      -6.037173      -164.2798
  20   2.0000      -6.036255      -164.2548
  21   2.0000      -6.033163      -164.1707
  22   2.0000      -6.031888      -164.1360
  23   2.0000      -6.028367      -164.0402
  24   2.0000      -1.002950       -27.2917
  25   2.0000      -0.976222       -26.5643
  26   2.0000      -0.908535       -24.7225
  27   2.0000      -0.907657       -24.6986
  28   2.0000      -0.872174       -23.7331
  29   2.0000      -0.849760       -23.1232
  30   2.0000      -0.840541       -22.8723
  31   2.0000      -0.816718       -22.2240
  32   2.0000      -0.780699       -21.2439
  33   2.0000      -0.770787       -20.9742
  34   2.0000      -0.707798       -19.2602
  35   2.0000      -0.701277       -19.0827
  36   2.0000      -0.699313       -19.0293
  37   2.0000      -0.647129       -17.6093
  38   2.0000      -0.639892       -17.4123
  39   2.0000      -0.611375       -16.6364
  40   2.0000      -0.597404       -16.2562
  41   2.0000      -0.567108       -15.4318
  42   2.0000      -0.564378       -15.3575
  43   2.0000      -0.557391       -15.1674
  44   2.0000      -0.533832       -14.5263
  45   2.0000      -0.528279       -14.3752
  46   2.0000      -0.523216       -14.2374
  47   2.0000      -0.510966       -13.9041
  48   2.0000      -0.509892       -13.8749
  49   2.0000      -0.502810       -13.6822
  50   2.0000      -0.495435       -13.4815
  51   2.0000      -0.477850       -13.0030
  52   2.0000      -0.466899       -12.7050
  53   2.0000      -0.463797       -12.6206
  54   2.0000      -0.457019       -12.4361
  55   2.0000      -0.451773       -12.2934
  56   2.0000      -0.445677       -12.1275
  57   2.0000      -0.441889       -12.0244
  58   2.0000      -0.439422       -11.9573
  59   2.0000      -0.415345       -11.3021
  60   2.0000      -0.412338       -11.2203
  61   2.0000      -0.406232       -11.0541
  62   2.0000      -0.404178       -10.9982
  63   2.0000      -0.347355        -9.4520
  64   2.0000      -0.328403        -8.9363
  65   2.0000      -0.326972        -8.8974
  66   2.0000      -0.295395        -8.0381
  67   0.0000       0.026688         0.7262
  68   0.0000       0.072147         1.9632
  69   0.0000       0.109523         2.9803
  70   0.0000       0.124289         3.3821
  71   0.0000       0.134062         3.6480

MULLIKEN ATOMIC CHARGES
-----------------------
   0 S :    0.110156
   1 C :   -0.086441
   2 C :   -0.129159
   3 C :    0.014095
   4 C :   -0.141042
   5 H :    0.041935
   6 C :    0.053618
   7 H :    0.020867
   8 H :    0.033207
   9 C :   -0.098129
  10 H :    0.028091
  11 H :    0.024140
  12 C :    0.009744
  13 H :    0.040749
  14 H :    0.038412
  15 H :    0.006746
  16 S :    0.101410
  17 C :   -0.074368
  18 C :   -0.057337
  19 C :   -0.086629
  20 C :   -0.160137
  21 H :    0.046289
  22 C :    0.103439
  23 H :    0.051716
  24 H :    0.022021
  25 C :   -0.106638
  26 H :    0.015782
  27 H :    0.033244
  28 C :   -0.036329
  29 H :    0.037121
  30 H :    0.037131
  31 H :    0.014156
  32 H :    0.032385
  33 H :    0.059756
Sum of atomic charges:    0.0000000

LOEWDIN ATOMIC CHARGES
----------------------
   0 S :    0.388640
   1 C :   -0.190119
   2 C :   -0.052165
   3 C :   -0.068855
   4 C :   -0.188752
   5 H :    0.041490
   6 C :   -0.035754
   7 H :    0.033317
   8 H :    0.027651
   9 C :   -0.046266
  10 H :    0.033109
  11 H :    0.021361
  12 C :   -0.064494
  13 H :    0.029087
  14 H :    0.033203
  15 H :    0.021165
  16 S :    0.409474
  17 C :   -0.189714
  18 C :   -0.083357
  19 C :   -0.056989
  20 C :   -0.208850
  21 H :    0.042477
  22 C :   -0.025090
  23 H :    0.040965
  24 H :    0.026942
  25 C :   -0.042929
  26 H :    0.012312
  27 H :    0.028984
  28 C :   -0.068384
  29 H :    0.022236
  30 H :    0.034471
  31 H :    0.019436
  32 H :    0.022325
  33 H :    0.033072

  Mayer bond orders larger than 0.100000
B(  0-S ,  1-C ) :   1.1098 B(  0-S ,  4-C ) :   1.1486 B(  1-C ,  2-C ) :   1.6305
B(  1-C , 32-H ) :   0.9726 B(  2-C ,  3-C ) :   1.2115 B(  2-C ,  6-C ) :   1.0216
B(  3-C ,  4-C ) :   1.5899 B(  3-C ,  5-H ) :   0.9803 B(  4-C , 20-C ) :   1.0536
B(  6-C ,  7-H ) :   0.9436 B(  6-C ,  8-H ) :   0.9511 B(  6-C ,  9-C ) :   1.0378
B(  9-C , 10-H ) :   0.9486 B(  9-C , 11-H ) :   0.9698 B(  9-C , 12-C ) :   1.0818
B( 12-C , 13-H ) :   0.9744 B( 12-C , 14-H ) :   0.9731 B( 12-C , 15-H ) :   0.9686
B( 16-S , 17-C ) :   1.1610 B( 16-S , 20-C ) :   1.1367 B( 17-C , 18-C ) :   1.6025
B( 17-C , 33-H ) :   0.9619 B( 18-C , 19-C ) :   1.2663 B( 18-C , 21-H ) :   0.9706
B( 19-C , 20-C ) :   1.5811 B( 19-C , 22-C ) :   1.0295 B( 22-C , 23-H ) :   0.9256
B( 22-C , 24-H ) :   0.9422 B( 22-C , 25-C ) :   1.0731 B( 25-C , 26-H ) :   0.9599
B( 25-C , 27-H ) :   0.9564 B( 25-C , 28-C ) :   1.0750 B( 28-C , 29-H ) :   0.9772
B( 28-C , 30-H ) :   0.9730 B( 28-C , 31-H ) :   0.9696

Dispersion correction           -0.013834261
FINAL SINGLE POINT ENERGY     -1339.853214002986

DIPOLE MOMENT
-------------
                                X             Y             Z
Electronic contribution:    -12.06521     -26.13375      13.16062
Nuclear contribution   :     12.21146      26.97544     -13.45733
                        -----------------------------------------
Total Dipole Moment    :      0.14624       0.84169      -0.29671
                        -----------------------------------------
Magnitude (a.u.)       :      0.90436
Magnitude (Debye)      :      2.29871

Rotational constants in cm-1:     0.017511     0.008802     0.006222
Rotational constants in MHz :   524.953961   263.868267   186.540236

                             ****ORCA TERMINATED NORMALLY****
TOTAL RUN TIME: 0 days 0 hours 0 minutes 28 seconds 286 msec
