                         Program Version 4.2.1 -  RELEASE  -
|  1> ! wB97X-D3 SP def2-SVP
|  2> %pal
|  3> nprocs 16
|  4> end
|  5>
|  6> * xyz 0 1
|  7> S 	 -111.381 	 56.8236 	 110.176
|  8> C 	 -110.55 	 55.3839 	 110.617
|  9> C 	 -110.982 	 55.0264 	 111.909
| 10> C 	 -111.861 	 56.0524 	 112.458
| 11> C 	 -112.144 	 57.169 	 111.726
| 12> H 	 -112.24 	 55.9739 	 113.483
| 13> C 	 -110.501 	 53.8579 	 112.768
| 14> H 	 -111.303 	 53.6921 	 113.494
| 15> H 	 -109.584 	 54.1884 	 113.285
| 16> C 	 -110.296 	 52.6298 	 111.893
| 17> H 	 -111.185 	 52.3719 	 111.264
| 18> H 	 -109.389 	 52.7459 	 111.308
| 19> C 	 -110.201 	 51.2983 	 112.721
| 20> H 	 -110.496 	 50.2728 	 112.26
| 21> H 	 -109.167 	 51.1521 	 113.042
| 22> H 	 -110.706 	 51.3942 	 113.65
| 23> S 	 -112.821 	 59.7284 	 111.147
| 24> C 	 -114.037 	 60.6374 	 111.971
| 25> C 	 -114.576 	 59.7965 	 112.93
| 26> C 	 -114.068 	 58.4554 	 112.997
| 27> C 	 -113.071 	 58.2629 	 112.023
| 28> H 	 -115.48 	 60.2197 	 113.427
| 29> C 	 -114.49 	 57.5161 	 114.132
| 30> H 	 -114.508 	 56.4942 	 113.824
| 31> H 	 -115.514 	 57.8225 	 114.274
| 32> C 	 -113.8 	 57.6913 	 115.481
| 33> H 	 -113.776 	 58.712 	 115.885
| 34> H 	 -112.749 	 57.528 	 115.358
| 35> C 	 -114.325 	 56.7343 	 116.568
| 36> H 	 -113.691 	 56.798 	 117.507
| 37> H 	 -114.257 	 55.6716 	 116.331
| 38> H 	 -115.387 	 56.8989 	 116.854
| 39> H 	 -109.832 	 54.9995 	 109.906
| 40> H 	 -114.334 	 61.677 	 111.754
| 41> *
| 42>
| 43>                          ****END OF INPUT****

CARTESIAN COORDINATES (ANGSTROEM)
---------------------------------
  S    -111.381000   56.823600  110.176000
  C    -110.550000   55.383900  110.617000
  C    -110.982000   55.026400  111.909000
  C    -111.861000   56.052400  112.458000
  C    -112.144000   57.169000  111.726000
  H    -112.240000   55.973900  113.483000
  C    -110.501000   53.857900  112.768000
  H    -111.303000   53.692100  113.494000
  H    -109.584000   54.188400  113.285000
  C    -110.296000   52.629800  111.893000
  H    -111.185000   52.371900  111.264000
  H    -109.389000   52.745900  111.308000
  C    -110.201000   51.298300  112.721000
  H    -110.496000   50.272800  112.260000
  H    -109.167000   51.152100  113.042000
  H    -110.706000   51.394200  113.650000
  S    -112.821000   59.728400  111.147000
  C    -114.037000   60.637400  111.971000
  C    -114.576000   59.796500  112.930000
  C    -114.068000   58.455400  112.997000
  C    -113.071000   58.262900  112.023000
  H    -115.480000   60.219700  113.427000
  C    -114.490000   57.516100  114.132000
  H    -114.508000   56.494200  113.824000
  H    -115.514000   57.822500  114.274000
  C    -113.800000   57.691300  115.481000
  H    -113.776000   58.712000  115.885000
  H    -112.749000   57.528000  115.358000
  C    -114.325000   56.734300  116.568000
  H    -113.691000   56.798000  117.507000
  H    -114.257000   55.671600  116.331000
  H    -115.387000   56.898900  116.854000
  H    -109.832000   54.999500  109.906000
  H    -114.334000   61.677000  111.754000

 Total Charge           Charge          ....    0
 Multiplicity           Mult            ....    1
 Number of Electrons    NEL             ....  134
 Basis Dimension        Dim             ....  322

ORBITAL ENERGIES
----------------

  NO   OCC          E(Eh)            E(eV)
   0   2.0000     -88.964823     -2420.8559
   1   2.0000     -88.959546     -2420.7123
   2   2.0000     -10.334556      -281.2176
   3   2.0000     -10.332676      -281.1664
   4   2.0000     -10.321074      -280.8507
   5   2.0000     -10.319587      -280.8102
   6   2.0000     -10.311539      -280.5912
   7   2.0000     -10.308417      -280.5063
   8   2.0000     -10.298972      -280.2493
   9   2.0000     -10.298520      -280.2370
  10   2.0000     -10.294282      -280.1217
  11   2.0000     -10.293177      -280.0916
  12   2.0000     -10.292907      -280.0843
  13   2.0000     -10.289030      -279.9787
  14   2.0000     -10.287623      -279.9405
  15   2.0000     -10.281497      -279.7737
  16   2.0000      -8.080402      -219.8789
  17   2.0000      -8.074882      -219.7287
  18   2.0000      -6.038879      -164.3263
  19   2.0000      -6.034507      -164.2073
  20   2.0000      -6.033522      -164.1805
  21   2.0000      -6.031407      -164.1229
  22   2.0000      -6.029050      -164.0588
  23   2.0000      -6.025688      -163.9673
  24   2.0000      -1.010498       -27.4971
  25   2.0000      -0.988631       -26.9020
  26   2.0000      -0.912150       -24.8209
  27   2.0000      -0.911121       -24.7929
  28   2.0000      -0.872320       -23.7370
  29   2.0000      -0.851172       -23.1616
  30   2.0000      -0.840748       -22.8779
  31   2.0000      -0.817214       -22.2375
  32   2.0000      -0.780980       -21.2515
  33   2.0000      -0.770243       -20.9594
  34   2.0000      -0.710361       -19.3299
  35   2.0000      -0.705407       -19.1951
  36   2.0000      -0.692699       -18.8493
  37   2.0000      -0.665704       -18.1147
  38   2.0000      -0.642110       -17.4727
  39   2.0000      -0.618447       -16.8288
  40   2.0000      -0.596628       -16.2351
  41   2.0000      -0.573323       -15.6009
  42   2.0000      -0.563692       -15.3388
  43   2.0000      -0.561651       -15.2833
  44   2.0000      -0.526720       -14.3328
  45   2.0000      -0.523629       -14.2487
  46   2.0000      -0.520314       -14.1585
  47   2.0000      -0.516166       -14.0456
  48   2.0000      -0.507950       -13.8220
  49   2.0000      -0.503015       -13.6877
  50   2.0000      -0.492301       -13.3962
  51   2.0000      -0.485629       -13.2146
  52   2.0000      -0.476722       -12.9723
  53   2.0000      -0.463280       -12.6065
  54   2.0000      -0.459844       -12.5130
  55   2.0000      -0.445782       -12.1303
  56   2.0000      -0.442629       -12.0445
  57   2.0000      -0.440457       -11.9854
  58   2.0000      -0.434572       -11.8253
  59   2.0000      -0.424182       -11.5426
  60   2.0000      -0.418286       -11.3821
  61   2.0000      -0.410709       -11.1760
  62   2.0000      -0.400817       -10.9068
  63   2.0000      -0.364286        -9.9127
  64   2.0000      -0.331061        -9.0086
  65   2.0000      -0.322774        -8.7831
  66   2.0000      -0.289783        -7.8854
  67   0.0000       0.020970         0.5706
  68   0.0000       0.086650         2.3579
  69   0.0000       0.115517         3.1434
  70   0.0000       0.119303         3.2464
  71   0.0000       0.130090         3.5399

MULLIKEN ATOMIC CHARGES
-----------------------
   0 S :    0.083744
   1 C :   -0.134984
   2 C :   -0.087496
   3 C :   -0.040684
   4 C :   -0.063311
   5 H :    0.002368
   6 C :    0.077022
   7 H :    0.025434
   8 H :    0.058010
   9 C :   -0.108770
  10 H :    0.052461
  11 H :    0.040673
  12 C :   -0.066906
  13 H :    0.052118
  14 H :    0.018442
  15 H :    0.016770
  16 S :    0.100420
  17 C :   -0.106727
  18 C :   -0.066073
  19 C :   -0.049245
  20 C :   -0.134890
  21 H :    0.035890
  22 C :    0.080341
  23 H :    0.024775
  24 H :    0.013613
  25 C :   -0.038113
  26 H :    0.028630
  27 H :    0.016620
  28 C :   -0.079220
  29 H :    0.041787
  30 H :    0.026255
  31 H :    0.039618
  32 H :    0.066258
  33 H :    0.075166
Sum of atomic charges:   -0.0000000

LOEWDIN ATOMIC CHARGES
----------------------
   0 S :    0.407389
   1 C :   -0.201077
   2 C :   -0.064537
   3 C :   -0.077820
   4 C :   -0.193051
   5 H :    0.026543
   6 C :   -0.030169
   7 H :    0.030605
   8 H :    0.040680
   9 C :   -0.044688
  10 H :    0.036445
  11 H :    0.024274
  12 C :   -0.079654
  13 H :    0.037089
  14 H :    0.021083
  15 H :    0.016389
  16 S :    0.431185
  17 C :   -0.201289
  18 C :   -0.081530
  19 C :   -0.056827
  20 C :   -0.198300
  21 H :    0.037673
  22 C :   -0.029172
  23 H :    0.026725
  24 H :    0.031637
  25 C :   -0.042415
  26 H :    0.030349
  27 H :    0.019551
  28 C :   -0.073786
  29 H :    0.034970
  30 H :    0.021706
  31 H :    0.027022
  32 H :    0.031528
  33 H :    0.041472

  Mayer bond orders larger than 0.100000
B(  0-S ,  1-C ) :   1.1630 B(  0-S ,  4-C ) :   1.1378 B(  1-C ,  2-C ) :   1.5370
B(  1-C ,  4-C ) :   0.1012 B(  1-C , 32-H ) :   0.9812 B(  2-C ,  3-C ) :   1.2789
B(  2-C ,  6-C ) :   1.0168 B(  3-C ,  4-C ) :   1.5687 B(  3-C ,  5-H ) :   0.9887
B(  4-C , 20-C ) :   1.0588 B(  6-C ,  7-H ) :   0.9400 B(  6-C ,  8-H ) :   0.9355
B(  6-C ,  9-C ) :   1.0717 B(  9-C , 10-H ) :   0.9672 B(  9-C , 11-H ) :   0.9548
B(  9-C , 12-C ) :   1.0626 B( 12-C , 13-H ) :   0.9802 B( 12-C , 14-H ) :   0.9736
B( 12-C , 15-H ) :   0.9759 B( 16-S , 17-C ) :   1.1648 B( 16-S , 20-C ) :   1.1666
B( 17-C , 18-C ) :   1.5865 B( 17-C , 20-C ) :   0.1021 B( 17-C , 33-H ) :   0.9678
B( 18-C , 19-C ) :   1.2655 B( 18-C , 21-H ) :   0.9795 B( 19-C , 20-C ) :   1.5459
B( 19-C , 22-C ) :   1.0456 B( 22-C , 23-H ) :   0.9366 B( 22-C , 24-H ) :   0.9228
B( 22-C , 25-C ) :   1.0653 B( 25-C , 26-H ) :   0.9494 B( 25-C , 27-H ) :   0.9505
B( 25-C , 28-C ) :   1.0784 B( 28-C , 29-H ) :   0.9732 B( 28-C , 30-H ) :   0.9749
B( 28-C , 31-H ) :   0.9764

Dispersion correction           -0.013458192
FINAL SINGLE POINT ENERGY     -1339.872639702977

DIPOLE MOMENT
-------------
                                X             Y             Z
Electronic contribution:      0.50714      23.08864     -22.27349
Nuclear contribution   :     -0.60122     -23.36661      22.90400
                        -----------------------------------------
Total Dipole Moment    :     -0.09408      -0.27797       0.63051
                        -----------------------------------------
Magnitude (a.u.)       :      0.69546
Magnitude (Debye)      :      1.76772

Rotational constants in cm-1:     0.018436     0.008263     0.005851
Rotational constants in MHz :   552.684797   247.707085   175.409708

                             ****ORCA TERMINATED NORMALLY****
TOTAL RUN TIME: 0 days 0 hours 0 minutes 33 seconds 575 msec
