                         Program Version 4.2.1 -  RELEASE  -
|  1> ! wB97X-D3 SP def2-SVP
|  2> %pal
|  3> nprocs 16
|  4> end
|  5>
|  6> * xyz 0 1
|  7> S 	 32.5127 	 -1.82479 	 72.7834
|  8> C 	 31.466 	 -0.568238 	 73.2822
|  9> C 	 30.437 	 -0.347945 	 72.3926
| 10> C 	 30.4647 	 -1.40176 	 71.3778
| 11> C 	 31.5438 	 -2.25489 	 71.3919
| 12> H 	 29.7848 	 -1.63887 	 70.5271
| 13> C 	 29.4441 	 0.837456 	 72.4266
| 14> H 	 29.1877 	 1.0876 	 73.4364
| 15> H 	 28.5506 	 0.490596 	 71.9112
| 16> C 	 30.089 	 2.15189 	 71.8671
| 17> H 	 31.1544 	 2.26962 	 72.1464
| 18> H 	 30.1403 	 2.17239 	 70.7569
| 19> C 	 29.2734 	 3.44133 	 72.2348
| 20> H 	 29.0945 	 3.47374 	 73.2728
| 21> H 	 29.7794 	 4.38184 	 71.9999
| 22> H 	 28.3539 	 3.35048 	 71.6799
| 23> S 	 32.3021 	 -4.94435 	 71.5734
| 24> C 	 32.1265 	 -6.0122 	 70.201
| 25> C 	 31.5759 	 -5.34085 	 69.1109
| 26> C 	 31.382 	 -3.90884 	 69.3838
| 27> C 	 31.7138 	 -3.54151 	 70.6854
| 28> H 	 31.2296 	 -5.82294 	 68.2018
| 29> C 	 30.8068 	 -3.08189 	 68.2369
| 30> H 	 30.0618 	 -2.40963 	 68.7091
| 31> H 	 30.3969 	 -3.72931 	 67.3857
| 32> C 	 31.8527 	 -2.1371 	 67.6332
| 33> H 	 32.7867 	 -2.6737 	 67.4062
| 34> H 	 32.1401 	 -1.32126 	 68.2767
| 35> C 	 31.3385 	 -1.56893 	 66.2985
| 36> H 	 32.2222 	 -1.07207 	 65.8899
| 37> H 	 30.5469 	 -0.890554 	 66.418
| 38> H 	 31.037 	 -2.39253 	 65.682
| 39> H 	 31.6843 	 0.0530883 	 74.1484
| 40> H 	 32.0698 	 -7.06274 	 70.2689
| 41> *
| 42>
| 43>                          ****END OF INPUT****

CARTESIAN COORDINATES (ANGSTROEM)
---------------------------------
  S     32.512700   -1.824790   72.783400
  C     31.466000   -0.568238   73.282200
  C     30.437000   -0.347945   72.392600
  C     30.464700   -1.401760   71.377800
  C     31.543800   -2.254890   71.391900
  H     29.784800   -1.638870   70.527100
  C     29.444100    0.837456   72.426600
  H     29.187700    1.087600   73.436400
  H     28.550600    0.490596   71.911200
  C     30.089000    2.151890   71.867100
  H     31.154400    2.269620   72.146400
  H     30.140300    2.172390   70.756900
  C     29.273400    3.441330   72.234800
  H     29.094500    3.473740   73.272800
  H     29.779400    4.381840   71.999900
  H     28.353900    3.350480   71.679900
  S     32.302100   -4.944350   71.573400
  C     32.126500   -6.012200   70.201000
  C     31.575900   -5.340850   69.110900
  C     31.382000   -3.908840   69.383800
  C     31.713800   -3.541510   70.685400
  H     31.229600   -5.822940   68.201800
  C     30.806800   -3.081890   68.236900
  H     30.061800   -2.409630   68.709100
  H     30.396900   -3.729310   67.385700
  C     31.852700   -2.137100   67.633200
  H     32.786700   -2.673700   67.406200
  H     32.140100   -1.321260   68.276700
  C     31.338500   -1.568930   66.298500
  H     32.222200   -1.072070   65.889900
  H     30.546900   -0.890554   66.418000
  H     31.037000   -2.392530   65.682000
  H     31.684300    0.053088   74.148400
  H     32.069800   -7.062740   70.268900

 Total Charge           Charge          ....    0
 Multiplicity           Mult            ....    1
 Number of Electrons    NEL             ....  134
 Basis Dimension        Dim             ....  322

ORBITAL ENERGIES
----------------

  NO   OCC          E(Eh)            E(eV)
   0   2.0000     -88.967256     -2420.9221
   1   2.0000     -88.963542     -2420.8210
   2   2.0000     -10.334000      -281.2024
   3   2.0000     -10.330811      -281.1157
   4   2.0000     -10.316664      -280.7307
   5   2.0000     -10.314283      -280.6659
   6   2.0000     -10.309921      -280.5472
   7   2.0000     -10.307115      -280.4709
   8   2.0000     -10.301111      -280.3075
   9   2.0000     -10.300655      -280.2951
  10   2.0000     -10.300564      -280.2926
  11   2.0000     -10.299095      -280.2526
  12   2.0000     -10.294608      -280.1305
  13   2.0000     -10.281088      -279.7626
  14   2.0000     -10.276928      -279.6494
  15   2.0000     -10.270378      -279.4712
  16   2.0000      -8.081639      -219.9126
  17   2.0000      -8.079225      -219.8469
  18   2.0000      -6.040315      -164.3653
  19   2.0000      -6.037729      -164.2950
  20   2.0000      -6.036137      -164.2516
  21   2.0000      -6.033490      -164.1796
  22   2.0000      -6.032277      -164.1466
  23   2.0000      -6.030033      -164.0855
  24   2.0000      -1.006960       -27.4008
  25   2.0000      -0.983325       -26.7576
  26   2.0000      -0.910059       -24.7640
  27   2.0000      -0.905550       -24.6413
  28   2.0000      -0.869621       -23.6636
  29   2.0000      -0.851203       -23.1624
  30   2.0000      -0.842811       -22.9341
  31   2.0000      -0.816500       -22.2181
  32   2.0000      -0.781067       -21.2539
  33   2.0000      -0.771282       -20.9876
  34   2.0000      -0.702919       -19.1274
  35   2.0000      -0.701459       -19.0877
  36   2.0000      -0.687774       -18.7153
  37   2.0000      -0.667471       -18.1628
  38   2.0000      -0.646364       -17.5885
  39   2.0000      -0.614467       -16.7205
  40   2.0000      -0.592586       -16.1251
  41   2.0000      -0.572881       -15.5889
  42   2.0000      -0.569101       -15.4860
  43   2.0000      -0.558699       -15.2030
  44   2.0000      -0.525329       -14.2949
  45   2.0000      -0.523120       -14.2348
  46   2.0000      -0.515847       -14.0369
  47   2.0000      -0.512863       -13.9557
  48   2.0000      -0.510204       -13.8834
  49   2.0000      -0.503915       -13.7122
  50   2.0000      -0.489141       -13.3102
  51   2.0000      -0.487684       -13.2705
  52   2.0000      -0.474328       -12.9071
  53   2.0000      -0.465192       -12.6585
  54   2.0000      -0.456891       -12.4326
  55   2.0000      -0.446582       -12.1521
  56   2.0000      -0.443087       -12.0570
  57   2.0000      -0.438443       -11.9306
  58   2.0000      -0.432907       -11.7800
  59   2.0000      -0.426390       -11.6027
  60   2.0000      -0.421147       -11.4600
  61   2.0000      -0.413456       -11.2507
  62   2.0000      -0.412029       -11.2119
  63   2.0000      -0.359137        -9.7726
  64   2.0000      -0.329025        -8.9532
  65   2.0000      -0.326377        -8.8812
  66   2.0000      -0.290214        -7.8971
  67   0.0000       0.026582         0.7233
  68   0.0000       0.074848         2.0367
  69   0.0000       0.107585         2.9275
  70   0.0000       0.116178         3.1614
  71   0.0000       0.132542         3.6066

MULLIKEN ATOMIC CHARGES
-----------------------
   0 S :    0.098976
   1 C :   -0.122135
   2 C :   -0.092517
   3 C :    0.001558
   4 C :   -0.153864
   5 H :    0.016475
   6 C :    0.110960
   7 H :    0.016514
   8 H :    0.031948
   9 C :   -0.112805
  10 H :    0.037013
  11 H :    0.031698
  12 C :   -0.037002
  13 H :    0.020797
  14 H :    0.038328
  15 H :    0.033567
  16 S :    0.104494
  17 C :   -0.068798
  18 C :   -0.044316
  19 C :   -0.060353
  20 C :   -0.117013
  21 H :    0.025539
  22 C :    0.037784
  23 H :    0.026601
  24 H :    0.038154
  25 C :   -0.103824
  26 H :    0.030181
  27 H :    0.036485
  28 C :   -0.010594
  29 H :    0.035420
  30 H :    0.021804
  31 H :    0.020122
  32 H :    0.055415
  33 H :    0.053393
Sum of atomic charges:   -0.0000000

LOEWDIN ATOMIC CHARGES
----------------------
   0 S :    0.414576
   1 C :   -0.202162
   2 C :   -0.063488
   3 C :   -0.071865
   4 C :   -0.199264
   5 H :    0.033654
   6 C :   -0.022537
   7 H :    0.027378
   8 H :    0.032840
   9 C :   -0.043145
  10 H :    0.025188
  11 H :    0.025071
  12 C :   -0.062360
  13 H :    0.014551
  14 H :    0.029348
  15 H :    0.025400
  16 S :    0.405902
  17 C :   -0.184851
  18 C :   -0.066514
  19 C :   -0.055701
  20 C :   -0.197843
  21 H :    0.030797
  22 C :   -0.036907
  23 H :    0.029998
  24 H :    0.038538
  25 C :   -0.039120
  26 H :    0.024300
  27 H :    0.023342
  28 C :   -0.055678
  29 H :    0.030585
  30 H :    0.015466
  31 H :    0.019275
  32 H :    0.031050
  33 H :    0.024177

  Mayer bond orders larger than 0.100000
B(  0-S ,  1-C ) :   1.1607 B(  0-S ,  4-C ) :   1.1394 B(  1-C ,  2-C ) :   1.6002
B(  1-C , 32-H ) :   0.9673 B(  2-C ,  3-C ) :   1.2327 B(  2-C ,  6-C ) :   1.0278
B(  3-C ,  4-C ) :   1.6031 B(  3-C ,  5-H ) :   0.9763 B(  4-C , 20-C ) :   1.0399
B(  6-C ,  7-H ) :   0.9437 B(  6-C ,  8-H ) :   0.9405 B(  6-C ,  9-C ) :   1.0423
B(  9-C , 10-H ) :   0.9639 B(  9-C , 11-H ) :   0.9586 B(  9-C , 12-C ) :   1.0732
B( 12-C , 13-H ) :   0.9788 B( 12-C , 14-H ) :   0.9755 B( 12-C , 15-H ) :   0.9774
B( 16-S , 17-C ) :   1.1568 B( 16-S , 20-C ) :   1.1287 B( 17-C , 18-C ) :   1.6061
B( 17-C , 33-H ) :   0.9669 B( 18-C , 19-C ) :   1.2492 B( 18-C , 21-H ) :   0.9857
B( 19-C , 20-C ) :   1.6005 B( 19-C , 22-C ) :   1.0414 B( 22-C , 23-H ) :   0.9255
B( 22-C , 24-H ) :   0.9426 B( 22-C , 25-C ) :   1.0659 B( 25-C , 26-H ) :   0.9587
B( 25-C , 27-H ) :   0.9529 B( 25-C , 28-C ) :   1.0855 B( 28-C , 29-H ) :   0.9752
B( 28-C , 30-H ) :   0.9755 B( 28-C , 31-H ) :   0.9744

Dispersion correction           -0.013508151
FINAL SINGLE POINT ENERGY     -1339.877450463681

DIPOLE MOMENT
-------------
                                X             Y             Z
Electronic contribution:     12.02569     -23.35839      16.06047
Nuclear contribution   :    -12.52527      23.72432     -16.41708
                        -----------------------------------------
Total Dipole Moment    :     -0.49958       0.36593      -0.35661
                        -----------------------------------------
Magnitude (a.u.)       :      0.71460
Magnitude (Debye)      :      1.81636

Rotational constants in cm-1:     0.018622     0.008213     0.006118
Rotational constants in MHz :   558.286603   246.220799   183.399859

                             ****ORCA TERMINATED NORMALLY****
TOTAL RUN TIME: 0 days 0 hours 0 minutes 29 seconds 764 msec
