                         Program Version 4.2.1 -  RELEASE  -
|  1> ! wB97X-D3 SP def2-SVP
|  2> %pal
|  3> nprocs 16
|  4> end
|  5>
|  6> * xyz 0 1
|  7> S 	 35.8707 	 -1.49853 	 68.9296
|  8> C 	 35.3408 	 0.101928 	 68.9952
|  9> C 	 36.131 	 0.874523 	 69.8154
| 10> C 	 37.2461 	 0.0631181 	 70.3216
| 11> C 	 37.2361 	 -1.26386 	 69.8813
| 12> H 	 37.8891 	 0.459146 	 71.0481
| 13> C 	 35.7625 	 2.24542 	 70.3741
| 14> H 	 35.3907 	 2.87154 	 69.569
| 15> H 	 36.787 	 2.55632 	 70.6581
| 16> C 	 34.8216 	 2.23619 	 71.6008
| 17> H 	 33.9042 	 1.68284 	 71.5287
| 18> H 	 35.4437 	 1.7006 	 72.3336
| 19> C 	 34.4717 	 3.62345 	 72.1576
| 20> H 	 34.0815 	 4.19576 	 71.3959
| 21> H 	 33.6834 	 3.57917 	 72.8651
| 22> H 	 35.359 	 4.13434 	 72.5509
| 23> S 	 37.3301 	 -3.77867 	 70.8689
| 24> C 	 38.8125 	 -4.32367 	 71.6817
| 25> C 	 39.8156 	 -3.4227 	 71.4456
| 26> C 	 39.4479 	 -2.24747 	 70.6711
| 27> C 	 38.1114 	 -2.32641 	 70.3487
| 28> H 	 40.7927 	 -3.71944 	 71.7592
| 29> C 	 40.5229 	 -1.34872 	 70.1667
| 30> H 	 41.3899 	 -1.43379 	 70.8479
| 31> H 	 40.1498 	 -0.345064 	 70.3848
| 32> C 	 40.944 	 -1.69476 	 68.6741
| 33> H 	 40.0704 	 -1.58629 	 68.0023
| 34> H 	 41.4017 	 -2.71859 	 68.7371
| 35> C 	 41.8868 	 -0.702205 	 68.1008
| 36> H 	 41.3636 	 0.204718 	 68.2102
| 37> H 	 42.0422 	 -0.939887 	 67.0214
| 38> H 	 42.9171 	 -0.624666 	 68.5721
| 39> H 	 34.671 	 0.501575 	 68.2396
| 40> H 	 38.9907 	 -5.2534 	 72.1128
| 41> *
| 42>
| 43>                          ****END OF INPUT****

CARTESIAN COORDINATES (ANGSTROEM)
---------------------------------
  S     35.870700   -1.498530   68.929600
  C     35.340800    0.101928   68.995200
  C     36.131000    0.874523   69.815400
  C     37.246100    0.063118   70.321600
  C     37.236100   -1.263860   69.881300
  H     37.889100    0.459146   71.048100
  C     35.762500    2.245420   70.374100
  H     35.390700    2.871540   69.569000
  H     36.787000    2.556320   70.658100
  C     34.821600    2.236190   71.600800
  H     33.904200    1.682840   71.528700
  H     35.443700    1.700600   72.333600
  C     34.471700    3.623450   72.157600
  H     34.081500    4.195760   71.395900
  H     33.683400    3.579170   72.865100
  H     35.359000    4.134340   72.550900
  S     37.330100   -3.778670   70.868900
  C     38.812500   -4.323670   71.681700
  C     39.815600   -3.422700   71.445600
  C     39.447900   -2.247470   70.671100
  C     38.111400   -2.326410   70.348700
  H     40.792700   -3.719440   71.759200
  C     40.522900   -1.348720   70.166700
  H     41.389900   -1.433790   70.847900
  H     40.149800   -0.345064   70.384800
  C     40.944000   -1.694760   68.674100
  H     40.070400   -1.586290   68.002300
  H     41.401700   -2.718590   68.737100
  C     41.886800   -0.702205   68.100800
  H     41.363600    0.204718   68.210200
  H     42.042200   -0.939887   67.021400
  H     42.917100   -0.624666   68.572100
  H     34.671000    0.501575   68.239600
  H     38.990700   -5.253400   72.112800

 Total Charge           Charge          ....    0
 Multiplicity           Mult            ....    1
 Number of Electrons    NEL             ....  134
 Basis Dimension        Dim             ....  322

ORBITAL ENERGIES
----------------

  NO   OCC          E(Eh)            E(eV)
   0   2.0000     -88.963935     -2420.8317
   1   2.0000     -88.963830     -2420.8289
   2   2.0000     -10.326190      -280.9899
   3   2.0000     -10.325199      -280.9629
   4   2.0000     -10.311439      -280.5885
   5   2.0000     -10.306228      -280.4467
   6   2.0000     -10.300834      -280.2999
   7   2.0000     -10.300066      -280.2790
   8   2.0000     -10.296523      -280.1826
   9   2.0000     -10.294152      -280.1181
  10   2.0000     -10.292616      -280.0763
  11   2.0000     -10.292485      -280.0728
  12   2.0000     -10.290342      -280.0144
  13   2.0000     -10.285580      -279.8849
  14   2.0000     -10.276065      -279.6260
  15   2.0000     -10.269295      -279.4417
  16   2.0000      -8.081132      -219.8988
  17   2.0000      -8.078838      -219.8363
  18   2.0000      -6.039423      -164.3410
  19   2.0000      -6.037434      -164.2869
  20   2.0000      -6.035058      -164.2223
  21   2.0000      -6.033398      -164.1771
  22   2.0000      -6.032196      -164.1444
  23   2.0000      -6.029419      -164.0688
  24   2.0000      -1.015808       -27.6415
  25   2.0000      -0.988036       -26.8858
  26   2.0000      -0.911589       -24.8056
  27   2.0000      -0.908935       -24.7334
  28   2.0000      -0.873439       -23.7675
  29   2.0000      -0.857551       -23.3352
  30   2.0000      -0.849236       -23.1089
  31   2.0000      -0.816794       -22.2261
  32   2.0000      -0.782915       -21.3042
  33   2.0000      -0.771971       -21.0064
  34   2.0000      -0.705585       -19.1999
  35   2.0000      -0.700606       -19.0645
  36   2.0000      -0.688282       -18.7291
  37   2.0000      -0.667474       -18.1629
  38   2.0000      -0.642643       -17.4872
  39   2.0000      -0.621015       -16.8987
  40   2.0000      -0.589939       -16.0531
  41   2.0000      -0.571351       -15.5472
  42   2.0000      -0.569787       -15.5047
  43   2.0000      -0.559826       -15.2336
  44   2.0000      -0.531463       -14.4618
  45   2.0000      -0.527994       -14.3674
  46   2.0000      -0.523501       -14.2452
  47   2.0000      -0.516197       -14.0464
  48   2.0000      -0.507518       -13.8103
  49   2.0000      -0.501142       -13.6368
  50   2.0000      -0.500216       -13.6116
  51   2.0000      -0.482267       -13.1231
  52   2.0000      -0.470036       -12.7903
  53   2.0000      -0.457151       -12.4397
  54   2.0000      -0.453874       -12.3505
  55   2.0000      -0.447188       -12.1686
  56   2.0000      -0.444726       -12.1016
  57   2.0000      -0.440106       -11.9759
  58   2.0000      -0.428451       -11.6588
  59   2.0000      -0.425763       -11.5856
  60   2.0000      -0.421759       -11.4767
  61   2.0000      -0.416476       -11.3329
  62   2.0000      -0.411013       -11.1842
  63   2.0000      -0.356196        -9.6926
  64   2.0000      -0.329789        -8.9740
  65   2.0000      -0.324625        -8.8335
  66   2.0000      -0.287934        -7.8351
  67   0.0000       0.029021         0.7897
  68   0.0000       0.075946         2.0666
  69   0.0000       0.110485         3.0064
  70   0.0000       0.117408         3.1948
  71   0.0000       0.137806         3.7499

MULLIKEN ATOMIC CHARGES
-----------------------
   0 S :    0.116038
   1 C :   -0.120920
   2 C :   -0.123594
   3 C :    0.020526
   4 C :   -0.132147
   5 H :   -0.005382
   6 C :    0.053842
   7 H :    0.024369
   8 H :    0.025211
   9 C :   -0.064428
  10 H :    0.030589
  11 H :    0.021917
  12 C :    0.004088
  13 H :    0.005802
  14 H :    0.024432
  15 H :    0.031922
  16 S :    0.095467
  17 C :   -0.068065
  18 C :   -0.031337
  19 C :   -0.058812
  20 C :   -0.125917
  21 H :    0.006283
  22 C :    0.070581
  23 H :    0.018901
  24 H :    0.010912
  25 C :   -0.069655
  26 H :    0.046905
  27 H :    0.040245
  28 C :   -0.043450
  29 H :    0.023078
  30 H :    0.042016
  31 H :    0.036735
  32 H :    0.061725
  33 H :    0.032122
Sum of atomic charges:   -0.0000000

LOEWDIN ATOMIC CHARGES
----------------------
   0 S :    0.460120
   1 C :   -0.223881
   2 C :   -0.064013
   3 C :   -0.063865
   4 C :   -0.219454
   5 H :    0.016713
   6 C :   -0.030658
   7 H :    0.025446
   8 H :    0.033550
   9 C :   -0.036539
  10 H :    0.023571
  11 H :    0.026492
  12 C :   -0.055541
  13 H :    0.013482
  14 H :    0.024322
  15 H :    0.028088
  16 S :    0.397757
  17 C :   -0.171974
  18 C :   -0.061453
  19 C :   -0.062022
  20 C :   -0.197279
  21 H :    0.025183
  22 C :   -0.036899
  23 H :    0.031951
  24 H :    0.027269
  25 C :   -0.034653
  26 H :    0.035646
  27 H :    0.030261
  28 C :   -0.070973
  29 H :    0.019930
  30 H :    0.031873
  31 H :    0.027255
  32 H :    0.031873
  33 H :    0.018424

  Mayer bond orders larger than 0.100000
B(  0-S ,  1-C ) :   1.1698 B(  0-S ,  4-C ) :   1.1868 B(  1-C ,  2-C ) :   1.5746
B(  1-C , 32-H ) :   0.9648 B(  2-C ,  3-C ) :   1.2909 B(  2-C ,  6-C ) :   1.0253
B(  3-C ,  4-C ) :   1.5174 B(  3-C ,  5-H ) :   0.9962 B(  4-C , 20-C ) :   1.0266
B(  6-C ,  7-H ) :   0.9401 B(  6-C ,  8-H ) :   0.9430 B(  6-C ,  9-C ) :   1.0539
B(  9-C , 10-H ) :   0.9610 B(  9-C , 11-H ) :   0.9544 B(  9-C , 12-C ) :   1.0857
B( 12-C , 13-H ) :   0.9718 B( 12-C , 14-H ) :   0.9728 B( 12-C , 15-H ) :   0.9755
B( 16-S , 17-C ) :   1.1268 B( 16-S , 20-C ) :   1.1418 B( 17-C , 18-C ) :   1.6475
B( 17-C , 33-H ) :   0.9740 B( 18-C , 19-C ) :   1.2159 B( 18-C , 21-H ) :   0.9876
B( 19-C , 20-C ) :   1.6026 B( 19-C , 22-C ) :   1.0586 B( 22-C , 23-H ) :   0.9305
B( 22-C , 24-H ) :   0.9216 B( 22-C , 25-C ) :   1.0543 B( 25-C , 26-H ) :   0.9564
B( 25-C , 27-H ) :   0.9533 B( 25-C , 28-C ) :   1.0834 B( 28-C , 29-H ) :   0.9742
B( 28-C , 30-H ) :   0.9721 B( 28-C , 31-H ) :   0.9724

Dispersion correction           -0.013720121
FINAL SINGLE POINT ENERGY     -1339.863798450051

DIPOLE MOMENT
-------------
                                X             Y             Z
Electronic contribution:     -8.98731     -22.30109      -2.00882
Nuclear contribution   :      9.30796      22.71271       2.10230
                        -----------------------------------------
Total Dipole Moment    :      0.32066       0.41162       0.09348
                        -----------------------------------------
Magnitude (a.u.)       :      0.53009
Magnitude (Debye)      :      1.34737

Rotational constants in cm-1:     0.018532     0.007794     0.006770
Rotational constants in MHz :   555.561278   233.649550   202.952381

                             ****ORCA TERMINATED NORMALLY****
TOTAL RUN TIME: 0 days 0 hours 0 minutes 29 seconds 341 msec
