                         Program Version 4.2.1 -  RELEASE  -
|  1> ! wB97X-D3 SP def2-SVP
|  2> %pal
|  3> nprocs 16
|  4> end
|  5>
|  6> * xyz 0 1
|  7> S 	 -68.9031 	 38.2117 	 115.938
|  8> C 	 -69.0201 	 36.8412 	 116.991
|  9> C 	 -69.1207 	 35.6768 	 116.202
| 10> C 	 -68.9477 	 35.8607 	 114.867
| 11> C 	 -68.7047 	 37.1774 	 114.556
| 12> H 	 -68.9395 	 35.1418 	 114.088
| 13> C 	 -69.3422 	 34.3051 	 116.85
| 14> H 	 -68.3524 	 33.8592 	 116.764
| 15> H 	 -69.8645 	 33.7128 	 116.056
| 16> C 	 -70.0242 	 34.1543 	 118.234
| 17> H 	 -69.3513 	 34.5737 	 118.948
| 18> H 	 -70.8639 	 34.7187 	 118.232
| 19> C 	 -70.48 	 32.6674 	 118.571
| 20> H 	 -69.6171 	 32.0405 	 118.706
| 21> H 	 -71.0858 	 32.7377 	 119.502
| 22> H 	 -71.1266 	 32.2958 	 117.801
| 23> S 	 -70.0878 	 39.0267 	 113.099
| 24> C 	 -70.008 	 38.9487 	 111.408
| 25> C 	 -69.0412 	 38.0663 	 110.934
| 26> C 	 -68.2993 	 37.5855 	 112.066
| 27> C 	 -68.9084 	 37.7604 	 113.274
| 28> H 	 -69.0574 	 37.8985 	 109.81
| 29> C 	 -67.1557 	 36.7388 	 111.866
| 30> H 	 -67.4325 	 35.9848 	 111.16
| 31> H 	 -66.9021 	 36.1453 	 112.734
| 32> C 	 -65.9763 	 37.4477 	 111.209
| 33> H 	 -66.3108 	 37.9124 	 110.273
| 34> H 	 -65.2686 	 36.6455 	 110.975
| 35> C 	 -65.2188 	 38.5807 	 111.947
| 36> H 	 -64.5228 	 38.2008 	 112.712
| 37> H 	 -65.9189 	 39.221 	 112.563
| 38> H 	 -64.5658 	 39.2166 	 111.353
| 39> H 	 -69.1434 	 36.8991 	 118.082
| 40> H 	 -70.753 	 39.3781 	 110.773
| 41> *
| 42>
| 43>                          ****END OF INPUT****

CARTESIAN COORDINATES (ANGSTROEM)
---------------------------------
  S    -68.903100   38.211700  115.938000
  C    -69.020100   36.841200  116.991000
  C    -69.120700   35.676800  116.202000
  C    -68.947700   35.860700  114.867000
  C    -68.704700   37.177400  114.556000
  H    -68.939500   35.141800  114.088000
  C    -69.342200   34.305100  116.850000
  H    -68.352400   33.859200  116.764000
  H    -69.864500   33.712800  116.056000
  C    -70.024200   34.154300  118.234000
  H    -69.351300   34.573700  118.948000
  H    -70.863900   34.718700  118.232000
  C    -70.480000   32.667400  118.571000
  H    -69.617100   32.040500  118.706000
  H    -71.085800   32.737700  119.502000
  H    -71.126600   32.295800  117.801000
  S    -70.087800   39.026700  113.099000
  C    -70.008000   38.948700  111.408000
  C    -69.041200   38.066300  110.934000
  C    -68.299300   37.585500  112.066000
  C    -68.908400   37.760400  113.274000
  H    -69.057400   37.898500  109.810000
  C    -67.155700   36.738800  111.866000
  H    -67.432500   35.984800  111.160000
  H    -66.902100   36.145300  112.734000
  C    -65.976300   37.447700  111.209000
  H    -66.310800   37.912400  110.273000
  H    -65.268600   36.645500  110.975000
  C    -65.218800   38.580700  111.947000
  H    -64.522800   38.200800  112.712000
  H    -65.918900   39.221000  112.563000
  H    -64.565800   39.216600  111.353000
  H    -69.143400   36.899100  118.082000
  H    -70.753000   39.378100  110.773000

 Total Charge           Charge          ....    0
 Multiplicity           Mult            ....    1
 Number of Electrons    NEL             ....  134
 Basis Dimension        Dim             ....  322

ORBITAL ENERGIES
----------------

  NO   OCC          E(Eh)            E(eV)
   0   2.0000     -88.966801     -2420.9097
   1   2.0000     -88.958485     -2420.6834
   2   2.0000     -10.323316      -280.9117
   3   2.0000     -10.316360      -280.7224
   4   2.0000     -10.314297      -280.6663
   5   2.0000     -10.308171      -280.4996
   6   2.0000     -10.299538      -280.2647
   7   2.0000     -10.297282      -280.2033
   8   2.0000     -10.293377      -280.0970
   9   2.0000     -10.293143      -280.0907
  10   2.0000     -10.288361      -279.9605
  11   2.0000     -10.284797      -279.8636
  12   2.0000     -10.284793      -279.8634
  13   2.0000     -10.284509      -279.8557
  14   2.0000     -10.277005      -279.6515
  15   2.0000     -10.275076      -279.5990
  16   2.0000      -8.082013      -219.9228
  17   2.0000      -8.074880      -219.7287
  18   2.0000      -6.040323      -164.3655
  19   2.0000      -6.036407      -164.2590
  20   2.0000      -6.033246      -164.1730
  21   2.0000      -6.033010      -164.1666
  22   2.0000      -6.029251      -164.0643
  23   2.0000      -6.025581      -163.9644
  24   2.0000      -1.019478       -27.7414
  25   2.0000      -0.992982       -27.0204
  26   2.0000      -0.914345       -24.8806
  27   2.0000      -0.907707       -24.7000
  28   2.0000      -0.870931       -23.6992
  29   2.0000      -0.859845       -23.3976
  30   2.0000      -0.843265       -22.9464
  31   2.0000      -0.814318       -22.1587
  32   2.0000      -0.783637       -21.3238
  33   2.0000      -0.769748       -20.9459
  34   2.0000      -0.718909       -19.5625
  35   2.0000      -0.702400       -19.1133
  36   2.0000      -0.693741       -18.8777
  37   2.0000      -0.658144       -17.9090
  38   2.0000      -0.642714       -17.4891
  39   2.0000      -0.619430       -16.8555
  40   2.0000      -0.600790       -16.3483
  41   2.0000      -0.569256       -15.4903
  42   2.0000      -0.565160       -15.3788
  43   2.0000      -0.550166       -14.9708
  44   2.0000      -0.535823       -14.5805
  45   2.0000      -0.524122       -14.2621
  46   2.0000      -0.519017       -14.1232
  47   2.0000      -0.512360       -13.9420
  48   2.0000      -0.505708       -13.7610
  49   2.0000      -0.501421       -13.6444
  50   2.0000      -0.488739       -13.2993
  51   2.0000      -0.485030       -13.1983
  52   2.0000      -0.475992       -12.9524
  53   2.0000      -0.461139       -12.5482
  54   2.0000      -0.455121       -12.3845
  55   2.0000      -0.453794       -12.3483
  56   2.0000      -0.445016       -12.1095
  57   2.0000      -0.440820       -11.9953
  58   2.0000      -0.434396       -11.8205
  59   2.0000      -0.427713       -11.6387
  60   2.0000      -0.415542       -11.3075
  61   2.0000      -0.412988       -11.2380
  62   2.0000      -0.406640       -11.0652
  63   2.0000      -0.351888        -9.5754
  64   2.0000      -0.331823        -9.0294
  65   2.0000      -0.323582        -8.8051
  66   2.0000      -0.282832        -7.6962
  67   0.0000       0.027895         0.7591
  68   0.0000       0.068996         1.8775
  69   0.0000       0.111894         3.0448
  70   0.0000       0.121893         3.3169
  71   0.0000       0.138196         3.7605

MULLIKEN ATOMIC CHARGES
-----------------------
   0 S :    0.102584
   1 C :   -0.136090
   2 C :   -0.073256
   3 C :    0.035824
   4 C :   -0.132394
   5 H :    0.002508
   6 C :    0.022853
   7 H :    0.034737
   8 H :    0.016011
   9 C :   -0.029705
  10 H :    0.030354
  11 H :    0.010759
  12 C :   -0.050186
  13 H :    0.039755
  14 H :    0.041897
  15 H :    0.034982
  16 S :    0.105370
  17 C :   -0.089263
  18 C :   -0.064449
  19 C :   -0.058860
  20 C :   -0.135721
  21 H :    0.054490
  22 C :    0.098484
  23 H :    0.012572
  24 H :    0.011994
  25 C :   -0.084266
  26 H :    0.028698
  27 H :    0.029034
  28 C :   -0.062720
  29 H :    0.021500
  30 H :    0.041367
  31 H :    0.033567
  32 H :    0.060034
  33 H :    0.047538
Sum of atomic charges:   -0.0000000

LOEWDIN ATOMIC CHARGES
----------------------
   0 S :    0.425519
   1 C :   -0.215462
   2 C :   -0.061889
   3 C :   -0.054376
   4 C :   -0.192518
   5 H :    0.030340
   6 C :   -0.039632
   7 H :    0.033326
   8 H :    0.030253
   9 C :   -0.028425
  10 H :    0.021250
  11 H :    0.011125
  12 C :   -0.053419
  13 H :    0.023326
  14 H :    0.033123
  15 H :    0.023390
  16 S :    0.417323
  17 C :   -0.197392
  18 C :   -0.080438
  19 C :   -0.064899
  20 C :   -0.202855
  21 H :    0.049902
  22 C :   -0.036984
  23 H :    0.033020
  24 H :    0.026147
  25 C :   -0.037685
  26 H :    0.024453
  27 H :    0.025731
  28 C :   -0.077572
  29 H :    0.023423
  30 H :    0.032235
  31 H :    0.025148
  32 H :    0.031706
  33 H :    0.022805

  Mayer bond orders larger than 0.100000
B(  0-S ,  1-C ) :   1.1495 B(  0-S ,  4-C ) :   1.1717 B(  1-C ,  2-C ) :   1.5409
B(  1-C ,  4-C ) :   0.1083 B(  1-C , 32-H ) :   0.9695 B(  2-C ,  3-C ) :   1.3128
B(  2-C ,  6-C ) :   1.0051 B(  3-C ,  4-C ) :   1.4995 B(  3-C ,  5-H ) :   1.0041
B(  4-C , 20-C ) :   1.0675 B(  6-C ,  7-H ) :   0.9351 B(  6-C ,  8-H ) :   0.9431
B(  6-C ,  9-C ) :   1.0563 B(  9-C , 10-H ) :   0.9493 B(  9-C , 11-H ) :   0.9591
B(  9-C , 12-C ) :   1.0831 B( 12-C , 13-H ) :   0.9802 B( 12-C , 14-H ) :   0.9766
B( 12-C , 15-H ) :   0.9771 B( 16-S , 17-C ) :   1.1728 B( 16-S , 20-C ) :   1.1141
B( 17-C , 18-C ) :   1.6254 B( 17-C , 33-H ) :   0.9662 B( 18-C , 19-C ) :   1.1863
B( 18-C , 21-H ) :   0.9833 B( 19-C , 20-C ) :   1.6048 B( 19-C , 22-C ) :   1.0859
B( 22-C , 23-H ) :   0.9188 B( 22-C , 24-H ) :   0.9293 B( 22-C , 25-C ) :   1.0694
B( 25-C , 26-H ) :   0.9579 B( 25-C , 27-H ) :   0.9551 B( 25-C , 28-C ) :   1.0683
B( 28-C , 29-H ) :   0.9746 B( 28-C , 30-H ) :   0.9751 B( 28-C , 31-H ) :   0.9766

Dispersion correction           -0.013892172
FINAL SINGLE POINT ENERGY     -1339.852633373827

DIPOLE MOMENT
-------------
                                X             Y             Z
Electronic contribution:     -8.85811      18.29365      -2.83817
Nuclear contribution   :      8.76925     -18.97724       2.76081
                        -----------------------------------------
Total Dipole Moment    :     -0.08886      -0.68359      -0.07736
                        -----------------------------------------
Magnitude (a.u.)       :      0.69367
Magnitude (Debye)      :      1.76317

Rotational constants in cm-1:     0.024089     0.006963     0.006410
Rotational constants in MHz :   722.172917   208.740194   192.161962

                             ****ORCA TERMINATED NORMALLY****
TOTAL RUN TIME: 0 days 0 hours 0 minutes 28 seconds 89 msec
