                         Program Version 4.2.1 -  RELEASE  -
|  1> ! wB97X-D3 SP def2-SVP
|  2> %pal
|  3> nprocs 16
|  4> end
|  5>
|  6> * xyz 0 1
|  7> S 	 -86.0824 	 50.9727 	 133.906
|  8> C 	 -85.6809 	 49.3378 	 134.085
|  9> C 	 -86.0794 	 48.5782 	 132.964
| 10> C 	 -86.8142 	 49.3434 	 132.038
| 11> C 	 -86.9895 	 50.6235 	 132.46
| 12> H 	 -87.2462 	 49.0038 	 131.109
| 13> C 	 -85.8548 	 47.0773 	 132.783
| 14> H 	 -86.7747 	 46.5518 	 132.579
| 15> H 	 -85.5328 	 46.7348 	 133.752
| 16> C 	 -84.8252 	 46.5159 	 131.769
| 17> H 	 -84.0276 	 47.1976 	 131.925
| 18> H 	 -84.6551 	 45.5162 	 132.139
| 19> C 	 -85.2914 	 46.4734 	 130.289
| 20> H 	 -85.9945 	 45.6577 	 130.106
| 21> H 	 -85.7007 	 47.3917 	 129.868
| 22> H 	 -84.3652 	 46.2698 	 129.662
| 23> S 	 -86.9919 	 52.7326 	 130.75
| 24> C 	 -88.5046 	 53.3617 	 130.149
| 25> C 	 -89.5746 	 52.7078 	 130.735
| 26> C 	 -89.1623 	 51.6606 	 131.627
| 27> C 	 -87.7775 	 51.5614 	 131.737
| 28> H 	 -90.6896 	 52.962 	 130.521
| 29> C 	 -90.143 	 50.8267 	 132.419
| 30> H 	 -90.7634 	 51.6216 	 132.842
| 31> H 	 -89.7233 	 50.3595 	 133.284
| 32> C 	 -91.004 	 49.8787 	 131.608
| 33> H 	 -90.4347 	 49.111 	 131.16
| 34> H 	 -91.3445 	 50.4173 	 130.651
| 35> C 	 -92.2522 	 49.3517 	 132.329
| 36> H 	 -92.8246 	 48.7647 	 131.613
| 37> H 	 -92.7302 	 50.2894 	 132.774
| 38> H 	 -92.1184 	 48.7117 	 133.22
| 39> H 	 -85.1798 	 48.8716 	 134.897
| 40> H 	 -88.6215 	 54.2239 	 129.513
| 41> *
| 42>
| 43>                          ****END OF INPUT****

CARTESIAN COORDINATES (ANGSTROEM)
---------------------------------
  S    -86.082400   50.972700  133.906000
  C    -85.680900   49.337800  134.085000
  C    -86.079400   48.578200  132.964000
  C    -86.814200   49.343400  132.038000
  C    -86.989500   50.623500  132.460000
  H    -87.246200   49.003800  131.109000
  C    -85.854800   47.077300  132.783000
  H    -86.774700   46.551800  132.579000
  H    -85.532800   46.734800  133.752000
  C    -84.825200   46.515900  131.769000
  H    -84.027600   47.197600  131.925000
  H    -84.655100   45.516200  132.139000
  C    -85.291400   46.473400  130.289000
  H    -85.994500   45.657700  130.106000
  H    -85.700700   47.391700  129.868000
  H    -84.365200   46.269800  129.662000
  S    -86.991900   52.732600  130.750000
  C    -88.504600   53.361700  130.149000
  C    -89.574600   52.707800  130.735000
  C    -89.162300   51.660600  131.627000
  C    -87.777500   51.561400  131.737000
  H    -90.689600   52.962000  130.521000
  C    -90.143000   50.826700  132.419000
  H    -90.763400   51.621600  132.842000
  H    -89.723300   50.359500  133.284000
  C    -91.004000   49.878700  131.608000
  H    -90.434700   49.111000  131.160000
  H    -91.344500   50.417300  130.651000
  C    -92.252200   49.351700  132.329000
  H    -92.824600   48.764700  131.613000
  H    -92.730200   50.289400  132.774000
  H    -92.118400   48.711700  133.220000
  H    -85.179800   48.871600  134.897000
  H    -88.621500   54.223900  129.513000

 Total Charge           Charge          ....    0
 Multiplicity           Mult            ....    1
 Number of Electrons    NEL             ....  134
 Basis Dimension        Dim             ....  322

ORBITAL ENERGIES
----------------

  NO   OCC          E(Eh)            E(eV)
   0   2.0000     -88.969899     -2420.9940
   1   2.0000     -88.962851     -2420.8022
   2   2.0000     -10.318696      -280.7860
   3   2.0000     -10.316933      -280.7380
   4   2.0000     -10.316785      -280.7340
   5   2.0000     -10.311435      -280.5884
   6   2.0000     -10.301382      -280.3149
   7   2.0000     -10.300961      -280.3034
   8   2.0000     -10.298962      -280.2490
   9   2.0000     -10.287556      -279.9386
  10   2.0000     -10.286007      -279.8965
  11   2.0000     -10.285693      -279.8879
  12   2.0000     -10.285163      -279.8735
  13   2.0000     -10.285100      -279.8718
  14   2.0000     -10.285082      -279.8713
  15   2.0000     -10.284145      -279.8458
  16   2.0000      -8.085505      -220.0178
  17   2.0000      -8.078290      -219.8215
  18   2.0000      -6.043762      -164.4591
  19   2.0000      -6.039924      -164.3547
  20   2.0000      -6.036766      -164.2688
  21   2.0000      -6.036450      -164.2602
  22   2.0000      -6.032569      -164.1545
  23   2.0000      -6.029187      -164.0625
  24   2.0000      -1.013759       -27.5858
  25   2.0000      -0.988209       -26.8905
  26   2.0000      -0.909668       -24.7533
  27   2.0000      -0.907705       -24.6999
  28   2.0000      -0.874500       -23.7964
  29   2.0000      -0.851502       -23.1705
  30   2.0000      -0.847331       -23.0571
  31   2.0000      -0.813868       -22.1465
  32   2.0000      -0.782418       -21.2907
  33   2.0000      -0.769003       -20.9256
  34   2.0000      -0.704922       -19.1819
  35   2.0000      -0.698720       -19.0131
  36   2.0000      -0.697077       -18.9684
  37   2.0000      -0.656758       -17.8713
  38   2.0000      -0.646389       -17.5891
  39   2.0000      -0.617962       -16.8156
  40   2.0000      -0.598089       -16.2748
  41   2.0000      -0.574455       -15.6317
  42   2.0000      -0.556692       -15.1484
  43   2.0000      -0.547620       -14.9015
  44   2.0000      -0.535931       -14.5834
  45   2.0000      -0.528326       -14.3765
  46   2.0000      -0.517621       -14.0852
  47   2.0000      -0.511363       -13.9149
  48   2.0000      -0.504060       -13.7162
  49   2.0000      -0.494236       -13.4489
  50   2.0000      -0.491801       -13.3826
  51   2.0000      -0.483336       -13.1522
  52   2.0000      -0.471012       -12.8169
  53   2.0000      -0.470204       -12.7949
  54   2.0000      -0.455625       -12.3982
  55   2.0000      -0.450948       -12.2709
  56   2.0000      -0.445726       -12.1288
  57   2.0000      -0.444428       -12.0935
  58   2.0000      -0.429013       -11.6740
  59   2.0000      -0.423605       -11.5269
  60   2.0000      -0.421728       -11.4758
  61   2.0000      -0.415716       -11.3122
  62   2.0000      -0.403900       -10.9907
  63   2.0000      -0.342085        -9.3086
  64   2.0000      -0.329454        -8.9649
  65   2.0000      -0.320925        -8.7328
  66   2.0000      -0.302303        -8.2261
  67   0.0000       0.045567         1.2399
  68   0.0000       0.058121         1.5816
  69   0.0000       0.119385         3.2486
  70   0.0000       0.126090         3.4311
  71   0.0000       0.129166         3.5148

MULLIKEN ATOMIC CHARGES
-----------------------
   0 S :    0.145386
   1 C :   -0.102246
   2 C :   -0.094745
   3 C :    0.050610
   4 C :   -0.185391
   5 H :    0.013940
   6 C :    0.058786
   7 H :    0.018445
   8 H :   -0.001032
   9 C :   -0.029198
  10 H :    0.023091
  11 H :    0.034219
  12 C :   -0.083645
  13 H :    0.035369
  14 H :    0.039008
  15 H :    0.042558
  16 S :    0.114813
  17 C :   -0.093292
  18 C :   -0.064100
  19 C :   -0.033507
  20 C :   -0.192817
  21 H :    0.053623
  22 C :    0.102286
  23 H :    0.017613
  24 H :    0.024196
  25 C :   -0.078017
  26 H :    0.011968
  27 H :    0.025781
  28 C :   -0.055740
  29 H :    0.042620
  30 H :    0.034638
  31 H :    0.035759
  32 H :    0.032798
  33 H :    0.056224
Sum of atomic charges:   -0.0000000

LOEWDIN ATOMIC CHARGES
----------------------
   0 S :    0.440619
   1 C :   -0.213061
   2 C :   -0.064272
   3 C :   -0.050426
   4 C :   -0.208875
   5 H :    0.033153
   6 C :   -0.033608
   7 H :    0.024242
   8 H :    0.024135
   9 C :   -0.030869
  10 H :    0.020586
  11 H :    0.028109
  12 C :   -0.074330
  13 H :    0.024648
  14 H :    0.023670
  15 H :    0.036101
  16 S :    0.419767
  17 C :   -0.190689
  18 C :   -0.082487
  19 C :   -0.054399
  20 C :   -0.217723
  21 H :    0.047609
  22 C :   -0.031759
  23 H :    0.033706
  24 H :    0.028071
  25 C :   -0.045237
  26 H :    0.014636
  27 H :    0.030919
  28 C :   -0.071217
  29 H :    0.028361
  30 H :    0.033242
  31 H :    0.025271
  32 H :    0.022860
  33 H :    0.029246

  Mayer bond orders larger than 0.100000
B(  0-S ,  1-C ) :   1.1605 B(  0-S ,  4-C ) :   1.1540 B(  1-C ,  2-C ) :   1.5804
B(  1-C , 32-H ) :   0.9682 B(  2-C ,  3-C ) :   1.2538 B(  2-C ,  6-C ) :   1.0352
B(  3-C ,  4-C ) :   1.5696 B(  3-C ,  5-H ) :   0.9988 B(  4-C , 20-C ) :   1.0294
B(  6-C ,  7-H ) :   0.9421 B(  6-C ,  8-H ) :   0.9344 B(  6-C ,  9-C ) :   1.0615
B(  9-C , 10-H ) :   0.9564 B(  9-C , 11-H ) :   0.9557 B(  9-C , 12-C ) :   1.0792
B( 12-C , 13-H ) :   0.9751 B( 12-C , 14-H ) :   0.9763 B( 12-C , 15-H ) :   0.9735
B( 16-S , 17-C ) :   1.1590 B( 16-S , 20-C ) :   1.1530 B( 17-C , 18-C ) :   1.6022
B( 17-C , 33-H ) :   0.9690 B( 18-C , 19-C ) :   1.2552 B( 18-C , 21-H ) :   0.9691
B( 19-C , 20-C ) :   1.5969 B( 19-C , 22-C ) :   1.0359 B( 22-C , 23-H ) :   0.9298
B( 22-C , 24-H ) :   0.9325 B( 22-C , 25-C ) :   1.0584 B( 25-C , 26-H ) :   0.9497
B( 25-C , 27-H ) :   0.9554 B( 25-C , 28-C ) :   1.0734 B( 28-C , 29-H ) :   0.9735
B( 28-C , 30-H ) :   0.9736 B( 28-C , 31-H ) :   0.9755

Dispersion correction           -0.014271098
FINAL SINGLE POINT ENERGY     -1339.878962956325

DIPOLE MOMENT
-------------
                                X             Y             Z
Electronic contribution:     11.84588      23.13597       4.38845
Nuclear contribution   :    -12.15458     -23.61771      -4.43560
                        -----------------------------------------
Total Dipole Moment    :     -0.30870      -0.48173      -0.04715
                        -----------------------------------------
Magnitude (a.u.)       :      0.57410
Magnitude (Debye)      :      1.45923

Rotational constants in cm-1:     0.016104     0.008870     0.007492
Rotational constants in MHz :   482.799961   265.929096   224.606011

                             ****ORCA TERMINATED NORMALLY****
TOTAL RUN TIME: 0 days 0 hours 0 minutes 34 seconds 473 msec
