                         Program Version 4.2.1 -  RELEASE  -
|  1> ! wB97X-D3 SP def2-SVP
|  2> %pal
|  3> nprocs 16
|  4> end
|  5>
|  6> * xyz 0 1
|  7> S 	 -7.99889 	 -8.35166 	 75.3623
|  8> C 	 -7.84679 	 -10.0427 	 74.865
|  9> C 	 -9.04831 	 -10.7654 	 75.0467
| 10> C 	 -10.1192 	 -9.96031 	 75.5509
| 11> C 	 -9.78451 	 -8.6112 	 75.6585
| 12> H 	 -11.0793 	 -10.3566 	 75.8087
| 13> C 	 -9.24904 	 -12.28 	 74.8184
| 14> H 	 -9.88182 	 -12.4022 	 73.941
| 15> H 	 -9.84272 	 -12.6718 	 75.6455
| 16> C 	 -7.92272 	 -13.0186 	 74.5649
| 17> H 	 -7.32378 	 -12.5549 	 73.8019
| 18> H 	 -7.35699 	 -12.9991 	 75.4532
| 19> C 	 -8.20222 	 -14.4907 	 74.2442
| 20> H 	 -8.4792 	 -15.0202 	 75.1569
| 21> H 	 -8.88645 	 -14.5832 	 73.3897
| 22> H 	 -7.29592 	 -15.0786 	 74.017
| 23> S 	 -9.58999 	 -6.4051 	 77.2127
| 24> C 	 -11.0359 	 -5.43099 	 77.608
| 25> C 	 -12.1217 	 -6.13465 	 77.1205
| 26> C 	 -11.8659 	 -7.22009 	 76.2577
| 27> C 	 -10.5628 	 -7.51855 	 76.1953
| 28> H 	 -13.0586 	 -5.72268 	 77.2362
| 29> C 	 -12.9865 	 -7.95819 	 75.5207
| 30> H 	 -13.7005 	 -8.23005 	 76.3318
| 31> H 	 -12.7061 	 -8.89799 	 75.0205
| 32> C 	 -13.7876 	 -7.18815 	 74.443
| 33> H 	 -14.0728 	 -6.26714 	 74.9648
| 34> H 	 -14.7489 	 -7.63942 	 74.2633
| 35> C 	 -13.1161 	 -6.84223 	 73.1488
| 36> H 	 -13.4126 	 -7.66774 	 72.5387
| 37> H 	 -12.0187 	 -7.00783 	 73.0591
| 38> H 	 -13.4882 	 -5.88421 	 72.8034
| 39> H 	 -6.87887 	 -10.436 	 74.5217
| 40> H 	 -11.127 	 -4.5319 	 78.1628
| 41> *
| 42>
| 43>                          ****END OF INPUT****

CARTESIAN COORDINATES (ANGSTROEM)
---------------------------------
  S     -7.998890   -8.351660   75.362300
  C     -7.846790  -10.042700   74.865000
  C     -9.048310  -10.765400   75.046700
  C    -10.119200   -9.960310   75.550900
  C     -9.784510   -8.611200   75.658500
  H    -11.079300  -10.356600   75.808700
  C     -9.249040  -12.280000   74.818400
  H     -9.881820  -12.402200   73.941000
  H     -9.842720  -12.671800   75.645500
  C     -7.922720  -13.018600   74.564900
  H     -7.323780  -12.554900   73.801900
  H     -7.356990  -12.999100   75.453200
  C     -8.202220  -14.490700   74.244200
  H     -8.479200  -15.020200   75.156900
  H     -8.886450  -14.583200   73.389700
  H     -7.295920  -15.078600   74.017000
  S     -9.589990   -6.405100   77.212700
  C    -11.035900   -5.430990   77.608000
  C    -12.121700   -6.134650   77.120500
  C    -11.865900   -7.220090   76.257700
  C    -10.562800   -7.518550   76.195300
  H    -13.058600   -5.722680   77.236200
  C    -12.986500   -7.958190   75.520700
  H    -13.700500   -8.230050   76.331800
  H    -12.706100   -8.897990   75.020500
  C    -13.787600   -7.188150   74.443000
  H    -14.072800   -6.267140   74.964800
  H    -14.748900   -7.639420   74.263300
  C    -13.116100   -6.842230   73.148800
  H    -13.412600   -7.667740   72.538700
  H    -12.018700   -7.007830   73.059100
  H    -13.488200   -5.884210   72.803400
  H     -6.878870  -10.436000   74.521700
  H    -11.127000   -4.531900   78.162800

 Total Charge           Charge          ....    0
 Multiplicity           Mult            ....    1
 Number of Electrons    NEL             ....  134
 Basis Dimension        Dim             ....  322

ORBITAL ENERGIES
----------------

  NO   OCC          E(Eh)            E(eV)
   0   2.0000     -88.967173     -2420.9198
   1   2.0000     -88.960816     -2420.7469
   2   2.0000     -10.336634      -281.2741
   3   2.0000     -10.325130      -280.9611
   4   2.0000     -10.320956      -280.8475
   5   2.0000     -10.319104      -280.7971
   6   2.0000     -10.307177      -280.4725
   7   2.0000     -10.299359      -280.2598
   8   2.0000     -10.298253      -280.2297
   9   2.0000     -10.297975      -280.2222
  10   2.0000     -10.296133      -280.1720
  11   2.0000     -10.287189      -279.9286
  12   2.0000     -10.283409      -279.8258
  13   2.0000     -10.282072      -279.7894
  14   2.0000     -10.280922      -279.7581
  15   2.0000     -10.271581      -279.5039
  16   2.0000      -8.080341      -219.8773
  17   2.0000      -8.074625      -219.7217
  18   2.0000      -6.038987      -164.3292
  19   2.0000      -6.035236      -164.2271
  20   2.0000      -6.033416      -164.1776
  21   2.0000      -6.030872      -164.1084
  22   2.0000      -6.029291      -164.0653
  23   2.0000      -6.025077      -163.9507
  24   2.0000      -1.002712       -27.2852
  25   2.0000      -0.974767       -26.5248
  26   2.0000      -0.911400       -24.8004
  27   2.0000      -0.907558       -24.6959
  28   2.0000      -0.868393       -23.6302
  29   2.0000      -0.855626       -23.2828
  30   2.0000      -0.844937       -22.9919
  31   2.0000      -0.811863       -22.0919
  32   2.0000      -0.783800       -21.3283
  33   2.0000      -0.769655       -20.9434
  34   2.0000      -0.715800       -19.4779
  35   2.0000      -0.699426       -19.0324
  36   2.0000      -0.693433       -18.8693
  37   2.0000      -0.667741       -18.1701
  38   2.0000      -0.638111       -17.3639
  39   2.0000      -0.617390       -16.8000
  40   2.0000      -0.599136       -16.3033
  41   2.0000      -0.576660       -15.6917
  42   2.0000      -0.560485       -15.2516
  43   2.0000      -0.550168       -14.9708
  44   2.0000      -0.544563       -14.8183
  45   2.0000      -0.528541       -14.3823
  46   2.0000      -0.520672       -14.1682
  47   2.0000      -0.508263       -13.8305
  48   2.0000      -0.506231       -13.7753
  49   2.0000      -0.501260       -13.6400
  50   2.0000      -0.494044       -13.4436
  51   2.0000      -0.483905       -13.1677
  52   2.0000      -0.472104       -12.8466
  53   2.0000      -0.465779       -12.6745
  54   2.0000      -0.455965       -12.4074
  55   2.0000      -0.447170       -12.1681
  56   2.0000      -0.439456       -11.9582
  57   2.0000      -0.433064       -11.7843
  58   2.0000      -0.430649       -11.7186
  59   2.0000      -0.425438       -11.5768
  60   2.0000      -0.419919       -11.4266
  61   2.0000      -0.412601       -11.2274
  62   2.0000      -0.403742       -10.9864
  63   2.0000      -0.356993        -9.7143
  64   2.0000      -0.332108        -9.0371
  65   2.0000      -0.328091        -8.9278
  66   2.0000      -0.283116        -7.7040
  67   0.0000       0.018241         0.4964
  68   0.0000       0.073229         1.9927
  69   0.0000       0.092341         2.5127
  70   0.0000       0.121259         3.2996
  71   0.0000       0.138313         3.7637

MULLIKEN ATOMIC CHARGES
-----------------------
   0 S :    0.092226
   1 C :   -0.142518
   2 C :   -0.082504
   3 C :    0.020420
   4 C :   -0.123990
   5 H :    0.012863
   6 C :    0.057855
   7 H :    0.032011
   8 H :    0.032631
   9 C :   -0.072785
  10 H :    0.034544
  11 H :    0.022386
  12 C :   -0.046102
  13 H :    0.029577
  14 H :    0.038410
  15 H :    0.025688
  16 S :    0.066690
  17 C :   -0.068630
  18 C :   -0.012624
  19 C :   -0.028269
  20 C :   -0.114577
  21 H :   -0.012067
  22 C :    0.039807
  23 H :    0.034356
  24 H :    0.021240
  25 C :   -0.079987
  26 H :    0.007873
  27 H :    0.023808
  28 C :   -0.024992
  29 H :    0.016125
  30 H :    0.045745
  31 H :    0.044517
  32 H :    0.061027
  33 H :    0.049246
Sum of atomic charges:   -0.0000000

LOEWDIN ATOMIC CHARGES
----------------------
   0 S :    0.365639
   1 C :   -0.199054
   2 C :   -0.058608
   3 C :   -0.055774
   4 C :   -0.162071
   5 H :    0.028932
   6 C :   -0.027317
   7 H :    0.031418
   8 H :    0.032807
   9 C :   -0.037707
  10 H :    0.021643
  11 H :    0.020568
  12 C :   -0.067983
  13 H :    0.027368
  14 H :    0.025456
  15 H :    0.027459
  16 S :    0.360587
  17 C :   -0.162445
  18 C :   -0.058138
  19 C :   -0.066260
  20 C :   -0.170472
  21 H :    0.014623
  22 C :   -0.029536
  23 H :    0.038622
  24 H :    0.025490
  25 C :   -0.046341
  26 H :    0.017254
  27 H :    0.022780
  28 C :   -0.070940
  29 H :    0.025907
  30 H :    0.037090
  31 H :    0.031319
  32 H :    0.029488
  33 H :    0.028196

  Mayer bond orders larger than 0.100000
B(  0-S ,  1-C ) :   1.1220 B(  0-S ,  4-C ) :   1.1274 B(  1-C ,  2-C ) :   1.6147
B(  1-C ,  4-C ) :   0.1001 B(  1-C , 32-H ) :   0.9617 B(  2-C ,  3-C ) :   1.2437
B(  2-C ,  6-C ) :   1.0044 B(  3-C ,  4-C ) :   1.5680 B(  3-C ,  5-H ) :   0.9915
B(  4-C , 20-C ) :   1.0695 B(  6-C ,  7-H ) :   0.9351 B(  6-C ,  8-H ) :   0.9456
B(  6-C ,  9-C ) :   1.0780 B(  9-C , 10-H ) :   0.9494 B(  9-C , 11-H ) :   0.9547
B(  9-C , 12-C ) :   1.0925 B( 12-C , 13-H ) :   0.9732 B( 12-C , 14-H ) :   0.9762
B( 12-C , 15-H ) :   0.9709 B( 16-S , 17-C ) :   1.1208 B( 16-S , 20-C ) :   1.1062
B( 17-C , 18-C ) :   1.6351 B( 17-C , 33-H ) :   0.9747 B( 18-C , 19-C ) :   1.2203
B( 18-C , 21-H ) :   0.9889 B( 19-C , 20-C ) :   1.6520 B( 19-C , 22-C ) :   1.0319
B( 22-C , 23-H ) :   0.9289 B( 22-C , 24-H ) :   0.9433 B( 22-C , 25-C ) :   1.0804
B( 25-C , 26-H ) :   0.9591 B( 25-C , 27-H ) :   0.9566 B( 25-C , 28-C ) :   1.0538
B( 28-C , 29-H ) :   0.9726 B( 28-C , 30-H ) :   0.9783 B( 28-C , 31-H ) :   0.9753

Dispersion correction           -0.013525428
FINAL SINGLE POINT ENERGY     -1339.864434139768

DIPOLE MOMENT
-------------
                                X             Y             Z
Electronic contribution:     11.89939      19.27772      12.95688
Nuclear contribution   :    -12.45880     -19.78658     -13.07356
                        -----------------------------------------
Total Dipole Moment    :     -0.55942      -0.50886      -0.11668
                        -----------------------------------------
Magnitude (a.u.)       :      0.76518
Magnitude (Debye)      :      1.94492

Rotational constants in cm-1:     0.021370     0.007440     0.006122
Rotational constants in MHz :   640.660051   223.055140   183.538389

                             ****ORCA TERMINATED NORMALLY****
TOTAL RUN TIME: 0 days 0 hours 0 minutes 33 seconds 232 msec
