                         Program Version 4.2.1 -  RELEASE  -
|  1> ! wB97X-D3 SP def2-SVP
|  2> %pal
|  3> nprocs 16
|  4> end
|  5>
|  6> * xyz 0 1
|  7> S 	 -71.9702 	 39.0216 	 120.13
|  8> C 	 -73.2058 	 39.825 	 121.122
|  9> C 	 -73.4057 	 41.0559 	 120.684
| 10> C 	 -72.4793 	 41.4685 	 119.643
| 11> C 	 -71.8304 	 40.4113 	 119.066
| 12> H 	 -72.4103 	 42.5029 	 119.365
| 13> C 	 -74.4527 	 41.9745 	 121.355
| 14> H 	 -75.3787 	 41.8118 	 120.869
| 15> H 	 -74.2873 	 42.8962 	 120.77
| 16> C 	 -74.4514 	 42.1593 	 122.878
| 17> H 	 -74.7153 	 41.2006 	 123.304
| 18> H 	 -73.3861 	 42.2869 	 123.063
| 19> C 	 -75.3155 	 43.2467 	 123.38
| 20> H 	 -75.4647 	 43.9877 	 122.603
| 21> H 	 -76.2879 	 42.8194 	 123.756
| 22> H 	 -74.7661 	 43.6933 	 124.158
| 23> S 	 -69.4681 	 39.2019 	 118.159
| 24> C 	 -68.7693 	 39.6457 	 116.667
| 25> C 	 -69.6356 	 40.6091 	 116.045
| 26> C 	 -70.7454 	 41.0857 	 116.83
| 27> C 	 -70.8913 	 40.29 	 117.955
| 28> H 	 -69.3419 	 40.9579 	 115.094
| 29> C 	 -71.7279 	 42.1347 	 116.463
| 30> H 	 -72.6339 	 42.1757 	 117.072
| 31> H 	 -72.0246 	 41.8944 	 115.428
| 32> C 	 -71.2031 	 43.522 	 116.456
| 33> H 	 -70.4656 	 43.5261 	 115.708
| 34> H 	 -70.7191 	 43.7585 	 117.378
| 35> C 	 -72.3162 	 44.5439 	 116.161
| 36> H 	 -73.0286 	 44.2543 	 115.353
| 37> H 	 -71.9711 	 45.5298 	 115.997
| 38> H 	 -72.8982 	 44.6142 	 117.115
| 39> H 	 -73.8204 	 39.3383 	 121.841
| 40> H 	 -67.8094 	 39.3013 	 116.262
| 41> *
| 42>
| 43>                          ****END OF INPUT****

CARTESIAN COORDINATES (ANGSTROEM)
---------------------------------
  S    -71.970200   39.021600  120.130000
  C    -73.205800   39.825000  121.122000
  C    -73.405700   41.055900  120.684000
  C    -72.479300   41.468500  119.643000
  C    -71.830400   40.411300  119.066000
  H    -72.410300   42.502900  119.365000
  C    -74.452700   41.974500  121.355000
  H    -75.378700   41.811800  120.869000
  H    -74.287300   42.896200  120.770000
  C    -74.451400   42.159300  122.878000
  H    -74.715300   41.200600  123.304000
  H    -73.386100   42.286900  123.063000
  C    -75.315500   43.246700  123.380000
  H    -75.464700   43.987700  122.603000
  H    -76.287900   42.819400  123.756000
  H    -74.766100   43.693300  124.158000
  S    -69.468100   39.201900  118.159000
  C    -68.769300   39.645700  116.667000
  C    -69.635600   40.609100  116.045000
  C    -70.745400   41.085700  116.830000
  C    -70.891300   40.290000  117.955000
  H    -69.341900   40.957900  115.094000
  C    -71.727900   42.134700  116.463000
  H    -72.633900   42.175700  117.072000
  H    -72.024600   41.894400  115.428000
  C    -71.203100   43.522000  116.456000
  H    -70.465600   43.526100  115.708000
  H    -70.719100   43.758500  117.378000
  C    -72.316200   44.543900  116.161000
  H    -73.028600   44.254300  115.353000
  H    -71.971100   45.529800  115.997000
  H    -72.898200   44.614200  117.115000
  H    -73.820400   39.338300  121.841000
  H    -67.809400   39.301300  116.262000

 Total Charge           Charge          ....    0
 Multiplicity           Mult            ....    1
 Number of Electrons    NEL             ....  134
 Basis Dimension        Dim             ....  322

ORBITAL ENERGIES
----------------

  NO   OCC          E(Eh)            E(eV)
   0   2.0000     -88.967597     -2420.9314
   1   2.0000     -88.957279     -2420.6506
   2   2.0000     -10.332454      -281.1604
   3   2.0000     -10.330214      -281.0994
   4   2.0000     -10.325692      -280.9764
   5   2.0000     -10.307560      -280.4830
   6   2.0000     -10.303243      -280.3655
   7   2.0000     -10.299100      -280.2528
   8   2.0000     -10.295406      -280.1522
   9   2.0000     -10.294486      -280.1272
  10   2.0000     -10.288143      -279.9546
  11   2.0000     -10.287448      -279.9357
  12   2.0000     -10.284112      -279.8449
  13   2.0000     -10.283194      -279.8199
  14   2.0000     -10.278353      -279.6882
  15   2.0000     -10.277038      -279.6524
  16   2.0000      -8.082022      -219.9230
  17   2.0000      -8.072193      -219.6555
  18   2.0000      -6.040600      -164.3731
  19   2.0000      -6.036367      -164.2579
  20   2.0000      -6.032915      -164.1640
  21   2.0000      -6.030954      -164.1106
  22   2.0000      -6.026778      -163.9970
  23   2.0000      -6.022576      -163.8826
  24   2.0000      -1.006934       -27.4001
  25   2.0000      -0.983737       -26.7688
  26   2.0000      -0.924152       -25.1474
  27   2.0000      -0.915984       -24.9252
  28   2.0000      -0.874599       -23.7990
  29   2.0000      -0.857425       -23.3317
  30   2.0000      -0.839947       -22.8561
  31   2.0000      -0.814724       -22.1698
  32   2.0000      -0.786594       -21.4043
  33   2.0000      -0.775770       -21.1098
  34   2.0000      -0.710667       -19.3382
  35   2.0000      -0.707140       -19.2423
  36   2.0000      -0.698297       -19.0016
  37   2.0000      -0.663067       -18.0430
  38   2.0000      -0.637005       -17.3338
  39   2.0000      -0.623386       -16.9632
  40   2.0000      -0.603237       -16.4149
  41   2.0000      -0.577013       -15.7013
  42   2.0000      -0.568612       -15.4727
  43   2.0000      -0.563423       -15.3315
  44   2.0000      -0.535972       -14.5845
  45   2.0000      -0.527843       -14.3633
  46   2.0000      -0.519828       -14.1452
  47   2.0000      -0.518043       -14.0967
  48   2.0000      -0.509897       -13.8750
  49   2.0000      -0.502095       -13.6627
  50   2.0000      -0.496092       -13.4994
  51   2.0000      -0.479451       -13.0465
  52   2.0000      -0.472022       -12.8444
  53   2.0000      -0.466693       -12.6994
  54   2.0000      -0.460062       -12.5189
  55   2.0000      -0.448769       -12.2116
  56   2.0000      -0.447529       -12.1779
  57   2.0000      -0.442746       -12.0477
  58   2.0000      -0.434587       -11.8257
  59   2.0000      -0.426545       -11.6069
  60   2.0000      -0.416569       -11.3354
  61   2.0000      -0.412859       -11.2345
  62   2.0000      -0.403214       -10.9720
  63   2.0000      -0.358923        -9.7668
  64   2.0000      -0.331237        -9.0134
  65   2.0000      -0.324169        -8.8211
  66   2.0000      -0.286166        -7.7870
  67   0.0000       0.021264         0.5786
  68   0.0000       0.079110         2.1527
  69   0.0000       0.101387         2.7589
  70   0.0000       0.116799         3.1783
  71   0.0000       0.127495         3.4693

MULLIKEN ATOMIC CHARGES
-----------------------
   0 S :    0.065368
   1 C :   -0.102774
   2 C :   -0.131457
   3 C :    0.016398
   4 C :   -0.105306
   5 H :    0.006241
   6 C :    0.071876
   7 H :    0.016212
   8 H :   -0.014965
   9 C :   -0.057333
  10 H :    0.025281
  11 H :    0.034827
  12 C :   -0.004961
  13 H :    0.028244
  14 H :    0.047044
  15 H :    0.027374
  16 S :    0.105589
  17 C :   -0.100273
  18 C :   -0.029194
  19 C :   -0.015565
  20 C :   -0.116455
  21 H :   -0.002060
  22 C :    0.041201
  23 H :    0.017981
  24 H :    0.029056
  25 C :   -0.051203
  26 H :    0.009238
  27 H :    0.023129
  28 C :   -0.041080
  29 H :    0.039519
  30 H :    0.029111
  31 H :    0.025962
  32 H :    0.038058
  33 H :    0.074915
Sum of atomic charges:   -0.0000000

LOEWDIN ATOMIC CHARGES
----------------------
   0 S :    0.373227
   1 C :   -0.179047
   2 C :   -0.065314
   3 C :   -0.070929
   4 C :   -0.170393
   5 H :    0.025208
   6 C :   -0.041181
   7 H :    0.025249
   8 H :    0.026129
   9 C :   -0.041408
  10 H :    0.022552
  11 H :    0.028652
  12 C :   -0.059141
  13 H :    0.026427
  14 H :    0.037417
  15 H :    0.026346
  16 S :    0.407172
  17 C :   -0.200821
  18 C :   -0.068743
  19 C :   -0.047303
  20 C :   -0.185226
  21 H :    0.017890
  22 C :   -0.032596
  23 H :    0.028021
  24 H :    0.036591
  25 C :   -0.034405
  26 H :    0.013985
  27 H :    0.021363
  28 C :   -0.062943
  29 H :    0.030481
  30 H :    0.020092
  31 H :    0.028601
  32 H :    0.024531
  33 H :    0.039513

  Mayer bond orders larger than 0.100000
B(  0-S ,  1-C ) :   1.0997 B(  0-S ,  4-C ) :   1.1396 B(  1-C ,  2-C ) :   1.6862
B(  1-C , 32-H ) :   0.9742 B(  2-C ,  3-C ) :   1.2112 B(  2-C ,  6-C ) :   1.0057
B(  3-C ,  4-C ) :   1.5776 B(  3-C ,  5-H ) :   0.9850 B(  4-C , 20-C ) :   1.0582
B(  6-C ,  7-H ) :   0.9238 B(  6-C ,  8-H ) :   0.9257 B(  6-C ,  9-C ) :   1.0489
B(  9-C , 10-H ) :   0.9504 B(  9-C , 11-H ) :   0.9620 B(  9-C , 12-C ) :   1.0797
B( 12-C , 13-H ) :   0.9768 B( 12-C , 14-H ) :   0.9732 B( 12-C , 15-H ) :   0.9720
B( 16-S , 17-C ) :   1.1772 B( 16-S , 20-C ) :   1.1285 B( 17-C , 18-C ) :   1.5672
B( 17-C , 20-C ) :   0.1031 B( 17-C , 33-H ) :   0.9684 B( 18-C , 19-C ) :   1.2410
B( 18-C , 21-H ) :   0.9959 B( 19-C , 20-C ) :   1.5824 B( 19-C , 22-C ) :   1.0511
B( 22-C , 23-H ) :   0.9393 B( 22-C , 24-H ) :   0.9246 B( 22-C , 25-C ) :   1.0599
B( 25-C , 26-H ) :   0.9534 B( 25-C , 27-H ) :   0.9536 B( 25-C , 28-C ) :   1.0845
B( 28-C , 29-H ) :   0.9729 B( 28-C , 30-H ) :   0.9744 B( 28-C , 31-H ) :   0.9723

Dispersion correction           -0.013620574
FINAL SINGLE POINT ENERGY     -1339.856401055477

DIPOLE MOMENT
-------------
                                X             Y             Z
Electronic contribution:     16.81266     -25.92636      -3.25266
Nuclear contribution   :    -17.04509      26.66119       3.14396
                        -----------------------------------------
Total Dipole Moment    :     -0.23243       0.73482      -0.10871
                        -----------------------------------------
Magnitude (a.u.)       :      0.77833
Magnitude (Debye)      :      1.97837

Rotational constants in cm-1:     0.018869     0.008251     0.005962
Rotational constants in MHz :   565.674247   247.344908   178.749896

                             ****ORCA TERMINATED NORMALLY****
TOTAL RUN TIME: 0 days 0 hours 0 minutes 31 seconds 275 msec
