                         Program Version 4.2.1 -  RELEASE  -
|  1> ! wB97X-D3 SP def2-SVP
|  2> %pal
|  3> nprocs 16
|  4> end
|  5>
|  6> * xyz 0 1
|  7> S 	 -15.1241 	 -7.77892 	 90.7025
|  8> C 	 -16.8521 	 -7.50269 	 90.2795
|  9> C 	 -17.6221 	 -8.61034 	 90.684
| 10> C 	 -16.9073 	 -9.53806 	 91.4498
| 11> C 	 -15.4929 	 -9.29669 	 91.4919
| 12> H 	 -17.3082 	 -10.4274 	 91.8925
| 13> C 	 -19.0896 	 -8.68829 	 90.543
| 14> H 	 -19.3392 	 -7.77896 	 90.065
| 15> H 	 -19.5423 	 -8.59107 	 91.4587
| 16> C 	 -19.6549 	 -10.012 	 89.8586
| 17> H 	 -19.207 	 -10.0971 	 88.9282
| 18> H 	 -19.2167 	 -10.9428 	 90.3118
| 19> C 	 -21.1707 	 -10.0113 	 89.6467
| 20> H 	 -21.4865 	 -11.0363 	 89.575
| 21> H 	 -21.7531 	 -9.66988 	 90.5112
| 22> H 	 -21.4652 	 -9.39047 	 88.7504
| 23> S 	 -13.2057 	 -9.6018 	 92.9152
| 24> C 	 -12.4563 	 -11.173 	 93.273
| 25> C 	 -13.2408 	 -12.1554 	 92.6869
| 26> C 	 -14.203 	 -11.6353 	 91.7425
| 27> C 	 -14.4283 	 -10.2666 	 91.9342
| 28> H 	 -12.8777 	 -13.1619 	 92.8145
| 29> C 	 -15.036 	 -12.4866 	 90.7696
| 30> H 	 -16.1557 	 -12.2593 	 90.6793
| 31> H 	 -15.1071 	 -13.4951 	 91.1994
| 32> C 	 -14.3702 	 -12.6338 	 89.432
| 33> H 	 -13.3091 	 -12.6371 	 89.5013
| 34> H 	 -14.5949 	 -11.6818 	 88.9183
| 35> C 	 -15.0325 	 -13.6966 	 88.5768
| 36> H 	 -14.7047 	 -14.7527 	 88.8207
| 37> H 	 -14.8621 	 -13.4314 	 87.5734
| 38> H 	 -16.121 	 -13.5887 	 88.7693
| 39> H 	 -17.4948 	 -6.73474 	 89.8533
| 40> H 	 -11.6008 	 -11.3449 	 93.8048
| 41> *
| 42>
| 43>                          ****END OF INPUT****

CARTESIAN COORDINATES (ANGSTROEM)
---------------------------------
  S    -15.124100   -7.778920   90.702500
  C    -16.852100   -7.502690   90.279500
  C    -17.622100   -8.610340   90.684000
  C    -16.907300   -9.538060   91.449800
  C    -15.492900   -9.296690   91.491900
  H    -17.308200  -10.427400   91.892500
  C    -19.089600   -8.688290   90.543000
  H    -19.339200   -7.778960   90.065000
  H    -19.542300   -8.591070   91.458700
  C    -19.654900  -10.012000   89.858600
  H    -19.207000  -10.097100   88.928200
  H    -19.216700  -10.942800   90.311800
  C    -21.170700  -10.011300   89.646700
  H    -21.486500  -11.036300   89.575000
  H    -21.753100   -9.669880   90.511200
  H    -21.465200   -9.390470   88.750400
  S    -13.205700   -9.601800   92.915200
  C    -12.456300  -11.173000   93.273000
  C    -13.240800  -12.155400   92.686900
  C    -14.203000  -11.635300   91.742500
  C    -14.428300  -10.266600   91.934200
  H    -12.877700  -13.161900   92.814500
  C    -15.036000  -12.486600   90.769600
  H    -16.155700  -12.259300   90.679300
  H    -15.107100  -13.495100   91.199400
  C    -14.370200  -12.633800   89.432000
  H    -13.309100  -12.637100   89.501300
  H    -14.594900  -11.681800   88.918300
  C    -15.032500  -13.696600   88.576800
  H    -14.704700  -14.752700   88.820700
  H    -14.862100  -13.431400   87.573400
  H    -16.121000  -13.588700   88.769300
  H    -17.494800   -6.734740   89.853300
  H    -11.600800  -11.344900   93.804800

 Total Charge           Charge          ....    0
 Multiplicity           Mult            ....    1
 Number of Electrons    NEL             ....  134
 Basis Dimension        Dim             ....  322

ORBITAL ENERGIES
----------------

  NO   OCC          E(Eh)            E(eV)
   0   2.0000     -88.976081     -2421.1623
   1   2.0000     -88.963020     -2420.8068
   2   2.0000     -10.340223      -281.3718
   3   2.0000     -10.330919      -281.1186
   4   2.0000     -10.319723      -280.8139
   5   2.0000     -10.316202      -280.7181
   6   2.0000     -10.310847      -280.5724
   7   2.0000     -10.299488      -280.2633
   8   2.0000     -10.296883      -280.1924
   9   2.0000     -10.294785      -280.1353
  10   2.0000     -10.294098      -280.1167
  11   2.0000     -10.290993      -280.0322
  12   2.0000     -10.285056      -279.8706
  13   2.0000     -10.283640      -279.8321
  14   2.0000     -10.278772      -279.6996
  15   2.0000     -10.276637      -279.6415
  16   2.0000      -8.088959      -220.1118
  17   2.0000      -8.078355      -219.8232
  18   2.0000      -6.047651      -164.5650
  19   2.0000      -6.043574      -164.4540
  20   2.0000      -6.039756      -164.3501
  21   2.0000      -6.036815      -164.2701
  22   2.0000      -6.032564      -164.1544
  23   2.0000      -6.029334      -164.0665
  24   2.0000      -1.004180       -27.3251
  25   2.0000      -0.981671       -26.7126
  26   2.0000      -0.913421       -24.8554
  27   2.0000      -0.911511       -24.8035
  28   2.0000      -0.868532       -23.6339
  29   2.0000      -0.849258       -23.1095
  30   2.0000      -0.846499       -23.0344
  31   2.0000      -0.817117       -22.2349
  32   2.0000      -0.781545       -21.2669
  33   2.0000      -0.770775       -20.9739
  34   2.0000      -0.716374       -19.4935
  35   2.0000      -0.701918       -19.1002
  36   2.0000      -0.692763       -18.8510
  37   2.0000      -0.665273       -18.1030
  38   2.0000      -0.635544       -17.2940
  39   2.0000      -0.620603       -16.8875
  40   2.0000      -0.598978       -16.2990
  41   2.0000      -0.575964       -15.6728
  42   2.0000      -0.561309       -15.2740
  43   2.0000      -0.555822       -15.1247
  44   2.0000      -0.526696       -14.3321
  45   2.0000      -0.524890       -14.2830
  46   2.0000      -0.521617       -14.1939
  47   2.0000      -0.516359       -14.0508
  48   2.0000      -0.506181       -13.7739
  49   2.0000      -0.497070       -13.5260
  50   2.0000      -0.492443       -13.4000
  51   2.0000      -0.485114       -13.2006
  52   2.0000      -0.472426       -12.8554
  53   2.0000      -0.463846       -12.6219
  54   2.0000      -0.454959       -12.3801
  55   2.0000      -0.450957       -12.2712
  56   2.0000      -0.444939       -12.1074
  57   2.0000      -0.440978       -11.9996
  58   2.0000      -0.439317       -11.9544
  59   2.0000      -0.423332       -11.5194
  60   2.0000      -0.420349       -11.4383
  61   2.0000      -0.416191       -11.3251
  62   2.0000      -0.401717       -10.9313
  63   2.0000      -0.343675        -9.3519
  64   2.0000      -0.333669        -9.0796
  65   2.0000      -0.326200        -8.8764
  66   2.0000      -0.292781        -7.9670
  67   0.0000       0.022523         0.6129
  68   0.0000       0.068141         1.8542
  69   0.0000       0.105337         2.8664
  70   0.0000       0.115156         3.1335
  71   0.0000       0.128557         3.4982

MULLIKEN ATOMIC CHARGES
-----------------------
   0 S :    0.130444
   1 C :   -0.092966
   2 C :   -0.145722
   3 C :    0.041031
   4 C :   -0.126116
   5 H :    0.010218
   6 C :    0.136254
   7 H :   -0.014326
   8 H :    0.014579
   9 C :   -0.084445
  10 H :    0.011702
  11 H :    0.030049
  12 C :   -0.044208
  13 H :    0.029926
  14 H :    0.028420
  15 H :    0.051964
  16 S :    0.095523
  17 C :   -0.067074
  18 C :   -0.020637
  19 C :   -0.053242
  20 C :   -0.145559
  21 H :    0.023689
  22 C :    0.018404
  23 H :    0.035931
  24 H :    0.009944
  25 C :   -0.069226
  26 H :    0.026614
  27 H :    0.026176
  28 C :   -0.026187
  29 H :    0.046808
  30 H :    0.028597
  31 H :    0.024709
  32 H :    0.040658
  33 H :    0.028065
Sum of atomic charges:    0.0000000

LOEWDIN ATOMIC CHARGES
----------------------
   0 S :    0.408014
   1 C :   -0.203367
   2 C :   -0.063104
   3 C :   -0.057910
   4 C :   -0.195590
   5 H :    0.026024
   6 C :   -0.022799
   7 H :    0.022409
   8 H :    0.022888
   9 C :   -0.038672
  10 H :    0.016824
  11 H :    0.028606
  12 C :   -0.068917
  13 H :    0.027348
  14 H :    0.024849
  15 H :    0.036126
  16 S :    0.415165
  17 C :   -0.164144
  18 C :   -0.064588
  19 C :   -0.057362
  20 C :   -0.211922
  21 H :    0.031606
  22 C :   -0.042511
  23 H :    0.034145
  24 H :    0.024472
  25 C :   -0.045277
  26 H :    0.020078
  27 H :    0.030061
  28 C :   -0.061663
  29 H :    0.030271
  30 H :    0.020953
  31 H :    0.029112
  32 H :    0.035952
  33 H :    0.012923

  Mayer bond orders larger than 0.100000
B(  0-S ,  1-C ) :   1.1263 B(  0-S ,  4-C ) :   1.1668 B(  1-C ,  2-C ) :   1.5863
B(  1-C ,  4-C ) :   0.1144 B(  1-C , 32-H ) :   0.9575 B(  2-C ,  3-C ) :   1.2720
B(  2-C ,  6-C ) :   1.0455 B(  3-C ,  4-C ) :   1.5302 B(  3-C ,  5-H ) :   0.9959
B(  4-C , 20-C ) :   1.0080 B(  6-C ,  7-H ) :   0.9293 B(  6-C ,  8-H ) :   0.9326
B(  6-C ,  9-C ) :   1.0368 B(  9-C , 10-H ) :   0.9533 B(  9-C , 11-H ) :   0.9606
B(  9-C , 12-C ) :   1.0787 B( 12-C , 13-H ) :   0.9727 B( 12-C , 14-H ) :   0.9763
B( 12-C , 15-H ) :   0.9755 B( 16-S , 17-C ) :   1.1530 B( 16-S , 20-C ) :   1.1609
B( 17-C , 18-C ) :   1.6026 B( 17-C , 20-C ) :   0.1012 B( 17-C , 33-H ) :   0.9825
B( 18-C , 19-C ) :   1.2490 B( 18-C , 21-H ) :   0.9858 B( 19-C , 20-C ) :   1.5730
B( 19-C , 22-C ) :   1.0336 B( 22-C , 23-H ) :   0.9373 B( 22-C , 24-H ) :   0.9393
B( 22-C , 25-C ) :   1.0598 B( 25-C , 26-H ) :   0.9571 B( 25-C , 27-H ) :   0.9500
B( 25-C , 28-C ) :   1.0779 B( 28-C , 29-H ) :   0.9744 B( 28-C , 30-H ) :   0.9742
B( 28-C , 31-H ) :   0.9686

Dispersion correction           -0.013886856
FINAL SINGLE POINT ENERGY     -1339.841430678666

DIPOLE MOMENT
-------------
                                X             Y             Z
Electronic contribution:     22.09999      17.25958      14.69691
Nuclear contribution   :    -22.55242     -17.79642     -14.90011
                        -----------------------------------------
Total Dipole Moment    :     -0.45243      -0.53685      -0.20320
                        -----------------------------------------
Magnitude (a.u.)       :      0.73088
Magnitude (Debye)      :      1.85775

Rotational constants in cm-1:     0.017200     0.008802     0.006672
Rotational constants in MHz :   515.648346   263.891421   200.026148

                             ****ORCA TERMINATED NORMALLY****
TOTAL RUN TIME: 0 days 0 hours 0 minutes 33 seconds 687 msec
