                         Program Version 4.2.1 -  RELEASE  -
|  1> ! wB97X-D3 SP def2-SVP
|  2> %pal
|  3> nprocs 16
|  4> end
|  5>
|  6> * xyz 0 1
|  7> S 	 -15.3746 	 48.8237 	 32.856
|  8> C 	 -13.9405 	 49.1321 	 31.8962
|  9> C 	 -13.0577 	 48.0969 	 32.0709
| 10> C 	 -13.6056 	 46.9578 	 32.8039
| 11> C 	 -14.9002 	 47.185 	 33.3135
| 12> H 	 -13.0959 	 46.0359 	 32.9896
| 13> C 	 -11.6897 	 47.9656 	 31.4015
| 14> H 	 -10.9619 	 47.3316 	 31.9491
| 15> H 	 -11.3585 	 49.025 	 31.5829
| 16> C 	 -11.7125 	 47.3707 	 30.0145
| 17> H 	 -12.4474 	 47.8591 	 29.4107
| 18> H 	 -10.8162 	 47.5679 	 29.445
| 19> C 	 -12.1237 	 45.9022 	 29.8581
| 20> H 	 -11.4737 	 45.2957 	 30.4762
| 21> H 	 -13.0699 	 45.6666 	 30.1357
| 22> H 	 -12.2315 	 45.6017 	 28.8117
| 23> S 	 -16.3034 	 46.941 	 35.5655
| 24> C 	 -16.8278 	 45.3476 	 36.1589
| 25> C 	 -16.6406 	 44.419 	 35.2031
| 26> C 	 -16.0367 	 44.9012 	 34.0579
| 27> C 	 -15.7077 	 46.3023 	 34.1407
| 28> H 	 -17.2748 	 43.5929 	 35.3723
| 29> C 	 -15.6554 	 44.0694 	 32.8799
| 30> H 	 -15.0281 	 43.2858 	 33.2777
| 31> H 	 -14.9948 	 44.615 	 32.2312
| 32> C 	 -16.808 	 43.6316 	 31.9916
| 33> H 	 -17.5235 	 44.4596 	 31.8084
| 34> H 	 -17.4732 	 42.9535 	 32.5312
| 35> C 	 -16.3232 	 43.0244 	 30.6893
| 36> H 	 -17.2513 	 42.7305 	 30.2019
| 37> H 	 -15.7851 	 42.1344 	 30.9364
| 38> H 	 -15.6161 	 43.5027 	 29.9976
| 39> H 	 -13.6917 	 50.0918 	 31.4789
| 40> H 	 -17.3694 	 45.2062 	 37.1011
| 41> *
| 42>
| 43>                          ****END OF INPUT****

CARTESIAN COORDINATES (ANGSTROEM)
---------------------------------
  S    -15.374600   48.823700   32.856000
  C    -13.940500   49.132100   31.896200
  C    -13.057700   48.096900   32.070900
  C    -13.605600   46.957800   32.803900
  C    -14.900200   47.185000   33.313500
  H    -13.095900   46.035900   32.989600
  C    -11.689700   47.965600   31.401500
  H    -10.961900   47.331600   31.949100
  H    -11.358500   49.025000   31.582900
  C    -11.712500   47.370700   30.014500
  H    -12.447400   47.859100   29.410700
  H    -10.816200   47.567900   29.445000
  C    -12.123700   45.902200   29.858100
  H    -11.473700   45.295700   30.476200
  H    -13.069900   45.666600   30.135700
  H    -12.231500   45.601700   28.811700
  S    -16.303400   46.941000   35.565500
  C    -16.827800   45.347600   36.158900
  C    -16.640600   44.419000   35.203100
  C    -16.036700   44.901200   34.057900
  C    -15.707700   46.302300   34.140700
  H    -17.274800   43.592900   35.372300
  C    -15.655400   44.069400   32.879900
  H    -15.028100   43.285800   33.277700
  H    -14.994800   44.615000   32.231200
  C    -16.808000   43.631600   31.991600
  H    -17.523500   44.459600   31.808400
  H    -17.473200   42.953500   32.531200
  C    -16.323200   43.024400   30.689300
  H    -17.251300   42.730500   30.201900
  H    -15.785100   42.134400   30.936400
  H    -15.616100   43.502700   29.997600
  H    -13.691700   50.091800   31.478900
  H    -17.369400   45.206200   37.101100

 Total Charge           Charge          ....    0
 Multiplicity           Mult            ....    1
 Number of Electrons    NEL             ....  134
 Basis Dimension        Dim             ....  322

ORBITAL ENERGIES
----------------

  NO   OCC          E(Eh)            E(eV)
   0   2.0000     -88.965453     -2420.8730
   1   2.0000     -88.963775     -2420.8274
   2   2.0000     -10.336172      -281.2615
   3   2.0000     -10.326646      -281.0023
   4   2.0000     -10.316233      -280.7190
   5   2.0000     -10.315810      -280.7075
   6   2.0000     -10.304221      -280.3921
   7   2.0000     -10.302159      -280.3360
   8   2.0000     -10.297473      -280.2085
   9   2.0000     -10.296633      -280.1856
  10   2.0000     -10.285594      -279.8853
  11   2.0000     -10.285359      -279.8789
  12   2.0000     -10.281787      -279.7816
  13   2.0000     -10.280804      -279.7549
  14   2.0000     -10.274605      -279.5862
  15   2.0000     -10.270542      -279.4757
  16   2.0000      -8.079856      -219.8641
  17   2.0000      -8.079815      -219.8629
  18   2.0000      -6.038522      -164.3165
  19   2.0000      -6.038030      -164.3031
  20   2.0000      -6.034272      -164.2009
  21   2.0000      -6.034016      -164.1939
  22   2.0000      -6.030920      -164.1097
  23   2.0000      -6.030580      -164.1004
  24   2.0000      -1.012392       -27.5486
  25   2.0000      -0.985526       -26.8175
  26   2.0000      -0.914788       -24.8926
  27   2.0000      -0.911876       -24.8134
  28   2.0000      -0.880165       -23.9505
  29   2.0000      -0.852763       -23.2049
  30   2.0000      -0.843813       -22.9613
  31   2.0000      -0.821904       -22.3652
  32   2.0000      -0.785547       -21.3758
  33   2.0000      -0.769840       -20.9484
  34   2.0000      -0.710475       -19.3330
  35   2.0000      -0.706093       -19.2138
  36   2.0000      -0.700906       -19.0726
  37   2.0000      -0.660119       -17.9627
  38   2.0000      -0.641193       -17.4478
  39   2.0000      -0.618230       -16.8229
  40   2.0000      -0.598227       -16.2786
  41   2.0000      -0.581280       -15.8174
  42   2.0000      -0.562371       -15.3029
  43   2.0000      -0.552817       -15.0429
  44   2.0000      -0.542894       -14.7729
  45   2.0000      -0.534325       -14.5397
  46   2.0000      -0.517847       -14.0913
  47   2.0000      -0.515393       -14.0246
  48   2.0000      -0.506262       -13.7761
  49   2.0000      -0.502984       -13.6869
  50   2.0000      -0.496614       -13.5135
  51   2.0000      -0.478977       -13.0336
  52   2.0000      -0.476271       -12.9600
  53   2.0000      -0.470409       -12.8005
  54   2.0000      -0.461785       -12.5658
  55   2.0000      -0.450036       -12.2461
  56   2.0000      -0.441925       -12.0254
  57   2.0000      -0.439613       -11.9625
  58   2.0000      -0.431575       -11.7437
  59   2.0000      -0.422017       -11.4837
  60   2.0000      -0.409855       -11.1527
  61   2.0000      -0.408859       -11.1256
  62   2.0000      -0.402034       -10.9399
  63   2.0000      -0.357620        -9.7313
  64   2.0000      -0.329326        -8.9614
  65   2.0000      -0.325846        -8.8667
  66   2.0000      -0.289952        -7.8900
  67   0.0000       0.026584         0.7234
  68   0.0000       0.071070         1.9339
  69   0.0000       0.110314         3.0018
  70   0.0000       0.118048         3.2122
  71   0.0000       0.133472         3.6320

MULLIKEN ATOMIC CHARGES
-----------------------
   0 S :    0.099861
   1 C :   -0.112394
   2 C :   -0.106244
   3 C :    0.039915
   4 C :   -0.139112
   5 H :    0.009430
   6 C :    0.036986
   7 H :    0.027257
   8 H :    0.037700
   9 C :   -0.028033
  10 H :    0.006872
  11 H :    0.029095
  12 C :   -0.012971
  13 H :    0.019581
  14 H :    0.000546
  15 H :    0.029307
  16 S :    0.105617
  17 C :   -0.127662
  18 C :   -0.008444
  19 C :   -0.046961
  20 C :   -0.149118
  21 H :    0.019079
  22 C :    0.098835
  23 H :    0.025880
  24 H :    0.000474
  25 C :   -0.081898
  26 H :    0.032256
  27 H :    0.018355
  28 C :   -0.028014
  29 H :    0.032942
  30 H :    0.013406
  31 H :    0.041155
  32 H :    0.051652
  33 H :    0.064649
Sum of atomic charges:   -0.0000000

LOEWDIN ATOMIC CHARGES
----------------------
   0 S :    0.396031
   1 C :   -0.197522
   2 C :   -0.061574
   3 C :   -0.061922
   4 C :   -0.188860
   5 H :    0.026098
   6 C :   -0.039865
   7 H :    0.030903
   8 H :    0.040160
   9 C :   -0.041696
  10 H :    0.020867
  11 H :    0.025433
  12 C :   -0.057363
  13 H :    0.020479
  14 H :    0.010101
  15 H :    0.035512
  16 S :    0.434836
  17 C :   -0.175505
  18 C :   -0.078081
  19 C :   -0.054816
  20 C :   -0.224802
  21 H :    0.035080
  22 C :   -0.036219
  23 H :    0.030527
  24 H :    0.025598
  25 C :   -0.039554
  26 H :    0.028561
  27 H :    0.022020
  28 C :   -0.068222
  29 H :    0.030489
  30 H :    0.021572
  31 H :    0.028625
  32 H :    0.030079
  33 H :    0.033029

  Mayer bond orders larger than 0.100000
B(  0-S ,  1-C ) :   1.1285 B(  0-S ,  4-C ) :   1.1524 B(  1-C ,  2-C ) :   1.6191
B(  1-C , 32-H ) :   0.9698 B(  2-C ,  3-C ) :   1.2347 B(  2-C ,  6-C ) :   1.0135
B(  3-C ,  4-C ) :   1.5552 B(  3-C ,  5-H ) :   0.9949 B(  4-C , 20-C ) :   1.0381
B(  6-C ,  7-H ) :   0.9480 B(  6-C ,  8-H ) :   0.9410 B(  6-C ,  9-C ) :   1.0613
B(  9-C , 10-H ) :   0.9493 B(  9-C , 11-H ) :   0.9560 B(  9-C , 12-C ) :   1.0858
B( 12-C , 13-H ) :   0.9737 B( 12-C , 14-H ) :   0.9685 B( 12-C , 15-H ) :   0.9649
B( 16-S , 17-C ) :   1.1675 B( 16-S , 20-C ) :   1.1843 B( 17-C , 18-C ) :   1.5855
B( 17-C , 20-C ) :   0.1087 B( 17-C , 33-H ) :   0.9651 B( 18-C , 19-C ) :   1.2850
B( 18-C , 21-H ) :   0.9886 B( 19-C , 20-C ) :   1.5165 B( 19-C , 22-C ) :   1.0526
B( 22-C , 23-H ) :   0.9261 B( 22-C , 24-H ) :   0.9310 B( 22-C , 25-C ) :   1.0584
B( 25-C , 26-H ) :   0.9546 B( 25-C , 27-H ) :   0.9509 B( 25-C , 28-C ) :   1.0836
B( 28-C , 29-H ) :   0.9720 B( 28-C , 30-H ) :   0.9689 B( 28-C , 31-H ) :   0.9764

Dispersion correction           -0.014696325
FINAL SINGLE POINT ENERGY     -1339.851913451083

DIPOLE MOMENT
-------------
                                X             Y             Z
Electronic contribution:    -10.40312      17.61314      21.68647
Nuclear contribution   :     10.56427     -18.08035     -21.95052
                        -----------------------------------------
Total Dipole Moment    :      0.16115      -0.46721      -0.26406
                        -----------------------------------------
Magnitude (a.u.)       :      0.56034
Magnitude (Debye)      :      1.42427

Rotational constants in cm-1:     0.017104     0.009997     0.007107
Rotational constants in MHz :   512.752425   299.699978   213.066344

                             ****ORCA TERMINATED NORMALLY****
TOTAL RUN TIME: 0 days 0 hours 0 minutes 34 seconds 375 msec
