                         Program Version 4.2.1 -  RELEASE  -
|  1> ! wB97X-D3 SP def2-SVP
|  2> %pal
|  3> nprocs 16
|  4> end
|  5>
|  6> * xyz 0 1
|  7> S 	 2.02757 	 26.7589 	 67.683
|  8> C 	 2.51575 	 25.0629 	 67.7981
|  9> C 	 3.58647 	 24.7396 	 66.9377
| 10> C 	 4.13953 	 25.9664 	 66.4133
| 11> C 	 3.47878 	 27.1486 	 66.8209
| 12> H 	 4.96842 	 26.1112 	 65.7427
| 13> C 	 3.99583 	 23.3987 	 66.5926
| 14> H 	 3.44549 	 23.359 	 65.6489
| 15> H 	 3.6522 	 22.6394 	 67.2199
| 16> C 	 5.50293 	 23.2396 	 66.3823
| 17> H 	 5.64536 	 22.252 	 65.9552
| 18> H 	 5.82599 	 23.9571 	 65.5764
| 19> C 	 6.29373 	 23.5306 	 67.6856
| 20> H 	 6.14014 	 24.5701 	 68.0319
| 21> H 	 5.93635 	 22.8934 	 68.514
| 22> H 	 7.31381 	 23.3111 	 67.5566
| 23> S 	 2.41487 	 29.4956 	 65.8209
| 24> C 	 3.49277 	 30.6701 	 65.1858
| 25> C 	 4.76368 	 30.2519 	 65.1774
| 26> C 	 4.99919 	 28.9594 	 65.8034
| 27> C 	 3.80065 	 28.4201 	 66.2578
| 28> H 	 5.49306 	 30.8507 	 64.6435
| 29> C 	 6.39099 	 28.4775 	 65.9878
| 30> H 	 6.33311 	 27.9033 	 66.8943
| 31> H 	 7.12311 	 29.3604 	 66.2785
| 32> C 	 7.10998 	 27.5446 	 65.0179
| 33> H 	 7.52002 	 28.2184 	 64.3593
| 34> H 	 6.48658 	 26.9633 	 64.4509
| 35> C 	 8.21239 	 26.8455 	 65.7465
| 36> H 	 8.8554 	 27.4351 	 66.4215
| 37> H 	 8.97984 	 26.3937 	 65.0948
| 38> H 	 7.63463 	 26.0369 	 66.2841
| 39> H 	 1.93538 	 24.2719 	 68.3072
| 40> H 	 3.28652 	 31.5247 	 64.5233
| 41> *
| 42>
| 43>                          ****END OF INPUT****

CARTESIAN COORDINATES (ANGSTROEM)
---------------------------------
  S      2.027570   26.758900   67.683000
  C      2.515750   25.062900   67.798100
  C      3.586470   24.739600   66.937700
  C      4.139530   25.966400   66.413300
  C      3.478780   27.148600   66.820900
  H      4.968420   26.111200   65.742700
  C      3.995830   23.398700   66.592600
  H      3.445490   23.359000   65.648900
  H      3.652200   22.639400   67.219900
  C      5.502930   23.239600   66.382300
  H      5.645360   22.252000   65.955200
  H      5.825990   23.957100   65.576400
  C      6.293730   23.530600   67.685600
  H      6.140140   24.570100   68.031900
  H      5.936350   22.893400   68.514000
  H      7.313810   23.311100   67.556600
  S      2.414870   29.495600   65.820900
  C      3.492770   30.670100   65.185800
  C      4.763680   30.251900   65.177400
  C      4.999190   28.959400   65.803400
  C      3.800650   28.420100   66.257800
  H      5.493060   30.850700   64.643500
  C      6.390990   28.477500   65.987800
  H      6.333110   27.903300   66.894300
  H      7.123110   29.360400   66.278500
  C      7.109980   27.544600   65.017900
  H      7.520020   28.218400   64.359300
  H      6.486580   26.963300   64.450900
  C      8.212390   26.845500   65.746500
  H      8.855400   27.435100   66.421500
  H      8.979840   26.393700   65.094800
  H      7.634630   26.036900   66.284100
  H      1.935380   24.271900   68.307200
  H      3.286520   31.524700   64.523300

 Total Charge           Charge          ....    0
 Multiplicity           Mult            ....    1
 Number of Electrons    NEL             ....  134
 Basis Dimension        Dim             ....  322

ORBITAL ENERGIES
----------------

  NO   OCC          E(Eh)            E(eV)
   0   2.0000     -88.969298     -2420.9777
   1   2.0000     -88.963331     -2420.8153
   2   2.0000     -10.331065      -281.1226
   3   2.0000     -10.329259      -281.0734
   4   2.0000     -10.315953      -280.7114
   5   2.0000     -10.308176      -280.4997
   6   2.0000     -10.305857      -280.4366
   7   2.0000     -10.303654      -280.3767
   8   2.0000     -10.296973      -280.1949
   9   2.0000     -10.294165      -280.1185
  10   2.0000     -10.293964      -280.1130
  11   2.0000     -10.287082      -279.9257
  12   2.0000     -10.286149      -279.9003
  13   2.0000     -10.285632      -279.8863
  14   2.0000     -10.279241      -279.7124
  15   2.0000     -10.274764      -279.5906
  16   2.0000      -8.083576      -219.9653
  17   2.0000      -8.078051      -219.8149
  18   2.0000      -6.042126      -164.4146
  19   2.0000      -6.038305      -164.3106
  20   2.0000      -6.036749      -164.2683
  21   2.0000      -6.034181      -164.1984
  22   2.0000      -6.032733      -164.1590
  23   2.0000      -6.028435      -164.0420
  24   2.0000      -1.006287       -27.3825
  25   2.0000      -0.982580       -26.7374
  26   2.0000      -0.924941       -25.1689
  27   2.0000      -0.921718       -25.0812
  28   2.0000      -0.872385       -23.7388
  29   2.0000      -0.856672       -23.3112
  30   2.0000      -0.843274       -22.9467
  31   2.0000      -0.814922       -22.1752
  32   2.0000      -0.786109       -21.3911
  33   2.0000      -0.771264       -20.9872
  34   2.0000      -0.718603       -19.5542
  35   2.0000      -0.707805       -19.2603
  36   2.0000      -0.694219       -18.8907
  37   2.0000      -0.657373       -17.8880
  38   2.0000      -0.636841       -17.3293
  39   2.0000      -0.623656       -16.9705
  40   2.0000      -0.599241       -16.3062
  41   2.0000      -0.579277       -15.7629
  42   2.0000      -0.567494       -15.4423
  43   2.0000      -0.564252       -15.3541
  44   2.0000      -0.536748       -14.6057
  45   2.0000      -0.523884       -14.2556
  46   2.0000      -0.515419       -14.0253
  47   2.0000      -0.513403       -13.9704
  48   2.0000      -0.504788       -13.7360
  49   2.0000      -0.498700       -13.5703
  50   2.0000      -0.494529       -13.4568
  51   2.0000      -0.484076       -13.1724
  52   2.0000      -0.469848       -12.7852
  53   2.0000      -0.466009       -12.6807
  54   2.0000      -0.457018       -12.4361
  55   2.0000      -0.455369       -12.3912
  56   2.0000      -0.447169       -12.1681
  57   2.0000      -0.440798       -11.9947
  58   2.0000      -0.433641       -11.8000
  59   2.0000      -0.427643       -11.6368
  60   2.0000      -0.426388       -11.6026
  61   2.0000      -0.416190       -11.3251
  62   2.0000      -0.407980       -11.1017
  63   2.0000      -0.357779        -9.7357
  64   2.0000      -0.328872        -8.9491
  65   2.0000      -0.325210        -8.8494
  66   2.0000      -0.280204        -7.6247
  67   0.0000       0.019609         0.5336
  68   0.0000       0.078063         2.1242
  69   0.0000       0.102834         2.7983
  70   0.0000       0.119980         3.2648
  71   0.0000       0.122419         3.3312

MULLIKEN ATOMIC CHARGES
-----------------------
   0 S :    0.111962
   1 C :   -0.131190
   2 C :   -0.094660
   3 C :    0.005544
   4 C :   -0.120324
   5 H :   -0.035644
   6 C :    0.101250
   7 H :    0.052092
   8 H :    0.008441
   9 C :   -0.092578
  10 H :    0.028943
  11 H :    0.030915
  12 C :   -0.042000
  13 H :    0.056097
  14 H :    0.027950
  15 H :    0.033137
  16 S :    0.088333
  17 C :   -0.067476
  18 C :   -0.053786
  19 C :   -0.024272
  20 C :   -0.127211
  21 H :    0.014809
  22 C :   -0.039717
  23 H :    0.014619
  24 H :    0.049180
  25 C :    0.043250
  26 H :   -0.003484
  27 H :    0.017692
  28 C :   -0.077394
  29 H :    0.039802
  30 H :    0.033570
  31 H :    0.037443
  32 H :    0.053158
  33 H :    0.061550
Sum of atomic charges:   -0.0000000

LOEWDIN ATOMIC CHARGES
----------------------
   0 S :    0.406251
   1 C :   -0.207991
   2 C :   -0.051944
   3 C :   -0.063634
   4 C :   -0.199732
   5 H :    0.022503
   6 C :   -0.032991
   7 H :    0.050566
   8 H :    0.023608
   9 C :   -0.038781
  10 H :    0.023661
  11 H :    0.024945
  12 C :   -0.064164
  13 H :    0.032228
  14 H :    0.028398
  15 H :    0.019803
  16 S :    0.382497
  17 C :   -0.204040
  18 C :   -0.072849
  19 C :   -0.061053
  20 C :   -0.167703
  21 H :    0.030006
  22 C :   -0.041422
  23 H :    0.024861
  24 H :    0.046053
  25 C :   -0.034275
  26 H :    0.014964
  27 H :    0.012384
  28 C :   -0.065544
  29 H :    0.030184
  30 H :    0.027296
  31 H :    0.033594
  32 H :    0.031056
  33 H :    0.041262

  Mayer bond orders larger than 0.100000
B(  0-S ,  1-C ) :   1.1278 B(  0-S ,  4-C ) :   1.1513 B(  1-C ,  2-C ) :   1.5878
B(  1-C , 32-H ) :   0.9637 B(  2-C ,  3-C ) :   1.2356 B(  2-C ,  6-C ) :   1.0242
B(  3-C ,  4-C ) :   1.5307 B(  3-C ,  5-H ) :   0.9926 B(  4-C , 20-C ) :   1.1090
B(  6-C ,  7-H ) :   0.9202 B(  6-C ,  8-H ) :   0.9374 B(  6-C ,  9-C ) :   1.0833
B(  9-C , 10-H ) :   0.9549 B(  9-C , 11-H ) :   0.9488 B(  9-C , 12-C ) :   1.0715
B( 12-C , 13-H ) :   0.9667 B( 12-C , 14-H ) :   0.9722 B( 12-C , 15-H ) :   0.9744
B( 16-S , 17-C ) :   1.1269 B( 16-S , 20-C ) :   1.1081 B( 17-C , 18-C ) :   1.6793
B( 17-C , 33-H ) :   0.9528 B( 18-C , 19-C ) :   1.2062 B( 18-C , 21-H ) :   0.9858
B( 19-C , 20-C ) :   1.6073 B( 19-C , 22-C ) :   1.0415 B( 22-C , 23-H ) :   0.9398
B( 22-C , 24-H ) :   0.9369 B( 22-C , 25-C ) :   1.0445 B( 25-C , 26-H ) :   0.9351
B( 25-C , 27-H ) :   0.9489 B( 25-C , 28-C ) :   1.0807 B( 28-C , 29-H ) :   0.9726
B( 28-C , 30-H ) :   0.9711 B( 28-C , 31-H ) :   0.9705

Dispersion correction           -0.015764504
FINAL SINGLE POINT ENERGY     -1339.852248740026

DIPOLE MOMENT
-------------
                                X             Y             Z
Electronic contribution:    -27.31285      17.01048       2.84747
Nuclear contribution   :     27.94914     -17.52304      -3.30776
                        -----------------------------------------
Total Dipole Moment    :      0.63629      -0.51257      -0.46030
                        -----------------------------------------
Magnitude (a.u.)       :      0.93779
Magnitude (Debye)      :      2.38368

Rotational constants in cm-1:     0.017601     0.011089     0.007204
Rotational constants in MHz :   527.670832   332.450045   215.981542

                             ****ORCA TERMINATED NORMALLY****
TOTAL RUN TIME: 0 days 0 hours 0 minutes 37 seconds 771 msec
