                         Program Version 4.2.1 -  RELEASE  -
|  1> ! wB97X-D3 SP def2-SVP
|  2> %pal
|  3> nprocs 16
|  4> end
|  5>
|  6> * xyz 0 1
|  7> S 	 67.7109 	 16.0513 	 74.8548
|  8> C 	 67.0302 	 17.1599 	 73.7191
|  9> C 	 66.4317 	 18.2131 	 74.2788
| 10> C 	 66.7174 	 18.3461 	 75.6777
| 11> C 	 67.4201 	 17.2236 	 76.1331
| 12> H 	 66.5175 	 19.1382 	 76.4364
| 13> C 	 65.5498 	 19.2163 	 73.5726
| 14> H 	 65.1084 	 18.855 	 72.6747
| 15> H 	 66.3409 	 19.9258 	 73.3011
| 16> C 	 64.506 	 19.9249 	 74.4195
| 17> H 	 64.898 	 20.4814 	 75.2499
| 18> H 	 63.9798 	 20.6775 	 73.7709
| 19> C 	 63.4002 	 19.0147 	 74.8327
| 20> H 	 63.5813 	 18.3089 	 75.6951
| 21> H 	 62.5683 	 19.5738 	 75.1638
| 22> H 	 63.0743 	 18.3553 	 73.9844
| 23> S 	 69.9203 	 17.2588 	 77.3237
| 24> C 	 70.0165 	 17.206 	 79.1096
| 25> C 	 68.7594 	 17.1877 	 79.6633
| 26> C 	 67.701 	 17.1222 	 78.6854
| 27> C 	 68.1774 	 17.1732 	 77.4001
| 28> H 	 68.7672 	 17.2058 	 80.7383
| 29> C 	 66.3013 	 16.8915 	 79.1686
| 30> H 	 65.7108 	 17.1335 	 78.2704
| 31> H 	 66.0839 	 17.7289 	 79.8719
| 32> C 	 65.9199 	 15.4394 	 79.615
| 33> H 	 64.8458 	 15.5429 	 79.827
| 34> H 	 66.4102 	 15.2701 	 80.5189
| 35> C 	 66.1464 	 14.3916 	 78.571
| 36> H 	 67.2182 	 14.3555 	 78.2232
| 37> H 	 65.4777 	 14.5377 	 77.7344
| 38> H 	 65.9742 	 13.3887 	 79.0229
| 39> H 	 66.8853 	 17.0272 	 72.7078
| 40> H 	 70.9276 	 17.3912 	 79.666
| 41> *
| 42>
| 43>                          ****END OF INPUT****

CARTESIAN COORDINATES (ANGSTROEM)
---------------------------------
  S     67.710900   16.051300   74.854800
  C     67.030200   17.159900   73.719100
  C     66.431700   18.213100   74.278800
  C     66.717400   18.346100   75.677700
  C     67.420100   17.223600   76.133100
  H     66.517500   19.138200   76.436400
  C     65.549800   19.216300   73.572600
  H     65.108400   18.855000   72.674700
  H     66.340900   19.925800   73.301100
  C     64.506000   19.924900   74.419500
  H     64.898000   20.481400   75.249900
  H     63.979800   20.677500   73.770900
  C     63.400200   19.014700   74.832700
  H     63.581300   18.308900   75.695100
  H     62.568300   19.573800   75.163800
  H     63.074300   18.355300   73.984400
  S     69.920300   17.258800   77.323700
  C     70.016500   17.206000   79.109600
  C     68.759400   17.187700   79.663300
  C     67.701000   17.122200   78.685400
  C     68.177400   17.173200   77.400100
  H     68.767200   17.205800   80.738300
  C     66.301300   16.891500   79.168600
  H     65.710800   17.133500   78.270400
  H     66.083900   17.728900   79.871900
  C     65.919900   15.439400   79.615000
  H     64.845800   15.542900   79.827000
  H     66.410200   15.270100   80.518900
  C     66.146400   14.391600   78.571000
  H     67.218200   14.355500   78.223200
  H     65.477700   14.537700   77.734400
  H     65.974200   13.388700   79.022900
  H     66.885300   17.027200   72.707800
  H     70.927600   17.391200   79.666000

 Total Charge           Charge          ....    0
 Multiplicity           Mult            ....    1
 Number of Electrons    NEL             ....  134
 Basis Dimension        Dim             ....  322

ORBITAL ENERGIES
----------------

  NO   OCC          E(Eh)            E(eV)
   0   2.0000     -88.965828     -2420.8833
   1   2.0000     -88.960931     -2420.7500
   2   2.0000     -10.328072      -281.0411
   3   2.0000     -10.323451      -280.9154
   4   2.0000     -10.315477      -280.6984
   5   2.0000     -10.298584      -280.2387
   6   2.0000     -10.298512      -280.2368
   7   2.0000     -10.297837      -280.2184
   8   2.0000     -10.295661      -280.1592
   9   2.0000     -10.290162      -280.0095
  10   2.0000     -10.288767      -279.9716
  11   2.0000     -10.288652      -279.9684
  12   2.0000     -10.288102      -279.9535
  13   2.0000     -10.281557      -279.7754
  14   2.0000     -10.275942      -279.6226
  15   2.0000     -10.275899      -279.6214
  16   2.0000      -8.080733      -219.8879
  17   2.0000      -8.075329      -219.7409
  18   2.0000      -6.039286      -164.3373
  19   2.0000      -6.035329      -164.2296
  20   2.0000      -6.033931      -164.1916
  21   2.0000      -6.031327      -164.1207
  22   2.0000      -6.029963      -164.0836
  23   2.0000      -6.025930      -163.9739
  24   2.0000      -1.006081       -27.3768
  25   2.0000      -0.983378       -26.7591
  26   2.0000      -0.918297       -24.9881
  27   2.0000      -0.905602       -24.6427
  28   2.0000      -0.870814       -23.6960
  29   2.0000      -0.849545       -23.1173
  30   2.0000      -0.845034       -22.9945
  31   2.0000      -0.816790       -22.2260
  32   2.0000      -0.783462       -21.3191
  33   2.0000      -0.770667       -20.9709
  34   2.0000      -0.709015       -19.2933
  35   2.0000      -0.696128       -18.9426
  36   2.0000      -0.691567       -18.8185
  37   2.0000      -0.655721       -17.8431
  38   2.0000      -0.640596       -17.4315
  39   2.0000      -0.619717       -16.8634
  40   2.0000      -0.590472       -16.0676
  41   2.0000      -0.570862       -15.5339
  42   2.0000      -0.558955       -15.2099
  43   2.0000      -0.548958       -14.9379
  44   2.0000      -0.542484       -14.7617
  45   2.0000      -0.536088       -14.5877
  46   2.0000      -0.521933       -14.2025
  47   2.0000      -0.508952       -13.8493
  48   2.0000      -0.499862       -13.6019
  49   2.0000      -0.491146       -13.3648
  50   2.0000      -0.488602       -13.2955
  51   2.0000      -0.480242       -13.0680
  52   2.0000      -0.471279       -12.8241
  53   2.0000      -0.458044       -12.4640
  54   2.0000      -0.456699       -12.4274
  55   2.0000      -0.446849       -12.1594
  56   2.0000      -0.443046       -12.0559
  57   2.0000      -0.435796       -11.8586
  58   2.0000      -0.431559       -11.7433
  59   2.0000      -0.430591       -11.7170
  60   2.0000      -0.417366       -11.3571
  61   2.0000      -0.412376       -11.2213
  62   2.0000      -0.410102       -11.1594
  63   2.0000      -0.342759        -9.3270
  64   2.0000      -0.326314        -8.8794
  65   2.0000      -0.322505        -8.7758
  66   2.0000      -0.299406        -8.1473
  67   0.0000       0.039245         1.0679
  68   0.0000       0.066071         1.7979
  69   0.0000       0.112997         3.0748
  70   0.0000       0.120892         3.2897
  71   0.0000       0.132548         3.6068

MULLIKEN ATOMIC CHARGES
-----------------------
   0 S :    0.121255
   1 C :   -0.086207
   2 C :   -0.090434
   3 C :    0.027609
   4 C :   -0.194805
   5 H :    0.037097
   6 C :    0.086598
   7 H :    0.015269
   8 H :    0.043844
   9 C :   -0.067869
  10 H :    0.027715
  11 H :    0.033450
  12 C :   -0.059903
  13 H :    0.039504
  14 H :    0.022082
  15 H :    0.030291
  16 S :    0.101404
  17 C :   -0.108307
  18 C :   -0.026242
  19 C :   -0.062214
  20 C :   -0.151028
  21 H :    0.015442
  22 C :    0.045479
  23 H :    0.009588
  24 H :    0.036513
  25 C :   -0.016708
  26 H :    0.032120
  27 H :    0.013979
  28 C :   -0.060597
  29 H :    0.050556
  30 H :    0.036853
  31 H :    0.036193
  32 H :    0.002724
  33 H :    0.058747
Sum of atomic charges:   -0.0000000

LOEWDIN ATOMIC CHARGES
----------------------
   0 S :    0.408518
   1 C :   -0.196786
   2 C :   -0.061720
   3 C :   -0.058719
   4 C :   -0.191997
   5 H :    0.042544
   6 C :   -0.030487
   7 H :    0.023934
   8 H :    0.043053
   9 C :   -0.044729
  10 H :    0.021272
  11 H :    0.035523
  12 C :   -0.071117
  13 H :    0.028663
  14 H :    0.018671
  15 H :    0.030011
  16 S :    0.384712
  17 C :   -0.173102
  18 C :   -0.069627
  19 C :   -0.065890
  20 C :   -0.203004
  21 H :    0.030996
  22 C :   -0.041186
  23 H :    0.025983
  24 H :    0.035890
  25 C :   -0.031483
  26 H :    0.030387
  27 H :    0.012680
  28 C :   -0.066432
  29 H :    0.033943
  30 H :    0.025765
  31 H :    0.031595
  32 H :    0.013251
  33 H :    0.028888

  Mayer bond orders larger than 0.100000
B(  0-S ,  1-C ) :   1.1190 B(  0-S ,  4-C ) :   1.1545 B(  1-C ,  2-C ) :   1.6730
B(  1-C , 32-H ) :   0.9681 B(  2-C ,  3-C ) :   1.1980 B(  2-C ,  6-C ) :   0.9937
B(  3-C ,  4-C ) :   1.6022 B(  3-C ,  5-H ) :   0.9815 B(  4-C , 20-C ) :   1.0033
B(  6-C ,  7-H ) :   0.9459 B(  6-C ,  8-H ) :   0.9270 B(  6-C ,  9-C ) :   1.1021
B(  9-C , 10-H ) :   0.9434 B(  9-C , 11-H ) :   0.9507 B(  9-C , 12-C ) :   1.0823
B( 12-C , 13-H ) :   0.9706 B( 12-C , 14-H ) :   0.9736 B( 12-C , 15-H ) :   0.9721
B( 16-S , 17-C ) :   1.1321 B( 16-S , 20-C ) :   1.1372 B( 17-C , 18-C ) :   1.6546
B( 17-C , 33-H ) :   0.9645 B( 18-C , 19-C ) :   1.1901 B( 18-C , 21-H ) :   0.9943
B( 19-C , 20-C ) :   1.6298 B( 19-C , 22-C ) :   1.0465 B( 22-C , 23-H ) :   0.9234
B( 22-C , 24-H ) :   0.9343 B( 22-C , 25-C ) :   1.0578 B( 25-C , 26-H ) :   0.9523
B( 25-C , 27-H ) :   0.9574 B( 25-C , 28-C ) :   1.0820 B( 28-C , 29-H ) :   0.9717
B( 28-C , 30-H ) :   0.9743 B( 28-C , 31-H ) :   0.9705

Dispersion correction           -0.015463086
FINAL SINGLE POINT ENERGY     -1339.874161427292

DIPOLE MOMENT
-------------
                                X             Y             Z
Electronic contribution:     23.08474      -3.60666      -3.61653
Nuclear contribution   :    -23.59047       3.99601       3.78711
                        -----------------------------------------
Total Dipole Moment    :     -0.50572       0.38935       0.17059
                        -----------------------------------------
Magnitude (a.u.)       :      0.66064
Magnitude (Debye)      :      1.67922

Rotational constants in cm-1:     0.019392     0.009145     0.007958
Rotational constants in MHz :   581.371863   274.148723   238.560873

                             ****ORCA TERMINATED NORMALLY****
TOTAL RUN TIME: 0 days 0 hours 0 minutes 31 seconds 766 msec
