                         Program Version 4.2.1 -  RELEASE  -
|  1> ! wB97X-D3 SP def2-SVP
|  2> %pal
|  3> nprocs 16
|  4> end
|  5>
|  6> * xyz 0 1
|  7> S 	 -74.794 	 42.715 	 119.449
|  8> C 	 -75.1816 	 41.0958 	 118.825
|  9> C 	 -74.9348 	 40.1215 	 119.781
| 10> C 	 -74.2221 	 40.6586 	 120.881
| 11> C 	 -74.0133 	 42.0478 	 120.8
| 12> H 	 -73.8569 	 40.2022 	 121.831
| 13> C 	 -75.2789 	 38.6743 	 119.782
| 14> H 	 -76.1657 	 38.5 	 119.054
| 15> H 	 -75.783 	 38.3442 	 120.725
| 16> C 	 -74.1512 	 37.8144 	 119.396
| 17> H 	 -74.5326 	 36.8216 	 119.192
| 18> H 	 -73.6479 	 38.1432 	 118.444
| 19> C 	 -73.1321 	 37.557 	 120.464
| 20> H 	 -72.5126 	 38.4338 	 120.536
| 21> H 	 -73.5608 	 37.1905 	 121.391
| 22> H 	 -72.3726 	 36.8708 	 120.119
| 23> S 	 -74.3282 	 43.9345 	 122.73
| 24> C 	 -73.046 	 44.4069 	 123.768
| 25> C 	 -71.8776 	 43.7928 	 123.397
| 26> C 	 -72.018 	 42.9177 	 122.256
| 27> C 	 -73.3221 	 42.8904 	 121.781
| 28> H 	 -71.0193 	 43.8847 	 124.05
| 29> C 	 -70.9103 	 42.0796 	 121.669
| 30> H 	 -71.2744 	 41.0306 	 121.633
| 31> H 	 -70.0209 	 42.1038 	 122.386
| 32> C 	 -70.4792 	 42.4165 	 120.25
| 33> H 	 -71.2031 	 41.9317 	 119.563
| 34> H 	 -69.5048 	 41.8993 	 120.105
| 35> C 	 -70.43 	 43.8274 	 119.78
| 36> H 	 -69.6894 	 44.4707 	 120.357
| 37> H 	 -71.4658 	 44.2784 	 119.77
| 38> H 	 -70.1192 	 43.8197 	 118.679
| 39> H 	 -75.701 	 41.0324 	 117.87
| 40> H 	 -73.1898 	 45.0225 	 124.619
| 41> *
| 42>
| 43>                          ****END OF INPUT****

CARTESIAN COORDINATES (ANGSTROEM)
---------------------------------
  S    -74.794000   42.715000  119.449000
  C    -75.181600   41.095800  118.825000
  C    -74.934800   40.121500  119.781000
  C    -74.222100   40.658600  120.881000
  C    -74.013300   42.047800  120.800000
  H    -73.856900   40.202200  121.831000
  C    -75.278900   38.674300  119.782000
  H    -76.165700   38.500000  119.054000
  H    -75.783000   38.344200  120.725000
  C    -74.151200   37.814400  119.396000
  H    -74.532600   36.821600  119.192000
  H    -73.647900   38.143200  118.444000
  C    -73.132100   37.557000  120.464000
  H    -72.512600   38.433800  120.536000
  H    -73.560800   37.190500  121.391000
  H    -72.372600   36.870800  120.119000
  S    -74.328200   43.934500  122.730000
  C    -73.046000   44.406900  123.768000
  C    -71.877600   43.792800  123.397000
  C    -72.018000   42.917700  122.256000
  C    -73.322100   42.890400  121.781000
  H    -71.019300   43.884700  124.050000
  C    -70.910300   42.079600  121.669000
  H    -71.274400   41.030600  121.633000
  H    -70.020900   42.103800  122.386000
  C    -70.479200   42.416500  120.250000
  H    -71.203100   41.931700  119.563000
  H    -69.504800   41.899300  120.105000
  C    -70.430000   43.827400  119.780000
  H    -69.689400   44.470700  120.357000
  H    -71.465800   44.278400  119.770000
  H    -70.119200   43.819700  118.679000
  H    -75.701000   41.032400  117.870000
  H    -73.189800   45.022500  124.619000

 Total Charge           Charge          ....    0
 Multiplicity           Mult            ....    1
 Number of Electrons    NEL             ....  134
 Basis Dimension        Dim             ....  322

ORBITAL ENERGIES
----------------

  NO   OCC          E(Eh)            E(eV)
   0   2.0000     -88.967589     -2420.9312
   1   2.0000     -88.961027     -2420.7526
   2   2.0000     -10.327342      -281.0213
   3   2.0000     -10.322503      -280.8896
   4   2.0000     -10.319256      -280.8012
   5   2.0000     -10.311498      -280.5901
   6   2.0000     -10.304879      -280.4100
   7   2.0000     -10.303454      -280.3712
   8   2.0000     -10.297695      -280.2145
   9   2.0000     -10.296130      -280.1719
  10   2.0000     -10.294041      -280.1151
  11   2.0000     -10.293104      -280.0896
  12   2.0000     -10.282668      -279.8056
  13   2.0000     -10.280949      -279.7588
  14   2.0000     -10.280813      -279.7551
  15   2.0000     -10.271349      -279.4976
  16   2.0000      -8.082879      -219.9463
  17   2.0000      -8.077000      -219.7864
  18   2.0000      -6.041153      -164.3881
  19   2.0000      -6.037298      -164.2832
  20   2.0000      -6.035353      -164.2303
  21   2.0000      -6.033867      -164.1899
  22   2.0000      -6.031168      -164.1164
  23   2.0000      -6.028014      -164.0306
  24   2.0000      -1.011108       -27.5137
  25   2.0000      -0.988600       -26.9012
  26   2.0000      -0.925470       -25.1833
  27   2.0000      -0.908370       -24.7180
  28   2.0000      -0.871515       -23.7151
  29   2.0000      -0.849486       -23.1157
  30   2.0000      -0.844853       -22.9896
  31   2.0000      -0.812979       -22.1223
  32   2.0000      -0.787999       -21.4426
  33   2.0000      -0.773519       -21.0485
  34   2.0000      -0.700820       -19.0703
  35   2.0000      -0.698547       -19.0084
  36   2.0000      -0.677870       -18.4458
  37   2.0000      -0.661056       -17.9882
  38   2.0000      -0.646679       -17.5970
  39   2.0000      -0.614531       -16.7222
  40   2.0000      -0.585913       -15.9435
  41   2.0000      -0.579984       -15.7822
  42   2.0000      -0.559043       -15.2123
  43   2.0000      -0.550714       -14.9857
  44   2.0000      -0.545312       -14.8387
  45   2.0000      -0.537506       -14.6263
  46   2.0000      -0.519323       -14.1315
  47   2.0000      -0.509857       -13.8739
  48   2.0000      -0.502975       -13.6866
  49   2.0000      -0.495919       -13.4946
  50   2.0000      -0.492091       -13.3905
  51   2.0000      -0.483514       -13.1571
  52   2.0000      -0.472942       -12.8694
  53   2.0000      -0.467567       -12.7231
  54   2.0000      -0.458458       -12.4753
  55   2.0000      -0.445551       -12.1241
  56   2.0000      -0.439991       -11.9728
  57   2.0000      -0.437531       -11.9058
  58   2.0000      -0.429041       -11.6748
  59   2.0000      -0.420354       -11.4384
  60   2.0000      -0.412627       -11.2282
  61   2.0000      -0.404546       -11.0082
  62   2.0000      -0.401895       -10.9361
  63   2.0000      -0.338422        -9.2089
  64   2.0000      -0.335032        -9.1167
  65   2.0000      -0.326094        -8.8735
  66   2.0000      -0.299002        -8.1363
  67   0.0000       0.038388         1.0446
  68   0.0000       0.060569         1.6482
  69   0.0000       0.105804         2.8791
  70   0.0000       0.120373         3.2755
  71   0.0000       0.130717         3.5570

MULLIKEN ATOMIC CHARGES
-----------------------
   0 S :    0.118720
   1 C :   -0.145739
   2 C :   -0.040950
   3 C :    0.022250
   4 C :   -0.185483
   5 H :    0.033581
   6 C :    0.029472
   7 H :    0.029119
   8 H :    0.040912
   9 C :   -0.062649
  10 H :    0.019187
  11 H :    0.033677
  12 C :   -0.024490
  13 H :    0.022511
  14 H :    0.033102
  15 H :    0.020976
  16 S :    0.107916
  17 C :   -0.082104
  18 C :   -0.040126
  19 C :   -0.046495
  20 C :   -0.170059
  21 H :    0.018584
  22 C :    0.075630
  23 H :    0.035531
  24 H :    0.026356
  25 C :   -0.095599
  26 H :    0.035582
  27 H :    0.032071
  28 C :   -0.070819
  29 H :    0.038573
  30 H :    0.046986
  31 H :    0.041445
  32 H :    0.054400
  33 H :    0.047929
Sum of atomic charges:    0.0000000

LOEWDIN ATOMIC CHARGES
----------------------
   0 S :    0.423969
   1 C :   -0.190569
   2 C :   -0.061556
   3 C :   -0.068755
   4 C :   -0.217911
   5 H :    0.040859
   6 C :   -0.042642
   7 H :    0.038403
   8 H :    0.038589
   9 C :   -0.046785
  10 H :    0.022438
  11 H :    0.033244
  12 C :   -0.065239
  13 H :    0.021847
  14 H :    0.024572
  15 H :    0.027250
  16 S :    0.426446
  17 C :   -0.188888
  18 C :   -0.074771
  19 C :   -0.057075
  20 C :   -0.213760
  21 H :    0.031346
  22 C :   -0.040262
  23 H :    0.038194
  24 H :    0.033273
  25 C :   -0.056343
  26 H :    0.029588
  27 H :    0.028176
  28 C :   -0.078759
  29 H :    0.026281
  30 H :    0.031750
  31 H :    0.035428
  32 H :    0.027326
  33 H :    0.024338

  Mayer bond orders larger than 0.100000
B(  0-S ,  1-C ) :   1.1457 B(  0-S ,  4-C ) :   1.1874 B(  1-C ,  2-C ) :   1.5804
B(  1-C ,  4-C ) :   0.1089 B(  1-C , 32-H ) :   0.9750 B(  2-C ,  3-C ) :   1.2419
B(  2-C ,  6-C ) :   1.0228 B(  3-C ,  4-C ) :   1.5611 B(  3-C ,  5-H ) :   0.9851
B(  4-C , 20-C ) :   0.9984 B(  6-C ,  7-H ) :   0.9357 B(  6-C ,  8-H ) :   0.9409
B(  6-C ,  9-C ) :   1.0834 B(  9-C , 10-H ) :   0.9494 B(  9-C , 11-H ) :   0.9457
B(  9-C , 12-C ) :   1.1028 B( 12-C , 13-H ) :   0.9647 B( 12-C , 14-H ) :   0.9708
B( 12-C , 15-H ) :   0.9638 B( 16-S , 17-C ) :   1.1725 B( 16-S , 20-C ) :   1.1603
B( 17-C , 18-C ) :   1.5938 B( 17-C , 33-H ) :   0.9734 B( 18-C , 19-C ) :   1.2446
B( 18-C , 21-H ) :   0.9926 B( 19-C , 20-C ) :   1.5868 B( 19-C , 22-C ) :   1.0455
B( 22-C , 23-H ) :   0.9315 B( 22-C , 24-H ) :   0.9337 B( 22-C , 25-C ) :   1.0689
B( 25-C , 26-H ) :   0.9475 B( 25-C , 27-H ) :   0.9534 B( 25-C , 28-C ) :   1.1045
B( 28-C , 29-H ) :   0.9739 B( 28-C , 30-H ) :   0.9598 B( 28-C , 31-H ) :   0.9686

Dispersion correction           -0.015852776
FINAL SINGLE POINT ENERGY     -1339.884647663536

DIPOLE MOMENT
-------------
                                X             Y             Z
Electronic contribution:    -14.72633      18.14422       6.21718
Nuclear contribution   :     14.91677     -18.73730      -6.12788
                        -----------------------------------------
Total Dipole Moment    :      0.19044      -0.59307       0.08929
                        -----------------------------------------
Magnitude (a.u.)       :      0.62927
Magnitude (Debye)      :      1.59947

Rotational constants in cm-1:     0.019587     0.009314     0.008350
Rotational constants in MHz :   587.197274   279.219022   250.327398

                             ****ORCA TERMINATED NORMALLY****
TOTAL RUN TIME: 0 days 0 hours 0 minutes 36 seconds 679 msec
