                         Program Version 4.2.1 -  RELEASE  -
|  1> ! wB97X-D3 SP def2-SVP
|  2> %pal
|  3> nprocs 16
|  4> end
|  5>
|  6> * xyz 0 1
|  7> S 	 -40.9862 	 14.8098 	 76.1203
|  8> C 	 -40.4047 	 16.3637 	 76.7724
|  9> C 	 -41.4044 	 17.3049 	 76.9536
| 10> C 	 -42.6544 	 16.7454 	 76.5317
| 11> C 	 -42.6607 	 15.4016 	 76.2128
| 12> H 	 -43.6391 	 17.2016 	 76.6962
| 13> C 	 -41.2074 	 18.6845 	 77.4731
| 14> H 	 -40.1748 	 18.862 	 77.6304
| 15> H 	 -41.6905 	 18.7056 	 78.4978
| 16> C 	 -41.8021 	 19.818 	 76.6096
| 17> H 	 -41.4607 	 19.7371 	 75.5861
| 18> H 	 -42.8298 	 19.5224 	 76.5047
| 19> C 	 -41.6791 	 21.2995 	 77.107
| 20> H 	 -40.6964 	 21.5862 	 77.5589
| 21> H 	 -41.8819 	 21.9937 	 76.3061
| 22> H 	 -42.283 	 21.5455 	 77.9877
| 23> S 	 -44.5575 	 13.9345 	 77.3503
| 24> C 	 -46.0938 	 13.6573 	 76.4528
| 25> C 	 -45.873 	 13.6775 	 75.1264
| 26> C 	 -44.6145 	 14.3122 	 74.7772
| 27> C 	 -43.8091 	 14.6086 	 75.8695
| 28> H 	 -46.6428 	 13.4119 	 74.4621
| 29> C 	 -44.3604 	 14.7308 	 73.3722
| 30> H 	 -43.4733 	 15.4666 	 73.4168
| 31> H 	 -45.2272 	 15.2465 	 72.9814
| 32> C 	 -44.0589 	 13.5272 	 72.3727
| 33> H 	 -45.0361 	 13.003 	 72.3126
| 34> H 	 -43.3878 	 12.7768 	 72.7738
| 35> C 	 -43.5817 	 14.0384 	 70.9266
| 36> H 	 -42.6847 	 14.7081 	 70.9529
| 37> H 	 -44.2676 	 14.7228 	 70.4614
| 38> H 	 -43.3796 	 13.3057 	 70.2319
| 39> H 	 -39.3447 	 16.6008 	 76.8434
| 40> H 	 -46.9524 	 13.115 	 76.8792
| 41> *
| 42>
| 43>                          ****END OF INPUT****

CARTESIAN COORDINATES (ANGSTROEM)
---------------------------------
  S    -40.986200   14.809800   76.120300
  C    -40.404700   16.363700   76.772400
  C    -41.404400   17.304900   76.953600
  C    -42.654400   16.745400   76.531700
  C    -42.660700   15.401600   76.212800
  H    -43.639100   17.201600   76.696200
  C    -41.207400   18.684500   77.473100
  H    -40.174800   18.862000   77.630400
  H    -41.690500   18.705600   78.497800
  C    -41.802100   19.818000   76.609600
  H    -41.460700   19.737100   75.586100
  H    -42.829800   19.522400   76.504700
  C    -41.679100   21.299500   77.107000
  H    -40.696400   21.586200   77.558900
  H    -41.881900   21.993700   76.306100
  H    -42.283000   21.545500   77.987700
  S    -44.557500   13.934500   77.350300
  C    -46.093800   13.657300   76.452800
  C    -45.873000   13.677500   75.126400
  C    -44.614500   14.312200   74.777200
  C    -43.809100   14.608600   75.869500
  H    -46.642800   13.411900   74.462100
  C    -44.360400   14.730800   73.372200
  H    -43.473300   15.466600   73.416800
  H    -45.227200   15.246500   72.981400
  C    -44.058900   13.527200   72.372700
  H    -45.036100   13.003000   72.312600
  H    -43.387800   12.776800   72.773800
  C    -43.581700   14.038400   70.926600
  H    -42.684700   14.708100   70.952900
  H    -44.267600   14.722800   70.461400
  H    -43.379600   13.305700   70.231900
  H    -39.344700   16.600800   76.843400
  H    -46.952400   13.115000   76.879200

 Total Charge           Charge          ....    0
 Multiplicity           Mult            ....    1
 Number of Electrons    NEL             ....  134
 Basis Dimension        Dim             ....  322

ORBITAL ENERGIES
----------------

  NO   OCC          E(Eh)            E(eV)
   0   2.0000     -88.965846     -2420.8838
   1   2.0000     -88.957277     -2420.6506
   2   2.0000     -10.330696      -281.1125
   3   2.0000     -10.328914      -281.0640
   4   2.0000     -10.319148      -280.7983
   5   2.0000     -10.317407      -280.7509
   6   2.0000     -10.308954      -280.5209
   7   2.0000     -10.302857      -280.3550
   8   2.0000     -10.298804      -280.2447
   9   2.0000     -10.297463      -280.2082
  10   2.0000     -10.296011      -280.1687
  11   2.0000     -10.294508      -280.1278
  12   2.0000     -10.291974      -280.0589
  13   2.0000     -10.289403      -279.9889
  14   2.0000     -10.285979      -279.8957
  15   2.0000     -10.278276      -279.6861
  16   2.0000      -8.079662      -219.8588
  17   2.0000      -8.071420      -219.6345
  18   2.0000      -6.038198      -164.3077
  19   2.0000      -6.034390      -164.2041
  20   2.0000      -6.030354      -164.0943
  21   2.0000      -6.030211      -164.0904
  22   2.0000      -6.026161      -163.9802
  23   2.0000      -6.021732      -163.8597
  24   2.0000      -1.001605       -27.2551
  25   2.0000      -0.978976       -26.6393
  26   2.0000      -0.910820       -24.7847
  27   2.0000      -0.896539       -24.3961
  28   2.0000      -0.872470       -23.7411
  29   2.0000      -0.844395       -22.9771
  30   2.0000      -0.840034       -22.8585
  31   2.0000      -0.816603       -22.2209
  32   2.0000      -0.783347       -21.3160
  33   2.0000      -0.769457       -20.9380
  34   2.0000      -0.717180       -19.5155
  35   2.0000      -0.704148       -19.1608
  36   2.0000      -0.693906       -18.8821
  37   2.0000      -0.663596       -18.0574
  38   2.0000      -0.642074       -17.4717
  39   2.0000      -0.618220       -16.8226
  40   2.0000      -0.590942       -16.0803
  41   2.0000      -0.569497       -15.4968
  42   2.0000      -0.558058       -15.1855
  43   2.0000      -0.549823       -14.9614
  44   2.0000      -0.526516       -14.3272
  45   2.0000      -0.524798       -14.2805
  46   2.0000      -0.518575       -14.1111
  47   2.0000      -0.504257       -13.7215
  48   2.0000      -0.502580       -13.6759
  49   2.0000      -0.494731       -13.4623
  50   2.0000      -0.492686       -13.4067
  51   2.0000      -0.478303       -13.0153
  52   2.0000      -0.467649       -12.7254
  53   2.0000      -0.463323       -12.6077
  54   2.0000      -0.456096       -12.4110
  55   2.0000      -0.450793       -12.2667
  56   2.0000      -0.444807       -12.1038
  57   2.0000      -0.439916       -11.9707
  58   2.0000      -0.437255       -11.8983
  59   2.0000      -0.426735       -11.6121
  60   2.0000      -0.418493       -11.3878
  61   2.0000      -0.415283       -11.3004
  62   2.0000      -0.411904       -11.2085
  63   2.0000      -0.336516        -9.1571
  64   2.0000      -0.327870        -8.9218
  65   2.0000      -0.317380        -8.6363
  66   2.0000      -0.311383        -8.4732
  67   0.0000       0.039279         1.0688
  68   0.0000       0.049130         1.3369
  69   0.0000       0.101546         2.7632
  70   0.0000       0.116819         3.1788
  71   0.0000       0.122735         3.3398

MULLIKEN ATOMIC CHARGES
-----------------------
   0 S :    0.107619
   1 C :   -0.125784
   2 C :   -0.088268
   3 C :    0.043979
   4 C :   -0.174481
   5 H :    0.026244
   6 C :    0.095595
   7 H :    0.003497
   8 H :    0.047603
   9 C :   -0.082185
  10 H :    0.028603
  11 H :    0.023808
  12 C :   -0.049224
  13 H :    0.026210
  14 H :    0.042747
  15 H :    0.030058
  16 S :    0.073073
  17 C :   -0.089873
  18 C :   -0.014756
  19 C :   -0.002849
  20 C :   -0.179605
  21 H :    0.010820
  22 C :    0.024276
  23 H :    0.045154
  24 H :    0.031711
  25 C :   -0.088876
  26 H :    0.030812
  27 H :    0.040823
  28 C :   -0.026173
  29 H :    0.030715
  30 H :    0.016677
  31 H :    0.024765
  32 H :    0.050068
  33 H :    0.067217
Sum of atomic charges:   -0.0000000

LOEWDIN ATOMIC CHARGES
----------------------
   0 S :    0.378938
   1 C :   -0.181935
   2 C :   -0.064734
   3 C :   -0.056589
   4 C :   -0.200939
   5 H :    0.034767
   6 C :   -0.029768
   7 H :    0.021259
   8 H :    0.043303
   9 C :   -0.040742
  10 H :    0.025583
  11 H :    0.021820
  12 C :   -0.072021
  13 H :    0.029040
  14 H :    0.028569
  15 H :    0.027088
  16 S :    0.359971
  17 C :   -0.162680
  18 C :   -0.066336
  19 C :   -0.049057
  20 C :   -0.184307
  21 H :    0.025781
  22 C :   -0.035936
  23 H :    0.038450
  24 H :    0.029376
  25 C :   -0.032447
  26 H :    0.024414
  27 H :    0.023969
  28 C :   -0.066750
  29 H :    0.032486
  30 H :    0.022995
  31 H :    0.014820
  32 H :    0.027401
  33 H :    0.034210

  Mayer bond orders larger than 0.100000
B(  0-S ,  1-C ) :   1.1360 B(  0-S ,  4-C ) :   1.1238 B(  1-C ,  2-C ) :   1.6257
B(  1-C , 32-H ) :   0.9617 B(  2-C ,  3-C ) :   1.2183 B(  2-C ,  6-C ) :   1.0400
B(  3-C ,  4-C ) :   1.6203 B(  3-C ,  5-H ) :   0.9796 B(  4-C , 20-C ) :   1.0209
B(  6-C ,  7-H ) :   0.9349 B(  6-C ,  8-H ) :   0.9307 B(  6-C ,  9-C ) :   1.0527
B(  9-C , 10-H ) :   0.9598 B(  9-C , 11-H ) :   0.9541 B(  9-C , 12-C ) :   1.0732
B( 12-C , 13-H ) :   0.9759 B( 12-C , 14-H ) :   0.9770 B( 12-C , 15-H ) :   0.9743
B( 16-S , 17-C ) :   1.1271 B( 16-S , 20-C ) :   1.1121 B( 17-C , 18-C ) :   1.6760
B( 17-C , 33-H ) :   0.9571 B( 18-C , 19-C ) :   1.1759 B( 18-C , 21-H ) :   0.9921
B( 19-C , 20-C ) :   1.6481 B( 19-C , 22-C ) :   1.0577 B( 22-C , 23-H ) :   0.9427
B( 22-C , 24-H ) :   0.9376 B( 22-C , 25-C ) :   1.0362 B( 25-C , 26-H ) :   0.9586
B( 25-C , 27-H ) :   0.9644 B( 25-C , 28-C ) :   1.0667 B( 28-C , 29-H ) :   0.9768
B( 28-C , 30-H ) :   0.9744 B( 28-C , 31-H ) :   0.9795

Dispersion correction           -0.013544083
FINAL SINGLE POINT ENERGY     -1339.861199058168

DIPOLE MOMENT
-------------
                                X             Y             Z
Electronic contribution:     -0.11730     -18.27871      14.16550
Nuclear contribution   :     -0.13317      18.73272     -14.53971
                        -----------------------------------------
Total Dipole Moment    :     -0.25046       0.45401      -0.37421
                        -----------------------------------------
Magnitude (a.u.)       :      0.63945
Magnitude (Debye)      :      1.62535

Rotational constants in cm-1:     0.017395     0.007343     0.006623
Rotational constants in MHz :   521.500709   220.149012   198.565320

                             ****ORCA TERMINATED NORMALLY****
TOTAL RUN TIME: 0 days 0 hours 0 minutes 29 seconds 209 msec
