                         Program Version 4.2.1 -  RELEASE  -
|  1> ! wB97X-D3 SP def2-SVP
|  2> %pal
|  3> nprocs 16
|  4> end
|  5>
|  6> * xyz 0 1
|  7> S 	 33.9505 	 27.3942 	 52.7693
|  8> C 	 35.2339 	 28.6282 	 52.5222
|  9> C 	 36.2293 	 28.3849 	 53.4359
| 10> C 	 36.1168 	 27.147 	 54.095
| 11> C 	 34.9276 	 26.4782 	 53.9115
| 12> H 	 36.8919 	 26.6219 	 54.7568
| 13> C 	 37.4475 	 29.2415 	 53.4693
| 14> H 	 37.3141 	 30.2202 	 52.9517
| 15> H 	 38.247 	 28.7204 	 52.9092
| 16> C 	 38.0064 	 29.5194 	 54.8583
| 17> H 	 37.7446 	 28.6127 	 55.5034
| 18> H 	 39.1142 	 29.5161 	 54.883
| 19> C 	 37.2975 	 30.6433 	 55.6221
| 20> H 	 36.9887 	 31.5313 	 54.9691
| 21> H 	 36.3274 	 30.2537 	 55.9819
| 22> H 	 37.9296 	 31.0031 	 56.4499
| 23> S 	 35.0911 	 24.8618 	 56.2471
| 24> C 	 34.5197 	 23.1872 	 56.075
| 25> C 	 34.0321 	 22.8836 	 54.8324
| 26> C 	 34.2212 	 23.9727 	 53.9239
| 27> C 	 34.6809 	 25.1345 	 54.496
| 28> H 	 33.5753 	 21.8359 	 54.7338
| 29> C 	 33.8951 	 23.8456 	 52.4405
| 30> H 	 33.9881 	 24.8211 	 52.0145
| 31> H 	 32.8368 	 23.5537 	 52.4137
| 32> C 	 34.8976 	 22.9578 	 51.6674
| 33> H 	 34.7511 	 21.8962 	 52.0745
| 34> H 	 35.9312 	 23.3161 	 51.9616
| 35> C 	 34.6245 	 22.9572 	 50.167
| 36> H 	 35.4094 	 22.4033 	 49.6253
| 37> H 	 34.4771 	 23.9969 	 49.7937
| 38> H 	 33.6445 	 22.6822 	 49.7582
| 39> H 	 35.0837 	 29.5016 	 51.7813
| 40> H 	 34.5907 	 22.4684 	 56.8586
| 41> *
| 42>
| 43>                          ****END OF INPUT****

CARTESIAN COORDINATES (ANGSTROEM)
---------------------------------
  S     33.950500   27.394200   52.769300
  C     35.233900   28.628200   52.522200
  C     36.229300   28.384900   53.435900
  C     36.116800   27.147000   54.095000
  C     34.927600   26.478200   53.911500
  H     36.891900   26.621900   54.756800
  C     37.447500   29.241500   53.469300
  H     37.314100   30.220200   52.951700
  H     38.247000   28.720400   52.909200
  C     38.006400   29.519400   54.858300
  H     37.744600   28.612700   55.503400
  H     39.114200   29.516100   54.883000
  C     37.297500   30.643300   55.622100
  H     36.988700   31.531300   54.969100
  H     36.327400   30.253700   55.981900
  H     37.929600   31.003100   56.449900
  S     35.091100   24.861800   56.247100
  C     34.519700   23.187200   56.075000
  C     34.032100   22.883600   54.832400
  C     34.221200   23.972700   53.923900
  C     34.680900   25.134500   54.496000
  H     33.575300   21.835900   54.733800
  C     33.895100   23.845600   52.440500
  H     33.988100   24.821100   52.014500
  H     32.836800   23.553700   52.413700
  C     34.897600   22.957800   51.667400
  H     34.751100   21.896200   52.074500
  H     35.931200   23.316100   51.961600
  C     34.624500   22.957200   50.167000
  H     35.409400   22.403300   49.625300
  H     34.477100   23.996900   49.793700
  H     33.644500   22.682200   49.758200
  H     35.083700   29.501600   51.781300
  H     34.590700   22.468400   56.858600

 Total Charge           Charge          ....    0
 Multiplicity           Mult            ....    1
 Number of Electrons    NEL             ....  134
 Basis Dimension        Dim             ....  322

ORBITAL ENERGIES
----------------

  NO   OCC          E(Eh)            E(eV)
   0   2.0000     -88.967403     -2420.9261
   1   2.0000     -88.967349     -2420.9247
   2   2.0000     -10.334590      -281.2185
   3   2.0000     -10.333535      -281.1898
   4   2.0000     -10.326440      -280.9967
   5   2.0000     -10.319522      -280.8085
   6   2.0000     -10.305221      -280.4193
   7   2.0000     -10.302169      -280.3363
   8   2.0000     -10.302142      -280.3355
   9   2.0000     -10.298146      -280.2268
  10   2.0000     -10.297410      -280.2068
  11   2.0000     -10.292824      -280.0820
  12   2.0000     -10.289680      -279.9964
  13   2.0000     -10.285741      -279.8892
  14   2.0000     -10.283148      -279.8187
  15   2.0000     -10.280834      -279.7557
  16   2.0000      -8.080758      -219.8886
  17   2.0000      -8.080700      -219.8870
  18   2.0000      -6.039388      -164.3401
  19   2.0000      -6.039321      -164.3383
  20   2.0000      -6.035635      -164.2380
  21   2.0000      -6.035355      -164.2304
  22   2.0000      -6.031523      -164.1261
  23   2.0000      -6.031204      -164.1174
  24   2.0000      -1.003308       -27.3014
  25   2.0000      -0.982523       -26.7358
  26   2.0000      -0.912601       -24.8331
  27   2.0000      -0.904276       -24.6066
  28   2.0000      -0.868108       -23.6224
  29   2.0000      -0.847959       -23.0741
  30   2.0000      -0.841099       -22.8875
  31   2.0000      -0.814794       -22.1717
  32   2.0000      -0.779893       -21.2220
  33   2.0000      -0.770086       -20.9551
  34   2.0000      -0.707178       -19.2433
  35   2.0000      -0.695876       -18.9358
  36   2.0000      -0.682797       -18.5799
  37   2.0000      -0.662893       -18.0382
  38   2.0000      -0.627462       -17.0741
  39   2.0000      -0.619297       -16.8519
  40   2.0000      -0.592468       -16.1219
  41   2.0000      -0.568064       -15.4578
  42   2.0000      -0.557370       -15.1668
  43   2.0000      -0.555607       -15.1188
  44   2.0000      -0.531270       -14.4566
  45   2.0000      -0.524605       -14.2752
  46   2.0000      -0.516097       -14.0437
  47   2.0000      -0.510917       -13.9027
  48   2.0000      -0.506645       -13.7865
  49   2.0000      -0.497084       -13.5264
  50   2.0000      -0.483137       -13.1468
  51   2.0000      -0.477771       -13.0008
  52   2.0000      -0.471754       -12.8371
  53   2.0000      -0.464114       -12.6292
  54   2.0000      -0.453751       -12.3472
  55   2.0000      -0.449446       -12.2300
  56   2.0000      -0.442569       -12.0429
  57   2.0000      -0.437208       -11.8970
  58   2.0000      -0.429777       -11.6948
  59   2.0000      -0.418537       -11.3890
  60   2.0000      -0.415813       -11.3149
  61   2.0000      -0.405640       -11.0380
  62   2.0000      -0.401978       -10.9384
  63   2.0000      -0.348487        -9.4828
  64   2.0000      -0.334374        -9.0988
  65   2.0000      -0.329608        -8.9691
  66   2.0000      -0.294585        -8.0161
  67   0.0000       0.024255         0.6600
  68   0.0000       0.072746         1.9795
  69   0.0000       0.100279         2.7287
  70   0.0000       0.121029         3.2934
  71   0.0000       0.124169         3.3788

MULLIKEN ATOMIC CHARGES
-----------------------
   0 S :    0.095413
   1 C :   -0.182502
   2 C :   -0.030878
   3 C :   -0.041015
   4 C :   -0.117636
   5 H :    0.053799
   6 C :    0.052415
   7 H :    0.024761
   8 H :    0.045207
   9 C :   -0.116648
  10 H :    0.031523
  11 H :    0.034213
  12 C :   -0.065930
  13 H :    0.031744
  14 H :    0.043059
  15 H :    0.046747
  16 S :    0.085616
  17 C :   -0.089479
  18 C :   -0.050333
  19 C :   -0.061838
  20 C :   -0.147309
  21 H :    0.055930
  22 C :    0.080036
  23 H :    0.000928
  24 H :    0.037687
  25 C :   -0.093934
  26 H :    0.037701
  27 H :    0.051525
  28 C :   -0.041051
  29 H :    0.049945
  30 H :    0.019798
  31 H :    0.021209
  32 H :    0.092350
  33 H :    0.046945
Sum of atomic charges:    0.0000000

LOEWDIN ATOMIC CHARGES
----------------------
   0 S :    0.387100
   1 C :   -0.191445
   2 C :   -0.073484
   3 C :   -0.078909
   4 C :   -0.187103
   5 H :    0.042671
   6 C :   -0.036581
   7 H :    0.030875
   8 H :    0.039943
   9 C :   -0.056991
  10 H :    0.032027
  11 H :    0.024605
  12 C :   -0.072971
  13 H :    0.026084
  14 H :    0.030379
  15 H :    0.030170
  16 S :    0.360381
  17 C :   -0.162600
  18 C :   -0.081607
  19 C :   -0.053350
  20 C :   -0.173986
  21 H :    0.052642
  22 C :   -0.034073
  23 H :    0.009928
  24 H :    0.033374
  25 C :   -0.042629
  26 H :    0.027386
  27 H :    0.037071
  28 C :   -0.083881
  29 H :    0.031156
  30 H :    0.030498
  31 H :    0.028981
  32 H :    0.051776
  33 H :    0.022564

  Mayer bond orders larger than 0.100000
B(  0-S ,  1-C ) :   1.1259 B(  0-S ,  4-C ) :   1.1413 B(  1-C ,  2-C ) :   1.5903
B(  1-C , 32-H ) :   0.9604 B(  2-C ,  3-C ) :   1.2296 B(  2-C ,  6-C ) :   1.0415
B(  3-C ,  4-C ) :   1.5819 B(  3-C ,  5-H ) :   0.9686 B(  4-C , 20-C ) :   1.0405
B(  6-C ,  7-H ) :   0.9475 B(  6-C ,  8-H ) :   0.9347 B(  6-C ,  9-C ) :   1.0625
B(  9-C , 10-H ) :   0.9575 B(  9-C , 11-H ) :   0.9605 B(  9-C , 12-C ) :   1.0555
B( 12-C , 13-H ) :   0.9770 B( 12-C , 14-H ) :   0.9779 B( 12-C , 15-H ) :   0.9748
B( 16-S , 17-C ) :   1.1394 B( 16-S , 20-C ) :   1.1017 B( 17-C , 18-C ) :   1.6611
B( 17-C , 33-H ) :   0.9653 B( 18-C , 19-C ) :   1.1869 B( 18-C , 21-H ) :   0.9780
B( 19-C , 20-C ) :   1.6408 B( 19-C , 22-C ) :   1.0444 B( 22-C , 23-H ) :   0.9234
B( 22-C , 24-H ) :   0.9336 B( 22-C , 25-C ) :   1.0560 B( 25-C , 26-H ) :   0.9561
B( 25-C , 27-H ) :   0.9528 B( 25-C , 28-C ) :   1.0790 B( 28-C , 29-H ) :   0.9748
B( 28-C , 30-H ) :   0.9665 B( 28-C , 31-H ) :   0.9686

Dispersion correction           -0.014101210
FINAL SINGLE POINT ENERGY     -1339.867216920206

DIPOLE MOMENT
-------------
                                X             Y             Z
Electronic contribution:     -9.79657      -3.12653       9.31325
Nuclear contribution   :     10.06645       2.96190      -9.55017
                        -----------------------------------------
Total Dipole Moment    :      0.26987      -0.16463      -0.23692
                        -----------------------------------------
Magnitude (a.u.)       :      0.39505
Magnitude (Debye)      :      1.00414

Rotational constants in cm-1:     0.019451     0.008431     0.006662
Rotational constants in MHz :   583.115063   252.766083   199.722382

                             ****ORCA TERMINATED NORMALLY****
TOTAL RUN TIME: 0 days 0 hours 0 minutes 34 seconds 436 msec
