                         Program Version 4.2.1 -  RELEASE  -
|  1> ! wB97X-D3 SP def2-SVP
|  2> %pal
|  3> nprocs 16
|  4> end
|  5>
|  6> * xyz 0 1
|  7> S 	 43.7523 	 20.3335 	 87.0804
|  8> C 	 45.0328 	 21.4017 	 87.6263
|  9> C 	 45.5272 	 21.0785 	 88.9145
| 10> C 	 44.7451 	 20.0077 	 89.4634
| 11> C 	 43.7059 	 19.5146 	 88.6571
| 12> H 	 44.9242 	 19.6026 	 90.4916
| 13> C 	 46.6587 	 21.7731 	 89.6595
| 14> H 	 46.263 	 22.5566 	 90.3972
| 15> H 	 47.2058 	 22.3563 	 88.9273
| 16> C 	 47.6059 	 20.8214 	 90.397
| 17> H 	 47.0453 	 19.9499 	 90.8729
| 18> H 	 48.3048 	 20.3453 	 89.7184
| 19> C 	 48.4551 	 21.5497 	 91.5272
| 20> H 	 49.1329 	 20.8511 	 92.0621
| 21> H 	 49.163 	 22.3597 	 91.1848
| 22> H 	 47.8046 	 22.028 	 92.3227
| 23> S 	 42.3278 	 18.2184 	 90.5768
| 24> C 	 41.7715 	 16.6541 	 90.2675
| 25> C 	 41.7572 	 16.3221 	 88.9635
| 26> C 	 42.4897 	 17.2538 	 88.2136
| 27> C 	 42.8625 	 18.3756 	 88.9418
| 28> H 	 41.4313 	 15.322 	 88.707
| 29> C 	 42.7554 	 16.9451 	 86.7473
| 30> H 	 42.5743 	 17.8367 	 86.164
| 31> H 	 42.0566 	 16.1687 	 86.4741
| 32> C 	 44.1269 	 16.319 	 86.3691
| 33> H 	 44.1484 	 15.8733 	 85.3001
| 34> H 	 44.17 	 15.447 	 87.0367
| 35> C 	 45.3812 	 17.1696 	 86.3854
| 36> H 	 45.4117 	 17.7445 	 87.377
| 37> H 	 45.2954 	 17.9747 	 85.6738
| 38> H 	 46.2732 	 16.5854 	 86.1495
| 39> H 	 45.6197 	 21.9754 	 86.8757
| 40> H 	 41.4092 	 16.0234 	 91.0936
| 41> *
| 42>
| 43>                          ****END OF INPUT****

CARTESIAN COORDINATES (ANGSTROEM)
---------------------------------
  S     43.752300   20.333500   87.080400
  C     45.032800   21.401700   87.626300
  C     45.527200   21.078500   88.914500
  C     44.745100   20.007700   89.463400
  C     43.705900   19.514600   88.657100
  H     44.924200   19.602600   90.491600
  C     46.658700   21.773100   89.659500
  H     46.263000   22.556600   90.397200
  H     47.205800   22.356300   88.927300
  C     47.605900   20.821400   90.397000
  H     47.045300   19.949900   90.872900
  H     48.304800   20.345300   89.718400
  C     48.455100   21.549700   91.527200
  H     49.132900   20.851100   92.062100
  H     49.163000   22.359700   91.184800
  H     47.804600   22.028000   92.322700
  S     42.327800   18.218400   90.576800
  C     41.771500   16.654100   90.267500
  C     41.757200   16.322100   88.963500
  C     42.489700   17.253800   88.213600
  C     42.862500   18.375600   88.941800
  H     41.431300   15.322000   88.707000
  C     42.755400   16.945100   86.747300
  H     42.574300   17.836700   86.164000
  H     42.056600   16.168700   86.474100
  C     44.126900   16.319000   86.369100
  H     44.148400   15.873300   85.300100
  H     44.170000   15.447000   87.036700
  C     45.381200   17.169600   86.385400
  H     45.411700   17.744500   87.377000
  H     45.295400   17.974700   85.673800
  H     46.273200   16.585400   86.149500
  H     45.619700   21.975400   86.875700
  H     41.409200   16.023400   91.093600

 Total Charge           Charge          ....    0
 Multiplicity           Mult            ....    1
 Number of Electrons    NEL             ....  134
 Basis Dimension        Dim             ....  322

ORBITAL ENERGIES
----------------

  NO   OCC          E(Eh)            E(eV)
   0   2.0000     -88.970556     -2421.0119
   1   2.0000     -88.965383     -2420.8711
   2   2.0000     -10.335544      -281.2444
   3   2.0000     -10.323703      -280.9222
   4   2.0000     -10.321094      -280.8512
   5   2.0000     -10.310570      -280.5649
   6   2.0000     -10.309630      -280.5393
   7   2.0000     -10.302480      -280.3447
   8   2.0000     -10.302346      -280.3411
   9   2.0000     -10.301313      -280.3130
  10   2.0000     -10.299027      -280.2508
  11   2.0000     -10.292918      -280.0845
  12   2.0000     -10.288874      -279.9745
  13   2.0000     -10.288162      -279.9551
  14   2.0000     -10.287924      -279.9487
  15   2.0000     -10.271152      -279.4922
  16   2.0000      -8.084040      -219.9779
  17   2.0000      -8.081895      -219.9196
  18   2.0000      -6.042551      -164.4262
  19   2.0000      -6.040115      -164.3599
  20   2.0000      -6.038704      -164.3215
  21   2.0000      -6.036164      -164.2524
  22   2.0000      -6.034901      -164.2180
  23   2.0000      -6.032847      -164.1621
  24   2.0000      -1.016624       -27.6638
  25   2.0000      -0.984280       -26.7836
  26   2.0000      -0.907745       -24.7010
  27   2.0000      -0.904843       -24.6220
  28   2.0000      -0.872628       -23.7454
  29   2.0000      -0.851233       -23.1632
  30   2.0000      -0.841682       -22.9033
  31   2.0000      -0.811073       -22.0704
  32   2.0000      -0.784461       -21.3463
  33   2.0000      -0.769125       -20.9290
  34   2.0000      -0.709266       -19.3001
  35   2.0000      -0.694264       -18.8919
  36   2.0000      -0.680981       -18.5304
  37   2.0000      -0.667656       -18.1678
  38   2.0000      -0.630472       -17.1560
  39   2.0000      -0.622884       -16.9495
  40   2.0000      -0.597110       -16.2482
  41   2.0000      -0.567020       -15.4294
  42   2.0000      -0.556171       -15.1342
  43   2.0000      -0.546197       -14.8628
  44   2.0000      -0.540315       -14.7027
  45   2.0000      -0.518237       -14.1019
  46   2.0000      -0.515097       -14.0165
  47   2.0000      -0.507135       -13.7998
  48   2.0000      -0.499485       -13.5917
  49   2.0000      -0.496631       -13.5140
  50   2.0000      -0.490565       -13.3490
  51   2.0000      -0.479617       -13.0510
  52   2.0000      -0.469408       -12.7732
  53   2.0000      -0.465308       -12.6617
  54   2.0000      -0.459004       -12.4901
  55   2.0000      -0.453330       -12.3357
  56   2.0000      -0.440066       -11.9748
  57   2.0000      -0.438559       -11.9338
  58   2.0000      -0.433801       -11.8043
  59   2.0000      -0.427890       -11.6435
  60   2.0000      -0.418776       -11.3955
  61   2.0000      -0.417475       -11.3601
  62   2.0000      -0.396451       -10.7880
  63   2.0000      -0.352106        -9.5813
  64   2.0000      -0.336614        -9.1597
  65   2.0000      -0.331546        -9.0218
  66   2.0000      -0.285835        -7.7780
  67   0.0000       0.020654         0.5620
  68   0.0000       0.078150         2.1266
  69   0.0000       0.107978         2.9382
  70   0.0000       0.113681         3.0934
  71   0.0000       0.123778         3.3682

MULLIKEN ATOMIC CHARGES
-----------------------
   0 S :    0.101766
   1 C :   -0.129709
   2 C :   -0.093386
   3 C :   -0.007715
   4 C :   -0.151031
   5 H :    0.034314
   6 C :    0.078189
   7 H :    0.057608
   8 H :    0.017059
   9 C :   -0.100254
  10 H :    0.047215
  11 H :    0.037705
  12 C :   -0.107016
  13 H :    0.038933
  14 H :    0.042170
  15 H :    0.043303
  16 S :    0.119881
  17 C :   -0.111290
  18 C :   -0.020795
  19 C :   -0.061587
  20 C :   -0.137530
  21 H :    0.020855
  22 C :    0.089060
  23 H :    0.024778
  24 H :    0.017392
  25 C :   -0.098015
  26 H :    0.034525
  27 H :    0.020058
  28 C :   -0.043246
  29 H :    0.046967
  30 H :    0.018797
  31 H :    0.040667
  32 H :    0.068506
  33 H :    0.061824
Sum of atomic charges:   -0.0000000

LOEWDIN ATOMIC CHARGES
----------------------
   0 S :    0.407847
   1 C :   -0.205949
   2 C :   -0.061933
   3 C :   -0.071886
   4 C :   -0.190766
   5 H :    0.032205
   6 C :   -0.035819
   7 H :    0.044462
   8 H :    0.029490
   9 C :   -0.043865
  10 H :    0.032007
  11 H :    0.026227
  12 C :   -0.082546
  13 H :    0.027865
  14 H :    0.029010
  15 H :    0.028993
  16 S :    0.447752
  17 C :   -0.196856
  18 C :   -0.077630
  19 C :   -0.055741
  20 C :   -0.209810
  21 H :    0.035488
  22 C :   -0.030358
  23 H :    0.019458
  24 H :    0.033816
  25 C :   -0.047529
  26 H :    0.030689
  27 H :    0.019686
  28 C :   -0.076930
  29 H :    0.034111
  30 H :    0.015881
  31 H :    0.027731
  32 H :    0.033404
  33 H :    0.031496

  Mayer bond orders larger than 0.100000
B(  0-S ,  1-C ) :   1.1501 B(  0-S ,  4-C ) :   1.1485 B(  1-C ,  2-C ) :   1.5929
B(  1-C , 32-H ) :   0.9550 B(  2-C ,  3-C ) :   1.2716 B(  2-C ,  6-C ) :   1.0267
B(  3-C ,  4-C ) :   1.5493 B(  3-C ,  5-H ) :   0.9698 B(  4-C , 20-C ) :   1.0621
B(  6-C ,  7-H ) :   0.9441 B(  6-C ,  8-H ) :   0.9362 B(  6-C ,  9-C ) :   1.0429
B(  9-C , 10-H ) :   0.9608 B(  9-C , 11-H ) :   0.9558 B(  9-C , 12-C ) :   1.0683
B( 12-C , 13-H ) :   0.9765 B( 12-C , 14-H ) :   0.9765 B( 12-C , 15-H ) :   0.9767
B( 16-S , 17-C ) :   1.1878 B( 16-S , 20-C ) :   1.1502 B( 17-C , 18-C ) :   1.5959
B( 17-C , 33-H ) :   0.9601 B( 18-C , 19-C ) :   1.2645 B( 18-C , 21-H ) :   0.9891
B( 19-C , 20-C ) :   1.5613 B( 19-C , 22-C ) :   1.0336 B( 22-C , 23-H ) :   0.9395
B( 22-C , 24-H ) :   0.9274 B( 22-C , 25-C ) :   1.0666 B( 25-C , 26-H ) :   0.9549
B( 25-C , 27-H ) :   0.9524 B( 25-C , 28-C ) :   1.0845 B( 28-C , 29-H ) :   0.9723
B( 28-C , 30-H ) :   0.9688 B( 28-C , 31-H ) :   0.9704

Dispersion correction           -0.015165523
FINAL SINGLE POINT ENERGY     -1339.882850697926

DIPOLE MOMENT
-------------
                                X             Y             Z
Electronic contribution:    -21.03854       1.15998       0.73167
Nuclear contribution   :     21.47706      -1.41795      -0.63167
                        -----------------------------------------
Total Dipole Moment    :      0.43851      -0.25797       0.10000
                        -----------------------------------------
Magnitude (a.u.)       :      0.51850
Magnitude (Debye)      :      1.31792

Rotational constants in cm-1:     0.019423     0.008703     0.007408
Rotational constants in MHz :   582.290806   260.908355   222.088046

                             ****ORCA TERMINATED NORMALLY****
TOTAL RUN TIME: 0 days 0 hours 0 minutes 29 seconds 103 msec
