                         Program Version 4.2.1 -  RELEASE  -
|  1> ! wB97X-D3 SP def2-SVP
|  2> %pal
|  3> nprocs 16
|  4> end
|  5>
|  6> * xyz 0 1
|  7> S 	 41.6884 	 19.9705 	 81.4774
|  8> C 	 40.8025 	 21.5325 	 81.3492
|  9> C 	 39.3995 	 21.3221 	 81.4347
| 10> C 	 39.0757 	 19.9195 	 81.6665
| 11> C 	 40.2088 	 19.0952 	 81.6435
| 12> H 	 38.0988 	 19.5157 	 81.7625
| 13> C 	 38.3822 	 22.3574 	 81.4473
| 14> H 	 37.3687 	 22.0081 	 81.2801
| 15> H 	 38.634 	 23.0259 	 80.6638
| 16> C 	 38.3433 	 23.01 	 82.8687
| 17> H 	 37.9927 	 22.3897 	 83.6401
| 18> H 	 39.3063 	 23.3314 	 83.195
| 19> C 	 37.3732 	 24.2188 	 82.9084
| 20> H 	 37.5843 	 24.9415 	 82.1635
| 21> H 	 36.376 	 23.8124 	 82.7361
| 22> H 	 37.383 	 24.7912 	 83.835
| 23> S 	 41.0394 	 16.5699 	 80.7989
| 24> C 	 40.9406 	 15.273 	 81.9421
| 25> C 	 40.13 	 15.6752 	 83.0079
| 26> C 	 39.6982 	 17.0278 	 83
| 27> C 	 40.1622 	 17.6536 	 81.8594
| 28> H 	 39.9209 	 14.8993 	 83.7347
| 29> C 	 38.9517 	 17.7966 	 84.1345
| 30> H 	 39.2628 	 18.8155 	 84.1615
| 31> H 	 39.1979 	 17.3168 	 85.0934
| 32> C 	 37.4207 	 17.6735 	 84.0656
| 33> H 	 37.1672 	 16.7044 	 84.3857
| 34> H 	 36.9092 	 17.8265 	 83.0858
| 35> C 	 36.7483 	 18.7451 	 84.9722
| 36> H 	 37.2209 	 19.7259 	 84.7251
| 37> H 	 36.9002 	 18.5661 	 86.0449
| 38> H 	 35.7157 	 18.767 	 84.795
| 39> H 	 41.2456 	 22.5327 	 81.267
| 40> H 	 41.396 	 14.2392 	 81.7304
| 41> *
| 42>
| 43>                          ****END OF INPUT****

CARTESIAN COORDINATES (ANGSTROEM)
---------------------------------
  S     41.688400   19.970500   81.477400
  C     40.802500   21.532500   81.349200
  C     39.399500   21.322100   81.434700
  C     39.075700   19.919500   81.666500
  C     40.208800   19.095200   81.643500
  H     38.098800   19.515700   81.762500
  C     38.382200   22.357400   81.447300
  H     37.368700   22.008100   81.280100
  H     38.634000   23.025900   80.663800
  C     38.343300   23.010000   82.868700
  H     37.992700   22.389700   83.640100
  H     39.306300   23.331400   83.195000
  C     37.373200   24.218800   82.908400
  H     37.584300   24.941500   82.163500
  H     36.376000   23.812400   82.736100
  H     37.383000   24.791200   83.835000
  S     41.039400   16.569900   80.798900
  C     40.940600   15.273000   81.942100
  C     40.130000   15.675200   83.007900
  C     39.698200   17.027800   83.000000
  C     40.162200   17.653600   81.859400
  H     39.920900   14.899300   83.734700
  C     38.951700   17.796600   84.134500
  H     39.262800   18.815500   84.161500
  H     39.197900   17.316800   85.093400
  C     37.420700   17.673500   84.065600
  H     37.167200   16.704400   84.385700
  H     36.909200   17.826500   83.085800
  C     36.748300   18.745100   84.972200
  H     37.220900   19.725900   84.725100
  H     36.900200   18.566100   86.044900
  H     35.715700   18.767000   84.795000
  H     41.245600   22.532700   81.267000
  H     41.396000   14.239200   81.730400

 Total Charge           Charge          ....    0
 Multiplicity           Mult            ....    1
 Number of Electrons    NEL             ....  134
 Basis Dimension        Dim             ....  322

ORBITAL ENERGIES
----------------

  NO   OCC          E(Eh)            E(eV)
   0   2.0000     -88.969724     -2420.9893
   1   2.0000     -88.964187     -2420.8386
   2   2.0000     -10.327703      -281.0311
   3   2.0000     -10.324071      -280.9323
   4   2.0000     -10.322395      -280.8867
   5   2.0000     -10.319525      -280.8085
   6   2.0000     -10.305156      -280.4176
   7   2.0000     -10.304280      -280.3937
   8   2.0000     -10.295996      -280.1683
   9   2.0000     -10.294749      -280.1344
  10   2.0000     -10.292692      -280.0784
  11   2.0000     -10.288789      -279.9722
  12   2.0000     -10.286402      -279.9072
  13   2.0000     -10.283121      -279.8180
  14   2.0000     -10.278710      -279.6979
  15   2.0000     -10.273829      -279.5651
  16   2.0000      -8.083517      -219.9637
  17   2.0000      -8.079321      -219.8495
  18   2.0000      -6.042156      -164.4154
  19   2.0000      -6.038107      -164.3053
  20   2.0000      -6.037722      -164.2948
  21   2.0000      -6.034237      -164.1999
  22   2.0000      -6.033639      -164.1837
  23   2.0000      -6.030318      -164.0933
  24   2.0000      -1.004900       -27.3447
  25   2.0000      -0.978356       -26.6224
  26   2.0000      -0.917260       -24.9599
  27   2.0000      -0.907877       -24.7046
  28   2.0000      -0.864161       -23.5150
  29   2.0000      -0.852291       -23.1920
  30   2.0000      -0.844636       -22.9837
  31   2.0000      -0.809160       -22.0184
  32   2.0000      -0.783215       -21.3124
  33   2.0000      -0.769578       -20.9413
  34   2.0000      -0.710512       -19.3340
  35   2.0000      -0.700874       -19.0717
  36   2.0000      -0.694340       -18.8939
  37   2.0000      -0.657611       -17.8945
  38   2.0000      -0.638450       -17.3731
  39   2.0000      -0.617666       -16.8076
  40   2.0000      -0.594834       -16.1862
  41   2.0000      -0.577791       -15.7225
  42   2.0000      -0.569205       -15.4889
  43   2.0000      -0.554259       -15.0822
  44   2.0000      -0.529982       -14.4215
  45   2.0000      -0.525757       -14.3066
  46   2.0000      -0.518876       -14.1193
  47   2.0000      -0.512680       -13.9507
  48   2.0000      -0.507074       -13.7982
  49   2.0000      -0.497367       -13.5341
  50   2.0000      -0.492067       -13.3898
  51   2.0000      -0.474797       -12.9199
  52   2.0000      -0.472657       -12.8617
  53   2.0000      -0.465635       -12.6706
  54   2.0000      -0.455912       -12.4060
  55   2.0000      -0.443723       -12.0743
  56   2.0000      -0.442625       -12.0444
  57   2.0000      -0.440664       -11.9911
  58   2.0000      -0.436486       -11.8774
  59   2.0000      -0.429704       -11.6928
  60   2.0000      -0.427893       -11.6436
  61   2.0000      -0.422952       -11.5091
  62   2.0000      -0.413640       -11.2557
  63   2.0000      -0.338305        -9.2058
  64   2.0000      -0.334035        -9.0895
  65   2.0000      -0.325766        -8.8645
  66   2.0000      -0.291151        -7.9226
  67   0.0000       0.030418         0.8277
  68   0.0000       0.068383         1.8608
  69   0.0000       0.113008         3.0751
  70   0.0000       0.120760         3.2860
  71   0.0000       0.127176         3.4606

MULLIKEN ATOMIC CHARGES
-----------------------
   0 S :    0.125891
   1 C :   -0.140827
   2 C :   -0.085929
   3 C :    0.022901
   4 C :   -0.134874
   5 H :   -0.008215
   6 C :    0.100470
   7 H :    0.016660
   8 H :    0.023069
   9 C :   -0.064064
  10 H :    0.021811
  11 H :    0.015226
  12 C :   -0.034122
  13 H :    0.017702
  14 H :    0.023813
  15 H :    0.033395
  16 S :    0.112051
  17 C :   -0.143208
  18 C :   -0.043897
  19 C :    0.004350
  20 C :   -0.188762
  21 H :    0.015566
  22 C :    0.089761
  23 H :    0.035554
  24 H :    0.023930
  25 C :   -0.080753
  26 H :    0.015327
  27 H :    0.037169
  28 C :   -0.049599
  29 H :    0.032366
  30 H :    0.031798
  31 H :    0.027850
  32 H :    0.054642
  33 H :    0.092948
Sum of atomic charges:    0.0000000

LOEWDIN ATOMIC CHARGES
----------------------
   0 S :    0.407511
   1 C :   -0.202815
   2 C :   -0.050251
   3 C :   -0.061483
   4 C :   -0.196971
   5 H :    0.023916
   6 C :   -0.028513
   7 H :    0.031270
   8 H :    0.030700
   9 C :   -0.024295
  10 H :    0.019386
  11 H :    0.016473
  12 C :   -0.063396
  13 H :    0.016131
  14 H :    0.023121
  15 H :    0.026438
  16 S :    0.409585
  17 C :   -0.206669
  18 C :   -0.077356
  19 C :   -0.049811
  20 C :   -0.204176
  21 H :    0.029179
  22 C :   -0.018810
  23 H :    0.025686
  24 H :    0.034816
  25 C :   -0.036840
  26 H :    0.015207
  27 H :    0.024580
  28 C :   -0.062129
  29 H :    0.026943
  30 H :    0.024309
  31 H :    0.017598
  32 H :    0.031247
  33 H :    0.049418

  Mayer bond orders larger than 0.100000
B(  0-S ,  1-C ) :   1.1223 B(  0-S ,  4-C ) :   1.1661 B(  1-C ,  2-C ) :   1.5914
B(  1-C , 32-H ) :   0.9676 B(  2-C ,  3-C ) :   1.2333 B(  2-C ,  6-C ) :   1.0535
B(  3-C ,  4-C ) :   1.5450 B(  3-C ,  5-H ) :   1.0019 B(  4-C , 20-C ) :   1.0409
B(  6-C ,  7-H ) :   0.9386 B(  6-C ,  8-H ) :   0.9307 B(  6-C ,  9-C ) :   1.0510
B(  9-C , 10-H ) :   0.9578 B(  9-C , 11-H ) :   0.9598 B(  9-C , 12-C ) :   1.0796
B( 12-C , 13-H ) :   0.9771 B( 12-C , 14-H ) :   0.9752 B( 12-C , 15-H ) :   0.9745
B( 16-S , 17-C ) :   1.1617 B( 16-S , 20-C ) :   1.1535 B( 17-C , 18-C ) :   1.5862
B( 17-C , 33-H ) :   0.9586 B( 18-C , 19-C ) :   1.2580 B( 18-C , 21-H ) :   0.9933
B( 19-C , 20-C ) :   1.5685 B( 19-C , 22-C ) :   1.0336 B( 22-C , 23-H ) :   0.9376
B( 22-C , 24-H ) :   0.9342 B( 22-C , 25-C ) :   1.0552 B( 25-C , 26-H ) :   0.9540
B( 25-C , 27-H ) :   0.9610 B( 25-C , 28-C ) :   1.0781 B( 28-C , 29-H ) :   0.9762
B( 28-C , 30-H ) :   0.9742 B( 28-C , 31-H ) :   0.9762

Dispersion correction           -0.014905258
FINAL SINGLE POINT ENERGY     -1339.877803226432

DIPOLE MOMENT
-------------
                                X             Y             Z
Electronic contribution:     23.60507     -17.20935     -16.01563
Nuclear contribution   :    -24.10905      17.37000      16.47436
                        -----------------------------------------
Total Dipole Moment    :     -0.50398       0.16065       0.45873
                        -----------------------------------------
Magnitude (a.u.)       :      0.70017
Magnitude (Debye)      :      1.77968

Rotational constants in cm-1:     0.019790     0.009143     0.006673
Rotational constants in MHz :   593.301540   274.085382   200.058934

                             ****ORCA TERMINATED NORMALLY****
TOTAL RUN TIME: 0 days 0 hours 0 minutes 31 seconds 259 msec
