                         Program Version 4.2.1 -  RELEASE  -
|  1> ! wB97X-D3 SP def2-SVP
|  2> %pal
|  3> nprocs 16
|  4> end
|  5>
|  6> * xyz 0 1
|  7> S 	 -42.516 	 51.3046 	 104.482
|  8> C 	 -43.4013 	 51.8399 	 105.895
|  9> C 	 -44.1875 	 50.8793 	 106.36
| 10> C 	 -43.8676 	 49.6215 	 105.766
| 11> C 	 -43.004 	 49.6229 	 104.702
| 12> H 	 -44.3892 	 48.7447 	 106.1
| 13> C 	 -45.1387 	 51.0539 	 107.506
| 14> H 	 -45.0743 	 52.1339 	 107.748
| 15> H 	 -44.6429 	 50.447 	 108.292
| 16> C 	 -46.6095 	 50.5903 	 107.345
| 17> H 	 -46.5108 	 49.5816 	 106.966
| 18> H 	 -46.9449 	 50.5348 	 108.349
| 19> C 	 -47.4103 	 51.5531 	 106.566
| 20> H 	 -47.2283 	 52.5328 	 106.952
| 21> H 	 -47.0311 	 51.6319 	 105.517
| 22> H 	 -48.451 	 51.2768 	 106.654
| 23> S 	 -43.7855 	 47.6764 	 102.995
| 24> C 	 -42.481 	 46.7309 	 102.196
| 25> C 	 -41.1919 	 46.9641 	 102.658
| 26> C 	 -41.2593 	 48.0314 	 103.606
| 27> C 	 -42.5642 	 48.4325 	 103.953
| 28> H 	 -40.3175 	 46.4302 	 102.273
| 29> C 	 -39.9462 	 48.6854 	 104.054
| 30> H 	 -39.6282 	 48.2118 	 104.987
| 31> H 	 -40.2263 	 49.6637 	 104.344
| 32> C 	 -38.8394 	 48.8383 	 103.031
| 33> H 	 -39.1453 	 49.5042 	 102.256
| 34> H 	 -38.7416 	 47.9372 	 102.43
| 35> C 	 -37.4352 	 49.3468 	 103.524
| 36> H 	 -37.7408 	 50.3224 	 103.937
| 37> H 	 -36.7759 	 49.3765 	 102.673
| 38> H 	 -36.9273 	 48.7935 	 104.324
| 39> H 	 -43.5192 	 52.8966 	 106.064
| 40> H 	 -42.593 	 45.8474 	 101.512
| 41> *
| 42>
| 43>                          ****END OF INPUT****

CARTESIAN COORDINATES (ANGSTROEM)
---------------------------------
  S    -42.516000   51.304600  104.482000
  C    -43.401300   51.839900  105.895000
  C    -44.187500   50.879300  106.360000
  C    -43.867600   49.621500  105.766000
  C    -43.004000   49.622900  104.702000
  H    -44.389200   48.744700  106.100000
  C    -45.138700   51.053900  107.506000
  H    -45.074300   52.133900  107.748000
  H    -44.642900   50.447000  108.292000
  C    -46.609500   50.590300  107.345000
  H    -46.510800   49.581600  106.966000
  H    -46.944900   50.534800  108.349000
  C    -47.410300   51.553100  106.566000
  H    -47.228300   52.532800  106.952000
  H    -47.031100   51.631900  105.517000
  H    -48.451000   51.276800  106.654000
  S    -43.785500   47.676400  102.995000
  C    -42.481000   46.730900  102.196000
  C    -41.191900   46.964100  102.658000
  C    -41.259300   48.031400  103.606000
  C    -42.564200   48.432500  103.953000
  H    -40.317500   46.430200  102.273000
  C    -39.946200   48.685400  104.054000
  H    -39.628200   48.211800  104.987000
  H    -40.226300   49.663700  104.344000
  C    -38.839400   48.838300  103.031000
  H    -39.145300   49.504200  102.256000
  H    -38.741600   47.937200  102.430000
  C    -37.435200   49.346800  103.524000
  H    -37.740800   50.322400  103.937000
  H    -36.775900   49.376500  102.673000
  H    -36.927300   48.793500  104.324000
  H    -43.519200   52.896600  106.064000
  H    -42.593000   45.847400  101.512000

 Total Charge           Charge          ....    0
 Multiplicity           Mult            ....    1
 Number of Electrons    NEL             ....  134
 Basis Dimension        Dim             ....  322

ORBITAL ENERGIES
----------------

  NO   OCC          E(Eh)            E(eV)
   0   2.0000     -88.973500     -2421.0920
   1   2.0000     -88.960273     -2420.7321
   2   2.0000     -10.330176      -281.0984
   3   2.0000     -10.327569      -281.0274
   4   2.0000     -10.324884      -280.9544
   5   2.0000     -10.307709      -280.4870
   6   2.0000     -10.305668      -280.4315
   7   2.0000     -10.298150      -280.2269
   8   2.0000     -10.292493      -280.0730
   9   2.0000     -10.290986      -280.0320
  10   2.0000     -10.287614      -279.9402
  11   2.0000     -10.283480      -279.8277
  12   2.0000     -10.282788      -279.8089
  13   2.0000     -10.281695      -279.7792
  14   2.0000     -10.281245      -279.7669
  15   2.0000     -10.274650      -279.5874
  16   2.0000      -8.087397      -220.0693
  17   2.0000      -8.074768      -219.7256
  18   2.0000      -6.045935      -164.5183
  19   2.0000      -6.042170      -164.4158
  20   2.0000      -6.038012      -164.3027
  21   2.0000      -6.033434      -164.1781
  22   2.0000      -6.029318      -164.0661
  23   2.0000      -6.025358      -163.9583
  24   2.0000      -1.007206       -27.4075
  25   2.0000      -0.985976       -26.8298
  26   2.0000      -0.918107       -24.9829
  27   2.0000      -0.906200       -24.6589
  28   2.0000      -0.874882       -23.8067
  29   2.0000      -0.852169       -23.1887
  30   2.0000      -0.842784       -22.9333
  31   2.0000      -0.818087       -22.2613
  32   2.0000      -0.782017       -21.2798
  33   2.0000      -0.770370       -20.9628
  34   2.0000      -0.710585       -19.3360
  35   2.0000      -0.702243       -19.1090
  36   2.0000      -0.690788       -18.7973
  37   2.0000      -0.660087       -17.9619
  38   2.0000      -0.637083       -17.3359
  39   2.0000      -0.621840       -16.9211
  40   2.0000      -0.592767       -16.1300
  41   2.0000      -0.570902       -15.5350
  42   2.0000      -0.559338       -15.2204
  43   2.0000      -0.556715       -15.1490
  44   2.0000      -0.542464       -14.7612
  45   2.0000      -0.525910       -14.3107
  46   2.0000      -0.521460       -14.1896
  47   2.0000      -0.514921       -14.0117
  48   2.0000      -0.507492       -13.8096
  49   2.0000      -0.501799       -13.6547
  50   2.0000      -0.485977       -13.2241
  51   2.0000      -0.478088       -13.0094
  52   2.0000      -0.469923       -12.7873
  53   2.0000      -0.460927       -12.5425
  54   2.0000      -0.455056       -12.3827
  55   2.0000      -0.454441       -12.3660
  56   2.0000      -0.442383       -12.0378
  57   2.0000      -0.438850       -11.9417
  58   2.0000      -0.436134       -11.8678
  59   2.0000      -0.424734       -11.5576
  60   2.0000      -0.423053       -11.5119
  61   2.0000      -0.411332       -11.1929
  62   2.0000      -0.405468       -11.0334
  63   2.0000      -0.347619        -9.4592
  64   2.0000      -0.330925        -9.0049
  65   2.0000      -0.323919        -8.8143
  66   2.0000      -0.298621        -8.1259
  67   0.0000       0.033474         0.9109
  68   0.0000       0.067636         1.8405
  69   0.0000       0.105948         2.8830
  70   0.0000       0.115688         3.1480
  71   0.0000       0.125927         3.4266

MULLIKEN ATOMIC CHARGES
-----------------------
   0 S :    0.091382
   1 C :   -0.141336
   2 C :   -0.069848
   3 C :    0.011944
   4 C :   -0.122088
   5 H :   -0.000679
   6 C :    0.005895
   7 H :    0.013598
   8 H :    0.045871
   9 C :   -0.028639
  10 H :    0.021652
  11 H :    0.019710
  12 C :   -0.014676
  13 H :    0.011907
  14 H :    0.042558
  15 H :    0.042255
  16 S :    0.128179
  17 C :   -0.104034
  18 C :   -0.051070
  19 C :   -0.077421
  20 C :   -0.151650
  21 H :    0.042605
  22 C :    0.141273
  23 H :    0.035840
  24 H :   -0.008866
  25 C :   -0.098079
  26 H :    0.022032
  27 H :    0.008198
  28 C :   -0.045206
  29 H :    0.038007
  30 H :    0.039099
  31 H :    0.037913
  32 H :    0.048909
  33 H :    0.064763
Sum of atomic charges:   -0.0000000

LOEWDIN ATOMIC CHARGES
----------------------
   0 S :    0.389684
   1 C :   -0.191229
   2 C :   -0.075711
   3 C :   -0.066148
   4 C :   -0.189370
   5 H :    0.022618
   6 C :   -0.030087
   7 H :    0.027442
   8 H :    0.039642
   9 C :   -0.037434
  10 H :    0.022337
  11 H :    0.022340
  12 C :   -0.061156
  13 H :    0.021632
  14 H :    0.035260
  15 H :    0.028465
  16 S :    0.413143
  17 C :   -0.177424
  18 C :   -0.069782
  19 C :   -0.043856
  20 C :   -0.215426
  21 H :    0.040429
  22 C :   -0.033513
  23 H :    0.035762
  24 H :    0.013393
  25 C :   -0.043138
  26 H :    0.025021
  27 H :    0.012586
  28 C :   -0.059622
  29 H :    0.030821
  30 H :    0.026932
  31 H :    0.024773
  32 H :    0.025673
  33 H :    0.035943

  Mayer bond orders larger than 0.100000
B(  0-S ,  1-C ) :   1.1307 B(  0-S ,  4-C ) :   1.1258 B(  1-C ,  2-C ) :   1.6406
B(  1-C , 32-H ) :   0.9597 B(  2-C ,  3-C ) :   1.2232 B(  2-C ,  6-C ) :   1.0181
B(  3-C ,  4-C ) :   1.5888 B(  3-C ,  5-H ) :   0.9950 B(  4-C , 20-C ) :   1.0281
B(  6-C ,  7-H ) :   0.9424 B(  6-C ,  8-H ) :   0.9378 B(  6-C ,  9-C ) :   1.0721
B(  9-C , 10-H ) :   0.9517 B(  9-C , 11-H ) :   0.9489 B(  9-C , 12-C ) :   1.0816
B( 12-C , 13-H ) :   0.9688 B( 12-C , 14-H ) :   0.9739 B( 12-C , 15-H ) :   0.9715
B( 16-S , 17-C ) :   1.1509 B( 16-S , 20-C ) :   1.1410 B( 17-C , 18-C ) :   1.6328
B( 17-C , 33-H ) :   0.9528 B( 18-C , 19-C ) :   1.2347 B( 18-C , 21-H ) :   0.9820
B( 19-C , 20-C ) :   1.5945 B( 19-C , 22-C ) :   1.0335 B( 22-C , 23-H ) :   0.9277
B( 22-C , 24-H ) :   0.9201 B( 22-C , 25-C ) :   1.0609 B( 25-C , 26-H ) :   0.9526
B( 25-C , 27-H ) :   0.9530 B( 25-C , 28-C ) :   1.0731 B( 28-C , 29-H ) :   0.9785
B( 28-C , 30-H ) :   0.9743 B( 28-C , 31-H ) :   0.9795

Dispersion correction           -0.013823148
FINAL SINGLE POINT ENERGY     -1339.863620392226

DIPOLE MOMENT
-------------
                                X             Y             Z
Electronic contribution:     -3.95224      -5.01288      -8.78318
Nuclear contribution   :      3.95496       4.93148       8.99934
                        -----------------------------------------
Total Dipole Moment    :      0.00272      -0.08140       0.21615
                        -----------------------------------------
Magnitude (a.u.)       :      0.23099
Magnitude (Debye)      :      0.58713

Rotational constants in cm-1:     0.023038     0.007522     0.006085
Rotational constants in MHz :   690.662370   225.506325   182.430789

                             ****ORCA TERMINATED NORMALLY****
TOTAL RUN TIME: 0 days 0 hours 0 minutes 28 seconds 922 msec
