                         Program Version 4.2.1 -  RELEASE  -
|  1> ! wB97X-D3 SP def2-SVP
|  2> %pal
|  3> nprocs 16
|  4> end
|  5>
|  6> * xyz 0 1
|  7> S 	 3.32449 	 12.4058 	 83.7572
|  8> C 	 3.85994 	 13.3195 	 82.4403
|  9> C 	 4.33783 	 12.5556 	 81.3906
| 10> C 	 4.29485 	 11.1469 	 81.6979
| 11> C 	 3.72283 	 10.8857 	 82.9257
| 12> H 	 4.5155 	 10.3368 	 81.0132
| 13> C 	 4.83416 	 13.1192 	 80.0761
| 14> H 	 4.86569 	 12.3572 	 79.3094
| 15> H 	 5.92574 	 13.3464 	 80.18
| 16> C 	 4.04673 	 14.3414 	 79.5909
| 17> H 	 2.99144 	 14.3701 	 79.8772
| 18> H 	 4.56812 	 15.1095 	 80.1429
| 19> C 	 4.15596 	 14.6792 	 78.0377
| 20> H 	 3.66912 	 15.6202 	 77.7737
| 21> H 	 5.20574 	 14.7393 	 77.875
| 22> H 	 3.80099 	 13.9058 	 77.3443
| 23> S 	 1.75257 	 8.97717 	 82.8656
| 24> C 	 1.89549 	 7.73549 	 84.0878
| 25> C 	 3.09937 	 7.72134 	 84.6998
| 26> C 	 3.95465 	 8.81044 	 84.2274
| 27> C 	 3.31504 	 9.65352 	 83.3882
| 28> H 	 3.38829 	 6.91857 	 85.3783
| 29> C 	 5.39452 	 8.9362 	 84.7297
| 30> H 	 5.81968 	 9.77125 	 84.172
| 31> H 	 6.07061 	 8.18125 	 84.5391
| 32> C 	 5.44682 	 9.4181 	 86.1988
| 33> H 	 6.52028 	 9.52838 	 86.428
| 34> H 	 5.03792 	 8.59011 	 86.8394
| 35> C 	 4.58129 	 10.7467 	 86.4502
| 36> H 	 4.74844 	 11.5234 	 85.6734
| 37> H 	 4.74084 	 11.2568 	 87.4702
| 38> H 	 3.55522 	 10.4142 	 86.3584
| 39> H 	 3.8882 	 14.3858 	 82.511
| 40> H 	 1.18148 	 7.03743 	 84.4452
| 41> *
| 42>
| 43>                          ****END OF INPUT****

CARTESIAN COORDINATES (ANGSTROEM)
---------------------------------
  S      3.324490   12.405800   83.757200
  C      3.859940   13.319500   82.440300
  C      4.337830   12.555600   81.390600
  C      4.294850   11.146900   81.697900
  C      3.722830   10.885700   82.925700
  H      4.515500   10.336800   81.013200
  C      4.834160   13.119200   80.076100
  H      4.865690   12.357200   79.309400
  H      5.925740   13.346400   80.180000
  C      4.046730   14.341400   79.590900
  H      2.991440   14.370100   79.877200
  H      4.568120   15.109500   80.142900
  C      4.155960   14.679200   78.037700
  H      3.669120   15.620200   77.773700
  H      5.205740   14.739300   77.875000
  H      3.800990   13.905800   77.344300
  S      1.752570    8.977170   82.865600
  C      1.895490    7.735490   84.087800
  C      3.099370    7.721340   84.699800
  C      3.954650    8.810440   84.227400
  C      3.315040    9.653520   83.388200
  H      3.388290    6.918570   85.378300
  C      5.394520    8.936200   84.729700
  H      5.819680    9.771250   84.172000
  H      6.070610    8.181250   84.539100
  C      5.446820    9.418100   86.198800
  H      6.520280    9.528380   86.428000
  H      5.037920    8.590110   86.839400
  C      4.581290   10.746700   86.450200
  H      4.748440   11.523400   85.673400
  H      4.740840   11.256800   87.470200
  H      3.555220   10.414200   86.358400
  H      3.888200   14.385800   82.511000
  H      1.181480    7.037430   84.445200

 Total Charge           Charge          ....    0
 Multiplicity           Mult            ....    1
 Number of Electrons    NEL             ....  134
 Basis Dimension        Dim             ....  322

ORBITAL ENERGIES
----------------

  NO   OCC          E(Eh)            E(eV)
   0   2.0000     -88.965268     -2420.8680
   1   2.0000     -88.962181     -2420.7840
   2   2.0000     -10.320003      -280.8216
   3   2.0000     -10.314512      -280.6721
   4   2.0000     -10.311465      -280.5892
   5   2.0000     -10.309308      -280.5305
   6   2.0000     -10.301822      -280.3268
   7   2.0000     -10.300770      -280.2982
   8   2.0000     -10.296430      -280.1801
   9   2.0000     -10.294421      -280.1254
  10   2.0000     -10.291551      -280.0473
  11   2.0000     -10.289937      -280.0034
  12   2.0000     -10.289172      -279.9826
  13   2.0000     -10.282593      -279.8036
  14   2.0000     -10.281019      -279.7608
  15   2.0000     -10.279649      -279.7235
  16   2.0000      -8.080367      -219.8780
  17   2.0000      -8.076847      -219.7822
  18   2.0000      -6.038760      -164.3230
  19   2.0000      -6.035546      -164.2356
  20   2.0000      -6.034711      -164.2128
  21   2.0000      -6.031549      -164.1268
  22   2.0000      -6.031297      -164.1199
  23   2.0000      -6.027210      -164.0087
  24   2.0000      -1.010800       -27.5053
  25   2.0000      -0.984822       -26.7984
  26   2.0000      -0.909776       -24.7563
  27   2.0000      -0.900605       -24.5067
  28   2.0000      -0.878172       -23.8963
  29   2.0000      -0.849085       -23.1048
  30   2.0000      -0.832222       -22.6459
  31   2.0000      -0.813853       -22.1461
  32   2.0000      -0.783930       -21.3318
  33   2.0000      -0.768179       -20.9032
  34   2.0000      -0.713523       -19.4159
  35   2.0000      -0.702173       -19.1071
  36   2.0000      -0.688937       -18.7469
  37   2.0000      -0.654799       -17.8180
  38   2.0000      -0.651686       -17.7333
  39   2.0000      -0.610857       -16.6223
  40   2.0000      -0.598087       -16.2748
  41   2.0000      -0.569916       -15.5082
  42   2.0000      -0.560985       -15.2652
  43   2.0000      -0.545316       -14.8388
  44   2.0000      -0.538457       -14.6522
  45   2.0000      -0.524376       -14.2690
  46   2.0000      -0.519080       -14.1249
  47   2.0000      -0.507331       -13.8052
  48   2.0000      -0.506074       -13.7710
  49   2.0000      -0.496195       -13.5021
  50   2.0000      -0.483659       -13.1610
  51   2.0000      -0.481566       -13.1041
  52   2.0000      -0.474664       -12.9163
  53   2.0000      -0.459265       -12.4972
  54   2.0000      -0.458113       -12.4659
  55   2.0000      -0.445916       -12.1340
  56   2.0000      -0.442889       -12.0516
  57   2.0000      -0.439929       -11.9711
  58   2.0000      -0.431283       -11.7358
  59   2.0000      -0.424031       -11.5385
  60   2.0000      -0.415479       -11.3058
  61   2.0000      -0.411802       -11.2057
  62   2.0000      -0.407241       -11.0816
  63   2.0000      -0.337432        -9.1820
  64   2.0000      -0.328531        -8.9398
  65   2.0000      -0.317800        -8.6478
  66   2.0000      -0.308480        -8.3942
  67   0.0000       0.045211         1.2302
  68   0.0000       0.050306         1.3689
  69   0.0000       0.106657         2.9023
  70   0.0000       0.121532         3.3071
  71   0.0000       0.132350         3.6014

MULLIKEN ATOMIC CHARGES
-----------------------
   0 S :    0.128625
   1 C :   -0.124191
   2 C :   -0.089905
   3 C :    0.048530
   4 C :   -0.201516
   5 H :    0.018832
   6 C :    0.074678
   7 H :    0.008250
   8 H :    0.045135
   9 C :   -0.108533
  10 H :    0.046287
  11 H :    0.029401
  12 C :   -0.043237
  13 H :    0.040858
  14 H :    0.018848
  15 H :    0.039106
  16 S :    0.119033
  17 C :   -0.060379
  18 C :   -0.042467
  19 C :   -0.029285
  20 C :   -0.182615
  21 H :    0.025355
  22 C :    0.109891
  23 H :    0.015371
  24 H :    0.018756
  25 C :   -0.102803
  26 H :    0.035271
  27 H :    0.035737
  28 C :   -0.099736
  29 H :    0.044218
  30 H :    0.051165
  31 H :    0.046778
  32 H :    0.044519
  33 H :    0.040024
Sum of atomic charges:    0.0000000

LOEWDIN ATOMIC CHARGES
----------------------
   0 S :    0.447321
   1 C :   -0.208347
   2 C :   -0.065482
   3 C :   -0.045089
   4 C :   -0.196114
   5 H :    0.035016
   6 C :   -0.036600
   7 H :    0.022080
   8 H :    0.039819
   9 C :   -0.041049
  10 H :    0.024789
  11 H :    0.023572
  12 C :   -0.063656
  13 H :    0.028607
  14 H :    0.019380
  15 H :    0.026318
  16 S :    0.384433
  17 C :   -0.174138
  18 C :   -0.074117
  19 C :   -0.039722
  20 C :   -0.203904
  21 H :    0.033885
  22 C :   -0.029368
  23 H :    0.030643
  24 H :    0.021425
  25 C :   -0.037797
  26 H :    0.022196
  27 H :    0.021521
  28 C :   -0.082860
  29 H :    0.009409
  30 H :    0.035190
  31 H :    0.023064
  32 H :    0.022699
  33 H :    0.026876

  Mayer bond orders larger than 0.100000
B(  0-S ,  1-C ) :   1.1633 B(  0-S ,  4-C ) :   1.1363 B(  1-C ,  2-C ) :   1.5917
B(  1-C , 32-H ) :   0.9711 B(  2-C ,  3-C ) :   1.2464 B(  2-C ,  6-C ) :   1.0237
B(  3-C ,  4-C ) :   1.5815 B(  3-C ,  5-H ) :   0.9941 B(  4-C , 20-C ) :   1.0822
B(  6-C ,  7-H ) :   0.9476 B(  6-C ,  8-H ) :   0.9294 B(  6-C ,  9-C ) :   1.0425
B(  9-C , 10-H ) :   0.9706 B(  9-C , 11-H ) :   0.9520 B(  9-C , 12-C ) :   1.0773
B( 12-C , 13-H ) :   0.9768 B( 12-C , 14-H ) :   0.9756 B( 12-C , 15-H ) :   0.9787
B( 16-S , 17-C ) :   1.1273 B( 16-S , 20-C ) :   1.0948 B( 17-C , 18-C ) :   1.6817
B( 17-C , 33-H ) :   0.9630 B( 18-C , 19-C ) :   1.1752 B( 18-C , 21-H ) :   0.9858
B( 19-C , 20-C ) :   1.6579 B( 19-C , 22-C ) :   1.0392 B( 22-C , 23-H ) :   0.9234
B( 22-C , 24-H ) :   0.9445 B( 22-C , 25-C ) :   1.0638 B( 25-C , 26-H ) :   0.9610
B( 25-C , 27-H ) :   0.9625 B( 25-C , 28-C ) :   1.0475 B( 28-C , 29-H ) :   0.9680
B( 28-C , 30-H ) :   0.9747 B( 28-C , 31-H ) :   0.9726

Dispersion correction           -0.015400776
FINAL SINGLE POINT ENERGY     -1339.867439803730

DIPOLE MOMENT
-------------
                                X             Y             Z
Electronic contribution:    -12.60618     -10.25497       5.30882
Nuclear contribution   :     13.01685      10.27411      -5.50315
                        -----------------------------------------
Total Dipole Moment    :      0.41067       0.01915      -0.19434
                        -----------------------------------------
Magnitude (a.u.)       :      0.45473
Magnitude (Debye)      :      1.15583

Rotational constants in cm-1:     0.025051     0.007605     0.006666
Rotational constants in MHz :   751.017488   228.001824   199.836804

                             ****ORCA TERMINATED NORMALLY****
TOTAL RUN TIME: 0 days 0 hours 0 minutes 35 seconds 464 msec
