                         Program Version 4.2.1 -  RELEASE  -
|  1> ! wB97X-D3 SP def2-SVP
|  2> %pal
|  3> nprocs 16
|  4> end
|  5>
|  6> * xyz 0 1
|  7> S 	 -50.4546 	 27.8505 	 93.7644
|  8> C 	 -49.0179 	 26.9102 	 93.2863
|  9> C 	 -49.392 	 25.702 	 92.7204
| 10> C 	 -50.7499 	 25.7337 	 92.2619
| 11> C 	 -51.489 	 26.7941 	 92.7934
| 12> H 	 -51.2873 	 24.9806 	 91.6767
| 13> C 	 -48.5492 	 24.4368 	 92.5066
| 14> H 	 -47.591 	 24.8442 	 92.861
| 15> H 	 -48.3681 	 24.2501 	 91.4338
| 16> C 	 -48.8402 	 23.1588 	 93.2388
| 17> H 	 -49.1133 	 23.3273 	 94.3125
| 18> H 	 -49.7402 	 22.6754 	 92.883
| 19> C 	 -47.7003 	 22.0935 	 93.2955
| 20> H 	 -48.1258 	 21.2629 	 93.7571
| 21> H 	 -47.5139 	 21.8028 	 92.2459
| 22> H 	 -46.8404 	 22.3977 	 93.7366
| 23> S 	 -53.2494 	 28.8131 	 92.4392
| 24> C 	 -54.936 	 28.4394 	 92.3543
| 25> C 	 -55.1147 	 27.0808 	 92.2739
| 26> C 	 -53.9781 	 26.2481 	 92.5311
| 27> C 	 -52.8437 	 27.0792 	 92.5713
| 28> H 	 -56.0599 	 26.6347 	 92.0668
| 29> C 	 -54.0809 	 24.6663 	 92.6606
| 30> H 	 -54.8757 	 24.4776 	 93.3398
| 31> H 	 -53.1663 	 24.2581 	 93.1235
| 32> C 	 -54.4263 	 23.9537 	 91.3447
| 33> H 	 -53.7267 	 24.2422 	 90.5364
| 34> H 	 -55.4656 	 24.217 	 91.108
| 35> C 	 -54.4452 	 22.4474 	 91.2627
| 36> H 	 -54.536 	 22.0168 	 90.2797
| 37> H 	 -55.186 	 22.0747 	 91.9519
| 38> H 	 -53.526 	 22.0832 	 91.7042
| 39> H 	 -48.0347 	 27.1637 	 93.5374
| 40> H 	 -55.67 	 29.1235 	 92.2015
| 41> *
| 42>
| 43>                          ****END OF INPUT****

CARTESIAN COORDINATES (ANGSTROEM)
---------------------------------
  S    -50.454600   27.850500   93.764400
  C    -49.017900   26.910200   93.286300
  C    -49.392000   25.702000   92.720400
  C    -50.749900   25.733700   92.261900
  C    -51.489000   26.794100   92.793400
  H    -51.287300   24.980600   91.676700
  C    -48.549200   24.436800   92.506600
  H    -47.591000   24.844200   92.861000
  H    -48.368100   24.250100   91.433800
  C    -48.840200   23.158800   93.238800
  H    -49.113300   23.327300   94.312500
  H    -49.740200   22.675400   92.883000
  C    -47.700300   22.093500   93.295500
  H    -48.125800   21.262900   93.757100
  H    -47.513900   21.802800   92.245900
  H    -46.840400   22.397700   93.736600
  S    -53.249400   28.813100   92.439200
  C    -54.936000   28.439400   92.354300
  C    -55.114700   27.080800   92.273900
  C    -53.978100   26.248100   92.531100
  C    -52.843700   27.079200   92.571300
  H    -56.059900   26.634700   92.066800
  C    -54.080900   24.666300   92.660600
  H    -54.875700   24.477600   93.339800
  H    -53.166300   24.258100   93.123500
  C    -54.426300   23.953700   91.344700
  H    -53.726700   24.242200   90.536400
  H    -55.465600   24.217000   91.108000
  C    -54.445200   22.447400   91.262700
  H    -54.536000   22.016800   90.279700
  H    -55.186000   22.074700   91.951900
  H    -53.526000   22.083200   91.704200
  H    -48.034700   27.163700   93.537400
  H    -55.670000   29.123500   92.201500

 Total Charge           Charge          ....    0
 Multiplicity           Mult            ....    1
 Number of Electrons    NEL             ....  134
 Basis Dimension        Dim             ....  322

ORBITAL ENERGIES
----------------

  NO   OCC          E(Eh)            E(eV)
   0   2.0000     -88.965703     -2420.8798
   1   2.0000     -88.965501     -2420.8743
   2   2.0000     -10.327289      -281.0198
   3   2.0000     -10.325028      -280.9583
   4   2.0000     -10.313881      -280.6550
   5   2.0000     -10.311772      -280.5976
   6   2.0000     -10.309464      -280.5348
   7   2.0000     -10.304887      -280.4102
   8   2.0000     -10.303536      -280.3735
   9   2.0000     -10.294345      -280.1234
  10   2.0000     -10.292609      -280.0761
  11   2.0000     -10.291062      -280.0340
  12   2.0000     -10.289981      -280.0046
  13   2.0000     -10.289631      -279.9951
  14   2.0000     -10.276235      -279.6306
  15   2.0000     -10.271537      -279.5027
  16   2.0000      -8.080164      -219.8724
  17   2.0000      -8.079586      -219.8567
  18   2.0000      -6.038664      -164.3204
  19   2.0000      -6.038255      -164.3093
  20   2.0000      -6.034731      -164.2134
  21   2.0000      -6.034337      -164.2027
  22   2.0000      -6.030864      -164.1081
  23   2.0000      -6.030089      -164.0871
  24   2.0000      -1.004865       -27.3438
  25   2.0000      -0.978613       -26.6294
  26   2.0000      -0.911490       -24.8029
  27   2.0000      -0.910137       -24.7661
  28   2.0000      -0.874628       -23.7998
  29   2.0000      -0.856340       -23.3022
  30   2.0000      -0.843848       -22.9623
  31   2.0000      -0.812208       -22.1013
  32   2.0000      -0.790361       -21.5068
  33   2.0000      -0.778451       -21.1827
  34   2.0000      -0.712210       -19.3802
  35   2.0000      -0.700804       -19.0698
  36   2.0000      -0.695643       -18.9294
  37   2.0000      -0.663366       -18.0511
  38   2.0000      -0.641747       -17.4628
  39   2.0000      -0.614734       -16.7278
  40   2.0000      -0.600724       -16.3465
  41   2.0000      -0.575566       -15.6619
  42   2.0000      -0.569648       -15.5009
  43   2.0000      -0.557793       -15.1783
  44   2.0000      -0.536144       -14.5892
  45   2.0000      -0.527346       -14.3498
  46   2.0000      -0.518968       -14.1218
  47   2.0000      -0.512108       -13.9352
  48   2.0000      -0.509190       -13.8558
  49   2.0000      -0.499064       -13.5802
  50   2.0000      -0.498445       -13.5634
  51   2.0000      -0.485216       -13.2034
  52   2.0000      -0.475111       -12.9284
  53   2.0000      -0.470881       -12.8133
  54   2.0000      -0.464800       -12.6478
  55   2.0000      -0.451665       -12.2904
  56   2.0000      -0.446074       -12.1383
  57   2.0000      -0.441288       -12.0080
  58   2.0000      -0.428833       -11.6691
  59   2.0000      -0.420286       -11.4366
  60   2.0000      -0.416854       -11.3432
  61   2.0000      -0.414046       -11.2668
  62   2.0000      -0.412270       -11.2184
  63   2.0000      -0.349235        -9.5032
  64   2.0000      -0.333905        -9.0860
  65   2.0000      -0.326562        -8.8862
  66   2.0000      -0.283781        -7.7221
  67   0.0000       0.018658         0.5077
  68   0.0000       0.079505         2.1635
  69   0.0000       0.096740         2.6324
  70   0.0000       0.114414         3.1134
  71   0.0000       0.120467         3.2781

MULLIKEN ATOMIC CHARGES
-----------------------
   0 S :    0.103663
   1 C :   -0.102852
   2 C :   -0.093323
   3 C :    0.014677
   4 C :   -0.137517
   5 H :    0.014700
   6 C :    0.087032
   7 H :    0.000236
   8 H :    0.037697
   9 C :   -0.092479
  10 H :    0.029207
  11 H :    0.018274
  12 C :    0.009276
  13 H :    0.021507
  14 H :    0.022615
  15 H :    0.020261
  16 S :    0.106796
  17 C :   -0.038395
  18 C :   -0.027737
  19 C :   -0.029670
  20 C :   -0.173404
  21 H :    0.001925
  22 C :    0.094098
  23 H :    0.020432
  24 H :    0.029829
  25 C :   -0.111730
  26 H :    0.039545
  27 H :    0.028189
  28 C :   -0.012720
  29 H :    0.045491
  30 H :    0.017190
  31 H :    0.008463
  32 H :    0.027695
  33 H :    0.021030
Sum of atomic charges:   -0.0000000

LOEWDIN ATOMIC CHARGES
----------------------
   0 S :    0.381131
   1 C :   -0.178887
   2 C :   -0.056176
   3 C :   -0.063958
   4 C :   -0.188165
   5 H :    0.031723
   6 C :   -0.040027
   7 H :    0.029423
   8 H :    0.034284
   9 C :   -0.043881
  10 H :    0.029027
  11 H :    0.019054
  12 C :   -0.041497
  13 H :    0.022571
  14 H :    0.027634
  15 H :    0.009937
  16 S :    0.402014
  17 C :   -0.174683
  18 C :   -0.063914
  19 C :   -0.043859
  20 C :   -0.186716
  21 H :    0.022058
  22 C :   -0.021687
  23 H :    0.027746
  24 H :    0.030076
  25 C :   -0.047642
  26 H :    0.026861
  27 H :    0.024323
  28 C :   -0.062687
  29 H :    0.029839
  30 H :    0.021451
  31 H :    0.019745
  32 H :    0.015119
  33 H :    0.009762

  Mayer bond orders larger than 0.100000
B(  0-S ,  1-C ) :   1.1210 B(  0-S ,  4-C ) :   1.1257 B(  1-C ,  2-C ) :   1.6262
B(  1-C , 32-H ) :   0.9723 B(  2-C ,  3-C ) :   1.2095 B(  2-C ,  6-C ) :   1.0228
B(  3-C ,  4-C ) :   1.5747 B(  3-C ,  5-H ) :   0.9892 B(  4-C , 20-C ) :   1.1169
B(  6-C ,  7-H ) :   0.9336 B(  6-C ,  8-H ) :   0.9355 B(  6-C ,  9-C ) :   1.0642
B(  9-C , 10-H ) :   0.9539 B(  9-C , 11-H ) :   0.9516 B(  9-C , 12-C ) :   1.0888
B( 12-C , 13-H ) :   0.9727 B( 12-C , 14-H ) :   0.9749 B( 12-C , 15-H ) :   0.9796
B( 16-S , 17-C ) :   1.1418 B( 16-S , 20-C ) :   1.1383 B( 17-C , 18-C ) :   1.6068
B( 17-C , 33-H ) :   0.9812 B( 18-C , 19-C ) :   1.2449 B( 18-C , 21-H ) :   0.9862
B( 19-C , 20-C ) :   1.5721 B( 19-C , 22-C ) :   1.0366 B( 22-C , 23-H ) :   0.9293
B( 22-C , 24-H ) :   0.9371 B( 22-C , 25-C ) :   1.0617 B( 25-C , 26-H ) :   0.9583
B( 25-C , 27-H ) :   0.9535 B( 25-C , 28-C ) :   1.0921 B( 28-C , 29-H ) :   0.9740
B( 28-C , 30-H ) :   0.9709 B( 28-C , 31-H ) :   0.9695

Dispersion correction           -0.013710466
FINAL SINGLE POINT ENERGY     -1339.857148198757

DIPOLE MOMENT
-------------
                                X             Y             Z
Electronic contribution:     -3.76102      33.39134       4.53779
Nuclear contribution   :      3.63057     -34.19314      -4.66346
                        -----------------------------------------
Total Dipole Moment    :     -0.13045      -0.80180      -0.12567
                        -----------------------------------------
Magnitude (a.u.)       :      0.82200
Magnitude (Debye)      :      2.08937

Rotational constants in cm-1:     0.016340     0.009405     0.006186
Rotational constants in MHz :   489.873110   281.963221   185.451726

                             ****ORCA TERMINATED NORMALLY****
TOTAL RUN TIME: 0 days 0 hours 0 minutes 27 seconds 944 msec
