                         Program Version 4.2.1 -  RELEASE  -
|  1> ! wB97X-D3 SP def2-SVP
|  2> %pal
|  3> nprocs 16
|  4> end
|  5>
|  6> * xyz 0 1
|  7> S 	 -38.7777 	 57.206 	 105.197
|  8> C 	 -40.2976 	 57.8554 	 105.509
|  9> C 	 -41.2675 	 56.9241 	 105.259
| 10> C 	 -40.781 	 55.7353 	 104.633
| 11> C 	 -39.3907 	 55.7565 	 104.403
| 12> H 	 -41.4004 	 54.9294 	 104.224
| 13> C 	 -42.6806 	 57.1077 	 105.67
| 14> H 	 -43.1712 	 56.1496 	 105.541
| 15> H 	 -43.3362 	 57.7193 	 105.053
| 16> C 	 -42.9594 	 57.6746 	 107.131
| 17> H 	 -42.3454 	 58.5316 	 107.365
| 18> H 	 -44.0219 	 57.999 	 106.992
| 19> C 	 -42.9239 	 56.6049 	 108.283
| 20> H 	 -43.1795 	 57.0949 	 109.222
| 21> H 	 -43.6802 	 55.7953 	 108.086
| 22> H 	 -41.9751 	 56.1842 	 108.378
| 23> S 	 -37.4641 	 55.358 	 102.502
| 24> C 	 -36.9729 	 53.7345 	 102.156
| 25> C 	 -37.3839 	 52.8982 	 103.168
| 26> C 	 -38.3511 	 53.4637 	 104.025
| 27> C 	 -38.5069 	 54.7828 	 103.762
| 28> H 	 -37.154 	 51.8179 	 103.121
| 29> C 	 -38.9842 	 52.7572 	 105.24
| 30> H 	 -40.0397 	 52.5737 	 104.982
| 31> H 	 -39.0211 	 53.4431 	 106.121
| 32> C 	 -38.2954 	 51.4587 	 105.746
| 33> H 	 -37.1951 	 51.4779 	 105.788
| 34> H 	 -38.4735 	 50.7952 	 104.866
| 35> C 	 -38.9204 	 50.6205 	 107.003
| 36> H 	 -38.6205 	 50.9978 	 107.972
| 37> H 	 -38.6167 	 49.5973 	 106.939
| 38> H 	 -39.944 	 50.5085 	 106.84
| 39> H 	 -40.543 	 58.7053 	 106.135
| 40> H 	 -36.3287 	 53.3529 	 101.35
| 41> *
| 42>
| 43>                          ****END OF INPUT****

CARTESIAN COORDINATES (ANGSTROEM)
---------------------------------
  S    -38.777700   57.206000  105.197000
  C    -40.297600   57.855400  105.509000
  C    -41.267500   56.924100  105.259000
  C    -40.781000   55.735300  104.633000
  C    -39.390700   55.756500  104.403000
  H    -41.400400   54.929400  104.224000
  C    -42.680600   57.107700  105.670000
  H    -43.171200   56.149600  105.541000
  H    -43.336200   57.719300  105.053000
  C    -42.959400   57.674600  107.131000
  H    -42.345400   58.531600  107.365000
  H    -44.021900   57.999000  106.992000
  C    -42.923900   56.604900  108.283000
  H    -43.179500   57.094900  109.222000
  H    -43.680200   55.795300  108.086000
  H    -41.975100   56.184200  108.378000
  S    -37.464100   55.358000  102.502000
  C    -36.972900   53.734500  102.156000
  C    -37.383900   52.898200  103.168000
  C    -38.351100   53.463700  104.025000
  C    -38.506900   54.782800  103.762000
  H    -37.154000   51.817900  103.121000
  C    -38.984200   52.757200  105.240000
  H    -40.039700   52.573700  104.982000
  H    -39.021100   53.443100  106.121000
  C    -38.295400   51.458700  105.746000
  H    -37.195100   51.477900  105.788000
  H    -38.473500   50.795200  104.866000
  C    -38.920400   50.620500  107.003000
  H    -38.620500   50.997800  107.972000
  H    -38.616700   49.597300  106.939000
  H    -39.944000   50.508500  106.840000
  H    -40.543000   58.705300  106.135000
  H    -36.328700   53.352900  101.350000

 Total Charge           Charge          ....    0
 Multiplicity           Mult            ....    1
 Number of Electrons    NEL             ....  134
 Basis Dimension        Dim             ....  322

ORBITAL ENERGIES
----------------

  NO   OCC          E(Eh)            E(eV)
   0   2.0000     -88.967289     -2420.9230
   1   2.0000     -88.963427     -2420.8179
   2   2.0000     -10.331193      -281.1260
   3   2.0000     -10.321813      -280.8708
   4   2.0000     -10.317705      -280.7590
   5   2.0000     -10.304132      -280.3897
   6   2.0000     -10.301568      -280.3199
   7   2.0000     -10.299864      -280.2735
   8   2.0000     -10.297979      -280.2223
   9   2.0000     -10.296800      -280.1902
  10   2.0000     -10.294686      -280.1327
  11   2.0000     -10.293585      -280.1027
  12   2.0000     -10.292704      -280.0787
  13   2.0000     -10.288008      -279.9509
  14   2.0000     -10.281127      -279.7637
  15   2.0000     -10.277812      -279.6735
  16   2.0000      -8.082665      -219.9405
  17   2.0000      -8.079013      -219.8411
  18   2.0000      -6.041079      -164.3861
  19   2.0000      -6.037403      -164.2861
  20   2.0000      -6.037158      -164.2794
  21   2.0000      -6.033388      -164.1768
  22   2.0000      -6.033241      -164.1728
  23   2.0000      -6.030000      -164.0846
  24   2.0000      -1.013831       -27.5877
  25   2.0000      -0.993170       -27.0255
  26   2.0000      -0.904542       -24.6138
  27   2.0000      -0.898769       -24.4567
  28   2.0000      -0.868767       -23.6403
  29   2.0000      -0.848914       -23.1001
  30   2.0000      -0.844360       -22.9762
  31   2.0000      -0.814766       -22.1709
  32   2.0000      -0.786354       -21.3978
  33   2.0000      -0.774373       -21.0718
  34   2.0000      -0.706589       -19.2273
  35   2.0000      -0.705375       -19.1942
  36   2.0000      -0.697705       -18.9855
  37   2.0000      -0.654315       -17.8048
  38   2.0000      -0.636976       -17.3330
  39   2.0000      -0.611435       -16.6380
  40   2.0000      -0.596462       -16.2306
  41   2.0000      -0.580101       -15.7854
  42   2.0000      -0.560441       -15.2504
  43   2.0000      -0.539140       -14.6707
  44   2.0000      -0.533942       -14.5293
  45   2.0000      -0.519162       -14.1271
  46   2.0000      -0.517505       -14.0820
  47   2.0000      -0.510495       -13.8913
  48   2.0000      -0.505686       -13.7604
  49   2.0000      -0.503242       -13.6939
  50   2.0000      -0.488696       -13.2981
  51   2.0000      -0.477321       -12.9886
  52   2.0000      -0.474659       -12.9161
  53   2.0000      -0.472425       -12.8553
  54   2.0000      -0.462374       -12.5818
  55   2.0000      -0.454518       -12.3681
  56   2.0000      -0.443728       -12.0745
  57   2.0000      -0.438373       -11.9287
  58   2.0000      -0.429557       -11.6888
  59   2.0000      -0.424346       -11.5470
  60   2.0000      -0.417261       -11.3542
  61   2.0000      -0.415949       -11.3186
  62   2.0000      -0.405302       -11.0288
  63   2.0000      -0.347472        -9.4552
  64   2.0000      -0.333894        -9.0857
  65   2.0000      -0.324879        -8.8404
  66   2.0000      -0.293968        -7.9993
  67   0.0000       0.033876         0.9218
  68   0.0000       0.064374         1.7517
  69   0.0000       0.117443         3.1958
  70   0.0000       0.123280         3.3546
  71   0.0000       0.136894         3.7251

MULLIKEN ATOMIC CHARGES
-----------------------
   0 S :    0.113741
   1 C :   -0.096869
   2 C :   -0.094018
   3 C :    0.033458
   4 C :   -0.168387
   5 H :    0.020603
   6 C :    0.060332
   7 H :    0.001739
   8 H :    0.034302
   9 C :   -0.115816
  10 H :    0.033007
  11 H :    0.030895
  12 C :   -0.030613
  13 H :    0.034319
  14 H :    0.034748
  15 H :    0.029603
  16 S :    0.132033
  17 C :   -0.089647
  18 C :   -0.067683
  19 C :   -0.012750
  20 C :   -0.180797
  21 H :    0.028541
  22 C :    0.075554
  23 H :    0.034037
  24 H :    0.046655
  25 C :   -0.149654
  26 H :    0.043831
  27 H :    0.026185
  28 C :   -0.000906
  29 H :    0.046802
  30 H :    0.021366
  31 H :    0.016707
  32 H :    0.046014
  33 H :    0.062671
Sum of atomic charges:   -0.0000000

LOEWDIN ATOMIC CHARGES
----------------------
   0 S :    0.430435
   1 C :   -0.220665
   2 C :   -0.075651
   3 C :   -0.065053
   4 C :   -0.190441
   5 H :    0.033479
   6 C :   -0.039250
   7 H :    0.027743
   8 H :    0.032790
   9 C :   -0.035100
  10 H :    0.017059
  11 H :    0.028389
  12 C :   -0.061112
  13 H :    0.026239
  14 H :    0.030481
  15 H :    0.016078
  16 S :    0.427694
  17 C :   -0.193168
  18 C :   -0.079164
  19 C :   -0.056666
  20 C :   -0.209225
  21 H :    0.034407
  22 C :   -0.033723
  23 H :    0.034077
  24 H :    0.034609
  25 C :   -0.049419
  26 H :    0.024811
  27 H :    0.023326
  28 C :   -0.054508
  29 H :    0.025702
  30 H :    0.027684
  31 H :    0.018910
  32 H :    0.031033
  33 H :    0.038202

  Mayer bond orders larger than 0.100000
B(  0-S ,  1-C ) :   1.1566 B(  0-S ,  4-C ) :   1.1766 B(  1-C ,  2-C ) :   1.5829
B(  1-C , 32-H ) :   0.9659 B(  2-C ,  3-C ) :   1.2747 B(  2-C ,  6-C ) :   1.0287
B(  3-C ,  4-C ) :   1.5416 B(  3-C ,  5-H ) :   0.9918 B(  4-C , 20-C ) :   1.0263
B(  6-C ,  7-H ) :   0.9377 B(  6-C ,  8-H ) :   0.9399 B(  6-C ,  9-C ) :   1.0592
B(  9-C , 10-H ) :   0.9612 B(  9-C , 11-H ) :   0.9593 B(  9-C , 12-C ) :   1.0716
B( 12-C , 13-H ) :   0.9757 B( 12-C , 14-H ) :   0.9755 B( 12-C , 15-H ) :   0.9807
B( 16-S , 17-C ) :   1.1588 B( 16-S , 20-C ) :   1.1510 B( 17-C , 18-C ) :   1.6079
B( 17-C , 33-H ) :   0.9620 B( 18-C , 19-C ) :   1.2597 B( 18-C , 21-H ) :   0.9750
B( 19-C , 20-C ) :   1.6127 B( 19-C , 22-C ) :   1.0194 B( 22-C , 23-H ) :   0.9270
B( 22-C , 24-H ) :   0.9421 B( 22-C , 25-C ) :   1.0621 B( 25-C , 26-H ) :   0.9633
B( 25-C , 27-H ) :   0.9504 B( 25-C , 28-C ) :   1.0718 B( 28-C , 29-H ) :   0.9797
B( 28-C , 30-H ) :   0.9742 B( 28-C , 31-H ) :   0.9736

Dispersion correction           -0.013693272
FINAL SINGLE POINT ENERGY     -1339.863437733860

DIPOLE MOMENT
-------------
                                X             Y             Z
Electronic contribution:     17.50899      13.67238     -19.66454
Nuclear contribution   :    -17.92431     -14.20889      19.93609
                        -----------------------------------------
Total Dipole Moment    :     -0.41532      -0.53651       0.27155
                        -----------------------------------------
Magnitude (a.u.)       :      0.73081
Magnitude (Debye)      :      1.85756

Rotational constants in cm-1:     0.017527     0.008518     0.006231
Rotational constants in MHz :   525.456968   255.357021   186.793451

                             ****ORCA TERMINATED NORMALLY****
TOTAL RUN TIME: 0 days 0 hours 0 minutes 28 seconds 650 msec
