                         Program Version 4.2.1 -  RELEASE  -
|  1> ! wB97X-D3 SP def2-SVP
|  2> %pal
|  3> nprocs 16
|  4> end
|  5>
|  6> * xyz 0 1
|  7> S 	 -16.9419 	 56.6987 	 60.7891
|  8> C 	 -16.9125 	 54.9992 	 60.4245
|  9> C 	 -16.3112 	 54.2302 	 61.416
| 10> C 	 -15.9908 	 55.0677 	 62.5496
| 11> C 	 -16.1559 	 56.417 	 62.3273
| 12> H 	 -15.4542 	 54.674 	 63.446
| 13> C 	 -16.1195 	 52.7136 	 61.406
| 14> H 	 -15.3043 	 52.4691 	 62.1343
| 15> H 	 -15.6441 	 52.4485 	 60.4449
| 16> C 	 -17.3022 	 51.7954 	 61.7924
| 17> H 	 -18.1544 	 52.0537 	 61.1626
| 18> H 	 -17.1082 	 50.7573 	 61.6449
| 19> C 	 -17.6223 	 52.0265 	 63.2551
| 20> H 	 -18.5754 	 51.6201 	 63.5786
| 21> H 	 -16.8724 	 51.5385 	 63.8544
| 22> H 	 -17.5918 	 53.0806 	 63.6833
| 23> S 	 -14.8228 	 58.756 	 62.0293
| 24> C 	 -14.2506 	 59.6757 	 63.5265
| 25> C 	 -14.7984 	 59.0997 	 64.6059
| 26> C 	 -15.406 	 57.8474 	 64.2998
| 27> C 	 -15.6319 	 57.6122 	 62.9541
| 28> H 	 -14.6552 	 59.6074 	 65.5544
| 29> C 	 -16.0818 	 56.9289 	 65.3565
| 30> H 	 -15.2785 	 56.2328 	 65.5084
| 31> H 	 -17.0068 	 56.4471 	 64.9262
| 32> C 	 -16.4502 	 57.6564 	 66.6491
| 33> H 	 -16.8697 	 58.7403 	 66.462
| 34> H 	 -15.4933 	 57.8428 	 67.2326
| 35> C 	 -17.6098 	 56.9581 	 67.3852
| 36> H 	 -17.8139 	 57.365 	 68.3207
| 37> H 	 -17.3994 	 55.9118 	 67.5363
| 38> H 	 -18.5562 	 57.0732 	 66.798
| 39> H 	 -17.327 	 54.4499 	 59.601
| 40> H 	 -13.718 	 60.6169 	 63.5797
| 41> *
| 42>
| 43>                          ****END OF INPUT****

CARTESIAN COORDINATES (ANGSTROEM)
---------------------------------
  S    -16.941900   56.698700   60.789100
  C    -16.912500   54.999200   60.424500
  C    -16.311200   54.230200   61.416000
  C    -15.990800   55.067700   62.549600
  C    -16.155900   56.417000   62.327300
  H    -15.454200   54.674000   63.446000
  C    -16.119500   52.713600   61.406000
  H    -15.304300   52.469100   62.134300
  H    -15.644100   52.448500   60.444900
  C    -17.302200   51.795400   61.792400
  H    -18.154400   52.053700   61.162600
  H    -17.108200   50.757300   61.644900
  C    -17.622300   52.026500   63.255100
  H    -18.575400   51.620100   63.578600
  H    -16.872400   51.538500   63.854400
  H    -17.591800   53.080600   63.683300
  S    -14.822800   58.756000   62.029300
  C    -14.250600   59.675700   63.526500
  C    -14.798400   59.099700   64.605900
  C    -15.406000   57.847400   64.299800
  C    -15.631900   57.612200   62.954100
  H    -14.655200   59.607400   65.554400
  C    -16.081800   56.928900   65.356500
  H    -15.278500   56.232800   65.508400
  H    -17.006800   56.447100   64.926200
  C    -16.450200   57.656400   66.649100
  H    -16.869700   58.740300   66.462000
  H    -15.493300   57.842800   67.232600
  C    -17.609800   56.958100   67.385200
  H    -17.813900   57.365000   68.320700
  H    -17.399400   55.911800   67.536300
  H    -18.556200   57.073200   66.798000
  H    -17.327000   54.449900   59.601000
  H    -13.718000   60.616900   63.579700

 Total Charge           Charge          ....    0
 Multiplicity           Mult            ....    1
 Number of Electrons    NEL             ....  134
 Basis Dimension        Dim             ....  322

ORBITAL ENERGIES
----------------

  NO   OCC          E(Eh)            E(eV)
   0   2.0000     -88.969069     -2420.9714
   1   2.0000     -88.961873     -2420.7756
   2   2.0000     -10.331145      -281.1247
   3   2.0000     -10.320239      -280.8280
   4   2.0000     -10.317442      -280.7519
   5   2.0000     -10.313445      -280.6431
   6   2.0000     -10.305010      -280.4136
   7   2.0000     -10.300651      -280.2950
   8   2.0000     -10.299922      -280.2751
   9   2.0000     -10.298566      -280.2382
  10   2.0000     -10.298453      -280.2352
  11   2.0000     -10.292883      -280.0836
  12   2.0000     -10.291768      -280.0532
  13   2.0000     -10.288938      -279.9762
  14   2.0000     -10.277046      -279.6526
  15   2.0000     -10.275694      -279.6159
  16   2.0000      -8.083939      -219.9752
  17   2.0000      -8.076670      -219.7774
  18   2.0000      -6.042482      -164.4243
  19   2.0000      -6.038394      -164.3130
  20   2.0000      -6.035337      -164.2299
  21   2.0000      -6.034679      -164.2120
  22   2.0000      -6.031143      -164.1157
  23   2.0000      -6.027219      -164.0090
  24   2.0000      -1.012883       -27.5619
  25   2.0000      -0.985009       -26.8035
  26   2.0000      -0.913783       -24.8653
  27   2.0000      -0.903147       -24.5759
  28   2.0000      -0.877912       -23.8892
  29   2.0000      -0.848987       -23.1021
  30   2.0000      -0.841640       -22.9022
  31   2.0000      -0.820359       -22.3231
  32   2.0000      -0.780719       -21.2444
  33   2.0000      -0.767211       -20.8769
  34   2.0000      -0.708543       -19.2804
  35   2.0000      -0.705188       -19.1891
  36   2.0000      -0.695486       -18.9251
  37   2.0000      -0.651617       -17.7314
  38   2.0000      -0.634420       -17.2634
  39   2.0000      -0.616592       -16.7783
  40   2.0000      -0.589840       -16.0504
  41   2.0000      -0.577532       -15.7154
  42   2.0000      -0.568016       -15.4565
  43   2.0000      -0.552088       -15.0231
  44   2.0000      -0.548911       -14.9366
  45   2.0000      -0.526313       -14.3217
  46   2.0000      -0.519350       -14.1322
  47   2.0000      -0.509041       -13.8517
  48   2.0000      -0.500630       -13.6228
  49   2.0000      -0.497972       -13.5505
  50   2.0000      -0.483066       -13.1449
  51   2.0000      -0.476816       -12.9748
  52   2.0000      -0.471530       -12.8310
  53   2.0000      -0.465014       -12.6537
  54   2.0000      -0.456355       -12.4181
  55   2.0000      -0.448812       -12.2128
  56   2.0000      -0.439800       -11.9676
  57   2.0000      -0.434701       -11.8288
  58   2.0000      -0.432725       -11.7750
  59   2.0000      -0.428752       -11.6669
  60   2.0000      -0.425030       -11.5657
  61   2.0000      -0.418384       -11.3848
  62   2.0000      -0.396559       -10.7909
  63   2.0000      -0.361721        -9.8429
  64   2.0000      -0.334128        -9.0921
  65   2.0000      -0.324666        -8.8346
  66   2.0000      -0.286813        -7.8046
  67   0.0000       0.027478         0.7477
  68   0.0000       0.072218         1.9651
  69   0.0000       0.106876         2.9082
  70   0.0000       0.119897         3.2626
  71   0.0000       0.132019         3.5924

MULLIKEN ATOMIC CHARGES
-----------------------
   0 S :    0.111014
   1 C :   -0.081295
   2 C :   -0.123830
   3 C :    0.013951
   4 C :   -0.151577
   5 H :    0.027150
   6 C :    0.019293
   7 H :    0.021770
   8 H :    0.035674
   9 C :    0.003019
  10 H :    0.026342
  11 H :    0.030972
  12 C :   -0.088535
  13 H :    0.030039
  14 H :    0.015825
  15 H :    0.046590
  16 S :    0.089310
  17 C :   -0.092480
  18 C :   -0.022893
  19 C :   -0.094715
  20 C :   -0.089163
  21 H :    0.026488
  22 C :    0.054801
  23 H :    0.038306
  24 H :    0.055573
  25 C :   -0.151149
  26 H :    0.046463
  27 H :    0.041776
  28 C :   -0.012260
  29 H :    0.016109
  30 H :    0.026705
  31 H :    0.044198
  32 H :    0.033481
  33 H :    0.053050
Sum of atomic charges:   -0.0000000

LOEWDIN ATOMIC CHARGES
----------------------
   0 S :    0.415966
   1 C :   -0.197624
   2 C :   -0.062286
   3 C :   -0.067490
   4 C :   -0.185920
   5 H :    0.036365
   6 C :   -0.037076
   7 H :    0.032746
   8 H :    0.032787
   9 C :   -0.033537
  10 H :    0.022635
  11 H :    0.025313
  12 C :   -0.074633
  13 H :    0.023383
  14 H :    0.020303
  15 H :    0.034989
  16 S :    0.393517
  17 C :   -0.160407
  18 C :   -0.070371
  19 C :   -0.063631
  20 C :   -0.228653
  21 H :    0.037905
  22 C :   -0.036733
  23 H :    0.030990
  24 H :    0.038123
  25 C :   -0.056439
  26 H :    0.032805
  27 H :    0.026711
  28 C :   -0.061644
  29 H :    0.016233
  30 H :    0.021492
  31 H :    0.034829
  32 H :    0.026907
  33 H :    0.032445

  Mayer bond orders larger than 0.100000
B(  0-S ,  1-C ) :   1.1385 B(  0-S ,  4-C ) :   1.1417 B(  1-C ,  2-C ) :   1.6292
B(  1-C , 32-H ) :   0.9654 B(  2-C ,  3-C ) :   1.2454 B(  2-C ,  6-C ) :   1.0217
B(  3-C ,  4-C ) :   1.5744 B(  3-C ,  5-H ) :   0.9771 B(  4-C , 20-C ) :   1.0288
B(  6-C ,  7-H ) :   0.9432 B(  6-C ,  8-H ) :   0.9408 B(  6-C ,  9-C ) :   1.0632
B(  9-C , 10-H ) :   0.9582 B(  9-C , 11-H ) :   0.9540 B(  9-C , 12-C ) :   1.0667
B( 12-C , 13-H ) :   0.9730 B( 12-C , 14-H ) :   0.9735 B( 12-C , 15-H ) :   0.9757
B( 16-S , 17-C ) :   1.1208 B( 16-S , 20-C ) :   1.1392 B( 17-C , 18-C ) :   1.6403
B( 17-C , 33-H ) :   0.9618 B( 18-C , 19-C ) :   1.2277 B( 18-C , 21-H ) :   0.9868
B( 19-C , 20-C ) :   1.6114 B( 19-C , 22-C ) :   1.0079 B( 22-C , 23-H ) :   0.9149
B( 22-C , 24-H ) :   0.9549 B( 22-C , 25-C ) :   1.0693 B( 25-C , 26-H ) :   0.9606
B( 25-C , 27-H ) :   0.9456 B( 25-C , 28-C ) :   1.0778 B( 28-C , 29-H ) :   0.9717
B( 28-C , 30-H ) :   0.9747 B( 28-C , 31-H ) :   0.9732

Dispersion correction           -0.014173766
FINAL SINGLE POINT ENERGY     -1339.863586038153

DIPOLE MOMENT
-------------
                                X             Y             Z
Electronic contribution:      7.82210      19.42021     -20.30083
Nuclear contribution   :     -7.80082     -19.87717      20.83267
                        -----------------------------------------
Total Dipole Moment    :      0.02128      -0.45695       0.53184
                        -----------------------------------------
Magnitude (a.u.)       :      0.70151
Magnitude (Debye)      :      1.78309

Rotational constants in cm-1:     0.017651     0.009235     0.006604
Rotational constants in MHz :   529.168208   276.872302   197.982568

                             ****ORCA TERMINATED NORMALLY****
TOTAL RUN TIME: 0 days 0 hours 0 minutes 33 seconds 255 msec
