                         Program Version 4.2.1 -  RELEASE  -
|  1> ! wB97X-D3 SP def2-SVP
|  2> %pal
|  3> nprocs 16
|  4> end
|  5>
|  6> * xyz 0 1
|  7> S 	 -57.4739 	 21.0866 	 86.8246
|  8> C 	 -57.0919 	 19.6147 	 87.7013
|  9> C 	 -55.7628 	 19.2458 	 87.6749
| 10> C 	 -54.9891 	 20.2489 	 86.9864
| 11> C 	 -55.771 	 21.2987 	 86.6242
| 12> H 	 -53.9057 	 20.308 	 86.8403
| 13> C 	 -55.2079 	 18.0019 	 88.2931
| 14> H 	 -54.2551 	 17.8733 	 87.7685
| 15> H 	 -55.8812 	 17.2416 	 87.9352
| 16> C 	 -55.0974 	 18.0536 	 89.8196
| 17> H 	 -54.517 	 17.1632 	 90.0271
| 18> H 	 -54.4817 	 18.887 	 90.204
| 19> C 	 -56.4354 	 17.9955 	 90.5269
| 20> H 	 -57.0283 	 17.1083 	 90.3581
| 21> H 	 -56.2348 	 17.9589 	 91.5615
| 22> H 	 -57.0376 	 18.9524 	 90.4223
| 23> S 	 -55.9408 	 22.8494 	 84.3439
| 24> C 	 -55.0116 	 24.3535 	 84.1758
| 25> C 	 -54.3041 	 24.556 	 85.3467
| 26> C 	 -54.3317 	 23.5099 	 86.3224
| 27> C 	 -55.2699 	 22.49 	 85.9715
| 28> H 	 -53.8655 	 25.5218 	 85.4797
| 29> C 	 -53.7036 	 23.6807 	 87.7409
| 30> H 	 -52.857 	 24.2989 	 87.7063
| 31> H 	 -53.2265 	 22.7368 	 88.0408
| 32> C 	 -54.7473 	 24.2394 	 88.8147
| 33> H 	 -55.3665 	 25.0364 	 88.4431
| 34> H 	 -54.1489 	 24.5044 	 89.6466
| 35> C 	 -55.7985 	 23.1177 	 89.4214
| 36> H 	 -56.6229 	 23.1148 	 88.7201
| 37> H 	 -56.1537 	 23.4763 	 90.4229
| 38> H 	 -55.3758 	 22.1033 	 89.6662
| 39> H 	 -57.7558 	 18.8615 	 88.0168
| 40> H 	 -54.8793 	 24.9306 	 83.2514
| 41> *
| 42>
| 43>                          ****END OF INPUT****

CARTESIAN COORDINATES (ANGSTROEM)
---------------------------------
  S    -57.473900   21.086600   86.824600
  C    -57.091900   19.614700   87.701300
  C    -55.762800   19.245800   87.674900
  C    -54.989100   20.248900   86.986400
  C    -55.771000   21.298700   86.624200
  H    -53.905700   20.308000   86.840300
  C    -55.207900   18.001900   88.293100
  H    -54.255100   17.873300   87.768500
  H    -55.881200   17.241600   87.935200
  C    -55.097400   18.053600   89.819600
  H    -54.517000   17.163200   90.027100
  H    -54.481700   18.887000   90.204000
  C    -56.435400   17.995500   90.526900
  H    -57.028300   17.108300   90.358100
  H    -56.234800   17.958900   91.561500
  H    -57.037600   18.952400   90.422300
  S    -55.940800   22.849400   84.343900
  C    -55.011600   24.353500   84.175800
  C    -54.304100   24.556000   85.346700
  C    -54.331700   23.509900   86.322400
  C    -55.269900   22.490000   85.971500
  H    -53.865500   25.521800   85.479700
  C    -53.703600   23.680700   87.740900
  H    -52.857000   24.298900   87.706300
  H    -53.226500   22.736800   88.040800
  C    -54.747300   24.239400   88.814700
  H    -55.366500   25.036400   88.443100
  H    -54.148900   24.504400   89.646600
  C    -55.798500   23.117700   89.421400
  H    -56.622900   23.114800   88.720100
  H    -56.153700   23.476300   90.422900
  H    -55.375800   22.103300   89.666200
  H    -57.755800   18.861500   88.016800
  H    -54.879300   24.930600   83.251400

 Total Charge           Charge          ....    0
 Multiplicity           Mult            ....    1
 Number of Electrons    NEL             ....  134
 Basis Dimension        Dim             ....  322

ORBITAL ENERGIES
----------------

  NO   OCC          E(Eh)            E(eV)
   0   2.0000     -88.969494     -2420.9830
   1   2.0000     -88.961496     -2420.7654
   2   2.0000     -10.330955      -281.1196
   3   2.0000     -10.322546      -280.8908
   4   2.0000     -10.318581      -280.7829
   5   2.0000     -10.309962      -280.5483
   6   2.0000     -10.303608      -280.3754
   7   2.0000     -10.296222      -280.1744
   8   2.0000     -10.295051      -280.1426
   9   2.0000     -10.291577      -280.0481
  10   2.0000     -10.291238      -280.0388
  11   2.0000     -10.290550      -280.0201
  12   2.0000     -10.290440      -280.0171
  13   2.0000     -10.289580      -279.9937
  14   2.0000     -10.280124      -279.7364
  15   2.0000     -10.277130      -279.6549
  16   2.0000      -8.084034      -219.9777
  17   2.0000      -8.075141      -219.7358
  18   2.0000      -6.042474      -164.4241
  19   2.0000      -6.038858      -164.3257
  20   2.0000      -6.034576      -164.2092
  21   2.0000      -6.033693      -164.1851
  22   2.0000      -6.029647      -164.0750
  23   2.0000      -6.026074      -163.9778
  24   2.0000      -1.005390       -27.3581
  25   2.0000      -0.974982       -26.5306
  26   2.0000      -0.917982       -24.9796
  27   2.0000      -0.887419       -24.1479
  28   2.0000      -0.866726       -23.5848
  29   2.0000      -0.852421       -23.1955
  30   2.0000      -0.831135       -22.6163
  31   2.0000      -0.811276       -22.0759
  32   2.0000      -0.785290       -21.3688
  33   2.0000      -0.769366       -20.9355
  34   2.0000      -0.708945       -19.2914
  35   2.0000      -0.700675       -19.0663
  36   2.0000      -0.691398       -18.8139
  37   2.0000      -0.654726       -17.8160
  38   2.0000      -0.638446       -17.3730
  39   2.0000      -0.614764       -16.7286
  40   2.0000      -0.591411       -16.0931
  41   2.0000      -0.568919       -15.4811
  42   2.0000      -0.550120       -14.9695
  43   2.0000      -0.543685       -14.7944
  44   2.0000      -0.541673       -14.7397
  45   2.0000      -0.527261       -14.3475
  46   2.0000      -0.523009       -14.2318
  47   2.0000      -0.502452       -13.6724
  48   2.0000      -0.498835       -13.5740
  49   2.0000      -0.487333       -13.2610
  50   2.0000      -0.484803       -13.1922
  51   2.0000      -0.482441       -13.1279
  52   2.0000      -0.474964       -12.9244
  53   2.0000      -0.459862       -12.5135
  54   2.0000      -0.456402       -12.4193
  55   2.0000      -0.449266       -12.2251
  56   2.0000      -0.442118       -12.0307
  57   2.0000      -0.440718       -11.9926
  58   2.0000      -0.430958       -11.7270
  59   2.0000      -0.424022       -11.5382
  60   2.0000      -0.415852       -11.3159
  61   2.0000      -0.413321       -11.2470
  62   2.0000      -0.404583       -11.0093
  63   2.0000      -0.340912        -9.2767
  64   2.0000      -0.330017        -8.9802
  65   2.0000      -0.326762        -8.8916
  66   2.0000      -0.289255        -7.8710
  67   0.0000       0.031033         0.8445
  68   0.0000       0.062961         1.7132
  69   0.0000       0.108403         2.9498
  70   0.0000       0.127515         3.4698
  71   0.0000       0.128127         3.4865

MULLIKEN ATOMIC CHARGES
-----------------------
   0 S :    0.130542
   1 C :   -0.082747
   2 C :   -0.144064
   3 C :    0.031224
   4 C :   -0.151989
   5 H :    0.020530
   6 C :    0.087508
   7 H :    0.020248
   8 H :    0.025962
   9 C :   -0.046219
  10 H :    0.027317
  11 H :    0.035852
  12 C :   -0.054694
  13 H :    0.030180
  14 H :    0.018339
  15 H :    0.054588
  16 S :    0.082703
  17 C :   -0.108242
  18 C :   -0.044079
  19 C :   -0.021118
  20 C :   -0.180875
  21 H :    0.016334
  22 C :    0.095553
  23 H :    0.004775
  24 H :    0.018423
  25 C :   -0.057782
  26 H :    0.040100
  27 H :    0.026977
  28 C :   -0.088954
  29 H :    0.042160
  30 H :    0.031958
  31 H :    0.044196
  32 H :    0.021344
  33 H :    0.073951
Sum of atomic charges:   -0.0000000

LOEWDIN ATOMIC CHARGES
----------------------
   0 S :    0.420900
   1 C :   -0.200038
   2 C :   -0.055974
   3 C :   -0.060140
   4 C :   -0.198169
   5 H :    0.036364
   6 C :   -0.032982
   7 H :    0.032441
   8 H :    0.032398
   9 C :   -0.035737
  10 H :    0.025578
  11 H :    0.030642
  12 C :   -0.071374
  13 H :    0.024253
  14 H :    0.022953
  15 H :    0.037116
  16 S :    0.373458
  17 C :   -0.188340
  18 C :   -0.074903
  19 C :   -0.057388
  20 C :   -0.181557
  21 H :    0.027729
  22 C :   -0.027376
  23 H :    0.020462
  24 H :    0.031255
  25 C :   -0.022333
  26 H :    0.025428
  27 H :    0.016491
  28 C :   -0.074107
  29 H :    0.014153
  30 H :    0.025840
  31 H :    0.028453
  32 H :    0.015704
  33 H :    0.038800

  Mayer bond orders larger than 0.100000
B(  0-S ,  1-C ) :   1.1142 B(  0-S ,  4-C ) :   1.1481 B(  1-C ,  2-C ) :   1.6595
B(  1-C , 32-H ) :   0.9554 B(  2-C ,  3-C ) :   1.2118 B(  2-C ,  6-C ) :   1.0095
B(  3-C ,  4-C ) :   1.6102 B(  3-C ,  5-H ) :   0.9903 B(  4-C , 20-C ) :   1.0330
B(  6-C ,  7-H ) :   0.9375 B(  6-C ,  8-H ) :   0.9346 B(  6-C ,  9-C ) :   1.0668
B(  9-C , 10-H ) :   0.9521 B(  9-C , 11-H ) :   0.9534 B(  9-C , 12-C ) :   1.0919
B( 12-C , 13-H ) :   0.9725 B( 12-C , 14-H ) :   0.9663 B( 12-C , 15-H ) :   0.9642
B( 16-S , 17-C ) :   1.1414 B( 16-S , 20-C ) :   1.1512 B( 17-C , 18-C ) :   1.6055
B( 17-C , 20-C ) :   0.1141 B( 17-C , 33-H ) :   0.9659 B( 18-C , 19-C ) :   1.2536
B( 18-C , 21-H ) :   0.9872 B( 19-C , 20-C ) :   1.5561 B( 19-C , 22-C ) :   1.0465
B( 22-C , 23-H ) :   0.9352 B( 22-C , 24-H ) :   0.9364 B( 22-C , 25-C ) :   1.0516
B( 25-C , 26-H ) :   0.9635 B( 25-C , 27-H ) :   0.9622 B( 25-C , 28-C ) :   1.0651
B( 28-C , 29-H ) :   0.9747 B( 28-C , 30-H ) :   0.9770 B( 28-C , 31-H ) :   0.9763

Dispersion correction           -0.016397995
FINAL SINGLE POINT ENERGY     -1339.861392031470

DIPOLE MOMENT
-------------
                                X             Y             Z
Electronic contribution:     -6.70103       7.41615     -24.48594
Nuclear contribution   :      7.17149      -7.59013      25.01030
                        -----------------------------------------
Total Dipole Moment    :      0.47046      -0.17399       0.52436
                        -----------------------------------------
Magnitude (a.u.)       :      0.72564
Magnitude (Debye)      :      1.84444

Rotational constants in cm-1:     0.023727     0.008820     0.007603
Rotational constants in MHz :   711.326712   264.423185   227.942038

                             ****ORCA TERMINATED NORMALLY****
TOTAL RUN TIME: 0 days 0 hours 0 minutes 30 seconds 410 msec
