                         Program Version 4.2.1 -  RELEASE  -
|  1> ! wB97X-D3 SP def2-SVP
|  2> %pal
|  3> nprocs 16
|  4> end
|  5>
|  6> * xyz 0 1
|  7> S 	 10.5462 	 -6.62318 	 87.8926
|  8> C 	 11.7482 	 -6.06707 	 88.972
|  9> C 	 12.322 	 -4.84258 	 88.5795
| 10> C 	 11.9033 	 -4.42309 	 87.2653
| 11> C 	 10.8946 	 -5.26193 	 86.7509
| 12> H 	 12.2253 	 -3.49815 	 86.6744
| 13> C 	 13.3476 	 -4.10939 	 89.3632
| 14> H 	 14.1299 	 -4.77961 	 89.619
| 15> H 	 12.8888 	 -3.83814 	 90.3564
| 16> C 	 13.9991 	 -2.82133 	 88.7543
| 17> H 	 14.7293 	 -2.58672 	 89.5208
| 18> H 	 14.432 	 -3.19893 	 87.8545
| 19> C 	 13.0177 	 -1.66037 	 88.5473
| 20> H 	 12.8252 	 -1.27375 	 89.545
| 21> H 	 13.4938 	 -0.843776 	 87.9967
| 22> H 	 12.0217 	 -1.91781 	 88.2249
| 23> S 	 9.97479 	 -6.41105 	 84.2789
| 24> C 	 9.44252 	 -5.2753 	 83.053
| 25> C 	 9.30768 	 -4.0037 	 83.5442
| 26> C 	 9.58867 	 -3.95868 	 84.9198
| 27> C 	 10.141 	 -5.0746 	 85.4764
| 28> H 	 9.10746 	 -3.15304 	 82.9219
| 29> C 	 9.33975 	 -2.73309 	 85.6082
| 30> H 	 9.26078 	 -2.93969 	 86.7205
| 31> H 	 8.34999 	 -2.42574 	 85.3989
| 32> C 	 10.282 	 -1.55813 	 85.3779
| 33> H 	 10.326 	 -1.36198 	 84.2595
| 34> H 	 11.3348 	 -1.78167 	 85.7012
| 35> C 	 9.81369 	 -0.2431 	 86.0726
| 36> H 	 9.5177 	 -0.544343 	 87.1519
| 37> H 	 8.96539 	 0.209297 	 85.5015
| 38> H 	 10.7052 	 0.431505 	 86.2048
| 39> H 	 12.0938 	 -6.60089 	 89.8336
| 40> H 	 9.1495 	 -5.60423 	 82.0774
| 41> *
| 42>
| 43>                          ****END OF INPUT****

CARTESIAN COORDINATES (ANGSTROEM)
---------------------------------
  S     10.546200   -6.623180   87.892600
  C     11.748200   -6.067070   88.972000
  C     12.322000   -4.842580   88.579500
  C     11.903300   -4.423090   87.265300
  C     10.894600   -5.261930   86.750900
  H     12.225300   -3.498150   86.674400
  C     13.347600   -4.109390   89.363200
  H     14.129900   -4.779610   89.619000
  H     12.888800   -3.838140   90.356400
  C     13.999100   -2.821330   88.754300
  H     14.729300   -2.586720   89.520800
  H     14.432000   -3.198930   87.854500
  C     13.017700   -1.660370   88.547300
  H     12.825200   -1.273750   89.545000
  H     13.493800   -0.843776   87.996700
  H     12.021700   -1.917810   88.224900
  S      9.974790   -6.411050   84.278900
  C      9.442520   -5.275300   83.053000
  C      9.307680   -4.003700   83.544200
  C      9.588670   -3.958680   84.919800
  C     10.141000   -5.074600   85.476400
  H      9.107460   -3.153040   82.921900
  C      9.339750   -2.733090   85.608200
  H      9.260780   -2.939690   86.720500
  H      8.349990   -2.425740   85.398900
  C     10.282000   -1.558130   85.377900
  H     10.326000   -1.361980   84.259500
  H     11.334800   -1.781670   85.701200
  C      9.813690   -0.243100   86.072600
  H      9.517700   -0.544343   87.151900
  H      8.965390    0.209297   85.501500
  H     10.705200    0.431505   86.204800
  H     12.093800   -6.600890   89.833600
  H      9.149500   -5.604230   82.077400

 Total Charge           Charge          ....    0
 Multiplicity           Mult            ....    1
 Number of Electrons    NEL             ....  134
 Basis Dimension        Dim             ....  322

ORBITAL ENERGIES
----------------

  NO   OCC          E(Eh)            E(eV)
   0   2.0000     -88.969159     -2420.9739
   1   2.0000     -88.960467     -2420.7374
   2   2.0000     -10.338275      -281.3188
   3   2.0000     -10.327521      -281.0261
   4   2.0000     -10.317763      -280.7606
   5   2.0000     -10.312191      -280.6090
   6   2.0000     -10.306463      -280.4531
   7   2.0000     -10.302999      -280.3589
   8   2.0000     -10.296922      -280.1935
   9   2.0000     -10.295282      -280.1489
  10   2.0000     -10.292004      -280.0597
  11   2.0000     -10.290062      -280.0068
  12   2.0000     -10.289459      -279.9904
  13   2.0000     -10.289155      -279.9821
  14   2.0000     -10.281426      -279.7718
  15   2.0000     -10.280464      -279.7456
  16   2.0000      -8.083337      -219.9588
  17   2.0000      -8.074867      -219.7283
  18   2.0000      -6.041771      -164.4050
  19   2.0000      -6.037924      -164.3003
  20   2.0000      -6.034221      -164.1995
  21   2.0000      -6.033454      -164.1786
  22   2.0000      -6.029476      -164.0704
  23   2.0000      -6.025505      -163.9623
  24   2.0000      -1.002328       -27.2747
  25   2.0000      -0.982966       -26.7479
  26   2.0000      -0.913594       -24.8602
  27   2.0000      -0.911720       -24.8092
  28   2.0000      -0.866416       -23.5764
  29   2.0000      -0.850777       -23.1508
  30   2.0000      -0.845578       -23.0093
  31   2.0000      -0.817526       -22.2460
  32   2.0000      -0.781543       -21.2669
  33   2.0000      -0.768493       -20.9118
  34   2.0000      -0.707975       -19.2650
  35   2.0000      -0.695247       -18.9186
  36   2.0000      -0.691835       -18.8258
  37   2.0000      -0.664373       -18.0785
  38   2.0000      -0.637292       -17.3416
  39   2.0000      -0.620794       -16.8927
  40   2.0000      -0.603012       -16.4088
  41   2.0000      -0.571707       -15.5569
  42   2.0000      -0.563617       -15.3368
  43   2.0000      -0.551638       -15.0108
  44   2.0000      -0.534929       -14.5561
  45   2.0000      -0.526964       -14.3394
  46   2.0000      -0.520199       -14.1553
  47   2.0000      -0.510574       -13.8934
  48   2.0000      -0.507448       -13.8084
  49   2.0000      -0.500658       -13.6236
  50   2.0000      -0.491298       -13.3689
  51   2.0000      -0.484728       -13.1901
  52   2.0000      -0.471766       -12.8374
  53   2.0000      -0.461400       -12.5553
  54   2.0000      -0.456079       -12.4105
  55   2.0000      -0.448998       -12.2179
  56   2.0000      -0.441091       -12.0027
  57   2.0000      -0.437216       -11.8973
  58   2.0000      -0.433414       -11.7938
  59   2.0000      -0.425409       -11.5760
  60   2.0000      -0.421014       -11.4564
  61   2.0000      -0.415654       -11.3105
  62   2.0000      -0.411177       -11.1887
  63   2.0000      -0.345014        -9.3883
  64   2.0000      -0.329059        -8.9541
  65   2.0000      -0.326284        -8.8786
  66   2.0000      -0.289158        -7.8684
  67   0.0000       0.025569         0.6958
  68   0.0000       0.068245         1.8570
  69   0.0000       0.108981         2.9655
  70   0.0000       0.118017         3.2114
  71   0.0000       0.124053         3.3757

MULLIKEN ATOMIC CHARGES
-----------------------
   0 S :    0.120856
   1 C :   -0.105143
   2 C :   -0.097511
   3 C :    0.006336
   4 C :   -0.159878
   5 H :    0.048431
   6 C :    0.011780
   7 H :    0.029249
   8 H :    0.033444
   9 C :   -0.053592
  10 H :    0.036726
  11 H :    0.031003
  12 C :   -0.044748
  13 H :    0.016858
  14 H :    0.045693
  15 H :    0.035942
  16 S :    0.083215
  17 C :   -0.077836
  18 C :   -0.023995
  19 C :   -0.015633
  20 C :   -0.135717
  21 H :    0.020876
  22 C :    0.044006
  23 H :    0.030129
  24 H :    0.009621
  25 C :   -0.103354
  26 H :    0.031110
  27 H :    0.027258
  28 C :   -0.085221
  29 H :    0.042306
  30 H :    0.054739
  31 H :    0.050005
  32 H :    0.041576
  33 H :    0.051466
Sum of atomic charges:   -0.0000000

LOEWDIN ATOMIC CHARGES
----------------------
   0 S :    0.405742
   1 C :   -0.209104
   2 C :   -0.067230
   3 C :   -0.066459
   4 C :   -0.178619
   5 H :    0.047550
   6 C :   -0.039795
   7 H :    0.028772
   8 H :    0.035263
   9 C :   -0.033938
  10 H :    0.031058
  11 H :    0.018306
  12 C :   -0.069703
  13 H :    0.028570
  14 H :    0.030358
  15 H :    0.022575
  16 S :    0.372695
  17 C :   -0.162947
  18 C :   -0.069456
  19 C :   -0.061708
  20 C :   -0.185237
  21 H :    0.032317
  22 C :   -0.044547
  23 H :    0.036872
  24 H :    0.027897
  25 C :   -0.045085
  26 H :    0.025202
  27 H :    0.021074
  28 C :   -0.076712
  29 H :    0.032279
  30 H :    0.031189
  31 H :    0.032983
  32 H :    0.025654
  33 H :    0.024185

  Mayer bond orders larger than 0.100000
B(  0-S ,  1-C ) :   1.1523 B(  0-S ,  4-C ) :   1.1523 B(  1-C ,  2-C ) :   1.5895
B(  1-C ,  4-C ) :   0.1028 B(  1-C , 32-H ) :   0.9728 B(  2-C ,  3-C ) :   1.2606
B(  2-C ,  6-C ) :   1.0172 B(  3-C ,  4-C ) :   1.5577 B(  3-C ,  5-H ) :   0.9677
B(  4-C , 20-C ) :   1.0409 B(  6-C ,  7-H ) :   0.9369 B(  6-C ,  8-H ) :   0.9317
B(  6-C ,  9-C ) :   1.0884 B(  9-C , 10-H ) :   0.9553 B(  9-C , 11-H ) :   0.9535
B(  9-C , 12-C ) :   1.0675 B( 12-C , 13-H ) :   0.9657 B( 12-C , 14-H ) :   0.9738
B( 12-C , 15-H ) :   0.9775 B( 16-S , 17-C ) :   1.1645 B( 16-S , 20-C ) :   1.0964
B( 17-C , 18-C ) :   1.5993 B( 17-C , 33-H ) :   0.9686 B( 18-C , 19-C ) :   1.2230
B( 18-C , 21-H ) :   0.9980 B( 19-C , 20-C ) :   1.6098 B( 19-C , 22-C ) :   1.0735
B( 22-C , 23-H ) :   0.9203 B( 22-C , 24-H ) :   0.9228 B( 22-C , 25-C ) :   1.0605
B( 25-C , 26-H ) :   0.9530 B( 25-C , 27-H ) :   0.9488 B( 25-C , 28-C ) :   1.0710
B( 28-C , 29-H ) :   0.9726 B( 28-C , 30-H ) :   0.9741 B( 28-C , 31-H ) :   0.9751

Dispersion correction           -0.015727201
FINAL SINGLE POINT ENERGY     -1339.871333919964

DIPOLE MOMENT
-------------
                                X             Y             Z
Electronic contribution:     -8.64397     -29.94687      -8.07625
Nuclear contribution   :      8.88050      30.67549       8.22557
                        -----------------------------------------
Total Dipole Moment    :      0.23653       0.72861       0.14933
                        -----------------------------------------
Magnitude (a.u.)       :      0.78046
Magnitude (Debye)      :      1.98378

Rotational constants in cm-1:     0.016275     0.011027     0.007243
Rotational constants in MHz :   487.903282   330.573196   217.126529

                             ****ORCA TERMINATED NORMALLY****
TOTAL RUN TIME: 0 days 0 hours 0 minutes 37 seconds 259 msec
