                         Program Version 4.2.1 -  RELEASE  -
|  1> ! wB97X-D3 SP def2-SVP
|  2> %pal
|  3> nprocs 16
|  4> end
|  5>
|  6> * xyz 0 1
|  7> S 	 -98.4752 	 56.609 	 129.427
|  8> C 	 -97.3735 	 56.6296 	 130.81
|  9> C 	 -97.5392 	 57.7903 	 131.545
| 10> C 	 -98.5319 	 58.6711 	 131.036
| 11> C 	 -99.1501 	 58.2084 	 129.865
| 12> H 	 -98.8545 	 59.6622 	 131.429
| 13> C 	 -96.6226 	 58.2053 	 132.711
| 14> H 	 -96.3899 	 59.2245 	 132.437
| 15> H 	 -95.7163 	 57.5031 	 132.614
| 16> C 	 -97.1845 	 58.1717 	 134.121
| 17> H 	 -97.8032 	 59.017 	 134.111
| 18> H 	 -97.9391 	 57.3729 	 134.285
| 19> C 	 -95.9928 	 58.213 	 135.225
| 20> H 	 -96.3834 	 58.1616 	 136.183
| 21> H 	 -95.3584 	 57.3004 	 135.091
| 22> H 	 -95.3982 	 59.0567 	 135.024
| 23> S 	 -101.529 	 57.803 	 128.652
| 24> C 	 -102.528 	 59.2491 	 128.125
| 25> C 	 -101.732 	 60.3562 	 128.293
| 26> C 	 -100.438 	 60.1323 	 128.825
| 27> C 	 -100.167 	 58.7978 	 129.094
| 28> H 	 -102.143 	 61.2748 	 127.869
| 29> C 	 -99.4899 	 61.3213 	 129.104
| 30> H 	 -99.42 	 61.9517 	 128.175
| 31> H 	 -98.4655 	 60.9045 	 129.258
| 32> C 	 -99.9325 	 62.3494 	 130.152
| 33> H 	 -99.7049 	 61.9117 	 131.124
| 34> H 	 -101.022 	 62.4797 	 130.021
| 35> C 	 -99.3992 	 63.6556 	 129.96
| 36> H 	 -99.8391 	 64.093 	 129.069
| 37> H 	 -98.2863 	 63.6865 	 129.802
| 38> H 	 -99.4687 	 64.2821 	 130.766
| 39> H 	 -96.5378 	 55.9468 	 130.893
| 40> H 	 -103.486 	 59.2719 	 127.587
| 41> *
| 42>
| 43>                          ****END OF INPUT****

CARTESIAN COORDINATES (ANGSTROEM)
---------------------------------
  S    -98.475200   56.609000  129.427000
  C    -97.373500   56.629600  130.810000
  C    -97.539200   57.790300  131.545000
  C    -98.531900   58.671100  131.036000
  C    -99.150100   58.208400  129.865000
  H    -98.854500   59.662200  131.429000
  C    -96.622600   58.205300  132.711000
  H    -96.389900   59.224500  132.437000
  H    -95.716300   57.503100  132.614000
  C    -97.184500   58.171700  134.121000
  H    -97.803200   59.017000  134.111000
  H    -97.939100   57.372900  134.285000
  C    -95.992800   58.213000  135.225000
  H    -96.383400   58.161600  136.183000
  H    -95.358400   57.300400  135.091000
  H    -95.398200   59.056700  135.024000
  S    -101.529000   57.803000  128.652000
  C    -102.528000   59.249100  128.125000
  C    -101.732000   60.356200  128.293000
  C    -100.438000   60.132300  128.825000
  C    -100.167000   58.797800  129.094000
  H    -102.143000   61.274800  127.869000
  C    -99.489900   61.321300  129.104000
  H    -99.420000   61.951700  128.175000
  H    -98.465500   60.904500  129.258000
  C    -99.932500   62.349400  130.152000
  H    -99.704900   61.911700  131.124000
  H    -101.022000   62.479700  130.021000
  C    -99.399200   63.655600  129.960000
  H    -99.839100   64.093000  129.069000
  H    -98.286300   63.686500  129.802000
  H    -99.468700   64.282100  130.766000
  H    -96.537800   55.946800  130.893000
  H    -103.486000   59.271900  127.587000

 Total Charge           Charge          ....    0
 Multiplicity           Mult            ....    1
 Number of Electrons    NEL             ....  134
 Basis Dimension        Dim             ....  322

ORBITAL ENERGIES
----------------

  NO   OCC          E(Eh)            E(eV)
   0   2.0000     -88.966567     -2420.9034
   1   2.0000     -88.964621     -2420.8504
   2   2.0000     -10.333851      -281.1984
   3   2.0000     -10.327035      -281.0129
   4   2.0000     -10.325649      -280.9752
   5   2.0000     -10.317363      -280.7497
   6   2.0000     -10.305937      -280.4388
   7   2.0000     -10.304610      -280.4027
   8   2.0000     -10.302352      -280.3413
   9   2.0000     -10.297429      -280.2073
  10   2.0000     -10.297039      -280.1967
  11   2.0000     -10.296262      -280.1755
  12   2.0000     -10.288041      -279.9518
  13   2.0000     -10.283041      -279.8158
  14   2.0000     -10.281834      -279.7829
  15   2.0000     -10.269836      -279.4564
  16   2.0000      -8.080424      -219.8795
  17   2.0000      -8.078375      -219.8238
  18   2.0000      -6.038981      -164.3290
  19   2.0000      -6.037191      -164.2803
  20   2.0000      -6.034990      -164.2204
  21   2.0000      -6.032974      -164.1656
  22   2.0000      -6.031254      -164.1188
  23   2.0000      -6.028868      -164.0538
  24   2.0000      -1.005900       -27.3719
  25   2.0000      -0.978768       -26.6336
  26   2.0000      -0.921492       -25.0751
  27   2.0000      -0.907771       -24.7017
  28   2.0000      -0.875261       -23.8171
  29   2.0000      -0.855123       -23.2691
  30   2.0000      -0.842355       -22.9217
  31   2.0000      -0.816226       -22.2106
  32   2.0000      -0.781972       -21.2785
  33   2.0000      -0.772784       -21.0285
  34   2.0000      -0.715765       -19.4769
  35   2.0000      -0.702194       -19.1077
  36   2.0000      -0.694139       -18.8885
  37   2.0000      -0.662757       -18.0345
  38   2.0000      -0.640290       -17.4232
  39   2.0000      -0.616855       -16.7855
  40   2.0000      -0.593013       -16.1367
  41   2.0000      -0.583514       -15.8782
  42   2.0000      -0.569154       -15.4875
  43   2.0000      -0.556212       -15.1353
  44   2.0000      -0.532172       -14.4811
  45   2.0000      -0.526926       -14.3384
  46   2.0000      -0.523356       -14.2412
  47   2.0000      -0.514604       -14.0031
  48   2.0000      -0.504973       -13.7410
  49   2.0000      -0.502910       -13.6849
  50   2.0000      -0.498477       -13.5642
  51   2.0000      -0.477917       -13.0048
  52   2.0000      -0.474428       -12.9099
  53   2.0000      -0.468535       -12.7495
  54   2.0000      -0.460803       -12.5391
  55   2.0000      -0.449189       -12.2231
  56   2.0000      -0.444945       -12.1076
  57   2.0000      -0.437008       -11.8916
  58   2.0000      -0.425023       -11.5655
  59   2.0000      -0.423230       -11.5167
  60   2.0000      -0.418078       -11.3765
  61   2.0000      -0.414787       -11.2869
  62   2.0000      -0.408439       -11.1142
  63   2.0000      -0.357239        -9.7210
  64   2.0000      -0.333539        -9.0760
  65   2.0000      -0.327935        -8.9236
  66   2.0000      -0.287789        -7.8311
  67   0.0000       0.018438         0.5017
  68   0.0000       0.069953         1.9035
  69   0.0000       0.100842         2.7441
  70   0.0000       0.116375         3.1667
  71   0.0000       0.122533         3.3343

MULLIKEN ATOMIC CHARGES
-----------------------
   0 S :    0.095203
   1 C :   -0.118279
   2 C :   -0.085162
   3 C :    0.023732
   4 C :   -0.167407
   5 H :    0.019509
   6 C :    0.031791
   7 H :    0.030686
   8 H :    0.026876
   9 C :   -0.064286
  10 H :    0.008388
  11 H :    0.037461
  12 C :   -0.018198
  13 H :    0.029748
  14 H :    0.037065
  15 H :    0.030310
  16 S :    0.085685
  17 C :   -0.109777
  18 C :   -0.044565
  19 C :   -0.015346
  20 C :   -0.112259
  21 H :    0.026278
  22 C :    0.003703
  23 H :    0.022570
  24 H :    0.039609
  25 C :   -0.038480
  26 H :    0.023490
  27 H :    0.029008
  28 C :   -0.015180
  29 H :    0.028471
  30 H :    0.019470
  31 H :    0.013007
  32 H :    0.055717
  33 H :    0.071164
Sum of atomic charges:    0.0000000

LOEWDIN ATOMIC CHARGES
----------------------
   0 S :    0.381968
   1 C :   -0.191274
   2 C :   -0.064004
   3 C :   -0.065413
   4 C :   -0.176905
   5 H :    0.037050
   6 C :   -0.031797
   7 H :    0.029566
   8 H :    0.032387
   9 C :   -0.041234
  10 H :    0.014371
  11 H :    0.028448
  12 C :   -0.047638
  13 H :    0.016975
  14 H :    0.032220
  15 H :    0.020470
  16 S :    0.376727
  17 C :   -0.166991
  18 C :   -0.072099
  19 C :   -0.060956
  20 C :   -0.200399
  21 H :    0.034487
  22 C :   -0.035928
  23 H :    0.033014
  24 H :    0.032080
  25 C :   -0.046423
  26 H :    0.019298
  27 H :    0.031280
  28 C :   -0.062437
  29 H :    0.027433
  30 H :    0.028779
  31 H :    0.017262
  32 H :    0.029617
  33 H :    0.040064

  Mayer bond orders larger than 0.100000
B(  0-S ,  1-C ) :   1.1280 B(  0-S ,  4-C ) :   1.1421 B(  1-C ,  2-C ) :   1.6170
B(  1-C ,  4-C ) :   0.1034 B(  1-C , 32-H ) :   0.9660 B(  2-C ,  3-C ) :   1.2379
B(  2-C ,  6-C ) :   1.0107 B(  3-C ,  4-C ) :   1.5634 B(  3-C ,  5-H ) :   0.9836
B(  4-C , 20-C ) :   1.0766 B(  6-C ,  7-H ) :   0.9427 B(  6-C ,  8-H ) :   0.9489
B(  6-C ,  9-C ) :   1.0464 B(  9-C , 10-H ) :   0.9547 B(  9-C , 11-H ) :   0.9632
B(  9-C , 12-C ) :   1.0643 B( 12-C , 13-H ) :   0.9790 B( 12-C , 14-H ) :   0.9794
B( 12-C , 15-H ) :   0.9779 B( 16-S , 17-C ) :   1.1209 B( 16-S , 20-C ) :   1.1271
B( 17-C , 18-C ) :   1.6361 B( 17-C , 20-C ) :   0.1026 B( 17-C , 33-H ) :   0.9636
B( 18-C , 19-C ) :   1.2279 B( 18-C , 21-H ) :   0.9814 B( 19-C , 20-C ) :   1.5881
B( 19-C , 22-C ) :   1.0396 B( 22-C , 23-H ) :   0.9403 B( 22-C , 24-H ) :   0.9329
B( 22-C , 25-C ) :   1.0551 B( 25-C , 26-H ) :   0.9466 B( 25-C , 27-H ) :   0.9499
B( 25-C , 28-C ) :   1.1059 B( 28-C , 29-H ) :   0.9682 B( 28-C , 30-H ) :   0.9650
B( 28-C , 31-H ) :   0.9646

Dispersion correction           -0.013642291
FINAL SINGLE POINT ENERGY     -1339.857636687154

DIPOLE MOMENT
-------------
                                X             Y             Z
Electronic contribution:    -12.74616     -20.80983     -19.12236
Nuclear contribution   :     12.95785      21.55937      19.44120
                        -----------------------------------------
Total Dipole Moment    :      0.21168       0.74953       0.31884
                        -----------------------------------------
Magnitude (a.u.)       :      0.84159
Magnitude (Debye)      :      2.13915

Rotational constants in cm-1:     0.016821     0.008589     0.006224
Rotational constants in MHz :   504.285813   257.505322   186.584472

                             ****ORCA TERMINATED NORMALLY****
TOTAL RUN TIME: 0 days 0 hours 0 minutes 32 seconds 555 msec
