                         Program Version 4.2.1 -  RELEASE  -
|  1> ! wB97X-D3 SP def2-SVP
|  2> %pal
|  3> nprocs 16
|  4> end
|  5>
|  6> * xyz 0 1
|  7> S 	 42.835 	 13.2357 	 50.0266
|  8> C 	 42.9491 	 13.0679 	 51.7717
|  9> C 	 41.8393 	 13.6274 	 52.4411
| 10> C 	 40.9694 	 14.3252 	 51.5094
| 11> C 	 41.5433 	 14.4054 	 50.2297
| 12> H 	 40.0964 	 14.9196 	 51.8399
| 13> C 	 41.6086 	 13.5629 	 54.0224
| 14> H 	 41.3254 	 14.5573 	 54.4957
| 15> H 	 42.6149 	 13.4101 	 54.4182
| 16> C 	 40.5037 	 12.5707 	 54.4344
| 17> H 	 39.5726 	 12.8536 	 54.012
| 18> H 	 40.7258 	 11.632 	 53.9412
| 19> C 	 40.2808 	 12.5021 	 55.9397
| 20> H 	 41.2291 	 12.0625 	 56.3185
| 21> H 	 40.1027 	 13.4759 	 56.4096
| 22> H 	 39.4516 	 11.917 	 56.2267
| 23> S 	 42.1377 	 15.6012 	 47.8433
| 24> C 	 40.8033 	 16.0624 	 46.8486
| 25> C 	 39.5192 	 15.9666 	 47.441
| 26> C 	 39.645 	 15.4233 	 48.7653
| 27> C 	 41.0015 	 15.0725 	 49.0686
| 28> H 	 38.6209 	 16.3527 	 46.9253
| 29> C 	 38.4954 	 15.0649 	 49.6176
| 30> H 	 38.229 	 15.9854 	 50.2083
| 31> H 	 38.8386 	 14.3133 	 50.314
| 32> C 	 37.182 	 14.4273 	 48.9842
| 33> H 	 36.9004 	 15.0199 	 48.1831
| 34> H 	 36.3911 	 14.494 	 49.6883
| 35> C 	 37.267 	 12.984 	 48.5018
| 36> H 	 36.3166 	 12.5629 	 48.1154
| 37> H 	 37.5862 	 12.2997 	 49.2824
| 38> H 	 38.0901 	 12.8071 	 47.8091
| 39> H 	 43.585 	 12.4175 	 52.324
| 40> H 	 40.9236 	 16.4909 	 45.8965
| 41> *
| 42>
| 43>                          ****END OF INPUT****

CARTESIAN COORDINATES (ANGSTROEM)
---------------------------------
  S     42.835000   13.235700   50.026600
  C     42.949100   13.067900   51.771700
  C     41.839300   13.627400   52.441100
  C     40.969400   14.325200   51.509400
  C     41.543300   14.405400   50.229700
  H     40.096400   14.919600   51.839900
  C     41.608600   13.562900   54.022400
  H     41.325400   14.557300   54.495700
  H     42.614900   13.410100   54.418200
  C     40.503700   12.570700   54.434400
  H     39.572600   12.853600   54.012000
  H     40.725800   11.632000   53.941200
  C     40.280800   12.502100   55.939700
  H     41.229100   12.062500   56.318500
  H     40.102700   13.475900   56.409600
  H     39.451600   11.917000   56.226700
  S     42.137700   15.601200   47.843300
  C     40.803300   16.062400   46.848600
  C     39.519200   15.966600   47.441000
  C     39.645000   15.423300   48.765300
  C     41.001500   15.072500   49.068600
  H     38.620900   16.352700   46.925300
  C     38.495400   15.064900   49.617600
  H     38.229000   15.985400   50.208300
  H     38.838600   14.313300   50.314000
  C     37.182000   14.427300   48.984200
  H     36.900400   15.019900   48.183100
  H     36.391100   14.494000   49.688300
  C     37.267000   12.984000   48.501800
  H     36.316600   12.562900   48.115400
  H     37.586200   12.299700   49.282400
  H     38.090100   12.807100   47.809100
  H     43.585000   12.417500   52.324000
  H     40.923600   16.490900   45.896500

 Total Charge           Charge          ....    0
 Multiplicity           Mult            ....    1
 Number of Electrons    NEL             ....  134
 Basis Dimension        Dim             ....  322

ORBITAL ENERGIES
----------------

  NO   OCC          E(Eh)            E(eV)
   0   2.0000     -88.972435     -2421.0631
   1   2.0000     -88.969768     -2420.9905
   2   2.0000     -10.332117      -281.1512
   3   2.0000     -10.327585      -281.0279
   4   2.0000     -10.316159      -280.7170
   5   2.0000     -10.313206      -280.6366
   6   2.0000     -10.310118      -280.5526
   7   2.0000     -10.308553      -280.5100
   8   2.0000     -10.304438      -280.3980
   9   2.0000     -10.302238      -280.3381
  10   2.0000     -10.298967      -280.2491
  11   2.0000     -10.293207      -280.0924
  12   2.0000     -10.283713      -279.8341
  13   2.0000     -10.282448      -279.7996
  14   2.0000     -10.278684      -279.6972
  15   2.0000     -10.275280      -279.6046
  16   2.0000      -8.087186      -220.0635
  17   2.0000      -8.084036      -219.9778
  18   2.0000      -6.045480      -164.5059
  19   2.0000      -6.042571      -164.4267
  20   2.0000      -6.041762      -164.4047
  21   2.0000      -6.038836      -164.3251
  22   2.0000      -6.038103      -164.3051
  23   2.0000      -6.034563      -164.2088
  24   2.0000      -1.004100       -27.3229
  25   2.0000      -0.977410       -26.5967
  26   2.0000      -0.908139       -24.7117
  27   2.0000      -0.906360       -24.6633
  28   2.0000      -0.866690       -23.5838
  29   2.0000      -0.855662       -23.2838
  30   2.0000      -0.842619       -22.9288
  31   2.0000      -0.808972       -22.0132
  32   2.0000      -0.783503       -21.3202
  33   2.0000      -0.768008       -20.8986
  34   2.0000      -0.713969       -19.4281
  35   2.0000      -0.701556       -19.0903
  36   2.0000      -0.695620       -18.9288
  37   2.0000      -0.656120       -17.8539
  38   2.0000      -0.632994       -17.2246
  39   2.0000      -0.619480       -16.8569
  40   2.0000      -0.594642       -16.1810
  41   2.0000      -0.567328       -15.4378
  42   2.0000      -0.558232       -15.1903
  43   2.0000      -0.551503       -15.0071
  44   2.0000      -0.539965       -14.6932
  45   2.0000      -0.528155       -14.3718
  46   2.0000      -0.517061       -14.0699
  47   2.0000      -0.507617       -13.8130
  48   2.0000      -0.494536       -13.4570
  49   2.0000      -0.492237       -13.3944
  50   2.0000      -0.490879       -13.3575
  51   2.0000      -0.482202       -13.1214
  52   2.0000      -0.465071       -12.6552
  53   2.0000      -0.464511       -12.6400
  54   2.0000      -0.458268       -12.4701
  55   2.0000      -0.455372       -12.3913
  56   2.0000      -0.446210       -12.1420
  57   2.0000      -0.445429       -12.1207
  58   2.0000      -0.438490       -11.9319
  59   2.0000      -0.428881       -11.6704
  60   2.0000      -0.422328       -11.4921
  61   2.0000      -0.411970       -11.2103
  62   2.0000      -0.408724       -11.1219
  63   2.0000      -0.352402        -9.5894
  64   2.0000      -0.334572        -9.1042
  65   2.0000      -0.329666        -8.9707
  66   2.0000      -0.277537        -7.5522
  67   0.0000       0.018064         0.4915
  68   0.0000       0.073427         1.9980
  69   0.0000       0.102178         2.7804
  70   0.0000       0.111348         3.0299
  71   0.0000       0.130691         3.5563

MULLIKEN ATOMIC CHARGES
-----------------------
   0 S :    0.110202
   1 C :   -0.087923
   2 C :   -0.110511
   3 C :   -0.008624
   4 C :   -0.126439
   5 H :    0.034077
   6 C :    0.025992
   7 H :    0.033086
   8 H :    0.023307
   9 C :   -0.050856
  10 H :    0.013350
  11 H :    0.026793
  12 C :   -0.029784
  13 H :    0.033426
  14 H :    0.029764
  15 H :    0.029770
  16 S :    0.131425
  17 C :   -0.076985
  18 C :   -0.053623
  19 C :   -0.031709
  20 C :   -0.157750
  21 H :    0.039854
  22 C :   -0.003461
  23 H :    0.052025
  24 H :    0.030400
  25 C :    0.001644
  26 H :    0.005624
  27 H :    0.016379
  28 C :   -0.066029
  29 H :    0.042943
  30 H :    0.019361
  31 H :    0.034860
  32 H :    0.032090
  33 H :    0.037320
Sum of atomic charges:   -0.0000000

LOEWDIN ATOMIC CHARGES
----------------------
   0 S :    0.401381
   1 C :   -0.204027
   2 C :   -0.052934
   3 C :   -0.076538
   4 C :   -0.186008
   5 H :    0.036170
   6 C :   -0.030689
   7 H :    0.033351
   8 H :    0.026811
   9 C :   -0.041551
  10 H :    0.017567
  11 H :    0.023997
  12 C :   -0.061653
  13 H :    0.029975
  14 H :    0.026718
  15 H :    0.020957
  16 S :    0.425518
  17 C :   -0.185027
  18 C :   -0.070416
  19 C :   -0.050906
  20 C :   -0.208105
  21 H :    0.040226
  22 C :   -0.039517
  23 H :    0.042654
  24 H :    0.030061
  25 C :   -0.027858
  26 H :    0.010444
  27 H :    0.022176
  28 C :   -0.071653
  29 H :    0.031676
  30 H :    0.023510
  31 H :    0.028102
  32 H :    0.020446
  33 H :    0.015143

  Mayer bond orders larger than 0.100000
B(  0-S ,  1-C ) :   1.1209 B(  0-S ,  4-C ) :   1.1493 B(  1-C ,  2-C ) :   1.6262
B(  1-C , 32-H ) :   0.9655 B(  2-C ,  3-C ) :   1.2438 B(  2-C ,  6-C ) :   1.0109
B(  3-C ,  4-C ) :   1.5506 B(  3-C ,  5-H ) :   0.9808 B(  4-C , 20-C ) :   1.0949
B(  6-C ,  7-H ) :   0.9495 B(  6-C ,  8-H ) :   0.9494 B(  6-C ,  9-C ) :   1.0454
B(  9-C , 10-H ) :   0.9547 B(  9-C , 11-H ) :   0.9568 B(  9-C , 12-C ) :   1.0818
B( 12-C , 13-H ) :   0.9772 B( 12-C , 14-H ) :   0.9719 B( 12-C , 15-H ) :   0.9746
B( 16-S , 17-C ) :   1.1716 B( 16-S , 20-C ) :   1.1454 B( 17-C , 18-C ) :   1.5846
B( 17-C , 20-C ) :   0.1000 B( 17-C , 33-H ) :   0.9698 B( 18-C , 19-C ) :   1.2596
B( 18-C , 21-H ) :   0.9844 B( 19-C , 20-C ) :   1.5303 B( 19-C , 22-C ) :   1.0577
B( 22-C , 23-H ) :   0.9193 B( 22-C , 24-H ) :   0.9322 B( 22-C , 25-C ) :   1.0674
B( 25-C , 26-H ) :   0.9525 B( 25-C , 27-H ) :   0.9510 B( 25-C , 28-C ) :   1.0793
B( 28-C , 29-H ) :   0.9738 B( 28-C , 30-H ) :   0.9702 B( 28-C , 31-H ) :   0.9758

Dispersion correction           -0.013869968
FINAL SINGLE POINT ENERGY     -1339.865702065939

DIPOLE MOMENT
-------------
                                X             Y             Z
Electronic contribution:     21.33976       8.16347     -19.59108
Nuclear contribution   :    -21.95218      -8.15432      19.90843
                        -----------------------------------------
Total Dipole Moment    :     -0.61242       0.00915       0.31735
                        -----------------------------------------
Magnitude (a.u.)       :      0.68982
Magnitude (Debye)      :      1.75338

Rotational constants in cm-1:     0.018817     0.008337     0.006383
Rotational constants in MHz :   564.114192   249.928381   191.352417

                             ****ORCA TERMINATED NORMALLY****
TOTAL RUN TIME: 0 days 0 hours 0 minutes 33 seconds 968 msec
