                         Program Version 4.2.1 -  RELEASE  -
|  1> ! wB97X-D3 SP def2-SVP
|  2> %pal
|  3> nprocs 16
|  4> end
|  5>
|  6> * xyz 0 1
|  7> S 	 -15.4053 	 -8.6114 	 91.2752
|  8> C 	 -16.8025 	 -8.83858 	 90.3603
|  9> C 	 -16.6186 	 -9.70583 	 89.2861
| 10> C 	 -15.326 	 -10.2964 	 89.292
| 11> C 	 -14.5659 	 -9.87164 	 90.3594
| 12> H 	 -15.029 	 -11.0417 	 88.5526
| 13> C 	 -17.6855 	 -10.0965 	 88.2707
| 14> H 	 -18.6264 	 -10.015 	 88.7324
| 15> H 	 -17.5519 	 -11.1359 	 88.0787
| 16> C 	 -17.7332 	 -9.13447 	 87.0322
| 17> H 	 -17.8312 	 -8.0514 	 87.3499
| 18> H 	 -16.7381 	 -9.19245 	 86.6403
| 19> C 	 -18.9136 	 -9.61302 	 86.0804
| 20> H 	 -18.5247 	 -9.56623 	 85.0848
| 21> H 	 -19.0258 	 -10.7119 	 86.2335
| 22> H 	 -19.8649 	 -9.04887 	 86.0577
| 23> S 	 -12.0352 	 -8.85269 	 90.4978
| 24> C 	 -10.7148 	 -9.87337 	 91.0757
| 25> C 	 -11.0858 	 -11.1971 	 91.1941
| 26> C 	 -12.4793 	 -11.3926 	 90.8104
| 27> C 	 -13.1815 	 -10.1669 	 90.6541
| 28> H 	 -10.3669 	 -11.957 	 91.5353
| 29> C 	 -13.2342 	 -12.7112 	 90.752
| 30> H 	 -13.6722 	 -12.6847 	 89.78
| 31> H 	 -13.9981 	 -12.6761 	 91.4866
| 32> C 	 -12.3757 	 -13.9845 	 90.8647
| 33> H 	 -11.8484 	 -14.0408 	 91.7767
| 34> H 	 -11.6404 	 -13.9131 	 90.0413
| 35> C 	 -13.1083 	 -15.3551 	 90.7269
| 36> H 	 -12.3924 	 -16.2761 	 90.8169
| 37> H 	 -13.5488 	 -15.5235 	 89.7444
| 38> H 	 -13.8015 	 -15.3325 	 91.4879
| 39> H 	 -17.726 	 -8.34452 	 90.5379
| 40> H 	 -9.77316 	 -9.52219 	 91.3686
| 41> *
| 42>
| 43>                          ****END OF INPUT****

CARTESIAN COORDINATES (ANGSTROEM)
---------------------------------
  S    -15.405300   -8.611400   91.275200
  C    -16.802500   -8.838580   90.360300
  C    -16.618600   -9.705830   89.286100
  C    -15.326000  -10.296400   89.292000
  C    -14.565900   -9.871640   90.359400
  H    -15.029000  -11.041700   88.552600
  C    -17.685500  -10.096500   88.270700
  H    -18.626400  -10.015000   88.732400
  H    -17.551900  -11.135900   88.078700
  C    -17.733200   -9.134470   87.032200
  H    -17.831200   -8.051400   87.349900
  H    -16.738100   -9.192450   86.640300
  C    -18.913600   -9.613020   86.080400
  H    -18.524700   -9.566230   85.084800
  H    -19.025800  -10.711900   86.233500
  H    -19.864900   -9.048870   86.057700
  S    -12.035200   -8.852690   90.497800
  C    -10.714800   -9.873370   91.075700
  C    -11.085800  -11.197100   91.194100
  C    -12.479300  -11.392600   90.810400
  C    -13.181500  -10.166900   90.654100
  H    -10.366900  -11.957000   91.535300
  C    -13.234200  -12.711200   90.752000
  H    -13.672200  -12.684700   89.780000
  H    -13.998100  -12.676100   91.486600
  C    -12.375700  -13.984500   90.864700
  H    -11.848400  -14.040800   91.776700
  H    -11.640400  -13.913100   90.041300
  C    -13.108300  -15.355100   90.726900
  H    -12.392400  -16.276100   90.816900
  H    -13.548800  -15.523500   89.744400
  H    -13.801500  -15.332500   91.487900
  H    -17.726000   -8.344520   90.537900
  H     -9.773160   -9.522190   91.368600

 Total Charge           Charge          ....    0
 Multiplicity           Mult            ....    1
 Number of Electrons    NEL             ....  134
 Basis Dimension        Dim             ....  322

ORBITAL ENERGIES
----------------

  NO   OCC          E(Eh)            E(eV)
   0   2.0000     -88.968029     -2420.9431
   1   2.0000     -88.961672     -2420.7702
   2   2.0000     -10.327607      -281.0285
   3   2.0000     -10.322811      -280.8980
   4   2.0000     -10.311491      -280.5899
   5   2.0000     -10.308092      -280.4974
   6   2.0000     -10.307407      -280.4788
   7   2.0000     -10.298007      -280.2230
   8   2.0000     -10.296862      -280.1919
   9   2.0000     -10.295799      -280.1629
  10   2.0000     -10.295319      -280.1499
  11   2.0000     -10.285722      -279.8887
  12   2.0000     -10.285638      -279.8864
  13   2.0000     -10.285513      -279.8830
  14   2.0000     -10.285257      -279.8761
  15   2.0000     -10.281819      -279.7825
  16   2.0000      -8.083550      -219.9646
  17   2.0000      -8.076137      -219.7628
  18   2.0000      -6.041859      -164.4073
  19   2.0000      -6.037913      -164.3000
  20   2.0000      -6.034717      -164.2130
  21   2.0000      -6.034495      -164.2070
  22   2.0000      -6.030696      -164.1036
  23   2.0000      -6.026831      -163.9984
  24   2.0000      -1.007407       -27.4129
  25   2.0000      -0.980623       -26.6841
  26   2.0000      -0.906796       -24.6752
  27   2.0000      -0.905165       -24.6308
  28   2.0000      -0.869402       -23.6576
  29   2.0000      -0.850932       -23.1550
  30   2.0000      -0.843105       -22.9421
  31   2.0000      -0.814526       -22.1644
  32   2.0000      -0.780455       -21.2373
  33   2.0000      -0.766228       -20.8501
  34   2.0000      -0.707418       -19.2498
  35   2.0000      -0.703501       -19.1432
  36   2.0000      -0.700138       -19.0517
  37   2.0000      -0.650787       -17.7088
  38   2.0000      -0.641031       -17.4433
  39   2.0000      -0.623848       -16.9758
  40   2.0000      -0.590596       -16.0709
  41   2.0000      -0.578243       -15.7348
  42   2.0000      -0.566739       -15.4218
  43   2.0000      -0.555218       -15.1082
  44   2.0000      -0.524618       -14.2756
  45   2.0000      -0.521976       -14.2037
  46   2.0000      -0.516016       -14.0415
  47   2.0000      -0.510289       -13.8857
  48   2.0000      -0.503353       -13.6969
  49   2.0000      -0.498956       -13.5773
  50   2.0000      -0.497992       -13.5510
  51   2.0000      -0.476234       -12.9590
  52   2.0000      -0.468218       -12.7409
  53   2.0000      -0.463099       -12.6016
  54   2.0000      -0.461563       -12.5598
  55   2.0000      -0.450950       -12.2710
  56   2.0000      -0.446264       -12.1435
  57   2.0000      -0.442541       -12.0422
  58   2.0000      -0.432541       -11.7700
  59   2.0000      -0.431456       -11.7405
  60   2.0000      -0.420591       -11.4449
  61   2.0000      -0.415223       -11.2988
  62   2.0000      -0.408125       -11.1056
  63   2.0000      -0.347794        -9.4640
  64   2.0000      -0.328282        -8.9330
  65   2.0000      -0.323196        -8.7946
  66   2.0000      -0.288809        -7.8589
  67   0.0000       0.030572         0.8319
  68   0.0000       0.065035         1.7697
  69   0.0000       0.116193         3.1618
  70   0.0000       0.123853         3.3702
  71   0.0000       0.134604         3.6628

MULLIKEN ATOMIC CHARGES
-----------------------
   0 S :    0.135202
   1 C :   -0.094584
   2 C :   -0.126975
   3 C :    0.042426
   4 C :   -0.185023
   5 H :    0.022784
   6 C :    0.077842
   7 H :    0.007860
   8 H :    0.021347
   9 C :   -0.082348
  10 H :    0.042544
  11 H :    0.024243
  12 C :   -0.047659
  13 H :    0.025522
  14 H :    0.034152
  15 H :    0.057278
  16 S :    0.104088
  17 C :   -0.062502
  18 C :   -0.050444
  19 C :   -0.071860
  20 C :   -0.149106
  21 H :    0.034371
  22 C :    0.119504
  23 H :    0.013556
  24 H :    0.034586
  25 C :   -0.105971
  26 H :    0.027270
  27 H :    0.028128
  28 C :   -0.038881
  29 H :    0.044514
  30 H :    0.030575
  31 H :    0.022251
  32 H :    0.032763
  33 H :    0.032547
Sum of atomic charges:   -0.0000000

LOEWDIN ATOMIC CHARGES
----------------------
   0 S :    0.436095
   1 C :   -0.210279
   2 C :   -0.065172
   3 C :   -0.055517
   4 C :   -0.199397
   5 H :    0.034670
   6 C :   -0.030288
   7 H :    0.022166
   8 H :    0.024762
   9 C :   -0.035737
  10 H :    0.032300
  11 H :    0.018679
  12 C :   -0.074412
  13 H :    0.025060
  14 H :    0.031198
  15 H :    0.033598
  16 S :    0.397011
  17 C :   -0.174950
  18 C :   -0.074518
  19 C :   -0.048467
  20 C :   -0.208199
  21 H :    0.038532
  22 C :   -0.027991
  23 H :    0.029262
  24 H :    0.029288
  25 C :   -0.040011
  26 H :    0.016466
  27 H :    0.024517
  28 C :   -0.060578
  29 H :    0.039174
  30 H :    0.022365
  31 H :    0.011834
  32 H :    0.021888
  33 H :    0.016651

  Mayer bond orders larger than 0.100000
B(  0-S ,  1-C ) :   1.1647 B(  0-S ,  4-C ) :   1.1610 B(  1-C ,  2-C ) :   1.5868
B(  1-C , 32-H ) :   0.9691 B(  2-C ,  3-C ) :   1.2769 B(  2-C ,  6-C ) :   1.0210
B(  3-C ,  4-C ) :   1.5454 B(  3-C ,  5-H ) :   0.9893 B(  4-C , 20-C ) :   1.0427
B(  6-C ,  7-H ) :   0.9394 B(  6-C ,  8-H ) :   0.9422 B(  6-C ,  9-C ) :   1.0503
B(  9-C , 10-H ) :   0.9608 B(  9-C , 11-H ) :   0.9647 B(  9-C , 12-C ) :   1.0491
B( 12-C , 13-H ) :   0.9751 B( 12-C , 14-H ) :   0.9757 B( 12-C , 15-H ) :   0.9779
B( 16-S , 17-C ) :   1.1473 B( 16-S , 20-C ) :   1.1477 B( 17-C , 18-C ) :   1.6155
B( 17-C , 20-C ) :   0.1044 B( 17-C , 33-H ) :   0.9694 B( 18-C , 19-C ) :   1.2301
B( 18-C , 21-H ) :   0.9861 B( 19-C , 20-C ) :   1.5889 B( 19-C , 22-C ) :   1.0316
B( 22-C , 23-H ) :   0.9232 B( 22-C , 24-H ) :   0.9306 B( 22-C , 25-C ) :   1.0845
B( 25-C , 26-H ) :   0.9532 B( 25-C , 27-H ) :   0.9564 B( 25-C , 28-C ) :   1.0784
B( 28-C , 29-H ) :   0.9746 B( 28-C , 30-H ) :   0.9770 B( 28-C , 31-H ) :   0.9775

Dispersion correction           -0.013421023
FINAL SINGLE POINT ENERGY     -1339.864683512441

DIPOLE MOMENT
-------------
                                X             Y             Z
Electronic contribution:     12.00087      20.44612      13.72984
Nuclear contribution   :    -12.27920     -20.93156     -14.04587
                        -----------------------------------------
Total Dipole Moment    :     -0.27833      -0.48544      -0.31604
                        -----------------------------------------
Magnitude (a.u.)       :      0.64265
Magnitude (Debye)      :      1.63349

Rotational constants in cm-1:     0.017665     0.007651     0.006064
Rotational constants in MHz :   529.572316   229.362324   181.808102

                             ****ORCA TERMINATED NORMALLY****
TOTAL RUN TIME: 0 days 0 hours 0 minutes 31 seconds 371 msec
