                         Program Version 4.2.1 -  RELEASE  -
|  1> ! wB97X-D3 SP def2-SVP
|  2> %pal
|  3> nprocs 16
|  4> end
|  5>
|  6> * xyz 0 1
|  7> S 	 0.866589 	 75.3163 	 47.1489
|  8> C 	 2.04279 	 74.0583 	 47.1826
|  9> C 	 3.3694 	 74.5645 	 47.3931
| 10> C 	 3.37783 	 75.965 	 47.4417
| 11> C 	 2.11423 	 76.5328 	 47.384
| 12> H 	 4.20758 	 76.6867 	 47.5284
| 13> C 	 4.64349 	 73.7929 	 47.6028
| 14> H 	 5.32994 	 74.1497 	 46.8121
| 15> H 	 4.38697 	 72.7697 	 47.4298
| 16> C 	 5.19021 	 73.9652 	 49.1255
| 17> H 	 6.23126 	 73.7319 	 49.2057
| 18> H 	 5.32525 	 75.0361 	 49.331
| 19> C 	 4.46148 	 73.2705 	 50.1922
| 20> H 	 4.6308 	 73.7658 	 51.1534
| 21> H 	 3.32991 	 73.3532 	 50.0432
| 22> H 	 4.71795 	 72.1833 	 50.1807
| 23> S 	 2.3962 	 78.7289 	 45.8828
| 24> C 	 1.91758 	 80.2976 	 46.4826
| 25> C 	 1.26918 	 80.2153 	 47.7319
| 26> C 	 1.30536 	 78.8634 	 48.2074
| 27> C 	 1.80171 	 77.9466 	 47.3026
| 28> H 	 1.07731 	 81.1718 	 48.2309
| 29> C 	 0.983527 	 78.4902 	 49.6959
| 30> H 	 0.866377 	 77.4311 	 49.6429
| 31> H 	 0.00318783 	 78.8388 	 49.9008
| 32> C 	 2.00519 	 78.8672 	 50.8289
| 33> H 	 1.55459 	 78.4579 	 51.74
| 34> H 	 2.03438 	 79.969 	 51.0315
| 35> C 	 3.44215 	 78.3599 	 50.6339
| 36> H 	 3.92395 	 78.0158 	 51.6066
| 37> H 	 3.9744 	 79.2317 	 50.2258
| 38> H 	 3.4372 	 77.5308 	 49.8244
| 39> H 	 1.77423 	 72.9551 	 47.2077
| 40> H 	 1.86758 	 81.1857 	 45.8428
| 41> *
| 42>
| 43>                          ****END OF INPUT****

CARTESIAN COORDINATES (ANGSTROEM)
---------------------------------
  S      0.866589   75.316300   47.148900
  C      2.042790   74.058300   47.182600
  C      3.369400   74.564500   47.393100
  C      3.377830   75.965000   47.441700
  C      2.114230   76.532800   47.384000
  H      4.207580   76.686700   47.528400
  C      4.643490   73.792900   47.602800
  H      5.329940   74.149700   46.812100
  H      4.386970   72.769700   47.429800
  C      5.190210   73.965200   49.125500
  H      6.231260   73.731900   49.205700
  H      5.325250   75.036100   49.331000
  C      4.461480   73.270500   50.192200
  H      4.630800   73.765800   51.153400
  H      3.329910   73.353200   50.043200
  H      4.717950   72.183300   50.180700
  S      2.396200   78.728900   45.882800
  C      1.917580   80.297600   46.482600
  C      1.269180   80.215300   47.731900
  C      1.305360   78.863400   48.207400
  C      1.801710   77.946600   47.302600
  H      1.077310   81.171800   48.230900
  C      0.983527   78.490200   49.695900
  H      0.866377   77.431100   49.642900
  H      0.003188   78.838800   49.900800
  C      2.005190   78.867200   50.828900
  H      1.554590   78.457900   51.740000
  H      2.034380   79.969000   51.031500
  C      3.442150   78.359900   50.633900
  H      3.923950   78.015800   51.606600
  H      3.974400   79.231700   50.225800
  H      3.437200   77.530800   49.824400
  H      1.774230   72.955100   47.207700
  H      1.867580   81.185700   45.842800

 Total Charge           Charge          ....    0
 Multiplicity           Mult            ....    1
 Number of Electrons    NEL             ....  134
 Basis Dimension        Dim             ....  322

ORBITAL ENERGIES
----------------

  NO   OCC          E(Eh)            E(eV)
   0   2.0000     -88.970000     -2420.9968
   1   2.0000     -88.964882     -2420.8575
   2   2.0000     -10.326830      -281.0073
   3   2.0000     -10.322740      -280.8960
   4   2.0000     -10.321507      -280.8625
   5   2.0000     -10.319545      -280.8091
   6   2.0000     -10.305697      -280.4323
   7   2.0000     -10.304210      -280.3918
   8   2.0000     -10.298404      -280.2338
   9   2.0000     -10.297845      -280.2186
  10   2.0000     -10.294552      -280.1290
  11   2.0000     -10.290214      -280.0110
  12   2.0000     -10.287398      -279.9343
  13   2.0000     -10.286606      -279.9128
  14   2.0000     -10.285582      -279.8849
  15   2.0000     -10.281959      -279.7863
  16   2.0000      -8.084593      -219.9930
  17   2.0000      -8.080115      -219.8711
  18   2.0000      -6.042942      -164.4368
  19   2.0000      -6.038972      -164.3288
  20   2.0000      -6.038533      -164.3168
  21   2.0000      -6.035696      -164.2396
  22   2.0000      -6.034375      -164.2037
  23   2.0000      -6.031116      -164.1150
  24   2.0000      -1.008353       -27.4387
  25   2.0000      -0.983613       -26.7655
  26   2.0000      -0.908197       -24.7133
  27   2.0000      -0.896842       -24.4043
  28   2.0000      -0.868716       -23.6390
  29   2.0000      -0.856505       -23.3067
  30   2.0000      -0.842912       -22.9368
  31   2.0000      -0.812224       -22.1017
  32   2.0000      -0.779950       -21.2235
  33   2.0000      -0.765799       -20.8384
  34   2.0000      -0.705247       -19.1907
  35   2.0000      -0.692596       -18.8465
  36   2.0000      -0.685977       -18.6664
  37   2.0000      -0.659707       -17.9515
  38   2.0000      -0.640142       -17.4192
  39   2.0000      -0.617157       -16.7937
  40   2.0000      -0.583884       -15.8883
  41   2.0000      -0.561772       -15.2866
  42   2.0000      -0.553615       -15.0646
  43   2.0000      -0.547012       -14.8849
  44   2.0000      -0.538477       -14.6527
  45   2.0000      -0.536348       -14.5948
  46   2.0000      -0.518534       -14.1100
  47   2.0000      -0.515174       -14.0186
  48   2.0000      -0.498693       -13.5701
  49   2.0000      -0.489258       -13.3134
  50   2.0000      -0.483976       -13.1697
  51   2.0000      -0.474216       -12.9041
  52   2.0000      -0.471324       -12.8254
  53   2.0000      -0.462564       -12.5870
  54   2.0000      -0.451820       -12.2947
  55   2.0000      -0.449544       -12.2327
  56   2.0000      -0.442233       -12.0338
  57   2.0000      -0.440674       -11.9914
  58   2.0000      -0.434064       -11.8115
  59   2.0000      -0.421884       -11.4800
  60   2.0000      -0.420279       -11.4364
  61   2.0000      -0.408614       -11.1190
  62   2.0000      -0.405272       -11.0280
  63   2.0000      -0.340624        -9.2689
  64   2.0000      -0.332207        -9.0398
  65   2.0000      -0.325932        -8.8691
  66   2.0000      -0.298935        -8.1344
  67   0.0000       0.038831         1.0566
  68   0.0000       0.056458         1.5363
  69   0.0000       0.107929         2.9369
  70   0.0000       0.118334         3.2200
  71   0.0000       0.131056         3.5662

MULLIKEN ATOMIC CHARGES
-----------------------
   0 S :    0.133700
   1 C :   -0.142068
   2 C :   -0.120635
   3 C :    0.044130
   4 C :   -0.199352
   5 H :    0.030874
   6 C :    0.090907
   7 H :    0.047012
   8 H :    0.008799
   9 C :   -0.069939
  10 H :    0.014642
  11 H :    0.019763
  12 C :   -0.058581
  13 H :    0.040547
  14 H :    0.040500
  15 H :    0.042682
  16 S :    0.119284
  17 C :   -0.121152
  18 C :   -0.040962
  19 C :   -0.052533
  20 C :   -0.176400
  21 H :    0.036941
  22 C :    0.106996
  23 H :    0.009892
  24 H :    0.014703
  25 C :   -0.074199
  26 H :    0.029654
  27 H :    0.030810
  28 C :   -0.092774
  29 H :    0.052283
  30 H :    0.043489
  31 H :    0.048130
  32 H :    0.073995
  33 H :    0.068863
Sum of atomic charges:    0.0000000

LOEWDIN ATOMIC CHARGES
----------------------
   0 S :    0.426182
   1 C :   -0.225196
   2 C :   -0.067392
   3 C :   -0.063364
   4 C :   -0.204263
   5 H :    0.037623
   6 C :   -0.025165
   7 H :    0.040420
   8 H :    0.022724
   9 C :   -0.047681
  10 H :    0.021164
  11 H :    0.024307
  12 C :   -0.073417
  13 H :    0.032486
  14 H :    0.032919
  15 H :    0.030198
  16 S :    0.426112
  17 C :   -0.190561
  18 C :   -0.076185
  19 C :   -0.056093
  20 C :   -0.219876
  21 H :    0.038746
  22 C :   -0.024425
  23 H :    0.022385
  24 H :    0.025292
  25 C :   -0.044563
  26 H :    0.024813
  27 H :    0.023974
  28 C :   -0.082278
  29 H :    0.034751
  30 H :    0.029660
  31 H :    0.035662
  32 H :    0.040608
  33 H :    0.030433

  Mayer bond orders larger than 0.100000
B(  0-S ,  1-C ) :   1.1659 B(  0-S ,  4-C ) :   1.1637 B(  1-C ,  2-C ) :   1.5594
B(  1-C ,  4-C ) :   0.1079 B(  1-C , 32-H ) :   0.9579 B(  2-C ,  3-C ) :   1.2567
B(  2-C ,  6-C ) :   1.0322 B(  3-C ,  4-C ) :   1.5615 B(  3-C ,  5-H ) :   0.9843
B(  4-C , 20-C ) :   1.0075 B(  6-C ,  7-H ) :   0.9385 B(  6-C ,  8-H ) :   0.9419
B(  6-C ,  9-C ) :   1.0472 B(  9-C , 10-H ) :   0.9515 B(  9-C , 11-H ) :   0.9577
B(  9-C , 12-C ) :   1.0818 B( 12-C , 13-H ) :   0.9679 B( 12-C , 14-H ) :   0.9739
B( 12-C , 15-H ) :   0.9724 B( 16-S , 17-C ) :   1.1750 B( 16-S , 20-C ) :   1.1536
B( 17-C , 18-C ) :   1.6001 B( 17-C , 20-C ) :   0.1021 B( 17-C , 33-H ) :   0.9606
B( 18-C , 19-C ) :   1.2408 B( 18-C , 21-H ) :   0.9893 B( 19-C , 20-C ) :   1.5995
B( 19-C , 22-C ) :   1.0307 B( 22-C , 23-H ) :   0.9271 B( 22-C , 24-H ) :   0.9344
B( 22-C , 25-C ) :   1.0729 B( 25-C , 26-H ) :   0.9574 B( 25-C , 27-H ) :   0.9634
B( 25-C , 28-C ) :   1.0494 B( 28-C , 29-H ) :   0.9748 B( 28-C , 30-H ) :   0.9753
B( 28-C , 31-H ) :   0.9761

Dispersion correction           -0.016028230
FINAL SINGLE POINT ENERGY     -1339.871656653916

DIPOLE MOMENT
-------------
                                X             Y             Z
Electronic contribution:    -13.02351       6.17020     -21.83393
Nuclear contribution   :     13.33424      -6.13036      22.24560
                        -----------------------------------------
Total Dipole Moment    :      0.31073       0.03983       0.41167
                        -----------------------------------------
Magnitude (a.u.)       :      0.51732
Magnitude (Debye)      :      1.31491

Rotational constants in cm-1:     0.019383     0.009554     0.008000
Rotational constants in MHz :   581.083220   286.428504   239.836494

                             ****ORCA TERMINATED NORMALLY****
TOTAL RUN TIME: 0 days 0 hours 0 minutes 37 seconds 242 msec
