                         Program Version 4.2.1 -  RELEASE  -
|  1> ! wB97X-D3 SP def2-SVP
|  2> %pal
|  3> nprocs 16
|  4> end
|  5>
|  6> * xyz 0 1
|  7> S 	 55.6872 	 25.051 	 41.0721
|  8> C 	 55.9743 	 26.8125 	 40.7974
|  9> C 	 55.126 	 27.5736 	 41.5422
| 10> C 	 54.1133 	 26.7682 	 42.1791
| 11> C 	 54.2509 	 25.436 	 42.0625
| 12> H 	 53.2445 	 27.1541 	 42.7655
| 13> C 	 55.0121 	 29.1058 	 41.3928
| 14> H 	 55.4859 	 29.4052 	 40.479
| 15> H 	 55.4762 	 29.6855 	 42.1637
| 16> C 	 53.5823 	 29.615 	 41.3963
| 17> H 	 52.9418 	 28.9743 	 40.8308
| 18> H 	 53.2499 	 29.5226 	 42.4304
| 19> C 	 53.4554 	 31.0738 	 40.956
| 20> H 	 54.1732 	 31.6531 	 41.5776
| 21> H 	 53.5564 	 31.2045 	 39.8935
| 22> H 	 52.4735 	 31.5428 	 41.2765
| 23> S 	 54.3562 	 23.488 	 43.9805
| 24> C 	 52.8666 	 22.8065 	 44.6331
| 25> C 	 51.8032 	 23.3205 	 44.0506
| 26> C 	 52.1431 	 24.3025 	 43.045
| 27> C 	 53.4715 	 24.4791 	 42.8572
| 28> H 	 50.7836 	 22.9307 	 44.2357
| 29> C 	 51.0642 	 24.9398 	 42.2303
| 30> H 	 50.5741 	 24.1524 	 41.6871
| 31> H 	 51.4609 	 25.6183 	 41.4703
| 32> C 	 49.9957 	 25.7985 	 43.0534
| 33> H 	 50.4408 	 26.2448 	 43.9823
| 34> H 	 49.2215 	 25.1375 	 43.4139
| 35> C 	 49.2867 	 26.9896 	 42.2891
| 36> H 	 48.5718 	 26.732 	 41.5074
| 37> H 	 50.1193 	 27.6458 	 41.8773
| 38> H 	 48.6734 	 27.6043 	 43.094
| 39> H 	 56.6867 	 27.2599 	 40.1413
| 40> H 	 52.7903 	 22.0765 	 45.4662
| 41> *
| 42>
| 43>                          ****END OF INPUT****

CARTESIAN COORDINATES (ANGSTROEM)
---------------------------------
  S     55.687200   25.051000   41.072100
  C     55.974300   26.812500   40.797400
  C     55.126000   27.573600   41.542200
  C     54.113300   26.768200   42.179100
  C     54.250900   25.436000   42.062500
  H     53.244500   27.154100   42.765500
  C     55.012100   29.105800   41.392800
  H     55.485900   29.405200   40.479000
  H     55.476200   29.685500   42.163700
  C     53.582300   29.615000   41.396300
  H     52.941800   28.974300   40.830800
  H     53.249900   29.522600   42.430400
  C     53.455400   31.073800   40.956000
  H     54.173200   31.653100   41.577600
  H     53.556400   31.204500   39.893500
  H     52.473500   31.542800   41.276500
  S     54.356200   23.488000   43.980500
  C     52.866600   22.806500   44.633100
  C     51.803200   23.320500   44.050600
  C     52.143100   24.302500   43.045000
  C     53.471500   24.479100   42.857200
  H     50.783600   22.930700   44.235700
  C     51.064200   24.939800   42.230300
  H     50.574100   24.152400   41.687100
  H     51.460900   25.618300   41.470300
  C     49.995700   25.798500   43.053400
  H     50.440800   26.244800   43.982300
  H     49.221500   25.137500   43.413900
  C     49.286700   26.989600   42.289100
  H     48.571800   26.732000   41.507400
  H     50.119300   27.645800   41.877300
  H     48.673400   27.604300   43.094000
  H     56.686700   27.259900   40.141300
  H     52.790300   22.076500   45.466200

 Total Charge           Charge          ....    0
 Multiplicity           Mult            ....    1
 Number of Electrons    NEL             ....  134
 Basis Dimension        Dim             ....  322

ORBITAL ENERGIES
----------------

  NO   OCC          E(Eh)            E(eV)
   0   2.0000     -88.967646     -2420.9327
   1   2.0000     -88.958931     -2420.6956
   2   2.0000     -10.330559      -281.1088
   3   2.0000     -10.324060      -280.9320
   4   2.0000     -10.318073      -280.7690
   5   2.0000     -10.314782      -280.6795
   6   2.0000     -10.303995      -280.3860
   7   2.0000     -10.298534      -280.2374
   8   2.0000     -10.297323      -280.2044
   9   2.0000     -10.295675      -280.1596
  10   2.0000     -10.295552      -280.1562
  11   2.0000     -10.290733      -280.0251
  12   2.0000     -10.290539      -280.0198
  13   2.0000     -10.290240      -280.0117
  14   2.0000     -10.286663      -279.9143
  15   2.0000     -10.283485      -279.8278
  16   2.0000      -8.080956      -219.8940
  17   2.0000      -8.074324      -219.7135
  18   2.0000      -6.039718      -164.3491
  19   2.0000      -6.035833      -164.2434
  20   2.0000      -6.033049      -164.1676
  21   2.0000      -6.031338      -164.1210
  22   2.0000      -6.028764      -164.0510
  23   2.0000      -6.024766      -163.9422
  24   2.0000      -1.009876       -27.4801
  25   2.0000      -0.985379       -26.8135
  26   2.0000      -0.916386       -24.9361
  27   2.0000      -0.897902       -24.4332
  28   2.0000      -0.876937       -23.8627
  29   2.0000      -0.844685       -22.9851
  30   2.0000      -0.840462       -22.8701
  31   2.0000      -0.822955       -22.3937
  32   2.0000      -0.780918       -21.2499
  33   2.0000      -0.769299       -20.9337
  34   2.0000      -0.712291       -19.3824
  35   2.0000      -0.695697       -18.9309
  36   2.0000      -0.692126       -18.8337
  37   2.0000      -0.657710       -17.8972
  38   2.0000      -0.644239       -17.5306
  39   2.0000      -0.616923       -16.7873
  40   2.0000      -0.596018       -16.2185
  41   2.0000      -0.583194       -15.8695
  42   2.0000      -0.565723       -15.3941
  43   2.0000      -0.558697       -15.2029
  44   2.0000      -0.523191       -14.2367
  45   2.0000      -0.520785       -14.1713
  46   2.0000      -0.511628       -13.9221
  47   2.0000      -0.510539       -13.8925
  48   2.0000      -0.505916       -13.7667
  49   2.0000      -0.497578       -13.5398
  50   2.0000      -0.493237       -13.4217
  51   2.0000      -0.480144       -13.0654
  52   2.0000      -0.470684       -12.8080
  53   2.0000      -0.463844       -12.6218
  54   2.0000      -0.462426       -12.5833
  55   2.0000      -0.449331       -12.2269
  56   2.0000      -0.446722       -12.1559
  57   2.0000      -0.431546       -11.7430
  58   2.0000      -0.427749       -11.6396
  59   2.0000      -0.423146       -11.5144
  60   2.0000      -0.421641       -11.4734
  61   2.0000      -0.419767       -11.4224
  62   2.0000      -0.414963       -11.2917
  63   2.0000      -0.354500        -9.6464
  64   2.0000      -0.332278        -9.0418
  65   2.0000      -0.326649        -8.8886
  66   2.0000      -0.301257        -8.1976
  67   0.0000       0.038979         1.0607
  68   0.0000       0.071101         1.9348
  69   0.0000       0.112414         3.0589
  70   0.0000       0.116770         3.1775
  71   0.0000       0.127971         3.4823

MULLIKEN ATOMIC CHARGES
-----------------------
   0 S :    0.097668
   1 C :   -0.115387
   2 C :   -0.050556
   3 C :    0.003104
   4 C :   -0.136151
   5 H :    0.031013
   6 C :    0.088338
   7 H :    0.011561
   8 H :    0.026192
   9 C :   -0.114260
  10 H :    0.028460
  11 H :    0.031321
  12 C :   -0.049844
  13 H :    0.027751
  14 H :    0.044268
  15 H :    0.037592
  16 S :    0.087048
  17 C :   -0.090338
  18 C :   -0.021455
  19 C :   -0.062550
  20 C :   -0.136031
  21 H :    0.030883
  22 C :    0.073921
  23 H :    0.034593
  24 H :    0.017255
  25 C :   -0.102243
  26 H :    0.043065
  27 H :    0.027736
  28 C :   -0.114795
  29 H :    0.047960
  30 H :    0.048019
  31 H :    0.050272
  32 H :    0.040584
  33 H :    0.065007
Sum of atomic charges:   -0.0000000

LOEWDIN ATOMIC CHARGES
----------------------
   0 S :    0.361855
   1 C :   -0.164986
   2 C :   -0.060410
   3 C :   -0.063125
   4 C :   -0.182481
   5 H :    0.039344
   6 C :   -0.024718
   7 H :    0.023804
   8 H :    0.028770
   9 C :   -0.044169
  10 H :    0.016245
  11 H :    0.023341
  12 C :   -0.065570
  13 H :    0.028110
  14 H :    0.023776
  15 H :    0.033916
  16 S :    0.390022
  17 C :   -0.176319
  18 C :   -0.076384
  19 C :   -0.063716
  20 C :   -0.192559
  21 H :    0.039912
  22 C :   -0.032105
  23 H :    0.032427
  24 H :    0.027056
  25 C :   -0.046596
  26 H :    0.029328
  27 H :    0.017932
  28 C :   -0.080312
  29 H :    0.022403
  30 H :    0.029354
  31 H :    0.039716
  32 H :    0.026414
  33 H :    0.039727

  Mayer bond orders larger than 0.100000
B(  0-S ,  1-C ) :   1.1108 B(  0-S ,  4-C ) :   1.1128 B(  1-C ,  2-C ) :   1.6677
B(  1-C , 32-H ) :   0.9696 B(  2-C ,  3-C ) :   1.2040 B(  2-C ,  6-C ) :   1.0115
B(  3-C ,  4-C ) :   1.6323 B(  3-C ,  5-H ) :   0.9815 B(  4-C , 20-C ) :   1.0091
B(  6-C ,  7-H ) :   0.9532 B(  6-C ,  8-H ) :   0.9261 B(  6-C ,  9-C ) :   1.0742
B(  9-C , 10-H ) :   0.9596 B(  9-C , 11-H ) :   0.9443 B(  9-C , 12-C ) :   1.0868
B( 12-C , 13-H ) :   0.9707 B( 12-C , 14-H ) :   0.9763 B( 12-C , 15-H ) :   0.9731
B( 16-S , 17-C ) :   1.1294 B( 16-S , 20-C ) :   1.1164 B( 17-C , 18-C ) :   1.6707
B( 17-C , 33-H ) :   0.9590 B( 18-C , 19-C ) :   1.1894 B( 18-C , 21-H ) :   0.9873
B( 19-C , 20-C ) :   1.6709 B( 19-C , 22-C ) :   1.0608 B( 22-C , 23-H ) :   0.9342
B( 22-C , 24-H ) :   0.9422 B( 22-C , 25-C ) :   1.0292 B( 25-C , 26-H ) :   0.9662
B( 25-C , 27-H ) :   0.9546 B( 25-C , 28-C ) :   1.0774 B( 28-C , 29-H ) :   0.9772
B( 28-C , 30-H ) :   0.9744 B( 28-C , 31-H ) :   0.9748

Dispersion correction           -0.014194373
FINAL SINGLE POINT ENERGY     -1339.877378194731

DIPOLE MOMENT
-------------
                                X             Y             Z
Electronic contribution:     20.59509     -26.07351       3.93549
Nuclear contribution   :    -21.19859      26.60902      -3.92319
                        -----------------------------------------
Total Dipole Moment    :     -0.60350       0.53551       0.01230
                        -----------------------------------------
Magnitude (a.u.)       :      0.80693
Magnitude (Debye)      :      2.05105

Rotational constants in cm-1:     0.016073     0.009846     0.006658
Rotational constants in MHz :   481.858293   295.166504   199.594078

                             ****ORCA TERMINATED NORMALLY****
TOTAL RUN TIME: 0 days 0 hours 0 minutes 30 seconds 119 msec
