                         Program Version 4.2.1 -  RELEASE  -
|  1> ! wB97X-D3 SP def2-SVP
|  2> %pal
|  3> nprocs 16
|  4> end
|  5>
|  6> * xyz 0 1
|  7> S 	 -101.009 	 55.7494 	 119.411
|  8> C 	 -99.8914 	 56.2198 	 118.094
|  9> C 	 -100.461 	 57.1871 	 117.344
| 10> C 	 -101.824 	 57.2949 	 117.619
| 11> C 	 -102.219 	 56.5637 	 118.675
| 12> H 	 -102.479 	 57.966 	 117.104
| 13> C 	 -99.7699 	 58.003 	 116.199
| 14> H 	 -98.9044 	 57.3329 	 115.918
| 15> H 	 -99.361 	 58.925 	 116.566
| 16> C 	 -100.727 	 58.3631 	 114.951
| 17> H 	 -101.395 	 59.1528 	 115.151
| 18> H 	 -99.9891 	 58.7695 	 114.206
| 19> C 	 -101.485 	 57.2657 	 114.256
| 20> H 	 -102.391 	 57.0139 	 114.641
| 21> H 	 -101.664 	 57.6033 	 113.227
| 22> H 	 -100.867 	 56.4079 	 114.091
| 23> S 	 -104.75 	 55.5876 	 118.615
| 24> C 	 -105.863 	 55.8076 	 119.901
| 25> C 	 -105.369 	 56.7936 	 120.747
| 26> C 	 -104.054 	 57.21 	 120.471
| 27> C 	 -103.535 	 56.5903 	 119.29
| 28> H 	 -105.899 	 57.0263 	 121.613
| 29> C 	 -103.343 	 58.1856 	 121.383
| 30> H 	 -102.417 	 57.5716 	 121.647
| 31> H 	 -103.824 	 58.3677 	 122.354
| 32> C 	 -102.924 	 59.5978 	 120.778
| 33> H 	 -103.862 	 60.1421 	 120.508
| 34> H 	 -102.36 	 59.5049 	 119.826
| 35> C 	 -101.986 	 60.3949 	 121.776
| 36> H 	 -102.522 	 60.6504 	 122.663
| 37> H 	 -101.433 	 61.1792 	 121.285
| 38> H 	 -101.121 	 59.7635 	 122.044
| 39> H 	 -98.8086 	 55.8704 	 118.037
| 40> H 	 -106.887 	 55.4049 	 120.021
| 41> *
| 42>
| 43>                          ****END OF INPUT****

CARTESIAN COORDINATES (ANGSTROEM)
---------------------------------
  S    -101.009000   55.749400  119.411000
  C    -99.891400   56.219800  118.094000
  C    -100.461000   57.187100  117.344000
  C    -101.824000   57.294900  117.619000
  C    -102.219000   56.563700  118.675000
  H    -102.479000   57.966000  117.104000
  C    -99.769900   58.003000  116.199000
  H    -98.904400   57.332900  115.918000
  H    -99.361000   58.925000  116.566000
  C    -100.727000   58.363100  114.951000
  H    -101.395000   59.152800  115.151000
  H    -99.989100   58.769500  114.206000
  C    -101.485000   57.265700  114.256000
  H    -102.391000   57.013900  114.641000
  H    -101.664000   57.603300  113.227000
  H    -100.867000   56.407900  114.091000
  S    -104.750000   55.587600  118.615000
  C    -105.863000   55.807600  119.901000
  C    -105.369000   56.793600  120.747000
  C    -104.054000   57.210000  120.471000
  C    -103.535000   56.590300  119.290000
  H    -105.899000   57.026300  121.613000
  C    -103.343000   58.185600  121.383000
  H    -102.417000   57.571600  121.647000
  H    -103.824000   58.367700  122.354000
  C    -102.924000   59.597800  120.778000
  H    -103.862000   60.142100  120.508000
  H    -102.360000   59.504900  119.826000
  C    -101.986000   60.394900  121.776000
  H    -102.522000   60.650400  122.663000
  H    -101.433000   61.179200  121.285000
  H    -101.121000   59.763500  122.044000
  H    -98.808600   55.870400  118.037000
  H    -106.887000   55.404900  120.021000

 Total Charge           Charge          ....    0
 Multiplicity           Mult            ....    1
 Number of Electrons    NEL             ....  134
 Basis Dimension        Dim             ....  322

ORBITAL ENERGIES
----------------

  NO   OCC          E(Eh)            E(eV)
   0   2.0000     -88.964853     -2420.8567
   1   2.0000     -88.964407     -2420.8446
   2   2.0000     -10.322162      -280.8803
   3   2.0000     -10.314797      -280.6799
   4   2.0000     -10.314766      -280.6791
   5   2.0000     -10.313557      -280.6461
   6   2.0000     -10.304236      -280.3925
   7   2.0000     -10.303235      -280.3653
   8   2.0000     -10.297501      -280.2093
   9   2.0000     -10.296058      -280.1700
  10   2.0000     -10.294180      -280.1189
  11   2.0000     -10.291643      -280.0498
  12   2.0000     -10.282873      -279.8112
  13   2.0000     -10.280688      -279.7517
  14   2.0000     -10.276747      -279.6445
  15   2.0000     -10.265911      -279.3496
  16   2.0000      -8.081046      -219.8964
  17   2.0000      -8.080335      -219.8771
  18   2.0000      -6.039340      -164.3388
  19   2.0000      -6.038651      -164.3200
  20   2.0000      -6.035404      -164.2317
  21   2.0000      -6.034407      -164.2046
  22   2.0000      -6.031757      -164.1324
  23   2.0000      -6.031596      -164.1281
  24   2.0000      -1.022018       -27.8105
  25   2.0000      -0.992233       -27.0000
  26   2.0000      -0.906946       -24.6793
  27   2.0000      -0.894588       -24.3430
  28   2.0000      -0.873308       -23.7639
  29   2.0000      -0.850787       -23.1511
  30   2.0000      -0.843485       -22.9524
  31   2.0000      -0.814527       -22.1644
  32   2.0000      -0.788049       -21.4439
  33   2.0000      -0.767454       -20.8835
  34   2.0000      -0.708869       -19.2893
  35   2.0000      -0.697904       -18.9909
  36   2.0000      -0.686039       -18.6681
  37   2.0000      -0.660356       -17.9692
  38   2.0000      -0.638486       -17.3741
  39   2.0000      -0.626107       -17.0372
  40   2.0000      -0.590224       -16.0608
  41   2.0000      -0.568997       -15.4832
  42   2.0000      -0.559616       -15.2279
  43   2.0000      -0.554942       -15.1008
  44   2.0000      -0.536220       -14.5913
  45   2.0000      -0.519584       -14.1386
  46   2.0000      -0.515389       -14.0244
  47   2.0000      -0.506270       -13.7763
  48   2.0000      -0.501401       -13.6438
  49   2.0000      -0.496924       -13.5220
  50   2.0000      -0.493993       -13.4422
  51   2.0000      -0.482446       -13.1280
  52   2.0000      -0.474431       -12.9099
  53   2.0000      -0.465081       -12.6555
  54   2.0000      -0.462463       -12.5843
  55   2.0000      -0.452433       -12.3113
  56   2.0000      -0.439130       -11.9493
  57   2.0000      -0.435021       -11.8375
  58   2.0000      -0.428951       -11.6723
  59   2.0000      -0.426104       -11.5949
  60   2.0000      -0.417710       -11.3665
  61   2.0000      -0.416947       -11.3457
  62   2.0000      -0.408910       -11.1270
  63   2.0000      -0.338239        -9.2040
  64   2.0000      -0.330182        -8.9847
  65   2.0000      -0.323304        -8.7976
  66   2.0000      -0.302355        -8.2275
  67   0.0000       0.048370         1.3162
  68   0.0000       0.057248         1.5578
  69   0.0000       0.113719         3.0944
  70   0.0000       0.129212         3.5160
  71   0.0000       0.134510         3.6602

MULLIKEN ATOMIC CHARGES
-----------------------
   0 S :    0.127641
   1 C :   -0.182688
   2 C :   -0.064465
   3 C :    0.035397
   4 C :   -0.135046
   5 H :   -0.004155
   6 C :    0.080752
   7 H :    0.030979
   8 H :    0.040961
   9 C :   -0.117993
  10 H :    0.027935
  11 H :    0.036268
  12 C :    0.013276
  13 H :    0.017726
  14 H :    0.020826
  15 H :    0.020514
  16 S :    0.132295
  17 C :   -0.110695
  18 C :   -0.031424
  19 C :   -0.005469
  20 C :   -0.195629
  21 H :   -0.005708
  22 C :    0.036617
  23 H :    0.034195
  24 H :    0.022142
  25 C :   -0.095137
  26 H :    0.040630
  27 H :    0.038262
  28 C :   -0.035962
  29 H :    0.036122
  30 H :    0.030428
  31 H :    0.024270
  32 H :    0.067147
  33 H :    0.069989
Sum of atomic charges:    0.0000000

LOEWDIN ATOMIC CHARGES
----------------------
   0 S :    0.448548
   1 C :   -0.200516
   2 C :   -0.067518
   3 C :   -0.068093
   4 C :   -0.235439
   5 H :    0.027415
   6 C :   -0.023556
   7 H :    0.035610
   8 H :    0.030210
   9 C :   -0.042846
  10 H :    0.017095
  11 H :    0.034149
  12 C :   -0.056795
  13 H :    0.010045
  14 H :    0.033391
  15 H :    0.025901
  16 S :    0.453252
  17 C :   -0.211593
  18 C :   -0.073474
  19 C :   -0.058790
  20 C :   -0.222300
  21 H :    0.019755
  22 C :   -0.041641
  23 H :    0.037540
  24 H :    0.029118
  25 C :   -0.040702
  26 H :    0.026140
  27 H :    0.026077
  28 C :   -0.067520
  29 H :    0.020487
  30 H :    0.026326
  31 H :    0.029537
  32 H :    0.039801
  33 H :    0.040387

  Mayer bond orders larger than 0.100000
B(  0-S ,  1-C ) :   1.1284 B(  0-S ,  4-C ) :   1.1956 B(  1-C ,  2-C ) :   1.6250
B(  1-C , 32-H ) :   0.9617 B(  2-C ,  3-C ) :   1.2550 B(  2-C ,  6-C ) :   0.9938
B(  3-C ,  4-C ) :   1.5655 B(  3-C ,  5-H ) :   1.0024 B(  4-C , 20-C ) :   0.9833
B(  6-C ,  7-H ) :   0.9462 B(  6-C ,  8-H ) :   0.9387 B(  6-C ,  9-C ) :   1.0682
B(  9-C , 10-H ) :   0.9529 B(  9-C , 11-H ) :   0.9573 B(  9-C , 12-C ) :   1.0902
B( 12-C , 13-H ) :   0.9741 B( 12-C , 14-H ) :   0.9677 B( 12-C , 15-H ) :   0.9716
B( 16-S , 17-C ) :   1.1878 B( 16-S , 20-C ) :   1.1928 B( 17-C , 18-C ) :   1.5483
B( 17-C , 20-C ) :   0.1159 B( 17-C , 33-H ) :   0.9636 B( 18-C , 19-C ) :   1.3087
B( 18-C , 21-H ) :   0.9967 B( 19-C , 20-C ) :   1.5172 B( 19-C , 22-C ) :   1.0410
B( 22-C , 23-H ) :   0.9285 B( 22-C , 24-H ) :   0.9424 B( 22-C , 25-C ) :   1.0467
B( 25-C , 26-H ) :   0.9585 B( 25-C , 27-H ) :   0.9594 B( 25-C , 28-C ) :   1.0720
B( 28-C , 29-H ) :   0.9789 B( 28-C , 30-H ) :   0.9751 B( 28-C , 31-H ) :   0.9735

Dispersion correction           -0.014812644
FINAL SINGLE POINT ENERGY     -1339.857788471934

DIPOLE MOMENT
-------------
                                X             Y             Z
Electronic contribution:     -7.89674     -19.02756       5.96887
Nuclear contribution   :      8.08086      19.49660      -6.07155
                        -----------------------------------------
Total Dipole Moment    :      0.18412       0.46903      -0.10268
                        -----------------------------------------
Magnitude (a.u.)       :      0.51424
Magnitude (Debye)      :      1.30708

Rotational constants in cm-1:     0.017088     0.009461     0.007818
Rotational constants in MHz :   512.297168   283.628579   234.369376

                             ****ORCA TERMINATED NORMALLY****
TOTAL RUN TIME: 0 days 0 hours 0 minutes 33 seconds 468 msec
