                         Program Version 4.2.1 -  RELEASE  -
|  1> ! wB97X-D3 SP def2-SVP
|  2> %pal
|  3> nprocs 16
|  4> end
|  5>
|  6> * xyz 0 1
|  7> S 	 -8.63025 	 50.4803 	 43.7684
|  8> C 	 -10.3366 	 50.2664 	 43.9584
|  9> C 	 -10.7923 	 49.2008 	 43.2709
| 10> C 	 -9.73266 	 48.4249 	 42.6417
| 11> C 	 -8.45801 	 48.9548 	 42.8423
| 12> H 	 -9.72618 	 47.5176 	 42.0246
| 13> C 	 -12.2182 	 48.8024 	 43.1117
| 14> H 	 -12.5749 	 49.1269 	 42.0988
| 15> H 	 -12.885 	 49.4943 	 43.682
| 16> C 	 -12.5898 	 47.3901 	 43.633
| 17> H 	 -13.6725 	 47.4268 	 43.465
| 18> H 	 -12.1539 	 46.6111 	 43.0254
| 19> C 	 -12.3127 	 47.3003 	 45.1325
| 20> H 	 -12.7381 	 46.4158 	 45.5875
| 21> H 	 -11.2273 	 47.2985 	 45.1853
| 22> H 	 -12.7511 	 48.2257 	 45.6777
| 23> S 	 -6.1395 	 49.6957 	 41.6038
| 24> C 	 -4.89306 	 48.5404 	 41.1259
| 25> C 	 -5.20849 	 47.2348 	 41.6342
| 26> C 	 -6.49963 	 47.2503 	 42.3217
| 27> C 	 -7.21851 	 48.4602 	 42.2873
| 28> H 	 -4.58248 	 46.3953 	 41.2812
| 29> C 	 -7.03647 	 45.9892 	 42.8465
| 30> H 	 -8.04096 	 46.0052 	 42.4158
| 31> H 	 -7.21757 	 46.0112 	 43.931
| 32> C 	 -6.26388 	 44.7332 	 42.6674
| 33> H 	 -5.44355 	 44.5806 	 43.3638
| 34> H 	 -6.06994 	 44.7351 	 41.6159
| 35> C 	 -7.23697 	 43.5733 	 42.9696
| 36> H 	 -8.07172 	 43.65 	 42.3173
| 37> H 	 -7.53458 	 43.6818 	 43.9327
| 38> H 	 -6.78631 	 42.5279 	 42.8487
| 39> H 	 -10.8946 	 50.8586 	 44.6675
| 40> H 	 -4.05255 	 48.8024 	 40.5666
| 41> *
| 42>
| 43>                          ****END OF INPUT****

CARTESIAN COORDINATES (ANGSTROEM)
---------------------------------
  S     -8.630250   50.480300   43.768400
  C    -10.336600   50.266400   43.958400
  C    -10.792300   49.200800   43.270900
  C     -9.732660   48.424900   42.641700
  C     -8.458010   48.954800   42.842300
  H     -9.726180   47.517600   42.024600
  C    -12.218200   48.802400   43.111700
  H    -12.574900   49.126900   42.098800
  H    -12.885000   49.494300   43.682000
  C    -12.589800   47.390100   43.633000
  H    -13.672500   47.426800   43.465000
  H    -12.153900   46.611100   43.025400
  C    -12.312700   47.300300   45.132500
  H    -12.738100   46.415800   45.587500
  H    -11.227300   47.298500   45.185300
  H    -12.751100   48.225700   45.677700
  S     -6.139500   49.695700   41.603800
  C     -4.893060   48.540400   41.125900
  C     -5.208490   47.234800   41.634200
  C     -6.499630   47.250300   42.321700
  C     -7.218510   48.460200   42.287300
  H     -4.582480   46.395300   41.281200
  C     -7.036470   45.989200   42.846500
  H     -8.040960   46.005200   42.415800
  H     -7.217570   46.011200   43.931000
  C     -6.263880   44.733200   42.667400
  H     -5.443550   44.580600   43.363800
  H     -6.069940   44.735100   41.615900
  C     -7.236970   43.573300   42.969600
  H     -8.071720   43.650000   42.317300
  H     -7.534580   43.681800   43.932700
  H     -6.786310   42.527900   42.848700
  H    -10.894600   50.858600   44.667500
  H     -4.052550   48.802400   40.566600

 Total Charge           Charge          ....    0
 Multiplicity           Mult            ....    1
 Number of Electrons    NEL             ....  134
 Basis Dimension        Dim             ....  322

ORBITAL ENERGIES
----------------

  NO   OCC          E(Eh)            E(eV)
   0   2.0000     -88.964155     -2420.8377
   1   2.0000     -88.963260     -2420.8134
   2   2.0000     -10.335780      -281.2509
   3   2.0000     -10.330514      -281.1076
   4   2.0000     -10.323298      -280.9112
   5   2.0000     -10.311724      -280.5963
   6   2.0000     -10.310744      -280.5696
   7   2.0000     -10.305755      -280.4338
   8   2.0000     -10.301289      -280.3123
   9   2.0000     -10.300001      -280.2773
  10   2.0000     -10.295227      -280.1474
  11   2.0000     -10.288839      -279.9735
  12   2.0000     -10.283919      -279.8397
  13   2.0000     -10.283560      -279.8299
  14   2.0000     -10.283033      -279.8155
  15   2.0000     -10.272901      -279.5399
  16   2.0000      -8.078246      -219.8203
  17   2.0000      -8.077978      -219.8130
  18   2.0000      -6.036822      -164.2703
  19   2.0000      -6.036636      -164.2652
  20   2.0000      -6.032636      -164.1564
  21   2.0000      -6.032475      -164.1520
  22   2.0000      -6.029165      -164.0619
  23   2.0000      -6.028564      -164.0456
  24   2.0000      -1.002633       -27.2830
  25   2.0000      -0.979857       -26.6633
  26   2.0000      -0.924498       -25.1569
  27   2.0000      -0.912774       -24.8378
  28   2.0000      -0.872806       -23.7503
  29   2.0000      -0.852452       -23.1964
  30   2.0000      -0.842087       -22.9143
  31   2.0000      -0.814969       -22.1764
  32   2.0000      -0.777538       -21.1579
  33   2.0000      -0.769977       -20.9521
  34   2.0000      -0.714271       -19.4363
  35   2.0000      -0.704835       -19.1795
  36   2.0000      -0.693882       -18.8815
  37   2.0000      -0.652478       -17.7548
  38   2.0000      -0.645707       -17.5706
  39   2.0000      -0.619978       -16.8705
  40   2.0000      -0.603845       -16.4315
  41   2.0000      -0.587776       -15.9942
  42   2.0000      -0.570283       -15.5182
  43   2.0000      -0.554573       -15.0907
  44   2.0000      -0.540054       -14.6956
  45   2.0000      -0.531322       -14.4580
  46   2.0000      -0.519066       -14.1245
  47   2.0000      -0.511736       -13.9251
  48   2.0000      -0.506414       -13.7802
  49   2.0000      -0.502191       -13.6653
  50   2.0000      -0.488252       -13.2860
  51   2.0000      -0.474012       -12.8985
  52   2.0000      -0.468479       -12.7480
  53   2.0000      -0.467145       -12.7117
  54   2.0000      -0.457258       -12.4426
  55   2.0000      -0.452452       -12.3118
  56   2.0000      -0.441729       -12.0201
  57   2.0000      -0.437678       -11.9098
  58   2.0000      -0.428652       -11.6642
  59   2.0000      -0.425697       -11.5838
  60   2.0000      -0.420802       -11.4506
  61   2.0000      -0.412957       -11.2371
  62   2.0000      -0.406652       -11.0656
  63   2.0000      -0.353693        -9.6245
  64   2.0000      -0.327658        -8.9160
  65   2.0000      -0.325237        -8.8502
  66   2.0000      -0.287438        -7.8216
  67   0.0000       0.024649         0.6707
  68   0.0000       0.060797         1.6544
  69   0.0000       0.110529         3.0076
  70   0.0000       0.119458         3.2506
  71   0.0000       0.130489         3.5508

MULLIKEN ATOMIC CHARGES
-----------------------
   0 S :    0.102592
   1 C :   -0.119635
   2 C :   -0.059076
   3 C :    0.002171
   4 C :   -0.141282
   5 H :    0.027145
   6 C :    0.019460
   7 H :    0.048421
   8 H :    0.003896
   9 C :   -0.060960
  10 H :    0.029257
  11 H :    0.037647
  12 C :   -0.062467
  13 H :    0.041523
  14 H :    0.048504
  15 H :    0.038384
  16 S :    0.088248
  17 C :   -0.074601
  18 C :   -0.063460
  19 C :   -0.026875
  20 C :   -0.151673
  21 H :    0.050668
  22 C :    0.014702
  23 H :    0.015819
  24 H :    0.029956
  25 C :   -0.052780
  26 H :    0.045805
  27 H :    0.024277
  28 C :   -0.012184
  29 H :    0.017210
  30 H :    0.003281
  31 H :    0.040298
  32 H :    0.051880
  33 H :    0.043850
Sum of atomic charges:    0.0000000

LOEWDIN ATOMIC CHARGES
----------------------
   0 S :    0.386881
   1 C :   -0.194705
   2 C :   -0.071184
   3 C :   -0.065126
   4 C :   -0.180397
   5 H :    0.033929
   6 C :   -0.043542
   7 H :    0.040002
   8 H :    0.028153
   9 C :   -0.039596
  10 H :    0.026096
  11 H :    0.020088
  12 C :   -0.065122
  13 H :    0.024192
  14 H :    0.028078
  15 H :    0.035299
  16 S :    0.395643
  17 C :   -0.166010
  18 C :   -0.081151
  19 C :   -0.049484
  20 C :   -0.199931
  21 H :    0.041538
  22 C :   -0.047076
  23 H :    0.034171
  24 H :    0.036696
  25 C :   -0.036114
  26 H :    0.031221
  27 H :    0.020505
  28 C :   -0.049452
  29 H :    0.018163
  30 H :    0.007692
  31 H :    0.032747
  32 H :    0.030845
  33 H :    0.016952

  Mayer bond orders larger than 0.100000
B(  0-S ,  1-C ) :   1.1274 B(  0-S ,  4-C ) :   1.1278 B(  1-C ,  2-C ) :   1.6365
B(  1-C , 32-H ) :   0.9662 B(  2-C ,  3-C ) :   1.1853 B(  2-C ,  6-C ) :   1.0347
B(  3-C ,  4-C ) :   1.6008 B(  3-C ,  5-H ) :   0.9884 B(  4-C , 20-C ) :   1.0825
B(  6-C ,  7-H ) :   0.9365 B(  6-C ,  8-H ) :   0.9391 B(  6-C ,  9-C ) :   1.0561
B(  9-C , 10-H ) :   0.9567 B(  9-C , 11-H ) :   0.9589 B(  9-C , 12-C ) :   1.0643
B( 12-C , 13-H ) :   0.9750 B( 12-C , 14-H ) :   0.9739 B( 12-C , 15-H ) :   0.9726
B( 16-S , 17-C ) :   1.1821 B( 16-S , 20-C ) :   1.1178 B( 17-C , 18-C ) :   1.5664
B( 17-C , 20-C ) :   0.1079 B( 17-C , 33-H ) :   0.9735 B( 18-C , 19-C ) :   1.2478
B( 18-C , 21-H ) :   0.9792 B( 19-C , 20-C ) :   1.5692 B( 19-C , 22-C ) :   1.0383
B( 22-C , 23-H ) :   0.9372 B( 22-C , 24-H ) :   0.9071 B( 22-C , 25-C ) :   1.0988
B( 25-C , 26-H ) :   0.9480 B( 25-C , 27-H ) :   0.9434 B( 25-C , 28-C ) :   1.0844
B( 28-C , 29-H ) :   0.9754 B( 28-C , 30-H ) :   0.9720 B( 28-C , 31-H ) :   0.9730

Dispersion correction           -0.013884230
FINAL SINGLE POINT ENERGY     -1339.851489230690

DIPOLE MOMENT
-------------
                                X             Y             Z
Electronic contribution:     14.77385      25.17952      -5.85309
Nuclear contribution   :    -15.10311     -25.81633       5.83666
                        -----------------------------------------
Total Dipole Moment    :     -0.32927      -0.63680      -0.01642
                        -----------------------------------------
Magnitude (a.u.)       :      0.71708
Magnitude (Debye)      :      1.82267

Rotational constants in cm-1:     0.017055     0.009397     0.006484
Rotational constants in MHz :   511.286984   281.715698   194.396844

                             ****ORCA TERMINATED NORMALLY****
TOTAL RUN TIME: 0 days 0 hours 0 minutes 34 seconds 321 msec
