                         Program Version 4.2.1 -  RELEASE  -
|  1> ! wB97X-D3 SP def2-SVP
|  2> %pal
|  3> nprocs 16
|  4> end
|  5>
|  6> * xyz 0 1
|  7> S 	 44.7761 	 10.2514 	 81.1864
|  8> C 	 43.4206 	 9.22779 	 80.8754
|  9> C 	 42.4144 	 9.18456 	 81.8231
| 10> C 	 42.6103 	 10.3309 	 82.6258
| 11> C 	 43.8194 	 10.9989 	 82.4939
| 12> H 	 41.899 	 10.7594 	 83.3101
| 13> C 	 41.2323 	 8.26427 	 81.6178
| 14> H 	 41.5579 	 7.3302 	 81.4173
| 15> H 	 40.6758 	 8.70967 	 80.7613
| 16> C 	 40.2675 	 8.03157 	 82.7928
| 17> H 	 40.8813 	 7.63766 	 83.6438
| 18> H 	 39.8047 	 8.88447 	 83.2594
| 19> C 	 39.078 	 7.10394 	 82.4342
| 20> H 	 39.3011 	 6.0586 	 82.7893
| 21> H 	 38.2447 	 7.47986 	 82.9652
| 22> H 	 38.8412 	 7.08555 	 81.3508
| 23> S 	 45.5408 	 11.7869 	 84.4756
| 24> C 	 45.3326 	 13.2983 	 85.2409
| 25> C 	 44.3272 	 13.9844 	 84.6714
| 26> C 	 43.7281 	 13.3263 	 83.5582
| 27> C 	 44.291 	 12.0616 	 83.3295
| 28> H 	 43.9525 	 14.9815 	 85.0153
| 29> C 	 42.6195 	 13.9715 	 82.727
| 30> H 	 41.9761 	 14.6479 	 83.3309
| 31> H 	 41.9267 	 13.159 	 82.3136
| 32> C 	 43.0506 	 14.9515 	 81.5324
| 33> H 	 43.6114 	 15.8159 	 81.8541
| 34> H 	 42.0828 	 15.2781 	 81.0776
| 35> C 	 43.7262 	 14.1224 	 80.4362
| 36> H 	 43.5543 	 13.0552 	 80.3963
| 37> H 	 44.7709 	 14.2311 	 80.5697
| 38> H 	 43.4103 	 14.5718 	 79.4785
| 39> H 	 43.3998 	 8.62247 	 79.9655
| 40> H 	 45.8703 	 13.5491 	 86.1888
| 41> *
| 42>
| 43>                          ****END OF INPUT****

CARTESIAN COORDINATES (ANGSTROEM)
---------------------------------
  S     44.776100   10.251400   81.186400
  C     43.420600    9.227790   80.875400
  C     42.414400    9.184560   81.823100
  C     42.610300   10.330900   82.625800
  C     43.819400   10.998900   82.493900
  H     41.899000   10.759400   83.310100
  C     41.232300    8.264270   81.617800
  H     41.557900    7.330200   81.417300
  H     40.675800    8.709670   80.761300
  C     40.267500    8.031570   82.792800
  H     40.881300    7.637660   83.643800
  H     39.804700    8.884470   83.259400
  C     39.078000    7.103940   82.434200
  H     39.301100    6.058600   82.789300
  H     38.244700    7.479860   82.965200
  H     38.841200    7.085550   81.350800
  S     45.540800   11.786900   84.475600
  C     45.332600   13.298300   85.240900
  C     44.327200   13.984400   84.671400
  C     43.728100   13.326300   83.558200
  C     44.291000   12.061600   83.329500
  H     43.952500   14.981500   85.015300
  C     42.619500   13.971500   82.727000
  H     41.976100   14.647900   83.330900
  H     41.926700   13.159000   82.313600
  C     43.050600   14.951500   81.532400
  H     43.611400   15.815900   81.854100
  H     42.082800   15.278100   81.077600
  C     43.726200   14.122400   80.436200
  H     43.554300   13.055200   80.396300
  H     44.770900   14.231100   80.569700
  H     43.410300   14.571800   79.478500
  H     43.399800    8.622470   79.965500
  H     45.870300   13.549100   86.188800

 Total Charge           Charge          ....    0
 Multiplicity           Mult            ....    1
 Number of Electrons    NEL             ....  134
 Basis Dimension        Dim             ....  322

ORBITAL ENERGIES
----------------

  NO   OCC          E(Eh)            E(eV)
   0   2.0000     -88.968324     -2420.9512
   1   2.0000     -88.960584     -2420.7406
   2   2.0000     -10.325298      -280.9656
   3   2.0000     -10.320161      -280.8258
   4   2.0000     -10.312748      -280.6241
   5   2.0000     -10.312483      -280.6169
   6   2.0000     -10.301862      -280.3279
   7   2.0000     -10.300391      -280.2879
   8   2.0000     -10.297633      -280.2128
   9   2.0000     -10.295754      -280.1617
  10   2.0000     -10.292749      -280.0799
  11   2.0000     -10.290484      -280.0183
  12   2.0000     -10.289359      -279.9877
  13   2.0000     -10.286957      -279.9223
  14   2.0000     -10.283384      -279.8251
  15   2.0000     -10.261940      -279.2416
  16   2.0000      -8.082734      -219.9424
  17   2.0000      -8.077048      -219.7877
  18   2.0000      -6.040979      -164.3834
  19   2.0000      -6.037438      -164.2870
  20   2.0000      -6.035372      -164.2308
  21   2.0000      -6.033639      -164.1837
  22   2.0000      -6.031218      -164.1178
  23   2.0000      -6.027979      -164.0296
  24   2.0000      -1.011348       -27.5202
  25   2.0000      -0.989900       -26.9366
  26   2.0000      -0.914191       -24.8764
  27   2.0000      -0.895954       -24.3802
  28   2.0000      -0.873253       -23.7624
  29   2.0000      -0.852528       -23.1985
  30   2.0000      -0.844565       -22.9818
  31   2.0000      -0.815563       -22.1926
  32   2.0000      -0.782751       -21.2997
  33   2.0000      -0.765953       -20.8427
  34   2.0000      -0.710378       -19.3304
  35   2.0000      -0.691458       -18.8155
  36   2.0000      -0.685008       -18.6400
  37   2.0000      -0.653719       -17.7886
  38   2.0000      -0.644639       -17.5415
  39   2.0000      -0.620331       -16.8801
  40   2.0000      -0.595162       -16.1952
  41   2.0000      -0.575377       -15.6568
  42   2.0000      -0.565565       -15.3898
  43   2.0000      -0.545142       -14.8341
  44   2.0000      -0.533661       -14.5217
  45   2.0000      -0.526265       -14.3204
  46   2.0000      -0.509679       -13.8691
  47   2.0000      -0.507303       -13.8044
  48   2.0000      -0.503623       -13.7043
  49   2.0000      -0.492863       -13.4115
  50   2.0000      -0.492306       -13.3963
  51   2.0000      -0.487617       -13.2687
  52   2.0000      -0.474962       -12.9244
  53   2.0000      -0.464810       -12.6481
  54   2.0000      -0.461835       -12.5672
  55   2.0000      -0.445177       -12.1139
  56   2.0000      -0.439735       -11.9658
  57   2.0000      -0.436955       -11.8901
  58   2.0000      -0.430423       -11.7124
  59   2.0000      -0.429039       -11.6747
  60   2.0000      -0.416446       -11.3321
  61   2.0000      -0.410770       -11.1776
  62   2.0000      -0.403483       -10.9793
  63   2.0000      -0.343416        -9.3448
  64   2.0000      -0.333463        -9.0740
  65   2.0000      -0.324787        -8.8379
  66   2.0000      -0.290505        -7.9050
  67   0.0000       0.040050         1.0898
  68   0.0000       0.058366         1.5882
  69   0.0000       0.116808         3.1785
  70   0.0000       0.122751         3.3402
  71   0.0000       0.127724         3.4756

MULLIKEN ATOMIC CHARGES
-----------------------
   0 S :    0.125227
   1 C :   -0.135521
   2 C :   -0.057469
   3 C :    0.038062
   4 C :   -0.200358
   5 H :    0.010592
   6 C :    0.095596
   7 H :    0.009315
   8 H :    0.053014
   9 C :   -0.118118
  10 H :    0.035655
  11 H :    0.022741
  12 C :   -0.048102
  13 H :    0.046008
  14 H :    0.027290
  15 H :    0.038485
  16 S :    0.115137
  17 C :   -0.104897
  18 C :   -0.035519
  19 C :   -0.023658
  20 C :   -0.154855
  21 H :    0.027165
  22 C :    0.003027
  23 H :    0.022081
  24 H :    0.040041
  25 C :   -0.072787
  26 H :    0.035104
  27 H :    0.032146
  28 C :   -0.037927
  29 H :    0.032559
  30 H :    0.027825
  31 H :    0.027513
  32 H :    0.047742
  33 H :    0.076889
Sum of atomic charges:    0.0000000

LOEWDIN ATOMIC CHARGES
----------------------
   0 S :    0.403956
   1 C :   -0.188745
   2 C :   -0.066025
   3 C :   -0.046229
   4 C :   -0.198764
   5 H :    0.028954
   6 C :   -0.023216
   7 H :    0.019669
   8 H :    0.042571
   9 C :   -0.047889
  10 H :    0.030122
  11 H :    0.017162
  12 C :   -0.064917
  13 H :    0.033182
  14 H :    0.022229
  15 H :    0.028817
  16 S :    0.436599
  17 C :   -0.207127
  18 C :   -0.080390
  19 C :   -0.062146
  20 C :   -0.218728
  21 H :    0.037737
  22 C :   -0.039846
  23 H :    0.027054
  24 H :    0.036153
  25 C :   -0.033909
  26 H :    0.021578
  27 H :    0.026366
  28 C :   -0.069351
  29 H :    0.021376
  30 H :    0.021491
  31 H :    0.026837
  32 H :    0.023750
  33 H :    0.041680

  Mayer bond orders larger than 0.100000
B(  0-S ,  1-C ) :   1.1682 B(  0-S ,  4-C ) :   1.1202 B(  1-C ,  2-C ) :   1.5966
B(  1-C ,  4-C ) :   0.1058 B(  1-C , 32-H ) :   0.9662 B(  2-C ,  3-C ) :   1.2391
B(  2-C ,  6-C ) :   1.0211 B(  3-C ,  4-C ) :   1.5962 B(  3-C ,  5-H ) :   0.9909
B(  4-C , 20-C ) :   1.0398 B(  6-C ,  7-H ) :   0.9349 B(  6-C ,  8-H ) :   0.9391
B(  6-C ,  9-C ) :   1.0682 B(  9-C , 10-H ) :   0.9593 B(  9-C , 11-H ) :   0.9640
B(  9-C , 12-C ) :   1.0675 B( 12-C , 13-H ) :   0.9773 B( 12-C , 14-H ) :   0.9802
B( 12-C , 15-H ) :   0.9772 B( 16-S , 17-C ) :   1.1680 B( 16-S , 20-C ) :   1.1665
B( 17-C , 18-C ) :   1.5808 B( 17-C , 33-H ) :   0.9620 B( 18-C , 19-C ) :   1.2774
B( 18-C , 21-H ) :   0.9850 B( 19-C , 20-C ) :   1.5584 B( 19-C , 22-C ) :   1.0458
B( 22-C , 23-H ) :   0.9389 B( 22-C , 24-H ) :   0.9392 B( 22-C , 25-C ) :   1.0702
B( 25-C , 26-H ) :   0.9602 B( 25-C , 27-H ) :   0.9637 B( 25-C , 28-C ) :   1.0576
B( 28-C , 29-H ) :   0.9775 B( 28-C , 30-H ) :   0.9769 B( 28-C , 31-H ) :   0.9781

Dispersion correction           -0.014747372
FINAL SINGLE POINT ENERGY     -1339.864404297682

DIPOLE MOMENT
-------------
                                X             Y             Z
Electronic contribution:     22.92755       0.62191       7.01116
Nuclear contribution   :    -23.62129      -0.64725      -7.00490
                        -----------------------------------------
Total Dipole Moment    :     -0.69374      -0.02534       0.00626
                        -----------------------------------------
Magnitude (a.u.)       :      0.69423
Magnitude (Debye)      :      1.76460

Rotational constants in cm-1:     0.019372     0.007704     0.007373
Rotational constants in MHz :   580.759213   230.954575   221.027017

                             ****ORCA TERMINATED NORMALLY****
TOTAL RUN TIME: 0 days 0 hours 0 minutes 30 seconds 206 msec
