                         Program Version 4.2.1 -  RELEASE  -
|  1> ! wB97X-D3 SP def2-SVP
|  2> %pal
|  3> nprocs 16
|  4> end
|  5>
|  6> * xyz 0 1
|  7> S 	 -3.9131 	 -22.6609 	 58.1533
|  8> C 	 -3.63077 	 -20.9351 	 58.5386
|  9> C 	 -3.13432 	 -20.2857 	 57.4203
| 10> C 	 -2.96823 	 -21.1693 	 56.3315
| 11> C 	 -3.34213 	 -22.4535 	 56.4682
| 12> H 	 -2.58538 	 -21.0354 	 55.3426
| 13> C 	 -2.64036 	 -18.81 	 57.4305
| 14> H 	 -1.56163 	 -18.6495 	 57.4152
| 15> H 	 -2.83054 	 -18.5303 	 58.4789
| 16> C 	 -3.33466 	 -17.7351 	 56.546
| 17> H 	 -3.01085 	 -16.7621 	 56.9603
| 18> H 	 -2.99701 	 -17.9265 	 55.579
| 19> C 	 -4.82618 	 -17.943 	 56.4134
| 20> H 	 -5.3303 	 -17.0457 	 56.1218
| 21> H 	 -5.05624 	 -18.6355 	 55.6502
| 22> H 	 -5.35284 	 -18.1941 	 57.3631
| 23> S 	 -2.22844 	 -24.8841 	 56.0423
| 24> C 	 -2.21409 	 -25.5233 	 54.4769
| 25> C 	 -2.83293 	 -24.7215 	 53.5884
| 26> C 	 -3.39082 	 -23.5743 	 54.1815
| 27> C 	 -3.23017 	 -23.5383 	 55.5098
| 28> H 	 -2.88791 	 -25.092 	 52.5962
| 29> C 	 -4.02963 	 -22.5431 	 53.3495
| 30> H 	 -3.3845 	 -21.8058 	 52.9484
| 31> H 	 -4.63422 	 -21.9929 	 54.0499
| 32> C 	 -4.84625 	 -23.0439 	 52.1154
| 33> H 	 -5.53762 	 -23.822 	 52.3597
| 34> H 	 -4.16584 	 -23.6258 	 51.4118
| 35> C 	 -5.51716 	 -21.8094 	 51.3938
| 36> H 	 -4.79006 	 -21.01 	 51.1893
| 37> H 	 -6.34953 	 -21.4009 	 51.9424
| 38> H 	 -6.09575 	 -22.1942 	 50.5309
| 39> H 	 -4.07888 	 -20.4972 	 59.3277
| 40> H 	 -1.78917 	 -26.5176 	 54.1666
| 41> *
| 42>
| 43>                          ****END OF INPUT****

CARTESIAN COORDINATES (ANGSTROEM)
---------------------------------
  S     -3.913100  -22.660900   58.153300
  C     -3.630770  -20.935100   58.538600
  C     -3.134320  -20.285700   57.420300
  C     -2.968230  -21.169300   56.331500
  C     -3.342130  -22.453500   56.468200
  H     -2.585380  -21.035400   55.342600
  C     -2.640360  -18.810000   57.430500
  H     -1.561630  -18.649500   57.415200
  H     -2.830540  -18.530300   58.478900
  C     -3.334660  -17.735100   56.546000
  H     -3.010850  -16.762100   56.960300
  H     -2.997010  -17.926500   55.579000
  C     -4.826180  -17.943000   56.413400
  H     -5.330300  -17.045700   56.121800
  H     -5.056240  -18.635500   55.650200
  H     -5.352840  -18.194100   57.363100
  S     -2.228440  -24.884100   56.042300
  C     -2.214090  -25.523300   54.476900
  C     -2.832930  -24.721500   53.588400
  C     -3.390820  -23.574300   54.181500
  C     -3.230170  -23.538300   55.509800
  H     -2.887910  -25.092000   52.596200
  C     -4.029630  -22.543100   53.349500
  H     -3.384500  -21.805800   52.948400
  H     -4.634220  -21.992900   54.049900
  C     -4.846250  -23.043900   52.115400
  H     -5.537620  -23.822000   52.359700
  H     -4.165840  -23.625800   51.411800
  C     -5.517160  -21.809400   51.393800
  H     -4.790060  -21.010000   51.189300
  H     -6.349530  -21.400900   51.942400
  H     -6.095750  -22.194200   50.530900
  H     -4.078880  -20.497200   59.327700
  H     -1.789170  -26.517600   54.166600

 Total Charge           Charge          ....    0
 Multiplicity           Mult            ....    1
 Number of Electrons    NEL             ....  134
 Basis Dimension        Dim             ....  322

ORBITAL ENERGIES
----------------

  NO   OCC          E(Eh)            E(eV)
   0   2.0000     -88.962217     -2420.7850
   1   2.0000     -88.960643     -2420.7422
   2   2.0000     -10.327805      -281.0338
   3   2.0000     -10.321013      -280.8490
   4   2.0000     -10.313396      -280.6418
   5   2.0000     -10.313370      -280.6411
   6   2.0000     -10.307614      -280.4844
   7   2.0000     -10.296494      -280.1819
   8   2.0000     -10.295971      -280.1676
   9   2.0000     -10.294584      -280.1299
  10   2.0000     -10.286674      -279.9146
  11   2.0000     -10.285809      -279.8911
  12   2.0000     -10.285714      -279.8885
  13   2.0000     -10.284592      -279.8580
  14   2.0000     -10.282735      -279.8075
  15   2.0000     -10.270630      -279.4781
  16   2.0000      -8.078432      -219.8253
  17   2.0000      -8.074538      -219.7193
  18   2.0000      -6.036826      -164.2704
  19   2.0000      -6.033141      -164.1701
  20   2.0000      -6.032813      -164.1612
  21   2.0000      -6.029139      -164.0612
  22   2.0000      -6.029104      -164.0603
  23   2.0000      -6.025260      -163.9557
  24   2.0000      -1.018086       -27.7035
  25   2.0000      -0.987430       -26.8693
  26   2.0000      -0.912228       -24.8230
  27   2.0000      -0.909072       -24.7371
  28   2.0000      -0.877520       -23.8785
  29   2.0000      -0.853139       -23.2151
  30   2.0000      -0.840762       -22.8783
  31   2.0000      -0.822870       -22.3914
  32   2.0000      -0.786105       -21.3910
  33   2.0000      -0.777466       -21.1559
  34   2.0000      -0.714471       -19.4418
  35   2.0000      -0.707049       -19.2398
  36   2.0000      -0.698049       -18.9949
  37   2.0000      -0.658630       -17.9222
  38   2.0000      -0.652431       -17.7536
  39   2.0000      -0.619785       -16.8652
  40   2.0000      -0.606318       -16.4987
  41   2.0000      -0.573981       -15.6188
  42   2.0000      -0.562222       -15.2988
  43   2.0000      -0.556149       -15.1336
  44   2.0000      -0.540010       -14.6944
  45   2.0000      -0.532570       -14.4920
  46   2.0000      -0.521135       -14.1808
  47   2.0000      -0.515658       -14.0318
  48   2.0000      -0.505159       -13.7461
  49   2.0000      -0.494427       -13.4541
  50   2.0000      -0.490792       -13.3551
  51   2.0000      -0.476044       -12.9538
  52   2.0000      -0.474904       -12.9228
  53   2.0000      -0.469288       -12.7700
  54   2.0000      -0.457919       -12.4606
  55   2.0000      -0.449822       -12.2403
  56   2.0000      -0.446375       -12.1465
  57   2.0000      -0.440560       -11.9882
  58   2.0000      -0.428707       -11.6657
  59   2.0000      -0.422342       -11.4925
  60   2.0000      -0.416599       -11.3362
  61   2.0000      -0.415360       -11.3025
  62   2.0000      -0.410992       -11.1837
  63   2.0000      -0.353486        -9.6188
  64   2.0000      -0.333059        -9.0630
  65   2.0000      -0.330628        -8.9968
  66   2.0000      -0.297990        -8.1087
  67   0.0000       0.031017         0.8440
  68   0.0000       0.070277         1.9123
  69   0.0000       0.117802         3.2055
  70   0.0000       0.123955         3.3730
  71   0.0000       0.130784         3.5588

MULLIKEN ATOMIC CHARGES
-----------------------
   0 S :    0.075422
   1 C :   -0.070699
   2 C :   -0.068210
   3 C :    0.039786
   4 C :   -0.174678
   5 H :   -0.007582
   6 C :    0.036155
   7 H :    0.042742
   8 H :    0.002857
   9 C :   -0.038967
  10 H :    0.040642
  11 H :    0.016556
  12 C :   -0.034825
  13 H :    0.019999
  14 H :    0.026596
  15 H :    0.026470
  16 S :    0.108132
  17 C :   -0.091597
  18 C :   -0.045897
  19 C :   -0.022991
  20 C :   -0.116229
  21 H :    0.001248
  22 C :    0.078308
  23 H :    0.026911
  24 H :    0.021662
  25 C :   -0.110430
  26 H :    0.025317
  27 H :    0.038265
  28 C :   -0.042692
  29 H :    0.043849
  30 H :    0.029396
  31 H :    0.035025
  32 H :    0.021481
  33 H :    0.067979
Sum of atomic charges:   -0.0000000

LOEWDIN ATOMIC CHARGES
----------------------
   0 S :    0.361008
   1 C :   -0.156691
   2 C :   -0.057367
   3 C :   -0.068237
   4 C :   -0.177112
   5 H :    0.029076
   6 C :   -0.034509
   7 H :    0.033708
   8 H :    0.026914
   9 C :   -0.035424
  10 H :    0.030876
  11 H :    0.016634
  12 C :   -0.065391
  13 H :    0.024030
  14 H :    0.022836
  15 H :    0.026682
  16 S :    0.424816
  17 C :   -0.196813
  18 C :   -0.078403
  19 C :   -0.057191
  20 C :   -0.195147
  21 H :    0.027076
  22 C :   -0.033691
  23 H :    0.027081
  24 H :    0.030725
  25 C :   -0.037294
  26 H :    0.019567
  27 H :    0.026587
  28 C :   -0.068527
  29 H :    0.028460
  30 H :    0.024975
  31 H :    0.032465
  32 H :    0.006405
  33 H :    0.041876

  Mayer bond orders larger than 0.100000
B(  0-S ,  1-C ) :   1.1356 B(  0-S ,  4-C ) :   1.1213 B(  1-C ,  2-C ) :   1.6227
B(  1-C , 32-H ) :   0.9734 B(  2-C ,  3-C ) :   1.1961 B(  2-C ,  6-C ) :   1.0124
B(  3-C ,  4-C ) :   1.6324 B(  3-C ,  5-H ) :   0.9972 B(  4-C , 20-C ) :   1.0055
B(  6-C ,  7-H ) :   0.9500 B(  6-C ,  8-H ) :   0.9387 B(  6-C ,  9-C ) :   1.0653
B(  9-C , 10-H ) :   0.9593 B(  9-C , 11-H ) :   0.9560 B(  9-C , 12-C ) :   1.0878
B( 12-C , 13-H ) :   0.9698 B( 12-C , 14-H ) :   0.9694 B( 12-C , 15-H ) :   0.9763
B( 16-S , 17-C ) :   1.1694 B( 16-S , 20-C ) :   1.1295 B( 17-C , 18-C ) :   1.6289
B( 17-C , 33-H ) :   0.9536 B( 18-C , 19-C ) :   1.2056 B( 18-C , 21-H ) :   1.0040
B( 19-C , 20-C ) :   1.6368 B( 19-C , 22-C ) :   1.0527 B( 22-C , 23-H ) :   0.9210
B( 22-C , 24-H ) :   0.9321 B( 22-C , 25-C ) :   1.0552 B( 25-C , 26-H ) :   0.9608
B( 25-C , 27-H ) :   0.9492 B( 25-C , 28-C ) :   1.0768 B( 28-C , 29-H ) :   0.9748
B( 28-C , 30-H ) :   0.9751 B( 28-C , 31-H ) :   0.9720

Dispersion correction           -0.014079908
FINAL SINGLE POINT ENERGY     -1339.854286805733

DIPOLE MOMENT
-------------
                                X             Y             Z
Electronic contribution:      9.29083     -22.61656      17.27351
Nuclear contribution   :     -9.33296      23.08846     -17.91463
                        -----------------------------------------
Total Dipole Moment    :     -0.04213       0.47190      -0.64112
                        -----------------------------------------
Magnitude (a.u.)       :      0.79718
Magnitude (Debye)      :      2.02628

Rotational constants in cm-1:     0.016470     0.009571     0.006676
Rotational constants in MHz :   493.766833   286.944161   200.138404

                             ****ORCA TERMINATED NORMALLY****
TOTAL RUN TIME: 0 days 0 hours 0 minutes 35 seconds 669 msec
