                         Program Version 4.2.1 -  RELEASE  -
|  1> ! wB97X-D3 SP def2-SVP
|  2> %pal
|  3> nprocs 16
|  4> end
|  5>
|  6> * xyz 0 1
|  7> S 	 -67.6673 	 49.4201 	 135.909
|  8> C 	 -67.7335 	 50.1899 	 137.484
|  9> C 	 -69.047 	 50.5902 	 137.788
| 10> C 	 -69.9919 	 50.1358 	 136.816
| 11> C 	 -69.4199 	 49.3502 	 135.833
| 12> H 	 -71.0136 	 50.2666 	 137.014
| 13> C 	 -69.3525 	 51.3715 	 139.114
| 14> H 	 -69.5523 	 52.3832 	 138.911
| 15> H 	 -68.4872 	 51.2193 	 139.769
| 16> C 	 -70.5536 	 50.787 	 139.877
| 17> H 	 -71.4687 	 51.071 	 139.297
| 18> H 	 -70.515 	 49.7053 	 139.919
| 19> C 	 -70.6169 	 51.2428 	 141.312
| 20> H 	 -71.5816 	 51.103 	 141.688
| 21> H 	 -69.8418 	 50.83 	 141.975
| 22> H 	 -70.3893 	 52.3648 	 141.307
| 23> S 	 -69.5917 	 46.9425 	 134.544
| 24> C 	 -71.029 	 46.535 	 133.607
| 25> C 	 -71.806 	 47.6422 	 133.52
| 26> C 	 -71.3179 	 48.8258 	 134.189
| 27> C 	 -70.1082 	 48.5494 	 134.8
| 28> H 	 -72.7031 	 47.6193 	 132.909
| 29> C 	 -71.9156 	 50.229 	 134.099
| 30> H 	 -71.2492 	 50.8557 	 133.462
| 31> H 	 -71.9217 	 50.6531 	 135.074
| 32> C 	 -73.3377 	 50.3787 	 133.573
| 33> H 	 -73.9672 	 50.0039 	 134.326
| 34> H 	 -73.5978 	 49.7633 	 132.692
| 35> C 	 -73.7261 	 51.8239 	 133.282
| 36> H 	 -74.8084 	 51.8474 	 133.084
| 37> H 	 -73.4024 	 52.2601 	 132.354
| 38> H 	 -73.6495 	 52.4161 	 134.186
| 39> H 	 -66.8725 	 50.3858 	 138.115
| 40> H 	 -71.2709 	 45.5918 	 133.137
| 41> *
| 42>
| 43>                          ****END OF INPUT****

CARTESIAN COORDINATES (ANGSTROEM)
---------------------------------
  S    -67.667300   49.420100  135.909000
  C    -67.733500   50.189900  137.484000
  C    -69.047000   50.590200  137.788000
  C    -69.991900   50.135800  136.816000
  C    -69.419900   49.350200  135.833000
  H    -71.013600   50.266600  137.014000
  C    -69.352500   51.371500  139.114000
  H    -69.552300   52.383200  138.911000
  H    -68.487200   51.219300  139.769000
  C    -70.553600   50.787000  139.877000
  H    -71.468700   51.071000  139.297000
  H    -70.515000   49.705300  139.919000
  C    -70.616900   51.242800  141.312000
  H    -71.581600   51.103000  141.688000
  H    -69.841800   50.830000  141.975000
  H    -70.389300   52.364800  141.307000
  S    -69.591700   46.942500  134.544000
  C    -71.029000   46.535000  133.607000
  C    -71.806000   47.642200  133.520000
  C    -71.317900   48.825800  134.189000
  C    -70.108200   48.549400  134.800000
  H    -72.703100   47.619300  132.909000
  C    -71.915600   50.229000  134.099000
  H    -71.249200   50.855700  133.462000
  H    -71.921700   50.653100  135.074000
  C    -73.337700   50.378700  133.573000
  H    -73.967200   50.003900  134.326000
  H    -73.597800   49.763300  132.692000
  C    -73.726100   51.823900  133.282000
  H    -74.808400   51.847400  133.084000
  H    -73.402400   52.260100  132.354000
  H    -73.649500   52.416100  134.186000
  H    -66.872500   50.385800  138.115000
  H    -71.270900   45.591800  133.137000

 Total Charge           Charge          ....    0
 Multiplicity           Mult            ....    1
 Number of Electrons    NEL             ....  134
 Basis Dimension        Dim             ....  322

ORBITAL ENERGIES
----------------

  NO   OCC          E(Eh)            E(eV)
   0   2.0000     -88.965851     -2420.8839
   1   2.0000     -88.963648     -2420.8239
   2   2.0000     -10.332796      -281.1697
   3   2.0000     -10.322530      -280.8903
   4   2.0000     -10.315168      -280.6900
   5   2.0000     -10.313549      -280.6459
   6   2.0000     -10.303579      -280.3746
   7   2.0000     -10.302055      -280.3332
   8   2.0000     -10.293488      -280.1001
   9   2.0000     -10.292277      -280.0671
  10   2.0000     -10.292170      -280.0642
  11   2.0000     -10.290589      -280.0212
  12   2.0000     -10.286247      -279.9030
  13   2.0000     -10.283368      -279.8247
  14   2.0000     -10.279577      -279.7215
  15   2.0000     -10.277602      -279.6678
  16   2.0000      -8.080392      -219.8786
  17   2.0000      -8.078990      -219.8405
  18   2.0000      -6.038873      -164.3261
  19   2.0000      -6.037490      -164.2885
  20   2.0000      -6.035018      -164.2212
  21   2.0000      -6.033338      -164.1755
  22   2.0000      -6.031121      -164.1151
  23   2.0000      -6.029771      -164.0784
  24   2.0000      -1.007934       -27.4273
  25   2.0000      -0.982737       -26.7416
  26   2.0000      -0.912152       -24.8209
  27   2.0000      -0.911394       -24.8003
  28   2.0000      -0.869339       -23.6559
  29   2.0000      -0.853341       -23.2206
  30   2.0000      -0.844010       -22.9667
  31   2.0000      -0.817772       -22.2527
  32   2.0000      -0.782934       -21.3047
  33   2.0000      -0.771690       -20.9988
  34   2.0000      -0.707493       -19.2519
  35   2.0000      -0.703141       -19.1334
  36   2.0000      -0.686596       -18.6832
  37   2.0000      -0.652625       -17.7588
  38   2.0000      -0.636941       -17.3320
  39   2.0000      -0.627707       -17.0808
  40   2.0000      -0.600625       -16.3438
  41   2.0000      -0.578269       -15.7355
  42   2.0000      -0.572520       -15.5791
  43   2.0000      -0.561857       -15.2889
  44   2.0000      -0.528971       -14.3940
  45   2.0000      -0.525322       -14.2947
  46   2.0000      -0.518795       -14.1171
  47   2.0000      -0.508464       -13.8360
  48   2.0000      -0.504297       -13.7226
  49   2.0000      -0.499438       -13.5904
  50   2.0000      -0.495075       -13.4717
  51   2.0000      -0.480508       -13.0753
  52   2.0000      -0.476530       -12.9670
  53   2.0000      -0.466488       -12.6938
  54   2.0000      -0.459934       -12.5154
  55   2.0000      -0.450629       -12.2622
  56   2.0000      -0.449055       -12.2194
  57   2.0000      -0.432488       -11.7686
  58   2.0000      -0.427444       -11.6313
  59   2.0000      -0.425728       -11.5846
  60   2.0000      -0.421200       -11.4614
  61   2.0000      -0.415720       -11.3123
  62   2.0000      -0.412373       -11.2213
  63   2.0000      -0.352683        -9.5970
  64   2.0000      -0.332161        -9.0385
  65   2.0000      -0.326156        -8.8752
  66   2.0000      -0.288090        -7.8393
  67   0.0000       0.025830         0.7029
  68   0.0000       0.080371         2.1870
  69   0.0000       0.111134         3.0241
  70   0.0000       0.126521         3.4428
  71   0.0000       0.133789         3.6406

MULLIKEN ATOMIC CHARGES
-----------------------
   0 S :    0.108098
   1 C :   -0.131321
   2 C :   -0.110888
   3 C :    0.040481
   4 C :   -0.140061
   5 H :    0.000006
   6 C :    0.094340
   7 H :    0.035108
   8 H :    0.021101
   9 C :   -0.126754
  10 H :    0.035260
  11 H :    0.036344
  12 C :   -0.036300
  13 H :    0.028573
  14 H :    0.041464
  15 H :    0.023827
  16 S :    0.108520
  17 C :   -0.086258
  18 C :   -0.038933
  19 C :   -0.056142
  20 C :   -0.120767
  21 H :    0.014812
  22 C :    0.097550
  23 H :    0.048099
  24 H :    0.003393
  25 C :   -0.095305
  26 H :    0.015001
  27 H :    0.029989
  28 C :   -0.027783
  29 H :    0.016285
  30 H :    0.036898
  31 H :    0.029768
  32 H :    0.050764
  33 H :    0.054830
Sum of atomic charges:   -0.0000000

LOEWDIN ATOMIC CHARGES
----------------------
   0 S :    0.399124
   1 C :   -0.202562
   2 C :   -0.054899
   3 C :   -0.063141
   4 C :   -0.179962
   5 H :    0.021244
   6 C :   -0.020467
   7 H :    0.025114
   8 H :    0.030569
   9 C :   -0.048602
  10 H :    0.024381
  11 H :    0.024020
  12 C :   -0.064215
  13 H :    0.019281
  14 H :    0.028381
  15 H :    0.029607
  16 S :    0.419984
  17 C :   -0.185622
  18 C :   -0.071836
  19 C :   -0.059593
  20 C :   -0.212997
  21 H :    0.029028
  22 C :   -0.029039
  23 H :    0.040777
  24 H :    0.025011
  25 C :   -0.043142
  26 H :    0.018487
  27 H :    0.023521
  28 C :   -0.065626
  29 H :    0.030548
  30 H :    0.025688
  31 H :    0.025704
  32 H :    0.027347
  33 H :    0.033886

  Mayer bond orders larger than 0.100000
B(  0-S ,  1-C ) :   1.1329 B(  0-S ,  4-C ) :   1.1593 B(  1-C ,  2-C ) :   1.6106
B(  1-C , 32-H ) :   0.9691 B(  2-C ,  3-C ) :   1.2666 B(  2-C ,  6-C ) :   1.0132
B(  3-C ,  4-C ) :   1.5601 B(  3-C ,  5-H ) :   0.9903 B(  4-C , 20-C ) :   1.0209
B(  6-C ,  7-H ) :   0.9332 B(  6-C ,  8-H ) :   0.9507 B(  6-C ,  9-C ) :   1.0648
B(  9-C , 10-H ) :   0.9496 B(  9-C , 11-H ) :   0.9611 B(  9-C , 12-C ) :   1.0930
B( 12-C , 13-H ) :   0.9719 B( 12-C , 14-H ) :   0.9732 B( 12-C , 15-H ) :   0.9708
B( 16-S , 17-C ) :   1.1414 B( 16-S , 20-C ) :   1.1588 B( 17-C , 18-C ) :   1.6111
B( 17-C , 33-H ) :   0.9683 B( 18-C , 19-C ) :   1.2528 B( 18-C , 21-H ) :   0.9865
B( 19-C , 20-C ) :   1.5841 B( 19-C , 22-C ) :   1.0292 B( 22-C , 23-H ) :   0.9393
B( 22-C , 24-H ) :   0.9230 B( 22-C , 25-C ) :   1.0729 B( 25-C , 26-H ) :   0.9529
B( 25-C , 27-H ) :   0.9505 B( 25-C , 28-C ) :   1.1033 B( 28-C , 29-H ) :   0.9659
B( 28-C , 30-H ) :   0.9736 B( 28-C , 31-H ) :   0.9711

Dispersion correction           -0.013282664
FINAL SINGLE POINT ENERGY     -1339.878647832097

DIPOLE MOMENT
-------------
                                X             Y             Z
Electronic contribution:     20.18836     -18.49800     -11.86772
Nuclear contribution   :    -20.83441      18.83819      12.09881
                        -----------------------------------------
Total Dipole Moment    :     -0.64604       0.34020       0.23110
                        -----------------------------------------
Magnitude (a.u.)       :      0.76584
Magnitude (Debye)      :      1.94661

Rotational constants in cm-1:     0.015854     0.008491     0.006472
Rotational constants in MHz :   475.276367   254.541345   194.013069

                             ****ORCA TERMINATED NORMALLY****
TOTAL RUN TIME: 0 days 0 hours 0 minutes 33 seconds 644 msec
