                         Program Version 4.2.1 -  RELEASE  -
|  1> ! wB97X-D3 SP def2-SVP
|  2> %pal
|  3> nprocs 16
|  4> end
|  5>
|  6> * xyz 0 1
|  7> S 	 35.791 	 4.44362 	 87.4064
|  8> C 	 35.0246 	 4.85891 	 85.9107
|  9> C 	 35.1564 	 3.90229 	 84.9607
| 10> C 	 36.0637 	 2.92007 	 85.3845
| 11> C 	 36.4298 	 2.99945 	 86.727
| 12> H 	 36.1403 	 2.02379 	 84.8736
| 13> C 	 34.2796 	 3.74405 	 83.7301
| 14> H 	 34.6509 	 4.42863 	 82.9906
| 15> H 	 33.3441 	 4.0825 	 84.0121
| 16> C 	 34.2252 	 2.37207 	 82.9885
| 17> H 	 34.2764 	 1.58764 	 83.7128
| 18> H 	 33.2432 	 2.3307 	 82.489
| 19> C 	 35.2836 	 2.14614 	 81.9477
| 20> H 	 36.3018 	 2.08648 	 82.3576
| 21> H 	 35.1021 	 1.13286 	 81.5095
| 22> H 	 35.1715 	 2.79048 	 81.0978
| 23> S 	 36.4658 	 1.08324 	 88.8046
| 24> C 	 38.0243 	 0.315702 	 89.1723
| 25> C 	 39.007 	 0.769946 	 88.3501
| 26> C 	 38.586 	 1.69429 	 87.402
| 27> C 	 37.2178 	 2.01361 	 87.4877
| 28> H 	 39.9568 	 0.393436 	 88.5218
| 29> C 	 39.5264 	 2.5239 	 86.5592
| 30> H 	 38.9617 	 3.08878 	 85.7916
| 31> H 	 40.1166 	 1.78092 	 85.9489
| 32> C 	 40.3371 	 3.5136 	 87.3607
| 33> H 	 40.9873 	 2.98558 	 88.0782
| 34> H 	 39.5802 	 4.10782 	 87.9464
| 35> C 	 41.4012 	 4.37408 	 86.6069
| 36> H 	 42.2773 	 4.57422 	 87.1667
| 37> H 	 40.8973 	 5.34815 	 86.4377
| 38> H 	 41.6887 	 3.84337 	 85.7523
| 39> H 	 34.2452 	 5.57374 	 85.658
| 40> H 	 38.3253 	 -0.169235 	 90.0939
| 41> *
| 42>
| 43>                          ****END OF INPUT****

CARTESIAN COORDINATES (ANGSTROEM)
---------------------------------
  S     35.791000    4.443620   87.406400
  C     35.024600    4.858910   85.910700
  C     35.156400    3.902290   84.960700
  C     36.063700    2.920070   85.384500
  C     36.429800    2.999450   86.727000
  H     36.140300    2.023790   84.873600
  C     34.279600    3.744050   83.730100
  H     34.650900    4.428630   82.990600
  H     33.344100    4.082500   84.012100
  C     34.225200    2.372070   82.988500
  H     34.276400    1.587640   83.712800
  H     33.243200    2.330700   82.489000
  C     35.283600    2.146140   81.947700
  H     36.301800    2.086480   82.357600
  H     35.102100    1.132860   81.509500
  H     35.171500    2.790480   81.097800
  S     36.465800    1.083240   88.804600
  C     38.024300    0.315702   89.172300
  C     39.007000    0.769946   88.350100
  C     38.586000    1.694290   87.402000
  C     37.217800    2.013610   87.487700
  H     39.956800    0.393436   88.521800
  C     39.526400    2.523900   86.559200
  H     38.961700    3.088780   85.791600
  H     40.116600    1.780920   85.948900
  C     40.337100    3.513600   87.360700
  H     40.987300    2.985580   88.078200
  H     39.580200    4.107820   87.946400
  C     41.401200    4.374080   86.606900
  H     42.277300    4.574220   87.166700
  H     40.897300    5.348150   86.437700
  H     41.688700    3.843370   85.752300
  H     34.245200    5.573740   85.658000
  H     38.325300   -0.169235   90.093900

 Total Charge           Charge          ....    0
 Multiplicity           Mult            ....    1
 Number of Electrons    NEL             ....  134
 Basis Dimension        Dim             ....  322

ORBITAL ENERGIES
----------------

  NO   OCC          E(Eh)            E(eV)
   0   2.0000     -88.970631     -2421.0140
   1   2.0000     -88.966209     -2420.8936
   2   2.0000     -10.329667      -281.0845
   3   2.0000     -10.328833      -281.0618
   4   2.0000     -10.315005      -280.6856
   5   2.0000     -10.305002      -280.4134
   6   2.0000     -10.300544      -280.2920
   7   2.0000     -10.291763      -280.0531
   8   2.0000     -10.289775      -279.9990
   9   2.0000     -10.289036      -279.9789
  10   2.0000     -10.286817      -279.9185
  11   2.0000     -10.285526      -279.8834
  12   2.0000     -10.284303      -279.8501
  13   2.0000     -10.283351      -279.8242
  14   2.0000     -10.280249      -279.7398
  15   2.0000     -10.271033      -279.4890
  16   2.0000      -8.085635      -220.0213
  17   2.0000      -8.079937      -219.8663
  18   2.0000      -6.044076      -164.4677
  19   2.0000      -6.040025      -164.3574
  20   2.0000      -6.038459      -164.3148
  21   2.0000      -6.036525      -164.2622
  22   2.0000      -6.034550      -164.2084
  23   2.0000      -6.030784      -164.1060
  24   2.0000      -1.009953       -27.4822
  25   2.0000      -0.987725       -26.8774
  26   2.0000      -0.915914       -24.9233
  27   2.0000      -0.904618       -24.6159
  28   2.0000      -0.873704       -23.7747
  29   2.0000      -0.851376       -23.1671
  30   2.0000      -0.847414       -23.0593
  31   2.0000      -0.820103       -22.3161
  32   2.0000      -0.788929       -21.4679
  33   2.0000      -0.771431       -20.9917
  34   2.0000      -0.713491       -19.4151
  35   2.0000      -0.694620       -18.9016
  36   2.0000      -0.689630       -18.7658
  37   2.0000      -0.657739       -17.8980
  38   2.0000      -0.636230       -17.3127
  39   2.0000      -0.630007       -17.1434
  40   2.0000      -0.593462       -16.1489
  41   2.0000      -0.580003       -15.7827
  42   2.0000      -0.560297       -15.2465
  43   2.0000      -0.555642       -15.1198
  44   2.0000      -0.546761       -14.8781
  45   2.0000      -0.524570       -14.2743
  46   2.0000      -0.519623       -14.1397
  47   2.0000      -0.509862       -13.8741
  48   2.0000      -0.503282       -13.6950
  49   2.0000      -0.498710       -13.5706
  50   2.0000      -0.491413       -13.3720
  51   2.0000      -0.482047       -13.1172
  52   2.0000      -0.465704       -12.6724
  53   2.0000      -0.463009       -12.5991
  54   2.0000      -0.462155       -12.5759
  55   2.0000      -0.452342       -12.3088
  56   2.0000      -0.449739       -12.2380
  57   2.0000      -0.442076       -12.0295
  58   2.0000      -0.434181       -11.8147
  59   2.0000      -0.425425       -11.5764
  60   2.0000      -0.419024       -11.4022
  61   2.0000      -0.413804       -11.2602
  62   2.0000      -0.398726       -10.8499
  63   2.0000      -0.339641        -9.2421
  64   2.0000      -0.332173        -9.0389
  65   2.0000      -0.328706        -8.9445
  66   2.0000      -0.299586        -8.1521
  67   0.0000       0.030832         0.8390
  68   0.0000       0.063780         1.7355
  69   0.0000       0.116822         3.1789
  70   0.0000       0.124068         3.3760
  71   0.0000       0.133604         3.6356

MULLIKEN ATOMIC CHARGES
-----------------------
   0 S :    0.139446
   1 C :   -0.110878
   2 C :   -0.135457
   3 C :    0.078900
   4 C :   -0.182244
   5 H :   -0.017852
   6 C :    0.123328
   7 H :    0.025663
   8 H :    0.008346
   9 C :   -0.083024
  10 H :    0.028712
  11 H :    0.031195
  12 C :   -0.056325
  13 H :    0.043715
  14 H :    0.032006
  15 H :    0.031358
  16 S :    0.100602
  17 C :   -0.085848
  18 C :   -0.031726
  19 C :   -0.000240
  20 C :   -0.181019
  21 H :   -0.007450
  22 C :    0.070288
  23 H :    0.028799
  24 H :    0.025032
  25 C :   -0.115706
  26 H :    0.021789
  27 H :    0.039243
  28 C :   -0.000728
  29 H :    0.024454
  30 H :    0.042041
  31 H :    0.019581
  32 H :    0.033918
  33 H :    0.060084
Sum of atomic charges:    0.0000000

LOEWDIN ATOMIC CHARGES
----------------------
   0 S :    0.438218
   1 C :   -0.216009
   2 C :   -0.062328
   3 C :   -0.058597
   4 C :   -0.206815
   5 H :    0.016282
   6 C :   -0.023403
   7 H :    0.034145
   8 H :    0.021248
   9 C :   -0.038075
  10 H :    0.019125
  11 H :    0.032819
  12 C :   -0.068461
  13 H :    0.027117
  14 H :    0.033959
  15 H :    0.022094
  16 S :    0.383597
  17 C :   -0.177356
  18 C :   -0.062483
  19 C :   -0.052627
  20 C :   -0.194812
  21 H :    0.023237
  22 C :   -0.039580
  23 H :    0.031300
  24 H :    0.030663
  25 C :   -0.046613
  26 H :    0.020679
  27 H :    0.030451
  28 C :   -0.056938
  29 H :    0.021245
  30 H :    0.033695
  31 H :    0.018575
  32 H :    0.031297
  33 H :    0.034353

  Mayer bond orders larger than 0.100000
B(  0-S ,  1-C ) :   1.1433 B(  0-S ,  4-C ) :   1.1722 B(  1-C ,  2-C ) :   1.6339
B(  1-C , 32-H ) :   0.9569 B(  2-C ,  3-C ) :   1.2953 B(  2-C ,  6-C ) :   0.9930
B(  3-C ,  4-C ) :   1.5493 B(  3-C ,  5-H ) :   0.9860 B(  4-C , 20-C ) :   1.0238
B(  6-C ,  7-H ) :   0.9267 B(  6-C ,  8-H ) :   0.9388 B(  6-C ,  9-C ) :   1.0728
B(  9-C , 10-H ) :   0.9587 B(  9-C , 11-H ) :   0.9502 B(  9-C , 12-C ) :   1.0928
B( 12-C , 13-H ) :   0.9757 B( 12-C , 14-H ) :   0.9686 B( 12-C , 15-H ) :   0.9704
B( 16-S , 17-C ) :   1.1449 B( 16-S , 20-C ) :   1.1413 B( 17-C , 18-C ) :   1.6270
B( 17-C , 20-C ) :   0.1036 B( 17-C , 33-H ) :   0.9580 B( 18-C , 19-C ) :   1.2418
B( 18-C , 21-H ) :   1.0018 B( 19-C , 20-C ) :   1.5780 B( 19-C , 22-C ) :   1.0534
B( 22-C , 23-H ) :   0.9290 B( 22-C , 24-H ) :   0.9229 B( 22-C , 25-C ) :   1.0670
B( 25-C , 26-H ) :   0.9599 B( 25-C , 27-H ) :   0.9573 B( 25-C , 28-C ) :   1.0651
B( 28-C , 29-H ) :   0.9795 B( 28-C , 30-H ) :   0.9780 B( 28-C , 31-H ) :   0.9743

Dispersion correction           -0.014234672
FINAL SINGLE POINT ENERGY     -1339.858188055623

DIPOLE MOMENT
-------------
                                X             Y             Z
Electronic contribution:     -9.68990      -2.45844      21.03970
Nuclear contribution   :      9.80378       2.39266     -21.47396
                        -----------------------------------------
Total Dipole Moment    :      0.11389      -0.06578      -0.43427
                        -----------------------------------------
Magnitude (a.u.)       :      0.45375
Magnitude (Debye)      :      1.15333

Rotational constants in cm-1:     0.017070     0.008420     0.007599
Rotational constants in MHz :   511.750798   252.435627   227.802092

                             ****ORCA TERMINATED NORMALLY****
TOTAL RUN TIME: 0 days 0 hours 0 minutes 30 seconds 196 msec
