                         Program Version 4.2.1 -  RELEASE  -
|  1> ! wB97X-D3 SP def2-SVP
|  2> %pal
|  3> nprocs 16
|  4> end
|  5>
|  6> * xyz 0 1
|  7> S 	 -101.071 	 43.8393 	 123.023
|  8> C 	 -102.471 	 43.8598 	 124.055
|  9> C 	 -103.551 	 44.5726 	 123.478
| 10> C 	 -103.22 	 45.1857 	 122.2
| 11> C 	 -101.943 	 44.7487 	 121.811
| 12> H 	 -103.827 	 45.7965 	 121.596
| 13> C 	 -104.924 	 44.8343 	 124.156
| 14> H 	 -105.114 	 44.1257 	 124.919
| 15> H 	 -105.467 	 44.5398 	 123.25
| 16> C 	 -105.235 	 46.2996 	 124.518
| 17> H 	 -104.413 	 46.6453 	 125.183
| 18> H 	 -105.452 	 46.8909 	 123.583
| 19> C 	 -106.552 	 46.4405 	 125.387
| 20> H 	 -106.801 	 47.4391 	 125.718
| 21> H 	 -107.508 	 46.0589 	 124.843
| 22> H 	 -106.34 	 45.914 	 126.301
| 23> S 	 -99.9864 	 45.9713 	 120.429
| 24> C 	 -100.095 	 46.1511 	 118.688
| 25> C 	 -101.184 	 45.4382 	 118.23
| 26> C 	 -101.935 	 44.6976 	 119.218
| 27> C 	 -101.414 	 45.0267 	 120.477
| 28> H 	 -101.24 	 45.236 	 117.233
| 29> C 	 -103.017 	 43.7764 	 118.832
| 30> H 	 -103.288 	 43.2461 	 119.695
| 31> H 	 -102.516 	 43.0169 	 118.195
| 32> C 	 -104.153 	 44.4258 	 118.03
| 33> H 	 -104.724 	 43.6221 	 117.468
| 34> H 	 -103.924 	 45.0627 	 117.198
| 35> C 	 -105.096 	 45.3598 	 118.82
| 36> H 	 -105.596 	 44.8006 	 119.628
| 37> H 	 -105.949 	 45.6314 	 118.154
| 38> H 	 -104.518 	 46.2069 	 119.221
| 39> H 	 -102.547 	 43.2956 	 124.986
| 40> H 	 -99.6168 	 46.7578 	 117.945
| 41> *
| 42>
| 43>                          ****END OF INPUT****

CARTESIAN COORDINATES (ANGSTROEM)
---------------------------------
  S    -101.071000   43.839300  123.023000
  C    -102.471000   43.859800  124.055000
  C    -103.551000   44.572600  123.478000
  C    -103.220000   45.185700  122.200000
  C    -101.943000   44.748700  121.811000
  H    -103.827000   45.796500  121.596000
  C    -104.924000   44.834300  124.156000
  H    -105.114000   44.125700  124.919000
  H    -105.467000   44.539800  123.250000
  C    -105.235000   46.299600  124.518000
  H    -104.413000   46.645300  125.183000
  H    -105.452000   46.890900  123.583000
  C    -106.552000   46.440500  125.387000
  H    -106.801000   47.439100  125.718000
  H    -107.508000   46.058900  124.843000
  H    -106.340000   45.914000  126.301000
  S    -99.986400   45.971300  120.429000
  C    -100.095000   46.151100  118.688000
  C    -101.184000   45.438200  118.230000
  C    -101.935000   44.697600  119.218000
  C    -101.414000   45.026700  120.477000
  H    -101.240000   45.236000  117.233000
  C    -103.017000   43.776400  118.832000
  H    -103.288000   43.246100  119.695000
  H    -102.516000   43.016900  118.195000
  C    -104.153000   44.425800  118.030000
  H    -104.724000   43.622100  117.468000
  H    -103.924000   45.062700  117.198000
  C    -105.096000   45.359800  118.820000
  H    -105.596000   44.800600  119.628000
  H    -105.949000   45.631400  118.154000
  H    -104.518000   46.206900  119.221000
  H    -102.547000   43.295600  124.986000
  H    -99.616800   46.757800  117.945000

 Total Charge           Charge          ....    0
 Multiplicity           Mult            ....    1
 Number of Electrons    NEL             ....  134
 Basis Dimension        Dim             ....  322

ORBITAL ENERGIES
----------------

  NO   OCC          E(Eh)            E(eV)
   0   2.0000     -88.969499     -2420.9832
   1   2.0000     -88.965787     -2420.8821
   2   2.0000     -10.329560      -281.0816
   3   2.0000     -10.322320      -280.8846
   4   2.0000     -10.314486      -280.6714
   5   2.0000     -10.312710      -280.6231
   6   2.0000     -10.307973      -280.4942
   7   2.0000     -10.300412      -280.2885
   8   2.0000     -10.299214      -280.2558
   9   2.0000     -10.296078      -280.1705
  10   2.0000     -10.291744      -280.0526
  11   2.0000     -10.291138      -280.0361
  12   2.0000     -10.290481      -280.0182
  13   2.0000     -10.285582      -279.8849
  14   2.0000     -10.283692      -279.8335
  15   2.0000     -10.281388      -279.7708
  16   2.0000      -8.084161      -219.9812
  17   2.0000      -8.080899      -219.8924
  18   2.0000      -6.042609      -164.4277
  19   2.0000      -6.039506      -164.3433
  20   2.0000      -6.038689      -164.3211
  21   2.0000      -6.035242      -164.2273
  22   2.0000      -6.035005      -164.2208
  23   2.0000      -6.031640      -164.1293
  24   2.0000      -1.006044       -27.3758
  25   2.0000      -0.980020       -26.6677
  26   2.0000      -0.913166       -24.8485
  27   2.0000      -0.904295       -24.6071
  28   2.0000      -0.866611       -23.5817
  29   2.0000      -0.850655       -23.1475
  30   2.0000      -0.846145       -23.0248
  31   2.0000      -0.813790       -22.1444
  32   2.0000      -0.781764       -21.2729
  33   2.0000      -0.768989       -20.9253
  34   2.0000      -0.706427       -19.2228
  35   2.0000      -0.697454       -18.9787
  36   2.0000      -0.691928       -18.8283
  37   2.0000      -0.659816       -17.9545
  38   2.0000      -0.642461       -17.4822
  39   2.0000      -0.618974       -16.8431
  40   2.0000      -0.594337       -16.1727
  41   2.0000      -0.569335       -15.4924
  42   2.0000      -0.557301       -15.1649
  43   2.0000      -0.555380       -15.1127
  44   2.0000      -0.536000       -14.5853
  45   2.0000      -0.527384       -14.3508
  46   2.0000      -0.516202       -14.0466
  47   2.0000      -0.511130       -13.9085
  48   2.0000      -0.505403       -13.7527
  49   2.0000      -0.499104       -13.5813
  50   2.0000      -0.492225       -13.3941
  51   2.0000      -0.476869       -12.9763
  52   2.0000      -0.473953       -12.8969
  53   2.0000      -0.457753       -12.4561
  54   2.0000      -0.455382       -12.3916
  55   2.0000      -0.450502       -12.2588
  56   2.0000      -0.445503       -12.1228
  57   2.0000      -0.438245       -11.9253
  58   2.0000      -0.435371       -11.8470
  59   2.0000      -0.424152       -11.5417
  60   2.0000      -0.423049       -11.5118
  61   2.0000      -0.413666       -11.2564
  62   2.0000      -0.407424       -11.0866
  63   2.0000      -0.341084        -9.2814
  64   2.0000      -0.328878        -8.9492
  65   2.0000      -0.322669        -8.7803
  66   2.0000      -0.292279        -7.9533
  67   0.0000       0.037669         1.0250
  68   0.0000       0.065059         1.7703
  69   0.0000       0.109741         2.9862
  70   0.0000       0.118132         3.2145
  71   0.0000       0.121834         3.3153

MULLIKEN ATOMIC CHARGES
-----------------------
   0 S :    0.125287
   1 C :   -0.127356
   2 C :   -0.111682
   3 C :    0.057889
   4 C :   -0.159691
   5 H :   -0.009632
   6 C :    0.080397
   7 H :    0.010156
   8 H :    0.031305
   9 C :   -0.087940
  10 H :    0.050157
  11 H :    0.049791
  12 C :   -0.077319
  13 H :    0.033472
  14 H :    0.045715
  15 H :    0.027315
  16 S :    0.122086
  17 C :   -0.070762
  18 C :   -0.030628
  19 C :   -0.053458
  20 C :   -0.190262
  21 H :   -0.011309
  22 C :    0.131827
  23 H :    0.013432
  24 H :    0.037937
  25 C :   -0.097807
  26 H :    0.027719
  27 H :    0.026829
  28 C :   -0.076177
  29 H :    0.027961
  30 H :    0.040314
  31 H :    0.062694
  32 H :    0.052438
  33 H :    0.049302
Sum of atomic charges:   -0.0000000

LOEWDIN ATOMIC CHARGES
----------------------
   0 S :    0.412045
   1 C :   -0.219088
   2 C :   -0.053470
   3 C :   -0.051372
   4 C :   -0.195882
   5 H :    0.023820
   6 C :   -0.034072
   7 H :    0.020885
   8 H :    0.037147
   9 C :   -0.041408
  10 H :    0.032771
  11 H :    0.032344
  12 C :   -0.074707
  13 H :    0.022454
  14 H :    0.034297
  15 H :    0.019956
  16 S :    0.424032
  17 C :   -0.191984
  18 C :   -0.062539
  19 C :   -0.055350
  20 C :   -0.214787
  21 H :    0.011916
  22 C :   -0.029213
  23 H :    0.027523
  24 H :    0.044943
  25 C :   -0.047094
  26 H :    0.028892
  27 H :    0.023086
  28 C :   -0.069989
  29 H :    0.020741
  30 H :    0.033068
  31 H :    0.028210
  32 H :    0.029274
  33 H :    0.033550

  Mayer bond orders larger than 0.100000
B(  0-S ,  1-C ) :   1.1277 B(  0-S ,  4-C ) :   1.1689 B(  1-C ,  2-C ) :   1.6107
B(  1-C , 32-H ) :   0.9673 B(  2-C ,  3-C ) :   1.2222 B(  2-C ,  6-C ) :   1.0053
B(  3-C ,  4-C ) :   1.5644 B(  3-C ,  5-H ) :   1.0002 B(  4-C , 20-C ) :   1.0066
B(  6-C ,  7-H ) :   0.9496 B(  6-C ,  8-H ) :   0.9347 B(  6-C ,  9-C ) :   1.0577
B(  9-C , 10-H ) :   0.9597 B(  9-C , 11-H ) :   0.9531 B(  9-C , 12-C ) :   1.0760
B( 12-C , 13-H ) :   0.9769 B( 12-C , 14-H ) :   0.9756 B( 12-C , 15-H ) :   0.9768
B( 16-S , 17-C ) :   1.1343 B( 16-S , 20-C ) :   1.1614 B( 17-C , 18-C ) :   1.6444
B( 17-C , 33-H ) :   0.9646 B( 18-C , 19-C ) :   1.2309 B( 18-C , 21-H ) :   0.9840
B( 19-C , 20-C ) :   1.5717 B( 19-C , 22-C ) :   1.0593 B( 22-C , 23-H ) :   0.9302
B( 22-C , 24-H ) :   0.9222 B( 22-C , 25-C ) :   1.0566 B( 25-C , 26-H ) :   0.9541
B( 25-C , 27-H ) :   0.9601 B( 25-C , 28-C ) :   1.0715 B( 28-C , 29-H ) :   0.9755
B( 28-C , 30-H ) :   0.9702 B( 28-C , 31-H ) :   0.9694

Dispersion correction           -0.014816243
FINAL SINGLE POINT ENERGY     -1339.855284284063

DIPOLE MOMENT
-------------
                                X             Y             Z
Electronic contribution:     29.52485      -3.54441      -0.12717
Nuclear contribution   :    -30.16253       3.48518      -0.12455
                        -----------------------------------------
Total Dipole Moment    :     -0.63768      -0.05922      -0.25172
                        -----------------------------------------
Magnitude (a.u.)       :      0.68812
Magnitude (Debye)      :      1.74906

Rotational constants in cm-1:     0.018341     0.008704     0.006914
Rotational constants in MHz :   549.858011   260.952428   207.277744

                             ****ORCA TERMINATED NORMALLY****
TOTAL RUN TIME: 0 days 0 hours 0 minutes 32 seconds 179 msec
