                         Program Version 4.2.1 -  RELEASE  -
|  1> ! wB97X-D3 SP def2-SVP
|  2> %pal
|  3> nprocs 16
|  4> end
|  5>
|  6> * xyz 0 1
|  7> S 	 -48.3683 	 18.4904 	 80.9407
|  8> C 	 -47.3941 	 18.0348 	 82.301
|  9> C 	 -46.7258 	 16.8339 	 82.1766
| 10> C 	 -47.0903 	 16.1839 	 80.9614
| 11> C 	 -47.8478 	 17.0117 	 80.1502
| 12> H 	 -46.8497 	 15.1832 	 80.676
| 13> C 	 -45.7733 	 16.2622 	 83.2529
| 14> H 	 -46.3887 	 15.6417 	 83.9494
| 15> H 	 -45.3692 	 17.0018 	 83.9372
| 16> C 	 -44.5173 	 15.5538 	 82.6708
| 17> H 	 -44.7456 	 14.6894 	 82.0224
| 18> H 	 -44.0125 	 16.2545 	 82.0502
| 19> C 	 -43.7008 	 14.8988 	 83.8737
| 20> H 	 -43.5062 	 15.5709 	 84.6421
| 21> H 	 -44.2008 	 14.0887 	 84.3722
| 22> H 	 -42.683 	 14.7401 	 83.4461
| 23> S 	 -50.1276 	 17.2287 	 78.6859
| 24> C 	 -50.0876 	 16.6539 	 77.008
| 25> C 	 -48.9221 	 16.0602 	 76.6624
| 26> C 	 -47.9061 	 16.1132 	 77.6653
| 27> C 	 -48.427 	 16.7805 	 78.7947
| 28> H 	 -48.7794 	 15.7454 	 75.6541
| 29> C 	 -46.5148 	 15.6275 	 77.3832
| 30> H 	 -46.5459 	 14.8738 	 76.658
| 31> H 	 -46.0928 	 15.0805 	 78.2494
| 32> C 	 -45.5502 	 16.7032 	 76.8352
| 33> H 	 -45.6798 	 17.5605 	 77.558
| 34> H 	 -45.9815 	 16.876 	 75.8629
| 35> C 	 -44.0765 	 16.3126 	 76.7179
| 36> H 	 -43.4575 	 17.0794 	 76.1106
| 37> H 	 -43.9223 	 15.4151 	 76.1392
| 38> H 	 -43.5305 	 16.001 	 77.6039
| 39> H 	 -47.4549 	 18.4717 	 83.3054
| 40> H 	 -50.8876 	 16.8517 	 76.2924
| 41> *
| 42>
| 43>                          ****END OF INPUT****

CARTESIAN COORDINATES (ANGSTROEM)
---------------------------------
  S    -48.368300   18.490400   80.940700
  C    -47.394100   18.034800   82.301000
  C    -46.725800   16.833900   82.176600
  C    -47.090300   16.183900   80.961400
  C    -47.847800   17.011700   80.150200
  H    -46.849700   15.183200   80.676000
  C    -45.773300   16.262200   83.252900
  H    -46.388700   15.641700   83.949400
  H    -45.369200   17.001800   83.937200
  C    -44.517300   15.553800   82.670800
  H    -44.745600   14.689400   82.022400
  H    -44.012500   16.254500   82.050200
  C    -43.700800   14.898800   83.873700
  H    -43.506200   15.570900   84.642100
  H    -44.200800   14.088700   84.372200
  H    -42.683000   14.740100   83.446100
  S    -50.127600   17.228700   78.685900
  C    -50.087600   16.653900   77.008000
  C    -48.922100   16.060200   76.662400
  C    -47.906100   16.113200   77.665300
  C    -48.427000   16.780500   78.794700
  H    -48.779400   15.745400   75.654100
  C    -46.514800   15.627500   77.383200
  H    -46.545900   14.873800   76.658000
  H    -46.092800   15.080500   78.249400
  C    -45.550200   16.703200   76.835200
  H    -45.679800   17.560500   77.558000
  H    -45.981500   16.876000   75.862900
  C    -44.076500   16.312600   76.717900
  H    -43.457500   17.079400   76.110600
  H    -43.922300   15.415100   76.139200
  H    -43.530500   16.001000   77.603900
  H    -47.454900   18.471700   83.305400
  H    -50.887600   16.851700   76.292400

 Total Charge           Charge          ....    0
 Multiplicity           Mult            ....    1
 Number of Electrons    NEL             ....  134
 Basis Dimension        Dim             ....  322

ORBITAL ENERGIES
----------------

  NO   OCC          E(Eh)            E(eV)
   0   2.0000     -88.967558     -2420.9303
   1   2.0000     -88.966754     -2420.9085
   2   2.0000     -10.330572      -281.1091
   3   2.0000     -10.328862      -281.0626
   4   2.0000     -10.314179      -280.6631
   5   2.0000     -10.307439      -280.4797
   6   2.0000     -10.305536      -280.4279
   7   2.0000     -10.300498      -280.2908
   8   2.0000     -10.298015      -280.2232
   9   2.0000     -10.293755      -280.1073
  10   2.0000     -10.293063      -280.0885
  11   2.0000     -10.290491      -280.0185
  12   2.0000     -10.289372      -279.9881
  13   2.0000     -10.288638      -279.9681
  14   2.0000     -10.283915      -279.8395
  15   2.0000     -10.279765      -279.7266
  16   2.0000      -8.081771      -219.9162
  17   2.0000      -8.081678      -219.9137
  18   2.0000      -6.040237      -164.3632
  19   2.0000      -6.040068      -164.3586
  20   2.0000      -6.036578      -164.2636
  21   2.0000      -6.036304      -164.2562
  22   2.0000      -6.032411      -164.1502
  23   2.0000      -6.032372      -164.1492
  24   2.0000      -1.004960       -27.3464
  25   2.0000      -0.981902       -26.7189
  26   2.0000      -0.910339       -24.7716
  27   2.0000      -0.904167       -24.6036
  28   2.0000      -0.865380       -23.5482
  29   2.0000      -0.850538       -23.1443
  30   2.0000      -0.845033       -22.9945
  31   2.0000      -0.813736       -22.1429
  32   2.0000      -0.783718       -21.3260
  33   2.0000      -0.770358       -20.9625
  34   2.0000      -0.712523       -19.3887
  35   2.0000      -0.700728       -19.0678
  36   2.0000      -0.685725       -18.6595
  37   2.0000      -0.662564       -18.0293
  38   2.0000      -0.637464       -17.3463
  39   2.0000      -0.622904       -16.9501
  40   2.0000      -0.597876       -16.2690
  41   2.0000      -0.568117       -15.4592
  42   2.0000      -0.563553       -15.3351
  43   2.0000      -0.554578       -15.0908
  44   2.0000      -0.524103       -14.2616
  45   2.0000      -0.520794       -14.1715
  46   2.0000      -0.513467       -13.9722
  47   2.0000      -0.508254       -13.8303
  48   2.0000      -0.502574       -13.6757
  49   2.0000      -0.490681       -13.3521
  50   2.0000      -0.489224       -13.3125
  51   2.0000      -0.483630       -13.1602
  52   2.0000      -0.470090       -12.7918
  53   2.0000      -0.463324       -12.6077
  54   2.0000      -0.456877       -12.4322
  55   2.0000      -0.452972       -12.3260
  56   2.0000      -0.449287       -12.2257
  57   2.0000      -0.442160       -12.0318
  58   2.0000      -0.434584       -11.8256
  59   2.0000      -0.427393       -11.6300
  60   2.0000      -0.423284       -11.5181
  61   2.0000      -0.414380       -11.2758
  62   2.0000      -0.410368       -11.1667
  63   2.0000      -0.346832        -9.4378
  64   2.0000      -0.334652        -9.1063
  65   2.0000      -0.329740        -8.9727
  66   2.0000      -0.285509        -7.7691
  67   0.0000       0.025211         0.6860
  68   0.0000       0.074369         2.0237
  69   0.0000       0.098501         2.6803
  70   0.0000       0.122049         3.3211
  71   0.0000       0.132132         3.5955

MULLIKEN ATOMIC CHARGES
-----------------------
   0 S :    0.105898
   1 C :   -0.111845
   2 C :   -0.088517
   3 C :    0.029330
   4 C :   -0.144303
   5 H :    0.008075
   6 C :    0.046459
   7 H :    0.040528
   8 H :    0.020386
   9 C :   -0.098013
  10 H :    0.037114
  11 H :    0.035943
  12 C :   -0.029702
  13 H :    0.006159
  14 H :    0.039865
  15 H :    0.039784
  16 S :    0.099270
  17 C :   -0.089993
  18 C :   -0.023775
  19 C :   -0.036838
  20 C :   -0.152192
  21 H :    0.008570
  22 C :    0.082145
  23 H :   -0.003789
  24 H :    0.015120
  25 C :   -0.053087
  26 H :    0.053419
  27 H :    0.023964
  28 C :   -0.056369
  29 H :    0.049906
  30 H :    0.010117
  31 H :    0.031779
  32 H :    0.048090
  33 H :    0.056501
Sum of atomic charges:    0.0000000

LOEWDIN ATOMIC CHARGES
----------------------
   0 S :    0.405303
   1 C :   -0.211556
   2 C :   -0.062643
   3 C :   -0.059464
   4 C :   -0.186180
   5 H :    0.027844
   6 C :   -0.035973
   7 H :    0.034596
   8 H :    0.028873
   9 C :   -0.034290
  10 H :    0.023901
  11 H :    0.022508
  12 C :   -0.061885
  13 H :    0.011874
  14 H :    0.027573
  15 H :    0.035392
  16 S :    0.386888
  17 C :   -0.178334
  18 C :   -0.065635
  19 C :   -0.054774
  20 C :   -0.188299
  21 H :    0.028343
  22 C :   -0.033574
  23 H :    0.019572
  24 H :    0.028331
  25 C :   -0.035320
  26 H :    0.035517
  27 H :    0.024831
  28 C :   -0.080181
  29 H :    0.040293
  30 H :    0.020622
  31 H :    0.025809
  32 H :    0.030161
  33 H :    0.029876

  Mayer bond orders larger than 0.100000
B(  0-S ,  1-C ) :   1.1327 B(  0-S ,  4-C ) :   1.1524 B(  1-C ,  2-C ) :   1.6407
B(  1-C , 32-H ) :   0.9588 B(  2-C ,  3-C ) :   1.2325 B(  2-C ,  6-C ) :   1.0072
B(  3-C ,  4-C ) :   1.5853 B(  3-C ,  5-H ) :   0.9960 B(  4-C , 20-C ) :   1.0158
B(  6-C ,  7-H ) :   0.9408 B(  6-C ,  8-H ) :   0.9491 B(  6-C ,  9-C ) :   1.0527
B(  9-C , 10-H ) :   0.9564 B(  9-C , 11-H ) :   0.9639 B(  9-C , 12-C ) :   1.0686
B( 12-C , 13-H ) :   0.9757 B( 12-C , 14-H ) :   0.9773 B( 12-C , 15-H ) :   0.9741
B( 16-S , 17-C ) :   1.1234 B( 16-S , 20-C ) :   1.1503 B( 17-C , 18-C ) :   1.6527
B( 17-C , 33-H ) :   0.9636 B( 18-C , 19-C ) :   1.2212 B( 18-C , 21-H ) :   0.9874
B( 19-C , 20-C ) :   1.6032 B( 19-C , 22-C ) :   1.0606 B( 22-C , 23-H ) :   0.9229
B( 22-C , 24-H ) :   0.9290 B( 22-C , 25-C ) :   1.0519 B( 25-C , 26-H ) :   0.9614
B( 25-C , 27-H ) :   0.9534 B( 25-C , 28-C ) :   1.0805 B( 28-C , 29-H ) :   0.9732
B( 28-C , 30-H ) :   0.9681 B( 28-C , 31-H ) :   0.9740

Dispersion correction           -0.013722459
FINAL SINGLE POINT ENERGY     -1339.864872203476

DIPOLE MOMENT
-------------
                                X             Y             Z
Electronic contribution:    -29.08108      12.50662      -2.43119
Nuclear contribution   :     29.57374     -12.94242       2.39824
                        -----------------------------------------
Total Dipole Moment    :      0.49265      -0.43580      -0.03295
                        -----------------------------------------
Magnitude (a.u.)       :      0.65857
Magnitude (Debye)      :      1.67395

Rotational constants in cm-1:     0.016984     0.008934     0.006497
Rotational constants in MHz :   509.169866   267.826748   194.781491

                             ****ORCA TERMINATED NORMALLY****
TOTAL RUN TIME: 0 days 0 hours 0 minutes 30 seconds 59 msec
