                         Program Version 4.2.1 -  RELEASE  -
|  1> ! wB97X-D3 SP def2-SVP
|  2> %pal
|  3> nprocs 16
|  4> end
|  5>
|  6> * xyz 0 1
|  7> S 	 0.440516 	 -23.5104 	 62.2329
|  8> C 	 -0.921472 	 -24.259 	 62.8469
|  9> C 	 -1.53399 	 -25.0826 	 61.9019
| 10> C 	 -0.796724 	 -25.1391 	 60.6944
| 11> C 	 0.241862 	 -24.2607 	 60.6456
| 12> H 	 -0.97345 	 -25.8259 	 59.94
| 13> C 	 -2.74404 	 -25.9734 	 62.1844
| 14> H 	 -2.75435 	 -26.1866 	 63.2591
| 15> H 	 -2.55319 	 -26.9855 	 61.8522
| 16> C 	 -4.177 	 -25.3918 	 61.9011
| 17> H 	 -4.42061 	 -25.1044 	 60.8478
| 18> H 	 -4.87792 	 -26.1729 	 62.1393
| 19> C 	 -4.42879 	 -24.1669 	 62.791
| 20> H 	 -5.44492 	 -23.803 	 62.677
| 21> H 	 -4.19603 	 -24.4278 	 63.8794
| 22> H 	 -3.90991 	 -23.2782 	 62.4574
| 23> S 	 3.0589 	 -24.5586 	 60.4534
| 24> C 	 3.80384 	 -24.2642 	 58.8783
| 25> C 	 2.81943 	 -24.1396 	 57.8913
| 26> C 	 1.42774 	 -24.1559 	 58.3365
| 27> C 	 1.40838 	 -24.265 	 59.7368
| 28> H 	 3.09104 	 -24.0257 	 56.9244
| 29> C 	 0.238195 	 -23.8912 	 57.4845
| 30> H 	 -0.659852 	 -24.3536 	 57.8356
| 31> H 	 0.301088 	 -24.3343 	 56.5134
| 32> C 	 -0.0211032 	 -22.3695 	 57.2253
| 33> H 	 -0.737362 	 -22.2886 	 56.3925
| 34> H 	 0.842778 	 -21.8603 	 56.863
| 35> C 	 -0.495041 	 -21.5562 	 58.4841
| 36> H 	 -1.37467 	 -21.8918 	 59.0492
| 37> H 	 -0.808014 	 -20.5597 	 58.1018
| 38> H 	 0.363643 	 -21.3293 	 59.1578
| 39> H 	 -1.22047 	 -24.0739 	 63.8464
| 40> H 	 4.84288 	 -24.3713 	 58.684
| 41> *
| 42>
| 43>                          ****END OF INPUT****

CARTESIAN COORDINATES (ANGSTROEM)
---------------------------------
  S      0.440516  -23.510400   62.232900
  C     -0.921472  -24.259000   62.846900
  C     -1.533990  -25.082600   61.901900
  C     -0.796724  -25.139100   60.694400
  C      0.241862  -24.260700   60.645600
  H     -0.973450  -25.825900   59.940000
  C     -2.744040  -25.973400   62.184400
  H     -2.754350  -26.186600   63.259100
  H     -2.553190  -26.985500   61.852200
  C     -4.177000  -25.391800   61.901100
  H     -4.420610  -25.104400   60.847800
  H     -4.877920  -26.172900   62.139300
  C     -4.428790  -24.166900   62.791000
  H     -5.444920  -23.803000   62.677000
  H     -4.196030  -24.427800   63.879400
  H     -3.909910  -23.278200   62.457400
  S      3.058900  -24.558600   60.453400
  C      3.803840  -24.264200   58.878300
  C      2.819430  -24.139600   57.891300
  C      1.427740  -24.155900   58.336500
  C      1.408380  -24.265000   59.736800
  H      3.091040  -24.025700   56.924400
  C      0.238195  -23.891200   57.484500
  H     -0.659852  -24.353600   57.835600
  H      0.301088  -24.334300   56.513400
  C     -0.021103  -22.369500   57.225300
  H     -0.737362  -22.288600   56.392500
  H      0.842778  -21.860300   56.863000
  C     -0.495041  -21.556200   58.484100
  H     -1.374670  -21.891800   59.049200
  H     -0.808014  -20.559700   58.101800
  H      0.363643  -21.329300   59.157800
  H     -1.220470  -24.073900   63.846400
  H      4.842880  -24.371300   58.684000

 Total Charge           Charge          ....    0
 Multiplicity           Mult            ....    1
 Number of Electrons    NEL             ....  134
 Basis Dimension        Dim             ....  322

ORBITAL ENERGIES
----------------

  NO   OCC          E(Eh)            E(eV)
   0   2.0000     -88.964928     -2420.8588
   1   2.0000     -88.962831     -2420.8017
   2   2.0000     -10.332648      -281.1656
   3   2.0000     -10.324897      -280.9547
   4   2.0000     -10.317271      -280.7472
   5   2.0000     -10.309021      -280.5227
   6   2.0000     -10.306195      -280.4458
   7   2.0000     -10.299528      -280.2644
   8   2.0000     -10.293745      -280.1071
   9   2.0000     -10.291973      -280.0588
  10   2.0000     -10.290598      -280.0214
  11   2.0000     -10.288475      -279.9636
  12   2.0000     -10.288386      -279.9612
  13   2.0000     -10.287465      -279.9362
  14   2.0000     -10.279814      -279.7280
  15   2.0000     -10.276928      -279.6494
  16   2.0000      -8.079043      -219.8419
  17   2.0000      -8.078110      -219.8165
  18   2.0000      -6.037289      -164.2830
  19   2.0000      -6.036808      -164.2699
  20   2.0000      -6.033224      -164.1724
  21   2.0000      -6.032907      -164.1638
  22   2.0000      -6.030100      -164.0874
  23   2.0000      -6.028695      -164.0491
  24   2.0000      -1.007638       -27.4192
  25   2.0000      -0.975283       -26.5388
  26   2.0000      -0.904699       -24.6181
  27   2.0000      -0.902733       -24.5646
  28   2.0000      -0.866013       -23.5654
  29   2.0000      -0.852593       -23.2002
  30   2.0000      -0.838983       -22.8299
  31   2.0000      -0.811115       -22.0716
  32   2.0000      -0.783337       -21.3157
  33   2.0000      -0.769898       -20.9500
  34   2.0000      -0.704786       -19.1782
  35   2.0000      -0.696456       -18.9515
  36   2.0000      -0.692673       -18.8486
  37   2.0000      -0.661530       -18.0012
  38   2.0000      -0.651497       -17.7281
  39   2.0000      -0.623060       -16.9543
  40   2.0000      -0.601074       -16.3561
  41   2.0000      -0.565471       -15.3872
  42   2.0000      -0.551602       -15.0098
  43   2.0000      -0.544989       -14.8299
  44   2.0000      -0.542690       -14.7673
  45   2.0000      -0.528590       -14.3837
  46   2.0000      -0.517566       -14.0837
  47   2.0000      -0.507309       -13.8046
  48   2.0000      -0.498249       -13.5580
  49   2.0000      -0.493919       -13.4402
  50   2.0000      -0.486315       -13.2333
  51   2.0000      -0.476399       -12.9635
  52   2.0000      -0.468881       -12.7589
  53   2.0000      -0.461148       -12.5485
  54   2.0000      -0.455426       -12.3928
  55   2.0000      -0.448244       -12.1973
  56   2.0000      -0.437987       -11.9182
  57   2.0000      -0.436943       -11.8898
  58   2.0000      -0.431124       -11.7315
  59   2.0000      -0.421273       -11.4634
  60   2.0000      -0.419273       -11.4090
  61   2.0000      -0.417352       -11.3567
  62   2.0000      -0.414818       -11.2878
  63   2.0000      -0.352315        -9.5870
  64   2.0000      -0.329555        -8.9677
  65   2.0000      -0.323816        -8.8115
  66   2.0000      -0.288481        -7.8500
  67   0.0000       0.029158         0.7934
  68   0.0000       0.067697         1.8421
  69   0.0000       0.107084         2.9139
  70   0.0000       0.122379         3.3301
  71   0.0000       0.129166         3.5148

MULLIKEN ATOMIC CHARGES
-----------------------
   0 S :    0.106445
   1 C :   -0.104281
   2 C :   -0.086699
   3 C :    0.061806
   4 C :   -0.147743
   5 H :   -0.007328
   6 C :    0.047614
   7 H :    0.011953
   8 H :    0.022990
   9 C :   -0.047178
  10 H :    0.034143
  11 H :    0.028681
  12 C :   -0.074192
  13 H :    0.026906
  14 H :    0.038111
  15 H :    0.038899
  16 S :    0.097751
  17 C :   -0.082647
  18 C :    0.006608
  19 C :   -0.029768
  20 C :   -0.159203
  21 H :   -0.027127
  22 C :    0.114765
  23 H :    0.008528
  24 H :    0.010613
  25 C :   -0.069944
  26 H :    0.026624
  27 H :    0.021089
  28 C :   -0.078897
  29 H :    0.043701
  30 H :    0.025066
  31 H :    0.050780
  32 H :    0.039528
  33 H :    0.052407
Sum of atomic charges:   -0.0000000

LOEWDIN ATOMIC CHARGES
----------------------
   0 S :    0.435613
   1 C :   -0.204608
   2 C :   -0.068648
   3 C :   -0.045693
   4 C :   -0.192645
   5 H :    0.022023
   6 C :   -0.037566
   7 H :    0.030865
   8 H :    0.028917
   9 C :   -0.038598
  10 H :    0.026506
  11 H :    0.022323
  12 C :   -0.073102
  13 H :    0.025222
  14 H :    0.029656
  15 H :    0.025611
  16 S :    0.365540
  17 C :   -0.177576
  18 C :   -0.051941
  19 C :   -0.052119
  20 C :   -0.171833
  21 H :    0.008738
  22 C :   -0.033208
  23 H :    0.027987
  24 H :    0.030449
  25 C :   -0.030071
  26 H :    0.023074
  27 H :    0.021109
  28 C :   -0.076280
  29 H :    0.025874
  30 H :    0.027336
  31 H :    0.031783
  32 H :    0.020482
  33 H :    0.024783

  Mayer bond orders larger than 0.100000
B(  0-S ,  1-C ) :   1.1852 B(  0-S ,  4-C ) :   1.1539 B(  1-C ,  2-C ) :   1.5544
B(  1-C , 32-H ) :   0.9758 B(  2-C ,  3-C ) :   1.2837 B(  2-C ,  6-C ) :   1.0183
B(  3-C ,  4-C ) :   1.5505 B(  3-C ,  5-H ) :   1.0020 B(  4-C , 20-C ) :   1.0351
B(  6-C ,  7-H ) :   0.9433 B(  6-C ,  8-H ) :   0.9449 B(  6-C ,  9-C ) :   1.0573
B(  9-C , 10-H ) :   0.9582 B(  9-C , 11-H ) :   0.9559 B(  9-C , 12-C ) :   1.0781
B( 12-C , 13-H ) :   0.9709 B( 12-C , 14-H ) :   0.9747 B( 12-C , 15-H ) :   0.9721
B( 16-S , 17-C ) :   1.1276 B( 16-S , 20-C ) :   1.1327 B( 17-C , 18-C ) :   1.6256
B( 17-C , 33-H ) :   0.9725 B( 18-C , 19-C ) :   1.2151 B( 18-C , 21-H ) :   1.0010
B( 19-C , 20-C ) :   1.6007 B( 19-C , 22-C ) :   1.0677 B( 22-C , 23-H ) :   0.9272
B( 22-C , 24-H ) :   0.9224 B( 22-C , 25-C ) :   1.0682 B( 25-C , 26-H ) :   0.9590
B( 25-C , 27-H ) :   0.9565 B( 25-C , 28-C ) :   1.0726 B( 28-C , 29-H ) :   0.9773
B( 28-C , 30-H ) :   0.9723 B( 28-C , 31-H ) :   0.9748

Dispersion correction           -0.015331269
FINAL SINGLE POINT ENERGY     -1339.875166382970

DIPOLE MOMENT
-------------
                                X             Y             Z
Electronic contribution:     24.30201      -3.67821       5.99327
Nuclear contribution   :    -24.77719       3.48487      -6.30867
                        -----------------------------------------
Total Dipole Moment    :     -0.47518      -0.19334      -0.31540
                        -----------------------------------------
Magnitude (a.u.)       :      0.60221
Magnitude (Debye)      :      1.53070

Rotational constants in cm-1:     0.022084     0.008556     0.007211
Rotational constants in MHz :   662.074811   256.501750   216.192247

                             ****ORCA TERMINATED NORMALLY****
TOTAL RUN TIME: 0 days 0 hours 0 minutes 33 seconds 611 msec
