                         Program Version 4.2.1 -  RELEASE  -
|  1> ! wB97X-D3 SP def2-SVP
|  2> %pal
|  3> nprocs 16
|  4> end
|  5>
|  6> * xyz 0 1
|  7> S 	 70.1453 	 22.7903 	 78.2148
|  8> C 	 71.2279 	 21.6045 	 77.3969
|  9> C 	 70.9691 	 21.4228 	 76.0768
| 10> C 	 70.1059 	 22.4431 	 75.5651
| 11> C 	 69.6061 	 23.2377 	 76.5936
| 12> H 	 69.6997 	 22.4275 	 74.5517
| 13> C 	 71.6374 	 20.3428 	 75.2547
| 14> H 	 70.7842 	 19.9218 	 74.6428
| 15> H 	 71.955 	 19.5427 	 75.9334
| 16> C 	 72.8829 	 20.8223 	 74.5509
| 17> H 	 73.5739 	 21.2355 	 75.2922
| 18> H 	 73.351 	 19.9274 	 74.0604
| 19> C 	 72.6469 	 21.7403 	 73.3204
| 20> H 	 73.6224 	 21.9479 	 72.8923
| 21> H 	 72.0045 	 21.216 	 72.5407
| 22> H 	 72.028 	 22.5744 	 73.6199
| 23> S 	 67.1048 	 23.9821 	 77.4906
| 24> C 	 66.3872 	 25.4064 	 76.9626
| 25> C 	 67.2249 	 26.0516 	 76.0044
| 26> C 	 68.3204 	 25.2937 	 75.668
| 27> C 	 68.5417 	 24.2422 	 76.5208
| 28> H 	 66.8428 	 26.9622 	 75.6106
| 29> C 	 69.2621 	 25.6933 	 74.5784
| 30> H 	 68.7182 	 26.4368 	 73.9819
| 31> H 	 69.5135 	 24.8842 	 73.9304
| 32> C 	 70.6118 	 26.2492 	 75.159
| 33> H 	 71.0878 	 25.7709 	 75.9874
| 34> H 	 70.4532 	 27.3363 	 75.4468
| 35> C 	 71.7694 	 26.3265 	 74.1245
| 36> H 	 72.6036 	 26.7349 	 74.7241
| 37> H 	 71.5685 	 27.0391 	 73.2883
| 38> H 	 71.9999 	 25.3026 	 73.7252
| 39> H 	 71.8937 	 20.8724 	 77.8966
| 40> H 	 65.3466 	 25.7125 	 77.0875
| 41> *
| 42>
| 43>                          ****END OF INPUT****

CARTESIAN COORDINATES (ANGSTROEM)
---------------------------------
  S     70.145300   22.790300   78.214800
  C     71.227900   21.604500   77.396900
  C     70.969100   21.422800   76.076800
  C     70.105900   22.443100   75.565100
  C     69.606100   23.237700   76.593600
  H     69.699700   22.427500   74.551700
  C     71.637400   20.342800   75.254700
  H     70.784200   19.921800   74.642800
  H     71.955000   19.542700   75.933400
  C     72.882900   20.822300   74.550900
  H     73.573900   21.235500   75.292200
  H     73.351000   19.927400   74.060400
  C     72.646900   21.740300   73.320400
  H     73.622400   21.947900   72.892300
  H     72.004500   21.216000   72.540700
  H     72.028000   22.574400   73.619900
  S     67.104800   23.982100   77.490600
  C     66.387200   25.406400   76.962600
  C     67.224900   26.051600   76.004400
  C     68.320400   25.293700   75.668000
  C     68.541700   24.242200   76.520800
  H     66.842800   26.962200   75.610600
  C     69.262100   25.693300   74.578400
  H     68.718200   26.436800   73.981900
  H     69.513500   24.884200   73.930400
  C     70.611800   26.249200   75.159000
  H     71.087800   25.770900   75.987400
  H     70.453200   27.336300   75.446800
  C     71.769400   26.326500   74.124500
  H     72.603600   26.734900   74.724100
  H     71.568500   27.039100   73.288300
  H     71.999900   25.302600   73.725200
  H     71.893700   20.872400   77.896600
  H     65.346600   25.712500   77.087500

 Total Charge           Charge          ....    0
 Multiplicity           Mult            ....    1
 Number of Electrons    NEL             ....  134
 Basis Dimension        Dim             ....  322

ORBITAL ENERGIES
----------------

  NO   OCC          E(Eh)            E(eV)
   0   2.0000     -88.970892     -2421.0211
   1   2.0000     -88.966852     -2420.9111
   2   2.0000     -10.335643      -281.2472
   3   2.0000     -10.319462      -280.8068
   4   2.0000     -10.313166      -280.6355
   5   2.0000     -10.312481      -280.6169
   6   2.0000     -10.298373      -280.2330
   7   2.0000     -10.297436      -280.2075
   8   2.0000     -10.296774      -280.1895
   9   2.0000     -10.294417      -280.1253
  10   2.0000     -10.291574      -280.0480
  11   2.0000     -10.289651      -279.9956
  12   2.0000     -10.287870      -279.9472
  13   2.0000     -10.285658      -279.8870
  14   2.0000     -10.283078      -279.8168
  15   2.0000     -10.280335      -279.7421
  16   2.0000      -8.084440      -219.9888
  17   2.0000      -8.082425      -219.9340
  18   2.0000      -6.042966      -164.4375
  19   2.0000      -6.040682      -164.3753
  20   2.0000      -6.039419      -164.3410
  21   2.0000      -6.036578      -164.2636
  22   2.0000      -6.034942      -164.2191
  23   2.0000      -6.033646      -164.1839
  24   2.0000      -1.012029       -27.5387
  25   2.0000      -0.985926       -26.8284
  26   2.0000      -0.915141       -24.9022
  27   2.0000      -0.906272       -24.6609
  28   2.0000      -0.865241       -23.5444
  29   2.0000      -0.853587       -23.2273
  30   2.0000      -0.843097       -22.9418
  31   2.0000      -0.812654       -22.1135
  32   2.0000      -0.783697       -21.3255
  33   2.0000      -0.770701       -20.9718
  34   2.0000      -0.701687       -19.0939
  35   2.0000      -0.698289       -19.0014
  36   2.0000      -0.685687       -18.6585
  37   2.0000      -0.664646       -18.0859
  38   2.0000      -0.631444       -17.1825
  39   2.0000      -0.619674       -16.8622
  40   2.0000      -0.595287       -16.1986
  41   2.0000      -0.572244       -15.5715
  42   2.0000      -0.560503       -15.2521
  43   2.0000      -0.551236       -14.9999
  44   2.0000      -0.540239       -14.7006
  45   2.0000      -0.528436       -14.3795
  46   2.0000      -0.517697       -14.0872
  47   2.0000      -0.511396       -13.9158
  48   2.0000      -0.500892       -13.6300
  49   2.0000      -0.489316       -13.3150
  50   2.0000      -0.486808       -13.2467
  51   2.0000      -0.480537       -13.0761
  52   2.0000      -0.473175       -12.8758
  53   2.0000      -0.465531       -12.6677
  54   2.0000      -0.459770       -12.5110
  55   2.0000      -0.450579       -12.2609
  56   2.0000      -0.443335       -12.0638
  57   2.0000      -0.436258       -11.8712
  58   2.0000      -0.430728       -11.7207
  59   2.0000      -0.422549       -11.4981
  60   2.0000      -0.419876       -11.4254
  61   2.0000      -0.414647       -11.2831
  62   2.0000      -0.408083       -11.1045
  63   2.0000      -0.343498        -9.3470
  64   2.0000      -0.336710        -9.1624
  65   2.0000      -0.332360        -9.0440
  66   2.0000      -0.284820        -7.7503
  67   0.0000       0.028028         0.7627
  68   0.0000       0.062460         1.6996
  69   0.0000       0.100531         2.7356
  70   0.0000       0.119482         3.2513
  71   0.0000       0.127788         3.4773

MULLIKEN ATOMIC CHARGES
-----------------------
   0 S :    0.106982
   1 C :   -0.113511
   2 C :   -0.118683
   3 C :    0.019758
   4 C :   -0.147686
   5 H :    0.029078
   6 C :    0.046831
   7 H :    0.041799
   8 H :    0.022723
   9 C :   -0.068659
  10 H :    0.038232
  11 H :    0.035594
  12 C :   -0.063074
  13 H :    0.045671
  14 H :    0.029368
  15 H :    0.035872
  16 S :    0.128302
  17 C :   -0.108492
  18 C :   -0.058205
  19 C :   -0.007178
  20 C :   -0.158838
  21 H :    0.003392
  22 C :    0.112869
  23 H :    0.019867
  24 H :    0.008913
  25 C :   -0.100681
  26 H :    0.045623
  27 H :    0.031067
  28 C :   -0.085872
  29 H :    0.037657
  30 H :    0.035733
  31 H :    0.045422
  32 H :    0.044536
  33 H :    0.065590
Sum of atomic charges:   -0.0000000

LOEWDIN ATOMIC CHARGES
----------------------
   0 S :    0.379965
   1 C :   -0.192145
   2 C :   -0.063430
   3 C :   -0.071076
   4 C :   -0.173139
   5 H :    0.034632
   6 C :   -0.037029
   7 H :    0.038964
   8 H :    0.032436
   9 C :   -0.042004
  10 H :    0.028280
  11 H :    0.029356
  12 C :   -0.067920
  13 H :    0.028369
  14 H :    0.030370
  15 H :    0.017859
  16 S :    0.445986
  17 C :   -0.217570
  18 C :   -0.070889
  19 C :   -0.061108
  20 C :   -0.209821
  21 H :    0.025648
  22 C :   -0.025095
  23 H :    0.033614
  24 H :    0.022154
  25 C :   -0.038713
  26 H :    0.024488
  27 H :    0.029435
  28 C :   -0.073756
  29 H :    0.029851
  30 H :    0.023294
  31 H :    0.024533
  32 H :    0.029836
  33 H :    0.034621

  Mayer bond orders larger than 0.100000
B(  0-S ,  1-C ) :   1.0999 B(  0-S ,  4-C ) :   1.1461 B(  1-C ,  2-C ) :   1.6815
B(  1-C , 32-H ) :   0.9534 B(  2-C ,  3-C ) :   1.2088 B(  2-C ,  6-C ) :   1.0218
B(  3-C ,  4-C ) :   1.5907 B(  3-C ,  5-H ) :   0.9804 B(  4-C , 20-C ) :   1.0296
B(  6-C ,  7-H ) :   0.9394 B(  6-C ,  8-H ) :   0.9347 B(  6-C ,  9-C ) :   1.0732
B(  9-C , 10-H ) :   0.9505 B(  9-C , 11-H ) :   0.9546 B(  9-C , 12-C ) :   1.0755
B( 12-C , 13-H ) :   0.9741 B( 12-C , 14-H ) :   0.9723 B( 12-C , 15-H ) :   0.9717
B( 16-S , 17-C ) :   1.2049 B( 16-S , 20-C ) :   1.1631 B( 17-C , 18-C ) :   1.5310
B( 17-C , 20-C ) :   0.1185 B( 17-C , 33-H ) :   0.9657 B( 18-C , 19-C ) :   1.2999
B( 18-C , 21-H ) :   1.0009 B( 19-C , 20-C ) :   1.5370 B( 19-C , 22-C ) :   1.0560
B( 22-C , 23-H ) :   0.9287 B( 22-C , 24-H ) :   0.9328 B( 22-C , 25-C ) :   1.0499
B( 25-C , 26-H ) :   0.9672 B( 25-C , 27-H ) :   0.9547 B( 25-C , 28-C ) :   1.0788
B( 28-C , 29-H ) :   0.9749 B( 28-C , 30-H ) :   0.9753 B( 28-C , 31-H ) :   0.9737

Dispersion correction           -0.015341252
FINAL SINGLE POINT ENERGY     -1339.868791932636

DIPOLE MOMENT
-------------
                                X             Y             Z
Electronic contribution:    -19.77307      -1.59110      22.34701
Nuclear contribution   :     19.87880       1.45882     -22.90223
                        -----------------------------------------
Total Dipole Moment    :      0.10573      -0.13228      -0.55522
                        -----------------------------------------
Magnitude (a.u.)       :      0.58047
Magnitude (Debye)      :      1.47544

Rotational constants in cm-1:     0.018865     0.009976     0.007491
Rotational constants in MHz :   565.553108   299.083796   224.577093

                             ****ORCA TERMINATED NORMALLY****
TOTAL RUN TIME: 0 days 0 hours 0 minutes 30 seconds 823 msec
