                         Program Version 4.2.1 -  RELEASE  -
|  1> ! wB97X-D3 SP def2-SVP
|  2> %pal
|  3> nprocs 16
|  4> end
|  5>
|  6> * xyz 0 1
|  7> S 	 -14.3158 	 39.0421 	 29.2632
|  8> C 	 -15.7658 	 38.2059 	 29.6272
|  9> C 	 -16.6505 	 39.1262 	 30.2653
| 10> C 	 -16.1597 	 40.4478 	 30.3947
| 11> C 	 -14.8511 	 40.5732 	 29.8928
| 12> H 	 -16.5201 	 41.3332 	 30.8533
| 13> C 	 -17.9875 	 38.832 	 30.824
| 14> H 	 -17.9649 	 39.085 	 31.9204
| 15> H 	 -18.2202 	 37.7855 	 30.6569
| 16> C 	 -19.2297 	 39.5309 	 30.1252
| 17> H 	 -20.1723 	 39.1661 	 30.5653
| 18> H 	 -19.265 	 40.6549 	 30.4089
| 19> C 	 -19.3396 	 39.5095 	 28.5751
| 20> H 	 -20.2718 	 40.1315 	 28.2371
| 21> H 	 -18.5491 	 40.0175 	 28.1618
| 22> H 	 -19.3712 	 38.4534 	 28.0448
| 23> S 	 -12.9076 	 41.6958 	 28.3214
| 24> C 	 -11.9053 	 43.0113 	 28.9149
| 25> C 	 -12.4555 	 43.4356 	 30.1274
| 26> C 	 -13.6633 	 42.7856 	 30.5074
| 27> C 	 -13.9821 	 41.7162 	 29.6835
| 28> H 	 -11.9929 	 44.3544 	 30.5997
| 29> C 	 -14.3099 	 43.0576 	 31.8446
| 30> H 	 -13.5049 	 43.4674 	 32.4439
| 31> H 	 -14.5627 	 42.069 	 32.1714
| 32> C 	 -15.6135 	 44.0072 	 31.7894
| 33> H 	 -15.9061 	 44.1188 	 32.9349
| 34> H 	 -16.4884 	 43.472 	 31.4134
| 35> C 	 -15.4536 	 45.4193 	 31.268
| 36> H 	 -15.2509 	 45.4587 	 30.1893
| 37> H 	 -14.6107 	 45.9771 	 31.7826
| 38> H 	 -16.4104 	 45.8701 	 31.4237
| 39> H 	 -16.001 	 37.1628 	 29.3676
| 40> H 	 -11.0604 	 43.3629 	 28.3168
| 41> *
| 42>
| 43>                          ****END OF INPUT****

CARTESIAN COORDINATES (ANGSTROEM)
---------------------------------
  S    -14.315800   39.042100   29.263200
  C    -15.765800   38.205900   29.627200
  C    -16.650500   39.126200   30.265300
  C    -16.159700   40.447800   30.394700
  C    -14.851100   40.573200   29.892800
  H    -16.520100   41.333200   30.853300
  C    -17.987500   38.832000   30.824000
  H    -17.964900   39.085000   31.920400
  H    -18.220200   37.785500   30.656900
  C    -19.229700   39.530900   30.125200
  H    -20.172300   39.166100   30.565300
  H    -19.265000   40.654900   30.408900
  C    -19.339600   39.509500   28.575100
  H    -20.271800   40.131500   28.237100
  H    -18.549100   40.017500   28.161800
  H    -19.371200   38.453400   28.044800
  S    -12.907600   41.695800   28.321400
  C    -11.905300   43.011300   28.914900
  C    -12.455500   43.435600   30.127400
  C    -13.663300   42.785600   30.507400
  C    -13.982100   41.716200   29.683500
  H    -11.992900   44.354400   30.599700
  C    -14.309900   43.057600   31.844600
  H    -13.504900   43.467400   32.443900
  H    -14.562700   42.069000   32.171400
  C    -15.613500   44.007200   31.789400
  H    -15.906100   44.118800   32.934900
  H    -16.488400   43.472000   31.413400
  C    -15.453600   45.419300   31.268000
  H    -15.250900   45.458700   30.189300
  H    -14.610700   45.977100   31.782600
  H    -16.410400   45.870100   31.423700
  H    -16.001000   37.162800   29.367600
  H    -11.060400   43.362900   28.316800

 Total Charge           Charge          ....    0
 Multiplicity           Mult            ....    1
 Number of Electrons    NEL             ....  134
 Basis Dimension        Dim             ....  322

ORBITAL ENERGIES
----------------

  NO   OCC          E(Eh)            E(eV)
   0   2.0000     -88.967380     -2420.9255
   1   2.0000     -88.963735     -2420.8263
   2   2.0000     -10.332438      -281.1599
   3   2.0000     -10.326840      -281.0076
   4   2.0000     -10.323232      -280.9094
   5   2.0000     -10.319401      -280.8052
   6   2.0000     -10.304828      -280.4086
   7   2.0000     -10.303852      -280.3821
   8   2.0000     -10.301976      -280.3310
   9   2.0000     -10.301502      -280.3181
  10   2.0000     -10.298928      -280.2481
  11   2.0000     -10.295162      -280.1456
  12   2.0000     -10.294237      -280.1204
  13   2.0000     -10.293953      -280.1127
  14   2.0000     -10.286998      -279.9234
  15   2.0000     -10.283446      -279.8268
  16   2.0000      -8.082608      -219.9389
  17   2.0000      -8.078784      -219.8349
  18   2.0000      -6.041029      -164.3848
  19   2.0000      -6.037238      -164.2816
  20   2.0000      -6.036714      -164.2673
  21   2.0000      -6.033731      -164.1862
  22   2.0000      -6.033029      -164.1671
  23   2.0000      -6.029779      -164.0786
  24   2.0000      -1.011856       -27.5340
  25   2.0000      -0.986490       -26.8438
  26   2.0000      -0.905892       -24.6506
  27   2.0000      -0.902709       -24.5640
  28   2.0000      -0.868067       -23.6213
  29   2.0000      -0.853659       -23.2292
  30   2.0000      -0.844793       -22.9880
  31   2.0000      -0.814854       -22.1733
  32   2.0000      -0.781864       -21.2756
  33   2.0000      -0.769652       -20.9433
  34   2.0000      -0.706065       -19.2130
  35   2.0000      -0.695965       -18.9382
  36   2.0000      -0.691111       -18.8061
  37   2.0000      -0.662560       -18.0292
  38   2.0000      -0.643627       -17.5140
  39   2.0000      -0.617313       -16.7979
  40   2.0000      -0.585338       -15.9278
  41   2.0000      -0.560932       -15.2637
  42   2.0000      -0.557858       -15.1801
  43   2.0000      -0.546599       -14.8737
  44   2.0000      -0.541249       -14.7281
  45   2.0000      -0.535082       -14.5603
  46   2.0000      -0.519600       -14.1390
  47   2.0000      -0.511746       -13.9253
  48   2.0000      -0.507872       -13.8199
  49   2.0000      -0.497717       -13.5436
  50   2.0000      -0.490470       -13.3464
  51   2.0000      -0.484470       -13.1831
  52   2.0000      -0.472129       -12.8473
  53   2.0000      -0.463419       -12.6103
  54   2.0000      -0.458059       -12.4644
  55   2.0000      -0.443959       -12.0807
  56   2.0000      -0.442764       -12.0482
  57   2.0000      -0.437022       -11.8920
  58   2.0000      -0.436129       -11.8677
  59   2.0000      -0.426953       -11.6180
  60   2.0000      -0.413915       -11.2632
  61   2.0000      -0.407249       -11.0818
  62   2.0000      -0.401401       -10.9227
  63   2.0000      -0.356207        -9.6929
  64   2.0000      -0.330209        -8.9854
  65   2.0000      -0.329798        -8.9743
  66   2.0000      -0.284789        -7.7495
  67   0.0000       0.019720         0.5366
  68   0.0000       0.075893         2.0651
  69   0.0000       0.112994         3.0747
  70   0.0000       0.119311         3.2466
  71   0.0000       0.127717         3.4754

MULLIKEN ATOMIC CHARGES
-----------------------
   0 S :    0.115694
   1 C :   -0.116779
   2 C :   -0.098316
   3 C :    0.057872
   4 C :   -0.158962
   5 H :   -0.027172
   6 C :    0.069564
   7 H :    0.055252
   8 H :    0.015275
   9 C :   -0.114717
  10 H :    0.035534
  11 H :    0.030299
  12 C :   -0.076903
  13 H :    0.046064
  14 H :    0.028846
  15 H :    0.045331
  16 S :    0.093865
  17 C :   -0.119105
  18 C :   -0.051831
  19 C :   -0.051360
  20 C :   -0.127290
  21 H :    0.043969
  22 C :    0.078424
  23 H :    0.023797
  24 H :    0.027780
  25 C :   -0.127804
  26 H :    0.038117
  27 H :    0.041169
  28 C :   -0.038154
  29 H :    0.045406
  30 H :    0.042675
  31 H :    0.035800
  32 H :    0.063185
  33 H :    0.074477
Sum of atomic charges:   -0.0000000

LOEWDIN ATOMIC CHARGES
----------------------
   0 S :    0.437764
   1 C :   -0.222258
   2 C :   -0.066963
   3 C :   -0.065088
   4 C :   -0.187800
   5 H :    0.024303
   6 C :   -0.038983
   7 H :    0.043900
   8 H :    0.026881
   9 C :   -0.049383
  10 H :    0.023310
  11 H :    0.026816
  12 C :   -0.077178
  13 H :    0.040205
  14 H :    0.011043
  15 H :    0.034048
  16 S :    0.408450
  17 C :   -0.186999
  18 C :   -0.082049
  19 C :   -0.065364
  20 C :   -0.208722
  21 H :    0.040861
  22 C :   -0.028113
  23 H :    0.031335
  24 H :    0.029415
  25 C :   -0.045884
  26 H :    0.033998
  27 H :    0.019810
  28 C :   -0.070195
  29 H :    0.027907
  30 H :    0.033908
  31 H :    0.027902
  32 H :    0.038086
  33 H :    0.035035

  Mayer bond orders larger than 0.100000
B(  0-S ,  1-C ) :   1.1573 B(  0-S ,  4-C ) :   1.1787 B(  1-C ,  2-C ) :   1.5379
B(  1-C ,  4-C ) :   0.1034 B(  1-C , 32-H ) :   0.9695 B(  2-C ,  3-C ) :   1.2564
B(  2-C ,  6-C ) :   1.0477 B(  3-C ,  4-C ) :   1.5134 B(  3-C ,  5-H ) :   1.0028
B(  4-C , 20-C ) :   1.0673 B(  6-C ,  7-H ) :   0.9415 B(  6-C ,  8-H ) :   0.9388
B(  6-C ,  9-C ) :   1.0525 B(  9-C , 10-H ) :   0.9629 B(  9-C , 11-H ) :   0.9538
B(  9-C , 12-C ) :   1.0674 B( 12-C , 13-H ) :   0.9721 B( 12-C , 14-H ) :   0.9727
B( 12-C , 15-H ) :   0.9743 B( 16-S , 17-C ) :   1.1621 B( 16-S , 20-C ) :   1.1508
B( 17-C , 18-C ) :   1.5636 B( 17-C , 20-C ) :   0.1021 B( 17-C , 33-H ) :   0.9727
B( 18-C , 19-C ) :   1.2793 B( 18-C , 21-H ) :   0.9792 B( 19-C , 20-C ) :   1.5334
B( 19-C , 22-C ) :   1.0336 B( 22-C , 23-H ) :   0.9418 B( 22-C , 24-H ) :   0.9316
B( 22-C , 25-C ) :   1.0578 B( 25-C , 26-H ) :   0.9550 B( 25-C , 27-H ) :   0.9535
B( 25-C , 28-C ) :   1.0758 B( 28-C , 29-H ) :   0.9725 B( 28-C , 30-H ) :   0.9736
B( 28-C , 31-H ) :   0.9691

Dispersion correction           -0.014722940
FINAL SINGLE POINT ENERGY     -1339.865268616158

DIPOLE MOMENT
-------------
                                X             Y             Z
Electronic contribution:     22.59815      -9.98757     -10.11447
Nuclear contribution   :    -22.85445      10.32259      10.43686
                        -----------------------------------------
Total Dipole Moment    :     -0.25630       0.33502       0.32240
                        -----------------------------------------
Magnitude (a.u.)       :      0.53091
Magnitude (Debye)      :      1.34948

Rotational constants in cm-1:     0.018719     0.009301     0.007038
Rotational constants in MHz :   561.166910   278.822363   210.987148

                             ****ORCA TERMINATED NORMALLY****
TOTAL RUN TIME: 0 days 0 hours 0 minutes 32 seconds 776 msec
