                         Program Version 4.2.1 -  RELEASE  -
|  1> ! wB97X-D3 SP def2-SVP
|  2> %pal
|  3> nprocs 16
|  4> end
|  5>
|  6> * xyz 0 1
|  7> S 	 -18.6628 	 44.1073 	 56.3454
|  8> C 	 -17.7669 	 45.6075 	 56.1876
|  9> C 	 -18.4368 	 46.6632 	 56.7542
| 10> C 	 -19.724 	 46.2852 	 57.2931
| 11> C 	 -19.9507 	 44.9271 	 57.2173
| 12> H 	 -20.467 	 46.986 	 57.6659
| 13> C 	 -17.8996 	 48.1256 	 56.9205
| 14> H 	 -18.2784 	 48.7128 	 56.0439
| 15> H 	 -16.8092 	 48.0495 	 56.8671
| 16> C 	 -18.2117 	 48.8775 	 58.2278
| 17> H 	 -17.9173 	 49.8992 	 58.0476
| 18> H 	 -19.2989 	 48.8967 	 58.4294
| 19> C 	 -17.4781 	 48.4229 	 59.4237
| 20> H 	 -17.9607 	 47.5938 	 59.9863
| 21> H 	 -16.5509 	 48.0836 	 59.043
| 22> H 	 -17.3779 	 49.1603 	 60.2624
| 23> S 	 -21.0885 	 42.886 	 58.8183
| 24> C 	 -22.7919 	 42.4524 	 58.3956
| 25> C 	 -23.3762 	 43.3319 	 57.5507
| 26> C 	 -22.4465 	 44.3166 	 57.1163
| 27> C 	 -21.182 	 44.1828 	 57.6178
| 28> H 	 -24.3348 	 43.1813 	 57.134
| 29> C 	 -22.8699 	 45.2011 	 55.9587
| 30> H 	 -22.3128 	 46.1463 	 55.9269
| 31> H 	 -23.8714 	 45.5778 	 56.0627
| 32> C 	 -22.71 	 44.5146 	 54.6246
| 33> H 	 -22.9917 	 43.5405 	 54.6358
| 34> H 	 -21.7014 	 44.4694 	 54.1605
| 35> C 	 -23.5214 	 45.2399 	 53.4768
| 36> H 	 -23.2558 	 44.8789 	 52.4326
| 37> H 	 -23.3459 	 46.247 	 53.4588
| 38> H 	 -24.5726 	 45.1955 	 53.6827
| 39> H 	 -16.7957 	 45.6842 	 55.7614
| 40> H 	 -23.236 	 41.5996 	 58.7651
| 41> *
| 42>
| 43>                          ****END OF INPUT****

CARTESIAN COORDINATES (ANGSTROEM)
---------------------------------
  S    -18.662800   44.107300   56.345400
  C    -17.766900   45.607500   56.187600
  C    -18.436800   46.663200   56.754200
  C    -19.724000   46.285200   57.293100
  C    -19.950700   44.927100   57.217300
  H    -20.467000   46.986000   57.665900
  C    -17.899600   48.125600   56.920500
  H    -18.278400   48.712800   56.043900
  H    -16.809200   48.049500   56.867100
  C    -18.211700   48.877500   58.227800
  H    -17.917300   49.899200   58.047600
  H    -19.298900   48.896700   58.429400
  C    -17.478100   48.422900   59.423700
  H    -17.960700   47.593800   59.986300
  H    -16.550900   48.083600   59.043000
  H    -17.377900   49.160300   60.262400
  S    -21.088500   42.886000   58.818300
  C    -22.791900   42.452400   58.395600
  C    -23.376200   43.331900   57.550700
  C    -22.446500   44.316600   57.116300
  C    -21.182000   44.182800   57.617800
  H    -24.334800   43.181300   57.134000
  C    -22.869900   45.201100   55.958700
  H    -22.312800   46.146300   55.926900
  H    -23.871400   45.577800   56.062700
  C    -22.710000   44.514600   54.624600
  H    -22.991700   43.540500   54.635800
  H    -21.701400   44.469400   54.160500
  C    -23.521400   45.239900   53.476800
  H    -23.255800   44.878900   52.432600
  H    -23.345900   46.247000   53.458800
  H    -24.572600   45.195500   53.682700
  H    -16.795700   45.684200   55.761400
  H    -23.236000   41.599600   58.765100

 Total Charge           Charge          ....    0
 Multiplicity           Mult            ....    1
 Number of Electrons    NEL             ....  134
 Basis Dimension        Dim             ....  322

ORBITAL ENERGIES
----------------

  NO   OCC          E(Eh)            E(eV)
   0   2.0000     -88.965921     -2420.8858
   1   2.0000     -88.964719     -2420.8531
   2   2.0000     -10.331094      -281.1234
   3   2.0000     -10.326841      -281.0076
   4   2.0000     -10.315375      -280.6956
   5   2.0000     -10.311924      -280.6017
   6   2.0000     -10.303257      -280.3659
   7   2.0000     -10.301248      -280.3112
   8   2.0000     -10.299675      -280.2684
   9   2.0000     -10.295387      -280.1517
  10   2.0000     -10.290016      -280.0056
  11   2.0000     -10.287901      -279.9480
  12   2.0000     -10.285059      -279.8707
  13   2.0000     -10.276883      -279.6482
  14   2.0000     -10.273543      -279.5573
  15   2.0000     -10.271559      -279.5033
  16   2.0000      -8.080353      -219.8776
  17   2.0000      -8.078590      -219.8296
  18   2.0000      -6.038939      -164.3279
  19   2.0000      -6.037181      -164.2800
  20   2.0000      -6.034899      -164.2179
  21   2.0000      -6.033386      -164.1768
  22   2.0000      -6.031047      -164.1131
  23   2.0000      -6.029152      -164.0616
  24   2.0000      -1.002365       -27.2757
  25   2.0000      -0.982188       -26.7267
  26   2.0000      -0.912855       -24.8401
  27   2.0000      -0.907203       -24.6863
  28   2.0000      -0.869550       -23.6616
  29   2.0000      -0.846894       -23.0452
  30   2.0000      -0.844366       -22.9764
  31   2.0000      -0.817344       -22.2411
  32   2.0000      -0.781503       -21.2658
  33   2.0000      -0.771643       -20.9975
  34   2.0000      -0.710002       -19.3201
  35   2.0000      -0.701540       -19.0899
  36   2.0000      -0.691385       -18.8135
  37   2.0000      -0.666660       -18.1407
  38   2.0000      -0.639718       -17.4076
  39   2.0000      -0.621887       -16.9224
  40   2.0000      -0.604236       -16.4421
  41   2.0000      -0.570251       -15.5173
  42   2.0000      -0.560807       -15.2603
  43   2.0000      -0.554940       -15.1007
  44   2.0000      -0.539066       -14.6687
  45   2.0000      -0.525724       -14.3057
  46   2.0000      -0.515247       -14.0206
  47   2.0000      -0.512804       -13.9541
  48   2.0000      -0.503775       -13.7084
  49   2.0000      -0.498491       -13.5646
  50   2.0000      -0.487714       -13.2714
  51   2.0000      -0.476275       -12.9601
  52   2.0000      -0.471337       -12.8257
  53   2.0000      -0.461782       -12.5657
  54   2.0000      -0.458374       -12.4730
  55   2.0000      -0.446299       -12.1444
  56   2.0000      -0.444328       -12.0908
  57   2.0000      -0.443409       -12.0658
  58   2.0000      -0.437641       -11.9088
  59   2.0000      -0.425065       -11.5666
  60   2.0000      -0.420420       -11.4402
  61   2.0000      -0.407901       -11.0995
  62   2.0000      -0.406240       -11.0543
  63   2.0000      -0.341733        -9.2990
  64   2.0000      -0.331734        -9.0269
  65   2.0000      -0.329874        -8.9763
  66   2.0000      -0.301859        -8.2140
  67   0.0000       0.036236         0.9860
  68   0.0000       0.067612         1.8398
  69   0.0000       0.109307         2.9744
  70   0.0000       0.122610         3.3364
  71   0.0000       0.128604         3.4995

MULLIKEN ATOMIC CHARGES
-----------------------
   0 S :    0.112688
   1 C :   -0.119778
   2 C :   -0.087965
   3 C :    0.038497
   4 C :   -0.152098
   5 H :    0.020955
   6 C :    0.036406
   7 H :    0.053115
   8 H :    0.021960
   9 C :   -0.066784
  10 H :    0.026232
  11 H :    0.028242
  12 C :   -0.040903
  13 H :    0.036887
  14 H :    0.013827
  15 H :    0.039119
  16 S :    0.093008
  17 C :   -0.064982
  18 C :    0.004763
  19 C :   -0.021066
  20 C :   -0.173646
  21 H :    0.011268
  22 C :    0.085660
  23 H :    0.014643
  24 H :    0.012831
  25 C :   -0.036949
  26 H :    0.001200
  27 H :    0.036017
  28 C :   -0.049999
  29 H :    0.042285
  30 H :    0.003179
  31 H :    0.018960
  32 H :    0.035501
  33 H :    0.026926
Sum of atomic charges:   -0.0000000

LOEWDIN ATOMIC CHARGES
----------------------
   0 S :    0.402011
   1 C :   -0.194142
   2 C :   -0.065300
   3 C :   -0.062057
   4 C :   -0.186602
   5 H :    0.033053
   6 C :   -0.029826
   7 H :    0.040272
   8 H :    0.026738
   9 C :   -0.048303
  10 H :    0.027638
  11 H :    0.023095
  12 C :   -0.068844
  13 H :    0.030918
  14 H :    0.018512
  15 H :    0.032821
  16 S :    0.366517
  17 C :   -0.138990
  18 C :   -0.059514
  19 C :   -0.052329
  20 C :   -0.195333
  21 H :    0.030094
  22 C :   -0.031309
  23 H :    0.031704
  24 H :    0.027181
  25 C :   -0.029537
  26 H :    0.006680
  27 H :    0.032880
  28 C :   -0.062361
  29 H :    0.034345
  30 H :    0.008743
  31 H :    0.017449
  32 H :    0.023012
  33 H :    0.010785

  Mayer bond orders larger than 0.100000
B(  0-S ,  1-C ) :   1.1276 B(  0-S ,  4-C ) :   1.1542 B(  1-C ,  2-C ) :   1.6428
B(  1-C , 32-H ) :   0.9712 B(  2-C ,  3-C ) :   1.2241 B(  2-C ,  6-C ) :   0.9977
B(  3-C ,  4-C ) :   1.6055 B(  3-C ,  5-H ) :   0.9902 B(  4-C , 20-C ) :   1.0030
B(  6-C ,  7-H ) :   0.9374 B(  6-C ,  8-H ) :   0.9474 B(  6-C ,  9-C ) :   1.0911
B(  9-C , 10-H ) :   0.9475 B(  9-C , 11-H ) :   0.9487 B(  9-C , 12-C ) :   1.0796
B( 12-C , 13-H ) :   0.9718 B( 12-C , 14-H ) :   0.9729 B( 12-C , 15-H ) :   0.9734
B( 16-S , 17-C ) :   1.1346 B( 16-S , 20-C ) :   1.1199 B( 17-C , 18-C ) :   1.6394
B( 17-C , 33-H ) :   0.9765 B( 18-C , 19-C ) :   1.2075 B( 18-C , 21-H ) :   0.9964
B( 19-C , 20-C ) :   1.6501 B( 19-C , 22-C ) :   1.0590 B( 22-C , 23-H ) :   0.9200
B( 22-C , 24-H ) :   0.9380 B( 22-C , 25-C ) :   1.0572 B( 25-C , 26-H ) :   0.9610
B( 25-C , 27-H ) :   0.9541 B( 25-C , 28-C ) :   1.0730 B( 28-C , 29-H ) :   0.9762
B( 28-C , 30-H ) :   0.9739 B( 28-C , 31-H ) :   0.9765

Dispersion correction           -0.014496631
FINAL SINGLE POINT ENERGY     -1339.870127595916

DIPOLE MOMENT
-------------
                                X             Y             Z
Electronic contribution:      3.20209     -20.30141       7.94928
Nuclear contribution   :     -3.43330      20.79342      -8.18865
                        -----------------------------------------
Total Dipole Moment    :     -0.23121       0.49201      -0.23937
                        -----------------------------------------
Magnitude (a.u.)       :      0.59399
Magnitude (Debye)      :      1.50981

Rotational constants in cm-1:     0.018131     0.008517     0.007302
Rotational constants in MHz :   543.555651   255.325519   218.908296

                             ****ORCA TERMINATED NORMALLY****
TOTAL RUN TIME: 0 days 0 hours 0 minutes 34 seconds 781 msec
