                         Program Version 4.2.1 -  RELEASE  -
|  1> ! wB97X-D3 SP def2-SVP
|  2> %pal
|  3> nprocs 16
|  4> end
|  5>
|  6> * xyz 0 1
|  7> S 	 -35.4855 	 55.9208 	 100.44
|  8> C 	 -34.6713 	 55.1417 	 99.1005
|  9> C 	 -33.5064 	 54.4596 	 99.4512
| 10> C 	 -33.1732 	 54.7145 	 100.841
| 11> C 	 -34.1214 	 55.5008 	 101.532
| 12> H 	 -32.3332 	 54.3373 	 101.391
| 13> C 	 -32.693 	 53.6027 	 98.5327
| 14> H 	 -33.1555 	 53.6405 	 97.5298
| 15> H 	 -32.8298 	 52.5254 	 98.8336
| 16> C 	 -31.1268 	 53.8595 	 98.594
| 17> H 	 -30.6576 	 53.7943 	 99.6315
| 18> H 	 -30.5465 	 53.0701 	 98.092
| 19> C 	 -30.7138 	 55.1391 	 97.8616
| 20> H 	 -31.3433 	 55.3481 	 96.9973
| 21> H 	 -30.8768 	 55.9167 	 98.6426
| 22> H 	 -29.6429 	 55.1637 	 97.5176
| 23> S 	 -35.5625 	 54.9786 	 103.824
| 24> C 	 -34.8408 	 55.1781 	 105.398
| 25> C 	 -33.6646 	 55.9098 	 105.257
| 26> C 	 -33.2829 	 56.2073 	 103.879
| 27> C 	 -34.2206 	 55.6636 	 103.03
| 28> H 	 -33.1347 	 56.0572 	 106.2
| 29> C 	 -32.1225 	 57.0606 	 103.449
| 30> H 	 -32.0207 	 57.0443 	 102.329
| 31> H 	 -31.2538 	 56.507 	 103.781
| 32> C 	 -32.2168 	 58.5345 	 103.897
| 33> H 	 -32.1412 	 58.5457 	 104.99
| 34> H 	 -33.219 	 58.9485 	 103.613
| 35> C 	 -31.1794 	 59.4032 	 103.223
| 36> H 	 -31.177 	 59.2381 	 102.133
| 37> H 	 -30.268 	 59.0718 	 103.556
| 38> H 	 -31.1795 	 60.4338 	 103.419
| 39> H 	 -35.1394 	 55.0422 	 98.1605
| 40> H 	 -35.2708 	 54.8709 	 106.374
| 41> *
| 42>
| 43>                          ****END OF INPUT****

CARTESIAN COORDINATES (ANGSTROEM)
---------------------------------
  S    -35.485500   55.920800  100.440000
  C    -34.671300   55.141700   99.100500
  C    -33.506400   54.459600   99.451200
  C    -33.173200   54.714500  100.841000
  C    -34.121400   55.500800  101.532000
  H    -32.333200   54.337300  101.391000
  C    -32.693000   53.602700   98.532700
  H    -33.155500   53.640500   97.529800
  H    -32.829800   52.525400   98.833600
  C    -31.126800   53.859500   98.594000
  H    -30.657600   53.794300   99.631500
  H    -30.546500   53.070100   98.092000
  C    -30.713800   55.139100   97.861600
  H    -31.343300   55.348100   96.997300
  H    -30.876800   55.916700   98.642600
  H    -29.642900   55.163700   97.517600
  S    -35.562500   54.978600  103.824000
  C    -34.840800   55.178100  105.398000
  C    -33.664600   55.909800  105.257000
  C    -33.282900   56.207300  103.879000
  C    -34.220600   55.663600  103.030000
  H    -33.134700   56.057200  106.200000
  C    -32.122500   57.060600  103.449000
  H    -32.020700   57.044300  102.329000
  H    -31.253800   56.507000  103.781000
  C    -32.216800   58.534500  103.897000
  H    -32.141200   58.545700  104.990000
  H    -33.219000   58.948500  103.613000
  C    -31.179400   59.403200  103.223000
  H    -31.177000   59.238100  102.133000
  H    -30.268000   59.071800  103.556000
  H    -31.179500   60.433800  103.419000
  H    -35.139400   55.042200   98.160500
  H    -35.270800   54.870900  106.374000

 Total Charge           Charge          ....    0
 Multiplicity           Mult            ....    1
 Number of Electrons    NEL             ....  134
 Basis Dimension        Dim             ....  322

ORBITAL ENERGIES
----------------

  NO   OCC          E(Eh)            E(eV)
   0   2.0000     -88.967380     -2420.9255
   1   2.0000     -88.963044     -2420.8075
   2   2.0000     -10.338198      -281.3167
   3   2.0000     -10.324889      -280.9545
   4   2.0000     -10.319201      -280.7997
   5   2.0000     -10.313478      -280.6440
   6   2.0000     -10.306908      -280.4652
   7   2.0000     -10.305001      -280.4133
   8   2.0000     -10.304052      -280.3875
   9   2.0000     -10.300295      -280.2853
  10   2.0000     -10.297976      -280.2222
  11   2.0000     -10.297814      -280.2178
  12   2.0000     -10.292385      -280.0700
  13   2.0000     -10.288242      -279.9573
  14   2.0000     -10.280473      -279.7459
  15   2.0000     -10.264982      -279.3244
  16   2.0000      -8.081292      -219.9031
  17   2.0000      -8.078863      -219.8370
  18   2.0000      -6.039799      -164.3513
  19   2.0000      -6.037392      -164.2858
  20   2.0000      -6.036001      -164.2479
  21   2.0000      -6.033136      -164.1700
  22   2.0000      -6.032036      -164.1400
  23   2.0000      -6.029600      -164.0738
  24   2.0000      -1.004093       -27.3228
  25   2.0000      -0.979093       -26.6425
  26   2.0000      -0.910154       -24.7665
  27   2.0000      -0.904613       -24.6158
  28   2.0000      -0.863521       -23.4976
  29   2.0000      -0.852886       -23.2082
  30   2.0000      -0.843531       -22.9536
  31   2.0000      -0.815256       -22.1842
  32   2.0000      -0.780096       -21.2275
  33   2.0000      -0.769138       -20.9293
  34   2.0000      -0.704355       -19.1665
  35   2.0000      -0.698672       -19.0118
  36   2.0000      -0.688651       -18.7391
  37   2.0000      -0.654425       -17.8078
  38   2.0000      -0.641688       -17.4612
  39   2.0000      -0.618995       -16.8437
  40   2.0000      -0.592742       -16.1293
  41   2.0000      -0.565687       -15.3931
  42   2.0000      -0.561396       -15.2764
  43   2.0000      -0.546520       -14.8716
  44   2.0000      -0.533160       -14.5080
  45   2.0000      -0.527474       -14.3533
  46   2.0000      -0.520413       -14.1612
  47   2.0000      -0.513945       -13.9852
  48   2.0000      -0.508682       -13.8419
  49   2.0000      -0.495017       -13.4701
  50   2.0000      -0.484775       -13.1914
  51   2.0000      -0.475420       -12.9368
  52   2.0000      -0.469396       -12.7729
  53   2.0000      -0.461329       -12.5534
  54   2.0000      -0.459651       -12.5077
  55   2.0000      -0.451245       -12.2790
  56   2.0000      -0.440296       -11.9811
  57   2.0000      -0.436798       -11.8859
  58   2.0000      -0.431400       -11.7390
  59   2.0000      -0.428646       -11.6641
  60   2.0000      -0.426711       -11.6114
  61   2.0000      -0.412337       -11.2203
  62   2.0000      -0.406058       -11.0494
  63   2.0000      -0.344461        -9.3733
  64   2.0000      -0.327021        -8.8987
  65   2.0000      -0.325718        -8.8632
  66   2.0000      -0.295987        -8.0542
  67   0.0000       0.036051         0.9810
  68   0.0000       0.065914         1.7936
  69   0.0000       0.111031         3.0213
  70   0.0000       0.120788         3.2868
  71   0.0000       0.127881         3.4798

MULLIKEN ATOMIC CHARGES
-----------------------
   0 S :    0.097874
   1 C :   -0.104382
   2 C :   -0.085184
   3 C :    0.049329
   4 C :   -0.165639
   5 H :    0.010959
   6 C :    0.056858
   7 H :    0.027126
   8 H :    0.051603
   9 C :   -0.113589
  10 H :    0.044610
  11 H :    0.025981
  12 C :   -0.066286
  13 H :    0.034737
  14 H :    0.042276
  15 H :    0.044735
  16 S :    0.116556
  17 C :   -0.123927
  18 C :   -0.046429
  19 C :   -0.044067
  20 C :   -0.148592
  21 H :    0.023721
  22 C :    0.054744
  23 H :    0.027885
  24 H :    0.025931
  25 C :   -0.081353
  26 H :    0.031861
  27 H :    0.040607
  28 C :    0.016173
  29 H :    0.028961
  30 H :   -0.005074
  31 H :    0.025690
  32 H :    0.034522
  33 H :    0.071785
Sum of atomic charges:   -0.0000000

LOEWDIN ATOMIC CHARGES
----------------------
   0 S :    0.384211
   1 C :   -0.190913
   2 C :   -0.063830
   3 C :   -0.053786
   4 C :   -0.177799
   5 H :    0.028082
   6 C :   -0.034204
   7 H :    0.033790
   8 H :    0.043311
   9 C :   -0.052827
  10 H :    0.031839
  11 H :    0.022479
  12 C :   -0.073994
  13 H :    0.023919
  14 H :    0.030482
  15 H :    0.030804
  16 S :    0.424506
  17 C :   -0.199492
  18 C :   -0.074311
  19 C :   -0.060343
  20 C :   -0.214629
  21 H :    0.031725
  22 C :   -0.035800
  23 H :    0.034448
  24 H :    0.029140
  25 C :   -0.035318
  26 H :    0.023011
  27 H :    0.030904
  28 C :   -0.057834
  29 H :    0.030442
  30 H :    0.013163
  31 H :    0.021437
  32 H :    0.017447
  33 H :    0.039943

  Mayer bond orders larger than 0.100000
B(  0-S ,  1-C ) :   1.1396 B(  0-S ,  4-C ) :   1.1438 B(  1-C ,  2-C ) :   1.6160
B(  1-C , 32-H ) :   0.9677 B(  2-C ,  3-C ) :   1.2233 B(  2-C ,  6-C ) :   1.0324
B(  3-C ,  4-C ) :   1.5893 B(  3-C ,  5-H ) :   0.9906 B(  4-C , 20-C ) :   0.9990
B(  6-C ,  7-H ) :   0.9463 B(  6-C ,  8-H ) :   0.9326 B(  6-C ,  9-C ) :   1.0586
B(  9-C , 10-H ) :   0.9574 B(  9-C , 11-H ) :   0.9599 B(  9-C , 12-C ) :   1.0573
B( 12-C , 13-H ) :   0.9770 B( 12-C , 14-H ) :   0.9788 B( 12-C , 15-H ) :   0.9771
B( 16-S , 17-C ) :   1.1504 B( 16-S , 20-C ) :   1.1592 B( 17-C , 18-C ) :   1.6245
B( 17-C , 33-H ) :   0.9652 B( 18-C , 19-C ) :   1.2084 B( 18-C , 21-H ) :   0.9905
B( 19-C , 20-C ) :   1.6096 B( 19-C , 22-C ) :   1.0482 B( 22-C , 23-H ) :   0.9334
B( 22-C , 24-H ) :   0.9241 B( 22-C , 25-C ) :   1.0532 B( 25-C , 26-H ) :   0.9545
B( 25-C , 27-H ) :   0.9582 B( 25-C , 28-C ) :   1.0879 B( 28-C , 29-H ) :   0.9720
B( 28-C , 30-H ) :   0.9672 B( 28-C , 31-H ) :   0.9731

Dispersion correction           -0.014064824
FINAL SINGLE POINT ENERGY     -1339.877395994868

DIPOLE MOMENT
-------------
                                X             Y             Z
Electronic contribution:    -25.53463      -6.86359       8.52896
Nuclear contribution   :     26.14861       6.68333      -8.53428
                        -----------------------------------------
Total Dipole Moment    :      0.61398      -0.18026      -0.00532
                        -----------------------------------------
Magnitude (a.u.)       :      0.63992
Magnitude (Debye)      :      1.62655

Rotational constants in cm-1:     0.016805     0.008920     0.006964
Rotational constants in MHz :   503.805180   267.402959   208.789877

                             ****ORCA TERMINATED NORMALLY****
TOTAL RUN TIME: 0 days 0 hours 0 minutes 29 seconds 541 msec
