                         Program Version 4.2.1 -  RELEASE  -
|  1> ! wB97X-D3 SP def2-SVP
|  2> %pal
|  3> nprocs 16
|  4> end
|  5>
|  6> * xyz 0 1
|  7> S 	 -52.5931 	 37.0008 	 111.65
|  8> C 	 -51.469 	 38.2831 	 111.176
|  9> C 	 -51.0151 	 38.1293 	 109.857
| 10> C 	 -51.6435 	 37.0108 	 109.152
| 11> C 	 -52.5234 	 36.2941 	 109.965
| 12> H 	 -51.3603 	 36.6475 	 108.126
| 13> C 	 -49.9067 	 39.0514 	 109.363
| 14> H 	 -49.2523 	 39.2828 	 110.202
| 15> H 	 -50.4386 	 40.0046 	 109.119
| 16> C 	 -49.0131 	 38.5899 	 108.205
| 17> H 	 -48.2792 	 37.901 	 108.694
| 18> H 	 -49.4508 	 38.0027 	 107.429
| 19> C 	 -48.2839 	 39.7234 	 107.507
| 20> H 	 -47.7414 	 39.3064 	 106.691
| 21> H 	 -48.9714 	 40.4363 	 107.068
| 22> H 	 -47.5993 	 40.3122 	 108.064
| 23> S 	 -52.8778 	 33.5634 	 109.99
| 24> C 	 -54.1909 	 32.9033 	 109.091
| 25> C 	 -54.8599 	 33.8333 	 108.271
| 26> C 	 -54.3292 	 35.1571 	 108.494
| 27> C 	 -53.3406 	 35.1902 	 109.492
| 28> H 	 -55.6255 	 33.4792 	 107.577
| 29> C 	 -54.9002 	 36.3912 	 107.884
| 30> H 	 -54.1583 	 37.2896 	 107.923
| 31> H 	 -55.7561 	 36.691 	 108.539
| 32> C 	 -55.3007 	 36.2194 	 106.408
| 33> H 	 -55.6607 	 37.1598 	 106.043
| 34> H 	 -56.1463 	 35.5581 	 106.096
| 35> C 	 -54.0815 	 35.8911 	 105.514
| 36> H 	 -53.2691 	 36.5855 	 105.789
| 37> H 	 -54.2707 	 36.0332 	 104.471
| 38> H 	 -53.7419 	 34.8201 	 105.577
| 39> H 	 -51.0233 	 38.9983 	 111.872
| 40> H 	 -54.3603 	 31.8089 	 109.073
| 41> *
| 42>
| 43>                          ****END OF INPUT****

CARTESIAN COORDINATES (ANGSTROEM)
---------------------------------
  S    -52.593100   37.000800  111.650000
  C    -51.469000   38.283100  111.176000
  C    -51.015100   38.129300  109.857000
  C    -51.643500   37.010800  109.152000
  C    -52.523400   36.294100  109.965000
  H    -51.360300   36.647500  108.126000
  C    -49.906700   39.051400  109.363000
  H    -49.252300   39.282800  110.202000
  H    -50.438600   40.004600  109.119000
  C    -49.013100   38.589900  108.205000
  H    -48.279200   37.901000  108.694000
  H    -49.450800   38.002700  107.429000
  C    -48.283900   39.723400  107.507000
  H    -47.741400   39.306400  106.691000
  H    -48.971400   40.436300  107.068000
  H    -47.599300   40.312200  108.064000
  S    -52.877800   33.563400  109.990000
  C    -54.190900   32.903300  109.091000
  C    -54.859900   33.833300  108.271000
  C    -54.329200   35.157100  108.494000
  C    -53.340600   35.190200  109.492000
  H    -55.625500   33.479200  107.577000
  C    -54.900200   36.391200  107.884000
  H    -54.158300   37.289600  107.923000
  H    -55.756100   36.691000  108.539000
  C    -55.300700   36.219400  106.408000
  H    -55.660700   37.159800  106.043000
  H    -56.146300   35.558100  106.096000
  C    -54.081500   35.891100  105.514000
  H    -53.269100   36.585500  105.789000
  H    -54.270700   36.033200  104.471000
  H    -53.741900   34.820100  105.577000
  H    -51.023300   38.998300  111.872000
  H    -54.360300   31.808900  109.073000

 Total Charge           Charge          ....    0
 Multiplicity           Mult            ....    1
 Number of Electrons    NEL             ....  134
 Basis Dimension        Dim             ....  322

ORBITAL ENERGIES
----------------

  NO   OCC          E(Eh)            E(eV)
   0   2.0000     -88.966453     -2420.9003
   1   2.0000     -88.964667     -2420.8517
   2   2.0000     -10.334174      -281.2072
   3   2.0000     -10.322587      -280.8919
   4   2.0000     -10.320583      -280.8373
   5   2.0000     -10.316513      -280.7266
   6   2.0000     -10.307215      -280.4736
   7   2.0000     -10.306645      -280.4581
   8   2.0000     -10.305787      -280.4347
   9   2.0000     -10.299579      -280.2658
  10   2.0000     -10.299273      -280.2575
  11   2.0000     -10.295292      -280.1491
  12   2.0000     -10.288519      -279.9648
  13   2.0000     -10.288331      -279.9597
  14   2.0000     -10.278129      -279.6821
  15   2.0000     -10.272173      -279.5200
  16   2.0000      -8.079788      -219.8622
  17   2.0000      -8.079466      -219.8535
  18   2.0000      -6.038103      -164.3051
  19   2.0000      -6.038068      -164.3042
  20   2.0000      -6.034316      -164.2021
  21   2.0000      -6.034262      -164.2006
  22   2.0000      -6.030723      -164.1043
  23   2.0000      -6.030125      -164.0881
  24   2.0000      -0.997542       -27.1445
  25   2.0000      -0.971683       -26.4408
  26   2.0000      -0.909101       -24.7379
  27   2.0000      -0.907983       -24.7075
  28   2.0000      -0.867395       -23.6030
  29   2.0000      -0.846964       -23.0471
  30   2.0000      -0.843114       -22.9423
  31   2.0000      -0.811650       -22.0861
  32   2.0000      -0.779864       -21.2212
  33   2.0000      -0.765500       -20.8303
  34   2.0000      -0.711451       -19.3596
  35   2.0000      -0.697480       -18.9794
  36   2.0000      -0.686200       -18.6725
  37   2.0000      -0.651733       -17.7345
  38   2.0000      -0.635452       -17.2915
  39   2.0000      -0.613474       -16.6935
  40   2.0000      -0.593722       -16.1560
  41   2.0000      -0.567062       -15.4305
  42   2.0000      -0.561331       -15.2746
  43   2.0000      -0.557257       -15.1637
  44   2.0000      -0.534786       -14.5523
  45   2.0000      -0.524928       -14.2840
  46   2.0000      -0.510022       -13.8784
  47   2.0000      -0.504937       -13.7400
  48   2.0000      -0.496748       -13.5172
  49   2.0000      -0.495267       -13.4769
  50   2.0000      -0.482710       -13.1352
  51   2.0000      -0.482235       -13.1223
  52   2.0000      -0.472142       -12.8476
  53   2.0000      -0.462211       -12.5774
  54   2.0000      -0.452972       -12.3260
  55   2.0000      -0.449055       -12.2194
  56   2.0000      -0.446817       -12.1585
  57   2.0000      -0.437638       -11.9087
  58   2.0000      -0.434567       -11.8252
  59   2.0000      -0.424557       -11.5528
  60   2.0000      -0.420940       -11.4544
  61   2.0000      -0.415886       -11.3168
  62   2.0000      -0.412670       -11.2293
  63   2.0000      -0.335564        -9.1312
  64   2.0000      -0.328523        -8.9396
  65   2.0000      -0.321055        -8.7363
  66   2.0000      -0.295985        -8.0542
  67   0.0000       0.032308         0.8792
  68   0.0000       0.057624         1.5680
  69   0.0000       0.111196         3.0258
  70   0.0000       0.117724         3.2034
  71   0.0000       0.124551         3.3892

MULLIKEN ATOMIC CHARGES
-----------------------
   0 S :    0.104260
   1 C :   -0.132453
   2 C :   -0.089950
   3 C :    0.026052
   4 C :   -0.169028
   5 H :    0.045885
   6 C :    0.039552
   7 H :    0.033061
   8 H :    0.043928
   9 C :   -0.081396
  10 H :    0.037258
  11 H :    0.026123
  12 C :   -0.025596
  13 H :    0.022258
  14 H :    0.022946
  15 H :    0.021894
  16 S :    0.118084
  17 C :   -0.110535
  18 C :   -0.038874
  19 C :   -0.010904
  20 C :   -0.177456
  21 H :    0.031122
  22 C :    0.021116
  23 H :    0.052550
  24 H :    0.059250
  25 C :   -0.072238
  26 H :    0.016723
  27 H :    0.033088
  28 C :   -0.072602
  29 H :    0.027514
  30 H :    0.026703
  31 H :    0.046543
  32 H :    0.056223
  33 H :    0.068897
Sum of atomic charges:   -0.0000000

LOEWDIN ATOMIC CHARGES
----------------------
   0 S :    0.367337
   1 C :   -0.197523
   2 C :   -0.062809
   3 C :   -0.062029
   4 C :   -0.179858
   5 H :    0.043078
   6 C :   -0.038315
   7 H :    0.033203
   8 H :    0.036460
   9 C :   -0.043393
  10 H :    0.032234
  11 H :    0.019415
  12 C :   -0.058535
  13 H :    0.025082
  14 H :    0.024485
  15 H :    0.018857
  16 S :    0.417010
  17 C :   -0.191795
  18 C :   -0.075805
  19 C :   -0.047848
  20 C :   -0.211000
  21 H :    0.036938
  22 C :   -0.040378
  23 H :    0.044891
  24 H :    0.043722
  25 C :   -0.049907
  26 H :    0.022079
  27 H :    0.026103
  28 C :   -0.069971
  29 H :    0.024605
  30 H :    0.020731
  31 H :    0.030127
  32 H :    0.030885
  33 H :    0.031923

  Mayer bond orders larger than 0.100000
B(  0-S ,  1-C ) :   1.1296 B(  0-S ,  4-C ) :   1.1257 B(  1-C ,  2-C ) :   1.6268
B(  1-C , 32-H ) :   0.9668 B(  2-C ,  3-C ) :   1.2238 B(  2-C ,  6-C ) :   1.0073
B(  3-C ,  4-C ) :   1.5924 B(  3-C ,  5-H ) :   0.9796 B(  4-C , 20-C ) :   1.0403
B(  6-C ,  7-H ) :   0.9483 B(  6-C ,  8-H ) :   0.9425 B(  6-C ,  9-C ) :   1.0560
B(  9-C , 10-H ) :   0.9548 B(  9-C , 11-H ) :   0.9587 B(  9-C , 12-C ) :   1.0912
B( 12-C , 13-H ) :   0.9727 B( 12-C , 14-H ) :   0.9734 B( 12-C , 15-H ) :   0.9763
B( 16-S , 17-C ) :   1.1858 B( 16-S , 20-C ) :   1.1434 B( 17-C , 18-C ) :   1.5842
B( 17-C , 33-H ) :   0.9620 B( 18-C , 19-C ) :   1.2333 B( 18-C , 21-H ) :   0.9931
B( 19-C , 20-C ) :   1.5794 B( 19-C , 22-C ) :   1.0439 B( 22-C , 23-H ) :   0.9344
B( 22-C , 24-H ) :   0.9345 B( 22-C , 25-C ) :   1.0687 B( 25-C , 26-H ) :   0.9542
B( 25-C , 27-H ) :   0.9523 B( 25-C , 28-C ) :   1.0737 B( 28-C , 29-H ) :   0.9743
B( 28-C , 30-H ) :   0.9748 B( 28-C , 31-H ) :   0.9729

Dispersion correction           -0.014480701
FINAL SINGLE POINT ENERGY     -1339.879680712238

DIPOLE MOMENT
-------------
                                X             Y             Z
Electronic contribution:     -7.63539     -15.29510      23.34742
Nuclear contribution   :      7.78500      15.56431     -23.99397
                        -----------------------------------------
Total Dipole Moment    :      0.14962       0.26922      -0.64654
                        -----------------------------------------
Magnitude (a.u.)       :      0.71616
Magnitude (Debye)      :      1.82033

Rotational constants in cm-1:     0.017555     0.008492     0.006839
Rotational constants in MHz :   526.285295   254.590530   205.037620

                             ****ORCA TERMINATED NORMALLY****
TOTAL RUN TIME: 0 days 0 hours 0 minutes 29 seconds 896 msec
