                         Program Version 4.2.1 -  RELEASE  -
|  1> ! wB97X-D3 SP def2-SVP
|  2> %pal
|  3> nprocs 16
|  4> end
|  5>
|  6> * xyz 0 1
|  7> S 	 -89.1412 	 47.9999 	 130.427
|  8> C 	 -90.0489 	 49.0749 	 129.391
|  9> C 	 -89.2881 	 49.4905 	 128.282
| 10> C 	 -87.9209 	 48.9925 	 128.286
| 11> C 	 -87.6607 	 48.1454 	 129.371
| 12> H 	 -87.143 	 49.2008 	 127.498
| 13> C 	 -89.7096 	 50.4664 	 127.232
| 14> H 	 -90.7351 	 50.7142 	 127.474
| 15> H 	 -89.6199 	 50.0125 	 126.28
| 16> C 	 -88.9292 	 51.7667 	 127.144
| 17> H 	 -89.0673 	 52.3416 	 128.085
| 18> H 	 -87.7969 	 51.7297 	 126.861
| 19> C 	 -89.5849 	 52.6286 	 126.158
| 20> H 	 -90.638 	 52.7443 	 126.327
| 21> H 	 -89.2277 	 53.646 	 126.163
| 22> H 	 -89.5745 	 52.2111 	 125.172
| 23> S 	 -86.4287 	 45.7564 	 129.37
| 24> C 	 -84.6488 	 45.6173 	 129.513
| 25> C 	 -84.1887 	 46.7921 	 130.048
| 26> C 	 -85.186 	 47.8668 	 130.107
| 27> C 	 -86.4508 	 47.4307 	 129.697
| 28> H 	 -83.1473 	 46.8066 	 130.344
| 29> C 	 -84.846 	 49.2339 	 130.598
| 30> H 	 -85.739 	 49.8914 	 130.592
| 31> H 	 -83.9707 	 49.6896 	 130.056
| 32> C 	 -84.4328 	 49.1572 	 132.086
| 33> H 	 -84.0907 	 50.1104 	 132.326
| 34> H 	 -83.6167 	 48.4762 	 132.194
| 35> C 	 -85.5834 	 48.7497 	 133.07
| 36> H 	 -86.4825 	 49.3664 	 132.895
| 37> H 	 -85.365 	 48.8122 	 134.146
| 38> H 	 -85.8868 	 47.6838 	 132.974
| 39> H 	 -91.0349 	 49.4396 	 129.598
| 40> H 	 -84.0817 	 44.7733 	 129.212
| 41> *
| 42>
| 43>                          ****END OF INPUT****

CARTESIAN COORDINATES (ANGSTROEM)
---------------------------------
  S    -89.141200   47.999900  130.427000
  C    -90.048900   49.074900  129.391000
  C    -89.288100   49.490500  128.282000
  C    -87.920900   48.992500  128.286000
  C    -87.660700   48.145400  129.371000
  H    -87.143000   49.200800  127.498000
  C    -89.709600   50.466400  127.232000
  H    -90.735100   50.714200  127.474000
  H    -89.619900   50.012500  126.280000
  C    -88.929200   51.766700  127.144000
  H    -89.067300   52.341600  128.085000
  H    -87.796900   51.729700  126.861000
  C    -89.584900   52.628600  126.158000
  H    -90.638000   52.744300  126.327000
  H    -89.227700   53.646000  126.163000
  H    -89.574500   52.211100  125.172000
  S    -86.428700   45.756400  129.370000
  C    -84.648800   45.617300  129.513000
  C    -84.188700   46.792100  130.048000
  C    -85.186000   47.866800  130.107000
  C    -86.450800   47.430700  129.697000
  H    -83.147300   46.806600  130.344000
  C    -84.846000   49.233900  130.598000
  H    -85.739000   49.891400  130.592000
  H    -83.970700   49.689600  130.056000
  C    -84.432800   49.157200  132.086000
  H    -84.090700   50.110400  132.326000
  H    -83.616700   48.476200  132.194000
  C    -85.583400   48.749700  133.070000
  H    -86.482500   49.366400  132.895000
  H    -85.365000   48.812200  134.146000
  H    -85.886800   47.683800  132.974000
  H    -91.034900   49.439600  129.598000
  H    -84.081700   44.773300  129.212000

 Total Charge           Charge          ....    0
 Multiplicity           Mult            ....    1
 Number of Electrons    NEL             ....  134
 Basis Dimension        Dim             ....  322

ORBITAL ENERGIES
----------------

  NO   OCC          E(Eh)            E(eV)
   0   2.0000     -88.965752     -2420.8812
   1   2.0000     -88.958390     -2420.6808
   2   2.0000     -10.336162      -281.2613
   3   2.0000     -10.322767      -280.8968
   4   2.0000     -10.319023      -280.7949
   5   2.0000     -10.317622      -280.7568
   6   2.0000     -10.307275      -280.4752
   7   2.0000     -10.304511      -280.4000
   8   2.0000     -10.303357      -280.3686
   9   2.0000     -10.297801      -280.2174
  10   2.0000     -10.293922      -280.1119
  11   2.0000     -10.290805      -280.0270
  12   2.0000     -10.287374      -279.9337
  13   2.0000     -10.279671      -279.7241
  14   2.0000     -10.276687      -279.6429
  15   2.0000     -10.267047      -279.3806
  16   2.0000      -8.079343      -219.8501
  17   2.0000      -8.073795      -219.6991
  18   2.0000      -6.037931      -164.3005
  19   2.0000      -6.034003      -164.1936
  20   2.0000      -6.032399      -164.1499
  21   2.0000      -6.030089      -164.0871
  22   2.0000      -6.028162      -164.0346
  23   2.0000      -6.024424      -163.9329
  24   2.0000      -1.001716       -27.2581
  25   2.0000      -0.975694       -26.5500
  26   2.0000      -0.922516       -25.1029
  27   2.0000      -0.906704       -24.6727
  28   2.0000      -0.874087       -23.7851
  29   2.0000      -0.850267       -23.1369
  30   2.0000      -0.835482       -22.7346
  31   2.0000      -0.816630       -22.2216
  32   2.0000      -0.777078       -21.1454
  33   2.0000      -0.766924       -20.8691
  34   2.0000      -0.709281       -19.3005
  35   2.0000      -0.697019       -18.9669
  36   2.0000      -0.692888       -18.8544
  37   2.0000      -0.656149       -17.8547
  38   2.0000      -0.641042       -17.4436
  39   2.0000      -0.617884       -16.8135
  40   2.0000      -0.599251       -16.3065
  41   2.0000      -0.581780       -15.8310
  42   2.0000      -0.564051       -15.3486
  43   2.0000      -0.551642       -15.0109
  44   2.0000      -0.536144       -14.5892
  45   2.0000      -0.527797       -14.3621
  46   2.0000      -0.519398       -14.1335
  47   2.0000      -0.511209       -13.9107
  48   2.0000      -0.506907       -13.7937
  49   2.0000      -0.501357       -13.6426
  50   2.0000      -0.487563       -13.2673
  51   2.0000      -0.471357       -12.8263
  52   2.0000      -0.467982       -12.7344
  53   2.0000      -0.461292       -12.5524
  54   2.0000      -0.458778       -12.4840
  55   2.0000      -0.442032       -12.0283
  56   2.0000      -0.437094       -11.8939
  57   2.0000      -0.434739       -11.8299
  58   2.0000      -0.432971       -11.7817
  59   2.0000      -0.423472       -11.5233
  60   2.0000      -0.421892       -11.4803
  61   2.0000      -0.417143       -11.3510
  62   2.0000      -0.410833       -11.1793
  63   2.0000      -0.343257        -9.3405
  64   2.0000      -0.327070        -8.9000
  65   2.0000      -0.316505        -8.6125
  66   2.0000      -0.299612        -8.1529
  67   0.0000       0.041672         1.1340
  68   0.0000       0.051458         1.4002
  69   0.0000       0.112159         3.0520
  70   0.0000       0.116508         3.1704
  71   0.0000       0.123612         3.3636

MULLIKEN ATOMIC CHARGES
-----------------------
   0 S :    0.100178
   1 C :   -0.105861
   2 C :   -0.092389
   3 C :    0.039802
   4 C :   -0.173832
   5 H :    0.042830
   6 C :    0.083261
   7 H :    0.009345
   8 H :    0.024539
   9 C :   -0.100061
  10 H :    0.030193
  11 H :    0.050312
  12 C :   -0.013606
  13 H :    0.005747
  14 H :    0.029893
  15 H :    0.012020
  16 S :    0.097275
  17 C :   -0.096784
  18 C :   -0.032407
  19 C :   -0.019750
  20 C :   -0.162381
  21 H :    0.026305
  22 C :    0.050154
  23 H :    0.037310
  24 H :    0.042651
  25 C :   -0.038937
  26 H :    0.012098
  27 H :    0.019398
  28 C :   -0.085417
  29 H :    0.033778
  30 H :    0.035314
  31 H :    0.042921
  32 H :    0.042899
  33 H :    0.053202
Sum of atomic charges:    0.0000000

LOEWDIN ATOMIC CHARGES
----------------------
   0 S :    0.376423
   1 C :   -0.198262
   2 C :   -0.061781
   3 C :   -0.054503
   4 C :   -0.176064
   5 H :    0.045410
   6 C :   -0.029828
   7 H :    0.030705
   8 H :    0.028912
   9 C :   -0.048713
  10 H :    0.029441
  11 H :    0.035579
  12 C :   -0.066482
  13 H :    0.020248
  14 H :    0.025691
  15 H :    0.018838
  16 S :    0.403927
  17 C :   -0.164288
  18 C :   -0.070762
  19 C :   -0.052134
  20 C :   -0.224724
  21 H :    0.031903
  22 C :   -0.033095
  23 H :    0.034820
  24 H :    0.038323
  25 C :   -0.028882
  26 H :    0.014023
  27 H :    0.016259
  28 C :   -0.074791
  29 H :    0.025583
  30 H :    0.027054
  31 H :    0.029616
  32 H :    0.025347
  33 H :    0.026205

  Mayer bond orders larger than 0.100000
B(  0-S ,  1-C ) :   1.1300 B(  0-S ,  4-C ) :   1.1321 B(  1-C ,  2-C ) :   1.6220
B(  1-C , 32-H ) :   0.9668 B(  2-C ,  3-C ) :   1.2099 B(  2-C ,  6-C ) :   1.0406
B(  3-C ,  4-C ) :   1.6096 B(  3-C ,  5-H ) :   0.9827 B(  4-C , 20-C ) :   1.0201
B(  6-C ,  7-H ) :   0.9382 B(  6-C ,  8-H ) :   0.9298 B(  6-C ,  9-C ) :   1.0749
B(  9-C , 10-H ) :   0.9508 B(  9-C , 11-H ) :   0.9462 B(  9-C , 12-C ) :   1.0982
B( 12-C , 13-H ) :   0.9649 B( 12-C , 14-H ) :   0.9699 B( 12-C , 15-H ) :   0.9671
B( 16-S , 17-C ) :   1.1436 B( 16-S , 20-C ) :   1.1484 B( 17-C , 18-C ) :   1.6248
B( 17-C , 33-H ) :   0.9769 B( 18-C , 19-C ) :   1.1988 B( 18-C , 21-H ) :   0.9890
B( 19-C , 20-C ) :   1.5936 B( 19-C , 22-C ) :   1.0646 B( 22-C , 23-H ) :   0.9359
B( 22-C , 24-H ) :   0.9319 B( 22-C , 25-C ) :   1.0715 B( 25-C , 26-H ) :   0.9557
B( 25-C , 27-H ) :   0.9582 B( 25-C , 28-C ) :   1.0617 B( 28-C , 29-H ) :   0.9759
B( 28-C , 30-H ) :   0.9771 B( 28-C , 31-H ) :   0.9753

Dispersion correction           -0.014522990
FINAL SINGLE POINT ENERGY     -1339.873732231166

DIPOLE MOMENT
-------------
                                X             Y             Z
Electronic contribution:     -2.43845     -22.79520       2.31786
Nuclear contribution   :      2.75449      23.36236      -2.55199
                        -----------------------------------------
Total Dipole Moment    :      0.31604       0.56716      -0.23413
                        -----------------------------------------
Magnitude (a.u.)       :      0.69020
Magnitude (Debye)      :      1.75434

Rotational constants in cm-1:     0.020444     0.007659     0.007204
Rotational constants in MHz :   612.888826   229.617690   215.955643

                             ****ORCA TERMINATED NORMALLY****
TOTAL RUN TIME: 0 days 0 hours 0 minutes 34 seconds 211 msec
