                         Program Version 4.2.1 -  RELEASE  -
|  1> ! wB97X-D3 SP def2-SVP
|  2> %pal
|  3> nprocs 16
|  4> end
|  5>
|  6> * xyz 0 1
|  7> S 	 45.7235 	 6.32683 	 86.8068
|  8> C 	 47.1293 	 7.28758 	 87.068
|  9> C 	 48.2971 	 6.54125 	 87.2646
| 10> C 	 48.0335 	 5.12409 	 87.1055
| 11> C 	 46.7064 	 4.87256 	 86.7883
| 12> H 	 48.7118 	 4.33695 	 87.2039
| 13> C 	 49.7028 	 7.13699 	 87.5342
| 14> H 	 50.1324 	 6.83892 	 88.5243
| 15> H 	 49.4073 	 8.19362 	 87.7908
| 16> C 	 50.7697 	 7.06924 	 86.3927
| 17> H 	 51.5654 	 7.7796 	 86.6723
| 18> H 	 51.0826 	 6.0258 	 86.2212
| 19> C 	 50.3578 	 7.42804 	 84.9669
| 20> H 	 51.0543 	 7.40937 	 84.2158
| 21> H 	 49.5376 	 6.69664 	 84.7236
| 22> H 	 49.809 	 8.35182 	 84.8761
| 23> S 	 45.2774 	 3.16531 	 88.3804
| 24> C 	 45.0506 	 1.56214 	 87.8003
| 25> C 	 45.3615 	 1.38541 	 86.4847
| 26> C 	 45.903 	 2.53905 	 85.9678
| 27> C 	 46.0457 	 3.56274 	 86.8721
| 28> H 	 45.2533 	 0.445763 	 85.9201
| 29> C 	 46.3897 	 2.62766 	 84.587
| 30> H 	 47.2138 	 1.90884 	 84.4606
| 31> H 	 46.7181 	 3.67553 	 84.3834
| 32> C 	 45.2344 	 2.43964 	 83.6926
| 33> H 	 44.5355 	 3.31129 	 83.9844
| 34> H 	 44.8006 	 1.50897 	 84.0008
| 35> C 	 45.5523 	 2.27728 	 82.2734
| 36> H 	 45.9215 	 3.16877 	 81.7402
| 37> H 	 44.6888 	 1.91211 	 81.7751
| 38> H 	 46.2763 	 1.46701 	 82.2201
| 39> H 	 47.1435 	 8.35913 	 87.1676
| 40> H 	 44.4659 	 0.833973 	 88.3021
| 41> *
| 42>
| 43>                          ****END OF INPUT****

CARTESIAN COORDINATES (ANGSTROEM)
---------------------------------
  S     45.723500    6.326830   86.806800
  C     47.129300    7.287580   87.068000
  C     48.297100    6.541250   87.264600
  C     48.033500    5.124090   87.105500
  C     46.706400    4.872560   86.788300
  H     48.711800    4.336950   87.203900
  C     49.702800    7.136990   87.534200
  H     50.132400    6.838920   88.524300
  H     49.407300    8.193620   87.790800
  C     50.769700    7.069240   86.392700
  H     51.565400    7.779600   86.672300
  H     51.082600    6.025800   86.221200
  C     50.357800    7.428040   84.966900
  H     51.054300    7.409370   84.215800
  H     49.537600    6.696640   84.723600
  H     49.809000    8.351820   84.876100
  S     45.277400    3.165310   88.380400
  C     45.050600    1.562140   87.800300
  C     45.361500    1.385410   86.484700
  C     45.903000    2.539050   85.967800
  C     46.045700    3.562740   86.872100
  H     45.253300    0.445763   85.920100
  C     46.389700    2.627660   84.587000
  H     47.213800    1.908840   84.460600
  H     46.718100    3.675530   84.383400
  C     45.234400    2.439640   83.692600
  H     44.535500    3.311290   83.984400
  H     44.800600    1.508970   84.000800
  C     45.552300    2.277280   82.273400
  H     45.921500    3.168770   81.740200
  H     44.688800    1.912110   81.775100
  H     46.276300    1.467010   82.220100
  H     47.143500    8.359130   87.167600
  H     44.465900    0.833973   88.302100

 Total Charge           Charge          ....    0
 Multiplicity           Mult            ....    1
 Number of Electrons    NEL             ....  134
 Basis Dimension        Dim             ....  322

ORBITAL ENERGIES
----------------

  NO   OCC          E(Eh)            E(eV)
   0   2.0000     -88.969015     -2420.9700
   1   2.0000     -88.963482     -2420.8194
   2   2.0000     -10.327099      -281.0147
   3   2.0000     -10.316263      -280.7198
   4   2.0000     -10.314970      -280.6846
   5   2.0000     -10.308560      -280.5102
   6   2.0000     -10.306589      -280.4566
   7   2.0000     -10.305116      -280.4165
   8   2.0000     -10.293669      -280.1050
   9   2.0000     -10.293578      -280.1025
  10   2.0000     -10.287298      -279.9316
  11   2.0000     -10.286392      -279.9069
  12   2.0000     -10.278317      -279.6872
  13   2.0000     -10.277110      -279.6544
  14   2.0000     -10.269672      -279.4520
  15   2.0000     -10.267894      -279.4036
  16   2.0000      -8.084008      -219.9770
  17   2.0000      -8.079175      -219.8455
  18   2.0000      -6.042394      -164.4219
  19   2.0000      -6.038524      -164.3166
  20   2.0000      -6.037412      -164.2863
  21   2.0000      -6.034851      -164.2166
  22   2.0000      -6.033682      -164.1848
  23   2.0000      -6.030036      -164.0856
  24   2.0000      -1.013486       -27.5784
  25   2.0000      -0.988164       -26.8893
  26   2.0000      -0.928497       -25.2657
  27   2.0000      -0.903643       -24.5894
  28   2.0000      -0.868871       -23.6432
  29   2.0000      -0.859388       -23.3851
  30   2.0000      -0.848629       -23.0924
  31   2.0000      -0.816704       -22.2237
  32   2.0000      -0.785241       -21.3675
  33   2.0000      -0.771460       -20.9925
  34   2.0000      -0.703498       -19.1432
  35   2.0000      -0.692579       -18.8460
  36   2.0000      -0.689153       -18.7528
  37   2.0000      -0.660740       -17.9797
  38   2.0000      -0.645775       -17.5724
  39   2.0000      -0.616365       -16.7721
  40   2.0000      -0.603276       -16.4160
  41   2.0000      -0.577172       -15.7056
  42   2.0000      -0.566550       -15.4166
  43   2.0000      -0.548473       -14.9247
  44   2.0000      -0.545396       -14.8410
  45   2.0000      -0.525618       -14.3028
  46   2.0000      -0.517511       -14.0822
  47   2.0000      -0.514524       -14.0009
  48   2.0000      -0.506582       -13.7848
  49   2.0000      -0.495405       -13.4807
  50   2.0000      -0.488828       -13.3017
  51   2.0000      -0.479478       -13.0473
  52   2.0000      -0.469262       -12.7693
  53   2.0000      -0.467943       -12.7334
  54   2.0000      -0.456938       -12.4339
  55   2.0000      -0.454379       -12.3643
  56   2.0000      -0.446280       -12.1439
  57   2.0000      -0.443947       -12.0804
  58   2.0000      -0.425834       -11.5875
  59   2.0000      -0.421290       -11.4639
  60   2.0000      -0.412094       -11.2136
  61   2.0000      -0.409866       -11.1530
  62   2.0000      -0.408680       -11.1207
  63   2.0000      -0.342766        -9.3271
  64   2.0000      -0.330251        -8.9866
  65   2.0000      -0.321192        -8.7401
  66   2.0000      -0.305836        -8.3222
  67   0.0000       0.044811         1.2194
  68   0.0000       0.055809         1.5187
  69   0.0000       0.118268         3.2182
  70   0.0000       0.123909         3.3717
  71   0.0000       0.129025         3.5110

MULLIKEN ATOMIC CHARGES
-----------------------
   0 S :    0.120899
   1 C :   -0.101554
   2 C :   -0.122400
   3 C :    0.078992
   4 C :   -0.183901
   5 H :   -0.005732
   6 C :    0.050992
   7 H :    0.047607
   8 H :    0.013388
   9 C :   -0.070321
  10 H :    0.042249
  11 H :    0.040746
  12 C :   -0.039252
  13 H :    0.023953
  14 H :    0.032445
  15 H :    0.012903
  16 S :    0.127368
  17 C :   -0.064488
  18 C :   -0.056941
  19 C :   -0.032443
  20 C :   -0.188370
  21 H :    0.029803
  22 C :    0.094630
  23 H :    0.027895
  24 H :    0.026570
  25 C :   -0.137371
  26 H :    0.043416
  27 H :    0.005402
  28 C :    0.034577
  29 H :    0.035938
  30 H :    0.021061
  31 H :    0.011329
  32 H :    0.042230
  33 H :    0.038379
Sum of atomic charges:   -0.0000000

LOEWDIN ATOMIC CHARGES
----------------------
   0 S :    0.417274
   1 C :   -0.203528
   2 C :   -0.066014
   3 C :   -0.042902
   4 C :   -0.199797
   5 H :    0.023717
   6 C :   -0.039882
   7 H :    0.039146
   8 H :    0.032208
   9 C :   -0.041877
  10 H :    0.029169
  11 H :    0.029947
  12 C :   -0.066589
  13 H :    0.013757
  14 H :    0.033291
  15 H :    0.019121
  16 S :    0.425407
  17 C :   -0.181642
  18 C :   -0.075868
  19 C :   -0.060256
  20 C :   -0.214946
  21 H :    0.038467
  22 C :   -0.034686
  23 H :    0.028434
  24 H :    0.033334
  25 C :   -0.048923
  26 H :    0.036871
  27 H :    0.015796
  28 C :   -0.059882
  29 H :    0.027314
  30 H :    0.023731
  31 H :    0.025976
  32 H :    0.024345
  33 H :    0.019484

  Mayer bond orders larger than 0.100000
B(  0-S ,  1-C ) :   1.1521 B(  0-S ,  4-C ) :   1.1536 B(  1-C ,  2-C ) :   1.6167
B(  1-C , 32-H ) :   0.9602 B(  2-C ,  3-C ) :   1.2253 B(  2-C ,  6-C ) :   1.0172
B(  3-C ,  4-C ) :   1.5896 B(  3-C ,  5-H ) :   1.0057 B(  4-C , 20-C ) :   0.9997
B(  6-C ,  7-H ) :   0.9456 B(  6-C ,  8-H ) :   0.9370 B(  6-C ,  9-C ) :   1.0553
B(  9-C , 10-H ) :   0.9571 B(  9-C , 11-H ) :   0.9604 B(  9-C , 12-C ) :   1.0759
B( 12-C , 13-H ) :   0.9769 B( 12-C , 14-H ) :   0.9684 B( 12-C , 15-H ) :   0.9738
B( 16-S , 17-C ) :   1.1786 B( 16-S , 20-C ) :   1.1460 B( 17-C , 18-C ) :   1.5918
B( 17-C , 33-H ) :   0.9632 B( 18-C , 19-C ) :   1.2672 B( 18-C , 21-H ) :   0.9840
B( 19-C , 20-C ) :   1.6045 B( 19-C , 22-C ) :   1.0503 B( 22-C , 23-H ) :   0.9272
B( 22-C , 24-H ) :   0.9237 B( 22-C , 25-C ) :   1.0659 B( 25-C , 26-H ) :   0.9465
B( 25-C , 27-H ) :   0.9555 B( 25-C , 28-C ) :   1.0963 B( 28-C , 29-H ) :   0.9689
B( 28-C , 30-H ) :   0.9663 B( 28-C , 31-H ) :   0.9629

Dispersion correction           -0.014313055
FINAL SINGLE POINT ENERGY     -1339.862945020368

DIPOLE MOMENT
-------------
                                X             Y             Z
Electronic contribution:    -14.90816      -1.06062      19.40600
Nuclear contribution   :     15.22511       0.91621     -19.63089
                        -----------------------------------------
Total Dipole Moment    :      0.31695      -0.14441      -0.22489
                        -----------------------------------------
Magnitude (a.u.)       :      0.41459
Magnitude (Debye)      :      1.05380

Rotational constants in cm-1:     0.018841     0.008479     0.006936
Rotational constants in MHz :   564.829493   254.189843   207.948888

                             ****ORCA TERMINATED NORMALLY****
TOTAL RUN TIME: 0 days 0 hours 0 minutes 30 seconds 333 msec
