                         Program Version 4.2.1 -  RELEASE  -
|  1> ! wB97X-D3 SP def2-SVP
|  2> %pal
|  3> nprocs 16
|  4> end
|  5>
|  6> * xyz 0 1
|  7> S 	 -22.562 	 33.3514 	 41.1385
|  8> C 	 -21.501 	 32.0488 	 40.7909
|  9> C 	 -22.2754 	 30.8743 	 40.6907
| 10> C 	 -23.6593 	 31.1523 	 40.8046
| 11> C 	 -24.0369 	 32.4336 	 41.0442
| 12> H 	 -24.4594 	 30.4261 	 40.6121
| 13> C 	 -21.7735 	 29.4872 	 40.668
| 14> H 	 -20.7497 	 29.372 	 40.6989
| 15> H 	 -21.9709 	 29.0672 	 39.756
| 16> C 	 -22.3155 	 28.4756 	 41.6715
| 17> H 	 -22.0349 	 28.8635 	 42.6189
| 18> H 	 -23.3809 	 28.5365 	 41.6711
| 19> C 	 -21.9681 	 26.9975 	 41.3436
| 20> H 	 -22.6293 	 26.5775 	 40.5448
| 21> H 	 -20.9292 	 26.935 	 40.9932
| 22> H 	 -21.92 	 26.3638 	 42.1991
| 23> S 	 -25.7856 	 34.1054 	 39.7929
| 24> C 	 -27.4136 	 34.3491 	 40.4824
| 25> C 	 -27.5816 	 33.4753 	 41.5209
| 26> C 	 -26.4451 	 32.7302 	 41.8998
| 27> C 	 -25.3358 	 33.0583 	 41.1435
| 28> H 	 -28.5937 	 33.3714 	 41.9369
| 29> C 	 -26.4795 	 31.7572 	 43.0739
| 30> H 	 -25.4776 	 31.3334 	 43.1353
| 31> H 	 -27.2371 	 31.0086 	 42.8993
| 32> C 	 -26.7964 	 32.2559 	 44.5662
| 33> H 	 -26.0546 	 32.9236 	 44.9696
| 34> H 	 -26.7297 	 31.3628 	 45.2126
| 35> C 	 -28.1737 	 32.871 	 44.8201
| 36> H 	 -29.0611 	 32.326 	 44.669
| 37> H 	 -28.2224 	 33.8289 	 44.2869
| 38> H 	 -28.2288 	 33.1699 	 45.8655
| 39> H 	 -20.4569 	 32.0243 	 41.031
| 40> H 	 -28.1604 	 35.0207 	 40.0755
| 41> *
| 42>
| 43>                          ****END OF INPUT****

CARTESIAN COORDINATES (ANGSTROEM)
---------------------------------
  S    -22.562000   33.351400   41.138500
  C    -21.501000   32.048800   40.790900
  C    -22.275400   30.874300   40.690700
  C    -23.659300   31.152300   40.804600
  C    -24.036900   32.433600   41.044200
  H    -24.459400   30.426100   40.612100
  C    -21.773500   29.487200   40.668000
  H    -20.749700   29.372000   40.698900
  H    -21.970900   29.067200   39.756000
  C    -22.315500   28.475600   41.671500
  H    -22.034900   28.863500   42.618900
  H    -23.380900   28.536500   41.671100
  C    -21.968100   26.997500   41.343600
  H    -22.629300   26.577500   40.544800
  H    -20.929200   26.935000   40.993200
  H    -21.920000   26.363800   42.199100
  S    -25.785600   34.105400   39.792900
  C    -27.413600   34.349100   40.482400
  C    -27.581600   33.475300   41.520900
  C    -26.445100   32.730200   41.899800
  C    -25.335800   33.058300   41.143500
  H    -28.593700   33.371400   41.936900
  C    -26.479500   31.757200   43.073900
  H    -25.477600   31.333400   43.135300
  H    -27.237100   31.008600   42.899300
  C    -26.796400   32.255900   44.566200
  H    -26.054600   32.923600   44.969600
  H    -26.729700   31.362800   45.212600
  C    -28.173700   32.871000   44.820100
  H    -29.061100   32.326000   44.669000
  H    -28.222400   33.828900   44.286900
  H    -28.228800   33.169900   45.865500
  H    -20.456900   32.024300   41.031000
  H    -28.160400   35.020700   40.075500

 Total Charge           Charge          ....    0
 Multiplicity           Mult            ....    1
 Number of Electrons    NEL             ....  134
 Basis Dimension        Dim             ....  322

ORBITAL ENERGIES
----------------

  NO   OCC          E(Eh)            E(eV)
   0   2.0000     -88.963831     -2420.8289
   1   2.0000     -88.960989     -2420.7516
   2   2.0000     -10.328481      -281.0523
   3   2.0000     -10.325876      -280.9814
   4   2.0000     -10.320454      -280.8338
   5   2.0000     -10.313456      -280.6434
   6   2.0000     -10.305153      -280.4175
   7   2.0000     -10.300988      -280.3041
   8   2.0000     -10.295689      -280.1599
   9   2.0000     -10.292996      -280.0867
  10   2.0000     -10.291386      -280.0428
  11   2.0000     -10.290632      -280.0223
  12   2.0000     -10.284193      -279.8471
  13   2.0000     -10.280832      -279.7557
  14   2.0000     -10.273023      -279.5432
  15   2.0000     -10.272913      -279.5402
  16   2.0000      -8.078019      -219.8141
  17   2.0000      -8.076645      -219.7767
  18   2.0000      -6.036608      -164.2645
  19   2.0000      -6.035048      -164.2220
  20   2.0000      -6.032671      -164.1573
  21   2.0000      -6.030809      -164.1067
  22   2.0000      -6.028628      -164.0473
  23   2.0000      -6.027630      -164.0202
  24   2.0000      -1.011434       -27.5225
  25   2.0000      -0.987412       -26.8689
  26   2.0000      -0.919237       -25.0137
  27   2.0000      -0.899452       -24.4753
  28   2.0000      -0.874552       -23.7978
  29   2.0000      -0.850473       -23.1426
  30   2.0000      -0.845372       -23.0037
  31   2.0000      -0.819727       -22.3059
  32   2.0000      -0.786252       -21.3950
  33   2.0000      -0.775721       -21.1084
  34   2.0000      -0.716027       -19.4841
  35   2.0000      -0.703011       -19.1299
  36   2.0000      -0.694709       -18.9040
  37   2.0000      -0.660711       -17.9789
  38   2.0000      -0.651664       -17.7327
  39   2.0000      -0.623726       -16.9725
  40   2.0000      -0.593490       -16.1497
  41   2.0000      -0.575412       -15.6578
  42   2.0000      -0.566647       -15.4192
  43   2.0000      -0.555747       -15.1226
  44   2.0000      -0.536041       -14.5864
  45   2.0000      -0.525051       -14.2874
  46   2.0000      -0.517932       -14.0937
  47   2.0000      -0.512787       -13.9537
  48   2.0000      -0.506832       -13.7916
  49   2.0000      -0.503015       -13.6877
  50   2.0000      -0.492644       -13.4055
  51   2.0000      -0.480970       -13.0879
  52   2.0000      -0.479020       -13.0348
  53   2.0000      -0.468262       -12.7421
  54   2.0000      -0.458763       -12.4836
  55   2.0000      -0.453228       -12.3330
  56   2.0000      -0.442550       -12.0424
  57   2.0000      -0.432255       -11.7623
  58   2.0000      -0.430306       -11.7092
  59   2.0000      -0.424342       -11.5469
  60   2.0000      -0.420382       -11.4392
  61   2.0000      -0.414697       -11.2845
  62   2.0000      -0.414166       -11.2700
  63   2.0000      -0.346340        -9.4244
  64   2.0000      -0.329620        -8.9694
  65   2.0000      -0.323708        -8.8085
  66   2.0000      -0.300829        -8.1860
  67   0.0000       0.032377         0.8810
  68   0.0000       0.061421         1.6714
  69   0.0000       0.109468         2.9788
  70   0.0000       0.125717         3.4209
  71   0.0000       0.135887         3.6977

MULLIKEN ATOMIC CHARGES
-----------------------
   0 S :    0.102722
   1 C :   -0.090776
   2 C :   -0.107067
   3 C :    0.020547
   4 C :   -0.181169
   5 H :    0.020007
   6 C :    0.131579
   7 H :   -0.014978
   8 H :   -0.003831
   9 C :   -0.064085
  10 H :    0.017608
  11 H :    0.015489
  12 C :   -0.054611
  13 H :    0.049856
  14 H :    0.022119
  15 H :    0.032010
  16 S :    0.098297
  17 C :   -0.090386
  18 C :   -0.048791
  19 C :   -0.008597
  20 C :   -0.148034
  21 H :    0.029389
  22 C :    0.077955
  23 H :    0.031857
  24 H :    0.029792
  25 C :   -0.072571
  26 H :    0.032221
  27 H :    0.029699
  28 C :   -0.057785
  29 H :    0.025251
  30 H :    0.035269
  31 H :    0.024926
  32 H :    0.055288
  33 H :    0.060801
Sum of atomic charges:    0.0000000

LOEWDIN ATOMIC CHARGES
----------------------
   0 S :    0.427628
   1 C :   -0.207467
   2 C :   -0.060419
   3 C :   -0.066860
   4 C :   -0.205927
   5 H :    0.033749
   6 C :   -0.030993
   7 H :    0.019262
   8 H :    0.022702
   9 C :   -0.031037
  10 H :    0.018115
  11 H :    0.016823
  12 C :   -0.064850
  13 H :    0.034786
  14 H :    0.024636
  15 H :    0.025324
  16 S :    0.388702
  17 C :   -0.168767
  18 C :   -0.075401
  19 C :   -0.056662
  20 C :   -0.194915
  21 H :    0.036157
  22 C :   -0.027566
  23 H :    0.032858
  24 H :    0.031363
  25 C :   -0.033926
  26 H :    0.024490
  27 H :    0.027060
  28 C :   -0.073704
  29 H :    0.015944
  30 H :    0.027184
  31 H :    0.029831
  32 H :    0.029899
  33 H :    0.031979

  Mayer bond orders larger than 0.100000
B(  0-S ,  1-C ) :   1.1649 B(  0-S ,  4-C ) :   1.1644 B(  1-C ,  2-C ) :   1.5642
B(  1-C ,  4-C ) :   0.1040 B(  1-C , 32-H ) :   0.9665 B(  2-C ,  3-C ) :   1.2653
B(  2-C ,  6-C ) :   1.0396 B(  3-C ,  4-C ) :   1.5696 B(  3-C ,  5-H ) :   0.9919
B(  4-C , 20-C ) :   1.0073 B(  6-C ,  7-H ) :   0.9313 B(  6-C ,  8-H ) :   0.9178
B(  6-C ,  9-C ) :   1.0604 B(  9-C , 10-H ) :   0.9605 B(  9-C , 11-H ) :   0.9525
B(  9-C , 12-C ) :   1.0731 B( 12-C , 13-H ) :   0.9742 B( 12-C , 14-H ) :   0.9766
B( 12-C , 15-H ) :   0.9743 B( 16-S , 17-C ) :   1.1382 B( 16-S , 20-C ) :   1.1504
B( 17-C , 18-C ) :   1.6167 B( 17-C , 20-C ) :   0.1049 B( 17-C , 33-H ) :   0.9697
B( 18-C , 19-C ) :   1.2303 B( 18-C , 21-H ) :   0.9839 B( 19-C , 20-C ) :   1.5978
B( 19-C , 22-C ) :   1.0454 B( 22-C , 23-H ) :   0.9315 B( 22-C , 24-H ) :   0.9353
B( 22-C , 25-C ) :   1.0675 B( 25-C , 26-H ) :   0.9565 B( 25-C , 27-H ) :   0.9555
B( 25-C , 28-C ) :   1.0875 B( 28-C , 29-H ) :   0.9772 B( 28-C , 30-H ) :   0.9690
B( 28-C , 31-H ) :   0.9674

Dispersion correction           -0.013820390
FINAL SINGLE POINT ENERGY     -1339.865950021510

DIPOLE MOMENT
-------------
                                X             Y             Z
Electronic contribution:      3.52761      22.46237     -15.36227
Nuclear contribution   :     -3.81073     -23.12311      15.75516
                        -----------------------------------------
Total Dipole Moment    :     -0.28312      -0.66073       0.39289
                        -----------------------------------------
Magnitude (a.u.)       :      0.81920
Magnitude (Debye)      :      2.08224

Rotational constants in cm-1:     0.018099     0.008147     0.006497
Rotational constants in MHz :   542.597917   244.246763   194.774561

                             ****ORCA TERMINATED NORMALLY****
TOTAL RUN TIME: 0 days 0 hours 0 minutes 33 seconds 17 msec
