                         Program Version 4.2.1 -  RELEASE  -
|  1> ! wB97X-D3 SP def2-SVP
|  2> %pal
|  3> nprocs 16
|  4> end
|  5>
|  6> * xyz 0 1
|  7> S 	 16.3458 	 2.82173 	 85.6266
|  8> C 	 16.5239 	 3.93746 	 84.349
|  9> C 	 16.9116 	 5.20645 	 84.7401
| 10> C 	 16.9852 	 5.24 	 86.1777
| 11> C 	 16.7056 	 4.05758 	 86.8041
| 12> H 	 17.2954 	 6.08235 	 86.7564
| 13> C 	 17.1612 	 6.39541 	 83.8945
| 14> H 	 17.626 	 6.00279 	 83.0117
| 15> H 	 17.9312 	 7.02731 	 84.3686
| 16> C 	 15.9361 	 7.26389 	 83.5961
| 17> H 	 15.5869 	 7.73372 	 84.5287
| 18> H 	 16.1863 	 8.16457 	 83.0061
| 19> C 	 14.7938 	 6.52073 	 82.9078
| 20> H 	 15.0346 	 6.32886 	 81.8755
| 21> H 	 14.5401 	 5.58871 	 83.3273
| 22> H 	 13.8206 	 6.94343 	 82.9698
| 23> S 	 17.6497 	 2.49467 	 88.8921
| 24> C 	 17.3162 	 2.90108 	 90.6098
| 25> C 	 16.4279 	 3.93119 	 90.6268
| 26> C 	 16.0895 	 4.43887 	 89.2523
| 27> C 	 16.7575 	 3.8164 	 88.2266
| 28> H 	 16.1364 	 4.23139 	 91.5298
| 29> C 	 14.9354 	 5.32744 	 89.0689
| 30> H 	 15.1518 	 6.25114 	 88.4838
| 31> H 	 14.7894 	 5.73454 	 90.1021
| 32> C 	 13.674 	 4.53283 	 88.6762
| 33> H 	 13.4004 	 3.87198 	 89.4725
| 34> H 	 13.9316 	 3.90504 	 87.7944
| 35> C 	 12.5354 	 5.42469 	 88.2278
| 36> H 	 12.5123 	 6.30625 	 88.9234
| 37> H 	 11.562 	 4.87359 	 88.3111
| 38> H 	 12.7366 	 5.87452 	 87.2446
| 39> H 	 16.4082 	 3.6907 	 83.3501
| 40> H 	 17.9388 	 2.60335 	 91.4803
| 41> *
| 42>
| 43>                          ****END OF INPUT****

CARTESIAN COORDINATES (ANGSTROEM)
---------------------------------
  S     16.345800    2.821730   85.626600
  C     16.523900    3.937460   84.349000
  C     16.911600    5.206450   84.740100
  C     16.985200    5.240000   86.177700
  C     16.705600    4.057580   86.804100
  H     17.295400    6.082350   86.756400
  C     17.161200    6.395410   83.894500
  H     17.626000    6.002790   83.011700
  H     17.931200    7.027310   84.368600
  C     15.936100    7.263890   83.596100
  H     15.586900    7.733720   84.528700
  H     16.186300    8.164570   83.006100
  C     14.793800    6.520730   82.907800
  H     15.034600    6.328860   81.875500
  H     14.540100    5.588710   83.327300
  H     13.820600    6.943430   82.969800
  S     17.649700    2.494670   88.892100
  C     17.316200    2.901080   90.609800
  C     16.427900    3.931190   90.626800
  C     16.089500    4.438870   89.252300
  C     16.757500    3.816400   88.226600
  H     16.136400    4.231390   91.529800
  C     14.935400    5.327440   89.068900
  H     15.151800    6.251140   88.483800
  H     14.789400    5.734540   90.102100
  C     13.674000    4.532830   88.676200
  H     13.400400    3.871980   89.472500
  H     13.931600    3.905040   87.794400
  C     12.535400    5.424690   88.227800
  H     12.512300    6.306250   88.923400
  H     11.562000    4.873590   88.311100
  H     12.736600    5.874520   87.244600
  H     16.408200    3.690700   83.350100
  H     17.938800    2.603350   91.480300

 Total Charge           Charge          ....    0
 Multiplicity           Mult            ....    1
 Number of Electrons    NEL             ....  134
 Basis Dimension        Dim             ....  322

ORBITAL ENERGIES
----------------

  NO   OCC          E(Eh)            E(eV)
   0   2.0000     -88.969231     -2420.9759
   1   2.0000     -88.957191     -2420.6482
   2   2.0000     -10.327329      -281.0209
   3   2.0000     -10.323733      -280.9231
   4   2.0000     -10.321196      -280.8540
   5   2.0000     -10.308503      -280.5086
   6   2.0000     -10.302016      -280.3321
   7   2.0000     -10.299704      -280.2692
   8   2.0000     -10.292736      -280.0796
   9   2.0000     -10.292194      -280.0648
  10   2.0000     -10.291607      -280.0489
  11   2.0000     -10.290703      -280.0243
  12   2.0000     -10.288343      -279.9601
  13   2.0000     -10.280360      -279.7428
  14   2.0000     -10.279770      -279.7268
  15   2.0000     -10.267378      -279.3895
  16   2.0000      -8.084722      -219.9965
  17   2.0000      -8.072130      -219.6538
  18   2.0000      -6.043207      -164.4440
  19   2.0000      -6.039073      -164.3315
  20   2.0000      -6.035514      -164.2347
  21   2.0000      -6.030898      -164.1091
  22   2.0000      -6.026507      -163.9896
  23   2.0000      -6.022669      -163.8852
  24   2.0000      -1.011661       -27.5287
  25   2.0000      -0.985781       -26.8245
  26   2.0000      -0.917581       -24.9687
  27   2.0000      -0.907987       -24.7076
  28   2.0000      -0.876260       -23.8442
  29   2.0000      -0.853623       -23.2283
  30   2.0000      -0.842514       -22.9260
  31   2.0000      -0.824019       -22.4227
  32   2.0000      -0.789214       -21.4756
  33   2.0000      -0.762997       -20.7622
  34   2.0000      -0.713981       -19.4284
  35   2.0000      -0.702850       -19.1255
  36   2.0000      -0.689522       -18.7628
  37   2.0000      -0.667391       -18.1606
  38   2.0000      -0.648084       -17.6353
  39   2.0000      -0.623205       -16.9583
  40   2.0000      -0.587901       -15.9976
  41   2.0000      -0.576205       -15.6793
  42   2.0000      -0.562483       -15.3059
  43   2.0000      -0.554899       -15.0996
  44   2.0000      -0.548092       -14.9143
  45   2.0000      -0.525867       -14.3096
  46   2.0000      -0.520859       -14.1733
  47   2.0000      -0.517050       -14.0697
  48   2.0000      -0.508570       -13.8389
  49   2.0000      -0.503247       -13.6940
  50   2.0000      -0.494041       -13.4436
  51   2.0000      -0.479157       -13.0385
  52   2.0000      -0.468900       -12.7594
  53   2.0000      -0.459484       -12.5032
  54   2.0000      -0.456275       -12.4159
  55   2.0000      -0.450030       -12.2459
  56   2.0000      -0.439358       -11.9555
  57   2.0000      -0.437930       -11.9167
  58   2.0000      -0.433664       -11.8006
  59   2.0000      -0.430387       -11.7114
  60   2.0000      -0.417779       -11.3684
  61   2.0000      -0.413108       -11.2412
  62   2.0000      -0.402233       -10.9453
  63   2.0000      -0.353836        -9.6284
  64   2.0000      -0.333000        -9.0614
  65   2.0000      -0.321398        -8.7457
  66   2.0000      -0.294521        -8.0143
  67   0.0000       0.033891         0.9222
  68   0.0000       0.066457         1.8084
  69   0.0000       0.114318         3.1107
  70   0.0000       0.118221         3.2170
  71   0.0000       0.130169         3.5421

MULLIKEN ATOMIC CHARGES
-----------------------
   0 S :    0.131637
   1 C :   -0.086988
   2 C :   -0.105864
   3 C :    0.035445
   4 C :   -0.157621
   5 H :    0.001874
   6 C :    0.089638
   7 H :    0.018030
   8 H :    0.029479
   9 C :   -0.052043
  10 H :    0.020630
  11 H :    0.034774
  12 C :   -0.028997
  13 H :    0.023063
  14 H :    0.015884
  15 H :    0.020770
  16 S :    0.074670
  17 C :   -0.110365
  18 C :    0.023824
  19 C :   -0.071094
  20 C :   -0.124244
  21 H :   -0.030614
  22 C :    0.042127
  23 H :    0.031180
  24 H :    0.014381
  25 C :   -0.056290
  26 H :    0.024703
  27 H :    0.035492
  28 C :   -0.051161
  29 H :    0.021815
  30 H :    0.047569
  31 H :    0.039293
  32 H :    0.016038
  33 H :    0.082965
Sum of atomic charges:   -0.0000000

LOEWDIN ATOMIC CHARGES
----------------------
   0 S :    0.429663
   1 C :   -0.194180
   2 C :   -0.060615
   3 C :   -0.050298
   4 C :   -0.198630
   5 H :    0.027694
   6 C :   -0.032632
   7 H :    0.028763
   8 H :    0.037439
   9 C :   -0.037950
  10 H :    0.024178
  11 H :    0.028879
  12 C :   -0.068543
  13 H :    0.023670
  14 H :    0.020398
  15 H :    0.026392
  16 S :    0.379847
  17 C :   -0.174814
  18 C :   -0.053803
  19 C :   -0.060450
  20 C :   -0.201683
  21 H :    0.007988
  22 C :   -0.045500
  23 H :    0.031463
  24 H :    0.031696
  25 C :   -0.038641
  26 H :    0.022609
  27 H :    0.026571
  28 C :   -0.070714
  29 H :    0.023631
  30 H :    0.032933
  31 H :    0.027371
  32 H :    0.011958
  33 H :    0.045308

  Mayer bond orders larger than 0.100000
B(  0-S ,  1-C ) :   1.1536 B(  0-S ,  4-C ) :   1.1384 B(  1-C ,  2-C ) :   1.6008
B(  1-C , 32-H ) :   0.9722 B(  2-C ,  3-C ) :   1.2360 B(  2-C ,  6-C ) :   1.0299
B(  3-C ,  4-C ) :   1.5914 B(  3-C ,  5-H ) :   0.9984 B(  4-C , 20-C ) :   1.0454
B(  6-C ,  7-H ) :   0.9346 B(  6-C ,  8-H ) :   0.9363 B(  6-C ,  9-C ) :   1.0693
B(  9-C , 10-H ) :   0.9542 B(  9-C , 11-H ) :   0.9560 B(  9-C , 12-C ) :   1.0756
B( 12-C , 13-H ) :   0.9753 B( 12-C , 14-H ) :   0.9695 B( 12-C , 15-H ) :   0.9695
B( 16-S , 17-C ) :   1.1300 B( 16-S , 20-C ) :   1.1220 B( 17-C , 18-C ) :   1.6525
B( 17-C , 33-H ) :   0.9583 B( 18-C , 19-C ) :   1.1956 B( 18-C , 21-H ) :   1.0087
B( 19-C , 20-C ) :   1.6084 B( 19-C , 22-C ) :   1.0736 B( 22-C , 23-H ) :   0.9318
B( 22-C , 24-H ) :   0.9203 B( 22-C , 25-C ) :   1.0530 B( 25-C , 26-H ) :   0.9520
B( 25-C , 27-H ) :   0.9601 B( 25-C , 28-C ) :   1.0811 B( 28-C , 29-H ) :   0.9724
B( 28-C , 30-H ) :   0.9728 B( 28-C , 31-H ) :   0.9753

Dispersion correction           -0.015154960
FINAL SINGLE POINT ENERGY     -1339.870537619592

DIPOLE MOMENT
-------------
                                X             Y             Z
Electronic contribution:     16.57955     -20.18311       8.67498
Nuclear contribution   :    -16.76552      20.80008      -8.69031
                        -----------------------------------------
Total Dipole Moment    :     -0.18596       0.61696      -0.01533
                        -----------------------------------------
Magnitude (a.u.)       :      0.64456
Magnitude (Debye)      :      1.63835

Rotational constants in cm-1:     0.020617     0.009044     0.007385
Rotational constants in MHz :   618.081976   271.118516   221.409544

                             ****ORCA TERMINATED NORMALLY****
TOTAL RUN TIME: 0 days 0 hours 0 minutes 36 seconds 749 msec
