                         Program Version 4.2.1 -  RELEASE  -
|  1> ! wB97X-D3 SP def2-SVP
|  2> %pal
|  3> nprocs 16
|  4> end
|  5>
|  6> * xyz 0 1
|  7> S 	 -11.725 	 48.162 	 34.2105
|  8> C 	 -10.2024 	 47.4745 	 33.7889
|  9> C 	 -9.23255 	 48.4859 	 33.7732
| 10> C 	 -9.84276 	 49.8005 	 34.0807
| 11> C 	 -11.1577 	 49.7851 	 34.4713
| 12> H 	 -9.2876 	 50.7104 	 34.0231
| 13> C 	 -7.75771 	 48.2855 	 33.4886
| 14> H 	 -7.68444 	 47.2765 	 32.9755
| 15> H 	 -7.23109 	 48.4427 	 34.4451
| 16> C 	 -7.02614 	 49.2372 	 32.4177
| 17> H 	 -7.64002 	 49.2584 	 31.5478
| 18> H 	 -6.96239 	 50.2632 	 32.8292
| 19> C 	 -5.6206 	 48.8122 	 32.1752
| 20> H 	 -4.99609 	 49.3604 	 31.5328
| 21> H 	 -5.15992 	 48.748 	 33.1833
| 22> H 	 -5.69344 	 47.7666 	 31.8265
| 23> S 	 -13.6542 	 50.9609 	 34.3315
| 24> C 	 -13.7373 	 52.7027 	 34.5651
| 25> C 	 -12.5859 	 53.1665 	 35.2346
| 26> C 	 -11.6044 	 52.1466 	 35.4284
| 27> C 	 -11.993 	 50.9456 	 34.8695
| 28> H 	 -12.5087 	 54.2102 	 35.3596
| 29> C 	 -10.3015 	 52.4861 	 36.1356
| 30> H 	 -10.3399 	 53.4758 	 36.6595
| 31> H 	 -9.53251 	 52.7277 	 35.3763
| 32> C 	 -9.81651 	 51.6604 	 37.2503
| 33> H 	 -8.94049 	 52.0903 	 37.7174
| 34> H 	 -9.50454 	 50.7057 	 36.8034
| 35> C 	 -10.7395 	 51.3049 	 38.3069
| 36> H 	 -10.366 	 50.4272 	 38.8704
| 37> H 	 -11.6841 	 51.0888 	 37.9096
| 38> H 	 -10.8477 	 52.0594 	 39.0871
| 39> H 	 -10.2235 	 46.4772 	 33.338
| 40> H 	 -14.4968 	 53.3586 	 34.3201
| 41> *
| 42>
| 43>                          ****END OF INPUT****

CARTESIAN COORDINATES (ANGSTROEM)
---------------------------------
  S    -11.725000   48.162000   34.210500
  C    -10.202400   47.474500   33.788900
  C     -9.232550   48.485900   33.773200
  C     -9.842760   49.800500   34.080700
  C    -11.157700   49.785100   34.471300
  H     -9.287600   50.710400   34.023100
  C     -7.757710   48.285500   33.488600
  H     -7.684440   47.276500   32.975500
  H     -7.231090   48.442700   34.445100
  C     -7.026140   49.237200   32.417700
  H     -7.640020   49.258400   31.547800
  H     -6.962390   50.263200   32.829200
  C     -5.620600   48.812200   32.175200
  H     -4.996090   49.360400   31.532800
  H     -5.159920   48.748000   33.183300
  H     -5.693440   47.766600   31.826500
  S    -13.654200   50.960900   34.331500
  C    -13.737300   52.702700   34.565100
  C    -12.585900   53.166500   35.234600
  C    -11.604400   52.146600   35.428400
  C    -11.993000   50.945600   34.869500
  H    -12.508700   54.210200   35.359600
  C    -10.301500   52.486100   36.135600
  H    -10.339900   53.475800   36.659500
  H     -9.532510   52.727700   35.376300
  C     -9.816510   51.660400   37.250300
  H     -8.940490   52.090300   37.717400
  H     -9.504540   50.705700   36.803400
  C    -10.739500   51.304900   38.306900
  H    -10.366000   50.427200   38.870400
  H    -11.684100   51.088800   37.909600
  H    -10.847700   52.059400   39.087100
  H    -10.223500   46.477200   33.338000
  H    -14.496800   53.358600   34.320100

 Total Charge           Charge          ....    0
 Multiplicity           Mult            ....    1
 Number of Electrons    NEL             ....  134
 Basis Dimension        Dim             ....  322

ORBITAL ENERGIES
----------------

  NO   OCC          E(Eh)            E(eV)
   0   2.0000     -88.970945     -2421.0225
   1   2.0000     -88.960387     -2420.7352
   2   2.0000     -10.333495      -281.1887
   3   2.0000     -10.333065      -281.1770
   4   2.0000     -10.318436      -280.7789
   5   2.0000     -10.318034      -280.7680
   6   2.0000     -10.310706      -280.5686
   7   2.0000     -10.309564      -280.5375
   8   2.0000     -10.304223      -280.3921
   9   2.0000     -10.295760      -280.1619
  10   2.0000     -10.294389      -280.1246
  11   2.0000     -10.293172      -280.0914
  12   2.0000     -10.287827      -279.9460
  13   2.0000     -10.277065      -279.6531
  14   2.0000     -10.270489      -279.4742
  15   2.0000     -10.261231      -279.2223
  16   2.0000      -8.085508      -220.0179
  17   2.0000      -8.076103      -219.7619
  18   2.0000      -6.044036      -164.4666
  19   2.0000      -6.040102      -164.3595
  20   2.0000      -6.036188      -164.2530
  21   2.0000      -6.034705      -164.2127
  22   2.0000      -6.030301      -164.0928
  23   2.0000      -6.026895      -164.0002
  24   2.0000      -1.008155       -27.4333
  25   2.0000      -0.985499       -26.8168
  26   2.0000      -0.922901       -25.1134
  27   2.0000      -0.909145       -24.7391
  28   2.0000      -0.872027       -23.7291
  29   2.0000      -0.857390       -23.3308
  30   2.0000      -0.846265       -23.0281
  31   2.0000      -0.818248       -22.2657
  32   2.0000      -0.787940       -21.4410
  33   2.0000      -0.769891       -20.9498
  34   2.0000      -0.708524       -19.2799
  35   2.0000      -0.697197       -18.9717
  36   2.0000      -0.682985       -18.5850
  37   2.0000      -0.667791       -18.1715
  38   2.0000      -0.644175       -17.5289
  39   2.0000      -0.619944       -16.8695
  40   2.0000      -0.595428       -16.2024
  41   2.0000      -0.578259       -15.7352
  42   2.0000      -0.567889       -15.4530
  43   2.0000      -0.563655       -15.3378
  44   2.0000      -0.557373       -15.1669
  45   2.0000      -0.532294       -14.4844
  46   2.0000      -0.515144       -14.0178
  47   2.0000      -0.511355       -13.9147
  48   2.0000      -0.506442       -13.7810
  49   2.0000      -0.501249       -13.6397
  50   2.0000      -0.487427       -13.2636
  51   2.0000      -0.483822       -13.1655
  52   2.0000      -0.475987       -12.9523
  53   2.0000      -0.462909       -12.5964
  54   2.0000      -0.461818       -12.5667
  55   2.0000      -0.458473       -12.4757
  56   2.0000      -0.449617       -12.2347
  57   2.0000      -0.438610       -11.9352
  58   2.0000      -0.427571       -11.6348
  59   2.0000      -0.422042       -11.4844
  60   2.0000      -0.413863       -11.2618
  61   2.0000      -0.410526       -11.1710
  62   2.0000      -0.389427       -10.5968
  63   2.0000      -0.356139        -9.6910
  64   2.0000      -0.336074        -9.1450
  65   2.0000      -0.321343        -8.7442
  66   2.0000      -0.289638        -7.8815
  67   0.0000       0.021168         0.5760
  68   0.0000       0.076306         2.0764
  69   0.0000       0.103091         2.8052
  70   0.0000       0.110005         2.9934
  71   0.0000       0.134610         3.6629

MULLIKEN ATOMIC CHARGES
-----------------------
   0 S :    0.082070
   1 C :   -0.130030
   2 C :   -0.090974
   3 C :    0.015189
   4 C :   -0.108346
   5 H :   -0.002366
   6 C :    0.008521
   7 H :    0.035441
   8 H :    0.055321
   9 C :   -0.088298
  10 H :    0.030199
  11 H :    0.029515
  12 C :   -0.019657
  13 H :    0.036129
  14 H :    0.023915
  15 H :    0.020938
  16 S :    0.117070
  17 C :   -0.069942
  18 C :   -0.031611
  19 C :   -0.047922
  20 C :   -0.120224
  21 H :    0.010807
  22 C :    0.040655
  23 H :    0.013431
  24 H :    0.042450
  25 C :   -0.044022
  26 H :    0.018791
  27 H :    0.020327
  28 C :   -0.023553
  29 H :    0.030967
  30 H :    0.027273
  31 H :    0.014787
  32 H :    0.072135
  33 H :    0.031013
Sum of atomic charges:   -0.0000000

LOEWDIN ATOMIC CHARGES
----------------------
   0 S :    0.407256
   1 C :   -0.209702
   2 C :   -0.064764
   3 C :   -0.067204
   4 C :   -0.194164
   5 H :    0.023009
   6 C :   -0.034731
   7 H :    0.037953
   8 H :    0.038191
   9 C :   -0.041353
  10 H :    0.017609
  11 H :    0.021261
  12 C :   -0.063697
  13 H :    0.020289
  14 H :    0.030280
  15 H :    0.025851
  16 S :    0.410206
  17 C :   -0.168352
  18 C :   -0.058756
  19 C :   -0.053906
  20 C :   -0.194283
  21 H :    0.026293
  22 C :   -0.041050
  23 H :    0.035612
  24 H :    0.036046
  25 C :   -0.053322
  26 H :    0.026299
  27 H :    0.022799
  28 C :   -0.058509
  29 H :    0.034178
  30 H :    0.018879
  31 H :    0.020223
  32 H :    0.035615
  33 H :    0.015944

  Mayer bond orders larger than 0.100000
B(  0-S ,  1-C ) :   1.1504 B(  0-S ,  4-C ) :   1.1498 B(  1-C ,  2-C ) :   1.5821
B(  1-C , 32-H ) :   0.9689 B(  2-C ,  3-C ) :   1.2430 B(  2-C ,  6-C ) :   1.0336
B(  3-C ,  4-C ) :   1.5673 B(  3-C ,  5-H ) :   0.9962 B(  4-C , 20-C ) :   1.0440
B(  6-C ,  7-H ) :   0.9484 B(  6-C ,  8-H ) :   0.9352 B(  6-C ,  9-C ) :   1.0555
B(  9-C , 10-H ) :   0.9612 B(  9-C , 11-H ) :   0.9497 B(  9-C , 12-C ) :   1.0872
B( 12-C , 13-H ) :   0.9741 B( 12-C , 14-H ) :   0.9690 B( 12-C , 15-H ) :   0.9723
B( 16-S , 17-C ) :   1.1540 B( 16-S , 20-C ) :   1.1370 B( 17-C , 18-C ) :   1.6140
B( 17-C , 33-H ) :   0.9762 B( 18-C , 19-C ) :   1.2388 B( 18-C , 21-H ) :   0.9973
B( 19-C , 20-C ) :   1.5836 B( 19-C , 22-C ) :   1.0275 B( 22-C , 23-H ) :   0.9375
B( 22-C , 24-H ) :   0.9244 B( 22-C , 25-C ) :   1.0849 B( 25-C , 26-H ) :   0.9478
B( 25-C , 27-H ) :   0.9413 B( 25-C , 28-C ) :   1.1021 B( 28-C , 29-H ) :   0.9680
B( 28-C , 30-H ) :   0.9685 B( 28-C , 31-H ) :   0.9704

Dispersion correction           -0.014412761
FINAL SINGLE POINT ENERGY     -1339.856407787194

DIPOLE MOMENT
-------------
                                X             Y             Z
Electronic contribution:    -27.15841      -3.74250      -4.63112
Nuclear contribution   :     27.76269       4.18757       4.51281
                        -----------------------------------------
Total Dipole Moment    :      0.60427       0.44507      -0.11830
                        -----------------------------------------
Magnitude (a.u.)       :      0.75976
Magnitude (Debye)      :      1.93115

Rotational constants in cm-1:     0.019248     0.008323     0.007118
Rotational constants in MHz :   577.036592   249.513294   213.393592

                             ****ORCA TERMINATED NORMALLY****
TOTAL RUN TIME: 0 days 0 hours 0 minutes 33 seconds 128 msec
