                         Program Version 4.2.1 -  RELEASE  -
|  1> ! wB97X-D3 SP def2-SVP
|  2> %pal
|  3> nprocs 16
|  4> end
|  5>
|  6> * xyz 0 1
|  7> S 	 -56.7053 	 37.0486 	 112.529
|  8> C 	 -55.2527 	 36.4358 	 111.9
|  9> C 	 -54.3387 	 37.4638 	 111.65
| 10> C 	 -54.7998 	 38.7487 	 112.09
| 11> C 	 -56.0229 	 38.6961 	 112.747
| 12> H 	 -54.2604 	 39.652 	 111.891
| 13> C 	 -52.9667 	 37.2674 	 110.994
| 14> H 	 -53.1013 	 37.4616 	 109.949
| 15> H 	 -52.8277 	 36.2028 	 111.009
| 16> C 	 -51.8194 	 37.9807 	 111.609
| 17> H 	 -50.987 	 37.6345 	 110.998
| 18> H 	 -52.0038 	 38.99 	 111.672
| 19> C 	 -51.5465 	 37.6554 	 113.055
| 20> H 	 -52.452 	 37.8517 	 113.644
| 21> H 	 -51.3812 	 36.6196 	 113.249
| 22> H 	 -50.6722 	 38.2478 	 113.31
| 23> S 	 -58.4107 	 40.1187 	 112.729
| 24> C 	 -58.2664 	 41.7019 	 113.417
| 25> C 	 -57.1274 	 41.9981 	 114.085
| 26> C 	 -56.2739 	 40.9058 	 114.067
| 27> C 	 -56.7424 	 39.8144 	 113.32
| 28> H 	 -56.9265 	 43.0434 	 114.458
| 29> C 	 -54.9109 	 40.875 	 114.681
| 30> H 	 -54.125 	 41.1985 	 113.999
| 31> H 	 -54.6008 	 39.8551 	 115.076
| 32> C 	 -55.0102 	 41.7128 	 115.962
| 33> H 	 -55.9011 	 41.3638 	 116.395
| 34> H 	 -55.1482 	 42.7656 	 115.838
| 35> C 	 -53.8413 	 41.561 	 116.948
| 36> H 	 -53.7292 	 40.5392 	 117.421
| 37> H 	 -54.0308 	 42.2653 	 117.781
| 38> H 	 -52.9162 	 41.9955 	 116.585
| 39> H 	 -55.09 	 35.3439 	 111.712
| 40> H 	 -58.9584 	 42.4657 	 113.133
| 41> *
| 42>
| 43>                          ****END OF INPUT****

CARTESIAN COORDINATES (ANGSTROEM)
---------------------------------
  S    -56.705300   37.048600  112.529000
  C    -55.252700   36.435800  111.900000
  C    -54.338700   37.463800  111.650000
  C    -54.799800   38.748700  112.090000
  C    -56.022900   38.696100  112.747000
  H    -54.260400   39.652000  111.891000
  C    -52.966700   37.267400  110.994000
  H    -53.101300   37.461600  109.949000
  H    -52.827700   36.202800  111.009000
  C    -51.819400   37.980700  111.609000
  H    -50.987000   37.634500  110.998000
  H    -52.003800   38.990000  111.672000
  C    -51.546500   37.655400  113.055000
  H    -52.452000   37.851700  113.644000
  H    -51.381200   36.619600  113.249000
  H    -50.672200   38.247800  113.310000
  S    -58.410700   40.118700  112.729000
  C    -58.266400   41.701900  113.417000
  C    -57.127400   41.998100  114.085000
  C    -56.273900   40.905800  114.067000
  C    -56.742400   39.814400  113.320000
  H    -56.926500   43.043400  114.458000
  C    -54.910900   40.875000  114.681000
  H    -54.125000   41.198500  113.999000
  H    -54.600800   39.855100  115.076000
  C    -55.010200   41.712800  115.962000
  H    -55.901100   41.363800  116.395000
  H    -55.148200   42.765600  115.838000
  C    -53.841300   41.561000  116.948000
  H    -53.729200   40.539200  117.421000
  H    -54.030800   42.265300  117.781000
  H    -52.916200   41.995500  116.585000
  H    -55.090000   35.343900  111.712000
  H    -58.958400   42.465700  113.133000

 Total Charge           Charge          ....    0
 Multiplicity           Mult            ....    1
 Number of Electrons    NEL             ....  134
 Basis Dimension        Dim             ....  322

ORBITAL ENERGIES
----------------

  NO   OCC          E(Eh)            E(eV)
   0   2.0000     -88.966306     -2420.8963
   1   2.0000     -88.962811     -2420.8012
   2   2.0000     -10.331700      -281.1399
   3   2.0000     -10.325952      -280.9835
   4   2.0000     -10.314609      -280.6748
   5   2.0000     -10.312308      -280.6122
   6   2.0000     -10.301128      -280.3080
   7   2.0000     -10.298764      -280.2436
   8   2.0000     -10.294606      -280.1305
   9   2.0000     -10.293270      -280.0941
  10   2.0000     -10.291665      -280.0504
  11   2.0000     -10.282462      -279.8000
  12   2.0000     -10.281121      -279.7635
  13   2.0000     -10.277792      -279.6729
  14   2.0000     -10.274628      -279.5868
  15   2.0000     -10.268939      -279.4320
  16   2.0000      -8.081098      -219.8978
  17   2.0000      -8.077956      -219.8124
  18   2.0000      -6.039349      -164.3390
  19   2.0000      -6.036469      -164.2607
  20   2.0000      -6.035844      -164.2437
  21   2.0000      -6.032415      -164.1504
  22   2.0000      -6.031871      -164.1355
  23   2.0000      -6.028700      -164.0493
  24   2.0000      -1.006541       -27.3894
  25   2.0000      -0.986125       -26.8338
  26   2.0000      -0.920649       -25.0521
  27   2.0000      -0.913699       -24.8630
  28   2.0000      -0.872526       -23.7426
  29   2.0000      -0.853063       -23.2130
  30   2.0000      -0.845337       -23.0028
  31   2.0000      -0.815717       -22.1968
  32   2.0000      -0.785164       -21.3654
  33   2.0000      -0.768547       -20.9132
  34   2.0000      -0.708212       -19.2714
  35   2.0000      -0.703246       -19.1363
  36   2.0000      -0.688103       -18.7242
  37   2.0000      -0.649700       -17.6792
  38   2.0000      -0.637987       -17.3605
  39   2.0000      -0.628130       -17.0923
  40   2.0000      -0.604288       -16.4435
  41   2.0000      -0.574557       -15.6345
  42   2.0000      -0.571073       -15.5397
  43   2.0000      -0.558353       -15.1936
  44   2.0000      -0.544474       -14.8159
  45   2.0000      -0.525120       -14.2893
  46   2.0000      -0.515565       -14.0292
  47   2.0000      -0.508389       -13.8340
  48   2.0000      -0.500305       -13.6140
  49   2.0000      -0.495721       -13.4892
  50   2.0000      -0.489200       -13.3118
  51   2.0000      -0.483051       -13.1445
  52   2.0000      -0.469948       -12.7879
  53   2.0000      -0.463213       -12.6047
  54   2.0000      -0.460605       -12.5337
  55   2.0000      -0.453374       -12.3369
  56   2.0000      -0.442696       -12.0464
  57   2.0000      -0.440138       -11.9768
  58   2.0000      -0.430164       -11.7054
  59   2.0000      -0.426009       -11.5923
  60   2.0000      -0.421535       -11.4706
  61   2.0000      -0.411528       -11.1983
  62   2.0000      -0.408015       -11.1026
  63   2.0000      -0.353549        -9.6205
  64   2.0000      -0.337391        -9.1809
  65   2.0000      -0.324573        -8.8321
  66   2.0000      -0.281026        -7.6471
  67   0.0000       0.025428         0.6919
  68   0.0000       0.065031         1.7696
  69   0.0000       0.107586         2.9276
  70   0.0000       0.126463         3.4412
  71   0.0000       0.130624         3.5545

MULLIKEN ATOMIC CHARGES
-----------------------
   0 S :    0.101482
   1 C :   -0.133587
   2 C :   -0.149059
   3 C :    0.027248
   4 C :   -0.148176
   5 H :    0.012351
   6 C :    0.114045
   7 H :    0.033852
   8 H :   -0.004731
   9 C :   -0.042564
  10 H :    0.033150
  11 H :    0.013496
  12 C :   -0.047868
  13 H :    0.039455
  14 H :    0.012937
  15 H :    0.038189
  16 S :    0.103460
  17 C :   -0.073136
  18 C :   -0.063036
  19 C :   -0.056588
  20 C :   -0.128559
  21 H :    0.047002
  22 C :    0.070501
  23 H :    0.035579
  24 H :    0.046197
  25 C :   -0.100463
  26 H :    0.024539
  27 H :    0.021111
  28 C :   -0.038202
  29 H :    0.049348
  30 H :    0.020684
  31 H :    0.025370
  32 H :    0.069680
  33 H :    0.046292
Sum of atomic charges:    0.0000000

LOEWDIN ATOMIC CHARGES
----------------------
   0 S :    0.400508
   1 C :   -0.223360
   2 C :   -0.067264
   3 C :   -0.059558
   4 C :   -0.180483
   5 H :    0.028532
   6 C :   -0.031313
   7 H :    0.032378
   8 H :    0.025201
   9 C :   -0.038719
  10 H :    0.031866
  11 H :    0.013933
  12 C :   -0.058739
  13 H :    0.028876
  14 H :    0.016818
  15 H :    0.028671
  16 S :    0.393155
  17 C :   -0.175050
  18 C :   -0.080955
  19 C :   -0.055952
  20 C :   -0.186104
  21 H :    0.049282
  22 C :   -0.032491
  23 H :    0.026866
  24 H :    0.042752
  25 C :   -0.041859
  26 H :    0.022136
  27 H :    0.017677
  28 C :   -0.072400
  29 H :    0.032125
  30 H :    0.028783
  31 H :    0.022798
  32 H :    0.039843
  33 H :    0.022045

  Mayer bond orders larger than 0.100000
B(  0-S ,  1-C ) :   1.1502 B(  0-S ,  4-C ) :   1.1446 B(  1-C ,  2-C ) :   1.5956
B(  1-C , 32-H ) :   0.9597 B(  2-C ,  3-C ) :   1.2566 B(  2-C ,  6-C ) :   1.0100
B(  3-C ,  4-C ) :   1.5453 B(  3-C ,  5-H ) :   0.9963 B(  4-C , 20-C ) :   1.0674
B(  6-C ,  7-H ) :   0.9301 B(  6-C ,  8-H ) :   0.9335 B(  6-C ,  9-C ) :   1.0832
B(  9-C , 10-H ) :   0.9492 B(  9-C , 11-H ) :   0.9533 B(  9-C , 12-C ) :   1.0849
B( 12-C , 13-H ) :   0.9693 B( 12-C , 14-H ) :   0.9732 B( 12-C , 15-H ) :   0.9745
B( 16-S , 17-C ) :   1.1706 B( 16-S , 20-C ) :   1.1229 B( 17-C , 18-C ) :   1.6177
B( 17-C , 33-H ) :   0.9574 B( 18-C , 19-C ) :   1.2391 B( 18-C , 21-H ) :   0.9848
B( 19-C , 20-C ) :   1.5988 B( 19-C , 22-C ) :   1.0393 B( 22-C , 23-H ) :   0.9262
B( 22-C , 24-H ) :   0.9409 B( 22-C , 25-C ) :   1.0639 B( 25-C , 26-H ) :   0.9590
B( 25-C , 27-H ) :   0.9428 B( 25-C , 28-C ) :   1.0991 B( 28-C , 29-H ) :   0.9725
B( 28-C , 30-H ) :   0.9694 B( 28-C , 31-H ) :   0.9700

Dispersion correction           -0.014464985
FINAL SINGLE POINT ENERGY     -1339.863025085974

DIPOLE MOMENT
-------------
                                X             Y             Z
Electronic contribution:    -27.85154      -5.92082     -10.32662
Nuclear contribution   :     28.48034       6.32216      10.25815
                        -----------------------------------------
Total Dipole Moment    :      0.62880       0.40135      -0.06848
                        -----------------------------------------
Magnitude (a.u.)       :      0.74910
Magnitude (Debye)      :      1.90407

Rotational constants in cm-1:     0.016279     0.010129     0.006954
Rotational constants in MHz :   488.027040   303.665621   208.485393

                             ****ORCA TERMINATED NORMALLY****
TOTAL RUN TIME: 0 days 0 hours 0 minutes 30 seconds 977 msec
