                         Program Version 4.2.1 -  RELEASE  -
|  1> ! wB97X-D3 SP def2-SVP
|  2> %pal
|  3> nprocs 16
|  4> end
|  5>
|  6> * xyz 0 1
|  7> S 	 26.1063 	 30.2691 	 56.9955
|  8> C 	 25.2685 	 28.9708 	 57.7912
|  9> C 	 24.5287 	 29.4589 	 58.8715
| 10> C 	 24.6896 	 30.8571 	 59.1067
| 11> C 	 25.6115 	 31.4435 	 58.2538
| 12> H 	 24.1888 	 31.4235 	 59.9014
| 13> C 	 23.6872 	 28.5258 	 59.7072
| 14> H 	 24.2327 	 27.6448 	 59.9874
| 15> H 	 22.7192 	 28.1815 	 59.2632
| 16> C 	 23.1819 	 29.2102 	 61.0225
| 17> H 	 23.9543 	 29.8063 	 61.4242
| 18> H 	 22.3754 	 29.9298 	 60.7404
| 19> C 	 22.734 	 28.21 	 61.9521
| 20> H 	 22.1789 	 27.4162 	 61.3966
| 21> H 	 23.5648 	 27.6698 	 62.4636
| 22> H 	 22.1504 	 28.6707 	 62.827
| 23> S 	 27.0134 	 33.4493 	 59.4817
| 24> C 	 26.7771 	 35.1173 	 58.8993
| 25> C 	 26.0992 	 35.0908 	 57.7218
| 26> C 	 25.7608 	 33.7883 	 57.2533
| 27> C 	 25.9535 	 32.8651 	 58.2009
| 28> H 	 25.7669 	 36.0322 	 57.178
| 29> C 	 24.8409 	 33.6492 	 56.106
| 30> H 	 24.7682 	 32.5896 	 55.9406
| 31> H 	 25.2915 	 34.1722 	 55.2556
| 32> C 	 23.4452 	 34.2724 	 56.2807
| 33> H 	 22.7967 	 33.979 	 55.4382
| 34> H 	 23.5122 	 35.3957 	 56.2493
| 35> C 	 22.711 	 33.9655 	 57.557
| 36> H 	 22.5316 	 32.8863 	 57.3824
| 37> H 	 21.7317 	 34.5062 	 57.6798
| 38> H 	 23.2732 	 34.0312 	 58.4839
| 39> H 	 25.1564 	 27.9716 	 57.3748
| 40> H 	 27.2954 	 35.9463 	 59.3315
| 41> *
| 42>
| 43>                          ****END OF INPUT****

CARTESIAN COORDINATES (ANGSTROEM)
---------------------------------
  S     26.106300   30.269100   56.995500
  C     25.268500   28.970800   57.791200
  C     24.528700   29.458900   58.871500
  C     24.689600   30.857100   59.106700
  C     25.611500   31.443500   58.253800
  H     24.188800   31.423500   59.901400
  C     23.687200   28.525800   59.707200
  H     24.232700   27.644800   59.987400
  H     22.719200   28.181500   59.263200
  C     23.181900   29.210200   61.022500
  H     23.954300   29.806300   61.424200
  H     22.375400   29.929800   60.740400
  C     22.734000   28.210000   61.952100
  H     22.178900   27.416200   61.396600
  H     23.564800   27.669800   62.463600
  H     22.150400   28.670700   62.827000
  S     27.013400   33.449300   59.481700
  C     26.777100   35.117300   58.899300
  C     26.099200   35.090800   57.721800
  C     25.760800   33.788300   57.253300
  C     25.953500   32.865100   58.200900
  H     25.766900   36.032200   57.178000
  C     24.840900   33.649200   56.106000
  H     24.768200   32.589600   55.940600
  H     25.291500   34.172200   55.255600
  C     23.445200   34.272400   56.280700
  H     22.796700   33.979000   55.438200
  H     23.512200   35.395700   56.249300
  C     22.711000   33.965500   57.557000
  H     22.531600   32.886300   57.382400
  H     21.731700   34.506200   57.679800
  H     23.273200   34.031200   58.483900
  H     25.156400   27.971600   57.374800
  H     27.295400   35.946300   59.331500

 Total Charge           Charge          ....    0
 Multiplicity           Mult            ....    1
 Number of Electrons    NEL             ....  134
 Basis Dimension        Dim             ....  322

ORBITAL ENERGIES
----------------

  NO   OCC          E(Eh)            E(eV)
   0   2.0000     -88.969387     -2420.9801
   1   2.0000     -88.960934     -2420.7501
   2   2.0000     -10.333047      -281.1765
   3   2.0000     -10.323345      -280.9125
   4   2.0000     -10.316593      -280.7288
   5   2.0000     -10.316309      -280.7210
   6   2.0000     -10.303226      -280.3650
   7   2.0000     -10.300210      -280.2830
   8   2.0000     -10.296132      -280.1720
   9   2.0000     -10.292638      -280.0769
  10   2.0000     -10.292612      -280.0762
  11   2.0000     -10.288155      -279.9549
  12   2.0000     -10.285837      -279.8918
  13   2.0000     -10.282903      -279.8120
  14   2.0000     -10.278588      -279.6946
  15   2.0000     -10.273697      -279.5615
  16   2.0000      -8.083149      -219.9537
  17   2.0000      -8.075534      -219.7464
  18   2.0000      -6.041646      -164.4015
  19   2.0000      -6.037723      -164.2948
  20   2.0000      -6.034159      -164.1978
  21   2.0000      -6.034039      -164.1945
  22   2.0000      -6.030182      -164.0896
  23   2.0000      -6.026053      -163.9772
  24   2.0000      -1.008835       -27.4518
  25   2.0000      -0.985464       -26.8158
  26   2.0000      -0.919259       -25.0143
  27   2.0000      -0.912269       -24.8241
  28   2.0000      -0.872917       -23.7533
  29   2.0000      -0.851696       -23.1758
  30   2.0000      -0.847431       -23.0598
  31   2.0000      -0.817067       -22.2335
  32   2.0000      -0.781453       -21.2644
  33   2.0000      -0.766108       -20.8469
  34   2.0000      -0.711388       -19.3579
  35   2.0000      -0.692207       -18.8359
  36   2.0000      -0.685820       -18.6621
  37   2.0000      -0.665250       -18.1024
  38   2.0000      -0.639034       -17.3890
  39   2.0000      -0.618277       -16.8242
  40   2.0000      -0.595963       -16.2170
  41   2.0000      -0.576086       -15.6761
  42   2.0000      -0.562735       -15.3128
  43   2.0000      -0.555018       -15.1028
  44   2.0000      -0.547803       -14.9065
  45   2.0000      -0.524472       -14.2716
  46   2.0000      -0.520503       -14.1636
  47   2.0000      -0.510190       -13.8830
  48   2.0000      -0.502979       -13.6868
  49   2.0000      -0.500095       -13.6083
  50   2.0000      -0.489845       -13.3294
  51   2.0000      -0.482489       -13.1292
  52   2.0000      -0.475510       -12.9393
  53   2.0000      -0.462864       -12.5952
  54   2.0000      -0.459909       -12.5148
  55   2.0000      -0.452556       -12.3147
  56   2.0000      -0.444054       -12.0833
  57   2.0000      -0.436934       -11.8896
  58   2.0000      -0.430732       -11.7208
  59   2.0000      -0.419115       -11.4047
  60   2.0000      -0.416269       -11.3272
  61   2.0000      -0.406260       -11.0549
  62   2.0000      -0.399992       -10.8843
  63   2.0000      -0.344223        -9.3668
  64   2.0000      -0.332467        -9.0469
  65   2.0000      -0.326779        -8.8921
  66   2.0000      -0.301442        -8.2027
  67   0.0000       0.031621         0.8605
  68   0.0000       0.061982         1.6866
  69   0.0000       0.106773         2.9054
  70   0.0000       0.113364         3.0848
  71   0.0000       0.129255         3.5172

MULLIKEN ATOMIC CHARGES
-----------------------
   0 S :    0.117029
   1 C :   -0.121576
   2 C :   -0.084878
   3 C :    0.029798
   4 C :   -0.150150
   5 H :    0.031071
   6 C :    0.030553
   7 H :    0.030424
   8 H :    0.044224
   9 C :   -0.093573
  10 H :    0.023708
  11 H :    0.037325
  12 C :   -0.054697
  13 H :    0.029789
  14 H :    0.035525
  15 H :    0.044020
  16 S :    0.091164
  17 C :   -0.079777
  18 C :   -0.057395
  19 C :   -0.033339
  20 C :   -0.184160
  21 H :    0.043654
  22 C :    0.105126
  23 H :    0.012487
  24 H :    0.030917
  25 C :   -0.094348
  26 H :    0.038718
  27 H :    0.021419
  28 C :   -0.072636
  29 H :    0.026958
  30 H :    0.045778
  31 H :    0.046290
  32 H :    0.056591
  33 H :    0.053959
Sum of atomic charges:   -0.0000000

LOEWDIN ATOMIC CHARGES
----------------------
   0 S :    0.404694
   1 C :   -0.199251
   2 C :   -0.067477
   3 C :   -0.058148
   4 C :   -0.186428
   5 H :    0.039037
   6 C :   -0.031590
   7 H :    0.027495
   8 H :    0.036490
   9 C :   -0.052293
  10 H :    0.015668
  11 H :    0.027741
  12 C :   -0.073485
  13 H :    0.026960
  14 H :    0.028987
  15 H :    0.035449
  16 S :    0.379220
  17 C :   -0.168154
  18 C :   -0.071014
  19 C :   -0.068809
  20 C :   -0.187564
  21 H :    0.042282
  22 C :   -0.029228
  23 H :    0.019040
  24 H :    0.037970
  25 C :   -0.043803
  26 H :    0.029749
  27 H :    0.018470
  28 C :   -0.075993
  29 H :    0.028240
  30 H :    0.033013
  31 H :    0.023840
  32 H :    0.032763
  33 H :    0.026130

  Mayer bond orders larger than 0.100000
B(  0-S ,  1-C ) :   1.1494 B(  0-S ,  4-C ) :   1.1451 B(  1-C ,  2-C ) :   1.5961
B(  1-C ,  4-C ) :   0.1007 B(  1-C , 32-H ) :   0.9707 B(  2-C ,  3-C ) :   1.2684
B(  2-C ,  6-C ) :   1.0137 B(  3-C ,  4-C ) :   1.5478 B(  3-C ,  5-H ) :   0.9851
B(  4-C , 20-C ) :   1.0144 B(  6-C ,  7-H ) :   0.9526 B(  6-C ,  8-H ) :   0.9279
B(  6-C ,  9-C ) :   1.0810 B(  9-C , 10-H ) :   0.9504 B(  9-C , 11-H ) :   0.9452
B(  9-C , 12-C ) :   1.1006 B( 12-C , 13-H ) :   0.9665 B( 12-C , 14-H ) :   0.9689
B( 12-C , 15-H ) :   0.9653 B( 16-S , 17-C ) :   1.1251 B( 16-S , 20-C ) :   1.1364
B( 17-C , 18-C ) :   1.6416 B( 17-C , 33-H ) :   0.9734 B( 18-C , 19-C ) :   1.1908
B( 18-C , 21-H ) :   0.9786 B( 19-C , 20-C ) :   1.6312 B( 19-C , 22-C ) :   1.0760
B( 22-C , 23-H ) :   0.9240 B( 22-C , 24-H ) :   0.9198 B( 22-C , 25-C ) :   1.0740
B( 25-C , 26-H ) :   0.9569 B( 25-C , 27-H ) :   0.9502 B( 25-C , 28-C ) :   1.0720
B( 28-C , 29-H ) :   0.9777 B( 28-C , 30-H ) :   0.9710 B( 28-C , 31-H ) :   0.9711

Dispersion correction           -0.015305693
FINAL SINGLE POINT ENERGY     -1339.874933678339

DIPOLE MOMENT
-------------
                                X             Y             Z
Electronic contribution:     22.08818       4.05854      -5.99560
Nuclear contribution   :    -22.60430      -4.04985       5.99322
                        -----------------------------------------
Total Dipole Moment    :     -0.51612       0.00869      -0.00238
                        -----------------------------------------
Magnitude (a.u.)       :      0.51620
Magnitude (Debye)      :      1.31207

Rotational constants in cm-1:     0.019948     0.008121     0.008002
Rotational constants in MHz :   598.035116   243.453199   239.887667

                             ****ORCA TERMINATED NORMALLY****
TOTAL RUN TIME: 0 days 0 hours 0 minutes 37 seconds 810 msec
