                         Program Version 4.2.1 -  RELEASE  -
|  1> ! wB97X-D3 SP def2-SVP
|  2> %pal
|  3> nprocs 16
|  4> end
|  5>
|  6> * xyz 0 1
|  7> S 	 18.4941 	 -9.03557 	 81.7066
|  8> C 	 18.807 	 -10.5623 	 82.5107
|  9> C 	 19.0146 	 -11.5293 	 81.5421
| 10> C 	 19.1317 	 -11.0096 	 80.2384
| 11> C 	 18.8034 	 -9.68928 	 80.1075
| 12> H 	 19.4836 	 -11.4773 	 79.3599
| 13> C 	 19.643 	 -12.9203 	 81.901
| 14> H 	 20.5537 	 -12.6348 	 82.4601
| 15> H 	 19.9506 	 -13.3408 	 80.9701
| 16> C 	 18.7373 	 -13.8928 	 82.7344
| 17> H 	 18.4711 	 -13.3791 	 83.6307
| 18> H 	 17.8124 	 -14.0037 	 82.1575
| 19> C 	 19.475 	 -15.1993 	 83.1236
| 20> H 	 20.2394 	 -15.0114 	 83.8909
| 21> H 	 18.9404 	 -16.0752 	 83.4075
| 22> H 	 19.8992 	 -15.6305 	 82.2339
| 23> S 	 19.8305 	 -7.35105 	 79.0692
| 24> C 	 19.8625 	 -7.15063 	 77.3277
| 25> C 	 19.222 	 -8.17238 	 76.66
| 26> C 	 18.7837 	 -9.2255 	 77.561
| 27> C 	 18.9758 	 -8.89926 	 78.875
| 28> H 	 19.1528 	 -8.13129 	 75.6009
| 29> C 	 18.0387 	 -10.4165 	 77.0745
| 30> H 	 17.2783 	 -10.0608 	 76.4152
| 31> H 	 17.5164 	 -10.6718 	 78.0093
| 32> C 	 18.7756 	 -11.5726 	 76.3897
| 33> H 	 19.551 	 -11.9529 	 77.1311
| 34> H 	 19.3147 	 -11.2756 	 75.414
| 35> C 	 17.9316 	 -12.7938 	 76.0597
| 36> H 	 17.1836 	 -12.6715 	 75.2361
| 37> H 	 17.3383 	 -13.0905 	 76.9016
| 38> H 	 18.5996 	 -13.6163 	 75.7663
| 39> H 	 19.1377 	 -10.664 	 83.5398
| 40> H 	 20.3043 	 -6.22117 	 76.8624
| 41> *
| 42>
| 43>                          ****END OF INPUT****

CARTESIAN COORDINATES (ANGSTROEM)
---------------------------------
  S     18.494100   -9.035570   81.706600
  C     18.807000  -10.562300   82.510700
  C     19.014600  -11.529300   81.542100
  C     19.131700  -11.009600   80.238400
  C     18.803400   -9.689280   80.107500
  H     19.483600  -11.477300   79.359900
  C     19.643000  -12.920300   81.901000
  H     20.553700  -12.634800   82.460100
  H     19.950600  -13.340800   80.970100
  C     18.737300  -13.892800   82.734400
  H     18.471100  -13.379100   83.630700
  H     17.812400  -14.003700   82.157500
  C     19.475000  -15.199300   83.123600
  H     20.239400  -15.011400   83.890900
  H     18.940400  -16.075200   83.407500
  H     19.899200  -15.630500   82.233900
  S     19.830500   -7.351050   79.069200
  C     19.862500   -7.150630   77.327700
  C     19.222000   -8.172380   76.660000
  C     18.783700   -9.225500   77.561000
  C     18.975800   -8.899260   78.875000
  H     19.152800   -8.131290   75.600900
  C     18.038700  -10.416500   77.074500
  H     17.278300  -10.060800   76.415200
  H     17.516400  -10.671800   78.009300
  C     18.775600  -11.572600   76.389700
  H     19.551000  -11.952900   77.131100
  H     19.314700  -11.275600   75.414000
  C     17.931600  -12.793800   76.059700
  H     17.183600  -12.671500   75.236100
  H     17.338300  -13.090500   76.901600
  H     18.599600  -13.616300   75.766300
  H     19.137700  -10.664000   83.539800
  H     20.304300   -6.221170   76.862400

 Total Charge           Charge          ....    0
 Multiplicity           Mult            ....    1
 Number of Electrons    NEL             ....  134
 Basis Dimension        Dim             ....  322

ORBITAL ENERGIES
----------------

  NO   OCC          E(Eh)            E(eV)
   0   2.0000     -88.966049     -2420.8893
   1   2.0000     -88.964058     -2420.8351
   2   2.0000     -10.329546      -281.0812
   3   2.0000     -10.329383      -281.0768
   4   2.0000     -10.323663      -280.9212
   5   2.0000     -10.315360      -280.6952
   6   2.0000     -10.304953      -280.4120
   7   2.0000     -10.302439      -280.3436
   8   2.0000     -10.302041      -280.3328
   9   2.0000     -10.295298      -280.1493
  10   2.0000     -10.294678      -280.1324
  11   2.0000     -10.289854      -280.0012
  12   2.0000     -10.288911      -279.9755
  13   2.0000     -10.288857      -279.9740
  14   2.0000     -10.281475      -279.7731
  15   2.0000     -10.277420      -279.6628
  16   2.0000      -8.080507      -219.8818
  17   2.0000      -8.078713      -219.8330
  18   2.0000      -6.039112      -164.3326
  19   2.0000      -6.037263      -164.2823
  20   2.0000      -6.034927      -164.2187
  21   2.0000      -6.033359      -164.1760
  22   2.0000      -6.031306      -164.1202
  23   2.0000      -6.029300      -164.0656
  24   2.0000      -1.008285       -27.4368
  25   2.0000      -0.985012       -26.8035
  26   2.0000      -0.911593       -24.8057
  27   2.0000      -0.903342       -24.5812
  28   2.0000      -0.869823       -23.6691
  29   2.0000      -0.856457       -23.3054
  30   2.0000      -0.847035       -23.0490
  31   2.0000      -0.817263       -22.2388
  32   2.0000      -0.783072       -21.3085
  33   2.0000      -0.772003       -21.0073
  34   2.0000      -0.708749       -19.2860
  35   2.0000      -0.702255       -19.1093
  36   2.0000      -0.691791       -18.8246
  37   2.0000      -0.666163       -18.1272
  38   2.0000      -0.643800       -17.5187
  39   2.0000      -0.614655       -16.7256
  40   2.0000      -0.592102       -16.1119
  41   2.0000      -0.569066       -15.4851
  42   2.0000      -0.568067       -15.4579
  43   2.0000      -0.558871       -15.2077
  44   2.0000      -0.533824       -14.5261
  45   2.0000      -0.525061       -14.2876
  46   2.0000      -0.517930       -14.0936
  47   2.0000      -0.513488       -13.9727
  48   2.0000      -0.506757       -13.7896
  49   2.0000      -0.502107       -13.6630
  50   2.0000      -0.491038       -13.3618
  51   2.0000      -0.479980       -13.0609
  52   2.0000      -0.475147       -12.9294
  53   2.0000      -0.464926       -12.6513
  54   2.0000      -0.460297       -12.5253
  55   2.0000      -0.451203       -12.2778
  56   2.0000      -0.442959       -12.0535
  57   2.0000      -0.434678       -11.8282
  58   2.0000      -0.431684       -11.7467
  59   2.0000      -0.425037       -11.5658
  60   2.0000      -0.421653       -11.4738
  61   2.0000      -0.414674       -11.2838
  62   2.0000      -0.413312       -11.2468
  63   2.0000      -0.351597        -9.5674
  64   2.0000      -0.332688        -9.0529
  65   2.0000      -0.330620        -8.9966
  66   2.0000      -0.292853        -7.9689
  67   0.0000       0.022630         0.6158
  68   0.0000       0.073617         2.0032
  69   0.0000       0.110401         3.0042
  70   0.0000       0.118385         3.2214
  71   0.0000       0.130798         3.5592

MULLIKEN ATOMIC CHARGES
-----------------------
   0 S :    0.100507
   1 C :   -0.127928
   2 C :   -0.059033
   3 C :    0.024927
   4 C :   -0.137869
   5 H :   -0.019614
   6 C :    0.016951
   7 H :    0.041949
   8 H :    0.012728
   9 C :   -0.048866
  10 H :    0.020544
  11 H :    0.035067
  12 C :   -0.031308
  13 H :    0.038897
  14 H :    0.024349
  15 H :    0.014626
  16 S :    0.093308
  17 C :   -0.117939
  18 C :   -0.003188
  19 C :   -0.047120
  20 C :   -0.129963
  21 H :    0.009150
  22 C :    0.049605
  23 H :    0.020125
  24 H :    0.032341
  25 C :   -0.098381
  26 H :    0.038803
  27 H :    0.045328
  28 C :   -0.045947
  29 H :    0.033773
  30 H :    0.024184
  31 H :    0.041068
  32 H :    0.069248
  33 H :    0.079678
Sum of atomic charges:   -0.0000000

LOEWDIN ATOMIC CHARGES
----------------------
   0 S :    0.399660
   1 C :   -0.199148
   2 C :   -0.063799
   3 C :   -0.064374
   4 C :   -0.192102
   5 H :    0.023494
   6 C :   -0.024040
   7 H :    0.033856
   8 H :    0.019377
   9 C :   -0.035995
  10 H :    0.018104
  11 H :    0.027904
  12 C :   -0.070905
  13 H :    0.030168
  14 H :    0.024754
  15 H :    0.023901
  16 S :    0.384576
  17 C :   -0.182789
  18 C :   -0.067134
  19 C :   -0.053281
  20 C :   -0.184360
  21 H :    0.027830
  22 C :   -0.042117
  23 H :    0.029965
  24 H :    0.037776
  25 C :   -0.047586
  26 H :    0.027395
  27 H :    0.034171
  28 C :   -0.069557
  29 H :    0.026841
  30 H :    0.021153
  31 H :    0.031025
  32 H :    0.034800
  33 H :    0.040439

  Mayer bond orders larger than 0.100000
B(  0-S ,  1-C ) :   1.1458 B(  0-S ,  4-C ) :   1.1465 B(  1-C ,  2-C ) :   1.5824
B(  1-C , 32-H ) :   0.9666 B(  2-C ,  3-C ) :   1.2561 B(  2-C ,  6-C ) :   1.0114
B(  3-C ,  4-C ) :   1.5657 B(  3-C ,  5-H ) :   0.9982 B(  4-C , 20-C ) :   1.0351
B(  6-C ,  7-H ) :   0.9508 B(  6-C ,  8-H ) :   0.9510 B(  6-C ,  9-C ) :   1.0483
B(  9-C , 10-H ) :   0.9612 B(  9-C , 11-H ) :   0.9599 B(  9-C , 12-C ) :   1.0702
B( 12-C , 13-H ) :   0.9765 B( 12-C , 14-H ) :   0.9745 B( 12-C , 15-H ) :   0.9727
B( 16-S , 17-C ) :   1.1487 B( 16-S , 20-C ) :   1.1161 B( 17-C , 18-C ) :   1.6338
B( 17-C , 33-H ) :   0.9586 B( 18-C , 19-C ) :   1.1926 B( 18-C , 21-H ) :   0.9987
B( 19-C , 20-C ) :   1.6385 B( 19-C , 22-C ) :   1.0430 B( 22-C , 23-H ) :   0.9293
B( 22-C , 24-H ) :   0.9336 B( 22-C , 25-C ) :   1.0596 B( 25-C , 26-H ) :   0.9491
B( 25-C , 27-H ) :   0.9499 B( 25-C , 28-C ) :   1.0875 B( 28-C , 29-H ) :   0.9735
B( 28-C , 30-H ) :   0.9724 B( 28-C , 31-H ) :   0.9740

Dispersion correction           -0.013718227
FINAL SINGLE POINT ENERGY     -1339.872280785394

DIPOLE MOMENT
-------------
                                X             Y             Z
Electronic contribution:      1.40630      31.53492       4.53042
Nuclear contribution   :     -1.17253     -32.10716      -4.90724
                        -----------------------------------------
Total Dipole Moment    :      0.23377      -0.57224      -0.37683
                        -----------------------------------------
Magnitude (a.u.)       :      0.72395
Magnitude (Debye)      :      1.84014

Rotational constants in cm-1:     0.017814     0.008444     0.006066
Rotational constants in MHz :   534.062335   253.138666   181.859580

                             ****ORCA TERMINATED NORMALLY****
TOTAL RUN TIME: 0 days 0 hours 0 minutes 29 seconds 827 msec
