                         Program Version 4.2.1 -  RELEASE  -
|  1> ! wB97X-D3 SP def2-SVP
|  2> %pal
|  3> nprocs 16
|  4> end
|  5>
|  6> * xyz 0 1
|  7> S 	 -43.7354 	 26.0751 	 86.3895
|  8> C 	 -44.7225 	 26.9211 	 85.2539
|  9> C 	 -44.0762 	 27.0328 	 83.9966
| 10> C 	 -42.7386 	 26.5233 	 84.0853
| 11> C 	 -42.3576 	 26.0001 	 85.3024
| 12> H 	 -42.0089 	 26.6165 	 83.2917
| 13> C 	 -44.5692 	 27.6809 	 82.7641
| 14> H 	 -44.4889 	 28.8075 	 83.0652
| 15> H 	 -45.6529 	 27.5314 	 82.731
| 16> C 	 -44.0656 	 27.1704 	 81.4168
| 17> H 	 -44.6731 	 27.5878 	 80.5625
| 18> H 	 -43.098 	 27.54 	 81.3688
| 19> C 	 -44.1284 	 25.6816 	 81.3052
| 20> H 	 -43.3372 	 25.1104 	 81.8233
| 21> H 	 -45.0711 	 25.2384 	 81.7093
| 22> H 	 -44.0176 	 25.3138 	 80.3019
| 23> S 	 -41.38 	 23.8909 	 86.8552
| 24> C 	 -39.8115 	 23.1415 	 86.4629
| 25> C 	 -39.099 	 23.9442 	 85.6096
| 26> C 	 -39.8761 	 25.0307 	 85.0261
| 27> C 	 -41.1717 	 25.1465 	 85.5819
| 28> H 	 -38.0845 	 23.6704 	 85.4037
| 29> C 	 -39.2487 	 25.8521 	 83.8831
| 30> H 	 -38.2489 	 26.232 	 84.2621
| 31> H 	 -39.9051 	 26.7329 	 83.6738
| 32> C 	 -38.8872 	 25.1951 	 82.5457
| 33> H 	 -38.152 	 24.421 	 82.6209
| 34> H 	 -38.5773 	 26.0429 	 81.9393
| 35> C 	 -40.0387 	 24.4792 	 81.822
| 36> H 	 -40.2991 	 23.5319 	 82.3031
| 37> H 	 -39.6347 	 24.2373 	 80.8099
| 38> H 	 -40.9247 	 25.1405 	 81.7362
| 39> H 	 -45.7082 	 27.2534 	 85.3953
| 40> H 	 -39.3698 	 22.3398 	 87.1269
| 41> *
| 42>
| 43>                          ****END OF INPUT****

CARTESIAN COORDINATES (ANGSTROEM)
---------------------------------
  S    -43.735400   26.075100   86.389500
  C    -44.722500   26.921100   85.253900
  C    -44.076200   27.032800   83.996600
  C    -42.738600   26.523300   84.085300
  C    -42.357600   26.000100   85.302400
  H    -42.008900   26.616500   83.291700
  C    -44.569200   27.680900   82.764100
  H    -44.488900   28.807500   83.065200
  H    -45.652900   27.531400   82.731000
  C    -44.065600   27.170400   81.416800
  H    -44.673100   27.587800   80.562500
  H    -43.098000   27.540000   81.368800
  C    -44.128400   25.681600   81.305200
  H    -43.337200   25.110400   81.823300
  H    -45.071100   25.238400   81.709300
  H    -44.017600   25.313800   80.301900
  S    -41.380000   23.890900   86.855200
  C    -39.811500   23.141500   86.462900
  C    -39.099000   23.944200   85.609600
  C    -39.876100   25.030700   85.026100
  C    -41.171700   25.146500   85.581900
  H    -38.084500   23.670400   85.403700
  C    -39.248700   25.852100   83.883100
  H    -38.248900   26.232000   84.262100
  H    -39.905100   26.732900   83.673800
  C    -38.887200   25.195100   82.545700
  H    -38.152000   24.421000   82.620900
  H    -38.577300   26.042900   81.939300
  C    -40.038700   24.479200   81.822000
  H    -40.299100   23.531900   82.303100
  H    -39.634700   24.237300   80.809900
  H    -40.924700   25.140500   81.736200
  H    -45.708200   27.253400   85.395300
  H    -39.369800   22.339800   87.126900

 Total Charge           Charge          ....    0
 Multiplicity           Mult            ....    1
 Number of Electrons    NEL             ....  134
 Basis Dimension        Dim             ....  322

ORBITAL ENERGIES
----------------

  NO   OCC          E(Eh)            E(eV)
   0   2.0000     -88.968567     -2420.9578
   1   2.0000     -88.962622     -2420.7960
   2   2.0000     -10.341244      -281.3995
   3   2.0000     -10.333866      -281.1988
   4   2.0000     -10.323790      -280.9246
   5   2.0000     -10.313682      -280.6496
   6   2.0000     -10.313329      -280.6399
   7   2.0000     -10.303923      -280.3840
   8   2.0000     -10.302281      -280.3393
   9   2.0000     -10.297856      -280.2189
  10   2.0000     -10.297417      -280.2070
  11   2.0000     -10.292980      -280.0862
  12   2.0000     -10.290167      -280.0097
  13   2.0000     -10.287255      -279.9304
  14   2.0000     -10.280737      -279.7531
  15   2.0000     -10.277351      -279.6609
  16   2.0000      -8.083191      -219.9548
  17   2.0000      -8.076387      -219.7697
  18   2.0000      -6.041785      -164.4053
  19   2.0000      -6.037601      -164.2915
  20   2.0000      -6.035170      -164.2253
  21   2.0000      -6.033995      -164.1933
  22   2.0000      -6.031088      -164.1143
  23   2.0000      -6.026864      -163.9993
  24   2.0000      -1.002232       -27.2721
  25   2.0000      -0.977547       -26.6004
  26   2.0000      -0.921461       -25.0742
  27   2.0000      -0.906721       -24.6731
  28   2.0000      -0.868916       -23.6444
  29   2.0000      -0.850029       -23.1305
  30   2.0000      -0.840945       -22.8833
  31   2.0000      -0.817741       -22.2519
  32   2.0000      -0.781377       -21.2623
  33   2.0000      -0.773441       -21.0464
  34   2.0000      -0.712609       -19.3911
  35   2.0000      -0.699710       -19.0401
  36   2.0000      -0.686833       -18.6897
  37   2.0000      -0.654947       -17.8220
  38   2.0000      -0.636756       -17.3270
  39   2.0000      -0.628820       -17.1111
  40   2.0000      -0.594986       -16.1904
  41   2.0000      -0.571257       -15.5447
  42   2.0000      -0.558384       -15.1944
  43   2.0000      -0.548900       -14.9363
  44   2.0000      -0.542860       -14.7720
  45   2.0000      -0.541806       -14.7433
  46   2.0000      -0.518883       -14.1195
  47   2.0000      -0.508737       -13.8434
  48   2.0000      -0.503569       -13.7028
  49   2.0000      -0.498462       -13.5638
  50   2.0000      -0.494749       -13.4628
  51   2.0000      -0.475566       -12.9408
  52   2.0000      -0.471901       -12.8411
  53   2.0000      -0.466172       -12.6852
  54   2.0000      -0.459293       -12.4980
  55   2.0000      -0.445970       -12.1355
  56   2.0000      -0.445136       -12.1128
  57   2.0000      -0.436112       -11.8672
  58   2.0000      -0.429495       -11.6872
  59   2.0000      -0.423146       -11.5144
  60   2.0000      -0.421170       -11.4606
  61   2.0000      -0.413230       -11.2446
  62   2.0000      -0.408517       -11.1163
  63   2.0000      -0.360722        -9.8157
  64   2.0000      -0.331765        -9.0278
  65   2.0000      -0.321167        -8.7394
  66   2.0000      -0.282729        -7.6935
  67   0.0000       0.019437         0.5289
  68   0.0000       0.074384         2.0241
  69   0.0000       0.103047         2.8041
  70   0.0000       0.112879         3.0716
  71   0.0000       0.123012         3.3473

MULLIKEN ATOMIC CHARGES
-----------------------
   0 S :    0.108353
   1 C :   -0.089517
   2 C :   -0.111341
   3 C :    0.000791
   4 C :   -0.090782
   5 H :   -0.016782
   6 C :    0.014059
   7 H :    0.068360
   8 H :    0.020019
   9 C :   -0.025850
  10 H :    0.047340
  11 H :    0.017732
  12 C :   -0.069243
  13 H :    0.040876
  14 H :    0.035503
  15 H :    0.028472
  16 S :    0.065655
  17 C :   -0.109978
  18 C :   -0.026947
  19 C :   -0.045504
  20 C :   -0.123496
  21 H :    0.019067
  22 C :    0.009190
  23 H :    0.042531
  24 H :    0.034633
  25 C :   -0.053234
  26 H :    0.025149
  27 H :    0.035690
  28 C :   -0.072667
  29 H :    0.048888
  30 H :    0.035277
  31 H :    0.026814
  32 H :    0.026360
  33 H :    0.084581
Sum of atomic charges:    0.0000000

LOEWDIN ATOMIC CHARGES
----------------------
   0 S :    0.417744
   1 C :   -0.200604
   2 C :   -0.061048
   3 C :   -0.065659
   4 C :   -0.192050
   5 H :    0.019974
   6 C :   -0.049176
   7 H :    0.053273
   8 H :    0.028793
   9 C :   -0.039149
  10 H :    0.039687
  11 H :    0.013576
  12 C :   -0.071410
  13 H :    0.029109
  14 H :    0.032898
  15 H :    0.024914
  16 S :    0.358833
  17 C :   -0.182514
  18 C :   -0.069624
  19 C :   -0.062847
  20 C :   -0.169720
  21 H :    0.030026
  22 C :   -0.041189
  23 H :    0.041732
  24 H :    0.030596
  25 C :   -0.039951
  26 H :    0.020043
  27 H :    0.029210
  28 C :   -0.067458
  29 H :    0.028706
  30 H :    0.030563
  31 H :    0.019740
  32 H :    0.019484
  33 H :    0.043499

  Mayer bond orders larger than 0.100000
B(  0-S ,  1-C ) :   1.1528 B(  0-S ,  4-C ) :   1.1514 B(  1-C ,  2-C ) :   1.5700
B(  1-C , 32-H ) :   0.9752 B(  2-C ,  3-C ) :   1.2835 B(  2-C ,  6-C ) :   1.0184
B(  3-C ,  4-C ) :   1.5488 B(  3-C ,  5-H ) :   0.9809 B(  4-C , 20-C ) :   1.0585
B(  6-C ,  7-H ) :   0.9373 B(  6-C ,  8-H ) :   0.9357 B(  6-C ,  9-C ) :   1.0625
B(  9-C , 10-H ) :   0.9554 B(  9-C , 11-H ) :   0.9470 B(  9-C , 12-C ) :   1.0847
B( 12-C , 13-H ) :   0.9614 B( 12-C , 14-H ) :   0.9716 B( 12-C , 15-H ) :   0.9723
B( 16-S , 17-C ) :   1.1314 B( 16-S , 20-C ) :   1.1216 B( 17-C , 18-C ) :   1.6448
B( 17-C , 33-H ) :   0.9557 B( 18-C , 19-C ) :   1.2074 B( 18-C , 21-H ) :   0.9919
B( 19-C , 20-C ) :   1.6054 B( 19-C , 22-C ) :   1.0415 B( 22-C , 23-H ) :   0.9326
B( 22-C , 24-H ) :   0.9370 B( 22-C , 25-C ) :   1.0772 B( 25-C , 26-H ) :   0.9528
B( 25-C , 27-H ) :   0.9526 B( 25-C , 28-C ) :   1.0836 B( 28-C , 29-H ) :   0.9741
B( 28-C , 30-H ) :   0.9704 B( 28-C , 31-H ) :   0.9705

Dispersion correction           -0.015709654
FINAL SINGLE POINT ENERGY     -1339.869705999013

DIPOLE MOMENT
-------------
                                X             Y             Z
Electronic contribution:     -3.72912      -3.64910      28.98562
Nuclear contribution   :      3.97804       3.78259     -29.73049
                        -----------------------------------------
Total Dipole Moment    :      0.24892       0.13349      -0.74487
                        -----------------------------------------
Magnitude (a.u.)       :      0.79663
Magnitude (Debye)      :      2.02487

Rotational constants in cm-1:     0.017472     0.010970     0.007457
Rotational constants in MHz :   523.799834   328.881436   223.548317

                             ****ORCA TERMINATED NORMALLY****
TOTAL RUN TIME: 0 days 0 hours 0 minutes 32 seconds 668 msec
