                         Program Version 4.2.1 -  RELEASE  -
|  1> ! wB97X-D3 SP def2-SVP
|  2> %pal
|  3> nprocs 16
|  4> end
|  5>
|  6> * xyz 0 1
|  7> S 	 -96.2877 	 52.9154 	 124.1
|  8> C 	 -97.852 	 53.2455 	 124.731
|  9> C 	 -97.9703 	 52.8638 	 126.054
| 10> C 	 -96.8795 	 52.1031 	 126.552
| 11> C 	 -95.8714 	 52.0567 	 125.597
| 12> H 	 -96.7914 	 51.7028 	 127.627
| 13> C 	 -99.2255 	 53.1691 	 126.888
| 14> H 	 -99.1183 	 52.9487 	 127.962
| 15> H 	 -100.074 	 52.5445 	 126.508
| 16> C 	 -99.665 	 54.648 	 126.879
| 17> H 	 -98.7753 	 55.2297 	 127.136
| 18> H 	 -99.9492 	 55.0112 	 125.908
| 19> C 	 -100.852 	 54.9471 	 127.865
| 20> H 	 -101.083 	 56.0361 	 127.927
| 21> H 	 -101.687 	 54.3591 	 127.547
| 22> H 	 -100.361 	 54.7439 	 128.821
| 23> S 	 -93.1532 	 52.408 	 125.251
| 24> C 	 -92.0718 	 51.0785 	 125.619
| 25> C 	 -92.6835 	 50.0311 	 126.345
| 26> C 	 -94.1352 	 50.2212 	 126.367
| 27> C 	 -94.5261 	 51.4079 	 125.707
| 28> H 	 -92.0383 	 49.254 	 126.62
| 29> C 	 -95.0493 	 49.1151 	 126.943
| 30> H 	 -95.5412 	 49.5815 	 127.799
| 31> H 	 -94.3808 	 48.2841 	 127.275
| 32> C 	 -96.1008 	 48.4827 	 125.942
| 33> H 	 -95.5012 	 47.996 	 125.222
| 34> H 	 -96.6083 	 49.217 	 125.384
| 35> C 	 -97.0007 	 47.388 	 126.512
| 36> H 	 -97.5432 	 47.7835 	 127.385
| 37> H 	 -96.4317 	 46.532 	 126.851
| 38> H 	 -97.7812 	 47.2206 	 125.806
| 39> H 	 -98.5947 	 53.6898 	 124.081
| 40> H 	 -91.0141 	 51.0532 	 125.369
| 41> *
| 42>
| 43>                          ****END OF INPUT****

CARTESIAN COORDINATES (ANGSTROEM)
---------------------------------
  S    -96.287700   52.915400  124.100000
  C    -97.852000   53.245500  124.731000
  C    -97.970300   52.863800  126.054000
  C    -96.879500   52.103100  126.552000
  C    -95.871400   52.056700  125.597000
  H    -96.791400   51.702800  127.627000
  C    -99.225500   53.169100  126.888000
  H    -99.118300   52.948700  127.962000
  H    -100.074000   52.544500  126.508000
  C    -99.665000   54.648000  126.879000
  H    -98.775300   55.229700  127.136000
  H    -99.949200   55.011200  125.908000
  C    -100.852000   54.947100  127.865000
  H    -101.083000   56.036100  127.927000
  H    -101.687000   54.359100  127.547000
  H    -100.361000   54.743900  128.821000
  S    -93.153200   52.408000  125.251000
  C    -92.071800   51.078500  125.619000
  C    -92.683500   50.031100  126.345000
  C    -94.135200   50.221200  126.367000
  C    -94.526100   51.407900  125.707000
  H    -92.038300   49.254000  126.620000
  C    -95.049300   49.115100  126.943000
  H    -95.541200   49.581500  127.799000
  H    -94.380800   48.284100  127.275000
  C    -96.100800   48.482700  125.942000
  H    -95.501200   47.996000  125.222000
  H    -96.608300   49.217000  125.384000
  C    -97.000700   47.388000  126.512000
  H    -97.543200   47.783500  127.385000
  H    -96.431700   46.532000  126.851000
  H    -97.781200   47.220600  125.806000
  H    -98.594700   53.689800  124.081000
  H    -91.014100   51.053200  125.369000

 Total Charge           Charge          ....    0
 Multiplicity           Mult            ....    1
 Number of Electrons    NEL             ....  134
 Basis Dimension        Dim             ....  322

ORBITAL ENERGIES
----------------

  NO   OCC          E(Eh)            E(eV)
   0   2.0000     -88.968861     -2420.9658
   1   2.0000     -88.966994     -2420.9150
   2   2.0000     -10.335327      -281.2386
   3   2.0000     -10.329632      -281.0836
   4   2.0000     -10.318221      -280.7731
   5   2.0000     -10.312479      -280.6168
   6   2.0000     -10.312000      -280.6038
   7   2.0000     -10.304608      -280.4026
   8   2.0000     -10.303643      -280.3764
   9   2.0000     -10.298051      -280.2242
  10   2.0000     -10.297132      -280.1992
  11   2.0000     -10.296727      -280.1882
  12   2.0000     -10.283654      -279.8325
  13   2.0000     -10.282281      -279.7951
  14   2.0000     -10.275806      -279.6189
  15   2.0000     -10.274134      -279.5734
  16   2.0000      -8.083753      -219.9701
  17   2.0000      -8.081409      -219.9063
  18   2.0000      -6.042063      -164.4129
  19   2.0000      -6.039905      -164.3542
  20   2.0000      -6.038298      -164.3104
  21   2.0000      -6.036092      -164.2504
  22   2.0000      -6.034664      -164.2116
  23   2.0000      -6.032086      -164.1414
  24   2.0000      -1.003002       -27.2931
  25   2.0000      -0.978756       -26.6333
  26   2.0000      -0.905485       -24.6395
  27   2.0000      -0.899664       -24.4811
  28   2.0000      -0.861284       -23.4367
  29   2.0000      -0.853669       -23.2295
  30   2.0000      -0.846875       -23.0446
  31   2.0000      -0.811196       -22.0738
  32   2.0000      -0.778322       -21.1792
  33   2.0000      -0.764449       -20.8017
  34   2.0000      -0.705409       -19.1952
  35   2.0000      -0.697700       -18.9854
  36   2.0000      -0.683827       -18.6079
  37   2.0000      -0.662577       -18.0296
  38   2.0000      -0.639876       -17.4119
  39   2.0000      -0.615716       -16.7545
  40   2.0000      -0.583865       -15.8878
  41   2.0000      -0.573458       -15.6046
  42   2.0000      -0.568471       -15.4689
  43   2.0000      -0.559651       -15.2289
  44   2.0000      -0.526479       -14.3262
  45   2.0000      -0.518600       -14.1118
  46   2.0000      -0.513551       -13.9744
  47   2.0000      -0.506428       -13.7806
  48   2.0000      -0.500383       -13.6161
  49   2.0000      -0.493891       -13.4395
  50   2.0000      -0.489458       -13.3188
  51   2.0000      -0.488177       -13.2840
  52   2.0000      -0.474672       -12.9165
  53   2.0000      -0.462675       -12.5900
  54   2.0000      -0.456211       -12.4141
  55   2.0000      -0.449802       -12.2397
  56   2.0000      -0.443377       -12.0649
  57   2.0000      -0.432873       -11.7791
  58   2.0000      -0.426857       -11.6154
  59   2.0000      -0.422358       -11.4930
  60   2.0000      -0.420674       -11.4471
  61   2.0000      -0.416556       -11.3351
  62   2.0000      -0.415542       -11.3075
  63   2.0000      -0.348333        -9.4786
  64   2.0000      -0.333626        -9.0784
  65   2.0000      -0.328956        -8.9513
  66   2.0000      -0.285027        -7.7560
  67   0.0000       0.025115         0.6834
  68   0.0000       0.069079         1.8797
  69   0.0000       0.100651         2.7389
  70   0.0000       0.117359         3.1935
  71   0.0000       0.136585         3.7167

MULLIKEN ATOMIC CHARGES
-----------------------
   0 S :    0.115396
   1 C :   -0.133234
   2 C :   -0.066636
   3 C :    0.000958
   4 C :   -0.160587
   5 H :    0.054776
   6 C :    0.044738
   7 H :    0.016201
   8 H :    0.043988
   9 C :   -0.109744
  10 H :    0.030995
  11 H :    0.018526
  12 C :   -0.046571
  13 H :    0.042479
  14 H :    0.042291
  15 H :    0.031442
  16 S :    0.106805
  17 C :   -0.108754
  18 C :   -0.023806
  19 C :   -0.045102
  20 C :   -0.133702
  21 H :    0.006122
  22 C :    0.051617
  23 H :    0.029769
  24 H :    0.025918
  25 C :   -0.055261
  26 H :    0.014744
  27 H :    0.030068
  28 C :   -0.024344
  29 H :    0.017903
  30 H :    0.036183
  31 H :    0.032652
  32 H :    0.055499
  33 H :    0.058673
Sum of atomic charges:    0.0000000

LOEWDIN ATOMIC CHARGES
----------------------
   0 S :    0.413098
   1 C :   -0.204549
   2 C :   -0.065245
   3 C :   -0.071286
   4 C :   -0.185241
   5 H :    0.052407
   6 C :   -0.036491
   7 H :    0.027246
   8 H :    0.035241
   9 C :   -0.043618
  10 H :    0.023582
  11 H :    0.011451
  12 C :   -0.063513
  13 H :    0.032297
  14 H :    0.023412
  15 H :    0.026691
  16 S :    0.399476
  17 C :   -0.185118
  18 C :   -0.064370
  19 C :   -0.052901
  20 C :   -0.202810
  21 H :    0.025044
  22 C :   -0.029816
  23 H :    0.025075
  24 H :    0.033060
  25 C :   -0.034181
  26 H :    0.020450
  27 H :    0.019086
  28 C :   -0.060155
  29 H :    0.023696
  30 H :    0.025410
  31 H :    0.027802
  32 H :    0.027119
  33 H :    0.027652

  Mayer bond orders larger than 0.100000
B(  0-S ,  1-C ) :   1.1460 B(  0-S ,  4-C ) :   1.1683 B(  1-C ,  2-C ) :   1.5861
B(  1-C ,  4-C ) :   0.1008 B(  1-C , 32-H ) :   0.9747 B(  2-C ,  3-C ) :   1.2651
B(  2-C ,  6-C ) :   1.0177 B(  3-C ,  4-C ) :   1.5572 B(  3-C ,  5-H ) :   0.9782
B(  4-C , 20-C ) :   1.0193 B(  6-C ,  7-H ) :   0.9495 B(  6-C ,  8-H ) :   0.9369
B(  6-C ,  9-C ) :   1.0547 B(  9-C , 10-H ) :   0.9613 B(  9-C , 11-H ) :   0.9550
B(  9-C , 12-C ) :   1.0746 B( 12-C , 13-H ) :   0.9751 B( 12-C , 14-H ) :   0.9770
B( 12-C , 15-H ) :   0.9776 B( 16-S , 17-C ) :   1.1530 B( 16-S , 20-C ) :   1.1443
B( 17-C , 18-C ) :   1.6256 B( 17-C , 33-H ) :   0.9651 B( 18-C , 19-C ) :   1.2176
B( 18-C , 21-H ) :   0.9983 B( 19-C , 20-C ) :   1.5988 B( 19-C , 22-C ) :   1.0332
B( 22-C , 23-H ) :   0.9320 B( 22-C , 24-H ) :   0.9438 B( 22-C , 25-C ) :   1.0561
B( 25-C , 26-H ) :   0.9522 B( 25-C , 27-H ) :   0.9596 B( 25-C , 28-C ) :   1.0895
B( 28-C , 29-H ) :   0.9747 B( 28-C , 30-H ) :   0.9754 B( 28-C , 31-H ) :   0.9713

Dispersion correction           -0.013950601
FINAL SINGLE POINT ENERGY     -1339.870850614474

DIPOLE MOMENT
-------------
                                X             Y             Z
Electronic contribution:     22.52332       7.94944     -13.76986
Nuclear contribution   :    -22.83833      -8.19607      14.06869
                        -----------------------------------------
Total Dipole Moment    :     -0.31500      -0.24664       0.29883
                        -----------------------------------------
Magnitude (a.u.)       :      0.49935
Magnitude (Debye)      :      1.26926

Rotational constants in cm-1:     0.018853     0.007962     0.006387
Rotational constants in MHz :   565.190447   238.704695   191.466976

                             ****ORCA TERMINATED NORMALLY****
TOTAL RUN TIME: 0 days 0 hours 0 minutes 33 seconds 497 msec
