                         Program Version 4.2.1 -  RELEASE  -
|  1> ! wB97X-D3 SP def2-SVP
|  2> %pal
|  3> nprocs 16
|  4> end
|  5>
|  6> * xyz 0 1
|  7> S 	 -34.6129 	 61.7385 	 111.918
|  8> C 	 -35.2894 	 63.2354 	 111.21
|  9> C 	 -34.3798 	 64.2393 	 111.333
| 10> C 	 -33.2362 	 63.8549 	 112.129
| 11> C 	 -33.1829 	 62.5442 	 112.476
| 12> H 	 -32.4473 	 64.4364 	 112.504
| 13> C 	 -34.5027 	 65.7589 	 110.911
| 14> H 	 -34.5758 	 66.312 	 111.867
| 15> H 	 -35.4587 	 65.8116 	 110.403
| 16> C 	 -33.3107 	 66.3444 	 110.071
| 17> H 	 -33.3897 	 67.485 	 110.145
| 18> H 	 -32.3113 	 66.0702 	 110.454
| 19> C 	 -33.26 	 66.0014 	 108.514
| 20> H 	 -32.2434 	 66.4443 	 108.131
| 21> H 	 -33.2213 	 64.9128 	 108.358
| 22> H 	 -34.0777 	 66.4328 	 107.866
| 23> S 	 -32.5541 	 61.0831 	 114.724
| 24> C 	 -30.9013 	 60.5568 	 114.987
| 25> C 	 -30.1611 	 60.9878 	 113.921
| 26> C 	 -30.7631 	 61.8752 	 112.965
| 27> C 	 -32.1372 	 61.8976 	 113.238
| 28> H 	 -29.1064 	 60.7497 	 113.99
| 29> C 	 -30.0148 	 62.4745 	 111.831
| 30> H 	 -30.7713 	 62.7413 	 111.066
| 31> H 	 -29.2945 	 61.6942 	 111.465
| 32> C 	 -29.2998 	 63.8428 	 112.106
| 33> H 	 -28.4239 	 63.7004 	 112.802
| 34> H 	 -30.0041 	 64.5527 	 112.569
| 35> C 	 -28.819 	 64.4935 	 110.815
| 36> H 	 -27.9237 	 63.981 	 110.438
| 37> H 	 -28.5344 	 65.5312 	 110.852
| 38> H 	 -29.4969 	 64.4515 	 109.991
| 39> H 	 -36.1392 	 63.2717 	 110.573
| 40> H 	 -30.5603 	 59.9521 	 115.849
| 41> *
| 42>
| 43>                          ****END OF INPUT****

CARTESIAN COORDINATES (ANGSTROEM)
---------------------------------
  S    -34.612900   61.738500  111.918000
  C    -35.289400   63.235400  111.210000
  C    -34.379800   64.239300  111.333000
  C    -33.236200   63.854900  112.129000
  C    -33.182900   62.544200  112.476000
  H    -32.447300   64.436400  112.504000
  C    -34.502700   65.758900  110.911000
  H    -34.575800   66.312000  111.867000
  H    -35.458700   65.811600  110.403000
  C    -33.310700   66.344400  110.071000
  H    -33.389700   67.485000  110.145000
  H    -32.311300   66.070200  110.454000
  C    -33.260000   66.001400  108.514000
  H    -32.243400   66.444300  108.131000
  H    -33.221300   64.912800  108.358000
  H    -34.077700   66.432800  107.866000
  S    -32.554100   61.083100  114.724000
  C    -30.901300   60.556800  114.987000
  C    -30.161100   60.987800  113.921000
  C    -30.763100   61.875200  112.965000
  C    -32.137200   61.897600  113.238000
  H    -29.106400   60.749700  113.990000
  C    -30.014800   62.474500  111.831000
  H    -30.771300   62.741300  111.066000
  H    -29.294500   61.694200  111.465000
  C    -29.299800   63.842800  112.106000
  H    -28.423900   63.700400  112.802000
  H    -30.004100   64.552700  112.569000
  C    -28.819000   64.493500  110.815000
  H    -27.923700   63.981000  110.438000
  H    -28.534400   65.531200  110.852000
  H    -29.496900   64.451500  109.991000
  H    -36.139200   63.271700  110.573000
  H    -30.560300   59.952100  115.849000

 Total Charge           Charge          ....    0
 Multiplicity           Mult            ....    1
 Number of Electrons    NEL             ....  134
 Basis Dimension        Dim             ....  322

ORBITAL ENERGIES
----------------

  NO   OCC          E(Eh)            E(eV)
   0   2.0000     -88.964709     -2420.8528
   1   2.0000     -88.962123     -2420.7824
   2   2.0000     -10.328196      -281.0445
   3   2.0000     -10.324324      -280.9391
   4   2.0000     -10.319187      -280.7994
   5   2.0000     -10.314732      -280.6781
   6   2.0000     -10.306572      -280.4561
   7   2.0000     -10.305541      -280.4280
   8   2.0000     -10.305292      -280.4213
   9   2.0000     -10.303918      -280.3839
  10   2.0000     -10.300160      -280.2816
  11   2.0000     -10.297956      -280.2216
  12   2.0000     -10.295679      -280.1597
  13   2.0000     -10.291907      -280.0570
  14   2.0000     -10.286092      -279.8988
  15   2.0000     -10.275869      -279.6206
  16   2.0000      -8.079559      -219.8560
  17   2.0000      -8.076842      -219.7820
  18   2.0000      -6.038074      -164.3043
  19   2.0000      -6.035481      -164.2338
  20   2.0000      -6.033969      -164.1927
  21   2.0000      -6.031375      -164.1221
  22   2.0000      -6.030381      -164.0950
  23   2.0000      -6.027409      -164.0141
  24   2.0000      -1.008972       -27.4555
  25   2.0000      -0.984419       -26.7874
  26   2.0000      -0.909842       -24.7580
  27   2.0000      -0.898203       -24.4414
  28   2.0000      -0.869885       -23.6708
  29   2.0000      -0.854396       -23.2493
  30   2.0000      -0.837454       -22.7883
  31   2.0000      -0.816193       -22.2097
  32   2.0000      -0.781557       -21.2673
  33   2.0000      -0.773963       -21.0606
  34   2.0000      -0.709603       -19.3093
  35   2.0000      -0.697821       -18.9887
  36   2.0000      -0.692605       -18.8468
  37   2.0000      -0.658293       -17.9130
  38   2.0000      -0.644913       -17.5490
  39   2.0000      -0.617670       -16.8076
  40   2.0000      -0.595746       -16.2111
  41   2.0000      -0.568626       -15.4731
  42   2.0000      -0.562074       -15.2948
  43   2.0000      -0.539165       -14.6714
  44   2.0000      -0.531232       -14.4556
  45   2.0000      -0.524825       -14.2812
  46   2.0000      -0.522010       -14.2046
  47   2.0000      -0.516098       -14.0437
  48   2.0000      -0.511224       -13.9111
  49   2.0000      -0.503021       -13.6879
  50   2.0000      -0.485363       -13.2074
  51   2.0000      -0.480034       -13.0624
  52   2.0000      -0.473289       -12.8788
  53   2.0000      -0.461679       -12.5629
  54   2.0000      -0.456339       -12.4176
  55   2.0000      -0.447177       -12.1683
  56   2.0000      -0.437558       -11.9066
  57   2.0000      -0.433368       -11.7926
  58   2.0000      -0.432109       -11.7583
  59   2.0000      -0.428833       -11.6691
  60   2.0000      -0.427750       -11.6397
  61   2.0000      -0.420613       -11.4455
  62   2.0000      -0.407816       -11.0972
  63   2.0000      -0.348136        -9.4733
  64   2.0000      -0.331851        -9.0301
  65   2.0000      -0.325905        -8.8683
  66   2.0000      -0.299657        -8.1541
  67   0.0000       0.033797         0.9197
  68   0.0000       0.072411         1.9704
  69   0.0000       0.115084         3.1316
  70   0.0000       0.119071         3.2401
  71   0.0000       0.125557         3.4166

MULLIKEN ATOMIC CHARGES
-----------------------
   0 S :    0.096044
   1 C :   -0.119405
   2 C :   -0.075579
   3 C :    0.028541
   4 C :   -0.144054
   5 H :   -0.018016
   6 C :    0.080417
   7 H :    0.051557
   8 H :    0.017908
   9 C :   -0.105592
  10 H :    0.044973
  11 H :    0.040686
  12 C :   -0.112460
  13 H :    0.046210
  14 H :    0.048612
  15 H :    0.050089
  16 S :    0.110214
  17 C :   -0.113648
  18 C :   -0.033295
  19 C :    0.002466
  20 C :   -0.171363
  21 H :    0.013336
  22 C :    0.034361
  23 H :    0.032999
  24 H :    0.046517
  25 C :   -0.084639
  26 H :    0.042008
  27 H :    0.035265
  28 C :   -0.029894
  29 H :    0.022261
  30 H :    0.029520
  31 H :    0.016866
  32 H :    0.042230
  33 H :    0.074864
Sum of atomic charges:   -0.0000000

LOEWDIN ATOMIC CHARGES
----------------------
   0 S :    0.389343
   1 C :   -0.183494
   2 C :   -0.061175
   3 C :   -0.066931
   4 C :   -0.193699
   5 H :    0.019877
   6 C :   -0.028117
   7 H :    0.040456
   8 H :    0.026587
   9 C :   -0.048598
  10 H :    0.033122
  11 H :    0.025475
  12 C :   -0.081809
  13 H :    0.036801
  14 H :    0.025154
  15 H :    0.028542
  16 S :    0.406125
  17 C :   -0.191949
  18 C :   -0.073873
  19 C :   -0.054931
  20 C :   -0.198740
  21 H :    0.027834
  22 C :   -0.035717
  23 H :    0.036203
  24 H :    0.041263
  25 C :   -0.039248
  26 H :    0.029924
  27 H :    0.023397
  28 C :   -0.070568
  29 H :    0.027170
  30 H :    0.025675
  31 H :    0.019570
  32 H :    0.025027
  33 H :    0.041306

  Mayer bond orders larger than 0.100000
B(  0-S ,  1-C ) :   1.1145 B(  0-S ,  4-C ) :   1.1393 B(  1-C ,  2-C ) :   1.6575
B(  1-C , 32-H ) :   0.9697 B(  2-C ,  3-C ) :   1.1855 B(  2-C ,  6-C ) :   1.0082
B(  3-C ,  4-C ) :   1.6156 B(  3-C ,  5-H ) :   1.0028 B(  4-C , 20-C ) :   1.0310
B(  6-C ,  7-H ) :   0.9458 B(  6-C ,  8-H ) :   0.9468 B(  6-C ,  9-C ) :   1.0501
B(  9-C , 10-H ) :   0.9585 B(  9-C , 11-H ) :   0.9609 B(  9-C , 12-C ) :   1.0608
B( 12-C , 13-H ) :   0.9753 B( 12-C , 14-H ) :   0.9786 B( 12-C , 15-H ) :   0.9769
B( 16-S , 17-C ) :   1.1357 B( 16-S , 20-C ) :   1.1614 B( 17-C , 18-C ) :   1.6242
B( 17-C , 33-H ) :   0.9663 B( 18-C , 19-C ) :   1.2278 B( 18-C , 21-H ) :   0.9837
B( 19-C , 20-C ) :   1.5648 B( 19-C , 22-C ) :   1.0618 B( 22-C , 23-H ) :   0.9240
B( 22-C , 24-H ) :   0.9351 B( 22-C , 25-C ) :   1.0579 B( 25-C , 26-H ) :   0.9534
B( 25-C , 27-H ) :   0.9550 B( 25-C , 28-C ) :   1.0820 B( 28-C , 29-H ) :   0.9716
B( 28-C , 30-H ) :   0.9745 B( 28-C , 31-H ) :   0.9721

Dispersion correction           -0.014809013
FINAL SINGLE POINT ENERGY     -1339.882868955625

DIPOLE MOMENT
-------------
                                X             Y             Z
Electronic contribution:    -14.40925     -22.85175      18.82744
Nuclear contribution   :     14.91167      23.36337     -19.07998
                        -----------------------------------------
Total Dipole Moment    :      0.50242       0.51162      -0.25254
                        -----------------------------------------
Magnitude (a.u.)       :      0.76023
Magnitude (Debye)      :      1.93236

Rotational constants in cm-1:     0.017285     0.010127     0.006924
Rotational constants in MHz :   518.204486   303.590032   207.578232

                             ****ORCA TERMINATED NORMALLY****
TOTAL RUN TIME: 0 days 0 hours 0 minutes 26 seconds 829 msec
