                         Program Version 4.2.1 -  RELEASE  -
|  1> ! wB97X-D3 SP def2-SVP
|  2> %pal
|  3> nprocs 16
|  4> end
|  5>
|  6> * xyz 0 1
|  7> S 	 -53.1141 	 12.1693 	 90.3952
|  8> C 	 -52.8688 	 13.8441 	 90.6907
|  9> C 	 -51.8493 	 14.3096 	 89.8421
| 10> C 	 -51.3991 	 13.4041 	 88.8843
| 11> C 	 -52.0709 	 12.1981 	 88.9033
| 12> H 	 -50.6414 	 13.553 	 88.1437
| 13> C 	 -51.3691 	 15.7495 	 89.8886
| 14> H 	 -52.0985 	 16.492 	 89.6483
| 15> H 	 -50.6269 	 15.8718 	 89.1309
| 16> C 	 -50.7063 	 16.1455 	 91.2444
| 17> H 	 -51.3552 	 15.799 	 92.0327
| 18> H 	 -49.7727 	 15.5441 	 91.4601
| 19> C 	 -50.3571 	 17.7198 	 91.4298
| 20> H 	 -49.843 	 18.1965 	 90.5847
| 21> H 	 -51.229 	 18.3113 	 91.6136
| 22> H 	 -49.8594 	 18.0071 	 92.3783
| 23> S 	 -51.7791 	 9.57962 	 89.0577
| 24> C 	 -51.3205 	 8.58618 	 87.725
| 25> C 	 -51.1112 	 9.39413 	 86.5882
| 26> C 	 -51.3174 	 10.7629 	 86.8888
| 27> C 	 -51.7625 	 11.0321 	 88.1333
| 28> H 	 -50.7422 	 8.99487 	 85.6567
| 29> C 	 -51.3305 	 11.7544 	 85.7542
| 30> H 	 -50.8056 	 11.249 	 84.9325
| 31> H 	 -50.5838 	 12.5509 	 85.8299
| 32> C 	 -52.7205 	 12.1327 	 85.3001
| 33> H 	 -52.7075 	 12.6958 	 84.426
| 34> H 	 -53.1942 	 12.6998 	 86.0892
| 35> C 	 -53.6677 	 11.0303 	 84.7788
| 36> H 	 -53.7898 	 10.2738 	 85.5097
| 37> H 	 -53.2863 	 10.473 	 83.8624
| 38> H 	 -54.7257 	 11.3655 	 84.5261
| 39> H 	 -53.3171 	 14.4561 	 91.4732
| 40> H 	 -51.214 	 7.57273 	 87.6241
| 41> *
| 42>
| 43>                          ****END OF INPUT****

CARTESIAN COORDINATES (ANGSTROEM)
---------------------------------
  S    -53.114100   12.169300   90.395200
  C    -52.868800   13.844100   90.690700
  C    -51.849300   14.309600   89.842100
  C    -51.399100   13.404100   88.884300
  C    -52.070900   12.198100   88.903300
  H    -50.641400   13.553000   88.143700
  C    -51.369100   15.749500   89.888600
  H    -52.098500   16.492000   89.648300
  H    -50.626900   15.871800   89.130900
  C    -50.706300   16.145500   91.244400
  H    -51.355200   15.799000   92.032700
  H    -49.772700   15.544100   91.460100
  C    -50.357100   17.719800   91.429800
  H    -49.843000   18.196500   90.584700
  H    -51.229000   18.311300   91.613600
  H    -49.859400   18.007100   92.378300
  S    -51.779100    9.579620   89.057700
  C    -51.320500    8.586180   87.725000
  C    -51.111200    9.394130   86.588200
  C    -51.317400   10.762900   86.888800
  C    -51.762500   11.032100   88.133300
  H    -50.742200    8.994870   85.656700
  C    -51.330500   11.754400   85.754200
  H    -50.805600   11.249000   84.932500
  H    -50.583800   12.550900   85.829900
  C    -52.720500   12.132700   85.300100
  H    -52.707500   12.695800   84.426000
  H    -53.194200   12.699800   86.089200
  C    -53.667700   11.030300   84.778800
  H    -53.789800   10.273800   85.509700
  H    -53.286300   10.473000   83.862400
  H    -54.725700   11.365500   84.526100
  H    -53.317100   14.456100   91.473200
  H    -51.214000    7.572730   87.624100

 Total Charge           Charge          ....    0
 Multiplicity           Mult            ....    1
 Number of Electrons    NEL             ....  134
 Basis Dimension        Dim             ....  322

ORBITAL ENERGIES
----------------

  NO   OCC          E(Eh)            E(eV)
   0   2.0000     -88.970788     -2421.0182
   1   2.0000     -88.965649     -2420.8784
   2   2.0000     -10.334815      -281.2246
   3   2.0000     -10.321337      -280.8579
   4   2.0000     -10.318703      -280.7862
   5   2.0000     -10.312503      -280.6175
   6   2.0000     -10.301610      -280.3211
   7   2.0000     -10.296802      -280.1902
   8   2.0000     -10.296141      -280.1722
   9   2.0000     -10.294184      -280.1190
  10   2.0000     -10.293739      -280.1069
  11   2.0000     -10.289566      -279.9933
  12   2.0000     -10.288526      -279.9650
  13   2.0000     -10.284513      -279.8558
  14   2.0000     -10.278641      -279.6960
  15   2.0000     -10.277531      -279.6658
  16   2.0000      -8.084683      -219.9954
  17   2.0000      -8.081376      -219.9054
  18   2.0000      -6.043258      -164.4454
  19   2.0000      -6.039911      -164.3543
  20   2.0000      -6.039264      -164.3367
  21   2.0000      -6.035598      -164.2370
  22   2.0000      -6.035440      -164.2327
  23   2.0000      -6.032164      -164.1435
  24   2.0000      -1.016340       -27.6560
  25   2.0000      -0.989414       -26.9233
  26   2.0000      -0.912416       -24.8281
  27   2.0000      -0.902696       -24.5636
  28   2.0000      -0.874189       -23.7879
  29   2.0000      -0.852416       -23.1954
  30   2.0000      -0.843980       -22.9659
  31   2.0000      -0.815623       -22.1942
  32   2.0000      -0.782402       -21.2902
  33   2.0000      -0.772919       -21.0322
  34   2.0000      -0.714706       -19.4481
  35   2.0000      -0.706404       -19.2222
  36   2.0000      -0.694166       -18.8892
  37   2.0000      -0.677045       -18.4233
  38   2.0000      -0.645404       -17.5623
  39   2.0000      -0.622299       -16.9336
  40   2.0000      -0.595757       -16.2114
  41   2.0000      -0.570432       -15.5222
  42   2.0000      -0.557001       -15.1568
  43   2.0000      -0.551537       -15.0081
  44   2.0000      -0.543812       -14.7979
  45   2.0000      -0.521219       -14.1831
  46   2.0000      -0.518098       -14.0982
  47   2.0000      -0.515111       -14.0169
  48   2.0000      -0.509907       -13.8753
  49   2.0000      -0.497449       -13.5363
  50   2.0000      -0.486399       -13.2356
  51   2.0000      -0.481757       -13.1093
  52   2.0000      -0.472033       -12.8447
  53   2.0000      -0.468095       -12.7375
  54   2.0000      -0.460469       -12.5300
  55   2.0000      -0.448663       -12.2087
  56   2.0000      -0.447449       -12.1757
  57   2.0000      -0.435731       -11.8568
  58   2.0000      -0.431742       -11.7483
  59   2.0000      -0.423618       -11.5272
  60   2.0000      -0.416224       -11.3260
  61   2.0000      -0.406922       -11.0729
  62   2.0000      -0.404685       -11.0120
  63   2.0000      -0.361813        -9.8454
  64   2.0000      -0.335722        -9.1355
  65   2.0000      -0.331625        -9.0240
  66   2.0000      -0.283969        -7.7272
  67   0.0000       0.018068         0.4917
  68   0.0000       0.070870         1.9285
  69   0.0000       0.102112         2.7786
  70   0.0000       0.125517         3.4155
  71   0.0000       0.138467         3.7679

MULLIKEN ATOMIC CHARGES
-----------------------
   0 S :    0.107829
   1 C :   -0.107669
   2 C :   -0.085594
   3 C :    0.030848
   4 C :   -0.123821
   5 H :    0.005510
   6 C :    0.100257
   7 H :    0.031347
   8 H :    0.004484
   9 C :   -0.100854
  10 H :    0.017946
  11 H :    0.039860
  12 C :   -0.065219
  13 H :    0.041749
  14 H :    0.017405
  15 H :    0.034170
  16 S :    0.105755
  17 C :   -0.040144
  18 C :   -0.054200
  19 C :   -0.071648
  20 C :   -0.128693
  21 H :    0.018242
  22 C :    0.068721
  23 H :   -0.007045
  24 H :    0.025255
  25 C :   -0.005139
  26 H :    0.015870
  27 H :    0.038263
  28 C :   -0.098576
  29 H :    0.029901
  30 H :    0.029282
  31 H :    0.044696
  32 H :    0.061414
  33 H :    0.019796
Sum of atomic charges:    0.0000000

LOEWDIN ATOMIC CHARGES
----------------------
   0 S :    0.396830
   1 C :   -0.203252
   2 C :   -0.064914
   3 C :   -0.054173
   4 C :   -0.173235
   5 H :    0.032002
   6 C :   -0.029181
   7 H :    0.029275
   8 H :    0.023424
   9 C :   -0.038785
  10 H :    0.015685
  11 H :    0.030385
  12 C :   -0.081354
  13 H :    0.026852
  14 H :    0.020437
  15 H :    0.032803
  16 S :    0.435726
  17 C :   -0.182734
  18 C :   -0.064391
  19 C :   -0.070622
  20 C :   -0.200267
  21 H :    0.030303
  22 C :   -0.038357
  23 H :    0.028912
  24 H :    0.030495
  25 C :   -0.035102
  26 H :    0.019617
  27 H :    0.026743
  28 C :   -0.070254
  29 H :    0.014328
  30 H :    0.027743
  31 H :    0.035546
  32 H :    0.035300
  33 H :    0.014217

  Mayer bond orders larger than 0.100000
B(  0-S ,  1-C ) :   1.1519 B(  0-S ,  4-C ) :   1.1385 B(  1-C ,  2-C ) :   1.5561
B(  1-C ,  4-C ) :   0.1088 B(  1-C , 32-H ) :   0.9691 B(  2-C ,  3-C ) :   1.2889
B(  2-C ,  6-C ) :   1.0231 B(  3-C ,  4-C ) :   1.5313 B(  3-C ,  5-H ) :   0.9968
B(  4-C , 20-C ) :   1.0849 B(  6-C ,  7-H ) :   0.9460 B(  6-C ,  8-H ) :   0.9401
B(  6-C ,  9-C ) :   1.0435 B(  9-C , 10-H ) :   0.9648 B(  9-C , 11-H ) :   0.9604
B(  9-C , 12-C ) :   1.0584 B( 12-C , 13-H ) :   0.9805 B( 12-C , 14-H ) :   0.9743
B( 12-C , 15-H ) :   0.9757 B( 16-S , 17-C ) :   1.1702 B( 16-S , 20-C ) :   1.1381
B( 17-C , 18-C ) :   1.5788 B( 17-C , 20-C ) :   0.1004 B( 17-C , 33-H ) :   0.9775
B( 18-C , 19-C ) :   1.2713 B( 18-C , 21-H ) :   0.9886 B( 19-C , 20-C ) :   1.5831
B( 19-C , 22-C ) :   1.0524 B( 22-C , 23-H ) :   0.9202 B( 22-C , 24-H ) :   0.9290
B( 22-C , 25-C ) :   1.0717 B( 25-C , 26-H ) :   0.9540 B( 25-C , 27-H ) :   0.9553
B( 25-C , 28-C ) :   1.0664 B( 28-C , 29-H ) :   0.9760 B( 28-C , 30-H ) :   0.9739
B( 28-C , 31-H ) :   0.9741

Dispersion correction           -0.014429002
FINAL SINGLE POINT ENERGY     -1339.855340543188

DIPOLE MOMENT
-------------
                                X             Y             Z
Electronic contribution:     -3.76766     -20.86776       9.67119
Nuclear contribution   :      4.00459      21.25684     -10.00733
                        -----------------------------------------
Total Dipole Moment    :      0.23693       0.38908      -0.33615
                        -----------------------------------------
Magnitude (a.u.)       :      0.56614
Magnitude (Debye)      :      1.43901

Rotational constants in cm-1:     0.023534     0.007363     0.006455
Rotational constants in MHz :   705.542938   220.751611   193.529798

                             ****ORCA TERMINATED NORMALLY****
TOTAL RUN TIME: 0 days 0 hours 0 minutes 30 seconds 140 msec
