                         Program Version 4.2.1 -  RELEASE  -
|  1> ! wB97X-D3 SP def2-SVP
|  2> %pal
|  3> nprocs 16
|  4> end
|  5>
|  6> * xyz 0 1
|  7> S 	 -31.0714 	 69.1268 	 106.937
|  8> C 	 -29.4289 	 68.984 	 106.238
|  9> C 	 -29.2996 	 69.8714 	 105.207
| 10> C 	 -30.5639 	 70.5203 	 104.934
| 11> C 	 -31.6226 	 70.1831 	 105.694
| 12> H 	 -30.7105 	 71.2934 	 104.173
| 13> C 	 -28.0817 	 70.1659 	 104.267
| 14> H 	 -27.2392 	 70.4327 	 104.862
| 15> H 	 -28.2926 	 71.0231 	 103.653
| 16> C 	 -27.8203 	 69.0062 	 103.306
| 17> H 	 -27.1264 	 68.2842 	 103.719
| 18> H 	 -28.7192 	 68.4662 	 102.909
| 19> C 	 -27.1923 	 69.4726 	 102.033
| 20> H 	 -27.0018 	 68.5914 	 101.368
| 21> H 	 -27.9239 	 70.1471 	 101.582
| 22> H 	 -26.2484 	 70.005 	 102.258
| 23> S 	 -33.8421 	 71.1695 	 107.034
| 24> C 	 -35.2447 	 71.7612 	 106.093
| 25> C 	 -35.0326 	 71.547 	 104.74
| 26> C 	 -33.8041 	 70.965 	 104.438
| 27> C 	 -32.9927 	 70.6879 	 105.529
| 28> H 	 -35.7519 	 71.891 	 103.96
| 29> C 	 -33.414 	 70.5652 	 103.012
| 30> H 	 -32.3555 	 70.7413 	 102.841
| 31> H 	 -33.8665 	 71.3423 	 102.486
| 32> C 	 -33.7759 	 69.1482 	 102.594
| 33> H 	 -34.7365 	 68.9098 	 102.9
| 34> H 	 -33.1501 	 68.4058 	 103.161
| 35> C 	 -33.6513 	 68.9583 	 101.085
| 36> H 	 -32.7454 	 69.4637 	 100.697
| 37> H 	 -34.5197 	 69.4393 	 100.597
| 38> H 	 -33.5808 	 67.8865 	 100.741
| 39> H 	 -28.5561 	 68.4564 	 106.592
| 40> H 	 -36.2026 	 72.2099 	 106.465
| 41> *
| 42>
| 43>                          ****END OF INPUT****

CARTESIAN COORDINATES (ANGSTROEM)
---------------------------------
  S    -31.071400   69.126800  106.937000
  C    -29.428900   68.984000  106.238000
  C    -29.299600   69.871400  105.207000
  C    -30.563900   70.520300  104.934000
  C    -31.622600   70.183100  105.694000
  H    -30.710500   71.293400  104.173000
  C    -28.081700   70.165900  104.267000
  H    -27.239200   70.432700  104.862000
  H    -28.292600   71.023100  103.653000
  C    -27.820300   69.006200  103.306000
  H    -27.126400   68.284200  103.719000
  H    -28.719200   68.466200  102.909000
  C    -27.192300   69.472600  102.033000
  H    -27.001800   68.591400  101.368000
  H    -27.923900   70.147100  101.582000
  H    -26.248400   70.005000  102.258000
  S    -33.842100   71.169500  107.034000
  C    -35.244700   71.761200  106.093000
  C    -35.032600   71.547000  104.740000
  C    -33.804100   70.965000  104.438000
  C    -32.992700   70.687900  105.529000
  H    -35.751900   71.891000  103.960000
  C    -33.414000   70.565200  103.012000
  H    -32.355500   70.741300  102.841000
  H    -33.866500   71.342300  102.486000
  C    -33.775900   69.148200  102.594000
  H    -34.736500   68.909800  102.900000
  H    -33.150100   68.405800  103.161000
  C    -33.651300   68.958300  101.085000
  H    -32.745400   69.463700  100.697000
  H    -34.519700   69.439300  100.597000
  H    -33.580800   67.886500  100.741000
  H    -28.556100   68.456400  106.592000
  H    -36.202600   72.209900  106.465000

 Total Charge           Charge          ....    0
 Multiplicity           Mult            ....    1
 Number of Electrons    NEL             ....  134
 Basis Dimension        Dim             ....  322

ORBITAL ENERGIES
----------------

  NO   OCC          E(Eh)            E(eV)
   0   2.0000     -88.967504     -2420.9288
   1   2.0000     -88.965734     -2420.8807
   2   2.0000     -10.333050      -281.1766
   3   2.0000     -10.327279      -281.0195
   4   2.0000     -10.327155      -281.0162
   5   2.0000     -10.316496      -280.7261
   6   2.0000     -10.304149      -280.3901
   7   2.0000     -10.302058      -280.3332
   8   2.0000     -10.297520      -280.2098
   9   2.0000     -10.296020      -280.1689
  10   2.0000     -10.288536      -279.9653
  11   2.0000     -10.285070      -279.8710
  12   2.0000     -10.284967      -279.8682
  13   2.0000     -10.283722      -279.8343
  14   2.0000     -10.281811      -279.7823
  15   2.0000     -10.280682      -279.7516
  16   2.0000      -8.080893      -219.8923
  17   2.0000      -8.080280      -219.8756
  18   2.0000      -6.039514      -164.3435
  19   2.0000      -6.039105      -164.3324
  20   2.0000      -6.035551      -164.2357
  21   2.0000      -6.034830      -164.2161
  22   2.0000      -6.031652      -164.1296
  23   2.0000      -6.030658      -164.1026
  24   2.0000      -1.006973       -27.4011
  25   2.0000      -0.983377       -26.7591
  26   2.0000      -0.918041       -24.9812
  27   2.0000      -0.909797       -24.7568
  28   2.0000      -0.873182       -23.7605
  29   2.0000      -0.850962       -23.1558
  30   2.0000      -0.843668       -22.9574
  31   2.0000      -0.814494       -22.1635
  32   2.0000      -0.782242       -21.2859
  33   2.0000      -0.772424       -21.0187
  34   2.0000      -0.709008       -19.2931
  35   2.0000      -0.699172       -19.0254
  36   2.0000      -0.690701       -18.7949
  37   2.0000      -0.663912       -18.0660
  38   2.0000      -0.641206       -17.4481
  39   2.0000      -0.616972       -16.7887
  40   2.0000      -0.593392       -16.1470
  41   2.0000      -0.575381       -15.6569
  42   2.0000      -0.568203       -15.4616
  43   2.0000      -0.559146       -15.2151
  44   2.0000      -0.532408       -14.4875
  45   2.0000      -0.525178       -14.2908
  46   2.0000      -0.518122       -14.0988
  47   2.0000      -0.512959       -13.9583
  48   2.0000      -0.507236       -13.8026
  49   2.0000      -0.501239       -13.6394
  50   2.0000      -0.490309       -13.3420
  51   2.0000      -0.485190       -13.2027
  52   2.0000      -0.468831       -12.7575
  53   2.0000      -0.461757       -12.5651
  54   2.0000      -0.458676       -12.4812
  55   2.0000      -0.447865       -12.1870
  56   2.0000      -0.442038       -12.0285
  57   2.0000      -0.439737       -11.9658
  58   2.0000      -0.433208       -11.7882
  59   2.0000      -0.424931       -11.5630
  60   2.0000      -0.420237       -11.4352
  61   2.0000      -0.413733       -11.2582
  62   2.0000      -0.408165       -11.1067
  63   2.0000      -0.353533        -9.6201
  64   2.0000      -0.335959        -9.1419
  65   2.0000      -0.328901        -8.9498
  66   2.0000      -0.292417        -7.9571
  67   0.0000       0.025029         0.6811
  68   0.0000       0.073058         1.9880
  69   0.0000       0.100378         2.7314
  70   0.0000       0.125171         3.4061
  71   0.0000       0.130719         3.5570

MULLIKEN ATOMIC CHARGES
-----------------------
   0 S :    0.102956
   1 C :   -0.116275
   2 C :   -0.088916
   3 C :   -0.017968
   4 C :   -0.103305
   5 H :    0.017065
   6 C :    0.107171
   7 H :    0.030332
   8 H :    0.008756
   9 C :   -0.077520
  10 H :    0.027233
  11 H :    0.042462
  12 C :   -0.085913
  13 H :    0.045180
  14 H :    0.032934
  15 H :    0.033350
  16 S :    0.089789
  17 C :   -0.103674
  18 C :   -0.052934
  19 C :   -0.068144
  20 C :   -0.145377
  21 H :    0.034668
  22 C :    0.095690
  23 H :    0.005394
  24 H :   -0.004690
  25 C :   -0.008659
  26 H :    0.005062
  27 H :    0.038061
  28 C :   -0.072221
  29 H :    0.028460
  30 H :    0.036155
  31 H :    0.045686
  32 H :    0.043215
  33 H :    0.075977
Sum of atomic charges:    0.0000000

LOEWDIN ATOMIC CHARGES
----------------------
   0 S :    0.396413
   1 C :   -0.186443
   2 C :   -0.056250
   3 C :   -0.073546
   4 C :   -0.203953
   5 H :    0.028202
   6 C :   -0.020257
   7 H :    0.030122
   8 H :    0.026528
   9 C :   -0.048007
  10 H :    0.020801
  11 H :    0.033581
  12 C :   -0.067853
  13 H :    0.031772
  14 H :    0.021189
  15 H :    0.022787
  16 S :    0.375111
  17 C :   -0.180170
  18 C :   -0.080284
  19 C :   -0.060237
  20 C :   -0.173832
  21 H :    0.041163
  22 C :   -0.024572
  23 H :    0.026500
  24 H :    0.019445
  25 C :   -0.035280
  26 H :    0.013577
  27 H :    0.034021
  28 C :   -0.070532
  29 H :    0.024145
  30 H :    0.027270
  31 H :    0.032268
  32 H :    0.032466
  33 H :    0.043856

  Mayer bond orders larger than 0.100000
B(  0-S ,  1-C ) :   1.1138 B(  0-S ,  4-C ) :   1.1316 B(  1-C ,  2-C ) :   1.6462
B(  1-C , 32-H ) :   0.9696 B(  2-C ,  3-C ) :   1.2253 B(  2-C ,  6-C ) :   1.0166
B(  3-C ,  4-C ) :   1.6075 B(  3-C ,  5-H ) :   0.9878 B(  4-C , 20-C ) :   1.0364
B(  6-C ,  7-H ) :   0.9307 B(  6-C ,  8-H ) :   0.9492 B(  6-C ,  9-C ) :   1.0568
B(  9-C , 10-H ) :   0.9518 B(  9-C , 11-H ) :   0.9625 B(  9-C , 12-C ) :   1.0873
B( 12-C , 13-H ) :   0.9739 B( 12-C , 14-H ) :   0.9777 B( 12-C , 15-H ) :   0.9724
B( 16-S , 17-C ) :   1.1495 B( 16-S , 20-C ) :   1.1268 B( 17-C , 18-C ) :   1.5984
B( 17-C , 20-C ) :   0.1112 B( 17-C , 33-H ) :   0.9599 B( 18-C , 19-C ) :   1.2762
B( 18-C , 21-H ) :   0.9774 B( 19-C , 20-C ) :   1.5965 B( 19-C , 22-C ) :   1.0281
B( 22-C , 23-H ) :   0.9264 B( 22-C , 24-H ) :   0.9280 B( 22-C , 25-C ) :   1.0636
B( 25-C , 26-H ) :   0.9549 B( 25-C , 27-H ) :   0.9511 B( 25-C , 28-C ) :   1.0738
B( 28-C , 29-H ) :   0.9753 B( 28-C , 30-H ) :   0.9763 B( 28-C , 31-H ) :   0.9748

Dispersion correction           -0.013837644
FINAL SINGLE POINT ENERGY     -1339.873238488214

DIPOLE MOMENT
-------------
                                X             Y             Z
Electronic contribution:    -11.91613       4.87194      29.68363
Nuclear contribution   :     12.12554      -4.75003     -30.42540
                        -----------------------------------------
Total Dipole Moment    :      0.20940       0.12191      -0.74177
                        -----------------------------------------
Magnitude (a.u.)       :      0.78034
Magnitude (Debye)      :      1.98348

Rotational constants in cm-1:     0.017588     0.009038     0.006616
Rotational constants in MHz :   527.287520   270.940243   198.336259

                             ****ORCA TERMINATED NORMALLY****
TOTAL RUN TIME: 0 days 0 hours 0 minutes 29 seconds 895 msec
