                         Program Version 4.2.1 -  RELEASE  -
|  1> ! wB97X-D3 SP def2-SVP
|  2> %pal
|  3> nprocs 16
|  4> end
|  5>
|  6> * xyz 0 1
|  7> S 	 22.3404 	 -8.65561 	 79.7514
|  8> C 	 21.7006 	 -7.14531 	 80.2721
|  9> C 	 20.5178 	 -7.25574 	 81.0137
| 10> C 	 20.1817 	 -8.59891 	 81.1731
| 11> C 	 21.0921 	 -9.51793 	 80.5944
| 12> H 	 19.3672 	 -8.97325 	 81.7918
| 13> C 	 19.7501 	 -6.13062 	 81.6712
| 14> H 	 20.4424 	 -5.34572 	 81.9811
| 15> H 	 19.223 	 -6.46458 	 82.6399
| 16> C 	 18.6645 	 -5.46356 	 80.7407
| 17> H 	 19.1216 	 -5.18916 	 79.727
| 18> H 	 17.9286 	 -6.29339 	 80.5125
| 19> C 	 17.8738 	 -4.32654 	 81.4128
| 20> H 	 17.3206 	 -3.72555 	 80.6295
| 21> H 	 17.3147 	 -4.7543 	 82.1991
| 22> H 	 18.5444 	 -3.626 	 81.9183
| 23> S 	 20.9033 	 -11.4424 	 82.5967
| 24> C 	 21.1956 	 -13.0421 	 82.1987
| 25> C 	 21.3409 	 -13.2759 	 80.8729
| 26> C 	 21.2648 	 -12.0429 	 80.1203
| 27> C 	 21.1336 	 -10.9252 	 80.9228
| 28> H 	 21.3681 	 -14.2876 	 80.5239
| 29> C 	 21.4181 	 -12.0167 	 78.6199
| 30> H 	 21.9776 	 -12.8047 	 78.1869
| 31> H 	 22.0952 	 -11.2068 	 78.3563
| 32> C 	 20.0708 	 -11.773 	 77.7888
| 33> H 	 20.2221 	 -11.5869 	 76.7128
| 34> H 	 19.5848 	 -10.8372 	 78.1266
| 35> C 	 19.0711 	 -12.9772 	 78.0208
| 36> H 	 18.7143 	 -12.7268 	 79.0804
| 37> H 	 19.6752 	 -13.9021 	 77.9348
| 38> H 	 18.1971 	 -13.0085 	 77.3697
| 39> H 	 22.159 	 -6.21067 	 80.1647
| 40> H 	 20.9003 	 -13.8325 	 82.8786
| 41> *
| 42>
| 43>                          ****END OF INPUT****

CARTESIAN COORDINATES (ANGSTROEM)
---------------------------------
  S     22.340400   -8.655610   79.751400
  C     21.700600   -7.145310   80.272100
  C     20.517800   -7.255740   81.013700
  C     20.181700   -8.598910   81.173100
  C     21.092100   -9.517930   80.594400
  H     19.367200   -8.973250   81.791800
  C     19.750100   -6.130620   81.671200
  H     20.442400   -5.345720   81.981100
  H     19.223000   -6.464580   82.639900
  C     18.664500   -5.463560   80.740700
  H     19.121600   -5.189160   79.727000
  H     17.928600   -6.293390   80.512500
  C     17.873800   -4.326540   81.412800
  H     17.320600   -3.725550   80.629500
  H     17.314700   -4.754300   82.199100
  H     18.544400   -3.626000   81.918300
  S     20.903300  -11.442400   82.596700
  C     21.195600  -13.042100   82.198700
  C     21.340900  -13.275900   80.872900
  C     21.264800  -12.042900   80.120300
  C     21.133600  -10.925200   80.922800
  H     21.368100  -14.287600   80.523900
  C     21.418100  -12.016700   78.619900
  H     21.977600  -12.804700   78.186900
  H     22.095200  -11.206800   78.356300
  C     20.070800  -11.773000   77.788800
  H     20.222100  -11.586900   76.712800
  H     19.584800  -10.837200   78.126600
  C     19.071100  -12.977200   78.020800
  H     18.714300  -12.726800   79.080400
  H     19.675200  -13.902100   77.934800
  H     18.197100  -13.008500   77.369700
  H     22.159000   -6.210670   80.164700
  H     20.900300  -13.832500   82.878600

 Total Charge           Charge          ....    0
 Multiplicity           Mult            ....    1
 Number of Electrons    NEL             ....  134
 Basis Dimension        Dim             ....  322

ORBITAL ENERGIES
----------------

  NO   OCC          E(Eh)            E(eV)
   0   2.0000     -88.974216     -2421.1115
   1   2.0000     -88.963099     -2420.8090
   2   2.0000     -10.328326      -281.0480
   3   2.0000     -10.324860      -280.9537
   4   2.0000     -10.311700      -280.5956
   5   2.0000     -10.307031      -280.4686
   6   2.0000     -10.303847      -280.3819
   7   2.0000     -10.302896      -280.3561
   8   2.0000     -10.300740      -280.2974
   9   2.0000     -10.298007      -280.2230
  10   2.0000     -10.293511      -280.1007
  11   2.0000     -10.290242      -280.0117
  12   2.0000     -10.289554      -279.9930
  13   2.0000     -10.289346      -279.9873
  14   2.0000     -10.282510      -279.8013
  15   2.0000     -10.281737      -279.7803
  16   2.0000      -8.088844      -220.1086
  17   2.0000      -8.079218      -219.8467
  18   2.0000      -6.047204      -164.5528
  19   2.0000      -6.043237      -164.4448
  20   2.0000      -6.039919      -164.3545
  21   2.0000      -6.037624      -164.2921
  22   2.0000      -6.033549      -164.1812
  23   2.0000      -6.029988      -164.0843
  24   2.0000      -1.012085       -27.5402
  25   2.0000      -0.991592       -26.9826
  26   2.0000      -0.907433       -24.6925
  27   2.0000      -0.898656       -24.4537
  28   2.0000      -0.870419       -23.6853
  29   2.0000      -0.854924       -23.2637
  30   2.0000      -0.841545       -22.8996
  31   2.0000      -0.811445       -22.0805
  32   2.0000      -0.781662       -21.2701
  33   2.0000      -0.770752       -20.9732
  34   2.0000      -0.707010       -19.2387
  35   2.0000      -0.693169       -18.8621
  36   2.0000      -0.687034       -18.6951
  37   2.0000      -0.664672       -18.0866
  38   2.0000      -0.638639       -17.3782
  39   2.0000      -0.618371       -16.8267
  40   2.0000      -0.598088       -16.2748
  41   2.0000      -0.573741       -15.6123
  42   2.0000      -0.558291       -15.1919
  43   2.0000      -0.542952       -14.7745
  44   2.0000      -0.539230       -14.6732
  45   2.0000      -0.521936       -14.2026
  46   2.0000      -0.513820       -13.9817
  47   2.0000      -0.513245       -13.9661
  48   2.0000      -0.504115       -13.7177
  49   2.0000      -0.495128       -13.4731
  50   2.0000      -0.487394       -13.2627
  51   2.0000      -0.480528       -13.0758
  52   2.0000      -0.470537       -12.8040
  53   2.0000      -0.464494       -12.6395
  54   2.0000      -0.458578       -12.4785
  55   2.0000      -0.446674       -12.1546
  56   2.0000      -0.440396       -11.9838
  57   2.0000      -0.435902       -11.8615
  58   2.0000      -0.432479       -11.7683
  59   2.0000      -0.429198       -11.6791
  60   2.0000      -0.418559       -11.3896
  61   2.0000      -0.413449       -11.2505
  62   2.0000      -0.410218       -11.1626
  63   2.0000      -0.345572        -9.4035
  64   2.0000      -0.337539        -9.1849
  65   2.0000      -0.329987        -8.9794
  66   2.0000      -0.288367        -7.8469
  67   0.0000       0.025958         0.7064
  68   0.0000       0.069667         1.8957
  69   0.0000       0.110600         3.0096
  70   0.0000       0.115812         3.1514
  71   0.0000       0.125003         3.4015

MULLIKEN ATOMIC CHARGES
-----------------------
   0 S :    0.138528
   1 C :   -0.093742
   2 C :   -0.059004
   3 C :   -0.002899
   4 C :   -0.156308
   5 H :    0.013915
   6 C :    0.024041
   7 H :    0.025425
   8 H :    0.039312
   9 C :   -0.129512
  10 H :    0.042879
  11 H :    0.037080
  12 C :   -0.019306
  13 H :    0.055020
  14 H :    0.026273
  15 H :    0.021189
  16 S :    0.112979
  17 C :   -0.082877
  18 C :   -0.029867
  19 C :   -0.038982
  20 C :   -0.145396
  21 H :    0.014076
  22 C :    0.069203
  23 H :    0.015337
  24 H :    0.013801
  25 C :   -0.094526
  26 H :    0.032727
  27 H :    0.037308
  28 C :   -0.087922
  29 H :    0.057069
  30 H :    0.038083
  31 H :    0.041786
  32 H :    0.022765
  33 H :    0.061544
Sum of atomic charges:   -0.0000000

LOEWDIN ATOMIC CHARGES
----------------------
   0 S :    0.445116
   1 C :   -0.196747
   2 C :   -0.065053
   3 C :   -0.062315
   4 C :   -0.207359
   5 H :    0.028777
   6 C :   -0.037308
   7 H :    0.027173
   8 H :    0.038142
   9 C :   -0.050234
  10 H :    0.028189
  11 H :    0.027491
  12 C :   -0.068347
  13 H :    0.039197
  14 H :    0.020930
  15 H :    0.022574
  16 S :    0.430106
  17 C :   -0.207980
  18 C :   -0.070574
  19 C :   -0.054102
  20 C :   -0.195924
  21 H :    0.030679
  22 C :   -0.035625
  23 H :    0.024558
  24 H :    0.026671
  25 C :   -0.038935
  26 H :    0.020577
  27 H :    0.024260
  28 C :   -0.076640
  29 H :    0.038526
  30 H :    0.024023
  31 H :    0.022571
  32 H :    0.016657
  33 H :    0.030927

  Mayer bond orders larger than 0.100000
B(  0-S ,  1-C ) :   1.1690 B(  0-S ,  4-C ) :   1.1716 B(  1-C ,  2-C ) :   1.5612
B(  1-C ,  4-C ) :   0.1052 B(  1-C , 32-H ) :   0.9708 B(  2-C ,  3-C ) :   1.2968
B(  2-C ,  6-C ) :   1.0231 B(  3-C ,  4-C ) :   1.5063 B(  3-C ,  5-H ) :   0.9952
B(  4-C , 20-C ) :   1.0732 B(  6-C ,  7-H ) :   0.9396 B(  6-C ,  8-H ) :   0.9470
B(  6-C ,  9-C ) :   1.0481 B(  9-C , 10-H ) :   0.9599 B(  9-C , 11-H ) :   0.9581
B(  9-C , 12-C ) :   1.0686 B( 12-C , 13-H ) :   0.9735 B( 12-C , 14-H ) :   0.9731
B( 12-C , 15-H ) :   0.9749 B( 16-S , 17-C ) :   1.1766 B( 16-S , 20-C ) :   1.1309
B( 17-C , 18-C ) :   1.6137 B( 17-C , 33-H ) :   0.9561 B( 18-C , 19-C ) :   1.2344
B( 18-C , 21-H ) :   0.9981 B( 19-C , 20-C ) :   1.5779 B( 19-C , 22-C ) :   1.0442
B( 22-C , 23-H ) :   0.9448 B( 22-C , 24-H ) :   0.9296 B( 22-C , 25-C ) :   1.0537
B( 25-C , 26-H ) :   0.9617 B( 25-C , 27-H ) :   0.9642 B( 25-C , 28-C ) :   1.0510
B( 28-C , 29-H ) :   0.9776 B( 28-C , 30-H ) :   0.9788 B( 28-C , 31-H ) :   0.9778

Dispersion correction           -0.014541985
FINAL SINGLE POINT ENERGY     -1339.878135005049

DIPOLE MOMENT
-------------
                                X             Y             Z
Electronic contribution:     16.16304      -8.86472       8.82880
Nuclear contribution   :    -16.42773       9.01939      -8.86512
                        -----------------------------------------
Total Dipole Moment    :     -0.26469       0.15466      -0.03632
                        -----------------------------------------
Magnitude (a.u.)       :      0.30871
Magnitude (Debye)      :      0.78468

Rotational constants in cm-1:     0.021311     0.007337     0.006810
Rotational constants in MHz :   638.884279   219.945706   204.173651

                             ****ORCA TERMINATED NORMALLY****
TOTAL RUN TIME: 0 days 0 hours 0 minutes 29 seconds 717 msec
