                         Program Version 4.2.1 -  RELEASE  -
|  1> ! wB97X-D3 SP def2-SVP
|  2> %pal
|  3> nprocs 16
|  4> end
|  5>
|  6> * xyz 0 1
|  7> S 	 -100.226 	 43.9482 	 120.612
|  8> C 	 -100.827 	 44.5052 	 122.221
|  9> C 	 -100.411 	 45.7683 	 122.457
| 10> C 	 -99.4161 	 46.1823 	 121.479
| 11> C 	 -99.2722 	 45.4247 	 120.382
| 12> H 	 -98.9138 	 47.1232 	 121.552
| 13> C 	 -100.854 	 46.6466 	 123.642
| 14> H 	 -100.037 	 47.2623 	 124.109
| 15> H 	 -101.116 	 46.0628 	 124.548
| 16> C 	 -101.971 	 47.6977 	 123.327
| 17> H 	 -101.817 	 48.3856 	 122.448
| 18> H 	 -102.903 	 47.2319 	 123.053
| 19> C 	 -102.231 	 48.5372 	 124.485
| 20> H 	 -103.113 	 49.0655 	 124.301
| 21> H 	 -102.288 	 47.8493 	 125.343
| 22> H 	 -101.425 	 49.2166 	 124.717
| 23> S 	 -97.5053 	 44.4343 	 118.557
| 24> C 	 -96.9617 	 45.3835 	 117.28
| 25> C 	 -97.387 	 46.6586 	 117.412
| 26> C 	 -98.3367 	 46.842 	 118.458
| 27> C 	 -98.4809 	 45.6864 	 119.223
| 28> H 	 -97.1824 	 47.4318 	 116.657
| 29> C 	 -99.2693 	 48.0704 	 118.603
| 30> H 	 -98.7873 	 48.8791 	 118.077
| 31> H 	 -99.3646 	 48.4654 	 119.643
| 32> C 	 -100.635 	 47.7784 	 117.942
| 33> H 	 -101.073 	 46.877 	 118.289
| 34> H 	 -100.587 	 47.671 	 116.825
| 35> C 	 -101.608 	 48.9458 	 118.16
| 36> H 	 -101.978 	 49.0857 	 119.164
| 37> H 	 -102.509 	 48.6919 	 117.72
| 38> H 	 -101.343 	 49.832 	 117.609
| 39> H 	 -101.426 	 43.8134 	 122.848
| 40> H 	 -96.3814 	 45.0087 	 116.429
| 41> *
| 42>
| 43>                          ****END OF INPUT****

CARTESIAN COORDINATES (ANGSTROEM)
---------------------------------
  S    -100.226000   43.948200  120.612000
  C    -100.827000   44.505200  122.221000
  C    -100.411000   45.768300  122.457000
  C    -99.416100   46.182300  121.479000
  C    -99.272200   45.424700  120.382000
  H    -98.913800   47.123200  121.552000
  C    -100.854000   46.646600  123.642000
  H    -100.037000   47.262300  124.109000
  H    -101.116000   46.062800  124.548000
  C    -101.971000   47.697700  123.327000
  H    -101.817000   48.385600  122.448000
  H    -102.903000   47.231900  123.053000
  C    -102.231000   48.537200  124.485000
  H    -103.113000   49.065500  124.301000
  H    -102.288000   47.849300  125.343000
  H    -101.425000   49.216600  124.717000
  S    -97.505300   44.434300  118.557000
  C    -96.961700   45.383500  117.280000
  C    -97.387000   46.658600  117.412000
  C    -98.336700   46.842000  118.458000
  C    -98.480900   45.686400  119.223000
  H    -97.182400   47.431800  116.657000
  C    -99.269300   48.070400  118.603000
  H    -98.787300   48.879100  118.077000
  H    -99.364600   48.465400  119.643000
  C    -100.635000   47.778400  117.942000
  H    -101.073000   46.877000  118.289000
  H    -100.587000   47.671000  116.825000
  C    -101.608000   48.945800  118.160000
  H    -101.978000   49.085700  119.164000
  H    -102.509000   48.691900  117.720000
  H    -101.343000   49.832000  117.609000
  H    -101.426000   43.813400  122.848000
  H    -96.381400   45.008700  116.429000

 Total Charge           Charge          ....    0
 Multiplicity           Mult            ....    1
 Number of Electrons    NEL             ....  134
 Basis Dimension        Dim             ....  322

ORBITAL ENERGIES
----------------

  NO   OCC          E(Eh)            E(eV)
   0   2.0000     -88.963046     -2420.8076
   1   2.0000     -88.958740     -2420.6904
   2   2.0000     -10.325265      -280.9648
   3   2.0000     -10.320158      -280.8258
   4   2.0000     -10.319688      -280.8130
   5   2.0000     -10.311405      -280.5876
   6   2.0000     -10.305549      -280.4282
   7   2.0000     -10.304163      -280.3905
   8   2.0000     -10.303479      -280.3719
   9   2.0000     -10.295055      -280.1427
  10   2.0000     -10.290747      -280.0255
  11   2.0000     -10.288771      -279.9717
  12   2.0000     -10.285106      -279.8720
  13   2.0000     -10.284756      -279.8624
  14   2.0000     -10.268934      -279.4319
  15   2.0000     -10.265752      -279.3453
  16   2.0000      -8.079744      -219.8610
  17   2.0000      -8.072876      -219.6741
  18   2.0000      -6.038009      -164.3026
  19   2.0000      -6.033850      -164.1894
  20   2.0000      -6.031628      -164.1290
  21   2.0000      -6.030751      -164.1051
  22   2.0000      -6.027536      -164.0176
  23   2.0000      -6.023322      -163.9029
  24   2.0000      -1.015171       -27.6242
  25   2.0000      -0.986527       -26.8448
  26   2.0000      -0.916956       -24.9517
  27   2.0000      -0.906452       -24.6658
  28   2.0000      -0.880061       -23.9477
  29   2.0000      -0.853192       -23.2165
  30   2.0000      -0.842353       -22.9216
  31   2.0000      -0.818169       -22.2635
  32   2.0000      -0.783578       -21.3222
  33   2.0000      -0.772511       -21.0211
  34   2.0000      -0.707437       -19.2504
  35   2.0000      -0.696792       -18.9607
  36   2.0000      -0.694667       -18.9028
  37   2.0000      -0.662933       -18.0393
  38   2.0000      -0.642823       -17.4921
  39   2.0000      -0.622049       -16.9268
  40   2.0000      -0.599442       -16.3116
  41   2.0000      -0.572564       -15.5803
  42   2.0000      -0.563687       -15.3387
  43   2.0000      -0.559947       -15.2369
  44   2.0000      -0.535965       -14.5844
  45   2.0000      -0.522601       -14.2207
  46   2.0000      -0.520181       -14.1548
  47   2.0000      -0.512089       -13.9346
  48   2.0000      -0.509282       -13.8583
  49   2.0000      -0.500106       -13.6086
  50   2.0000      -0.494809       -13.4644
  51   2.0000      -0.490038       -13.3346
  52   2.0000      -0.468781       -12.7562
  53   2.0000      -0.463034       -12.5998
  54   2.0000      -0.457624       -12.4526
  55   2.0000      -0.446917       -12.1612
  56   2.0000      -0.446075       -12.1383
  57   2.0000      -0.439105       -11.9487
  58   2.0000      -0.430384       -11.7113
  59   2.0000      -0.421716       -11.4755
  60   2.0000      -0.419113       -11.4046
  61   2.0000      -0.411795       -11.2055
  62   2.0000      -0.409178       -11.1343
  63   2.0000      -0.351000        -9.5512
  64   2.0000      -0.331881        -9.0309
  65   2.0000      -0.326764        -8.8917
  66   2.0000      -0.295909        -8.0521
  67   0.0000       0.028682         0.7805
  68   0.0000       0.084512         2.2997
  69   0.0000       0.111602         3.0368
  70   0.0000       0.123989         3.3739
  71   0.0000       0.128992         3.5101

MULLIKEN ATOMIC CHARGES
-----------------------
   0 S :    0.072498
   1 C :   -0.148700
   2 C :   -0.029410
   3 C :    0.034773
   4 C :   -0.116118
   5 H :    0.000051
   6 C :    0.008627
   7 H :    0.026121
   8 H :    0.028390
   9 C :   -0.074041
  10 H :    0.030443
  11 H :    0.019372
  12 C :   -0.010533
  13 H :    0.025399
  14 H :    0.018278
  15 H :    0.026706
  16 S :    0.125846
  17 C :   -0.093024
  18 C :   -0.038111
  19 C :   -0.043729
  20 C :   -0.171013
  21 H :    0.022076
  22 C :    0.080735
  23 H :    0.007115
  24 H :    0.032857
  25 C :   -0.075380
  26 H :    0.029471
  27 H :    0.031473
  28 C :   -0.004279
  29 H :    0.026349
  30 H :   -0.002781
  31 H :    0.026994
  32 H :    0.066987
  33 H :    0.066557
Sum of atomic charges:    0.0000000

LOEWDIN ATOMIC CHARGES
----------------------
   0 S :    0.352139
   1 C :   -0.171037
   2 C :   -0.064254
   3 C :   -0.056149
   4 C :   -0.183498
   5 H :    0.025642
   6 C :   -0.037706
   7 H :    0.034132
   8 H :    0.033113
   9 C :   -0.045572
  10 H :    0.028073
  11 H :    0.020383
  12 C :   -0.058933
  13 H :    0.022099
  14 H :    0.025432
  15 H :    0.021895
  16 S :    0.449547
  17 C :   -0.206659
  18 C :   -0.081611
  19 C :   -0.050504
  20 C :   -0.215914
  21 H :    0.034154
  22 C :   -0.029766
  23 H :    0.025526
  24 H :    0.032521
  25 C :   -0.031152
  26 H :    0.020521
  27 H :    0.031998
  28 C :   -0.066789
  29 H :    0.024791
  30 H :    0.018912
  31 H :    0.024703
  32 H :    0.036279
  33 H :    0.037683

  Mayer bond orders larger than 0.100000
B(  0-S ,  1-C ) :   1.1096 B(  0-S ,  4-C ) :   1.1049 B(  1-C ,  2-C ) :   1.6497
B(  1-C , 32-H ) :   0.9694 B(  2-C ,  3-C ) :   1.1965 B(  2-C ,  6-C ) :   1.0170
B(  3-C ,  4-C ) :   1.6303 B(  3-C ,  5-H ) :   0.9961 B(  4-C , 20-C ) :   1.0673
B(  6-C ,  7-H ) :   0.9490 B(  6-C ,  8-H ) :   0.9441 B(  6-C ,  9-C ) :   1.0487
B(  9-C , 10-H ) :   0.9531 B(  9-C , 11-H ) :   0.9523 B(  9-C , 12-C ) :   1.0975
B( 12-C , 13-H ) :   0.9684 B( 12-C , 14-H ) :   0.9685 B( 12-C , 15-H ) :   0.9718
B( 16-S , 17-C ) :   1.1807 B( 16-S , 20-C ) :   1.1601 B( 17-C , 18-C ) :   1.5754
B( 17-C , 33-H ) :   0.9657 B( 18-C , 19-C ) :   1.2875 B( 18-C , 21-H ) :   0.9851
B( 19-C , 20-C ) :   1.5537 B( 19-C , 22-C ) :   1.0466 B( 22-C , 23-H ) :   0.9273
B( 22-C , 24-H ) :   0.9404 B( 22-C , 25-C ) :   1.0567 B( 25-C , 26-H ) :   0.9603
B( 25-C , 27-H ) :   0.9532 B( 25-C , 28-C ) :   1.0969 B( 28-C , 29-H ) :   0.9700
B( 28-C , 30-H ) :   0.9623 B( 28-C , 31-H ) :   0.9727

Dispersion correction           -0.014299006
FINAL SINGLE POINT ENERGY     -1339.873859689425

DIPOLE MOMENT
-------------
                                X             Y             Z
Electronic contribution:     17.18385     -25.14309      -9.28972
Nuclear contribution   :    -17.49992      25.79666       9.32585
                        -----------------------------------------
Total Dipole Moment    :     -0.31608       0.65357       0.03613
                        -----------------------------------------
Magnitude (a.u.)       :      0.72689
Magnitude (Debye)      :      1.84759

Rotational constants in cm-1:     0.019300     0.008924     0.006895
Rotational constants in MHz :   578.604420   267.543769   206.715478

                             ****ORCA TERMINATED NORMALLY****
TOTAL RUN TIME: 0 days 0 hours 0 minutes 31 seconds 692 msec
