                         Program Version 4.2.1 -  RELEASE  -
|  1> ! wB97X-D3 SP def2-SVP
|  2> %pal
|  3> nprocs 16
|  4> end
|  5>
|  6> * xyz 0 1
|  7> S 	 -42.0372 	 58.8356 	 105.843
|  8> C 	 -43.528 	 59.2074 	 105.021
|  9> C 	 -43.6921 	 58.4527 	 103.86
| 10> C 	 -42.6837 	 57.4673 	 103.758
| 11> C 	 -41.7729 	 57.4478 	 104.805
| 12> H 	 -42.567 	 56.7607 	 102.886
| 13> C 	 -44.8022 	 58.6957 	 102.838
| 14> H 	 -44.4695 	 59.4125 	 102.062
| 15> H 	 -45.5786 	 59.233 	 103.402
| 16> C 	 -45.4657 	 57.5998 	 102.08
| 17> H 	 -46.1988 	 57.9122 	 101.377
| 18> H 	 -44.7392 	 57.1205 	 101.432
| 19> C 	 -46.1244 	 56.5681 	 102.871
| 20> H 	 -45.4114 	 56.0147 	 103.542
| 21> H 	 -47.0306 	 56.9888 	 103.374
| 22> H 	 -46.5932 	 55.75 	 102.303
| 23> S 	 -39.0772 	 57.2941 	 105.005
| 24> C 	 -38.3012 	 55.6765 	 105.152
| 25> C 	 -39.2521 	 54.687 	 105.121
| 26> C 	 -40.5428 	 55.171 	 104.922
| 27> C 	 -40.6496 	 56.5899 	 104.989
| 28> H 	 -38.9449 	 53.6603 	 105.289
| 29> C 	 -41.7807 	 54.3012 	 104.955
| 30> H 	 -42.7015 	 54.907 	 105.043
| 31> H 	 -41.8873 	 53.8038 	 105.902
| 32> C 	 -42.0023 	 53.3779 	 103.83
| 33> H 	 -41.0876 	 52.7541 	 103.729
| 34> H 	 -42.1192 	 54 	 102.93
| 35> C 	 -43.2046 	 52.5052 	 103.972
| 36> H 	 -44.1672 	 53.0466 	 104.07
| 37> H 	 -43.2893 	 51.8966 	 104.852
| 38> H 	 -43.3072 	 51.8068 	 103.072
| 39> H 	 -44.1825 	 60.0135 	 105.364
| 40> H 	 -37.2777 	 55.3528 	 105.412
| 41> *
| 42>
| 43>                          ****END OF INPUT****

CARTESIAN COORDINATES (ANGSTROEM)
---------------------------------
  S    -42.037200   58.835600  105.843000
  C    -43.528000   59.207400  105.021000
  C    -43.692100   58.452700  103.860000
  C    -42.683700   57.467300  103.758000
  C    -41.772900   57.447800  104.805000
  H    -42.567000   56.760700  102.886000
  C    -44.802200   58.695700  102.838000
  H    -44.469500   59.412500  102.062000
  H    -45.578600   59.233000  103.402000
  C    -45.465700   57.599800  102.080000
  H    -46.198800   57.912200  101.377000
  H    -44.739200   57.120500  101.432000
  C    -46.124400   56.568100  102.871000
  H    -45.411400   56.014700  103.542000
  H    -47.030600   56.988800  103.374000
  H    -46.593200   55.750000  102.303000
  S    -39.077200   57.294100  105.005000
  C    -38.301200   55.676500  105.152000
  C    -39.252100   54.687000  105.121000
  C    -40.542800   55.171000  104.922000
  C    -40.649600   56.589900  104.989000
  H    -38.944900   53.660300  105.289000
  C    -41.780700   54.301200  104.955000
  H    -42.701500   54.907000  105.043000
  H    -41.887300   53.803800  105.902000
  C    -42.002300   53.377900  103.830000
  H    -41.087600   52.754100  103.729000
  H    -42.119200   54.000000  102.930000
  C    -43.204600   52.505200  103.972000
  H    -44.167200   53.046600  104.070000
  H    -43.289300   51.896600  104.852000
  H    -43.307200   51.806800  103.072000
  H    -44.182500   60.013500  105.364000
  H    -37.277700   55.352800  105.412000

 Total Charge           Charge          ....    0
 Multiplicity           Mult            ....    1
 Number of Electrons    NEL             ....  134
 Basis Dimension        Dim             ....  322

ORBITAL ENERGIES
----------------

  NO   OCC          E(Eh)            E(eV)
   0   2.0000     -88.969293     -2420.9776
   1   2.0000     -88.969200     -2420.9750
   2   2.0000     -10.328967      -281.0655
   3   2.0000     -10.326182      -280.9897
   4   2.0000     -10.319619      -280.8111
   5   2.0000     -10.318214      -280.7729
   6   2.0000     -10.306343      -280.4498
   7   2.0000     -10.301590      -280.3205
   8   2.0000     -10.300323      -280.2860
   9   2.0000     -10.295206      -280.1468
  10   2.0000     -10.291558      -280.0475
  11   2.0000     -10.282330      -279.7964
  12   2.0000     -10.280167      -279.7376
  13   2.0000     -10.279135      -279.7095
  14   2.0000     -10.278024      -279.6793
  15   2.0000     -10.277419      -279.6628
  16   2.0000      -8.084032      -219.9777
  17   2.0000      -8.083406      -219.9607
  18   2.0000      -6.042418      -164.4226
  19   2.0000      -6.042054      -164.4127
  20   2.0000      -6.038568      -164.3178
  21   2.0000      -6.037926      -164.3003
  22   2.0000      -6.034884      -164.2175
  23   2.0000      -6.034103      -164.1963
  24   2.0000      -1.010195       -27.4888
  25   2.0000      -0.985347       -26.8127
  26   2.0000      -0.923324       -25.1249
  27   2.0000      -0.916811       -24.9477
  28   2.0000      -0.878553       -23.9066
  29   2.0000      -0.851887       -23.1810
  30   2.0000      -0.849314       -23.1110
  31   2.0000      -0.817628       -22.2488
  32   2.0000      -0.786445       -21.4003
  33   2.0000      -0.769281       -20.9332
  34   2.0000      -0.712131       -19.3781
  35   2.0000      -0.695189       -18.9171
  36   2.0000      -0.693406       -18.8685
  37   2.0000      -0.656809       -17.8727
  38   2.0000      -0.640680       -17.4338
  39   2.0000      -0.624188       -16.9850
  40   2.0000      -0.596969       -16.2443
  41   2.0000      -0.570435       -15.5223
  42   2.0000      -0.564026       -15.3479
  43   2.0000      -0.560492       -15.2518
  44   2.0000      -0.553620       -15.0648
  45   2.0000      -0.530667       -14.4402
  46   2.0000      -0.518864       -14.1190
  47   2.0000      -0.509431       -13.8623
  48   2.0000      -0.507800       -13.8180
  49   2.0000      -0.500568       -13.6211
  50   2.0000      -0.492347       -13.3974
  51   2.0000      -0.476349       -12.9621
  52   2.0000      -0.471114       -12.8197
  53   2.0000      -0.462883       -12.5957
  54   2.0000      -0.453241       -12.3333
  55   2.0000      -0.449322       -12.2267
  56   2.0000      -0.442451       -12.0397
  57   2.0000      -0.440884       -11.9971
  58   2.0000      -0.434765       -11.8306
  59   2.0000      -0.423595       -11.5266
  60   2.0000      -0.420453       -11.4411
  61   2.0000      -0.409871       -11.1531
  62   2.0000      -0.405060       -11.0222
  63   2.0000      -0.350633        -9.5412
  64   2.0000      -0.334407        -9.0997
  65   2.0000      -0.330123        -8.9831
  66   2.0000      -0.288470        -7.8497
  67   0.0000       0.023650         0.6436
  68   0.0000       0.064856         1.7648
  69   0.0000       0.109319         2.9747
  70   0.0000       0.116762         3.1773
  71   0.0000       0.128675         3.5014

MULLIKEN ATOMIC CHARGES
-----------------------
   0 S :    0.118517
   1 C :   -0.131722
   2 C :   -0.084470
   3 C :    0.018996
   4 C :   -0.178346
   5 H :    0.037709
   6 C :    0.081105
   7 H :    0.049388
   8 H :    0.012549
   9 C :   -0.040259
  10 H :    0.017727
  11 H :    0.013194
  12 C :   -0.078594
  13 H :    0.043025
  14 H :    0.028651
  15 H :    0.024889
  16 S :    0.113104
  17 C :   -0.095742
  18 C :   -0.042679
  19 C :    0.011866
  20 C :   -0.146160
  21 H :    0.023001
  22 C :    0.026560
  23 H :    0.012858
  24 H :    0.016264
  25 C :   -0.047546
  26 H :    0.027334
  27 H :    0.024295
  28 C :   -0.059575
  29 H :    0.023290
  30 H :    0.019400
  31 H :    0.044690
  32 H :    0.055901
  33 H :    0.060782
Sum of atomic charges:   -0.0000000

LOEWDIN ATOMIC CHARGES
----------------------
   0 S :    0.414785
   1 C :   -0.195348
   2 C :   -0.064697
   3 C :   -0.063875
   4 C :   -0.200886
   5 H :    0.041174
   6 C :   -0.032415
   7 H :    0.042300
   8 H :    0.030846
   9 C :   -0.055291
  10 H :    0.028269
  11 H :    0.021816
  12 C :   -0.073718
  13 H :    0.028393
  14 H :    0.028036
  15 H :    0.026638
  16 S :    0.408110
  17 C :   -0.185023
  18 C :   -0.067754
  19 C :   -0.056636
  20 C :   -0.207379
  21 H :    0.035643
  22 C :   -0.043879
  23 H :    0.030525
  24 H :    0.026750
  25 C :   -0.046661
  26 H :    0.025136
  27 H :    0.026437
  28 C :   -0.073653
  29 H :    0.026769
  30 H :    0.020239
  31 H :    0.035995
  32 H :    0.030038
  33 H :    0.039316

  Mayer bond orders larger than 0.100000
B(  0-S ,  1-C ) :   1.1543 B(  0-S ,  4-C ) :   1.1564 B(  1-C ,  2-C ) :   1.5859
B(  1-C ,  4-C ) :   0.1068 B(  1-C , 32-H ) :   0.9673 B(  2-C ,  3-C ) :   1.2659
B(  2-C ,  6-C ) :   1.0096 B(  3-C ,  4-C ) :   1.5453 B(  3-C ,  5-H ) :   0.9841
B(  4-C , 20-C ) :   1.0577 B(  6-C ,  7-H ) :   0.9312 B(  6-C ,  8-H ) :   0.9378
B(  6-C ,  9-C ) :   1.0903 B(  9-C , 10-H ) :   0.9429 B(  9-C , 11-H ) :   0.9387
B(  9-C , 12-C ) :   1.1019 B( 12-C , 13-H ) :   0.9698 B( 12-C , 14-H ) :   0.9696
B( 12-C , 15-H ) :   0.9686 B( 16-S , 17-C ) :   1.1384 B( 16-S , 20-C ) :   1.1581
B( 17-C , 18-C ) :   1.6156 B( 17-C , 20-C ) :   0.1125 B( 17-C , 33-H ) :   0.9591
B( 18-C , 19-C ) :   1.2614 B( 18-C , 21-H ) :   0.9873 B( 19-C , 20-C ) :   1.5487
B( 19-C , 22-C ) :   1.0405 B( 22-C , 23-H ) :   0.9309 B( 22-C , 24-H ) :   0.9394
B( 22-C , 25-C ) :   1.0643 B( 25-C , 26-H ) :   0.9532 B( 25-C , 27-H ) :   0.9457
B( 25-C , 28-C ) :   1.0909 B( 28-C , 29-H ) :   0.9686 B( 28-C , 30-H ) :   0.9707
B( 28-C , 31-H ) :   0.9725

Dispersion correction           -0.014678662
FINAL SINGLE POINT ENERGY     -1339.874917290327

DIPOLE MOMENT
-------------
                                X             Y             Z
Electronic contribution:     23.40844      18.30065      12.86993
Nuclear contribution   :    -23.85915     -18.62810     -13.16046
                        -----------------------------------------
Total Dipole Moment    :     -0.45071      -0.32745      -0.29053
                        -----------------------------------------
Magnitude (a.u.)       :      0.62831
Magnitude (Debye)      :      1.59703

Rotational constants in cm-1:     0.016500     0.010463     0.006988
Rotational constants in MHz :   494.654713   313.658142   209.491567

                             ****ORCA TERMINATED NORMALLY****
TOTAL RUN TIME: 0 days 0 hours 0 minutes 30 seconds 981 msec
