                         Program Version 4.2.1 -  RELEASE  -
|  1> ! wB97X-D3 SP def2-SVP
|  2> %pal
|  3> nprocs 16
|  4> end
|  5>
|  6> * xyz 0 1
|  7> S 	 40.7826 	 19.464 	 82.3126
|  8> C 	 39.3499 	 20.4726 	 82.0858
|  9> C 	 39.2698 	 20.9207 	 80.7346
| 10> C 	 40.2937 	 20.3373 	 79.9559
| 11> C 	 41.1962 	 19.5129 	 80.6155
| 12> H 	 40.474 	 20.6943 	 78.9423
| 13> C 	 38.242 	 21.8547 	 80.1255
| 14> H 	 38.8388 	 22.3792 	 79.3502
| 15> H 	 37.8732 	 22.5162 	 80.8296
| 16> C 	 37.1433 	 21.1164 	 79.348
| 17> H 	 37.6001 	 20.3928 	 78.7327
| 18> H 	 36.508 	 20.5879 	 80.0537
| 19> C 	 36.2323 	 21.9611 	 78.5486
| 20> H 	 35.3502 	 22.0923 	 79.0697
| 21> H 	 36.7086 	 22.9026 	 78.2773
| 22> H 	 35.9824 	 21.4565 	 77.6214
| 23> S 	 43.8158 	 19.0958 	 80.8448
| 24> C 	 44.7405 	 18.5366 	 79.4288
| 25> C 	 43.8695 	 18.0552 	 78.4734
| 26> C 	 42.5013 	 18.2696 	 78.7606
| 27> C 	 42.341 	 18.8082 	 80.0703
| 28> H 	 44.2487 	 17.7685 	 77.5224
| 29> C 	 41.392 	 18.044 	 77.6739
| 30> H 	 41.9951 	 18.162 	 76.757
| 31> H 	 40.7966 	 18.9505 	 77.6253
| 32> C 	 40.5501 	 16.7652 	 77.7619
| 33> H 	 39.5901 	 17.0379 	 77.2495
| 34> H 	 40.306 	 16.4768 	 78.792
| 35> C 	 41.1543 	 15.5693 	 77.0367
| 36> H 	 40.5581 	 14.6676 	 77.2948
| 37> H 	 42.1629 	 15.3005 	 77.3841
| 38> H 	 41.1219 	 15.7504 	 75.965
| 39> H 	 38.5129 	 20.6885 	 82.7662
| 40> H 	 45.8034 	 18.6087 	 79.2879
| 41> *
| 42>
| 43>                          ****END OF INPUT****

CARTESIAN COORDINATES (ANGSTROEM)
---------------------------------
  S     40.782600   19.464000   82.312600
  C     39.349900   20.472600   82.085800
  C     39.269800   20.920700   80.734600
  C     40.293700   20.337300   79.955900
  C     41.196200   19.512900   80.615500
  H     40.474000   20.694300   78.942300
  C     38.242000   21.854700   80.125500
  H     38.838800   22.379200   79.350200
  H     37.873200   22.516200   80.829600
  C     37.143300   21.116400   79.348000
  H     37.600100   20.392800   78.732700
  H     36.508000   20.587900   80.053700
  C     36.232300   21.961100   78.548600
  H     35.350200   22.092300   79.069700
  H     36.708600   22.902600   78.277300
  H     35.982400   21.456500   77.621400
  S     43.815800   19.095800   80.844800
  C     44.740500   18.536600   79.428800
  C     43.869500   18.055200   78.473400
  C     42.501300   18.269600   78.760600
  C     42.341000   18.808200   80.070300
  H     44.248700   17.768500   77.522400
  C     41.392000   18.044000   77.673900
  H     41.995100   18.162000   76.757000
  H     40.796600   18.950500   77.625300
  C     40.550100   16.765200   77.761900
  H     39.590100   17.037900   77.249500
  H     40.306000   16.476800   78.792000
  C     41.154300   15.569300   77.036700
  H     40.558100   14.667600   77.294800
  H     42.162900   15.300500   77.384100
  H     41.121900   15.750400   75.965000
  H     38.512900   20.688500   82.766200
  H     45.803400   18.608700   79.287900

 Total Charge           Charge          ....    0
 Multiplicity           Mult            ....    1
 Number of Electrons    NEL             ....  134
 Basis Dimension        Dim             ....  322

ORBITAL ENERGIES
----------------

  NO   OCC          E(Eh)            E(eV)
   0   2.0000     -88.968593     -2420.9585
   1   2.0000     -88.968537     -2420.9570
   2   2.0000     -10.330262      -281.1007
   3   2.0000     -10.325498      -280.9711
   4   2.0000     -10.319010      -280.7945
   5   2.0000     -10.317582      -280.7557
   6   2.0000     -10.307063      -280.4695
   7   2.0000     -10.300611      -280.2939
   8   2.0000     -10.295924      -280.1663
   9   2.0000     -10.292507      -280.0734
  10   2.0000     -10.290092      -280.0076
  11   2.0000     -10.289765      -279.9987
  12   2.0000     -10.289516      -279.9920
  13   2.0000     -10.278532      -279.6931
  14   2.0000     -10.275817      -279.6192
  15   2.0000     -10.266764      -279.3729
  16   2.0000      -8.083825      -219.9721
  17   2.0000      -8.082631      -219.9396
  18   2.0000      -6.042277      -164.4187
  19   2.0000      -6.041203      -164.3895
  20   2.0000      -6.038113      -164.3054
  21   2.0000      -6.037122      -164.2784
  22   2.0000      -6.034734      -164.2135
  23   2.0000      -6.033489      -164.1796
  24   2.0000      -1.008460       -27.4416
  25   2.0000      -0.981299       -26.7025
  26   2.0000      -0.919532       -25.0217
  27   2.0000      -0.904488       -24.6124
  28   2.0000      -0.873775       -23.7766
  29   2.0000      -0.851568       -23.1724
  30   2.0000      -0.849123       -23.1058
  31   2.0000      -0.812322       -22.1044
  32   2.0000      -0.784466       -21.3464
  33   2.0000      -0.771084       -20.9823
  34   2.0000      -0.706911       -19.2360
  35   2.0000      -0.699568       -19.0362
  36   2.0000      -0.689093       -18.7512
  37   2.0000      -0.664920       -18.0934
  38   2.0000      -0.635193       -17.2845
  39   2.0000      -0.624231       -16.9862
  40   2.0000      -0.593075       -16.1384
  41   2.0000      -0.576962       -15.6999
  42   2.0000      -0.565078       -15.3766
  43   2.0000      -0.546558       -14.8726
  44   2.0000      -0.542986       -14.7754
  45   2.0000      -0.528191       -14.3728
  46   2.0000      -0.523496       -14.2451
  47   2.0000      -0.510227       -13.8840
  48   2.0000      -0.505941       -13.7673
  49   2.0000      -0.502471       -13.6729
  50   2.0000      -0.490617       -13.3504
  51   2.0000      -0.477310       -12.9883
  52   2.0000      -0.475785       -12.9468
  53   2.0000      -0.467823       -12.7301
  54   2.0000      -0.456988       -12.4353
  55   2.0000      -0.447213       -12.1693
  56   2.0000      -0.443086       -12.0570
  57   2.0000      -0.436692       -11.8830
  58   2.0000      -0.430686       -11.7196
  59   2.0000      -0.428528       -11.6608
  60   2.0000      -0.419716       -11.4210
  61   2.0000      -0.415537       -11.3073
  62   2.0000      -0.411187       -11.1890
  63   2.0000      -0.354060        -9.6345
  64   2.0000      -0.333017        -9.0618
  65   2.0000      -0.327335        -8.9072
  66   2.0000      -0.282388        -7.6842
  67   0.0000       0.024463         0.6657
  68   0.0000       0.067955         1.8491
  69   0.0000       0.102703         2.7947
  70   0.0000       0.117619         3.2006
  71   0.0000       0.131845         3.5877

MULLIKEN ATOMIC CHARGES
-----------------------
   0 S :    0.111795
   1 C :   -0.124322
   2 C :   -0.119700
   3 C :   -0.001667
   4 C :   -0.135640
   5 H :    0.020136
   6 C :    0.091404
   7 H :    0.022801
   8 H :    0.009667
   9 C :   -0.069886
  10 H :    0.011227
  11 H :    0.017253
  12 C :    0.016270
  13 H :    0.017354
  14 H :    0.020808
  15 H :    0.023411
  16 S :    0.113127
  17 C :   -0.102261
  18 C :   -0.014821
  19 C :   -0.085700
  20 C :   -0.115657
  21 H :    0.008023
  22 C :    0.082074
  23 H :    0.011433
  24 H :    0.011395
  25 C :   -0.050450
  26 H :    0.032362
  27 H :    0.043670
  28 C :   -0.058780
  29 H :    0.035435
  30 H :    0.035378
  31 H :    0.034355
  32 H :    0.053775
  33 H :    0.055731
Sum of atomic charges:    0.0000000

LOEWDIN ATOMIC CHARGES
----------------------
   0 S :    0.405437
   1 C :   -0.211600
   2 C :   -0.057295
   3 C :   -0.075109
   4 C :   -0.194081
   5 H :    0.028629
   6 C :   -0.020896
   7 H :    0.035204
   8 H :    0.018241
   9 C :   -0.037999
  10 H :    0.016818
  11 H :    0.023820
  12 C :   -0.056786
  13 H :    0.017340
  14 H :    0.024381
  15 H :    0.029836
  16 S :    0.430791
  17 C :   -0.179032
  18 C :   -0.068569
  19 C :   -0.054202
  20 C :   -0.222964
  21 H :    0.026319
  22 C :   -0.031648
  23 H :    0.031517
  24 H :    0.026538
  25 C :   -0.041437
  26 H :    0.031129
  27 H :    0.030359
  28 C :   -0.068106
  29 H :    0.030600
  30 H :    0.025448
  31 H :    0.023598
  32 H :    0.034886
  33 H :    0.028834

  Mayer bond orders larger than 0.100000
B(  0-S ,  1-C ) :   1.1405 B(  0-S ,  4-C ) :   1.1545 B(  1-C ,  2-C ) :   1.5825
B(  1-C ,  4-C ) :   0.1089 B(  1-C , 32-H ) :   0.9643 B(  2-C ,  3-C ) :   1.2905
B(  2-C ,  6-C ) :   1.0282 B(  3-C ,  4-C ) :   1.5573 B(  3-C ,  5-H ) :   0.9757
B(  4-C , 20-C ) :   1.0247 B(  6-C ,  7-H ) :   0.9328 B(  6-C ,  8-H ) :   0.9410
B(  6-C ,  9-C ) :   1.0745 B(  9-C , 10-H ) :   0.9589 B(  9-C , 11-H ) :   0.9550
B(  9-C , 12-C ) :   1.0851 B( 12-C , 13-H ) :   0.9760 B( 12-C , 14-H ) :   0.9720
B( 12-C , 15-H ) :   0.9718 B( 16-S , 17-C ) :   1.1579 B( 16-S , 20-C ) :   1.1758
B( 17-C , 18-C ) :   1.5838 B( 17-C , 20-C ) :   0.1030 B( 17-C , 33-H ) :   0.9719
B( 18-C , 19-C ) :   1.2878 B( 18-C , 21-H ) :   0.9886 B( 19-C , 20-C ) :   1.5460
B( 19-C , 22-C ) :   1.0170 B( 22-C , 23-H ) :   0.9357 B( 22-C , 24-H ) :   0.9384
B( 22-C , 25-C ) :   1.0499 B( 25-C , 26-H ) :   0.9537 B( 25-C , 27-H ) :   0.9614
B( 25-C , 28-C ) :   1.0839 B( 28-C , 29-H ) :   0.9732 B( 28-C , 30-H ) :   0.9757
B( 28-C , 31-H ) :   0.9761

Dispersion correction           -0.013917319
FINAL SINGLE POINT ENERGY     -1339.868327744918

DIPOLE MOMENT
-------------
                                X             Y             Z
Electronic contribution:     21.23123       0.94824      21.64755
Nuclear contribution   :    -21.56848      -0.77297     -22.37052
                        -----------------------------------------
Total Dipole Moment    :     -0.33725       0.17527      -0.72297
                        -----------------------------------------
Magnitude (a.u.)       :      0.81679
Magnitude (Debye)      :      2.07611

Rotational constants in cm-1:     0.017269     0.008878     0.006671
Rotational constants in MHz :   517.709127   266.143237   200.005882

                             ****ORCA TERMINATED NORMALLY****
TOTAL RUN TIME: 0 days 0 hours 0 minutes 29 seconds 759 msec
