                         Program Version 4.2.1 -  RELEASE  -
|  1> ! wB97X-D3 SP def2-SVP
|  2> %pal
|  3> nprocs 16
|  4> end
|  5>
|  6> * xyz 0 1
|  7> S 	 -19.1176 	 -6.15167 	 81.692
|  8> C 	 -18.1109 	 -6.35461 	 80.2623
|  9> C 	 -17.1213 	 -7.25624 	 80.563
| 10> C 	 -17.1423 	 -7.78418 	 81.9022
| 11> C 	 -18.1439 	 -7.19335 	 82.6065
| 12> H 	 -16.3708 	 -8.37032 	 82.4031
| 13> C 	 -16.0207 	 -7.55847 	 79.6153
| 14> H 	 -16.4183 	 -7.50945 	 78.5865
| 15> H 	 -15.6812 	 -8.62156 	 79.6225
| 16> C 	 -14.748 	 -6.63229 	 79.7934
| 17> H 	 -15.0186 	 -5.64348 	 79.9132
| 18> H 	 -14.2556 	 -6.9008 	 80.6917
| 19> C 	 -13.6817 	 -6.82023 	 78.7367
| 20> H 	 -12.8239 	 -6.2624 	 79.0491
| 21> H 	 -13.2592 	 -7.80466 	 78.5751
| 22> H 	 -14.0983 	 -6.36136 	 77.8714
| 23> S 	 -19.3569 	 -8.24428 	 84.7276
| 24> C 	 -18.9877 	 -7.62906 	 86.2931
| 25> C 	 -17.8727 	 -6.80788 	 86.3119
| 26> C 	 -17.3826 	 -6.52512 	 84.9843
| 27> C 	 -18.1592 	 -7.20165 	 84.0346
| 28> H 	 -17.3926 	 -6.41944 	 87.2515
| 29> C 	 -16.2042 	 -5.61402 	 84.6968
| 30> H 	 -16.4399 	 -4.62623 	 85.08
| 31> H 	 -16.2097 	 -5.41625 	 83.6589
| 32> C 	 -14.8278 	 -6.13541 	 85.2178
| 33> H 	 -14.7958 	 -7.10272 	 84.9625
| 34> H 	 -14.625 	 -5.98258 	 86.2286
| 35> C 	 -13.7231 	 -5.37599 	 84.5902
| 36> H 	 -13.9062 	 -5.43458 	 83.4896
| 37> H 	 -12.688 	 -5.65357 	 84.6896
| 38> H 	 -13.7916 	 -4.26782 	 84.8649
| 39> H 	 -18.1008 	 -5.85509 	 79.3541
| 40> H 	 -19.4283 	 -8.03488 	 87.2006
| 41> *
| 42>
| 43>                          ****END OF INPUT****

CARTESIAN COORDINATES (ANGSTROEM)
---------------------------------
  S    -19.117600   -6.151670   81.692000
  C    -18.110900   -6.354610   80.262300
  C    -17.121300   -7.256240   80.563000
  C    -17.142300   -7.784180   81.902200
  C    -18.143900   -7.193350   82.606500
  H    -16.370800   -8.370320   82.403100
  C    -16.020700   -7.558470   79.615300
  H    -16.418300   -7.509450   78.586500
  H    -15.681200   -8.621560   79.622500
  C    -14.748000   -6.632290   79.793400
  H    -15.018600   -5.643480   79.913200
  H    -14.255600   -6.900800   80.691700
  C    -13.681700   -6.820230   78.736700
  H    -12.823900   -6.262400   79.049100
  H    -13.259200   -7.804660   78.575100
  H    -14.098300   -6.361360   77.871400
  S    -19.356900   -8.244280   84.727600
  C    -18.987700   -7.629060   86.293100
  C    -17.872700   -6.807880   86.311900
  C    -17.382600   -6.525120   84.984300
  C    -18.159200   -7.201650   84.034600
  H    -17.392600   -6.419440   87.251500
  C    -16.204200   -5.614020   84.696800
  H    -16.439900   -4.626230   85.080000
  H    -16.209700   -5.416250   83.658900
  C    -14.827800   -6.135410   85.217800
  H    -14.795800   -7.102720   84.962500
  H    -14.625000   -5.982580   86.228600
  C    -13.723100   -5.375990   84.590200
  H    -13.906200   -5.434580   83.489600
  H    -12.688000   -5.653570   84.689600
  H    -13.791600   -4.267820   84.864900
  H    -18.100800   -5.855090   79.354100
  H    -19.428300   -8.034880   87.200600

 Total Charge           Charge          ....    0
 Multiplicity           Mult            ....    1
 Number of Electrons    NEL             ....  134
 Basis Dimension        Dim             ....  322

ORBITAL ENERGIES
----------------

  NO   OCC          E(Eh)            E(eV)
   0   2.0000     -88.965337     -2420.8699
   1   2.0000     -88.963877     -2420.8302
   2   2.0000     -10.319238      -280.8007
   3   2.0000     -10.317186      -280.7449
   4   2.0000     -10.312953      -280.6297
   5   2.0000     -10.306997      -280.4676
   6   2.0000     -10.304636      -280.4034
   7   2.0000     -10.296929      -280.1937
   8   2.0000     -10.296549      -280.1834
   9   2.0000     -10.291678      -280.0508
  10   2.0000     -10.290523      -280.0194
  11   2.0000     -10.288950      -279.9766
  12   2.0000     -10.279651      -279.7235
  13   2.0000     -10.278531      -279.6931
  14   2.0000     -10.273806      -279.5645
  15   2.0000     -10.271588      -279.5041
  16   2.0000      -8.080868      -219.8916
  17   2.0000      -8.079585      -219.8567
  18   2.0000      -6.039362      -164.3394
  19   2.0000      -6.037904      -164.2997
  20   2.0000      -6.035175      -164.2255
  21   2.0000      -6.033997      -164.1934
  22   2.0000      -6.031656      -164.1297
  23   2.0000      -6.030469      -164.0974
  24   2.0000      -1.014653       -27.6101
  25   2.0000      -0.986807       -26.8524
  26   2.0000      -0.917344       -24.9622
  27   2.0000      -0.912130       -24.8203
  28   2.0000      -0.874404       -23.7937
  29   2.0000      -0.856822       -23.3153
  30   2.0000      -0.852348       -23.1936
  31   2.0000      -0.815079       -22.1794
  32   2.0000      -0.781844       -21.2751
  33   2.0000      -0.768725       -20.9181
  34   2.0000      -0.711104       -19.3501
  35   2.0000      -0.706541       -19.2260
  36   2.0000      -0.699812       -19.0429
  37   2.0000      -0.656928       -17.8759
  38   2.0000      -0.645316       -17.5599
  39   2.0000      -0.616344       -16.7716
  40   2.0000      -0.597603       -16.2616
  41   2.0000      -0.581256       -15.8168
  42   2.0000      -0.572892       -15.5892
  43   2.0000      -0.562463       -15.3054
  44   2.0000      -0.529617       -14.4116
  45   2.0000      -0.527100       -14.3431
  46   2.0000      -0.521860       -14.2005
  47   2.0000      -0.516573       -14.0567
  48   2.0000      -0.507423       -13.8077
  49   2.0000      -0.498297       -13.5594
  50   2.0000      -0.495941       -13.4952
  51   2.0000      -0.478257       -13.0140
  52   2.0000      -0.470522       -12.8036
  53   2.0000      -0.462551       -12.5867
  54   2.0000      -0.457841       -12.4585
  55   2.0000      -0.454518       -12.3681
  56   2.0000      -0.447520       -12.1776
  57   2.0000      -0.436446       -11.8763
  58   2.0000      -0.430267       -11.7082
  59   2.0000      -0.427938       -11.6448
  60   2.0000      -0.422784       -11.5046
  61   2.0000      -0.421704       -11.4751
  62   2.0000      -0.412904       -11.2357
  63   2.0000      -0.334982        -9.1153
  64   2.0000      -0.328679        -8.9438
  65   2.0000      -0.322081        -8.7643
  66   2.0000      -0.307666        -8.3720
  67   0.0000       0.048558         1.3213
  68   0.0000       0.056823         1.5462
  69   0.0000       0.116537         3.1711
  70   0.0000       0.120052         3.2668
  71   0.0000       0.123184         3.3520

MULLIKEN ATOMIC CHARGES
-----------------------
   0 S :    0.129598
   1 C :   -0.083197
   2 C :   -0.087328
   3 C :    0.046979
   4 C :   -0.145151
   5 H :    0.022901
   6 C :    0.022437
   7 H :    0.016738
   8 H :    0.024132
   9 C :   -0.036344
  10 H :    0.010197
  11 H :    0.010084
  12 C :   -0.017040
  13 H :    0.021031
  14 H :    0.031626
  15 H :    0.024743
  16 S :    0.121062
  17 C :   -0.086492
  18 C :   -0.052925
  19 C :   -0.028730
  20 C :   -0.226010
  21 H :    0.036683
  22 C :    0.088486
  23 H :    0.022243
  24 H :    0.006161
  25 C :    0.036446
  26 H :    0.002331
  27 H :    0.020179
  28 C :   -0.093498
  29 H :    0.020898
  30 H :    0.036075
  31 H :    0.033199
  32 H :    0.015521
  33 H :    0.056963
Sum of atomic charges:   -0.0000000

LOEWDIN ATOMIC CHARGES
----------------------
   0 S :    0.428704
   1 C :   -0.191287
   2 C :   -0.060635
   3 C :   -0.058984
   4 C :   -0.222682
   5 H :    0.036640
   6 C :   -0.040182
   7 H :    0.027074
   8 H :    0.032603
   9 C :   -0.027750
  10 H :    0.013993
  11 H :    0.017044
  12 C :   -0.058399
  13 H :    0.025793
  14 H :    0.026066
  15 H :    0.021209
  16 S :    0.428320
  17 C :   -0.197852
  18 C :   -0.075492
  19 C :   -0.050519
  20 C :   -0.210253
  21 H :    0.040220
  22 C :   -0.021763
  23 H :    0.032997
  24 H :    0.025775
  25 C :   -0.023731
  26 H :    0.009773
  27 H :    0.021157
  28 C :   -0.070377
  29 H :    0.023866
  30 H :    0.021825
  31 H :    0.031285
  32 H :    0.018286
  33 H :    0.027272

  Mayer bond orders larger than 0.100000
B(  0-S ,  1-C ) :   1.1148 B(  0-S ,  4-C ) :   1.1718 B(  1-C ,  2-C ) :   1.6304
B(  1-C , 32-H ) :   0.9778 B(  2-C ,  3-C ) :   1.2124 B(  2-C ,  6-C ) :   1.0450
B(  3-C ,  4-C ) :   1.5776 B(  3-C ,  5-H ) :   0.9992 B(  4-C , 20-C ) :   0.9945
B(  6-C ,  7-H ) :   0.9446 B(  6-C ,  8-H ) :   0.9394 B(  6-C ,  9-C ) :   1.0478
B(  9-C , 10-H ) :   0.9573 B(  9-C , 11-H ) :   0.9541 B(  9-C , 12-C ) :   1.0896
B( 12-C , 13-H ) :   0.9708 B( 12-C , 14-H ) :   0.9737 B( 12-C , 15-H ) :   0.9773
B( 16-S , 17-C ) :   1.1615 B( 16-S , 20-C ) :   1.1672 B( 17-C , 18-C ) :   1.6074
B( 17-C , 33-H ) :   0.9660 B( 18-C , 19-C ) :   1.2382 B( 18-C , 21-H ) :   0.9823
B( 19-C , 20-C ) :   1.5956 B( 19-C , 22-C ) :   1.0548 B( 22-C , 23-H ) :   0.9226
B( 22-C , 24-H ) :   0.9307 B( 22-C , 25-C ) :   1.0537 B( 25-C , 26-H ) :   0.9547
B( 25-C , 27-H ) :   0.9496 B( 25-C , 28-C ) :   1.0884 B( 28-C , 29-H ) :   0.9746
B( 28-C , 30-H ) :   0.9747 B( 28-C , 31-H ) :   0.9707

Dispersion correction           -0.014813950
FINAL SINGLE POINT ENERGY     -1339.857281446941

DIPOLE MOMENT
-------------
                                X             Y             Z
Electronic contribution:    -30.92653      -6.67319       8.15528
Nuclear contribution   :     31.74785       6.82475      -8.13122
                        -----------------------------------------
Total Dipole Moment    :      0.82132       0.15156       0.02407
                        -----------------------------------------
Magnitude (a.u.)       :      0.83553
Magnitude (Debye)      :      2.12375

Rotational constants in cm-1:     0.017916     0.009589     0.006984
Rotational constants in MHz :   537.100401   287.457546   209.366743

                             ****ORCA TERMINATED NORMALLY****
TOTAL RUN TIME: 0 days 0 hours 0 minutes 32 seconds 592 msec
