                         Program Version 4.2.1 -  RELEASE  -
|  1> ! wB97X-D3 SP def2-SVP
|  2> %pal
|  3> nprocs 16
|  4> end
|  5>
|  6> * xyz 0 1
|  7> S 	 19.0895 	 31.8674 	 55.9949
|  8> C 	 18.3992 	 30.7663 	 57.1327
|  9> C 	 17.9602 	 31.3915 	 58.2925
| 10> C 	 18.056 	 32.8322 	 58.1344
| 11> C 	 18.7821 	 33.1937 	 57.0158
| 12> H 	 17.6592 	 33.6724 	 58.6995
| 13> C 	 17.3189 	 30.8304 	 59.5574
| 14> H 	 18.0963 	 30.2408 	 60.0707
| 15> H 	 16.6047 	 30.0847 	 59.1796
| 16> C 	 16.5143 	 31.7084 	 60.4856
| 17> H 	 17.0515 	 32.5509 	 60.9361
| 18> H 	 15.6989 	 32.1165 	 59.88
| 19> C 	 15.8448 	 30.7437 	 61.5164
| 20> H 	 15.293 	 31.4665 	 62.1519
| 21> H 	 15.2145 	 30.0038 	 61.1361
| 22> H 	 16.6261 	 30.3453 	 62.1022
| 23> S 	 19.1393 	 34.89 	 54.9036
| 24> C 	 19.6832 	 36.5403 	 55.2949
| 25> C 	 19.8853 	 36.7378 	 56.5716
| 26> C 	 19.4657 	 35.6534 	 57.3875
| 27> C 	 19.1957 	 34.5179 	 56.6223
| 28> H 	 20.1039 	 37.7801 	 56.7971
| 29> C 	 19.4781 	 35.8457 	 58.8948
| 30> H 	 20.3779 	 36.5001 	 59.1116
| 31> H 	 19.6821 	 34.797 	 59.2483
| 32> C 	 18.241 	 36.446 	 59.5383
| 33> H 	 18.5058 	 36.4886 	 60.6391
| 34> H 	 17.4249 	 35.7328 	 59.5381
| 35> C 	 17.7541 	 37.7629 	 58.9401
| 36> H 	 18.5867 	 38.4244 	 58.8907
| 37> H 	 17.0152 	 38.1832 	 59.661
| 38> H 	 17.3588 	 37.7251 	 57.9505
| 39> H 	 18.1926 	 29.6649 	 56.9568
| 40> H 	 19.7553 	 37.3348 	 54.5574
| 41> *
| 42>
| 43>                          ****END OF INPUT****

CARTESIAN COORDINATES (ANGSTROEM)
---------------------------------
  S     19.089500   31.867400   55.994900
  C     18.399200   30.766300   57.132700
  C     17.960200   31.391500   58.292500
  C     18.056000   32.832200   58.134400
  C     18.782100   33.193700   57.015800
  H     17.659200   33.672400   58.699500
  C     17.318900   30.830400   59.557400
  H     18.096300   30.240800   60.070700
  H     16.604700   30.084700   59.179600
  C     16.514300   31.708400   60.485600
  H     17.051500   32.550900   60.936100
  H     15.698900   32.116500   59.880000
  C     15.844800   30.743700   61.516400
  H     15.293000   31.466500   62.151900
  H     15.214500   30.003800   61.136100
  H     16.626100   30.345300   62.102200
  S     19.139300   34.890000   54.903600
  C     19.683200   36.540300   55.294900
  C     19.885300   36.737800   56.571600
  C     19.465700   35.653400   57.387500
  C     19.195700   34.517900   56.622300
  H     20.103900   37.780100   56.797100
  C     19.478100   35.845700   58.894800
  H     20.377900   36.500100   59.111600
  H     19.682100   34.797000   59.248300
  C     18.241000   36.446000   59.538300
  H     18.505800   36.488600   60.639100
  H     17.424900   35.732800   59.538100
  C     17.754100   37.762900   58.940100
  H     18.586700   38.424400   58.890700
  H     17.015200   38.183200   59.661000
  H     17.358800   37.725100   57.950500
  H     18.192600   29.664900   56.956800
  H     19.755300   37.334800   54.557400

 Total Charge           Charge          ....    0
 Multiplicity           Mult            ....    1
 Number of Electrons    NEL             ....  134
 Basis Dimension        Dim             ....  322

ORBITAL ENERGIES
----------------

  NO   OCC          E(Eh)            E(eV)
   0   2.0000     -88.964757     -2420.8541
   1   2.0000     -88.961892     -2420.7761
   2   2.0000     -10.325877      -280.9814
   3   2.0000     -10.319578      -280.8100
   4   2.0000     -10.314108      -280.6611
   5   2.0000     -10.310221      -280.5554
   6   2.0000     -10.304016      -280.3865
   7   2.0000     -10.302267      -280.3390
   8   2.0000     -10.297319      -280.2043
   9   2.0000     -10.292723      -280.0792
  10   2.0000     -10.292666      -280.0777
  11   2.0000     -10.291477      -280.0453
  12   2.0000     -10.289828      -280.0004
  13   2.0000     -10.283997      -279.8418
  14   2.0000     -10.278030      -279.6794
  15   2.0000     -10.276800      -279.6459
  16   2.0000      -8.080681      -219.8865
  17   2.0000      -8.076550      -219.7741
  18   2.0000      -6.039202      -164.3350
  19   2.0000      -6.035159      -164.2250
  20   2.0000      -6.035006      -164.2209
  21   2.0000      -6.031381      -164.1222
  22   2.0000      -6.031313      -164.1204
  23   2.0000      -6.026974      -164.0023
  24   2.0000      -1.011742       -27.5309
  25   2.0000      -0.987110       -26.8606
  26   2.0000      -0.917214       -24.9587
  27   2.0000      -0.910700       -24.7814
  28   2.0000      -0.876636       -23.8545
  29   2.0000      -0.851853       -23.1801
  30   2.0000      -0.844643       -22.9839
  31   2.0000      -0.816766       -22.2253
  32   2.0000      -0.784075       -21.3358
  33   2.0000      -0.774362       -21.0715
  34   2.0000      -0.715923       -19.4812
  35   2.0000      -0.701906       -19.0998
  36   2.0000      -0.685191       -18.6450
  37   2.0000      -0.660760       -17.9802
  38   2.0000      -0.634828       -17.2746
  39   2.0000      -0.615600       -16.7513
  40   2.0000      -0.586661       -15.9639
  41   2.0000      -0.578475       -15.7411
  42   2.0000      -0.566612       -15.4183
  43   2.0000      -0.557059       -15.1583
  44   2.0000      -0.547997       -14.9118
  45   2.0000      -0.528163       -14.3721
  46   2.0000      -0.514143       -13.9905
  47   2.0000      -0.503645       -13.7049
  48   2.0000      -0.498728       -13.5711
  49   2.0000      -0.496959       -13.5229
  50   2.0000      -0.495062       -13.4713
  51   2.0000      -0.489652       -13.3241
  52   2.0000      -0.478081       -13.0092
  53   2.0000      -0.467313       -12.7162
  54   2.0000      -0.460584       -12.5331
  55   2.0000      -0.447792       -12.1850
  56   2.0000      -0.440607       -11.9895
  57   2.0000      -0.437104       -11.8942
  58   2.0000      -0.435714       -11.8564
  59   2.0000      -0.429733       -11.6936
  60   2.0000      -0.421845       -11.4790
  61   2.0000      -0.413309       -11.2467
  62   2.0000      -0.412131       -11.2147
  63   2.0000      -0.357057        -9.7160
  64   2.0000      -0.330838        -9.0025
  65   2.0000      -0.326250        -8.8777
  66   2.0000      -0.283294        -7.7088
  67   0.0000       0.028117         0.7651
  68   0.0000       0.082335         2.2405
  69   0.0000       0.105184         2.8622
  70   0.0000       0.121966         3.3189
  71   0.0000       0.130276         3.5450

MULLIKEN ATOMIC CHARGES
-----------------------
   0 S :    0.118663
   1 C :   -0.148113
   2 C :   -0.059129
   3 C :   -0.019931
   4 C :   -0.131304
   5 H :   -0.004327
   6 C :    0.030397
   7 H :    0.040508
   8 H :    0.022655
   9 C :   -0.094322
  10 H :    0.042408
  11 H :    0.032305
  12 C :   -0.005238
  13 H :    0.031432
  14 H :    0.032912
  15 H :    0.023160
  16 S :    0.082939
  17 C :   -0.089247
  18 C :   -0.019202
  19 C :   -0.061733
  20 C :   -0.117024
  21 H :    0.019471
  22 C :    0.007786
  23 H :    0.039861
  24 H :    0.039679
  25 C :   -0.067137
  26 H :    0.039700
  27 H :    0.025700
  28 C :   -0.030345
  29 H :    0.014240
  30 H :    0.042094
  31 H :    0.047686
  32 H :    0.064814
  33 H :    0.048642
Sum of atomic charges:   -0.0000000

LOEWDIN ATOMIC CHARGES
----------------------
   0 S :    0.432280
   1 C :   -0.226702
   2 C :   -0.057971
   3 C :   -0.075592
   4 C :   -0.207404
   5 H :    0.029290
   6 C :   -0.042704
   7 H :    0.034662
   8 H :    0.035168
   9 C :   -0.039695
  10 H :    0.024564
  11 H :    0.027297
  12 C :   -0.047734
  13 H :    0.031771
  14 H :    0.018494
  15 H :    0.019778
  16 S :    0.369843
  17 C :   -0.163564
  18 C :   -0.079393
  19 C :   -0.057460
  20 C :   -0.190486
  21 H :    0.038045
  22 C :   -0.042420
  23 H :    0.037260
  24 H :    0.037209
  25 C :   -0.045211
  26 H :    0.034617
  27 H :    0.016746
  28 C :   -0.061464
  29 H :    0.017761
  30 H :    0.035835
  31 H :    0.026762
  32 H :    0.041613
  33 H :    0.028806

  Mayer bond orders larger than 0.100000
B(  0-S ,  1-C ) :   1.1352 B(  0-S ,  4-C ) :   1.1609 B(  1-C ,  2-C ) :   1.6212
B(  1-C , 32-H ) :   0.9625 B(  2-C ,  3-C ) :   1.2256 B(  2-C ,  6-C ) :   0.9938
B(  3-C ,  4-C ) :   1.5691 B(  3-C ,  5-H ) :   0.9879 B(  4-C , 20-C ) :   1.0600
B(  6-C ,  7-H ) :   0.9333 B(  6-C ,  8-H ) :   0.9412 B(  6-C ,  9-C ) :   1.0909
B(  9-C , 10-H ) :   0.9488 B(  9-C , 11-H ) :   0.9494 B(  9-C , 12-C ) :   1.0749
B( 12-C , 13-H ) :   0.9732 B( 12-C , 14-H ) :   0.9774 B( 12-C , 15-H ) :   0.9762
B( 16-S , 17-C ) :   1.1169 B( 16-S , 20-C ) :   1.1232 B( 17-C , 18-C ) :   1.6978
B( 17-C , 33-H ) :   0.9598 B( 18-C , 19-C ) :   1.1881 B( 18-C , 21-H ) :   0.9811
B( 19-C , 20-C ) :   1.6242 B( 19-C , 22-C ) :   1.0253 B( 22-C , 23-H ) :   0.9391
B( 22-C , 24-H ) :   0.9303 B( 22-C , 25-C ) :   1.0813 B( 25-C , 26-H ) :   0.9512
B( 25-C , 27-H ) :   0.9443 B( 25-C , 28-C ) :   1.0788 B( 28-C , 29-H ) :   0.9742
B( 28-C , 30-H ) :   0.9700 B( 28-C , 31-H ) :   0.9693

Dispersion correction           -0.014540888
FINAL SINGLE POINT ENERGY     -1339.867525899467

DIPOLE MOMENT
-------------
                                X             Y             Z
Electronic contribution:     12.32807      -4.22213     -28.20306
Nuclear contribution   :    -12.69931       4.51234      28.86853
                        -----------------------------------------
Total Dipole Moment    :     -0.37124       0.29022       0.66547
                        -----------------------------------------
Magnitude (a.u.)       :      0.81541
Magnitude (Debye)      :      2.07262

Rotational constants in cm-1:     0.018275     0.009494     0.006556
Rotational constants in MHz :   547.881180   284.631574   196.543197

                             ****ORCA TERMINATED NORMALLY****
TOTAL RUN TIME: 0 days 0 hours 0 minutes 36 seconds 367 msec
