                         Program Version 4.2.1 -  RELEASE  -
|  1> ! wB97X-D3 SP def2-SVP
|  2> %pal
|  3> nprocs 16
|  4> end
|  5>
|  6> * xyz 0 1
|  7> S 	 -55.9699 	 35.7669 	 113.236
|  8> C 	 -54.4466 	 34.9688 	 112.887
|  9> C 	 -53.4672 	 35.9365 	 112.612
| 10> C 	 -53.8571 	 37.2383 	 113.052
| 11> C 	 -55.2108 	 37.3392 	 113.413
| 12> H 	 -53.2367 	 38.0403 	 113.185
| 13> C 	 -52.1257 	 35.7144 	 111.951
| 14> H 	 -52.2431 	 36.0366 	 110.89
| 15> H 	 -52.0602 	 34.6442 	 111.706
| 16> C 	 -50.8432 	 36.2438 	 112.706
| 17> H 	 -50.0262 	 36.3633 	 112.03
| 18> H 	 -50.9212 	 37.3194 	 112.924
| 19> C 	 -50.6018 	 35.6914 	 114.087
| 20> H 	 -50.598 	 34.6303 	 114.099
| 21> H 	 -49.6277 	 36.034 	 114.497
| 22> H 	 -51.4418 	 36.0594 	 114.75
| 23> S 	 -57.6951 	 38.5058 	 113.962
| 24> C 	 -57.7294 	 40.0512 	 114.79
| 25> C 	 -56.5067 	 40.608 	 114.795
| 26> C 	 -55.409 	 39.7545 	 114.27
| 27> C 	 -55.9186 	 38.5224 	 113.859
| 28> H 	 -56.3755 	 41.6379 	 115.125
| 29> C 	 -53.9452 	 40.1925 	 114.364
| 30> H 	 -54.0251 	 41.2449 	 114.678
| 31> H 	 -53.405 	 40.1625 	 113.425
| 32> C 	 -53.1801 	 39.5812 	 115.567
| 33> H 	 -53.1431 	 38.5154 	 115.354
| 34> H 	 -53.8388 	 39.6252 	 116.476
| 35> C 	 -51.8468 	 40.2339 	 115.76
| 36> H 	 -51.2776 	 40.3465 	 114.836
| 37> H 	 -51.1365 	 39.5668 	 116.291
| 38> H 	 -51.8658 	 41.1273 	 116.398
| 39> H 	 -54.389 	 33.949 	 112.556
| 40> H 	 -58.6108 	 40.5946 	 115.066
| 41> *
| 42>
| 43>                          ****END OF INPUT****

CARTESIAN COORDINATES (ANGSTROEM)
---------------------------------
  S    -55.969900   35.766900  113.236000
  C    -54.446600   34.968800  112.887000
  C    -53.467200   35.936500  112.612000
  C    -53.857100   37.238300  113.052000
  C    -55.210800   37.339200  113.413000
  H    -53.236700   38.040300  113.185000
  C    -52.125700   35.714400  111.951000
  H    -52.243100   36.036600  110.890000
  H    -52.060200   34.644200  111.706000
  C    -50.843200   36.243800  112.706000
  H    -50.026200   36.363300  112.030000
  H    -50.921200   37.319400  112.924000
  C    -50.601800   35.691400  114.087000
  H    -50.598000   34.630300  114.099000
  H    -49.627700   36.034000  114.497000
  H    -51.441800   36.059400  114.750000
  S    -57.695100   38.505800  113.962000
  C    -57.729400   40.051200  114.790000
  C    -56.506700   40.608000  114.795000
  C    -55.409000   39.754500  114.270000
  C    -55.918600   38.522400  113.859000
  H    -56.375500   41.637900  115.125000
  C    -53.945200   40.192500  114.364000
  H    -54.025100   41.244900  114.678000
  H    -53.405000   40.162500  113.425000
  C    -53.180100   39.581200  115.567000
  H    -53.143100   38.515400  115.354000
  H    -53.838800   39.625200  116.476000
  C    -51.846800   40.233900  115.760000
  H    -51.277600   40.346500  114.836000
  H    -51.136500   39.566800  116.291000
  H    -51.865800   41.127300  116.398000
  H    -54.389000   33.949000  112.556000
  H    -58.610800   40.594600  115.066000

 Total Charge           Charge          ....    0
 Multiplicity           Mult            ....    1
 Number of Electrons    NEL             ....  134
 Basis Dimension        Dim             ....  322

ORBITAL ENERGIES
----------------

  NO   OCC          E(Eh)            E(eV)
   0   2.0000     -88.966486     -2420.9012
   1   2.0000     -88.963947     -2420.8321
   2   2.0000     -10.334026      -281.2032
   3   2.0000     -10.333135      -281.1789
   4   2.0000     -10.315420      -280.6969
   5   2.0000     -10.315179      -280.6903
   6   2.0000     -10.310429      -280.5610
   7   2.0000     -10.306017      -280.4410
   8   2.0000     -10.301023      -280.3051
   9   2.0000     -10.296666      -280.1865
  10   2.0000     -10.296615      -280.1851
  11   2.0000     -10.291064      -280.0341
  12   2.0000     -10.289248      -279.9847
  13   2.0000     -10.288569      -279.9662
  14   2.0000     -10.282406      -279.7985
  15   2.0000     -10.281880      -279.7842
  16   2.0000      -8.080865      -219.8915
  17   2.0000      -8.078467      -219.8263
  18   2.0000      -6.039523      -164.3438
  19   2.0000      -6.037265      -164.2823
  20   2.0000      -6.035417      -164.2320
  21   2.0000      -6.033129      -164.1698
  22   2.0000      -6.031503      -164.1255
  23   2.0000      -6.028811      -164.0523
  24   2.0000      -1.003744       -27.3133
  25   2.0000      -0.980724       -26.6868
  26   2.0000      -0.912261       -24.8239
  27   2.0000      -0.908934       -24.7333
  28   2.0000      -0.872672       -23.7466
  29   2.0000      -0.852918       -23.2091
  30   2.0000      -0.843287       -22.9470
  31   2.0000      -0.818101       -22.2617
  32   2.0000      -0.783902       -21.3310
  33   2.0000      -0.773172       -21.0391
  34   2.0000      -0.713871       -19.4254
  35   2.0000      -0.703781       -19.1508
  36   2.0000      -0.692947       -18.8560
  37   2.0000      -0.663389       -18.0517
  38   2.0000      -0.639929       -17.4133
  39   2.0000      -0.626524       -17.0486
  40   2.0000      -0.597070       -16.2471
  41   2.0000      -0.568189       -15.4612
  42   2.0000      -0.563377       -15.3303
  43   2.0000      -0.553602       -15.0643
  44   2.0000      -0.533988       -14.5306
  45   2.0000      -0.524012       -14.2591
  46   2.0000      -0.520734       -14.1699
  47   2.0000      -0.516817       -14.0633
  48   2.0000      -0.504869       -13.7382
  49   2.0000      -0.501190       -13.6381
  50   2.0000      -0.493398       -13.4260
  51   2.0000      -0.483808       -13.1651
  52   2.0000      -0.468262       -12.7420
  53   2.0000      -0.465491       -12.6667
  54   2.0000      -0.462115       -12.5748
  55   2.0000      -0.452792       -12.3211
  56   2.0000      -0.445801       -12.1309
  57   2.0000      -0.441615       -12.0170
  58   2.0000      -0.435401       -11.8479
  59   2.0000      -0.426772       -11.6130
  60   2.0000      -0.414225       -11.2716
  61   2.0000      -0.407653       -11.0928
  62   2.0000      -0.407102       -11.0778
  63   2.0000      -0.366157        -9.9636
  64   2.0000      -0.332196        -9.0395
  65   2.0000      -0.323806        -8.8112
  66   2.0000      -0.282126        -7.6770
  67   0.0000       0.015591         0.4243
  68   0.0000       0.083633         2.2758
  69   0.0000       0.098457         2.6791
  70   0.0000       0.115927         3.1545
  71   0.0000       0.120585         3.2813

MULLIKEN ATOMIC CHARGES
-----------------------
   0 S :    0.100752
   1 C :   -0.103224
   2 C :   -0.110591
   3 C :    0.044827
   4 C :   -0.120682
   5 H :   -0.055864
   6 C :    0.065204
   7 H :    0.046746
   8 H :    0.008226
   9 C :   -0.062552
  10 H :    0.016264
  11 H :    0.016969
  12 C :   -0.045104
  13 H :    0.026516
  14 H :    0.039723
  15 H :    0.054182
  16 S :    0.088932
  17 C :   -0.068502
  18 C :   -0.031049
  19 C :   -0.082792
  20 C :   -0.098624
  21 H :    0.022168
  22 C :    0.023320
  23 H :    0.014196
  24 H :    0.050286
  25 C :   -0.074075
  26 H :    0.027995
  27 H :    0.038423
  28 C :   -0.032713
  29 H :    0.026884
  30 H :    0.025312
  31 H :    0.045899
  32 H :    0.049472
  33 H :    0.053478
Sum of atomic charges:   -0.0000000

LOEWDIN ATOMIC CHARGES
----------------------
   0 S :    0.401302
   1 C :   -0.201670
   2 C :   -0.056995
   3 C :   -0.057852
   4 C :   -0.179184
   5 H :    0.008805
   6 C :   -0.039359
   7 H :    0.044370
   8 H :    0.029450
   9 C :   -0.050347
  10 H :    0.021803
  11 H :    0.026053
  12 C :   -0.062710
  13 H :    0.016487
  14 H :    0.032395
  15 H :    0.036937
  16 S :    0.377384
  17 C :   -0.178368
  18 C :   -0.070791
  19 C :   -0.053376
  20 C :   -0.181320
  21 H :    0.031997
  22 C :   -0.038051
  23 H :    0.032716
  24 H :    0.027511
  25 C :   -0.045447
  26 H :    0.020177
  27 H :    0.034846
  28 C :   -0.073877
  29 H :    0.026914
  30 H :    0.032101
  31 H :    0.031048
  32 H :    0.025358
  33 H :    0.031694

  Mayer bond orders larger than 0.100000
B(  0-S ,  1-C ) :   1.1330 B(  0-S ,  4-C ) :   1.1504 B(  1-C ,  2-C ) :   1.5878
B(  1-C , 32-H ) :   0.9641 B(  2-C ,  3-C ) :   1.2474 B(  2-C ,  6-C ) :   1.0306
B(  3-C ,  4-C ) :   1.5403 B(  3-C ,  5-H ) :   0.9980 B(  4-C , 20-C ) :   1.1141
B(  6-C ,  7-H ) :   0.9341 B(  6-C ,  8-H ) :   0.9367 B(  6-C ,  9-C ) :   1.0530
B(  9-C , 10-H ) :   0.9541 B(  9-C , 11-H ) :   0.9528 B(  9-C , 12-C ) :   1.0647
B( 12-C , 13-H ) :   0.9794 B( 12-C , 14-H ) :   0.9717 B( 12-C , 15-H ) :   0.9704
B( 16-S , 17-C ) :   1.1213 B( 16-S , 20-C ) :   1.1149 B( 17-C , 18-C ) :   1.6641
B( 17-C , 33-H ) :   0.9657 B( 18-C , 19-C ) :   1.2153 B( 18-C , 21-H ) :   0.9812
B( 19-C , 20-C ) :   1.6041 B( 19-C , 22-C ) :   1.0501 B( 22-C , 23-H ) :   0.9289
B( 22-C , 24-H ) :   0.9297 B( 22-C , 25-C ) :   1.0546 B( 25-C , 26-H ) :   0.9565
B( 25-C , 27-H ) :   0.9495 B( 25-C , 28-C ) :   1.0826 B( 28-C , 29-H ) :   0.9686
B( 28-C , 30-H ) :   0.9678 B( 28-C , 31-H ) :   0.9743

Dispersion correction           -0.015243416
FINAL SINGLE POINT ENERGY     -1339.871192132150

DIPOLE MOMENT
-------------
                                X             Y             Z
Electronic contribution:    -31.60227      -4.97409      -5.27903
Nuclear contribution   :     32.33081       5.36193       5.26419
                        -----------------------------------------
Total Dipole Moment    :      0.72854       0.38783      -0.01484
                        -----------------------------------------
Magnitude (a.u.)       :      0.82547
Magnitude (Debye)      :      2.09819

Rotational constants in cm-1:     0.017995     0.010396     0.006994
Rotational constants in MHz :   539.472245   311.654463   209.686569

                             ****ORCA TERMINATED NORMALLY****
TOTAL RUN TIME: 0 days 0 hours 0 minutes 32 seconds 244 msec
