                         Program Version 4.2.1 -  RELEASE  -
|  1> ! wB97X-D3 SP def2-SVP
|  2> %pal
|  3> nprocs 16
|  4> end
|  5>
|  6> * xyz 0 1
|  7> S 	 10.639 	 -13.7611 	 102.25
|  8> C 	 11.5012 	 -13.16 	 103.612
|  9> C 	 10.6231 	 -12.3343 	 104.332
| 10> C 	 9.29504 	 -12.3336 	 103.882
| 11> C 	 9.15137 	 -13.0242 	 102.73
| 12> H 	 8.52385 	 -11.6818 	 104.273
| 13> C 	 11.0519 	 -11.5501 	 105.534
| 14> H 	 11.1977 	 -10.4895 	 105.295
| 15> H 	 12.0537 	 -11.9555 	 105.783
| 16> C 	 10.2396 	 -11.6153 	 106.792
| 17> H 	 10.7358 	 -10.918 	 107.542
| 18> H 	 9.3279 	 -11.1702 	 106.653
| 19> C 	 10.0356 	 -13.0657 	 107.324
| 20> H 	 9.73498 	 -13.2419 	 108.368
| 21> H 	 9.20568 	 -13.4707 	 106.718
| 22> H 	 10.9054 	 -13.6967 	 107.135
| 23> S 	 8.11996 	 -12.84 	 100.221
| 24> C 	 6.38897 	 -12.9802 	 99.9505
| 25> C 	 5.64827 	 -13.0573 	 101.099
| 26> C 	 6.52473 	 -12.9911 	 102.235
| 27> C 	 7.88087 	 -13.0336 	 101.943
| 28> H 	 4.60217 	 -13.0579 	 101.145
| 29> C 	 6.02374 	 -13.0462 	 103.722
| 30> H 	 4.93552 	 -12.9499 	 103.772
| 31> H 	 6.30978 	 -12.1394 	 104.286
| 32> C 	 6.45805 	 -14.3208 	 104.501
| 33> H 	 7.54335 	 -14.4682 	 104.478
| 34> H 	 5.92132 	 -15.1815 	 104.096
| 35> C 	 6.2701 	 -14.0911 	 106.021
| 36> H 	 5.17815 	 -14.091 	 106.22
| 37> H 	 6.65599 	 -13.1562 	 106.284
| 38> H 	 6.91431 	 -14.8601 	 106.538
| 39> H 	 12.5391 	 -13.4045 	 103.855
| 40> H 	 5.87927 	 -12.9287 	 98.9597
| 41> *
| 42>
| 43>                          ****END OF INPUT****

CARTESIAN COORDINATES (ANGSTROEM)
---------------------------------
  S     10.639000  -13.761100  102.250000
  C     11.501200  -13.160000  103.612000
  C     10.623100  -12.334300  104.332000
  C      9.295040  -12.333600  103.882000
  C      9.151370  -13.024200  102.730000
  H      8.523850  -11.681800  104.273000
  C     11.051900  -11.550100  105.534000
  H     11.197700  -10.489500  105.295000
  H     12.053700  -11.955500  105.783000
  C     10.239600  -11.615300  106.792000
  H     10.735800  -10.918000  107.542000
  H      9.327900  -11.170200  106.653000
  C     10.035600  -13.065700  107.324000
  H      9.734980  -13.241900  108.368000
  H      9.205680  -13.470700  106.718000
  H     10.905400  -13.696700  107.135000
  S      8.119960  -12.840000  100.221000
  C      6.388970  -12.980200   99.950500
  C      5.648270  -13.057300  101.099000
  C      6.524730  -12.991100  102.235000
  C      7.880870  -13.033600  101.943000
  H      4.602170  -13.057900  101.145000
  C      6.023740  -13.046200  103.722000
  H      4.935520  -12.949900  103.772000
  H      6.309780  -12.139400  104.286000
  C      6.458050  -14.320800  104.501000
  H      7.543350  -14.468200  104.478000
  H      5.921320  -15.181500  104.096000
  C      6.270100  -14.091100  106.021000
  H      5.178150  -14.091000  106.220000
  H      6.655990  -13.156200  106.284000
  H      6.914310  -14.860100  106.538000
  H     12.539100  -13.404500  103.855000
  H      5.879270  -12.928700   98.959700

 Total Charge           Charge          ....    0
 Multiplicity           Mult            ....    1
 Number of Electrons    NEL             ....  134
 Basis Dimension        Dim             ....  322

ORBITAL ENERGIES
----------------

  NO   OCC          E(Eh)            E(eV)
   0   2.0000     -88.970352     -2421.0064
   1   2.0000     -88.965825     -2420.8832
   2   2.0000     -10.331051      -281.1222
   3   2.0000     -10.329378      -281.0767
   4   2.0000     -10.319156      -280.7985
   5   2.0000     -10.316863      -280.7361
   6   2.0000     -10.307279      -280.4753
   7   2.0000     -10.299511      -280.2639
   8   2.0000     -10.296325      -280.1772
   9   2.0000     -10.293286      -280.0946
  10   2.0000     -10.288895      -279.9751
  11   2.0000     -10.287597      -279.9397
  12   2.0000     -10.285448      -279.8813
  13   2.0000     -10.283212      -279.8204
  14   2.0000     -10.279722      -279.7254
  15   2.0000     -10.277951      -279.6773
  16   2.0000      -8.085643      -220.0215
  17   2.0000      -8.080568      -219.8834
  18   2.0000      -6.044170      -164.4702
  19   2.0000      -6.039867      -164.3531
  20   2.0000      -6.039104      -164.3324
  21   2.0000      -6.036544      -164.2627
  22   2.0000      -6.035122      -164.2240
  23   2.0000      -6.031246      -164.1186
  24   2.0000      -1.014202       -27.5978
  25   2.0000      -0.988858       -26.9082
  26   2.0000      -0.916557       -24.9408
  27   2.0000      -0.901983       -24.5442
  28   2.0000      -0.871067       -23.7029
  29   2.0000      -0.852762       -23.2048
  30   2.0000      -0.843326       -22.9481
  31   2.0000      -0.818708       -22.2782
  32   2.0000      -0.780073       -21.2269
  33   2.0000      -0.768301       -20.9065
  34   2.0000      -0.709532       -19.3074
  35   2.0000      -0.698300       -19.0017
  36   2.0000      -0.687415       -18.7055
  37   2.0000      -0.665050       -18.0969
  38   2.0000      -0.641014       -17.4429
  39   2.0000      -0.629190       -17.1211
  40   2.0000      -0.593140       -16.1402
  41   2.0000      -0.570623       -15.5274
  42   2.0000      -0.565413       -15.3857
  43   2.0000      -0.558384       -15.1944
  44   2.0000      -0.534903       -14.5554
  45   2.0000      -0.524361       -14.2686
  46   2.0000      -0.522086       -14.2067
  47   2.0000      -0.506945       -13.7947
  48   2.0000      -0.500897       -13.6301
  49   2.0000      -0.495199       -13.4751
  50   2.0000      -0.490723       -13.3533
  51   2.0000      -0.486496       -13.2382
  52   2.0000      -0.473587       -12.8869
  53   2.0000      -0.467710       -12.7270
  54   2.0000      -0.459520       -12.5042
  55   2.0000      -0.448312       -12.1992
  56   2.0000      -0.443491       -12.0680
  57   2.0000      -0.437348       -11.9008
  58   2.0000      -0.435570       -11.8525
  59   2.0000      -0.423617       -11.5272
  60   2.0000      -0.421712       -11.4754
  61   2.0000      -0.410239       -11.1632
  62   2.0000      -0.407135       -11.0787
  63   2.0000      -0.356215        -9.6931
  64   2.0000      -0.334538        -9.1032
  65   2.0000      -0.330288        -8.9876
  66   2.0000      -0.289733        -7.8840
  67   0.0000       0.027959         0.7608
  68   0.0000       0.075839         2.0637
  69   0.0000       0.107158         2.9159
  70   0.0000       0.118911         3.2357
  71   0.0000       0.129701         3.5293

MULLIKEN ATOMIC CHARGES
-----------------------
   0 S :    0.123352
   1 C :   -0.131155
   2 C :   -0.094748
   3 C :    0.002874
   4 C :   -0.101324
   5 H :    0.011112
   6 C :    0.059992
   7 H :    0.043714
   8 H :    0.010189
   9 C :   -0.058215
  10 H :    0.034235
  11 H :    0.004360
  12 C :   -0.056531
  13 H :    0.040697
  14 H :    0.024990
  15 H :    0.028397
  16 S :    0.098913
  17 C :   -0.093971
  18 C :    0.000802
  19 C :   -0.041670
  20 C :   -0.145328
  21 H :    0.000462
  22 C :    0.021945
  23 H :    0.009298
  24 H :    0.023338
  25 C :   -0.083897
  26 H :    0.044875
  27 H :    0.041032
  28 C :   -0.041787
  29 H :    0.035558
  30 H :    0.011291
  31 H :    0.049566
  32 H :    0.060545
  33 H :    0.067090
Sum of atomic charges:    0.0000000

LOEWDIN ATOMIC CHARGES
----------------------
   0 S :    0.433177
   1 C :   -0.215034
   2 C :   -0.063294
   3 C :   -0.071742
   4 C :   -0.196468
   5 H :    0.033698
   6 C :   -0.036025
   7 H :    0.036887
   8 H :    0.029303
   9 C :   -0.040793
  10 H :    0.032815
  11 H :    0.006387
  12 C :   -0.070320
  13 H :    0.028520
  14 H :    0.028946
  15 H :    0.024411
  16 S :    0.401836
  17 C :   -0.185224
  18 C :   -0.064942
  19 C :   -0.057932
  20 C :   -0.187795
  21 H :    0.026475
  22 C :   -0.037421
  23 H :    0.025417
  24 H :    0.024909
  25 C :   -0.039385
  26 H :    0.025853
  27 H :    0.026028
  28 C :   -0.062242
  29 H :    0.026491
  30 H :    0.009915
  31 H :    0.034483
  32 H :    0.035581
  33 H :    0.037487

  Mayer bond orders larger than 0.100000
B(  0-S ,  1-C ) :   1.1416 B(  0-S ,  4-C ) :   1.1774 B(  1-C ,  2-C ) :   1.5654
B(  1-C , 32-H ) :   0.9706 B(  2-C ,  3-C ) :   1.2739 B(  2-C ,  6-C ) :   1.0273
B(  3-C ,  4-C ) :   1.5352 B(  3-C ,  5-H ) :   0.9975 B(  4-C , 20-C ) :   1.0219
B(  6-C ,  7-H ) :   0.9314 B(  6-C ,  8-H ) :   0.9384 B(  6-C ,  9-C ) :   1.0914
B(  9-C , 10-H ) :   0.9515 B(  9-C , 11-H ) :   0.9519 B(  9-C , 12-C ) :   1.0595
B( 12-C , 13-H ) :   0.9769 B( 12-C , 14-H ) :   0.9696 B( 12-C , 15-H ) :   0.9779
B( 16-S , 17-C ) :   1.1536 B( 16-S , 20-C ) :   1.1394 B( 17-C , 18-C ) :   1.6117
B( 17-C , 33-H ) :   0.9588 B( 18-C , 19-C ) :   1.2461 B( 18-C , 21-H ) :   0.9991
B( 19-C , 20-C ) :   1.6104 B( 19-C , 22-C ) :   1.0288 B( 22-C , 23-H ) :   0.9358
B( 22-C , 24-H ) :   0.9411 B( 22-C , 25-C ) :   1.0570 B( 25-C , 26-H ) :   0.9590
B( 25-C , 27-H ) :   0.9577 B( 25-C , 28-C ) :   1.0740 B( 28-C , 29-H ) :   0.9744
B( 28-C , 30-H ) :   0.9699 B( 28-C , 31-H ) :   0.9737

Dispersion correction           -0.016218319
FINAL SINGLE POINT ENERGY     -1339.877470546877

DIPOLE MOMENT
-------------
                                X             Y             Z
Electronic contribution:      6.26178      -0.92707     -30.35493
Nuclear contribution   :     -6.51050       1.17609      30.83450
                        -----------------------------------------
Total Dipole Moment    :     -0.24872       0.24902       0.47957
                        -----------------------------------------
Magnitude (a.u.)       :      0.59486
Magnitude (Debye)      :      1.51201

Rotational constants in cm-1:     0.019362     0.010450     0.007550
Rotational constants in MHz :   580.459897   313.268131   226.335630

                             ****ORCA TERMINATED NORMALLY****
TOTAL RUN TIME: 0 days 0 hours 0 minutes 34 seconds 971 msec
