                         Program Version 4.2.1 -  RELEASE  -
|  1> ! wB97X-D3 SP def2-SVP
|  2> %pal
|  3> nprocs 16
|  4> end
|  5>
|  6> * xyz 0 1
|  7> S 	 23.7398 	 9.57823 	 73.8807
|  8> C 	 22.8439 	 9.16039 	 72.4703
|  9> C 	 23.6168 	 8.49509 	 71.511
| 10> C 	 24.9209 	 8.1637 	 72.0425
| 11> C 	 25.1002 	 8.66976 	 73.3101
| 12> H 	 25.6708 	 7.59883 	 71.5225
| 13> C 	 23.0933 	 8.05134 	 70.1393
| 14> H 	 23.7669 	 8.08073 	 69.368
| 15> H 	 22.269 	 8.69048 	 69.8242
| 16> C 	 22.5296 	 6.61811 	 70.2317
| 17> H 	 22.1589 	 6.28068 	 69.2557
| 18> H 	 23.3327 	 5.97713 	 70.4816
| 19> C 	 21.5418 	 6.31883 	 71.3692
| 20> H 	 21.9811 	 6.57199 	 72.2989
| 21> H 	 20.6531 	 6.99973 	 71.2304
| 22> H 	 21.0888 	 5.24657 	 71.3323
| 23> S 	 27.3599 	 9.93501 	 74.3488
| 24> C 	 28.265 	 8.98426 	 75.4558
| 25> C 	 27.9872 	 7.6294 	 75.4787
| 26> C 	 26.9047 	 7.35026 	 74.6397
| 27> C 	 26.3235 	 8.51968 	 74.1487
| 28> H 	 28.5573 	 6.92336 	 76.0793
| 29> C 	 26.393 	 5.91206 	 74.4901
| 30> H 	 27.2498 	 5.28541 	 74.2365
| 31> H 	 25.8111 	 5.77665 	 73.5348
| 32> C 	 25.7103 	 5.24574 	 75.7621
| 33> H 	 26.4125 	 4.69345 	 76.4137
| 34> H 	 24.9805 	 4.4284 	 75.5022
| 35> C 	 24.9608 	 6.30921 	 76.5701
| 36> H 	 24.2751 	 5.74418 	 77.2176
| 37> H 	 24.4683 	 6.99492 	 75.9529
| 38> H 	 25.5259 	 6.92907 	 77.2498
| 39> H 	 21.8745 	 9.57264 	 72.199
| 40> H 	 29.042 	 9.38727 	 75.9753
| 41> *
| 42>
| 43>                          ****END OF INPUT****

CARTESIAN COORDINATES (ANGSTROEM)
---------------------------------
  S     23.739800    9.578230   73.880700
  C     22.843900    9.160390   72.470300
  C     23.616800    8.495090   71.511000
  C     24.920900    8.163700   72.042500
  C     25.100200    8.669760   73.310100
  H     25.670800    7.598830   71.522500
  C     23.093300    8.051340   70.139300
  H     23.766900    8.080730   69.368000
  H     22.269000    8.690480   69.824200
  C     22.529600    6.618110   70.231700
  H     22.158900    6.280680   69.255700
  H     23.332700    5.977130   70.481600
  C     21.541800    6.318830   71.369200
  H     21.981100    6.571990   72.298900
  H     20.653100    6.999730   71.230400
  H     21.088800    5.246570   71.332300
  S     27.359900    9.935010   74.348800
  C     28.265000    8.984260   75.455800
  C     27.987200    7.629400   75.478700
  C     26.904700    7.350260   74.639700
  C     26.323500    8.519680   74.148700
  H     28.557300    6.923360   76.079300
  C     26.393000    5.912060   74.490100
  H     27.249800    5.285410   74.236500
  H     25.811100    5.776650   73.534800
  C     25.710300    5.245740   75.762100
  H     26.412500    4.693450   76.413700
  H     24.980500    4.428400   75.502200
  C     24.960800    6.309210   76.570100
  H     24.275100    5.744180   77.217600
  H     24.468300    6.994920   75.952900
  H     25.525900    6.929070   77.249800
  H     21.874500    9.572640   72.199000
  H     29.042000    9.387270   75.975300

 Total Charge           Charge          ....    0
 Multiplicity           Mult            ....    1
 Number of Electrons    NEL             ....  134
 Basis Dimension        Dim             ....  322

ORBITAL ENERGIES
----------------

  NO   OCC          E(Eh)            E(eV)
   0   2.0000     -88.969961     -2420.9957
   1   2.0000     -88.968676     -2420.9607
   2   2.0000     -10.326853      -281.0080
   3   2.0000     -10.325644      -280.9751
   4   2.0000     -10.312324      -280.6126
   5   2.0000     -10.307381      -280.4781
   6   2.0000     -10.305204      -280.4189
   7   2.0000     -10.303393      -280.3696
   8   2.0000     -10.296791      -280.1899
   9   2.0000     -10.294696      -280.1329
  10   2.0000     -10.293058      -280.0884
  11   2.0000     -10.290937      -280.0306
  12   2.0000     -10.289484      -279.9911
  13   2.0000     -10.281240      -279.7668
  14   2.0000     -10.279607      -279.7223
  15   2.0000     -10.263045      -279.2717
  16   2.0000      -8.084984      -220.0036
  17   2.0000      -8.083914      -219.9745
  18   2.0000      -6.043371      -164.4485
  19   2.0000      -6.042065      -164.4130
  20   2.0000      -6.039427      -164.3412
  21   2.0000      -6.038659      -164.3203
  22   2.0000      -6.035884      -164.2447
  23   2.0000      -6.034725      -164.2132
  24   2.0000      -1.008307       -27.4374
  25   2.0000      -0.988442       -26.8969
  26   2.0000      -0.912117       -24.8200
  27   2.0000      -0.900254       -24.4972
  28   2.0000      -0.862174       -23.4610
  29   2.0000      -0.850524       -23.1439
  30   2.0000      -0.844895       -22.9907
  31   2.0000      -0.809239       -22.0205
  32   2.0000      -0.786084       -21.3904
  33   2.0000      -0.773994       -21.0615
  34   2.0000      -0.703547       -19.1445
  35   2.0000      -0.693649       -18.8751
  36   2.0000      -0.687715       -18.7137
  37   2.0000      -0.660174       -17.9642
  38   2.0000      -0.643956       -17.5229
  39   2.0000      -0.620586       -16.8870
  40   2.0000      -0.594586       -16.1795
  41   2.0000      -0.570040       -15.5116
  42   2.0000      -0.551253       -15.0004
  43   2.0000      -0.549029       -14.9398
  44   2.0000      -0.546775       -14.8785
  45   2.0000      -0.534533       -14.5454
  46   2.0000      -0.507991       -13.8232
  47   2.0000      -0.506562       -13.7842
  48   2.0000      -0.494185       -13.4475
  49   2.0000      -0.492569       -13.4035
  50   2.0000      -0.489442       -13.3184
  51   2.0000      -0.474702       -12.9173
  52   2.0000      -0.465515       -12.6673
  53   2.0000      -0.463657       -12.6167
  54   2.0000      -0.459336       -12.4992
  55   2.0000      -0.451667       -12.2905
  56   2.0000      -0.450182       -12.2501
  57   2.0000      -0.440013       -11.9734
  58   2.0000      -0.434909       -11.8345
  59   2.0000      -0.425117       -11.5680
  60   2.0000      -0.424705       -11.5568
  61   2.0000      -0.409475       -11.1424
  62   2.0000      -0.402078       -10.9411
  63   2.0000      -0.340438        -9.2638
  64   2.0000      -0.333957        -9.0874
  65   2.0000      -0.326019        -8.8714
  66   2.0000      -0.298902        -8.1335
  67   0.0000       0.037149         1.0109
  68   0.0000       0.061743         1.6801
  69   0.0000       0.105973         2.8837
  70   0.0000       0.118957         3.2370
  71   0.0000       0.128790         3.5046

MULLIKEN ATOMIC CHARGES
-----------------------
   0 S :    0.137903
   1 C :   -0.114518
   2 C :   -0.145868
   3 C :    0.063185
   4 C :   -0.177536
   5 H :    0.010515
   6 C :    0.136339
   7 H :    0.004966
   8 H :    0.017450
   9 C :   -0.074751
  10 H :    0.028784
  11 H :    0.012615
  12 C :   -0.084132
  13 H :    0.051174
  14 H :    0.018972
  15 H :    0.051692
  16 S :    0.126836
  17 C :   -0.048246
  18 C :   -0.032339
  19 C :   -0.023752
  20 C :   -0.192990
  21 H :    0.021405
  22 C :    0.071613
  23 H :    0.023697
  24 H :    0.029734
  25 C :   -0.103331
  26 H :    0.027136
  27 H :    0.040097
  28 C :    0.002764
  29 H :    0.025531
  30 H :    0.011552
  31 H :    0.022187
  32 H :    0.048479
  33 H :    0.012836
Sum of atomic charges:   -0.0000000

LOEWDIN ATOMIC CHARGES
----------------------
   0 S :    0.432958
   1 C :   -0.212309
   2 C :   -0.055634
   3 C :   -0.058460
   4 C :   -0.204872
   5 H :    0.030249
   6 C :   -0.019084
   7 H :    0.019284
   8 H :    0.029623
   9 C :   -0.040218
  10 H :    0.022498
  11 H :    0.015590
  12 C :   -0.071115
  13 H :    0.019302
  14 H :    0.021200
  15 H :    0.038644
  16 S :    0.417622
  17 C :   -0.172268
  18 C :   -0.065226
  19 C :   -0.051878
  20 C :   -0.201787
  21 H :    0.036027
  22 C :   -0.040708
  23 H :    0.032196
  24 H :    0.035058
  25 C :   -0.043850
  26 H :    0.022279
  27 H :    0.032488
  28 C :   -0.063722
  29 H :    0.026826
  30 H :    0.014612
  31 H :    0.023721
  32 H :    0.027571
  33 H :    0.003385

  Mayer bond orders larger than 0.100000
B(  0-S ,  1-C ) :   1.1480 B(  0-S ,  4-C ) :   1.1690 B(  1-C ,  2-C ) :   1.6081
B(  1-C , 32-H ) :   0.9622 B(  2-C ,  3-C ) :   1.2346 B(  2-C ,  6-C ) :   1.0351
B(  3-C ,  4-C ) :   1.5784 B(  3-C ,  5-H ) :   0.9983 B(  4-C , 20-C ) :   0.9984
B(  6-C ,  7-H ) :   0.9389 B(  6-C ,  8-H ) :   0.9384 B(  6-C ,  9-C ) :   1.0648
B(  9-C , 10-H ) :   0.9578 B(  9-C , 11-H ) :   0.9564 B(  9-C , 12-C ) :   1.0744
B( 12-C , 13-H ) :   0.9687 B( 12-C , 14-H ) :   0.9757 B( 12-C , 15-H ) :   0.9720
B( 16-S , 17-C ) :   1.1661 B( 16-S , 20-C ) :   1.1599 B( 17-C , 18-C ) :   1.5974
B( 17-C , 20-C ) :   0.1012 B( 17-C , 33-H ) :   0.9774 B( 18-C , 19-C ) :   1.2405
B( 18-C , 21-H ) :   0.9957 B( 19-C , 20-C ) :   1.5915 B( 19-C , 22-C ) :   1.0596
B( 22-C , 23-H ) :   0.9351 B( 22-C , 24-H ) :   0.9342 B( 22-C , 25-C ) :   1.0440
B( 25-C , 26-H ) :   0.9556 B( 25-C , 27-H ) :   0.9627 B( 25-C , 28-C ) :   1.0887
B( 28-C , 29-H ) :   0.9739 B( 28-C , 30-H ) :   0.9723 B( 28-C , 31-H ) :   0.9666

Dispersion correction           -0.015985764
FINAL SINGLE POINT ENERGY     -1339.869800389445

DIPOLE MOMENT
-------------
                                X             Y             Z
Electronic contribution:     12.13475      21.79108       4.21538
Nuclear contribution   :    -12.02721     -22.22825      -4.46461
                        -----------------------------------------
Total Dipole Moment    :      0.10755      -0.43717      -0.24923
                        -----------------------------------------
Magnitude (a.u.)       :      0.51459
Magnitude (Debye)      :      1.30798

Rotational constants in cm-1:     0.020880     0.009149     0.007682
Rotational constants in MHz :   625.959044   274.269660   230.314496

                             ****ORCA TERMINATED NORMALLY****
TOTAL RUN TIME: 0 days 0 hours 0 minutes 37 seconds 326 msec
