                         Program Version 4.2.1 -  RELEASE  -
|  1> ! wB97X-D3 SP def2-SVP
|  2> %pal
|  3> nprocs 16
|  4> end
|  5>
|  6> * xyz 0 1
|  7> S 	 58.5153 	 8.88811 	 74.2276
|  8> C 	 58.7118 	 10.6303 	 74.4189
|  9> C 	 58.0853 	 11.3758 	 73.4595
| 10> C 	 57.4212 	 10.5583 	 72.4579
| 11> C 	 57.6726 	 9.16509 	 72.7143
| 12> H 	 56.8888 	 10.9951 	 71.6038
| 13> C 	 58.1667 	 12.8671 	 73.4052
| 14> H 	 57.5334 	 13.53 	 74.0688
| 15> H 	 57.7874 	 13.1246 	 72.4469
| 16> C 	 59.5761 	 13.4372 	 73.4886
| 17> H 	 60.0422 	 13.1134 	 74.4736
| 18> H 	 60.1362 	 12.9444 	 72.6726
| 19> C 	 59.6894 	 14.9663 	 73.4534
| 20> H 	 59.0771 	 15.4319 	 74.253
| 21> H 	 60.7176 	 15.3511 	 73.661
| 22> H 	 59.345 	 15.1911 	 72.4837
| 23> S 	 56.5373 	 6.71468 	 72.9642
| 24> C 	 56.6331 	 5.54441 	 71.6602
| 25> C 	 57.0265 	 6.19096 	 70.4995
| 26> C 	 57.3625 	 7.58966 	 70.6899
| 27> C 	 57.2143 	 8.02212 	 71.9704
| 28> H 	 57.0608 	 5.77529 	 69.475
| 29> C 	 57.9244 	 8.34574 	 69.6219
| 30> H 	 58.299 	 7.56801 	 68.9232
| 31> H 	 58.8086 	 8.88676 	 69.9531
| 32> C 	 57.0806 	 9.15776 	 68.7618
| 33> H 	 57.5543 	 10.0976 	 68.3636
| 34> H 	 56.3423 	 9.64708 	 69.4102
| 35> C 	 56.3135 	 8.32963 	 67.6933
| 36> H 	 55.9051 	 8.95333 	 66.9279
| 37> H 	 55.5921 	 7.65658 	 68.1271
| 38> H 	 56.9553 	 7.79505 	 67.0488
| 39> H 	 59.2404 	 11.1516 	 75.2281
| 40> H 	 56.327 	 4.47646 	 71.6193
| 41> *
| 42>
| 43>                          ****END OF INPUT****

CARTESIAN COORDINATES (ANGSTROEM)
---------------------------------
  S     58.515300    8.888110   74.227600
  C     58.711800   10.630300   74.418900
  C     58.085300   11.375800   73.459500
  C     57.421200   10.558300   72.457900
  C     57.672600    9.165090   72.714300
  H     56.888800   10.995100   71.603800
  C     58.166700   12.867100   73.405200
  H     57.533400   13.530000   74.068800
  H     57.787400   13.124600   72.446900
  C     59.576100   13.437200   73.488600
  H     60.042200   13.113400   74.473600
  H     60.136200   12.944400   72.672600
  C     59.689400   14.966300   73.453400
  H     59.077100   15.431900   74.253000
  H     60.717600   15.351100   73.661000
  H     59.345000   15.191100   72.483700
  S     56.537300    6.714680   72.964200
  C     56.633100    5.544410   71.660200
  C     57.026500    6.190960   70.499500
  C     57.362500    7.589660   70.689900
  C     57.214300    8.022120   71.970400
  H     57.060800    5.775290   69.475000
  C     57.924400    8.345740   69.621900
  H     58.299000    7.568010   68.923200
  H     58.808600    8.886760   69.953100
  C     57.080600    9.157760   68.761800
  H     57.554300   10.097600   68.363600
  H     56.342300    9.647080   69.410200
  C     56.313500    8.329630   67.693300
  H     55.905100    8.953330   66.927900
  H     55.592100    7.656580   68.127100
  H     56.955300    7.795050   67.048800
  H     59.240400   11.151600   75.228100
  H     56.327000    4.476460   71.619300

 Total Charge           Charge          ....    0
 Multiplicity           Mult            ....    1
 Number of Electrons    NEL             ....  134
 Basis Dimension        Dim             ....  322

ORBITAL ENERGIES
----------------

  NO   OCC          E(Eh)            E(eV)
   0   2.0000     -88.973400     -2421.0893
   1   2.0000     -88.963286     -2420.8141
   2   2.0000     -10.337823      -281.3065
   3   2.0000     -10.323236      -280.9095
   4   2.0000     -10.323177      -280.9079
   5   2.0000     -10.313490      -280.6443
   6   2.0000     -10.307841      -280.4906
   7   2.0000     -10.301523      -280.3187
   8   2.0000     -10.296981      -280.1951
   9   2.0000     -10.294074      -280.1160
  10   2.0000     -10.291808      -280.0543
  11   2.0000     -10.291272      -280.0397
  12   2.0000     -10.285981      -279.8958
  13   2.0000     -10.282508      -279.8013
  14   2.0000     -10.276588      -279.6402
  15   2.0000     -10.272820      -279.5376
  16   2.0000      -8.087384      -220.0689
  17   2.0000      -8.077719      -219.8059
  18   2.0000      -6.045894      -164.5171
  19   2.0000      -6.042057      -164.4127
  20   2.0000      -6.038086      -164.3047
  21   2.0000      -6.036496      -164.2614
  22   2.0000      -6.032164      -164.1435
  23   2.0000      -6.028296      -164.0383
  24   2.0000      -1.007426       -27.4134
  25   2.0000      -0.982093       -26.7241
  26   2.0000      -0.924870       -25.1670
  27   2.0000      -0.916467       -24.9383
  28   2.0000      -0.870436       -23.6858
  29   2.0000      -0.853436       -23.2232
  30   2.0000      -0.845393       -23.0043
  31   2.0000      -0.811604       -22.0849
  32   2.0000      -0.786489       -21.4014
  33   2.0000      -0.775905       -21.1135
  34   2.0000      -0.716033       -19.4843
  35   2.0000      -0.699947       -19.0465
  36   2.0000      -0.690354       -18.7855
  37   2.0000      -0.669755       -18.2250
  38   2.0000      -0.634035       -17.2530
  39   2.0000      -0.616238       -16.7687
  40   2.0000      -0.597871       -16.2689
  41   2.0000      -0.574268       -15.6266
  42   2.0000      -0.564066       -15.3490
  43   2.0000      -0.563314       -15.3285
  44   2.0000      -0.541682       -14.7399
  45   2.0000      -0.527695       -14.3593
  46   2.0000      -0.517427       -14.0799
  47   2.0000      -0.510388       -13.8884
  48   2.0000      -0.502206       -13.6657
  49   2.0000      -0.498444       -13.5633
  50   2.0000      -0.494233       -13.4488
  51   2.0000      -0.483500       -13.1567
  52   2.0000      -0.479788       -13.0557
  53   2.0000      -0.462029       -12.5725
  54   2.0000      -0.460179       -12.5221
  55   2.0000      -0.449231       -12.2242
  56   2.0000      -0.446194       -12.1416
  57   2.0000      -0.438972       -11.9450
  58   2.0000      -0.429762       -11.6944
  59   2.0000      -0.425099       -11.5675
  60   2.0000      -0.416655       -11.3378
  61   2.0000      -0.412465       -11.2237
  62   2.0000      -0.404321       -11.0021
  63   2.0000      -0.347670        -9.4606
  64   2.0000      -0.335490        -9.1292
  65   2.0000      -0.326015        -8.8713
  66   2.0000      -0.291234        -7.9249
  67   0.0000       0.023218         0.6318
  68   0.0000       0.065995         1.7958
  69   0.0000       0.105827         2.8797
  70   0.0000       0.119276         3.2457
  71   0.0000       0.127257         3.4628

MULLIKEN ATOMIC CHARGES
-----------------------
   0 S :    0.135194
   1 C :   -0.122663
   2 C :   -0.081613
   3 C :    0.030540
   4 C :   -0.151327
   5 H :    0.026922
   6 C :    0.090221
   7 H :    0.038258
   8 H :   -0.010648
   9 C :   -0.143169
  10 H :    0.028898
  11 H :    0.039647
  12 C :   -0.028856
  13 H :    0.033444
  14 H :    0.045336
  15 H :    0.024831
  16 S :    0.087319
  17 C :   -0.094113
  18 C :   -0.036223
  19 C :   -0.044738
  20 C :   -0.149524
  21 H :    0.028334
  22 C :    0.060367
  23 H :    0.005461
  24 H :    0.033396
  25 C :   -0.060794
  26 H :    0.028185
  27 H :    0.014591
  28 C :   -0.023533
  29 H :    0.018749
  30 H :    0.046639
  31 H :    0.006064
  32 H :    0.050539
  33 H :    0.074268
Sum of atomic charges:    0.0000000

LOEWDIN ATOMIC CHARGES
----------------------
   0 S :    0.415474
   1 C :   -0.193427
   2 C :   -0.066160
   3 C :   -0.056742
   4 C :   -0.190682
   5 H :    0.034841
   6 C :   -0.040380
   7 H :    0.036341
   8 H :    0.020129
   9 C :   -0.045346
  10 H :    0.020603
  11 H :    0.026662
  12 C :   -0.064139
  13 H :    0.028330
  14 H :    0.034188
  15 H :    0.018162
  16 S :    0.386423
  17 C :   -0.191415
  18 C :   -0.073838
  19 C :   -0.060662
  20 C :   -0.189355
  21 H :    0.033833
  22 C :   -0.048250
  23 H :    0.034087
  24 H :    0.038110
  25 C :   -0.044789
  26 H :    0.031390
  27 H :    0.020893
  28 C :   -0.062888
  29 H :    0.027124
  30 H :    0.027847
  31 H :    0.017936
  32 H :    0.031598
  33 H :    0.044101

  Mayer bond orders larger than 0.100000
B(  0-S ,  1-C ) :   1.1236 B(  0-S ,  4-C ) :   1.1595 B(  1-C ,  2-C ) :   1.6296
B(  1-C , 32-H ) :   0.9615 B(  2-C ,  3-C ) :   1.2465 B(  2-C ,  6-C ) :   1.0212
B(  3-C ,  4-C ) :   1.5309 B(  3-C ,  5-H ) :   0.9867 B(  4-C , 20-C ) :   1.0674
B(  6-C ,  7-H ) :   0.9321 B(  6-C ,  8-H ) :   0.9325 B(  6-C ,  9-C ) :   1.0603
B(  9-C , 10-H ) :   0.9541 B(  9-C , 11-H ) :   0.9589 B(  9-C , 12-C ) :   1.0770
B( 12-C , 13-H ) :   0.9714 B( 12-C , 14-H ) :   0.9740 B( 12-C , 15-H ) :   0.9772
B( 16-S , 17-C ) :   1.1402 B( 16-S , 20-C ) :   1.1081 B( 17-C , 18-C ) :   1.6120
B( 17-C , 33-H ) :   0.9604 B( 18-C , 19-C ) :   1.2464 B( 18-C , 21-H ) :   0.9746
B( 19-C , 20-C ) :   1.6097 B( 19-C , 22-C ) :   1.0782 B( 22-C , 23-H ) :   0.9274
B( 22-C , 24-H ) :   0.9150 B( 22-C , 25-C ) :   1.0689 B( 25-C , 26-H ) :   0.9529
B( 25-C , 27-H ) :   0.9468 B( 25-C , 28-C ) :   1.0780 B( 28-C , 29-H ) :   0.9681
B( 28-C , 30-H ) :   0.9757 B( 28-C , 31-H ) :   0.9704

Dispersion correction           -0.014046194
FINAL SINGLE POINT ENERGY     -1339.859478526888

DIPOLE MOMENT
-------------
                                X             Y             Z
Electronic contribution:     -4.13038     -22.41926      16.75203
Nuclear contribution   :      4.25154      22.85946     -17.26166
                        -----------------------------------------
Total Dipole Moment    :      0.12116       0.44021      -0.50963
                        -----------------------------------------
Magnitude (a.u.)       :      0.68424
Magnitude (Debye)      :      1.73920

Rotational constants in cm-1:     0.021311     0.007851     0.006014
Rotational constants in MHz :   638.878156   235.372774   180.301018

                             ****ORCA TERMINATED NORMALLY****
TOTAL RUN TIME: 0 days 0 hours 0 minutes 30 seconds 105 msec
