                         Program Version 4.2.1 -  RELEASE  -
|  1> ! wB97X-D3 SP def2-SVP
|  2> %pal
|  3> nprocs 16
|  4> end
|  5>
|  6> * xyz 0 1
|  7> S 	 6.47261 	 77.1097 	 45.42
|  8> C 	 6.48351 	 75.405 	 44.9647
|  9> C 	 6.83749 	 74.4976 	 45.9713
| 10> C 	 7.01724 	 75.2096 	 47.1843
| 11> C 	 6.93886 	 76.5835 	 47.0584
| 12> H 	 7.14134 	 74.7965 	 48.2124
| 13> C 	 6.82953 	 72.9931 	 45.8178
| 14> H 	 7.81495 	 72.5818 	 46.1568
| 15> H 	 6.77173 	 72.8974 	 44.7343
| 16> C 	 5.75838 	 72.2149 	 46.5671
| 17> H 	 5.42665 	 72.8805 	 47.3481
| 18> H 	 4.86796 	 72.2269 	 45.9076
| 19> C 	 6.16244 	 70.8184 	 47.0811
| 20> H 	 5.35833 	 70.2502 	 47.4716
| 21> H 	 6.69056 	 70.1986 	 46.3625
| 22> H 	 6.96349 	 70.9071 	 47.872
| 23> S 	 8.85931 	 78.3754 	 47.6906
| 24> C 	 8.49656 	 79.3553 	 49.1032
| 25> C 	 7.52177 	 78.8931 	 49.8993
| 26> C 	 6.89926 	 77.8088 	 49.3016
| 27> C 	 7.40161 	 77.5064 	 48.0361
| 28> H 	 7.24912 	 79.352 	 50.8642
| 29> C 	 5.6803 	 77.173 	 50.0022
| 30> H 	 5.38343 	 77.8048 	 50.8196
| 31> H 	 5.96209 	 76.2781 	 50.5514
| 32> C 	 4.4564 	 76.7459 	 49.1553
| 33> H 	 3.79799 	 76.1389 	 49.6376
| 34> H 	 4.73049 	 76.0684 	 48.3413
| 35> C 	 3.84685 	 78.0352 	 48.5787
| 36> H 	 2.77309 	 77.9334 	 48.3216
| 37> H 	 4.46194 	 78.3074 	 47.692
| 38> H 	 3.84121 	 78.803 	 49.3638
| 39> H 	 6.2181 	 75.065 	 43.9824
| 40> H 	 8.94501 	 80.2496 	 49.378
| 41> *
| 42>
| 43>                          ****END OF INPUT****

CARTESIAN COORDINATES (ANGSTROEM)
---------------------------------
  S      6.472610   77.109700   45.420000
  C      6.483510   75.405000   44.964700
  C      6.837490   74.497600   45.971300
  C      7.017240   75.209600   47.184300
  C      6.938860   76.583500   47.058400
  H      7.141340   74.796500   48.212400
  C      6.829530   72.993100   45.817800
  H      7.814950   72.581800   46.156800
  H      6.771730   72.897400   44.734300
  C      5.758380   72.214900   46.567100
  H      5.426650   72.880500   47.348100
  H      4.867960   72.226900   45.907600
  C      6.162440   70.818400   47.081100
  H      5.358330   70.250200   47.471600
  H      6.690560   70.198600   46.362500
  H      6.963490   70.907100   47.872000
  S      8.859310   78.375400   47.690600
  C      8.496560   79.355300   49.103200
  C      7.521770   78.893100   49.899300
  C      6.899260   77.808800   49.301600
  C      7.401610   77.506400   48.036100
  H      7.249120   79.352000   50.864200
  C      5.680300   77.173000   50.002200
  H      5.383430   77.804800   50.819600
  H      5.962090   76.278100   50.551400
  C      4.456400   76.745900   49.155300
  H      3.797990   76.138900   49.637600
  H      4.730490   76.068400   48.341300
  C      3.846850   78.035200   48.578700
  H      2.773090   77.933400   48.321600
  H      4.461940   78.307400   47.692000
  H      3.841210   78.803000   49.363800
  H      6.218100   75.065000   43.982400
  H      8.945010   80.249600   49.378000

 Total Charge           Charge          ....    0
 Multiplicity           Mult            ....    1
 Number of Electrons    NEL             ....  134
 Basis Dimension        Dim             ....  322

ORBITAL ENERGIES
----------------

  NO   OCC          E(Eh)            E(eV)
   0   2.0000     -88.972473     -2421.0641
   1   2.0000     -88.966759     -2420.9086
   2   2.0000     -10.324986      -280.9571
   3   2.0000     -10.317257      -280.7468
   4   2.0000     -10.316513      -280.7266
   5   2.0000     -10.303704      -280.3780
   6   2.0000     -10.303586      -280.3748
   7   2.0000     -10.297710      -280.2149
   8   2.0000     -10.296451      -280.1807
   9   2.0000     -10.295661      -280.1592
  10   2.0000     -10.290157      -280.0094
  11   2.0000     -10.287759      -279.9442
  12   2.0000     -10.285061      -279.8707
  13   2.0000     -10.284677      -279.8603
  14   2.0000     -10.271598      -279.5044
  15   2.0000     -10.270951      -279.4868
  16   2.0000      -8.086028      -220.0320
  17   2.0000      -8.081722      -219.9148
  18   2.0000      -6.044409      -164.4767
  19   2.0000      -6.040880      -164.3807
  20   2.0000      -6.040088      -164.3591
  21   2.0000      -6.036814      -164.2700
  22   2.0000      -6.036501      -164.2615
  23   2.0000      -6.032324      -164.1479
  24   2.0000      -1.010438       -27.4954
  25   2.0000      -0.984397       -26.7868
  26   2.0000      -0.914002       -24.8713
  27   2.0000      -0.903323       -24.5807
  28   2.0000      -0.874461       -23.7953
  29   2.0000      -0.850607       -23.1462
  30   2.0000      -0.846123       -23.0242
  31   2.0000      -0.813153       -22.1270
  32   2.0000      -0.783773       -21.3276
  33   2.0000      -0.767307       -20.8795
  34   2.0000      -0.715185       -19.4612
  35   2.0000      -0.704772       -19.1778
  36   2.0000      -0.691741       -18.8232
  37   2.0000      -0.660568       -17.9750
  38   2.0000      -0.642519       -17.4838
  39   2.0000      -0.616890       -16.7864
  40   2.0000      -0.594628       -16.1806
  41   2.0000      -0.572963       -15.5911
  42   2.0000      -0.554681       -15.0936
  43   2.0000      -0.548702       -14.9309
  44   2.0000      -0.540549       -14.7091
  45   2.0000      -0.525661       -14.3040
  46   2.0000      -0.518299       -14.1036
  47   2.0000      -0.502134       -13.6638
  48   2.0000      -0.498116       -13.5544
  49   2.0000      -0.495271       -13.4770
  50   2.0000      -0.487422       -13.2634
  51   2.0000      -0.477747       -13.0001
  52   2.0000      -0.467080       -12.7099
  53   2.0000      -0.464252       -12.6329
  54   2.0000      -0.458635       -12.4801
  55   2.0000      -0.454762       -12.3747
  56   2.0000      -0.447061       -12.1651
  57   2.0000      -0.442523       -12.0417
  58   2.0000      -0.435094       -11.8395
  59   2.0000      -0.429577       -11.6894
  60   2.0000      -0.416720       -11.3395
  61   2.0000      -0.413555       -11.2534
  62   2.0000      -0.412413       -11.2223
  63   2.0000      -0.345392        -9.3986
  64   2.0000      -0.331285        -9.0147
  65   2.0000      -0.323940        -8.8149
  66   2.0000      -0.290935        -7.9167
  67   0.0000       0.030867         0.8399
  68   0.0000       0.061876         1.6837
  69   0.0000       0.105742         2.8774
  70   0.0000       0.112471         3.0605
  71   0.0000       0.123580         3.3628

MULLIKEN ATOMIC CHARGES
-----------------------
   0 S :    0.126815
   1 C :   -0.115155
   2 C :   -0.102209
   3 C :    0.031602
   4 C :   -0.201826
   5 H :    0.032528
   6 C :    0.078580
   7 H :    0.032546
   8 H :    0.017487
   9 C :   -0.054829
  10 H :    0.023027
  11 H :    0.026537
  12 C :   -0.045337
  13 H :    0.036777
  14 H :    0.031377
  15 H :    0.033149
  16 S :    0.133860
  17 C :   -0.049784
  18 C :   -0.051501
  19 C :    0.001669
  20 C :   -0.190507
  21 H :    0.027354
  22 C :    0.057097
  23 H :    0.005496
  24 H :    0.023513
  25 C :   -0.025898
  26 H :   -0.008016
  27 H :    0.032045
  28 C :   -0.052721
  29 H :    0.030508
  30 H :    0.043641
  31 H :    0.020928
  32 H :    0.034641
  33 H :    0.016608
Sum of atomic charges:   -0.0000000

LOEWDIN ATOMIC CHARGES
----------------------
   0 S :    0.393842
   1 C :   -0.186247
   2 C :   -0.065471
   3 C :   -0.054653
   4 C :   -0.192536
   5 H :    0.040074
   6 C :   -0.032388
   7 H :    0.035149
   8 H :    0.029485
   9 C :   -0.046075
  10 H :    0.023209
  11 H :    0.029041
  12 C :   -0.065434
  13 H :    0.024090
  14 H :    0.025900
  15 H :    0.032182
  16 S :    0.415353
  17 C :   -0.168766
  18 C :   -0.071458
  19 C :   -0.052467
  20 C :   -0.213947
  21 H :    0.040604
  22 C :   -0.027768
  23 H :    0.023554
  24 H :    0.029481
  25 C :   -0.041237
  26 H :    0.008169
  27 H :    0.028454
  28 C :   -0.065497
  29 H :    0.024579
  30 H :    0.028160
  31 H :    0.020574
  32 H :    0.018771
  33 H :    0.013274

  Mayer bond orders larger than 0.100000
B(  0-S ,  1-C ) :   1.1421 B(  0-S ,  4-C ) :   1.1299 B(  1-C ,  2-C ) :   1.6165
B(  1-C , 32-H ) :   0.9618 B(  2-C ,  3-C ) :   1.2304 B(  2-C ,  6-C ) :   1.0309
B(  3-C ,  4-C ) :   1.5962 B(  3-C ,  5-H ) :   0.9810 B(  4-C , 20-C ) :   1.0589
B(  6-C ,  7-H ) :   0.9408 B(  6-C ,  8-H ) :   0.9324 B(  6-C ,  9-C ) :   1.0428
B(  9-C , 10-H ) :   0.9645 B(  9-C , 11-H ) :   0.9504 B(  9-C , 12-C ) :   1.0709
B( 12-C , 13-H ) :   0.9750 B( 12-C , 14-H ) :   0.9773 B( 12-C , 15-H ) :   0.9725
B( 16-S , 17-C ) :   1.1435 B( 16-S , 20-C ) :   1.1449 B( 17-C , 18-C ) :   1.6343
B( 17-C , 33-H ) :   0.9654 B( 18-C , 19-C ) :   1.2537 B( 18-C , 21-H ) :   0.9848
B( 19-C , 20-C ) :   1.5916 B( 19-C , 22-C ) :   1.0259 B( 22-C , 23-H ) :   0.9421
B( 22-C , 24-H ) :   0.9258 B( 22-C , 25-C ) :   1.0807 B( 25-C , 26-H ) :   0.9472
B( 25-C , 27-H ) :   0.9456 B( 25-C , 28-C ) :   1.0695 B( 28-C , 29-H ) :   0.9761
B( 28-C , 30-H ) :   0.9727 B( 28-C , 31-H ) :   0.9794

Dispersion correction           -0.015621913
FINAL SINGLE POINT ENERGY     -1339.859809673558

DIPOLE MOMENT
-------------
                                X             Y             Z
Electronic contribution:     15.27268      19.77670      -7.77244
Nuclear contribution   :    -15.52083     -20.27937       8.10035
                        -----------------------------------------
Total Dipole Moment    :     -0.24815      -0.50268       0.32792
                        -----------------------------------------
Magnitude (a.u.)       :      0.64945
Magnitude (Debye)      :      1.65078

Rotational constants in cm-1:     0.020189     0.008641     0.007730
Rotational constants in MHz :   605.248906   259.057796   231.729687

                             ****ORCA TERMINATED NORMALLY****
TOTAL RUN TIME: 0 days 0 hours 0 minutes 34 seconds 417 msec
