                         Program Version 4.2.1 -  RELEASE  -
|  1> ! wB97X-D3 SP def2-SVP
|  2> %pal
|  3> nprocs 16
|  4> end
|  5>
|  6> * xyz 0 1
|  7> S 	 -51.2964 	 38.3591 	 111.159
|  8> C 	 -49.5538 	 38.4604 	 110.77
|  9> C 	 -49.1953 	 37.6992 	 109.699
| 10> C 	 -50.3079 	 36.9697 	 109.233
| 11> C 	 -51.5243 	 37.1961 	 109.854
| 12> H 	 -50.2491 	 36.3226 	 108.37
| 13> C 	 -47.9205 	 37.8382 	 108.931
| 14> H 	 -47.5993 	 36.8188 	 108.724
| 15> H 	 -47.2696 	 38.4421 	 109.588
| 16> C 	 -48.2275 	 38.4568 	 107.499
| 17> H 	 -48.9702 	 37.8938 	 107.014
| 18> H 	 -48.7432 	 39.4043 	 107.66
| 19> C 	 -46.9635 	 38.5904 	 106.619
| 20> H 	 -47.1942 	 39.0047 	 105.637
| 21> H 	 -46.1693 	 39.1005 	 107.104
| 22> H 	 -46.4632 	 37.6229 	 106.374
| 23> S 	 -53.052 	 35.0772 	 110.608
| 24> C 	 -54.5485 	 34.8361 	 109.713
| 25> C 	 -54.7383 	 35.7084 	 108.642
| 26> C 	 -53.7953 	 36.708 	 108.645
| 27> C 	 -52.787 	 36.4994 	 109.601
| 28> H 	 -55.5574 	 35.4999 	 107.918
| 29> C 	 -53.6208 	 37.7787 	 107.524
| 30> H 	 -52.6451 	 38.3067 	 107.664
| 31> H 	 -54.4265 	 38.4559 	 107.571
| 32> C 	 -53.6075 	 37.305 	 106.081
| 33> H 	 -53.6033 	 38.1725 	 105.359
| 34> H 	 -54.527 	 36.6929 	 105.946
| 35> C 	 -52.4193 	 36.4252 	 105.756
| 36> H 	 -51.5058 	 36.9607 	 105.613
| 37> H 	 -52.5353 	 35.9624 	 104.789
| 38> H 	 -52.3461 	 35.631 	 106.516
| 39> H 	 -48.8518 	 39.1725 	 111.232
| 40> H 	 -55.229 	 33.9862 	 109.768
| 41> *
| 42>
| 43>                          ****END OF INPUT****

CARTESIAN COORDINATES (ANGSTROEM)
---------------------------------
  S    -51.296400   38.359100  111.159000
  C    -49.553800   38.460400  110.770000
  C    -49.195300   37.699200  109.699000
  C    -50.307900   36.969700  109.233000
  C    -51.524300   37.196100  109.854000
  H    -50.249100   36.322600  108.370000
  C    -47.920500   37.838200  108.931000
  H    -47.599300   36.818800  108.724000
  H    -47.269600   38.442100  109.588000
  C    -48.227500   38.456800  107.499000
  H    -48.970200   37.893800  107.014000
  H    -48.743200   39.404300  107.660000
  C    -46.963500   38.590400  106.619000
  H    -47.194200   39.004700  105.637000
  H    -46.169300   39.100500  107.104000
  H    -46.463200   37.622900  106.374000
  S    -53.052000   35.077200  110.608000
  C    -54.548500   34.836100  109.713000
  C    -54.738300   35.708400  108.642000
  C    -53.795300   36.708000  108.645000
  C    -52.787000   36.499400  109.601000
  H    -55.557400   35.499900  107.918000
  C    -53.620800   37.778700  107.524000
  H    -52.645100   38.306700  107.664000
  H    -54.426500   38.455900  107.571000
  C    -53.607500   37.305000  106.081000
  H    -53.603300   38.172500  105.359000
  H    -54.527000   36.692900  105.946000
  C    -52.419300   36.425200  105.756000
  H    -51.505800   36.960700  105.613000
  H    -52.535300   35.962400  104.789000
  H    -52.346100   35.631000  106.516000
  H    -48.851800   39.172500  111.232000
  H    -55.229000   33.986200  109.768000

 Total Charge           Charge          ....    0
 Multiplicity           Mult            ....    1
 Number of Electrons    NEL             ....  134
 Basis Dimension        Dim             ....  322

ORBITAL ENERGIES
----------------

  NO   OCC          E(Eh)            E(eV)
   0   2.0000     -88.973136     -2421.0821
   1   2.0000     -88.964019     -2420.8340
   2   2.0000     -10.328001      -281.0392
   3   2.0000     -10.327084      -281.0142
   4   2.0000     -10.318878      -280.7910
   5   2.0000     -10.313932      -280.6564
   6   2.0000     -10.305444      -280.4254
   7   2.0000     -10.298387      -280.2334
   8   2.0000     -10.295640      -280.1586
   9   2.0000     -10.292859      -280.0829
  10   2.0000     -10.290531      -280.0196
  11   2.0000     -10.289769      -279.9988
  12   2.0000     -10.289697      -279.9969
  13   2.0000     -10.288369      -279.9608
  14   2.0000     -10.281140      -279.7640
  15   2.0000     -10.270700      -279.4800
  16   2.0000      -8.087136      -220.0622
  17   2.0000      -8.077986      -219.8132
  18   2.0000      -6.045448      -164.5050
  19   2.0000      -6.041837      -164.4067
  20   2.0000      -6.038050      -164.3037
  21   2.0000      -6.036525      -164.2622
  22   2.0000      -6.032680      -164.1576
  23   2.0000      -6.028675      -164.0486
  24   2.0000      -1.004819       -27.3425
  25   2.0000      -0.984022       -26.7766
  26   2.0000      -0.911087       -24.7919
  27   2.0000      -0.909149       -24.7392
  28   2.0000      -0.867708       -23.6115
  29   2.0000      -0.851755       -23.1774
  30   2.0000      -0.843822       -22.9616
  31   2.0000      -0.811908       -22.0931
  32   2.0000      -0.785556       -21.3761
  33   2.0000      -0.772300       -21.0154
  34   2.0000      -0.714306       -19.4373
  35   2.0000      -0.699351       -19.0303
  36   2.0000      -0.688135       -18.7251
  37   2.0000      -0.655951       -17.8493
  38   2.0000      -0.635932       -17.3046
  39   2.0000      -0.619170       -16.8485
  40   2.0000      -0.594446       -16.1757
  41   2.0000      -0.569434       -15.4951
  42   2.0000      -0.560379       -15.2487
  43   2.0000      -0.553927       -15.0731
  44   2.0000      -0.548836       -14.9346
  45   2.0000      -0.525945       -14.3117
  46   2.0000      -0.517541       -14.0830
  47   2.0000      -0.505334       -13.7508
  48   2.0000      -0.500122       -13.6090
  49   2.0000      -0.490795       -13.3552
  50   2.0000      -0.485663       -13.2155
  51   2.0000      -0.478709       -13.0263
  52   2.0000      -0.469128       -12.7656
  53   2.0000      -0.465156       -12.6575
  54   2.0000      -0.457128       -12.4391
  55   2.0000      -0.451592       -12.2884
  56   2.0000      -0.450469       -12.2579
  57   2.0000      -0.440801       -11.9948
  58   2.0000      -0.438874       -11.9424
  59   2.0000      -0.425190       -11.5700
  60   2.0000      -0.421233       -11.4623
  61   2.0000      -0.419055       -11.4031
  62   2.0000      -0.411770       -11.2048
  63   2.0000      -0.343737        -9.3536
  64   2.0000      -0.328270        -8.9327
  65   2.0000      -0.316449        -8.6110
  66   2.0000      -0.308278        -8.3887
  67   0.0000       0.041504         1.1294
  68   0.0000       0.050022         1.3612
  69   0.0000       0.109019         2.9666
  70   0.0000       0.116876         3.1804
  71   0.0000       0.132071         3.5938

MULLIKEN ATOMIC CHARGES
-----------------------
   0 S :    0.109027
   1 C :   -0.141999
   2 C :   -0.077233
   3 C :    0.031278
   4 C :   -0.174105
   5 H :    0.003844
   6 C :    0.083944
   7 H :    0.029391
   8 H :    0.029473
   9 C :   -0.074635
  10 H :    0.017820
  11 H :    0.030595
  12 C :   -0.026942
  13 H :    0.037314
  14 H :    0.025139
  15 H :    0.023154
  16 S :    0.141636
  17 C :   -0.085562
  18 C :   -0.086787
  19 C :    0.010830
  20 C :   -0.205874
  21 H :    0.040568
  22 C :    0.099370
  23 H :    0.036970
  24 H :    0.019943
  25 C :   -0.110317
  26 H :    0.040680
  27 H :    0.026266
  28 C :   -0.041648
  29 H :    0.020631
  30 H :    0.021072
  31 H :    0.046085
  32 H :    0.049436
  33 H :    0.050635
Sum of atomic charges:   -0.0000000

LOEWDIN ATOMIC CHARGES
----------------------
   0 S :    0.382871
   1 C :   -0.187119
   2 C :   -0.074333
   3 C :   -0.057935
   4 C :   -0.201240
   5 H :    0.026495
   6 C :   -0.021637
   7 H :    0.032271
   8 H :    0.032881
   9 C :   -0.031967
  10 H :    0.016261
  11 H :    0.026690
  12 C :   -0.067500
  13 H :    0.028349
  14 H :    0.020493
  15 H :    0.028829
  16 S :    0.418929
  17 C :   -0.183095
  18 C :   -0.080151
  19 C :   -0.052574
  20 C :   -0.201675
  21 H :    0.042138
  22 C :   -0.026385
  23 H :    0.035086
  24 H :    0.024528
  25 C :   -0.044930
  26 H :    0.032033
  27 H :    0.021527
  28 C :   -0.068489
  29 H :    0.018716
  30 H :    0.024418
  31 H :    0.028712
  32 H :    0.029822
  33 H :    0.027981

  Mayer bond orders larger than 0.100000
B(  0-S ,  1-C ) :   1.1338 B(  0-S ,  4-C ) :   1.1364 B(  1-C ,  2-C ) :   1.6325
B(  1-C , 32-H ) :   0.9560 B(  2-C ,  3-C ) :   1.2298 B(  2-C ,  6-C ) :   1.0358
B(  3-C ,  4-C ) :   1.5985 B(  3-C ,  5-H ) :   0.9918 B(  4-C , 20-C ) :   1.0163
B(  6-C ,  7-H ) :   0.9277 B(  6-C ,  8-H ) :   0.9426 B(  6-C ,  9-C ) :   1.0577
B(  9-C , 10-H ) :   0.9543 B(  9-C , 11-H ) :   0.9553 B(  9-C , 12-C ) :   1.0802
B( 12-C , 13-H ) :   0.9741 B( 12-C , 14-H ) :   0.9760 B( 12-C , 15-H ) :   0.9723
B( 16-S , 17-C ) :   1.1643 B( 16-S , 20-C ) :   1.1640 B( 17-C , 18-C ) :   1.6131
B( 17-C , 20-C ) :   0.1153 B( 17-C , 33-H ) :   0.9602 B( 18-C , 19-C ) :   1.2583
B( 18-C , 21-H ) :   0.9800 B( 19-C , 20-C ) :   1.5736 B( 19-C , 22-C ) :   1.0313
B( 22-C , 23-H ) :   0.9393 B( 22-C , 24-H ) :   0.9269 B( 22-C , 25-C ) :   1.0776
B( 25-C , 26-H ) :   0.9523 B( 25-C , 27-H ) :   0.9521 B( 25-C , 28-C ) :   1.0858
B( 28-C , 29-H ) :   0.9722 B( 28-C , 30-H ) :   0.9682 B( 28-C , 31-H ) :   0.9725

Dispersion correction           -0.015423242
FINAL SINGLE POINT ENERGY     -1339.876671654359

DIPOLE MOMENT
-------------
                                X             Y             Z
Electronic contribution:    -12.71568      -5.73278      26.83050
Nuclear contribution   :     12.91439       5.72087     -27.60124
                        -----------------------------------------
Total Dipole Moment    :      0.19871      -0.01190      -0.77074
                        -----------------------------------------
Magnitude (a.u.)       :      0.79604
Magnitude (Debye)      :      2.02336

Rotational constants in cm-1:     0.018366     0.009509     0.007224
Rotational constants in MHz :   550.605259   285.076053   216.576899

                             ****ORCA TERMINATED NORMALLY****
TOTAL RUN TIME: 0 days 0 hours 0 minutes 31 seconds 952 msec
