                         Program Version 4.2.1 -  RELEASE  -
|  1> ! wB97X-D3 SP def2-SVP
|  2> %pal
|  3> nprocs 16
|  4> end
|  5>
|  6> * xyz 0 1
|  7> S 	 7.87124 	 21.3091 	 55.2364
|  8> C 	 9.02775 	 22.6134 	 54.967
|  9> C 	 9.14453 	 23.3594 	 56.0957
| 10> C 	 8.27852 	 22.9202 	 57.1399
| 11> C 	 7.60864 	 21.7635 	 56.8481
| 12> H 	 8.12221 	 23.3796 	 58.1334
| 13> C 	 10.2044 	 24.4132 	 56.3672
| 14> H 	 11.0807 	 24.092 	 55.7472
| 15> H 	 10.604 	 24.4692 	 57.3895
| 16> C 	 10.0178 	 25.8101 	 55.8282
| 17> H 	 10.9817 	 26.3332 	 55.7243
| 18> H 	 9.56788 	 25.6694 	 54.805
| 19> C 	 9.11863 	 26.6377 	 56.7645
| 20> H 	 8.67524 	 27.5139 	 56.3486
| 21> H 	 8.22064 	 26.0187 	 56.9577
| 22> H 	 9.5496 	 26.6893 	 57.7606
| 23> S 	 5.16911 	 20.636 	 57.0106
| 24> C 	 4.5856 	 20.0479 	 58.6062
| 25> C 	 5.53438 	 20.1719 	 59.6565
| 26> C 	 6.75599 	 20.7091 	 59.1175
| 27> C 	 6.7087 	 21.0351 	 57.721
| 28> H 	 5.39787 	 19.9162 	 60.6798
| 29> C 	 7.93185 	 20.9667 	 60.0044
| 30> H 	 7.66986 	 20.8028 	 61.0489
| 31> H 	 8.26692 	 21.9913 	 59.912
| 32> C 	 9.10436 	 19.9983 	 59.6099
| 33> H 	 9.26293 	 19.9729 	 58.5246
| 34> H 	 8.7981 	 18.9835 	 59.7726
| 35> C 	 10.3595 	 20.2976 	 60.3944
| 36> H 	 11.1287 	 19.5639 	 60.2466
| 37> H 	 9.98417 	 20.3422 	 61.4055
| 38> H 	 10.7918 	 21.2019 	 60.0917
| 39> H 	 9.61114 	 22.6212 	 54.1072
| 40> H 	 3.61421 	 19.6387 	 58.7599
| 41> *
| 42>
| 43>                          ****END OF INPUT****

CARTESIAN COORDINATES (ANGSTROEM)
---------------------------------
  S      7.871240   21.309100   55.236400
  C      9.027750   22.613400   54.967000
  C      9.144530   23.359400   56.095700
  C      8.278520   22.920200   57.139900
  C      7.608640   21.763500   56.848100
  H      8.122210   23.379600   58.133400
  C     10.204400   24.413200   56.367200
  H     11.080700   24.092000   55.747200
  H     10.604000   24.469200   57.389500
  C     10.017800   25.810100   55.828200
  H     10.981700   26.333200   55.724300
  H      9.567880   25.669400   54.805000
  C      9.118630   26.637700   56.764500
  H      8.675240   27.513900   56.348600
  H      8.220640   26.018700   56.957700
  H      9.549600   26.689300   57.760600
  S      5.169110   20.636000   57.010600
  C      4.585600   20.047900   58.606200
  C      5.534380   20.171900   59.656500
  C      6.755990   20.709100   59.117500
  C      6.708700   21.035100   57.721000
  H      5.397870   19.916200   60.679800
  C      7.931850   20.966700   60.004400
  H      7.669860   20.802800   61.048900
  H      8.266920   21.991300   59.912000
  C      9.104360   19.998300   59.609900
  H      9.262930   19.972900   58.524600
  H      8.798100   18.983500   59.772600
  C     10.359500   20.297600   60.394400
  H     11.128700   19.563900   60.246600
  H      9.984170   20.342200   61.405500
  H     10.791800   21.201900   60.091700
  H      9.611140   22.621200   54.107200
  H      3.614210   19.638700   58.759900

 Total Charge           Charge          ....    0
 Multiplicity           Mult            ....    1
 Number of Electrons    NEL             ....  134
 Basis Dimension        Dim             ....  322

ORBITAL ENERGIES
----------------

  NO   OCC          E(Eh)            E(eV)
   0   2.0000     -88.971503     -2421.0377
   1   2.0000     -88.964679     -2420.8520
   2   2.0000     -10.328553      -281.0542
   3   2.0000     -10.324990      -280.9573
   4   2.0000     -10.324750      -280.9507
   5   2.0000     -10.311315      -280.5851
   6   2.0000     -10.308042      -280.4961
   7   2.0000     -10.303571      -280.3744
   8   2.0000     -10.302170      -280.3363
   9   2.0000     -10.293153      -280.0909
  10   2.0000     -10.291485      -280.0455
  11   2.0000     -10.290765      -280.0259
  12   2.0000     -10.288755      -279.9712
  13   2.0000     -10.278558      -279.6938
  14   2.0000     -10.272660      -279.5333
  15   2.0000     -10.266702      -279.3712
  16   2.0000      -8.085290      -220.0119
  17   2.0000      -8.080648      -219.8856
  18   2.0000      -6.043733      -164.4583
  19   2.0000      -6.039921      -164.3546
  20   2.0000      -6.039018      -164.3300
  21   2.0000      -6.036188      -164.2530
  22   2.0000      -6.034974      -164.2200
  23   2.0000      -6.031475      -164.1248
  24   2.0000      -1.013183       -27.5701
  25   2.0000      -0.980416       -26.6785
  26   2.0000      -0.916197       -24.9310
  27   2.0000      -0.908728       -24.7278
  28   2.0000      -0.872529       -23.7427
  29   2.0000      -0.852909       -23.2088
  30   2.0000      -0.845532       -23.0081
  31   2.0000      -0.815283       -22.1850
  32   2.0000      -0.783953       -21.3324
  33   2.0000      -0.767995       -20.8982
  34   2.0000      -0.707157       -19.2427
  35   2.0000      -0.699678       -19.0392
  36   2.0000      -0.691413       -18.8143
  37   2.0000      -0.670775       -18.2527
  38   2.0000      -0.648355       -17.6426
  39   2.0000      -0.615094       -16.7376
  40   2.0000      -0.595781       -16.2120
  41   2.0000      -0.579124       -15.7588
  42   2.0000      -0.565862       -15.3979
  43   2.0000      -0.546275       -14.8649
  44   2.0000      -0.544191       -14.8082
  45   2.0000      -0.528993       -14.3946
  46   2.0000      -0.520548       -14.1648
  47   2.0000      -0.510985       -13.9046
  48   2.0000      -0.504208       -13.7202
  49   2.0000      -0.501836       -13.6557
  50   2.0000      -0.494793       -13.4640
  51   2.0000      -0.484288       -13.1782
  52   2.0000      -0.476920       -12.9776
  53   2.0000      -0.467655       -12.7255
  54   2.0000      -0.457225       -12.4417
  55   2.0000      -0.446719       -12.1558
  56   2.0000      -0.438153       -11.9228
  57   2.0000      -0.433718       -11.8021
  58   2.0000      -0.431895       -11.7525
  59   2.0000      -0.424460       -11.5502
  60   2.0000      -0.420776       -11.4499
  61   2.0000      -0.416452       -11.3322
  62   2.0000      -0.410127       -11.1601
  63   2.0000      -0.350166        -9.5285
  64   2.0000      -0.332541        -9.0489
  65   2.0000      -0.331208        -9.0126
  66   2.0000      -0.286893        -7.8068
  67   0.0000       0.024634         0.6703
  68   0.0000       0.068225         1.8565
  69   0.0000       0.098670         2.6850
  70   0.0000       0.110291         3.0012
  71   0.0000       0.141706         3.8560

MULLIKEN ATOMIC CHARGES
-----------------------
   0 S :    0.099775
   1 C :   -0.106711
   2 C :   -0.031935
   3 C :    0.000244
   4 C :   -0.141136
   5 H :    0.024087
   6 C :    0.018127
   7 H :    0.025899
   8 H :    0.030790
   9 C :   -0.078341
  10 H :    0.036969
  11 H :    0.031669
  12 C :   -0.028154
  13 H :    0.034167
  14 H :    0.014067
  15 H :    0.022655
  16 S :    0.111441
  17 C :   -0.088467
  18 C :   -0.009982
  19 C :   -0.058265
  20 C :   -0.140912
  21 H :    0.015447
  22 C :    0.072431
  23 H :    0.013704
  24 H :    0.019431
  25 C :   -0.099124
  26 H :    0.036263
  27 H :    0.014052
  28 C :    0.016356
  29 H :    0.028939
  30 H :    0.021899
  31 H :    0.016273
  32 H :    0.028184
  33 H :    0.050157
Sum of atomic charges:    0.0000000

LOEWDIN ATOMIC CHARGES
----------------------
   0 S :    0.417877
   1 C :   -0.178541
   2 C :   -0.059679
   3 C :   -0.073493
   4 C :   -0.212068
   5 H :    0.035241
   6 C :   -0.038590
   7 H :    0.039125
   8 H :    0.029753
   9 C :   -0.043765
  10 H :    0.023592
  11 H :    0.028905
  12 C :   -0.072972
  13 H :    0.022358
  14 H :    0.027873
  15 H :    0.024290
  16 S :    0.404987
  17 C :   -0.167643
  18 C :   -0.058760
  19 C :   -0.048728
  20 C :   -0.207250
  21 H :    0.030636
  22 C :   -0.029666
  23 H :    0.026942
  24 H :    0.024967
  25 C :   -0.036060
  26 H :    0.024406
  27 H :    0.019343
  28 C :   -0.056052
  29 H :    0.025331
  30 H :    0.025277
  31 H :    0.016945
  32 H :    0.015507
  33 H :    0.019912

  Mayer bond orders larger than 0.100000
B(  0-S ,  1-C ) :   1.1282 B(  0-S ,  4-C ) :   1.1667 B(  1-C ,  2-C ) :   1.6116
B(  1-C , 32-H ) :   0.9824 B(  2-C ,  3-C ) :   1.2265 B(  2-C ,  6-C ) :   1.0129
B(  3-C ,  4-C ) :   1.5730 B(  3-C ,  5-H ) :   0.9916 B(  4-C , 20-C ) :   1.0326
B(  6-C ,  7-H ) :   0.9374 B(  6-C ,  8-H ) :   0.9513 B(  6-C ,  9-C ) :   1.0722
B(  9-C , 10-H ) :   0.9575 B(  9-C , 11-H ) :   0.9521 B(  9-C , 12-C ) :   1.0772
B( 12-C , 13-H ) :   0.9738 B( 12-C , 14-H ) :   0.9729 B( 12-C , 15-H ) :   0.9720
B( 16-S , 17-C ) :   1.1639 B( 16-S , 20-C ) :   1.1486 B( 17-C , 18-C ) :   1.5716
B( 17-C , 20-C ) :   0.1112 B( 17-C , 33-H ) :   0.9709 B( 18-C , 19-C ) :   1.2758
B( 18-C , 21-H ) :   0.9920 B( 19-C , 20-C ) :   1.5512 B( 19-C , 22-C ) :   1.0582
B( 22-C , 23-H ) :   0.9294 B( 22-C , 24-H ) :   0.9360 B( 22-C , 25-C ) :   1.0484
B( 25-C , 26-H ) :   0.9613 B( 25-C , 27-H ) :   0.9524 B( 25-C , 28-C ) :   1.0796
B( 28-C , 29-H ) :   0.9718 B( 28-C , 30-H ) :   0.9713 B( 28-C , 31-H ) :   0.9747

Dispersion correction           -0.014527082
FINAL SINGLE POINT ENERGY     -1339.873640746322

DIPOLE MOMENT
-------------
                                X             Y             Z
Electronic contribution:    -19.26827     -13.60206     -13.04504
Nuclear contribution   :     19.62344      13.76156      13.49174
                        -----------------------------------------
Total Dipole Moment    :      0.35517       0.15950       0.44670
                        -----------------------------------------
Magnitude (a.u.)       :      0.59256
Magnitude (Debye)      :      1.50616

Rotational constants in cm-1:     0.017968     0.008946     0.007394
Rotational constants in MHz :   538.654768   268.180363   221.676266

                             ****ORCA TERMINATED NORMALLY****
TOTAL RUN TIME: 0 days 0 hours 0 minutes 37 seconds 8 msec
