                         Program Version 4.2.1 -  RELEASE  -
|  1> ! wB97X-D3 SP def2-SVP
|  2> %pal
|  3> nprocs 16
|  4> end
|  5>
|  6> * xyz 0 1
|  7> S 	 -3.30479 	 49.2108 	 47.8455
|  8> C 	 -2.7061 	 50.8307 	 47.7022
|  9> C 	 -3.73689 	 51.7254 	 47.3155
| 10> C 	 -4.97678 	 51.056 	 47.1405
| 11> C 	 -4.95083 	 49.7004 	 47.5819
| 12> H 	 -5.87924 	 51.4675 	 46.8227
| 13> C 	 -3.39055 	 53.1304 	 46.9613
| 14> H 	 -4.10564 	 53.3548 	 46.1936
| 15> H 	 -2.49527 	 53.1806 	 46.3606
| 16> C 	 -3.42213 	 54.1752 	 48.1257
| 17> H 	 -2.67435 	 53.8747 	 48.8809
| 18> H 	 -3.22156 	 55.1938 	 47.7577
| 19> C 	 -4.82651 	 54.0203 	 48.8081
| 20> H 	 -4.9584 	 54.8352 	 49.531
| 21> H 	 -5.71943 	 54.0559 	 48.1531
| 22> H 	 -4.73689 	 53.0574 	 49.3041
| 23> S 	 -5.65903 	 47.1505 	 46.7597
| 24> C 	 -7.3459 	 46.7775 	 46.5525
| 25> C 	 -8.12852 	 47.6812 	 47.2551
| 26> C 	 -7.41666 	 48.8249 	 47.7581
| 27> C 	 -6.02798 	 48.7116 	 47.5626
| 28> H 	 -9.22607 	 47.5312 	 47.1686
| 29> C 	 -8.1153 	 50.0554 	 48.3678
| 30> H 	 -7.44457 	 50.8574 	 48.3984
| 31> H 	 -8.23855 	 49.8311 	 49.4271
| 32> C 	 -9.42901 	 50.5785 	 47.7798
| 33> H 	 -9.78673 	 51.5855 	 48.0956
| 34> H 	 -10.2057 	 49.7637 	 47.9323
| 35> C 	 -9.23363 	 50.5876 	 46.2919
| 36> H 	 -10.2187 	 50.7696 	 45.7856
| 37> H 	 -8.93711 	 49.7081 	 45.7895
| 38> H 	 -8.44149 	 51.3464 	 46.1625
| 39> H 	 -1.69189 	 51.0567 	 47.8197
| 40> H 	 -7.75367 	 46.0218 	 45.8965
| 41> *
| 42>
| 43>                          ****END OF INPUT****

CARTESIAN COORDINATES (ANGSTROEM)
---------------------------------
  S     -3.304790   49.210800   47.845500
  C     -2.706100   50.830700   47.702200
  C     -3.736890   51.725400   47.315500
  C     -4.976780   51.056000   47.140500
  C     -4.950830   49.700400   47.581900
  H     -5.879240   51.467500   46.822700
  C     -3.390550   53.130400   46.961300
  H     -4.105640   53.354800   46.193600
  H     -2.495270   53.180600   46.360600
  C     -3.422130   54.175200   48.125700
  H     -2.674350   53.874700   48.880900
  H     -3.221560   55.193800   47.757700
  C     -4.826510   54.020300   48.808100
  H     -4.958400   54.835200   49.531000
  H     -5.719430   54.055900   48.153100
  H     -4.736890   53.057400   49.304100
  S     -5.659030   47.150500   46.759700
  C     -7.345900   46.777500   46.552500
  C     -8.128520   47.681200   47.255100
  C     -7.416660   48.824900   47.758100
  C     -6.027980   48.711600   47.562600
  H     -9.226070   47.531200   47.168600
  C     -8.115300   50.055400   48.367800
  H     -7.444570   50.857400   48.398400
  H     -8.238550   49.831100   49.427100
  C     -9.429010   50.578500   47.779800
  H     -9.786730   51.585500   48.095600
  H    -10.205700   49.763700   47.932300
  C     -9.233630   50.587600   46.291900
  H    -10.218700   50.769600   45.785600
  H     -8.937110   49.708100   45.789500
  H     -8.441490   51.346400   46.162500
  H     -1.691890   51.056700   47.819700
  H     -7.753670   46.021800   45.896500

 Total Charge           Charge          ....    0
 Multiplicity           Mult            ....    1
 Number of Electrons    NEL             ....  134
 Basis Dimension        Dim             ....  322

ORBITAL ENERGIES
----------------

  NO   OCC          E(Eh)            E(eV)
   0   2.0000     -88.967791     -2420.9367
   1   2.0000     -88.965611     -2420.8774
   2   2.0000     -10.334852      -281.2256
   3   2.0000     -10.334296      -281.2105
   4   2.0000     -10.321725      -280.8684
   5   2.0000     -10.315836      -280.7082
   6   2.0000     -10.310976      -280.5759
   7   2.0000     -10.303478      -280.3719
   8   2.0000     -10.301143      -280.3084
   9   2.0000     -10.296022      -280.1690
  10   2.0000     -10.294775      -280.1351
  11   2.0000     -10.294673      -280.1323
  12   2.0000     -10.289387      -279.9885
  13   2.0000     -10.286474      -279.9092
  14   2.0000     -10.279060      -279.7074
  15   2.0000     -10.273055      -279.5440
  16   2.0000      -8.082863      -219.9459
  17   2.0000      -8.080141      -219.8718
  18   2.0000      -6.041212      -164.3897
  19   2.0000      -6.038721      -164.3220
  20   2.0000      -6.037218      -164.2811
  21   2.0000      -6.034698      -164.2125
  22   2.0000      -6.033916      -164.1912
  23   2.0000      -6.030794      -164.1063
  24   2.0000      -1.004664       -27.3383
  25   2.0000      -0.982465       -26.7342
  26   2.0000      -0.917392       -24.9635
  27   2.0000      -0.911233       -24.7959
  28   2.0000      -0.866745       -23.5853
  29   2.0000      -0.850333       -23.1387
  30   2.0000      -0.842038       -22.9130
  31   2.0000      -0.814271       -22.1574
  32   2.0000      -0.785488       -21.3742
  33   2.0000      -0.770695       -20.9717
  34   2.0000      -0.705133       -19.1876
  35   2.0000      -0.703073       -19.1316
  36   2.0000      -0.693079       -18.8596
  37   2.0000      -0.658167       -17.9096
  38   2.0000      -0.644568       -17.5396
  39   2.0000      -0.617067       -16.7913
  40   2.0000      -0.598686       -16.2911
  41   2.0000      -0.575786       -15.6679
  42   2.0000      -0.562408       -15.3039
  43   2.0000      -0.549363       -14.9489
  44   2.0000      -0.545241       -14.8368
  45   2.0000      -0.541496       -14.7349
  46   2.0000      -0.517752       -14.0888
  47   2.0000      -0.511368       -13.9150
  48   2.0000      -0.503149       -13.6914
  49   2.0000      -0.500631       -13.6229
  50   2.0000      -0.490960       -13.3597
  51   2.0000      -0.484427       -13.1819
  52   2.0000      -0.473636       -12.8883
  53   2.0000      -0.465331       -12.6623
  54   2.0000      -0.456217       -12.4143
  55   2.0000      -0.448420       -12.2021
  56   2.0000      -0.446640       -12.1537
  57   2.0000      -0.436264       -11.8714
  58   2.0000      -0.425758       -11.5855
  59   2.0000      -0.422057       -11.4848
  60   2.0000      -0.419841       -11.4245
  61   2.0000      -0.411072       -11.1858
  62   2.0000      -0.408638       -11.1196
  63   2.0000      -0.352247        -9.5851
  64   2.0000      -0.334628        -9.1057
  65   2.0000      -0.328575        -8.9410
  66   2.0000      -0.281042        -7.6475
  67   0.0000       0.020530         0.5587
  68   0.0000       0.064071         1.7435
  69   0.0000       0.104108         2.8329
  70   0.0000       0.114629         3.1192
  71   0.0000       0.127384         3.4663

MULLIKEN ATOMIC CHARGES
-----------------------
   0 S :    0.110489
   1 C :   -0.095736
   2 C :   -0.121668
   3 C :    0.069537
   4 C :   -0.162074
   5 H :   -0.024610
   6 C :    0.067833
   7 H :    0.010297
   8 H :    0.023786
   9 C :   -0.053058
  10 H :    0.037598
  11 H :    0.039720
  12 C :   -0.089261
  13 H :    0.035485
  14 H :    0.034772
  15 H :    0.058628
  16 S :    0.091987
  17 C :   -0.101750
  18 C :   -0.046524
  19 C :   -0.079691
  20 C :   -0.111535
  21 H :    0.035277
  22 C :    0.105699
  23 H :   -0.003994
  24 H :    0.040490
  25 C :   -0.080992
  26 H :    0.053173
  27 H :    0.029755
  28 C :   -0.062337
  29 H :    0.032381
  30 H :    0.032546
  31 H :    0.026314
  32 H :    0.033062
  33 H :    0.064402
Sum of atomic charges:   -0.0000000

LOEWDIN ATOMIC CHARGES
----------------------
   0 S :    0.425717
   1 C :   -0.195489
   2 C :   -0.061712
   3 C :   -0.056018
   4 C :   -0.194985
   5 H :    0.015299
   6 C :   -0.038721
   7 H :    0.028263
   8 H :    0.028473
   9 C :   -0.031564
  10 H :    0.027719
  11 H :    0.023314
  12 C :   -0.069858
  13 H :    0.024187
  14 H :    0.023075
  15 H :    0.030586
  16 S :    0.387875
  17 C :   -0.182206
  18 C :   -0.079988
  19 C :   -0.045104
  20 C :   -0.188700
  21 H :    0.037170
  22 C :   -0.032159
  23 H :    0.019637
  24 H :    0.038067
  25 C :   -0.043814
  26 H :    0.036399
  27 H :    0.024548
  28 C :   -0.070107
  29 H :    0.028860
  30 H :    0.018270
  31 H :    0.024130
  32 H :    0.015471
  33 H :    0.033364

  Mayer bond orders larger than 0.100000
B(  0-S ,  1-C ) :   1.1647 B(  0-S ,  4-C ) :   1.1815 B(  1-C ,  2-C ) :   1.5410
B(  1-C ,  4-C ) :   0.1103 B(  1-C , 32-H ) :   0.9807 B(  2-C ,  3-C ) :   1.2873
B(  2-C ,  6-C ) :   1.0114 B(  3-C ,  4-C ) :   1.5014 B(  3-C ,  5-H ) :   0.9979
B(  4-C , 20-C ) :   1.0522 B(  6-C ,  7-H ) :   0.9414 B(  6-C ,  8-H ) :   0.9465
B(  6-C ,  9-C ) :   1.0546 B(  9-C , 10-H ) :   0.9595 B(  9-C , 11-H ) :   0.9612
B(  9-C , 12-C ) :   1.0625 B( 12-C , 13-H ) :   0.9754 B( 12-C , 14-H ) :   0.9796
B( 12-C , 15-H ) :   0.9710 B( 16-S , 17-C ) :   1.1619 B( 16-S , 20-C ) :   1.1226
B( 17-C , 18-C ) :   1.6150 B( 17-C , 33-H ) :   0.9673 B( 18-C , 19-C ) :   1.2270
B( 18-C , 21-H ) :   0.9820 B( 19-C , 20-C ) :   1.6059 B( 19-C , 22-C ) :   1.0263
B( 22-C , 23-H ) :   0.9345 B( 22-C , 24-H ) :   0.9258 B( 22-C , 25-C ) :   1.0653
B( 25-C , 26-H ) :   0.9580 B( 25-C , 27-H ) :   0.9478 B( 25-C , 28-C ) :   1.0822
B( 28-C , 29-H ) :   0.9705 B( 28-C , 30-H ) :   0.9668 B( 28-C , 31-H ) :   0.9738

Dispersion correction           -0.015411430
FINAL SINGLE POINT ENERGY     -1339.858557881918

DIPOLE MOMENT
-------------
                                X             Y             Z
Electronic contribution:     13.20158     -25.03428      -1.32446
Nuclear contribution   :    -13.59931      25.53407       1.11557
                        -----------------------------------------
Total Dipole Moment    :     -0.39773       0.49978      -0.20889
                        -----------------------------------------
Magnitude (a.u.)       :      0.67201
Magnitude (Debye)      :      1.70812

Rotational constants in cm-1:     0.019266     0.009704     0.006941
Rotational constants in MHz :   577.589739   290.909257   208.075780

                             ****ORCA TERMINATED NORMALLY****
TOTAL RUN TIME: 0 days 0 hours 0 minutes 35 seconds 941 msec
