                         Program Version 4.2.1 -  RELEASE  -
|  1> ! wB97X-D3 SP def2-SVP
|  2> %pal
|  3> nprocs 16
|  4> end
|  5>
|  6> * xyz 0 1
|  7> S 	 -49.8736 	 59.1576 	 132.553
|  8> C 	 -49.2369 	 58.1821 	 131.249
|  9> C 	 -49.3192 	 58.8204 	 129.982
| 10> C 	 -49.9617 	 60.0837 	 130.122
| 11> C 	 -50.3214 	 60.4515 	 131.431
| 12> H 	 -50.1918 	 60.7263 	 129.328
| 13> C 	 -48.8265 	 58.211 	 128.747
| 14> H 	 -49.5164 	 58.371 	 127.939
| 15> H 	 -48.7008 	 57.1192 	 128.905
| 16> C 	 -47.5135 	 58.8457 	 128.349
| 17> H 	 -47.6761 	 59.9201 	 128.227
| 18> H 	 -46.8022 	 58.6529 	 129.177
| 19> C 	 -47.0066 	 58.3047 	 126.975
| 20> H 	 -46.0272 	 58.7747 	 126.725
| 21> H 	 -46.82 	 57.1994 	 126.925
| 22> H 	 -47.7098 	 58.6174 	 126.281
| 23> S 	 -52.2867 	 61.6978 	 132.947
| 24> C 	 -52.5605 	 63.3894 	 132.643
| 25> C 	 -51.5221 	 63.9774 	 131.899
| 26> C 	 -50.5007 	 62.9947 	 131.575
| 27> C 	 -50.8755 	 61.7354 	 131.894
| 28> H 	 -51.616 	 64.9955 	 131.688
| 29> C 	 -49.3977 	 63.3476 	 130.678
| 30> H 	 -50.0212 	 63.7574 	 129.864
| 31> H 	 -48.9291 	 62.4225 	 130.268
| 32> C 	 -48.4824 	 64.3884 	 131.351
| 33> H 	 -49.056 	 65.2385 	 131.638
| 34> H 	 -47.6589 	 64.7985 	 130.677
| 35> C 	 -47.7662 	 63.7947 	 132.562
| 36> H 	 -47.1466 	 62.9666 	 132.151
| 37> H 	 -48.4785 	 63.4816 	 133.35
| 38> H 	 -47.1674 	 64.5377 	 133.087
| 39> H 	 -48.8554 	 57.2161 	 131.327
| 40> H 	 -53.5709 	 63.7817 	 132.915
| 41> *
| 42>
| 43>                          ****END OF INPUT****

CARTESIAN COORDINATES (ANGSTROEM)
---------------------------------
  S    -49.873600   59.157600  132.553000
  C    -49.236900   58.182100  131.249000
  C    -49.319200   58.820400  129.982000
  C    -49.961700   60.083700  130.122000
  C    -50.321400   60.451500  131.431000
  H    -50.191800   60.726300  129.328000
  C    -48.826500   58.211000  128.747000
  H    -49.516400   58.371000  127.939000
  H    -48.700800   57.119200  128.905000
  C    -47.513500   58.845700  128.349000
  H    -47.676100   59.920100  128.227000
  H    -46.802200   58.652900  129.177000
  C    -47.006600   58.304700  126.975000
  H    -46.027200   58.774700  126.725000
  H    -46.820000   57.199400  126.925000
  H    -47.709800   58.617400  126.281000
  S    -52.286700   61.697800  132.947000
  C    -52.560500   63.389400  132.643000
  C    -51.522100   63.977400  131.899000
  C    -50.500700   62.994700  131.575000
  C    -50.875500   61.735400  131.894000
  H    -51.616000   64.995500  131.688000
  C    -49.397700   63.347600  130.678000
  H    -50.021200   63.757400  129.864000
  H    -48.929100   62.422500  130.268000
  C    -48.482400   64.388400  131.351000
  H    -49.056000   65.238500  131.638000
  H    -47.658900   64.798500  130.677000
  C    -47.766200   63.794700  132.562000
  H    -47.146600   62.966600  132.151000
  H    -48.478500   63.481600  133.350000
  H    -47.167400   64.537700  133.087000
  H    -48.855400   57.216100  131.327000
  H    -53.570900   63.781700  132.915000

 Total Charge           Charge          ....    0
 Multiplicity           Mult            ....    1
 Number of Electrons    NEL             ....  134
 Basis Dimension        Dim             ....  322

ORBITAL ENERGIES
----------------

  NO   OCC          E(Eh)            E(eV)
   0   2.0000     -88.967783     -2420.9365
   1   2.0000     -88.960539     -2420.7393
   2   2.0000     -10.333014      -281.1756
   3   2.0000     -10.324932      -280.9557
   4   2.0000     -10.322155      -280.8801
   5   2.0000     -10.310716      -280.5689
   6   2.0000     -10.301465      -280.3171
   7   2.0000     -10.300422      -280.2887
   8   2.0000     -10.298082      -280.2250
   9   2.0000     -10.293338      -280.0960
  10   2.0000     -10.290414      -280.0164
  11   2.0000     -10.289303      -279.9862
  12   2.0000     -10.288645      -279.9683
  13   2.0000     -10.288557      -279.9659
  14   2.0000     -10.281082      -279.7625
  15   2.0000     -10.275049      -279.5983
  16   2.0000      -8.081878      -219.9191
  17   2.0000      -8.076034      -219.7601
  18   2.0000      -6.040377      -164.3670
  19   2.0000      -6.036390      -164.2585
  20   2.0000      -6.034451      -164.2057
  21   2.0000      -6.032788      -164.1605
  22   2.0000      -6.030572      -164.1002
  23   2.0000      -6.026710      -163.9951
  24   2.0000      -1.005129       -27.3509
  25   2.0000      -0.981862       -26.7178
  26   2.0000      -0.919824       -25.0297
  27   2.0000      -0.915123       -24.9018
  28   2.0000      -0.865156       -23.5421
  29   2.0000      -0.851837       -23.1797
  30   2.0000      -0.844834       -22.9891
  31   2.0000      -0.814099       -22.1528
  32   2.0000      -0.782204       -21.2848
  33   2.0000      -0.769709       -20.9448
  34   2.0000      -0.705078       -19.1861
  35   2.0000      -0.695807       -18.9339
  36   2.0000      -0.694086       -18.8870
  37   2.0000      -0.662231       -18.0202
  38   2.0000      -0.644389       -17.5347
  39   2.0000      -0.623284       -16.9604
  40   2.0000      -0.595683       -16.2094
  41   2.0000      -0.579819       -15.7777
  42   2.0000      -0.565017       -15.3749
  43   2.0000      -0.558100       -15.1867
  44   2.0000      -0.542568       -14.7640
  45   2.0000      -0.527576       -14.3561
  46   2.0000      -0.517830       -14.0909
  47   2.0000      -0.509653       -13.8684
  48   2.0000      -0.506925       -13.7941
  49   2.0000      -0.496168       -13.5014
  50   2.0000      -0.484133       -13.1739
  51   2.0000      -0.471276       -12.8241
  52   2.0000      -0.470146       -12.7933
  53   2.0000      -0.463416       -12.6102
  54   2.0000      -0.459069       -12.4919
  55   2.0000      -0.446006       -12.1365
  56   2.0000      -0.440427       -11.9846
  57   2.0000      -0.436227       -11.8703
  58   2.0000      -0.434780       -11.8310
  59   2.0000      -0.430520       -11.7150
  60   2.0000      -0.426774       -11.6131
  61   2.0000      -0.422534       -11.4977
  62   2.0000      -0.412274       -11.2185
  63   2.0000      -0.344057        -9.3623
  64   2.0000      -0.329995        -8.9796
  65   2.0000      -0.326663        -8.8889
  66   2.0000      -0.287795        -7.8313
  67   0.0000       0.030990         0.8433
  68   0.0000       0.064441         1.7535
  69   0.0000       0.110841         3.0161
  70   0.0000       0.116404         3.1675
  71   0.0000       0.129271         3.5176

MULLIKEN ATOMIC CHARGES
-----------------------
   0 S :    0.116669
   1 C :   -0.090340
   2 C :   -0.100205
   3 C :    0.039799
   4 C :   -0.149030
   5 H :   -0.007916
   6 C :    0.085681
   7 H :    0.016853
   8 H :    0.025577
   9 C :   -0.112546
  10 H :    0.032126
  11 H :    0.034936
  12 C :   -0.027566
  13 H :    0.037823
  14 H :    0.040633
  15 H :    0.018877
  16 S :    0.094930
  17 C :   -0.117319
  18 C :   -0.025844
  19 C :   -0.039463
  20 C :   -0.155154
  21 H :    0.011467
  22 C :    0.048386
  23 H :    0.040815
  24 H :    0.036686
  25 C :   -0.070490
  26 H :    0.018081
  27 H :    0.038227
  28 C :   -0.066896
  29 H :    0.045765
  30 H :    0.048512
  31 H :    0.031102
  32 H :    0.019424
  33 H :    0.080398
Sum of atomic charges:   -0.0000000

LOEWDIN ATOMIC CHARGES
----------------------
   0 S :    0.403899
   1 C :   -0.193760
   2 C :   -0.056114
   3 C :   -0.060655
   4 C :   -0.184204
   5 H :    0.019907
   6 C :   -0.035804
   7 H :    0.027435
   8 H :    0.034738
   9 C :   -0.037145
  10 H :    0.024473
  11 H :    0.025933
  12 C :   -0.064733
  13 H :    0.030733
  14 H :    0.029936
  15 H :    0.014007
  16 S :    0.389447
  17 C :   -0.180445
  18 C :   -0.065583
  19 C :   -0.051701
  20 C :   -0.201924
  21 H :    0.023773
  22 C :   -0.038787
  23 H :    0.040208
  24 H :    0.033769
  25 C :   -0.041713
  26 H :    0.016302
  27 H :    0.030486
  28 C :   -0.068074
  29 H :    0.032304
  30 H :    0.029967
  31 H :    0.024169
  32 H :    0.013135
  33 H :    0.036021

  Mayer bond orders larger than 0.100000
B(  0-S ,  1-C ) :   1.1481 B(  0-S ,  4-C ) :   1.1578 B(  1-C ,  2-C ) :   1.5800
B(  1-C ,  4-C ) :   0.1076 B(  1-C , 32-H ) :   0.9711 B(  2-C ,  3-C ) :   1.2576
B(  2-C ,  6-C ) :   1.0485 B(  3-C ,  4-C ) :   1.5504 B(  3-C ,  5-H ) :   1.0000
B(  4-C , 20-C ) :   1.0300 B(  6-C ,  7-H ) :   0.9314 B(  6-C ,  8-H ) :   0.9340
B(  6-C ,  9-C ) :   1.0603 B(  9-C , 10-H ) :   0.9578 B(  9-C , 11-H ) :   0.9556
B(  9-C , 12-C ) :   1.0755 B( 12-C , 13-H ) :   0.9744 B( 12-C , 14-H ) :   0.9758
B( 12-C , 15-H ) :   0.9738 B( 16-S , 17-C ) :   1.1617 B( 16-S , 20-C ) :   1.1181
B( 17-C , 18-C ) :   1.6241 B( 17-C , 33-H ) :   0.9630 B( 18-C , 19-C ) :   1.1699
B( 18-C , 21-H ) :   1.0033 B( 19-C , 20-C ) :   1.6245 B( 19-C , 22-C ) :   1.0293
B( 22-C , 23-H ) :   0.9352 B( 22-C , 24-H ) :   0.9400 B( 22-C , 25-C ) :   1.0544
B( 25-C , 26-H ) :   0.9560 B( 25-C , 27-H ) :   0.9576 B( 25-C , 28-C ) :   1.0774
B( 28-C , 29-H ) :   0.9760 B( 28-C , 30-H ) :   0.9712 B( 28-C , 31-H ) :   0.9727

Dispersion correction           -0.014564262
FINAL SINGLE POINT ENERGY     -1339.876396930345

DIPOLE MOMENT
-------------
                                X             Y             Z
Electronic contribution:    -20.03844      -4.14262      18.59969
Nuclear contribution   :     20.24043       4.44379     -19.23224
                        -----------------------------------------
Total Dipole Moment    :      0.20199       0.30117      -0.63255
                        -----------------------------------------
Magnitude (a.u.)       :      0.72913
Magnitude (Debye)      :      1.85330

Rotational constants in cm-1:     0.019938     0.008437     0.006929
Rotational constants in MHz :   597.733123   252.945983   207.716051

                             ****ORCA TERMINATED NORMALLY****
TOTAL RUN TIME: 0 days 0 hours 0 minutes 37 seconds 143 msec
