                         Program Version 4.2.1 -  RELEASE  -
|  1> ! wB97X-D3 SP def2-SVP
|  2> %pal
|  3> nprocs 16
|  4> end
|  5>
|  6> * xyz 0 1
|  7> S 	 11.4829 	 -14.6552 	 78.5174
|  8> C 	 11.1484 	 -16.3057 	 78.9767
|  9> C 	 9.79895 	 -16.6519 	 78.9268
| 10> C 	 9.01195 	 -15.5845 	 78.3007
| 11> C 	 9.77157 	 -14.4639 	 77.9703
| 12> H 	 7.96278 	 -15.6152 	 78.0516
| 13> C 	 9.20772 	 -17.9817 	 79.3573
| 14> H 	 10.045 	 -18.6438 	 79.5814
| 15> H 	 8.75084 	 -18.3289 	 78.4247
| 16> C 	 8.11685 	 -18.0702 	 80.4089
| 17> H 	 8.455 	 -17.9528 	 81.4123
| 18> H 	 7.34802 	 -17.2456 	 80.1928
| 19> C 	 7.39883 	 -19.4221 	 80.265
| 20> H 	 8.14585 	 -20.2383 	 80.4273
| 21> H 	 6.6102 	 -19.5629 	 81.0465
| 22> H 	 6.8912 	 -19.6537 	 79.3623
| 23> S 	 9.67283 	 -11.8006 	 78.1855
| 24> C 	 8.98042 	 -10.8283 	 76.8862
| 25> C 	 8.43039 	 -11.5841 	 75.9138
| 26> C 	 8.6456 	 -12.9697 	 76.1277
| 27> C 	 9.31831 	 -13.2345 	 77.3297
| 28> H 	 8.11901 	 -11.1104 	 75.0198
| 29> C 	 8.49944 	 -13.9745 	 75.0102
| 30> H 	 7.49181 	 -14.4246 	 75.1356
| 31> H 	 9.18286 	 -14.7429 	 75.2195
| 32> C 	 8.84733 	 -13.4467 	 73.5579
| 33> H 	 9.90323 	 -13.2571 	 73.4257
| 34> H 	 8.50973 	 -12.3654 	 73.3863
| 35> C 	 8.35672 	 -14.3001 	 72.4496
| 36> H 	 8.94492 	 -15.2934 	 72.4337
| 37> H 	 8.51778 	 -13.8149 	 71.4931
| 38> H 	 7.29644 	 -14.5427 	 72.4732
| 39> H 	 11.8819 	 -16.9884 	 79.4299
| 40> H 	 8.93116 	 -9.71615 	 76.9329
| 41> *
| 42>
| 43>                          ****END OF INPUT****

CARTESIAN COORDINATES (ANGSTROEM)
---------------------------------
  S     11.482900  -14.655200   78.517400
  C     11.148400  -16.305700   78.976700
  C      9.798950  -16.651900   78.926800
  C      9.011950  -15.584500   78.300700
  C      9.771570  -14.463900   77.970300
  H      7.962780  -15.615200   78.051600
  C      9.207720  -17.981700   79.357300
  H     10.045000  -18.643800   79.581400
  H      8.750840  -18.328900   78.424700
  C      8.116850  -18.070200   80.408900
  H      8.455000  -17.952800   81.412300
  H      7.348020  -17.245600   80.192800
  C      7.398830  -19.422100   80.265000
  H      8.145850  -20.238300   80.427300
  H      6.610200  -19.562900   81.046500
  H      6.891200  -19.653700   79.362300
  S      9.672830  -11.800600   78.185500
  C      8.980420  -10.828300   76.886200
  C      8.430390  -11.584100   75.913800
  C      8.645600  -12.969700   76.127700
  C      9.318310  -13.234500   77.329700
  H      8.119010  -11.110400   75.019800
  C      8.499440  -13.974500   75.010200
  H      7.491810  -14.424600   75.135600
  H      9.182860  -14.742900   75.219500
  C      8.847330  -13.446700   73.557900
  H      9.903230  -13.257100   73.425700
  H      8.509730  -12.365400   73.386300
  C      8.356720  -14.300100   72.449600
  H      8.944920  -15.293400   72.433700
  H      8.517780  -13.814900   71.493100
  H      7.296440  -14.542700   72.473200
  H     11.881900  -16.988400   79.429900
  H      8.931160   -9.716150   76.932900

 Total Charge           Charge          ....    0
 Multiplicity           Mult            ....    1
 Number of Electrons    NEL             ....  134
 Basis Dimension        Dim             ....  322

ORBITAL ENERGIES
----------------

  NO   OCC          E(Eh)            E(eV)
   0   2.0000     -88.967078     -2420.9173
   1   2.0000     -88.962657     -2420.7970
   2   2.0000     -10.334141      -281.2063
   3   2.0000     -10.322112      -280.8789
   4   2.0000     -10.316477      -280.7256
   5   2.0000     -10.315471      -280.6982
   6   2.0000     -10.306206      -280.4461
   7   2.0000     -10.300869      -280.3009
   8   2.0000     -10.299932      -280.2754
   9   2.0000     -10.293913      -280.1116
  10   2.0000     -10.293750      -280.1072
  11   2.0000     -10.291310      -280.0408
  12   2.0000     -10.289657      -279.9958
  13   2.0000     -10.286342      -279.9056
  14   2.0000     -10.282703      -279.8066
  15   2.0000     -10.280290      -279.7409
  16   2.0000      -8.080964      -219.8942
  17   2.0000      -8.078225      -219.8197
  18   2.0000      -6.039578      -164.3453
  19   2.0000      -6.036646      -164.2655
  20   2.0000      -6.035740      -164.2408
  21   2.0000      -6.032584      -164.1550
  22   2.0000      -6.031513      -164.1258
  23   2.0000      -6.029062      -164.0591
  24   2.0000      -1.006381       -27.3850
  25   2.0000      -0.978725       -26.6325
  26   2.0000      -0.913319       -24.8527
  27   2.0000      -0.905508       -24.6401
  28   2.0000      -0.872405       -23.7394
  29   2.0000      -0.853722       -23.2310
  30   2.0000      -0.845718       -23.0131
  31   2.0000      -0.817760       -22.2524
  32   2.0000      -0.778232       -21.1768
  33   2.0000      -0.765015       -20.8171
  34   2.0000      -0.708160       -19.2700
  35   2.0000      -0.700171       -19.0526
  36   2.0000      -0.694354       -18.8943
  37   2.0000      -0.657131       -17.8814
  38   2.0000      -0.638498       -17.3744
  39   2.0000      -0.618799       -16.8384
  40   2.0000      -0.595750       -16.2112
  41   2.0000      -0.571193       -15.5430
  42   2.0000      -0.562199       -15.2982
  43   2.0000      -0.553517       -15.0620
  44   2.0000      -0.527356       -14.3501
  45   2.0000      -0.521538       -14.1918
  46   2.0000      -0.519450       -14.1349
  47   2.0000      -0.512422       -13.9437
  48   2.0000      -0.500738       -13.6258
  49   2.0000      -0.499758       -13.5991
  50   2.0000      -0.493596       -13.4314
  51   2.0000      -0.477470       -12.9926
  52   2.0000      -0.465538       -12.6679
  53   2.0000      -0.464279       -12.6337
  54   2.0000      -0.459675       -12.5084
  55   2.0000      -0.454246       -12.3607
  56   2.0000      -0.448853       -12.2139
  57   2.0000      -0.439559       -11.9610
  58   2.0000      -0.434778       -11.8309
  59   2.0000      -0.425220       -11.5708
  60   2.0000      -0.419149       -11.4056
  61   2.0000      -0.418437       -11.3862
  62   2.0000      -0.404579       -11.0092
  63   2.0000      -0.350260        -9.5311
  64   2.0000      -0.330215        -8.9856
  65   2.0000      -0.325613        -8.8604
  66   2.0000      -0.290042        -7.8924
  67   0.0000       0.032213         0.8766
  68   0.0000       0.068520         1.8645
  69   0.0000       0.111708         3.0397
  70   0.0000       0.122147         3.3238
  71   0.0000       0.128446         3.4952

MULLIKEN ATOMIC CHARGES
-----------------------
   0 S :    0.108527
   1 C :   -0.123147
   2 C :   -0.088475
   3 C :    0.039211
   4 C :   -0.155049
   5 H :    0.013995
   6 C :    0.058352
   7 H :    0.016695
   8 H :    0.029292
   9 C :   -0.047431
  10 H :    0.033162
  11 H :    0.038137
  12 C :   -0.078118
  13 H :    0.031593
  14 H :    0.036189
  15 H :    0.029124
  16 S :    0.104713
  17 C :   -0.109647
  18 C :   -0.020537
  19 C :   -0.039068
  20 C :   -0.175114
  21 H :    0.010036
  22 C :    0.106710
  23 H :    0.036591
  24 H :    0.022558
  25 C :   -0.103914
  26 H :    0.031147
  27 H :    0.024980
  28 C :   -0.052774
  29 H :    0.039967
  30 H :    0.030220
  31 H :    0.032577
  32 H :    0.052998
  33 H :    0.066500
Sum of atomic charges:    0.0000000

LOEWDIN ATOMIC CHARGES
----------------------
   0 S :    0.379696
   1 C :   -0.203762
   2 C :   -0.061623
   3 C :   -0.055262
   4 C :   -0.179827
   5 H :    0.031007
   6 C :   -0.036612
   7 H :    0.029010
   8 H :    0.036752
   9 C :   -0.037357
  10 H :    0.022564
  11 H :    0.032521
  12 C :   -0.069671
  13 H :    0.027969
  14 H :    0.029996
  15 H :    0.018339
  16 S :    0.415738
  17 C :   -0.180780
  18 C :   -0.071238
  19 C :   -0.058873
  20 C :   -0.216571
  21 H :    0.027984
  22 C :   -0.027399
  23 H :    0.036056
  24 H :    0.026570
  25 C :   -0.048389
  26 H :    0.027720
  27 H :    0.025607
  28 C :   -0.070241
  29 H :    0.033748
  30 H :    0.026550
  31 H :    0.023188
  32 H :    0.031581
  33 H :    0.035011

  Mayer bond orders larger than 0.100000
B(  0-S ,  1-C ) :   1.1261 B(  0-S ,  4-C ) :   1.1248 B(  1-C ,  2-C ) :   1.6483
B(  1-C , 32-H ) :   0.9577 B(  2-C ,  3-C ) :   1.1942 B(  2-C ,  6-C ) :   1.0250
B(  3-C ,  4-C ) :   1.6080 B(  3-C ,  5-H ) :   0.9935 B(  4-C , 20-C ) :   1.0324
B(  6-C ,  7-H ) :   0.9373 B(  6-C ,  8-H ) :   0.9405 B(  6-C ,  9-C ) :   1.0581
B(  9-C , 10-H ) :   0.9558 B(  9-C , 11-H ) :   0.9543 B(  9-C , 12-C ) :   1.0756
B( 12-C , 13-H ) :   0.9740 B( 12-C , 14-H ) :   0.9742 B( 12-C , 15-H ) :   0.9776
B( 16-S , 17-C ) :   1.1484 B( 16-S , 20-C ) :   1.1613 B( 17-C , 18-C ) :   1.6297
B( 17-C , 33-H ) :   0.9606 B( 18-C , 19-C ) :   1.2399 B( 18-C , 21-H ) :   0.9907
B( 19-C , 20-C ) :   1.5847 B( 19-C , 22-C ) :   1.0364 B( 22-C , 23-H ) :   0.9297
B( 22-C , 24-H ) :   0.9381 B( 22-C , 25-C ) :   1.0451 B( 25-C , 26-H ) :   0.9506
B( 25-C , 27-H ) :   0.9549 B( 25-C , 28-C ) :   1.0968 B( 28-C , 29-H ) :   0.9715
B( 28-C , 30-H ) :   0.9700 B( 28-C , 31-H ) :   0.9757

Dispersion correction           -0.013282890
FINAL SINGLE POINT ENERGY     -1339.878752363182

DIPOLE MOMENT
-------------
                                X             Y             Z
Electronic contribution:     14.01688      20.07293      10.63810
Nuclear contribution   :    -14.35785     -20.44144     -10.93239
                        -----------------------------------------
Total Dipole Moment    :     -0.34097      -0.36851      -0.29429
                        -----------------------------------------
Magnitude (a.u.)       :      0.58195
Magnitude (Debye)      :      1.47919

Rotational constants in cm-1:     0.017839     0.007467     0.006235
Rotational constants in MHz :   534.791867   223.842124   186.925024

                             ****ORCA TERMINATED NORMALLY****
TOTAL RUN TIME: 0 days 0 hours 0 minutes 28 seconds 748 msec
