                         Program Version 4.2.1 -  RELEASE  -
|  1> ! wB97X-D3 SP def2-SVP
|  2> %pal
|  3> nprocs 16
|  4> end
|  5>
|  6> * xyz 0 1
|  7> S 	 -5.2969 	 76.8795 	 50.968
|  8> C 	 -4.61029 	 77.6336 	 52.4033
|  9> C 	 -3.31593 	 78.0011 	 52.2355
| 10> C 	 -2.86834 	 77.7271 	 50.8545
| 11> C 	 -3.82727 	 77.1266 	 50.0462
| 12> H 	 -1.86096 	 77.9595 	 50.365
| 13> C 	 -2.399 	 78.6678 	 53.2891
| 14> H 	 -1.36032 	 78.2942 	 53.3439
| 15> H 	 -2.79355 	 78.3651 	 54.2808
| 16> C 	 -2.47877 	 80.187 	 53.3585
| 17> H 	 -2.31405 	 80.7177 	 52.3992
| 18> H 	 -3.50909 	 80.4117 	 53.5712
| 19> C 	 -1.73147 	 80.797 	 54.528
| 20> H 	 -0.653865 	 80.8569 	 54.4127
| 21> H 	 -2.07782 	 81.8376 	 54.842
| 22> H 	 -2.02035 	 80.3164 	 55.4151
| 23> S 	 -2.09913 	 76.2739 	 48.1521
| 24> C 	 -2.55654 	 76.1856 	 46.4567
| 25> C 	 -3.80252 	 76.7414 	 46.2614
| 26> C 	 -4.4623 	 77.0465 	 47.5069
| 27> C 	 -3.64057 	 76.8387 	 48.6175
| 28> H 	 -4.24672 	 76.7819 	 45.2548
| 29> C 	 -5.90638 	 77.4883 	 47.5274
| 30> H 	 -6.08336 	 78.1273 	 46.7181
| 31> H 	 -6.04432 	 78.0091 	 48.4037
| 32> C 	 -6.89641 	 76.3011 	 47.5181
| 33> H 	 -6.50362 	 75.601 	 48.2672
| 34> H 	 -6.91766 	 75.7958 	 46.4927
| 35> C 	 -8.33501 	 76.6588 	 47.994
| 36> H 	 -8.88233 	 75.8321 	 48.4156
| 37> H 	 -8.94719 	 77.149 	 47.2787
| 38> H 	 -8.305 	 77.2828 	 48.8668
| 39> H 	 -5.12641 	 77.632 	 53.3585
| 40> H 	 -1.84369 	 75.9857 	 45.621
| 41> *
| 42>
| 43>                          ****END OF INPUT****

CARTESIAN COORDINATES (ANGSTROEM)
---------------------------------
  S     -5.296900   76.879500   50.968000
  C     -4.610290   77.633600   52.403300
  C     -3.315930   78.001100   52.235500
  C     -2.868340   77.727100   50.854500
  C     -3.827270   77.126600   50.046200
  H     -1.860960   77.959500   50.365000
  C     -2.399000   78.667800   53.289100
  H     -1.360320   78.294200   53.343900
  H     -2.793550   78.365100   54.280800
  C     -2.478770   80.187000   53.358500
  H     -2.314050   80.717700   52.399200
  H     -3.509090   80.411700   53.571200
  C     -1.731470   80.797000   54.528000
  H     -0.653865   80.856900   54.412700
  H     -2.077820   81.837600   54.842000
  H     -2.020350   80.316400   55.415100
  S     -2.099130   76.273900   48.152100
  C     -2.556540   76.185600   46.456700
  C     -3.802520   76.741400   46.261400
  C     -4.462300   77.046500   47.506900
  C     -3.640570   76.838700   48.617500
  H     -4.246720   76.781900   45.254800
  C     -5.906380   77.488300   47.527400
  H     -6.083360   78.127300   46.718100
  H     -6.044320   78.009100   48.403700
  C     -6.896410   76.301100   47.518100
  H     -6.503620   75.601000   48.267200
  H     -6.917660   75.795800   46.492700
  C     -8.335010   76.658800   47.994000
  H     -8.882330   75.832100   48.415600
  H     -8.947190   77.149000   47.278700
  H     -8.305000   77.282800   48.866800
  H     -5.126410   77.632000   53.358500
  H     -1.843690   75.985700   45.621000

 Total Charge           Charge          ....    0
 Multiplicity           Mult            ....    1
 Number of Electrons    NEL             ....  134
 Basis Dimension        Dim             ....  322

ORBITAL ENERGIES
----------------

  NO   OCC          E(Eh)            E(eV)
   0   2.0000     -88.970441     -2421.0088
   1   2.0000     -88.966602     -2420.9043
   2   2.0000     -10.334831      -281.2251
   3   2.0000     -10.327621      -281.0289
   4   2.0000     -10.320267      -280.8288
   5   2.0000     -10.318035      -280.7680
   6   2.0000     -10.311238      -280.5830
   7   2.0000     -10.303973      -280.3854
   8   2.0000     -10.303114      -280.3620
   9   2.0000     -10.300516      -280.2913
  10   2.0000     -10.297249      -280.2024
  11   2.0000     -10.291220      -280.0383
  12   2.0000     -10.285443      -279.8811
  13   2.0000     -10.278788      -279.7001
  14   2.0000     -10.277399      -279.6622
  15   2.0000     -10.269086      -279.4360
  16   2.0000      -8.084464      -219.9895
  17   2.0000      -8.081829      -219.9177
  18   2.0000      -6.043147      -164.4424
  19   2.0000      -6.040326      -164.3656
  20   2.0000      -6.039093      -164.3321
  21   2.0000      -6.036234      -164.2543
  22   2.0000      -6.035072      -164.2227
  23   2.0000      -6.032605      -164.1555
  24   2.0000      -1.008911       -27.4539
  25   2.0000      -0.985086       -26.8055
  26   2.0000      -0.913219       -24.8500
  27   2.0000      -0.907269       -24.6880
  28   2.0000      -0.874276       -23.7903
  29   2.0000      -0.849725       -23.1222
  30   2.0000      -0.842031       -22.9128
  31   2.0000      -0.814000       -22.1501
  32   2.0000      -0.784680       -21.3522
  33   2.0000      -0.773977       -21.0610
  34   2.0000      -0.703600       -19.1459
  35   2.0000      -0.700503       -19.0616
  36   2.0000      -0.692442       -18.8423
  37   2.0000      -0.668524       -18.1915
  38   2.0000      -0.635932       -17.3046
  39   2.0000      -0.613492       -16.6940
  40   2.0000      -0.593628       -16.1534
  41   2.0000      -0.572006       -15.5651
  42   2.0000      -0.568029       -15.4568
  43   2.0000      -0.561698       -15.2846
  44   2.0000      -0.522222       -14.2104
  45   2.0000      -0.519382       -14.1331
  46   2.0000      -0.513517       -13.9735
  47   2.0000      -0.510003       -13.8779
  48   2.0000      -0.506572       -13.7845
  49   2.0000      -0.502034       -13.6610
  50   2.0000      -0.498192       -13.5565
  51   2.0000      -0.478451       -13.0193
  52   2.0000      -0.471836       -12.8393
  53   2.0000      -0.470063       -12.7911
  54   2.0000      -0.459912       -12.5148
  55   2.0000      -0.449656       -12.2358
  56   2.0000      -0.440687       -11.9917
  57   2.0000      -0.430460       -11.7134
  58   2.0000      -0.428727       -11.6663
  59   2.0000      -0.426889       -11.6162
  60   2.0000      -0.421741       -11.4761
  61   2.0000      -0.418276       -11.3819
  62   2.0000      -0.413858       -11.2616
  63   2.0000      -0.358417        -9.7530
  64   2.0000      -0.332350        -9.0437
  65   2.0000      -0.330181        -8.9847
  66   2.0000      -0.292713        -7.9651
  67   0.0000       0.028752         0.7824
  68   0.0000       0.077855         2.1185
  69   0.0000       0.106507         2.8982
  70   0.0000       0.112559         3.0629
  71   0.0000       0.131644         3.5822

MULLIKEN ATOMIC CHARGES
-----------------------
   0 S :    0.099168
   1 C :   -0.126280
   2 C :   -0.056774
   3 C :   -0.027321
   4 C :   -0.126500
   5 H :    0.047422
   6 C :    0.051552
   7 H :    0.039034
   8 H :    0.008100
   9 C :   -0.052538
  10 H :    0.036094
  11 H :    0.011946
  12 C :   -0.045374
  13 H :    0.040714
  14 H :    0.031347
  15 H :    0.009253
  16 S :    0.101743
  17 C :   -0.109405
  18 C :   -0.035280
  19 C :   -0.089204
  20 C :   -0.136980
  21 H :    0.032608
  22 C :    0.152801
  23 H :    0.009363
  24 H :   -0.010693
  25 C :   -0.102419
  26 H :    0.029122
  27 H :    0.041880
  28 C :   -0.018377
  29 H :    0.026121
  30 H :    0.028022
  31 H :    0.011677
  32 H :    0.053631
  33 H :    0.075548
Sum of atomic charges:    0.0000000

LOEWDIN ATOMIC CHARGES
----------------------
   0 S :    0.399957
   1 C :   -0.190265
   2 C :   -0.057829
   3 C :   -0.077581
   4 C :   -0.192454
   5 H :    0.038764
   6 C :   -0.032678
   7 H :    0.032674
   8 H :    0.030636
   9 C :   -0.045588
  10 H :    0.026083
  11 H :    0.023710
  12 C :   -0.068513
  13 H :    0.023490
  14 H :    0.036457
  15 H :    0.017285
  16 S :    0.428396
  17 C :   -0.194709
  18 C :   -0.070832
  19 C :   -0.053647
  20 C :   -0.209557
  21 H :    0.037598
  22 C :   -0.024193
  23 H :    0.023497
  24 H :    0.011227
  25 C :   -0.037444
  26 H :    0.022907
  27 H :    0.030124
  28 C :   -0.067663
  29 H :    0.027806
  30 H :    0.018870
  31 H :    0.022708
  32 H :    0.031129
  33 H :    0.039633

  Mayer bond orders larger than 0.100000
B(  0-S ,  1-C ) :   1.1211 B(  0-S ,  4-C ) :   1.1327 B(  1-C ,  2-C ) :   1.6573
B(  1-C , 32-H ) :   0.9639 B(  2-C ,  3-C ) :   1.2087 B(  2-C ,  6-C ) :   1.0199
B(  3-C ,  4-C ) :   1.6068 B(  3-C ,  5-H ) :   0.9734 B(  4-C , 20-C ) :   1.0327
B(  6-C ,  7-H ) :   0.9501 B(  6-C ,  8-H ) :   0.9358 B(  6-C ,  9-C ) :   1.0589
B(  9-C , 10-H ) :   0.9578 B(  9-C , 11-H ) :   0.9501 B(  9-C , 12-C ) :   1.0838
B( 12-C , 13-H ) :   0.9775 B( 12-C , 14-H ) :   0.9716 B( 12-C , 15-H ) :   0.9683
B( 16-S , 17-C ) :   1.1531 B( 16-S , 20-C ) :   1.1559 B( 17-C , 18-C ) :   1.6103
B( 17-C , 33-H ) :   0.9598 B( 18-C , 19-C ) :   1.2497 B( 18-C , 21-H ) :   0.9850
B( 19-C , 20-C ) :   1.5640 B( 19-C , 22-C ) :   1.0634 B( 22-C , 23-H ) :   0.9249
B( 22-C , 24-H ) :   0.9177 B( 22-C , 25-C ) :   1.0636 B( 25-C , 26-H ) :   0.9553
B( 25-C , 27-H ) :   0.9570 B( 25-C , 28-C ) :   1.0804 B( 28-C , 29-H ) :   0.9741
B( 28-C , 30-H ) :   0.9775 B( 28-C , 31-H ) :   0.9689

Dispersion correction           -0.013950430
FINAL SINGLE POINT ENERGY     -1339.881873877978

DIPOLE MOMENT
-------------
                                X             Y             Z
Electronic contribution:      7.12704     -12.15621      -9.29495
Nuclear contribution   :     -7.16799      12.50109       9.41397
                        -----------------------------------------
Total Dipole Moment    :     -0.04095       0.34488       0.11901
                        -----------------------------------------
Magnitude (a.u.)       :      0.36713
Magnitude (Debye)      :      0.93317

Rotational constants in cm-1:     0.020774     0.007658     0.006093
Rotational constants in MHz :   622.789707   229.566542   182.651692

                             ****ORCA TERMINATED NORMALLY****
TOTAL RUN TIME: 0 days 0 hours 0 minutes 33 seconds 19 msec
