                         Program Version 4.2.1 -  RELEASE  -
|  1> ! wB97X-D3 SP def2-SVP
|  2> %pal
|  3> nprocs 16
|  4> end
|  5>
|  6> * xyz 0 1
|  7> S 	 -3.90476 	 61.944 	 47.2785
|  8> C 	 -4.41298 	 61.5473 	 48.9009
|  9> C 	 -3.49833 	 60.6509 	 49.4086
| 10> C 	 -2.52538 	 60.2356 	 48.4853
| 11> C 	 -2.47222 	 60.9798 	 47.327
| 12> H 	 -1.85441 	 59.3981 	 48.6892
| 13> C 	 -3.64725 	 59.9659 	 50.7043
| 14> H 	 -3.56095 	 60.6631 	 51.5366
| 15> H 	 -2.72438 	 59.2632 	 50.9233
| 16> C 	 -5.05578 	 59.2152 	 50.8488
| 17> H 	 -5.90131 	 59.8737 	 50.5993
| 18> H 	 -5.19975 	 58.4398 	 50.068
| 19> C 	 -5.23526 	 58.6306 	 52.1888
| 20> H 	 -5.27398 	 59.3374 	 52.9696
| 21> H 	 -6.00168 	 57.8848 	 52.2865
| 22> H 	 -4.33488 	 58.1336 	 52.5784
| 23> S 	 -2.35018 	 60.9558 	 44.5545
| 24> C 	 -0.889229 	 60.3383 	 43.8185
| 25> C 	 0.0945156 	 60.0592 	 44.7306
| 26> C 	 -0.2962 	 60.3645 	 46.0865
| 27> C 	 -1.62161 	 60.8624 	 46.1889
| 28> H 	 1.0339 	 59.6169 	 44.4423
| 29> C 	 0.62028 	 60.0065 	 47.2335
| 30> H 	 0.414199 	 60.6769 	 48.0452
| 31> H 	 1.63004 	 60.3054 	 46.8729
| 32> C 	 0.666816 	 58.4845 	 47.623
| 33> H 	 1.37773 	 58.0513 	 46.9417
| 34> H 	 -0.305931 	 58.1726 	 47.3997
| 35> C 	 1.13437 	 58.0475 	 49.0179
| 36> H 	 1.04331 	 56.9407 	 49.1144
| 37> H 	 0.558074 	 58.532 	 49.815
| 38> H 	 2.10357 	 58.5237 	 49.1751
| 39> H 	 -5.35477 	 61.8906 	 49.346
| 40> H 	 -0.710255 	 60.2433 	 42.7711
| 41> *
| 42>
| 43>                          ****END OF INPUT****

CARTESIAN COORDINATES (ANGSTROEM)
---------------------------------
  S     -3.904760   61.944000   47.278500
  C     -4.412980   61.547300   48.900900
  C     -3.498330   60.650900   49.408600
  C     -2.525380   60.235600   48.485300
  C     -2.472220   60.979800   47.327000
  H     -1.854410   59.398100   48.689200
  C     -3.647250   59.965900   50.704300
  H     -3.560950   60.663100   51.536600
  H     -2.724380   59.263200   50.923300
  C     -5.055780   59.215200   50.848800
  H     -5.901310   59.873700   50.599300
  H     -5.199750   58.439800   50.068000
  C     -5.235260   58.630600   52.188800
  H     -5.273980   59.337400   52.969600
  H     -6.001680   57.884800   52.286500
  H     -4.334880   58.133600   52.578400
  S     -2.350180   60.955800   44.554500
  C     -0.889229   60.338300   43.818500
  C      0.094516   60.059200   44.730600
  C     -0.296200   60.364500   46.086500
  C     -1.621610   60.862400   46.188900
  H      1.033900   59.616900   44.442300
  C      0.620280   60.006500   47.233500
  H      0.414199   60.676900   48.045200
  H      1.630040   60.305400   46.872900
  C      0.666816   58.484500   47.623000
  H      1.377730   58.051300   46.941700
  H     -0.305931   58.172600   47.399700
  C      1.134370   58.047500   49.017900
  H      1.043310   56.940700   49.114400
  H      0.558074   58.532000   49.815000
  H      2.103570   58.523700   49.175100
  H     -5.354770   61.890600   49.346000
  H     -0.710255   60.243300   42.771100

 Total Charge           Charge          ....    0
 Multiplicity           Mult            ....    1
 Number of Electrons    NEL             ....  134
 Basis Dimension        Dim             ....  322

ORBITAL ENERGIES
----------------

  NO   OCC          E(Eh)            E(eV)
   0   2.0000     -88.967322     -2420.9239
   1   2.0000     -88.962358     -2420.7888
   2   2.0000     -10.331771      -281.1418
   3   2.0000     -10.327058      -281.0135
   4   2.0000     -10.318065      -280.7688
   5   2.0000     -10.315419      -280.6968
   6   2.0000     -10.308962      -280.5211
   7   2.0000     -10.301541      -280.3192
   8   2.0000     -10.295525      -280.1555
   9   2.0000     -10.294618      -280.1308
  10   2.0000     -10.292715      -280.0790
  11   2.0000     -10.291678      -280.0508
  12   2.0000     -10.290987      -280.0320
  13   2.0000     -10.286636      -279.9136
  14   2.0000     -10.284708      -279.8611
  15   2.0000     -10.269759      -279.4543
  16   2.0000      -8.081503      -219.9089
  17   2.0000      -8.077814      -219.8085
  18   2.0000      -6.040215      -164.3626
  19   2.0000      -6.036320      -164.2566
  20   2.0000      -6.036089      -164.2503
  21   2.0000      -6.032086      -164.1414
  22   2.0000      -6.032066      -164.1409
  23   2.0000      -6.028669      -164.0484
  24   2.0000      -1.011338       -27.5199
  25   2.0000      -0.984049       -26.7773
  26   2.0000      -0.912755       -24.8373
  27   2.0000      -0.907400       -24.6916
  28   2.0000      -0.875539       -23.8246
  29   2.0000      -0.855491       -23.2791
  30   2.0000      -0.849066       -23.1043
  31   2.0000      -0.817540       -22.2464
  32   2.0000      -0.782629       -21.2964
  33   2.0000      -0.767995       -20.8982
  34   2.0000      -0.711764       -19.3681
  35   2.0000      -0.708269       -19.2730
  36   2.0000      -0.697901       -18.9909
  37   2.0000      -0.663724       -18.0608
  38   2.0000      -0.639610       -17.4047
  39   2.0000      -0.624031       -16.9807
  40   2.0000      -0.593851       -16.1595
  41   2.0000      -0.570294       -15.5185
  42   2.0000      -0.568288       -15.4639
  43   2.0000      -0.549338       -14.9482
  44   2.0000      -0.534110       -14.5339
  45   2.0000      -0.533713       -14.5231
  46   2.0000      -0.523348       -14.2410
  47   2.0000      -0.515067       -14.0157
  48   2.0000      -0.512373       -13.9424
  49   2.0000      -0.501116       -13.6361
  50   2.0000      -0.490954       -13.3596
  51   2.0000      -0.484364       -13.1802
  52   2.0000      -0.473638       -12.8883
  53   2.0000      -0.463990       -12.6258
  54   2.0000      -0.459655       -12.5079
  55   2.0000      -0.449652       -12.2357
  56   2.0000      -0.445360       -12.1189
  57   2.0000      -0.436711       -11.8835
  58   2.0000      -0.436029       -11.8649
  59   2.0000      -0.425666       -11.5830
  60   2.0000      -0.419972       -11.4280
  61   2.0000      -0.412351       -11.2207
  62   2.0000      -0.406970       -11.0742
  63   2.0000      -0.357713        -9.7339
  64   2.0000      -0.332953        -9.0601
  65   2.0000      -0.326416        -8.8822
  66   2.0000      -0.283713        -7.7202
  67   0.0000       0.017560         0.4778
  68   0.0000       0.078869         2.1461
  69   0.0000       0.102177         2.7804
  70   0.0000       0.121918         3.3176
  71   0.0000       0.125831         3.4240

MULLIKEN ATOMIC CHARGES
-----------------------
   0 S :    0.089003
   1 C :   -0.134041
   2 C :   -0.046215
   3 C :   -0.006542
   4 C :   -0.115701
   5 H :    0.003543
   6 C :    0.010899
   7 H :    0.031223
   8 H :    0.037088
   9 C :   -0.076942
  10 H :    0.026956
  11 H :    0.031833
  12 C :   -0.001445
  13 H :    0.007260
  14 H :    0.033520
  15 H :    0.007659
  16 S :    0.097579
  17 C :   -0.069925
  18 C :   -0.026957
  19 C :   -0.082648
  20 C :   -0.104760
  21 H :    0.016260
  22 C :    0.046868
  23 H :    0.023654
  24 H :    0.023692
  25 C :   -0.058709
  26 H :    0.025610
  27 H :    0.027563
  28 C :   -0.041103
  29 H :    0.058618
  30 H :    0.021642
  31 H :    0.030542
  32 H :    0.063192
  33 H :    0.050785
Sum of atomic charges:   -0.0000000

LOEWDIN ATOMIC CHARGES
----------------------
   0 S :    0.415302
   1 C :   -0.197484
   2 C :   -0.074233
   3 C :   -0.067056
   4 C :   -0.197717
   5 H :    0.032158
   6 C :   -0.036319
   7 H :    0.029914
   8 H :    0.039150
   9 C :   -0.041004
  10 H :    0.024257
  11 H :    0.028930
  12 C :   -0.072310
  13 H :    0.019259
  14 H :    0.026303
  15 H :    0.027934
  16 S :    0.388898
  17 C :   -0.174226
  18 C :   -0.070376
  19 C :   -0.047495
  20 C :   -0.189501
  21 H :    0.031122
  22 C :   -0.036201
  23 H :    0.025008
  24 H :    0.032294
  25 C :   -0.037190
  26 H :    0.024690
  27 H :    0.012531
  28 C :   -0.066845
  29 H :    0.038108
  30 H :    0.021384
  31 H :    0.028813
  32 H :    0.034725
  33 H :    0.027176

  Mayer bond orders larger than 0.100000
B(  0-S ,  1-C ) :   1.1469 B(  0-S ,  4-C ) :   1.1623 B(  1-C ,  2-C ) :   1.5507
B(  1-C ,  4-C ) :   0.1007 B(  1-C , 32-H ) :   0.9748 B(  2-C ,  3-C ) :   1.2989
B(  2-C ,  6-C ) :   1.0326 B(  3-C ,  4-C ) :   1.5106 B(  3-C ,  5-H ) :   0.9891
B(  4-C , 20-C ) :   1.0873 B(  6-C ,  7-H ) :   0.9342 B(  6-C ,  8-H ) :   0.9464
B(  6-C ,  9-C ) :   1.0443 B(  9-C , 10-H ) :   0.9538 B(  9-C , 11-H ) :   0.9564
B(  9-C , 12-C ) :   1.0911 B( 12-C , 13-H ) :   0.9660 B( 12-C , 14-H ) :   0.9717
B( 12-C , 15-H ) :   0.9635 B( 16-S , 17-C ) :   1.1506 B( 16-S , 20-C ) :   1.1171
B( 17-C , 18-C ) :   1.6168 B( 17-C , 33-H ) :   0.9666 B( 18-C , 19-C ) :   1.2365
B( 18-C , 21-H ) :   0.9928 B( 19-C , 20-C ) :   1.5736 B( 19-C , 22-C ) :   1.0657
B( 22-C , 23-H ) :   0.9366 B( 22-C , 24-H ) :   0.9317 B( 22-C , 25-C ) :   1.0329
B( 25-C , 26-H ) :   0.9507 B( 25-C , 27-H ) :   0.9634 B( 25-C , 28-C ) :   1.0868
B( 28-C , 29-H ) :   0.9718 B( 28-C , 30-H ) :   0.9745 B( 28-C , 31-H ) :   0.9705

Dispersion correction           -0.014257930
FINAL SINGLE POINT ENERGY     -1339.871569481314

DIPOLE MOMENT
-------------
                                X             Y             Z
Electronic contribution:     -6.47939      17.50963     -25.27490
Nuclear contribution   :      6.78594     -18.07009      25.68279
                        -----------------------------------------
Total Dipole Moment    :      0.30655      -0.56045       0.40789
                        -----------------------------------------
Magnitude (a.u.)       :      0.75793
Magnitude (Debye)      :      1.92650

Rotational constants in cm-1:     0.018530     0.008827     0.006388
Rotational constants in MHz :   555.508570   264.622980   191.516938

                             ****ORCA TERMINATED NORMALLY****
TOTAL RUN TIME: 0 days 0 hours 0 minutes 34 seconds 23 msec
