                         Program Version 4.2.1 -  RELEASE  -
|  1> ! wB97X-D3 SP def2-SVP
|  2> %pal
|  3> nprocs 16
|  4> end
|  5>
|  6> * xyz 0 1
|  7> S 	 -36.4215 	 30.3922 	 82.3601
|  8> C 	 -35.4783 	 30.8457 	 80.9483
|  9> C 	 -36.3072 	 30.9919 	 79.8384
| 10> C 	 -37.6792 	 30.7673 	 80.1531
| 11> C 	 -37.9712 	 30.4868 	 81.4892
| 12> H 	 -38.526 	 30.6747 	 79.4446
| 13> C 	 -35.7831 	 31.2023 	 78.4272
| 14> H 	 -34.9147 	 31.8867 	 78.3487
| 15> H 	 -36.509 	 31.7857 	 77.8769
| 16> C 	 -35.5055 	 29.9471 	 77.6055
| 17> H 	 -34.7759 	 29.3814 	 78.157
| 18> H 	 -36.3826 	 29.2673 	 77.4918
| 19> C 	 -35.0831 	 30.2519 	 76.1468
| 20> H 	 -34.231 	 30.8445 	 76.2577
| 21> H 	 -34.9288 	 29.3793 	 75.5208
| 22> H 	 -35.7534 	 30.7358 	 75.5424
| 23> S 	 -39.4452 	 30.2141 	 83.8368
| 24> C 	 -41.0588 	 29.5313 	 83.7558
| 25> C 	 -41.3639 	 29.1351 	 82.4613
| 26> C 	 -40.3284 	 29.4082 	 81.4782
| 27> C 	 -39.2348 	 30.0162 	 82.0486
| 28> H 	 -42.348 	 28.656 	 82.2142
| 29> C 	 -40.5414 	 28.9433 	 80.069
| 30> H 	 -41.0822 	 28.0406 	 80.0542
| 31> H 	 -39.5866 	 28.8101 	 79.5819
| 32> C 	 -41.2286 	 30.0291 	 79.1594
| 33> H 	 -40.5729 	 30.8533 	 78.8497
| 34> H 	 -41.9947 	 30.4709 	 79.852
| 35> C 	 -41.9025 	 29.341 	 77.9537
| 36> H 	 -42.5938 	 28.4321 	 78.086
| 37> H 	 -41.1436 	 28.8151 	 77.3555
| 38> H 	 -42.3618 	 30.0031 	 77.1746
| 39> H 	 -34.4174 	 30.888 	 81.1066
| 40> H 	 -41.738 	 29.4254 	 84.5741
| 41> *
| 42>
| 43>                          ****END OF INPUT****

CARTESIAN COORDINATES (ANGSTROEM)
---------------------------------
  S    -36.421500   30.392200   82.360100
  C    -35.478300   30.845700   80.948300
  C    -36.307200   30.991900   79.838400
  C    -37.679200   30.767300   80.153100
  C    -37.971200   30.486800   81.489200
  H    -38.526000   30.674700   79.444600
  C    -35.783100   31.202300   78.427200
  H    -34.914700   31.886700   78.348700
  H    -36.509000   31.785700   77.876900
  C    -35.505500   29.947100   77.605500
  H    -34.775900   29.381400   78.157000
  H    -36.382600   29.267300   77.491800
  C    -35.083100   30.251900   76.146800
  H    -34.231000   30.844500   76.257700
  H    -34.928800   29.379300   75.520800
  H    -35.753400   30.735800   75.542400
  S    -39.445200   30.214100   83.836800
  C    -41.058800   29.531300   83.755800
  C    -41.363900   29.135100   82.461300
  C    -40.328400   29.408200   81.478200
  C    -39.234800   30.016200   82.048600
  H    -42.348000   28.656000   82.214200
  C    -40.541400   28.943300   80.069000
  H    -41.082200   28.040600   80.054200
  H    -39.586600   28.810100   79.581900
  C    -41.228600   30.029100   79.159400
  H    -40.572900   30.853300   78.849700
  H    -41.994700   30.470900   79.852000
  C    -41.902500   29.341000   77.953700
  H    -42.593800   28.432100   78.086000
  H    -41.143600   28.815100   77.355500
  H    -42.361800   30.003100   77.174600
  H    -34.417400   30.888000   81.106600
  H    -41.738000   29.425400   84.574100

 Total Charge           Charge          ....    0
 Multiplicity           Mult            ....    1
 Number of Electrons    NEL             ....  134
 Basis Dimension        Dim             ....  322

ORBITAL ENERGIES
----------------

  NO   OCC          E(Eh)            E(eV)
   0   2.0000     -88.966664     -2420.9060
   1   2.0000     -88.964327     -2420.8424
   2   2.0000     -10.335062      -281.2313
   3   2.0000     -10.334896      -281.2268
   4   2.0000     -10.321238      -280.8552
   5   2.0000     -10.319742      -280.8145
   6   2.0000     -10.309182      -280.5271
   7   2.0000     -10.307285      -280.4755
   8   2.0000     -10.301452      -280.3168
   9   2.0000     -10.300618      -280.2941
  10   2.0000     -10.299939      -280.2756
  11   2.0000     -10.293895      -280.1111
  12   2.0000     -10.292765      -280.0804
  13   2.0000     -10.292007      -280.0598
  14   2.0000     -10.288359      -279.9605
  15   2.0000     -10.268679      -279.4250
  16   2.0000      -8.080549      -219.8829
  17   2.0000      -8.078773      -219.8346
  18   2.0000      -6.039257      -164.3365
  19   2.0000      -6.037369      -164.2852
  20   2.0000      -6.035277      -164.2282
  21   2.0000      -6.033252      -164.1731
  22   2.0000      -6.031041      -164.1130
  23   2.0000      -6.029523      -164.0717
  24   2.0000      -1.001916       -27.2635
  25   2.0000      -0.980006       -26.6673
  26   2.0000      -0.911782       -24.8109
  27   2.0000      -0.910563       -24.7777
  28   2.0000      -0.870136       -23.6776
  29   2.0000      -0.851872       -23.1806
  30   2.0000      -0.844126       -22.9698
  31   2.0000      -0.813883       -22.1469
  32   2.0000      -0.784089       -21.3361
  33   2.0000      -0.774671       -21.0799
  34   2.0000      -0.709533       -19.3074
  35   2.0000      -0.706047       -19.2125
  36   2.0000      -0.697449       -18.9785
  37   2.0000      -0.667349       -18.1595
  38   2.0000      -0.646982       -17.6053
  39   2.0000      -0.620300       -16.8792
  40   2.0000      -0.598807       -16.2944
  41   2.0000      -0.569866       -15.5068
  42   2.0000      -0.564846       -15.3703
  43   2.0000      -0.560964       -15.2646
  44   2.0000      -0.527479       -14.3534
  45   2.0000      -0.523571       -14.2471
  46   2.0000      -0.518817       -14.1177
  47   2.0000      -0.513007       -13.9596
  48   2.0000      -0.507576       -13.8119
  49   2.0000      -0.499536       -13.5931
  50   2.0000      -0.496048       -13.4981
  51   2.0000      -0.485430       -13.2092
  52   2.0000      -0.469769       -12.7831
  53   2.0000      -0.463772       -12.6199
  54   2.0000      -0.459007       -12.4902
  55   2.0000      -0.458438       -12.4747
  56   2.0000      -0.442346       -12.0368
  57   2.0000      -0.440435       -11.9848
  58   2.0000      -0.436686       -11.8828
  59   2.0000      -0.427240       -11.6258
  60   2.0000      -0.414287       -11.2733
  61   2.0000      -0.412175       -11.2159
  62   2.0000      -0.410999       -11.1839
  63   2.0000      -0.359930        -9.7942
  64   2.0000      -0.332685        -9.0528
  65   2.0000      -0.330114        -8.9829
  66   2.0000      -0.286042        -7.7836
  67   0.0000       0.019290         0.5249
  68   0.0000       0.075275         2.0483
  69   0.0000       0.099194         2.6992
  70   0.0000       0.120133         3.2690
  71   0.0000       0.124755         3.3948

MULLIKEN ATOMIC CHARGES
-----------------------
   0 S :    0.083937
   1 C :   -0.131823
   2 C :   -0.037574
   3 C :   -0.004780
   4 C :   -0.100249
   5 H :   -0.006009
   6 C :    0.050102
   7 H :    0.025183
   8 H :    0.009948
   9 C :   -0.067228
  10 H :    0.023616
  11 H :    0.026711
  12 C :   -0.000283
  13 H :    0.015878
  14 H :    0.028639
  15 H :    0.007312
  16 S :    0.092419
  17 C :   -0.071535
  18 C :   -0.053678
  19 C :   -0.055943
  20 C :   -0.132444
  21 H :    0.036538
  22 C :    0.074826
  23 H :    0.018668
  24 H :    0.024193
  25 C :   -0.075400
  26 H :    0.055642
  27 H :    0.040028
  28 C :   -0.092256
  29 H :    0.043188
  30 H :    0.017059
  31 H :    0.045602
  32 H :    0.056160
  33 H :    0.053552
Sum of atomic charges:   -0.0000000

LOEWDIN ATOMIC CHARGES
----------------------
   0 S :    0.388122
   1 C :   -0.181844
   2 C :   -0.062938
   3 C :   -0.069344
   4 C :   -0.182660
   5 H :    0.032493
   6 C :   -0.037396
   7 H :    0.033196
   8 H :    0.026511
   9 C :   -0.035268
  10 H :    0.020307
  11 H :    0.024876
  12 C :   -0.056825
  13 H :    0.017593
  14 H :    0.031194
  15 H :    0.014435
  16 S :    0.375013
  17 C :   -0.176034
  18 C :   -0.075077
  19 C :   -0.054970
  20 C :   -0.173145
  21 H :    0.038475
  22 C :   -0.023260
  23 H :    0.027137
  24 H :    0.027677
  25 C :   -0.037753
  26 H :    0.027148
  27 H :    0.028326
  28 C :   -0.090184
  29 H :    0.035207
  30 H :    0.023657
  31 H :    0.030885
  32 H :    0.026135
  33 H :    0.028313

  Mayer bond orders larger than 0.100000
B(  0-S ,  1-C ) :   1.1492 B(  0-S ,  4-C ) :   1.1447 B(  1-C ,  2-C ) :   1.5603
B(  1-C ,  4-C ) :   0.1023 B(  1-C , 32-H ) :   0.9815 B(  2-C ,  3-C ) :   1.2627
B(  2-C ,  6-C ) :   1.0313 B(  3-C ,  4-C ) :   1.5589 B(  3-C ,  5-H ) :   0.9851
B(  4-C , 20-C ) :   1.0682 B(  6-C ,  7-H ) :   0.9429 B(  6-C ,  8-H ) :   0.9363
B(  6-C ,  9-C ) :   1.0585 B(  9-C , 10-H ) :   0.9578 B(  9-C , 11-H ) :   0.9573
B(  9-C , 12-C ) :   1.0732 B( 12-C , 13-H ) :   0.9764 B( 12-C , 14-H ) :   0.9716
B( 12-C , 15-H ) :   0.9736 B( 16-S , 17-C ) :   1.1403 B( 16-S , 20-C ) :   1.1102
B( 17-C , 18-C ) :   1.6328 B( 17-C , 33-H ) :   0.9705 B( 18-C , 19-C ) :   1.2123
B( 18-C , 21-H ) :   0.9783 B( 19-C , 20-C ) :   1.6246 B( 19-C , 22-C ) :   1.0568
B( 22-C , 23-H ) :   0.9391 B( 22-C , 24-H ) :   0.9263 B( 22-C , 25-C ) :   1.0416
B( 25-C , 26-H ) :   0.9485 B( 25-C , 27-H ) :   0.9598 B( 25-C , 28-C ) :   1.0642
B( 28-C , 29-H ) :   0.9764 B( 28-C , 30-H ) :   0.9682 B( 28-C , 31-H ) :   0.9751

Dispersion correction           -0.013826493
FINAL SINGLE POINT ENERGY     -1339.873376507408

DIPOLE MOMENT
-------------
                                X             Y             Z
Electronic contribution:      2.63601       3.22206      33.60480
Nuclear contribution   :     -2.84737      -3.48431     -34.36438
                        -----------------------------------------
Total Dipole Moment    :     -0.21136      -0.26225      -0.75958
                        -----------------------------------------
Magnitude (a.u.)       :      0.83091
Magnitude (Debye)      :      2.11201

Rotational constants in cm-1:     0.017181     0.009114     0.006168
Rotational constants in MHz :   515.072622   273.228632   184.898038

                             ****ORCA TERMINATED NORMALLY****
TOTAL RUN TIME: 0 days 0 hours 0 minutes 29 seconds 905 msec
