                         Program Version 4.2.1 -  RELEASE  -
|  1> ! wB97X-D3 SP def2-SVP
|  2> %pal
|  3> nprocs 16
|  4> end
|  5>
|  6> * xyz 0 1
|  7> S 	 -32.6395 	 73.8014 	 166.957
|  8> C 	 -32.193 	 73.7763 	 165.241
|  9> C 	 -33.2378 	 73.1448 	 164.539
| 10> C 	 -34.4416 	 73.126 	 165.236
| 11> C 	 -34.3228 	 73.3732 	 166.574
| 12> H 	 -35.4333 	 72.9329 	 164.837
| 13> C 	 -33.2086 	 72.7417 	 163.07
| 14> H 	 -32.5356 	 71.9228 	 162.925
| 15> H 	 -32.6792 	 73.5276 	 162.575
| 16> C 	 -34.516 	 72.3577 	 162.456
| 17> H 	 -34.8429 	 71.5065 	 163.072
| 18> H 	 -35.2354 	 73.1617 	 162.447
| 19> C 	 -34.2929 	 71.9043 	 160.957
| 20> H 	 -33.4267 	 72.3394 	 160.513
| 21> H 	 -34.2022 	 70.8241 	 160.991
| 22> H 	 -35.2109 	 72.0345 	 160.351
| 23> S 	 -35.1183 	 74.7947 	 168.739
| 24> C 	 -36.4195 	 74.3306 	 169.66
| 25> C 	 -37.0209 	 73.1698 	 169.156
| 26> C 	 -36.3616 	 72.5986 	 168.062
| 27> C 	 -35.2962 	 73.405 	 167.664
| 28> H 	 -37.8452 	 72.732 	 169.605
| 29> C 	 -36.8229 	 71.2898 	 167.353
| 30> H 	 -35.9486 	 70.6804 	 166.988
| 31> H 	 -37.4174 	 71.5165 	 166.476
| 32> C 	 -37.7213 	 70.2206 	 168.048
| 33> H 	 -37.7793 	 69.3877 	 167.382
| 34> H 	 -38.744 	 70.6005 	 168.244
| 35> C 	 -37.1487 	 69.7899 	 169.378
| 36> H 	 -37.9344 	 69.6046 	 170.055
| 37> H 	 -36.5512 	 70.4748 	 169.923
| 38> H 	 -36.6034 	 68.9285 	 169.148
| 39> H 	 -31.1604 	 73.8755 	 164.912
| 40> H 	 -36.7183 	 74.7454 	 170.596
| 41> *
| 42>
| 43>                          ****END OF INPUT****

CARTESIAN COORDINATES (ANGSTROEM)
---------------------------------
  S    -32.639500   73.801400  166.957000
  C    -32.193000   73.776300  165.241000
  C    -33.237800   73.144800  164.539000
  C    -34.441600   73.126000  165.236000
  C    -34.322800   73.373200  166.574000
  H    -35.433300   72.932900  164.837000
  C    -33.208600   72.741700  163.070000
  H    -32.535600   71.922800  162.925000
  H    -32.679200   73.527600  162.575000
  C    -34.516000   72.357700  162.456000
  H    -34.842900   71.506500  163.072000
  H    -35.235400   73.161700  162.447000
  C    -34.292900   71.904300  160.957000
  H    -33.426700   72.339400  160.513000
  H    -34.202200   70.824100  160.991000
  H    -35.210900   72.034500  160.351000
  S    -35.118300   74.794700  168.739000
  C    -36.419500   74.330600  169.660000
  C    -37.020900   73.169800  169.156000
  C    -36.361600   72.598600  168.062000
  C    -35.296200   73.405000  167.664000
  H    -37.845200   72.732000  169.605000
  C    -36.822900   71.289800  167.353000
  H    -35.948600   70.680400  166.988000
  H    -37.417400   71.516500  166.476000
  C    -37.721300   70.220600  168.048000
  H    -37.779300   69.387700  167.382000
  H    -38.744000   70.600500  168.244000
  C    -37.148700   69.789900  169.378000
  H    -37.934400   69.604600  170.055000
  H    -36.551200   70.474800  169.923000
  H    -36.603400   68.928500  169.148000
  H    -31.160400   73.875500  164.912000
  H    -36.718300   74.745400  170.596000

 Total Charge           Charge          ....    0
 Multiplicity           Mult            ....    1
 Number of Electrons    NEL             ....  134
 Basis Dimension        Dim             ....  322

ORBITAL ENERGIES
----------------

  NO   OCC          E(Eh)            E(eV)
   0   2.0000     -88.967255     -2420.9221
   1   2.0000     -88.961555     -2420.7670
   2   2.0000     -10.327796      -281.0336
   3   2.0000     -10.326157      -280.9890
   4   2.0000     -10.314447      -280.6704
   5   2.0000     -10.309926      -280.5473
   6   2.0000     -10.307509      -280.4816
   7   2.0000     -10.300291      -280.2852
   8   2.0000     -10.298553      -280.2379
   9   2.0000     -10.288214      -279.9565
  10   2.0000     -10.286795      -279.9179
  11   2.0000     -10.286478      -279.9093
  12   2.0000     -10.285442      -279.8811
  13   2.0000     -10.283283      -279.8223
  14   2.0000     -10.280592      -279.7491
  15   2.0000     -10.259155      -279.1658
  16   2.0000      -8.083187      -219.9547
  17   2.0000      -8.075565      -219.7473
  18   2.0000      -6.041382      -164.3944
  19   2.0000      -6.037333      -164.2842
  20   2.0000      -6.034362      -164.2033
  21   2.0000      -6.034082      -164.1957
  22   2.0000      -6.030194      -164.0899
  23   2.0000      -6.026328      -163.9847
  24   2.0000      -1.010290       -27.4914
  25   2.0000      -0.986096       -26.8330
  26   2.0000      -0.915402       -24.9094
  27   2.0000      -0.910093       -24.7649
  28   2.0000      -0.866826       -23.5875
  29   2.0000      -0.857774       -23.3412
  30   2.0000      -0.841776       -22.9059
  31   2.0000      -0.813152       -22.1270
  32   2.0000      -0.789722       -21.4894
  33   2.0000      -0.771436       -20.9918
  34   2.0000      -0.714305       -19.4372
  35   2.0000      -0.696963       -18.9653
  36   2.0000      -0.689340       -18.7579
  37   2.0000      -0.660021       -17.9601
  38   2.0000      -0.644221       -17.5301
  39   2.0000      -0.620221       -16.8771
  40   2.0000      -0.600660       -16.3448
  41   2.0000      -0.576703       -15.6929
  42   2.0000      -0.564273       -15.3546
  43   2.0000      -0.560636       -15.2557
  44   2.0000      -0.540692       -14.7130
  45   2.0000      -0.527327       -14.3493
  46   2.0000      -0.517888       -14.0925
  47   2.0000      -0.507976       -13.8227
  48   2.0000      -0.502035       -13.6611
  49   2.0000      -0.500260       -13.6128
  50   2.0000      -0.492552       -13.4030
  51   2.0000      -0.482283       -13.1236
  52   2.0000      -0.478171       -13.0117
  53   2.0000      -0.468968       -12.7613
  54   2.0000      -0.457283       -12.4433
  55   2.0000      -0.452452       -12.3119
  56   2.0000      -0.444903       -12.1064
  57   2.0000      -0.439783       -11.9671
  58   2.0000      -0.430112       -11.7039
  59   2.0000      -0.425907       -11.5895
  60   2.0000      -0.419308       -11.4100
  61   2.0000      -0.412314       -11.2196
  62   2.0000      -0.409385       -11.1399
  63   2.0000      -0.344993        -9.3877
  64   2.0000      -0.337061        -9.1719
  65   2.0000      -0.325685        -8.8624
  66   2.0000      -0.284576        -7.7437
  67   0.0000       0.023791         0.6474
  68   0.0000       0.073018         1.9869
  69   0.0000       0.109881         2.9900
  70   0.0000       0.126462         3.4412
  71   0.0000       0.136229         3.7070

MULLIKEN ATOMIC CHARGES
-----------------------
   0 S :    0.089140
   1 C :   -0.132428
   2 C :   -0.088065
   3 C :   -0.004105
   4 C :   -0.121697
   5 H :    0.018181
   6 C :    0.072011
   7 H :    0.020384
   8 H :    0.018311
   9 C :   -0.109040
  10 H :    0.041875
  11 H :    0.039188
  12 C :   -0.023263
  13 H :    0.036246
  14 H :    0.025951
  15 H :    0.035799
  16 S :    0.135015
  17 C :   -0.064728
  18 C :   -0.039850
  19 C :    0.016608
  20 C :   -0.188048
  21 H :   -0.017297
  22 C :    0.030172
  23 H :    0.041948
  24 H :    0.040020
  25 C :   -0.093857
  26 H :    0.030001
  27 H :    0.028651
  28 C :   -0.006929
  29 H :    0.012756
  30 H :    0.030976
  31 H :    0.019736
  32 H :    0.058267
  33 H :    0.048070
Sum of atomic charges:   -0.0000000

LOEWDIN ATOMIC CHARGES
----------------------
   0 S :    0.381200
   1 C :   -0.200188
   2 C :   -0.055697
   3 C :   -0.074297
   4 C :   -0.177496
   5 H :    0.035675
   6 C :   -0.036648
   7 H :    0.030519
   8 H :    0.028081
   9 C :   -0.040197
  10 H :    0.029548
  11 H :    0.020548
  12 C :   -0.060879
  13 H :    0.021293
  14 H :    0.026200
  15 H :    0.030884
  16 S :    0.454764
  17 C :   -0.211253
  18 C :   -0.069681
  19 C :   -0.051258
  20 C :   -0.199859
  21 H :    0.015995
  22 C :   -0.034347
  23 H :    0.038362
  24 H :    0.031098
  25 C :   -0.037882
  26 H :    0.025391
  27 H :    0.020473
  28 C :   -0.061435
  29 H :    0.021574
  30 H :    0.022904
  31 H :    0.021773
  32 H :    0.028313
  33 H :    0.026523

  Mayer bond orders larger than 0.100000
B(  0-S ,  1-C ) :   1.1318 B(  0-S ,  4-C ) :   1.1548 B(  1-C ,  2-C ) :   1.5868
B(  1-C ,  4-C ) :   0.1118 B(  1-C , 32-H ) :   0.9723 B(  2-C ,  3-C ) :   1.2602
B(  2-C ,  6-C ) :   1.0008 B(  3-C ,  4-C ) :   1.5673 B(  3-C ,  5-H ) :   0.9876
B(  4-C , 20-C ) :   1.0379 B(  6-C ,  7-H ) :   0.9279 B(  6-C ,  8-H ) :   0.9294
B(  6-C ,  9-C ) :   1.1003 B(  9-C , 10-H ) :   0.9505 B(  9-C , 11-H ) :   0.9523
B(  9-C , 12-C ) :   1.0629 B( 12-C , 13-H ) :   0.9785 B( 12-C , 14-H ) :   0.9755
B( 12-C , 15-H ) :   0.9758 B( 16-S , 17-C ) :   1.1941 B( 16-S , 20-C ) :   1.1705
B( 17-C , 18-C ) :   1.5372 B( 17-C , 20-C ) :   0.1069 B( 17-C , 33-H ) :   0.9698
B( 18-C , 19-C ) :   1.2956 B( 18-C , 21-H ) :   0.9984 B( 19-C , 20-C ) :   1.5486
B( 19-C , 22-C ) :   1.0199 B( 22-C , 23-H ) :   0.9424 B( 22-C , 24-H ) :   0.9355
B( 22-C , 25-C ) :   1.0846 B( 25-C , 26-H ) :   0.9593 B( 25-C , 27-H ) :   0.9578
B( 25-C , 28-C ) :   1.0674 B( 28-C , 29-H ) :   0.9746 B( 28-C , 30-H ) :   0.9778
B( 28-C , 31-H ) :   0.9783

Dispersion correction           -0.013612504
FINAL SINGLE POINT ENERGY     -1339.860369665940

DIPOLE MOMENT
-------------
                                X             Y             Z
Electronic contribution:     11.05604      19.88723      16.49766
Nuclear contribution   :    -11.40923     -20.40065     -16.86818
                        -----------------------------------------
Total Dipole Moment    :     -0.35319      -0.51343      -0.37052
                        -----------------------------------------
Magnitude (a.u.)       :      0.72501
Magnitude (Debye)      :      1.84282

Rotational constants in cm-1:     0.018092     0.008348     0.006337
Rotational constants in MHz :   542.391771   250.270449   189.989175

                             ****ORCA TERMINATED NORMALLY****
TOTAL RUN TIME: 0 days 0 hours 0 minutes 31 seconds 958 msec
