                         Program Version 4.2.1 -  RELEASE  -
|  1> ! wB97X-D3 SP def2-SVP
|  2> %pal
|  3> nprocs 16
|  4> end
|  5>
|  6> * xyz 0 1
|  7> S 	 14.7921 	 -9.98277 	 80.1318
|  8> C 	 14.8184 	 -8.57717 	 79.1391
|  9> C 	 14.9676 	 -8.88617 	 77.7997
| 10> C 	 15.0013 	 -10.2787 	 77.5686
| 11> C 	 14.8768 	 -10.9893 	 78.747
| 12> H 	 15.3043 	 -10.8669 	 76.8014
| 13> C 	 14.7283 	 -7.85895 	 76.7178
| 14> H 	 14.0812 	 -7.03215 	 77.004
| 15> H 	 14.3504 	 -8.36898 	 75.9003
| 16> C 	 16.0373 	 -7.18165 	 76.1856
| 17> H 	 15.7404 	 -6.30799 	 75.6216
| 18> H 	 16.669 	 -6.79591 	 77.01
| 19> C 	 17.0059 	 -8.19587 	 75.4253
| 20> H 	 16.5715 	 -8.75537 	 74.5562
| 21> H 	 17.9112 	 -7.73677 	 75.0609
| 22> H 	 17.3381 	 -8.88496 	 76.2109
| 23> S 	 13.492 	 -13.2814 	 79.4525
| 24> C 	 14.3035 	 -14.8818 	 79.3043
| 25> C 	 15.5508 	 -14.7527 	 78.7651
| 26> C 	 15.8988 	 -13.4113 	 78.5247
| 27> C 	 14.9694 	 -12.4743 	 78.9341
| 28> H 	 16.1456 	 -15.6416 	 78.5385
| 29> C 	 17.2204 	 -12.9866 	 77.9494
| 30> H 	 17.1674 	 -11.985 	 77.4297
| 31> H 	 17.5546 	 -13.5645 	 77.0974
| 32> C 	 18.3939 	 -12.9444 	 78.9547
| 33> H 	 18.5297 	 -13.997 	 79.3685
| 34> H 	 18.2509 	 -12.2293 	 79.7356
| 35> C 	 19.8145 	 -12.6912 	 78.3209
| 36> H 	 20.5711 	 -12.7012 	 79.0719
| 37> H 	 19.7414 	 -11.7479 	 77.821
| 38> H 	 20.086 	 -13.4426 	 77.686
| 39> H 	 14.6027 	 -7.58687 	 79.5461
| 40> H 	 13.8289 	 -15.8227 	 79.4605
| 41> *
| 42>
| 43>                          ****END OF INPUT****

CARTESIAN COORDINATES (ANGSTROEM)
---------------------------------
  S     14.792100   -9.982770   80.131800
  C     14.818400   -8.577170   79.139100
  C     14.967600   -8.886170   77.799700
  C     15.001300  -10.278700   77.568600
  C     14.876800  -10.989300   78.747000
  H     15.304300  -10.866900   76.801400
  C     14.728300   -7.858950   76.717800
  H     14.081200   -7.032150   77.004000
  H     14.350400   -8.368980   75.900300
  C     16.037300   -7.181650   76.185600
  H     15.740400   -6.307990   75.621600
  H     16.669000   -6.795910   77.010000
  C     17.005900   -8.195870   75.425300
  H     16.571500   -8.755370   74.556200
  H     17.911200   -7.736770   75.060900
  H     17.338100   -8.884960   76.210900
  S     13.492000  -13.281400   79.452500
  C     14.303500  -14.881800   79.304300
  C     15.550800  -14.752700   78.765100
  C     15.898800  -13.411300   78.524700
  C     14.969400  -12.474300   78.934100
  H     16.145600  -15.641600   78.538500
  C     17.220400  -12.986600   77.949400
  H     17.167400  -11.985000   77.429700
  H     17.554600  -13.564500   77.097400
  C     18.393900  -12.944400   78.954700
  H     18.529700  -13.997000   79.368500
  H     18.250900  -12.229300   79.735600
  C     19.814500  -12.691200   78.320900
  H     20.571100  -12.701200   79.071900
  H     19.741400  -11.747900   77.821000
  H     20.086000  -13.442600   77.686000
  H     14.602700   -7.586870   79.546100
  H     13.828900  -15.822700   79.460500

 Total Charge           Charge          ....    0
 Multiplicity           Mult            ....    1
 Number of Electrons    NEL             ....  134
 Basis Dimension        Dim             ....  322

ORBITAL ENERGIES
----------------

  NO   OCC          E(Eh)            E(eV)
   0   2.0000     -88.966865     -2420.9115
   1   2.0000     -88.964598     -2420.8498
   2   2.0000     -10.328169      -281.0438
   3   2.0000     -10.327695      -281.0309
   4   2.0000     -10.318847      -280.7901
   5   2.0000     -10.312161      -280.6082
   6   2.0000     -10.302332      -280.3407
   7   2.0000     -10.300912      -280.3021
   8   2.0000     -10.294956      -280.1400
   9   2.0000     -10.291598      -280.0486
  10   2.0000     -10.290917      -280.0301
  11   2.0000     -10.287352      -279.9331
  12   2.0000     -10.287220      -279.9295
  13   2.0000     -10.286903      -279.9209
  14   2.0000     -10.282925      -279.8126
  15   2.0000     -10.266725      -279.3718
  16   2.0000      -8.082805      -219.9443
  17   2.0000      -8.078544      -219.8283
  18   2.0000      -6.041030      -164.3848
  19   2.0000      -6.037157      -164.2794
  20   2.0000      -6.037079      -164.2773
  21   2.0000      -6.033859      -164.1897
  22   2.0000      -6.033185      -164.1713
  23   2.0000      -6.029212      -164.0632
  24   2.0000      -1.011224       -27.5168
  25   2.0000      -0.987633       -26.8749
  26   2.0000      -0.907841       -24.7036
  27   2.0000      -0.902041       -24.5458
  28   2.0000      -0.867132       -23.5959
  29   2.0000      -0.851230       -23.1632
  30   2.0000      -0.845863       -23.0171
  31   2.0000      -0.818855       -22.2822
  32   2.0000      -0.783611       -21.3232
  33   2.0000      -0.771505       -20.9937
  34   2.0000      -0.702917       -19.1273
  35   2.0000      -0.699255       -19.0277
  36   2.0000      -0.692368       -18.8403
  37   2.0000      -0.664593       -18.0845
  38   2.0000      -0.654342       -17.8056
  39   2.0000      -0.615747       -16.7553
  40   2.0000      -0.598996       -16.2995
  41   2.0000      -0.576008       -15.6740
  42   2.0000      -0.563338       -15.3292
  43   2.0000      -0.545648       -14.8478
  44   2.0000      -0.537627       -14.6296
  45   2.0000      -0.524886       -14.2829
  46   2.0000      -0.520846       -14.1729
  47   2.0000      -0.516209       -14.0468
  48   2.0000      -0.500268       -13.6130
  49   2.0000      -0.495636       -13.4869
  50   2.0000      -0.491427       -13.3724
  51   2.0000      -0.482074       -13.1179
  52   2.0000      -0.471635       -12.8338
  53   2.0000      -0.466998       -12.7077
  54   2.0000      -0.460412       -12.5284
  55   2.0000      -0.446473       -12.1491
  56   2.0000      -0.443513       -12.0686
  57   2.0000      -0.435538       -11.8516
  58   2.0000      -0.433580       -11.7983
  59   2.0000      -0.427565       -11.6346
  60   2.0000      -0.419199       -11.4070
  61   2.0000      -0.417700       -11.3662
  62   2.0000      -0.407670       -11.0933
  63   2.0000      -0.343341        -9.3428
  64   2.0000      -0.333232        -9.0677
  65   2.0000      -0.328310        -8.9338
  66   2.0000      -0.301679        -8.2091
  67   0.0000       0.035761         0.9731
  68   0.0000       0.064542         1.7563
  69   0.0000       0.110752         3.0137
  70   0.0000       0.115184         3.1343
  71   0.0000       0.127285         3.4636

MULLIKEN ATOMIC CHARGES
-----------------------
   0 S :    0.129303
   1 C :   -0.125404
   2 C :   -0.074863
   3 C :    0.098873
   4 C :   -0.195262
   5 H :   -0.025354
   6 C :    0.098861
   7 H :    0.031628
   8 H :    0.008336
   9 C :   -0.087143
  10 H :    0.028859
  11 H :    0.029310
  12 C :   -0.088627
  13 H :    0.041446
  14 H :    0.033722
  15 H :    0.040886
  16 S :    0.092468
  17 C :   -0.080651
  18 C :   -0.029885
  19 C :   -0.003348
  20 C :   -0.150210
  21 H :    0.026931
  22 C :    0.050265
  23 H :    0.014991
  24 H :    0.010502
  25 C :   -0.099738
  26 H :    0.029039
  27 H :    0.035376
  28 C :   -0.004515
  29 H :    0.026764
  30 H :    0.026857
  31 H :    0.009364
  32 H :    0.052989
  33 H :    0.048227
Sum of atomic charges:   -0.0000000

LOEWDIN ATOMIC CHARGES
----------------------
   0 S :    0.439430
   1 C :   -0.203837
   2 C :   -0.063079
   3 C :   -0.052915
   4 C :   -0.200743
   5 H :    0.015596
   6 C :   -0.020521
   7 H :    0.033570
   8 H :    0.021433
   9 C :   -0.036351
  10 H :    0.017214
  11 H :    0.025138
  12 C :   -0.075776
  13 H :    0.026367
  14 H :    0.023407
  15 H :    0.027538
  16 S :    0.382112
  17 C :   -0.160023
  18 C :   -0.068039
  19 C :   -0.060700
  20 C :   -0.195647
  21 H :    0.038800
  22 C :   -0.042506
  23 H :    0.031625
  24 H :    0.026682
  25 C :   -0.032940
  26 H :    0.026676
  27 H :    0.019661
  28 C :   -0.052702
  29 H :    0.025200
  30 H :    0.021376
  31 H :    0.010229
  32 H :    0.028936
  33 H :    0.024793

  Mayer bond orders larger than 0.100000
B(  0-S ,  1-C ) :   1.1555 B(  0-S ,  4-C ) :   1.1898 B(  1-C ,  2-C ) :   1.5920
B(  1-C , 32-H ) :   0.9694 B(  2-C ,  3-C ) :   1.2299 B(  2-C ,  6-C ) :   1.0215
B(  3-C ,  4-C ) :   1.5765 B(  3-C ,  5-H ) :   1.0082 B(  4-C , 20-C ) :   0.9710
B(  6-C ,  7-H ) :   0.9499 B(  6-C ,  8-H ) :   0.9430 B(  6-C ,  9-C ) :   1.0594
B(  9-C , 10-H ) :   0.9629 B(  9-C , 11-H ) :   0.9601 B(  9-C , 12-C ) :   1.0612
B( 12-C , 13-H ) :   0.9785 B( 12-C , 14-H ) :   0.9768 B( 12-C , 15-H ) :   0.9758
B( 16-S , 17-C ) :   1.1448 B( 16-S , 20-C ) :   1.1414 B( 17-C , 18-C ) :   1.6187
B( 17-C , 20-C ) :   0.1002 B( 17-C , 33-H ) :   0.9699 B( 18-C , 19-C ) :   1.2329
B( 18-C , 21-H ) :   0.9920 B( 19-C , 20-C ) :   1.6176 B( 19-C , 22-C ) :   1.0526
B( 22-C , 23-H ) :   0.9283 B( 22-C , 24-H ) :   0.9326 B( 22-C , 25-C ) :   1.0598
B( 25-C , 26-H ) :   0.9594 B( 25-C , 27-H ) :   0.9606 B( 25-C , 28-C ) :   1.0776
B( 28-C , 29-H ) :   0.9738 B( 28-C , 30-H ) :   0.9773 B( 28-C , 31-H ) :   0.9755

Dispersion correction           -0.014600517
FINAL SINGLE POINT ENERGY     -1339.868804825132

DIPOLE MOMENT
-------------
                                X             Y             Z
Electronic contribution:    -22.38620      -8.38760      16.43404
Nuclear contribution   :     22.76101       8.40870     -16.87144
                        -----------------------------------------
Total Dipole Moment    :      0.37481       0.02109      -0.43740
                        -----------------------------------------
Magnitude (a.u.)       :      0.57641
Magnitude (Debye)      :      1.46511

Rotational constants in cm-1:     0.017308     0.009341     0.007157
Rotational constants in MHz :   518.881339   280.030903   214.572264

                             ****ORCA TERMINATED NORMALLY****
TOTAL RUN TIME: 0 days 0 hours 0 minutes 30 seconds 947 msec
