                         Program Version 4.2.1 -  RELEASE  -
|  1> ! wB97X-D3 SP def2-SVP
|  2> %pal
|  3> nprocs 16
|  4> end
|  5>
|  6> * xyz 0 1
|  7> S 	 -18.2915 	 -5.64194 	 82.9398
|  8> C 	 -17.0492 	 -5.98637 	 81.7302
|  9> C 	 -16.0402 	 -6.76123 	 82.2149
| 10> C 	 -16.2992 	 -7.08095 	 83.6172
| 11> C 	 -17.3087 	 -6.39992 	 84.2401
| 12> H 	 -15.6029 	 -7.67039 	 84.2194
| 13> C 	 -14.7379 	 -7.189 	 81.5614
| 14> H 	 -14.0799 	 -7.16189 	 82.4198
| 15> H 	 -14.3296 	 -6.34305 	 80.9404
| 16> C 	 -14.7915 	 -8.55259 	 80.7945
| 17> H 	 -15.0644 	 -9.3433 	 81.4228
| 18> H 	 -15.584 	 -8.53109 	 80.0442
| 19> C 	 -13.4446 	 -8.85853 	 80.1039
| 20> H 	 -12.6009 	 -8.87672 	 80.8388
| 21> H 	 -13.4855 	 -9.79783 	 79.4998
| 22> H 	 -13.2544 	 -8.13332 	 79.3637
| 23> S 	 -18.2834 	 -7.90979 	 86.2075
| 24> C 	 -18.7669 	 -7.17687 	 87.665
| 25> C 	 -18.3367 	 -5.86166 	 87.7451
| 26> C 	 -17.8187 	 -5.37474 	 86.5195
| 27> C 	 -17.7892 	 -6.36196 	 85.57
| 28> H 	 -18.596 	 -5.20791 	 88.5754
| 29> C 	 -17.3012 	 -3.92447 	 86.3517
| 30> H 	 -18.1851 	 -3.33415 	 86.7038
| 31> H 	 -17.2086 	 -3.7893 	 85.297
| 32> C 	 -15.9724 	 -3.74614 	 87.0166
| 33> H 	 -15.333 	 -4.38078 	 86.4556
| 34> H 	 -15.9634 	 -4.05606 	 88.0715
| 35> C 	 -15.4023 	 -2.33867 	 86.7575
| 36> H 	 -14.3765 	 -2.30702 	 87.0834
| 37> H 	 -15.8823 	 -1.54715 	 87.2601
| 38> H 	 -15.5175 	 -2.10651 	 85.6685
| 39> H 	 -16.9641 	 -5.52157 	 80.7364
| 40> H 	 -19.1987 	 -7.72754 	 88.4144
| 41> *
| 42>
| 43>                          ****END OF INPUT****

CARTESIAN COORDINATES (ANGSTROEM)
---------------------------------
  S    -18.291500   -5.641940   82.939800
  C    -17.049200   -5.986370   81.730200
  C    -16.040200   -6.761230   82.214900
  C    -16.299200   -7.080950   83.617200
  C    -17.308700   -6.399920   84.240100
  H    -15.602900   -7.670390   84.219400
  C    -14.737900   -7.189000   81.561400
  H    -14.079900   -7.161890   82.419800
  H    -14.329600   -6.343050   80.940400
  C    -14.791500   -8.552590   80.794500
  H    -15.064400   -9.343300   81.422800
  H    -15.584000   -8.531090   80.044200
  C    -13.444600   -8.858530   80.103900
  H    -12.600900   -8.876720   80.838800
  H    -13.485500   -9.797830   79.499800
  H    -13.254400   -8.133320   79.363700
  S    -18.283400   -7.909790   86.207500
  C    -18.766900   -7.176870   87.665000
  C    -18.336700   -5.861660   87.745100
  C    -17.818700   -5.374740   86.519500
  C    -17.789200   -6.361960   85.570000
  H    -18.596000   -5.207910   88.575400
  C    -17.301200   -3.924470   86.351700
  H    -18.185100   -3.334150   86.703800
  H    -17.208600   -3.789300   85.297000
  C    -15.972400   -3.746140   87.016600
  H    -15.333000   -4.380780   86.455600
  H    -15.963400   -4.056060   88.071500
  C    -15.402300   -2.338670   86.757500
  H    -14.376500   -2.307020   87.083400
  H    -15.882300   -1.547150   87.260100
  H    -15.517500   -2.106510   85.668500
  H    -16.964100   -5.521570   80.736400
  H    -19.198700   -7.727540   88.414400

 Total Charge           Charge          ....    0
 Multiplicity           Mult            ....    1
 Number of Electrons    NEL             ....  134
 Basis Dimension        Dim             ....  322

ORBITAL ENERGIES
----------------

  NO   OCC          E(Eh)            E(eV)
   0   2.0000     -88.963503     -2420.8200
   1   2.0000     -88.958362     -2420.6801
   2   2.0000     -10.326826      -281.0072
   3   2.0000     -10.318059      -280.7687
   4   2.0000     -10.312087      -280.6062
   5   2.0000     -10.310892      -280.5736
   6   2.0000     -10.301145      -280.3084
   7   2.0000     -10.299560      -280.2653
   8   2.0000     -10.298988      -280.2497
   9   2.0000     -10.294573      -280.1296
  10   2.0000     -10.292235      -280.0659
  11   2.0000     -10.290474      -280.0180
  12   2.0000     -10.287864      -279.9470
  13   2.0000     -10.282988      -279.8143
  14   2.0000     -10.281349      -279.7697
  15   2.0000     -10.274035      -279.5707
  16   2.0000      -8.079581      -219.8566
  17   2.0000      -8.072356      -219.6600
  18   2.0000      -6.037801      -164.2969
  19   2.0000      -6.033949      -164.1921
  20   2.0000      -6.031144      -164.1158
  21   2.0000      -6.030510      -164.0985
  22   2.0000      -6.027034      -164.0039
  23   2.0000      -6.022779      -163.8882
  24   2.0000      -1.011429       -27.5224
  25   2.0000      -0.981810       -26.7164
  26   2.0000      -0.915521       -24.9126
  27   2.0000      -0.907275       -24.6882
  28   2.0000      -0.873271       -23.7629
  29   2.0000      -0.854253       -23.2454
  30   2.0000      -0.842037       -22.9130
  31   2.0000      -0.810762       -22.0620
  32   2.0000      -0.784049       -21.3351
  33   2.0000      -0.770838       -20.9756
  34   2.0000      -0.709386       -19.3034
  35   2.0000      -0.705671       -19.2023
  36   2.0000      -0.699532       -19.0352
  37   2.0000      -0.668560       -18.1924
  38   2.0000      -0.634975       -17.2785
  39   2.0000      -0.614893       -16.7321
  40   2.0000      -0.601773       -16.3751
  41   2.0000      -0.567307       -15.4372
  42   2.0000      -0.563413       -15.3312
  43   2.0000      -0.555998       -15.1295
  44   2.0000      -0.530918       -14.4470
  45   2.0000      -0.525203       -14.2915
  46   2.0000      -0.518559       -14.1107
  47   2.0000      -0.516081       -14.0433
  48   2.0000      -0.506496       -13.7825
  49   2.0000      -0.499758       -13.5991
  50   2.0000      -0.490913       -13.3584
  51   2.0000      -0.475996       -12.9525
  52   2.0000      -0.466362       -12.6903
  53   2.0000      -0.460233       -12.5236
  54   2.0000      -0.456126       -12.4118
  55   2.0000      -0.450700       -12.2642
  56   2.0000      -0.446232       -12.1426
  57   2.0000      -0.441114       -12.0033
  58   2.0000      -0.438059       -11.9202
  59   2.0000      -0.426725       -11.6118
  60   2.0000      -0.425177       -11.5697
  61   2.0000      -0.414481       -11.2786
  62   2.0000      -0.412353       -11.2207
  63   2.0000      -0.336381        -9.1534
  64   2.0000      -0.333501        -9.0750
  65   2.0000      -0.323817        -8.8115
  66   2.0000      -0.301688        -8.2094
  67   0.0000       0.037389         1.0174
  68   0.0000       0.063703         1.7335
  69   0.0000       0.111063         3.0222
  70   0.0000       0.114237         3.1085
  71   0.0000       0.132073         3.5939

MULLIKEN ATOMIC CHARGES
-----------------------
   0 S :    0.086347
   1 C :   -0.119787
   2 C :   -0.101168
   3 C :    0.024313
   4 C :   -0.163721
   5 H :    0.011493
   6 C :    0.040467
   7 H :    0.020121
   8 H :    0.031802
   9 C :   -0.027765
  10 H :    0.019444
  11 H :    0.027050
  12 C :   -0.050597
  13 H :    0.040354
  14 H :    0.038855
  15 H :    0.019398
  16 S :    0.125677
  17 C :   -0.054898
  18 C :   -0.037086
  19 C :   -0.051783
  20 C :   -0.182720
  21 H :    0.021285
  22 C :    0.098043
  23 H :    0.037446
  24 H :    0.011179
  25 C :   -0.060332
  26 H :    0.021017
  27 H :    0.036643
  28 C :   -0.019368
  29 H :    0.031809
  30 H :    0.017805
  31 H :    0.031762
  32 H :    0.050235
  33 H :    0.026680
Sum of atomic charges:    0.0000000

LOEWDIN ATOMIC CHARGES
----------------------
   0 S :    0.365166
   1 C :   -0.192897
   2 C :   -0.068474
   3 C :   -0.066344
   4 C :   -0.181165
   5 H :    0.027461
   6 C :   -0.033318
   7 H :    0.029528
   8 H :    0.036519
   9 C :   -0.030671
  10 H :    0.017894
  11 H :    0.026602
  12 C :   -0.066973
  13 H :    0.029385
  14 H :    0.031833
  15 H :    0.016569
  16 S :    0.435654
  17 C :   -0.176390
  18 C :   -0.074852
  19 C :   -0.045022
  20 C :   -0.217858
  21 H :    0.031722
  22 C :   -0.024570
  23 H :    0.034919
  24 H :    0.022980
  25 C :   -0.036405
  26 H :    0.026877
  27 H :    0.026277
  28 C :   -0.060334
  29 H :    0.024730
  30 H :    0.015502
  31 H :    0.032345
  32 H :    0.033264
  33 H :    0.010046

  Mayer bond orders larger than 0.100000
B(  0-S ,  1-C ) :   1.1187 B(  0-S ,  4-C ) :   1.1047 B(  1-C ,  2-C ) :   1.6692
B(  1-C , 32-H ) :   0.9594 B(  2-C ,  3-C ) :   1.2034 B(  2-C ,  6-C ) :   1.0094
B(  3-C ,  4-C ) :   1.6418 B(  3-C ,  5-H ) :   0.9852 B(  4-C , 20-C ) :   1.0440
B(  6-C ,  7-H ) :   0.9402 B(  6-C ,  8-H ) :   0.9477 B(  6-C ,  9-C ) :   1.0478
B(  9-C , 10-H ) :   0.9568 B(  9-C , 11-H ) :   0.9571 B(  9-C , 12-C ) :   1.0820
B( 12-C , 13-H ) :   0.9758 B( 12-C , 14-H ) :   0.9736 B( 12-C , 15-H ) :   0.9757
B( 16-S , 17-C ) :   1.1832 B( 16-S , 20-C ) :   1.1488 B( 17-C , 18-C ) :   1.5750
B( 17-C , 20-C ) :   0.1015 B( 17-C , 33-H ) :   0.9813 B( 18-C , 19-C ) :   1.2607
B( 18-C , 21-H ) :   0.9861 B( 19-C , 20-C ) :   1.5933 B( 19-C , 22-C ) :   1.0289
B( 22-C , 23-H ) :   0.9324 B( 22-C , 24-H ) :   0.9215 B( 22-C , 25-C ) :   1.0754
B( 25-C , 26-H ) :   0.9459 B( 25-C , 27-H ) :   0.9586 B( 25-C , 28-C ) :   1.0863
B( 28-C , 29-H ) :   0.9745 B( 28-C , 30-H ) :   0.9755 B( 28-C , 31-H ) :   0.9707

Dispersion correction           -0.013779686
FINAL SINGLE POINT ENERGY     -1339.876720218557

DIPOLE MOMENT
-------------
                                X             Y             Z
Electronic contribution:    -21.06581      -6.45842       6.50664
Nuclear contribution   :     21.58283       6.57433      -6.37413
                        -----------------------------------------
Total Dipole Moment    :      0.51702       0.11591       0.13251
                        -----------------------------------------
Magnitude (a.u.)       :      0.54617
Magnitude (Debye)      :      1.38826

Rotational constants in cm-1:     0.019171     0.007471     0.006506
Rotational constants in MHz :   574.741976   223.961931   195.049882

                             ****ORCA TERMINATED NORMALLY****
TOTAL RUN TIME: 0 days 0 hours 0 minutes 33 seconds 742 msec
