                         Program Version 4.2.1 -  RELEASE  -
|  1> ! wB97X-D3 SP def2-SVP
|  2> %pal
|  3> nprocs 16
|  4> end
|  5>
|  6> * xyz 0 1
|  7> S 	 -30.7779 	 70.3366 	 111.609
|  8> C 	 -31.8413 	 69.2234 	 110.879
|  9> C 	 -32.6679 	 69.8191 	 109.958
| 10> C 	 -32.4823 	 71.2055 	 109.853
| 11> C 	 -31.4792 	 71.684 	 110.674
| 12> H 	 -33.1243 	 71.938 	 109.348
| 13> C 	 -33.8269 	 69.0586 	 109.277
| 14> H 	 -34.6387 	 69.3227 	 109.933
| 15> H 	 -33.78 	 67.9967 	 109.458
| 16> C 	 -34.0736 	 69.4082 	 107.781
| 17> H 	 -34.3836 	 70.455 	 107.602
| 18> H 	 -33.0899 	 69.3268 	 107.374
| 19> C 	 -35.0291 	 68.3341 	 107.2
| 20> H 	 -36.0187 	 68.4318 	 107.515
| 21> H 	 -35.0896 	 68.3218 	 106.118
| 22> H 	 -34.5283 	 67.414 	 107.322
| 23> S 	 -30.7186 	 73.6777 	 112.494
| 24> C 	 -30.408 	 75.2585 	 111.844
| 25> C 	 -30.482 	 75.3105 	 110.428
| 26> C 	 -30.8531 	 74.0548 	 109.851
| 27> C 	 -31.0182 	 73.052 	 110.81
| 28> H 	 -30.2451 	 76.3114 	 109.989
| 29> C 	 -30.91 	 73.8303 	 108.358
| 30> H 	 -31.8754 	 73.6966 	 108.121
| 31> H 	 -30.2243 	 73.0043 	 108.179
| 32> C 	 -30.4052 	 75.0543 	 107.538
| 33> H 	 -29.3624 	 75.2871 	 107.872
| 34> H 	 -30.9065 	 76.0697 	 107.771
| 35> C 	 -30.472 	 74.965 	 106.015
| 36> H 	 -29.7392 	 74.3324 	 105.587
| 37> H 	 -30.2026 	 75.94 	 105.596
| 38> H 	 -31.5366 	 74.7196 	 105.878
| 39> H 	 -31.8388 	 68.1966 	 111.1
| 40> H 	 -30.1285 	 76.0449 	 112.522
| 41> *
| 42>
| 43>                          ****END OF INPUT****

CARTESIAN COORDINATES (ANGSTROEM)
---------------------------------
  S    -30.777900   70.336600  111.609000
  C    -31.841300   69.223400  110.879000
  C    -32.667900   69.819100  109.958000
  C    -32.482300   71.205500  109.853000
  C    -31.479200   71.684000  110.674000
  H    -33.124300   71.938000  109.348000
  C    -33.826900   69.058600  109.277000
  H    -34.638700   69.322700  109.933000
  H    -33.780000   67.996700  109.458000
  C    -34.073600   69.408200  107.781000
  H    -34.383600   70.455000  107.602000
  H    -33.089900   69.326800  107.374000
  C    -35.029100   68.334100  107.200000
  H    -36.018700   68.431800  107.515000
  H    -35.089600   68.321800  106.118000
  H    -34.528300   67.414000  107.322000
  S    -30.718600   73.677700  112.494000
  C    -30.408000   75.258500  111.844000
  C    -30.482000   75.310500  110.428000
  C    -30.853100   74.054800  109.851000
  C    -31.018200   73.052000  110.810000
  H    -30.245100   76.311400  109.989000
  C    -30.910000   73.830300  108.358000
  H    -31.875400   73.696600  108.121000
  H    -30.224300   73.004300  108.179000
  C    -30.405200   75.054300  107.538000
  H    -29.362400   75.287100  107.872000
  H    -30.906500   76.069700  107.771000
  C    -30.472000   74.965000  106.015000
  H    -29.739200   74.332400  105.587000
  H    -30.202600   75.940000  105.596000
  H    -31.536600   74.719600  105.878000
  H    -31.838800   68.196600  111.100000
  H    -30.128500   76.044900  112.522000

 Total Charge           Charge          ....    0
 Multiplicity           Mult            ....    1
 Number of Electrons    NEL             ....  134
 Basis Dimension        Dim             ....  322

ORBITAL ENERGIES
----------------

  NO   OCC          E(Eh)            E(eV)
   0   2.0000     -88.965489     -2420.8740
   1   2.0000     -88.963789     -2420.8278
   2   2.0000     -10.329210      -281.0721
   3   2.0000     -10.328865      -281.0627
   4   2.0000     -10.318924      -280.7922
   5   2.0000     -10.308271      -280.5023
   6   2.0000     -10.303583      -280.3747
   7   2.0000     -10.300926      -280.3025
   8   2.0000     -10.296556      -280.1835
   9   2.0000     -10.293919      -280.1118
  10   2.0000     -10.292407      -280.0706
  11   2.0000     -10.289535      -279.9925
  12   2.0000     -10.289044      -279.9791
  13   2.0000     -10.288084      -279.9530
  14   2.0000     -10.278218      -279.6845
  15   2.0000     -10.272206      -279.5209
  16   2.0000      -8.079452      -219.8531
  17   2.0000      -8.078897      -219.8380
  18   2.0000      -6.037838      -164.2979
  19   2.0000      -6.037348      -164.2846
  20   2.0000      -6.034119      -164.1967
  21   2.0000      -6.033312      -164.1748
  22   2.0000      -6.030361      -164.0945
  23   2.0000      -6.029766      -164.0783
  24   2.0000      -1.003735       -27.3130
  25   2.0000      -0.979648       -26.6576
  26   2.0000      -0.910603       -24.7788
  27   2.0000      -0.907196       -24.6861
  28   2.0000      -0.869306       -23.6550
  29   2.0000      -0.854154       -23.2427
  30   2.0000      -0.847571       -23.0636
  31   2.0000      -0.811445       -22.0806
  32   2.0000      -0.787566       -21.4308
  33   2.0000      -0.770344       -20.9621
  34   2.0000      -0.712926       -19.3997
  35   2.0000      -0.698904       -19.0181
  36   2.0000      -0.693901       -18.8820
  37   2.0000      -0.649616       -17.6769
  38   2.0000      -0.641172       -17.4472
  39   2.0000      -0.619954       -16.8698
  40   2.0000      -0.597450       -16.2574
  41   2.0000      -0.580358       -15.7923
  42   2.0000      -0.571455       -15.5501
  43   2.0000      -0.559819       -15.2335
  44   2.0000      -0.531839       -14.4721
  45   2.0000      -0.525879       -14.3099
  46   2.0000      -0.520742       -14.1701
  47   2.0000      -0.511212       -13.9108
  48   2.0000      -0.507721       -13.8158
  49   2.0000      -0.498365       -13.5612
  50   2.0000      -0.487904       -13.2765
  51   2.0000      -0.481700       -13.1077
  52   2.0000      -0.469658       -12.7800
  53   2.0000      -0.464358       -12.6358
  54   2.0000      -0.457209       -12.4413
  55   2.0000      -0.452660       -12.3175
  56   2.0000      -0.447008       -12.1637
  57   2.0000      -0.435427       -11.8486
  58   2.0000      -0.426519       -11.6062
  59   2.0000      -0.421879       -11.4799
  60   2.0000      -0.419125       -11.4050
  61   2.0000      -0.416479       -11.3330
  62   2.0000      -0.413854       -11.2615
  63   2.0000      -0.351016        -9.5516
  64   2.0000      -0.334014        -9.0890
  65   2.0000      -0.329455        -8.9649
  66   2.0000      -0.281291        -7.6543
  67   0.0000       0.023886         0.6500
  68   0.0000       0.072509         1.9731
  69   0.0000       0.110046         2.9945
  70   0.0000       0.130327         3.5464
  71   0.0000       0.135917         3.6985

MULLIKEN ATOMIC CHARGES
-----------------------
   0 S :    0.108896
   1 C :   -0.108985
   2 C :   -0.072847
   3 C :   -0.001404
   4 C :   -0.156648
   5 H :    0.026767
   6 C :    0.059651
   7 H :    0.033975
   8 H :    0.004934
   9 C :   -0.079082
  10 H :    0.037934
  11 H :    0.028034
  12 C :   -0.005424
  13 H :    0.033086
  14 H :    0.016907
  15 H :    0.019172
  16 S :    0.098168
  17 C :   -0.097951
  18 C :   -0.062075
  19 C :   -0.074264
  20 C :   -0.149247
  21 H :    0.039432
  22 C :    0.200544
  23 H :   -0.002833
  24 H :    0.052931
  25 C :   -0.205946
  26 H :    0.026177
  27 H :    0.038280
  28 C :    0.011566
  29 H :    0.028736
  30 H :    0.028167
  31 H :    0.037420
  32 H :    0.028280
  33 H :    0.057648
Sum of atomic charges:   -0.0000000

LOEWDIN ATOMIC CHARGES
----------------------
   0 S :    0.407675
   1 C :   -0.206270
   2 C :   -0.065087
   3 C :   -0.068373
   4 C :   -0.182604
   5 H :    0.036598
   6 C :   -0.030353
   7 H :    0.032082
   8 H :    0.025184
   9 C :   -0.036179
  10 H :    0.024693
  11 H :    0.023237
  12 C :   -0.057946
  13 H :    0.020379
  14 H :    0.026301
  15 H :    0.024312
  16 S :    0.383718
  17 C :   -0.183629
  18 C :   -0.081848
  19 C :   -0.047906
  20 C :   -0.184366
  21 H :    0.042205
  22 C :   -0.016242
  23 H :    0.012947
  24 H :    0.046100
  25 C :   -0.055021
  26 H :    0.020217
  27 H :    0.028733
  28 C :   -0.060912
  29 H :    0.019152
  30 H :    0.030027
  31 H :    0.030705
  32 H :    0.018707
  33 H :    0.023762

  Mayer bond orders larger than 0.100000
B(  0-S ,  1-C ) :   1.1438 B(  0-S ,  4-C ) :   1.1510 B(  1-C ,  2-C ) :   1.5988
B(  1-C , 32-H ) :   0.9750 B(  2-C ,  3-C ) :   1.2548 B(  2-C ,  6-C ) :   1.0135
B(  3-C ,  4-C ) :   1.5652 B(  3-C ,  5-H ) :   0.9895 B(  4-C , 20-C ) :   1.0754
B(  6-C ,  7-H ) :   0.9355 B(  6-C ,  8-H ) :   0.9465 B(  6-C ,  9-C ) :   1.0418
B(  9-C , 10-H ) :   0.9544 B(  9-C , 11-H ) :   0.9632 B(  9-C , 12-C ) :   1.0863
B( 12-C , 13-H ) :   0.9782 B( 12-C , 14-H ) :   0.9711 B( 12-C , 15-H ) :   0.9715
B( 16-S , 17-C ) :   1.1742 B( 16-S , 20-C ) :   1.1255 B( 17-C , 18-C ) :   1.5779
B( 17-C , 20-C ) :   0.1093 B( 17-C , 33-H ) :   0.9659 B( 18-C , 19-C ) :   1.2414
B( 18-C , 21-H ) :   0.9843 B( 19-C , 20-C ) :   1.5968 B( 19-C , 22-C ) :   1.0169
B( 22-C , 23-H ) :   0.9077 B( 22-C , 24-H ) :   0.9297 B( 22-C , 25-C ) :   1.0910
B( 25-C , 26-H ) :   0.9491 B( 25-C , 27-H ) :   0.9520 B( 25-C , 28-C ) :   1.0767
B( 28-C , 29-H ) :   0.9745 B( 28-C , 30-H ) :   0.9703 B( 28-C , 31-H ) :   0.9746

Dispersion correction           -0.013369546
FINAL SINGLE POINT ENERGY     -1339.862162498552

DIPOLE MOMENT
-------------
                                X             Y             Z
Electronic contribution:     10.94704       1.24437      29.13592
Nuclear contribution   :    -11.22412      -1.14959     -29.73948
                        -----------------------------------------
Total Dipole Moment    :     -0.27707       0.09478      -0.60356
                        -----------------------------------------
Magnitude (a.u.)       :      0.67085
Magnitude (Debye)      :      1.70516

Rotational constants in cm-1:     0.016068     0.008685     0.006054
Rotational constants in MHz :   481.695897   260.361062   181.487942

                             ****ORCA TERMINATED NORMALLY****
TOTAL RUN TIME: 0 days 0 hours 0 minutes 27 seconds 169 msec
