                         Program Version 4.2.1 -  RELEASE  -
|  1> ! wB97X-D3 SP def2-SVP
|  2> %pal
|  3> nprocs 16
|  4> end
|  5>
|  6> * xyz 0 1
|  7> S 	 -94.0877 	 50.7372 	 123.993
|  8> C 	 -95.2328 	 50.095 	 122.937
|  9> C 	 -94.5431 	 49.6477 	 121.788
| 10> C 	 -93.1892 	 50.067 	 121.709
| 11> C 	 -92.738 	 50.6113 	 122.899
| 12> H 	 -92.5693 	 49.7644 	 120.931
| 13> C 	 -95.1777 	 48.8575 	 120.68
| 14> H 	 -94.6456 	 49.0375 	 119.703
| 15> H 	 -96.179 	 49.1542 	 120.567
| 16> C 	 -94.9824 	 47.29 	 120.878
| 17> H 	 -95.3358 	 46.9353 	 119.973
| 18> H 	 -93.9482 	 47.0288 	 120.96
| 19> C 	 -95.9706 	 46.5771 	 121.843
| 20> H 	 -96.9865 	 47.0864 	 121.813
| 21> H 	 -96.1219 	 45.4043 	 121.609
| 22> H 	 -95.5933 	 46.6091 	 122.868
| 23> S 	 -91.3254 	 52.7043 	 123.995
| 24> C 	 -89.6219 	 52.6994 	 123.976
| 25> C 	 -89.1193 	 51.6027 	 123.299
| 26> C 	 -90.095 	 50.6541 	 122.888
| 27> C 	 -91.3949 	 51.0829 	 123.24
| 28> H 	 -88.0135 	 51.5042 	 123.224
| 29> C 	 -89.7218 	 49.5473 	 122.004
| 30> H 	 -90.6694 	 49.0563 	 121.784
| 31> H 	 -89.2527 	 48.6693 	 122.494
| 32> C 	 -88.9413 	 49.8263 	 120.796
| 33> H 	 -87.8966 	 50.1445 	 121.176
| 34> H 	 -89.3172 	 50.7475 	 120.335
| 35> C 	 -88.7871 	 48.7937 	 119.729
| 36> H 	 -88.4203 	 47.8412 	 120.173
| 37> H 	 -87.9674 	 49.0238 	 119.033
| 38> H 	 -89.7043 	 48.4286 	 119.269
| 39> H 	 -96.2462 	 50.0274 	 123.165
| 40> H 	 -89.0088 	 53.5547 	 124.169
| 41> *
| 42>
| 43>                          ****END OF INPUT****

CARTESIAN COORDINATES (ANGSTROEM)
---------------------------------
  S    -94.087700   50.737200  123.993000
  C    -95.232800   50.095000  122.937000
  C    -94.543100   49.647700  121.788000
  C    -93.189200   50.067000  121.709000
  C    -92.738000   50.611300  122.899000
  H    -92.569300   49.764400  120.931000
  C    -95.177700   48.857500  120.680000
  H    -94.645600   49.037500  119.703000
  H    -96.179000   49.154200  120.567000
  C    -94.982400   47.290000  120.878000
  H    -95.335800   46.935300  119.973000
  H    -93.948200   47.028800  120.960000
  C    -95.970600   46.577100  121.843000
  H    -96.986500   47.086400  121.813000
  H    -96.121900   45.404300  121.609000
  H    -95.593300   46.609100  122.868000
  S    -91.325400   52.704300  123.995000
  C    -89.621900   52.699400  123.976000
  C    -89.119300   51.602700  123.299000
  C    -90.095000   50.654100  122.888000
  C    -91.394900   51.082900  123.240000
  H    -88.013500   51.504200  123.224000
  C    -89.721800   49.547300  122.004000
  H    -90.669400   49.056300  121.784000
  H    -89.252700   48.669300  122.494000
  C    -88.941300   49.826300  120.796000
  H    -87.896600   50.144500  121.176000
  H    -89.317200   50.747500  120.335000
  C    -88.787100   48.793700  119.729000
  H    -88.420300   47.841200  120.173000
  H    -87.967400   49.023800  119.033000
  H    -89.704300   48.428600  119.269000
  H    -96.246200   50.027400  123.165000
  H    -89.008800   53.554700  124.169000

 Total Charge           Charge          ....    0
 Multiplicity           Mult            ....    1
 Number of Electrons    NEL             ....  134
 Basis Dimension        Dim             ....  322

ORBITAL ENERGIES
----------------

  NO   OCC          E(Eh)            E(eV)
   0   2.0000     -88.966933     -2420.9133
   1   2.0000     -88.964406     -2420.8446
   2   2.0000     -10.334576      -281.2181
   3   2.0000     -10.330725      -281.1133
   4   2.0000     -10.313146      -280.6350
   5   2.0000     -10.308356      -280.5046
   6   2.0000     -10.307090      -280.4702
   7   2.0000     -10.298905      -280.2474
   8   2.0000     -10.294219      -280.1199
   9   2.0000     -10.293546      -280.1016
  10   2.0000     -10.292742      -280.0797
  11   2.0000     -10.290147      -280.0091
  12   2.0000     -10.287669      -279.9417
  13   2.0000     -10.286646      -279.9139
  14   2.0000     -10.283924      -279.8398
  15   2.0000     -10.283269      -279.8220
  16   2.0000      -8.081907      -219.9199
  17   2.0000      -8.080309      -219.8764
  18   2.0000      -6.040302      -164.3650
  19   2.0000      -6.038722      -164.3220
  20   2.0000      -6.036352      -164.2575
  21   2.0000      -6.034345      -164.2029
  22   2.0000      -6.032780      -164.1603
  23   2.0000      -6.031412      -164.1231
  24   2.0000      -1.010702       -27.5026
  25   2.0000      -0.989799       -26.9338
  26   2.0000      -0.924784       -25.1646
  27   2.0000      -0.906003       -24.6536
  28   2.0000      -0.871040       -23.7022
  29   2.0000      -0.857991       -23.3471
  30   2.0000      -0.848210       -23.0810
  31   2.0000      -0.813655       -22.1407
  32   2.0000      -0.787914       -21.4402
  33   2.0000      -0.769141       -20.9294
  34   2.0000      -0.709525       -19.3072
  35   2.0000      -0.701046       -19.0764
  36   2.0000      -0.696185       -18.9442
  37   2.0000      -0.657943       -17.9035
  38   2.0000      -0.645689       -17.5701
  39   2.0000      -0.628186       -17.0938
  40   2.0000      -0.606166       -16.4946
  41   2.0000      -0.569782       -15.5046
  42   2.0000      -0.565741       -15.3946
  43   2.0000      -0.544371       -14.8131
  44   2.0000      -0.540857       -14.7175
  45   2.0000      -0.533272       -14.5111
  46   2.0000      -0.520370       -14.1600
  47   2.0000      -0.515304       -14.0221
  48   2.0000      -0.511658       -13.9229
  49   2.0000      -0.497289       -13.5319
  50   2.0000      -0.490797       -13.3553
  51   2.0000      -0.485911       -13.2223
  52   2.0000      -0.474192       -12.9034
  53   2.0000      -0.468179       -12.7398
  54   2.0000      -0.458787       -12.4842
  55   2.0000      -0.455194       -12.3865
  56   2.0000      -0.445537       -12.1237
  57   2.0000      -0.438247       -11.9253
  58   2.0000      -0.431128       -11.7316
  59   2.0000      -0.425874       -11.5886
  60   2.0000      -0.421657       -11.4739
  61   2.0000      -0.403507       -10.9800
  62   2.0000      -0.400687       -10.9032
  63   2.0000      -0.353243        -9.6122
  64   2.0000      -0.332407        -9.0453
  65   2.0000      -0.325937        -8.8692
  66   2.0000      -0.286415        -7.7937
  67   0.0000       0.024608         0.6696
  68   0.0000       0.074120         2.0169
  69   0.0000       0.111289         3.0283
  70   0.0000       0.119368         3.2482
  71   0.0000       0.127543         3.4706

MULLIKEN ATOMIC CHARGES
-----------------------
   0 S :    0.118298
   1 C :   -0.097133
   2 C :   -0.103898
   3 C :    0.063032
   4 C :   -0.148521
   5 H :   -0.012809
   6 C :    0.041991
   7 H :    0.029369
   8 H :    0.013168
   9 C :   -0.018179
  10 H :    0.011170
  11 H :    0.027225
  12 C :   -0.118848
  13 H :    0.040112
  14 H :    0.053552
  15 H :    0.043947
  16 S :    0.110486
  17 C :   -0.073539
  18 C :   -0.083516
  19 C :   -0.006152
  20 C :   -0.140300
  21 H :    0.036909
  22 C :    0.086465
  23 H :   -0.011907
  24 H :    0.025283
  25 C :   -0.098690
  26 H :    0.030025
  27 H :    0.031006
  28 C :   -0.022602
  29 H :    0.010608
  30 H :    0.044438
  31 H :    0.031656
  32 H :    0.031549
  33 H :    0.055805
Sum of atomic charges:    0.0000000

LOEWDIN ATOMIC CHARGES
----------------------
   0 S :    0.442987
   1 C :   -0.215495
   2 C :   -0.061774
   3 C :   -0.062273
   4 C :   -0.199149
   5 H :    0.018491
   6 C :   -0.025615
   7 H :    0.036299
   8 H :    0.020666
   9 C :   -0.033134
  10 H :    0.015367
  11 H :    0.021774
  12 C :   -0.081370
  13 H :    0.029962
  14 H :    0.040105
  15 H :    0.021248
  16 S :    0.418396
  17 C :   -0.198303
  18 C :   -0.075981
  19 C :   -0.050422
  20 C :   -0.184100
  21 H :    0.037413
  22 C :   -0.048781
  23 H :    0.026355
  24 H :    0.037151
  25 C :   -0.050474
  26 H :    0.031007
  27 H :    0.024989
  28 C :   -0.069304
  29 H :    0.026079
  30 H :    0.035862
  31 H :    0.025388
  32 H :    0.018131
  33 H :    0.028506

  Mayer bond orders larger than 0.100000
B(  0-S ,  1-C ) :   1.1668 B(  0-S ,  4-C ) :   1.1841 B(  1-C ,  2-C ) :   1.5228
B(  1-C ,  4-C ) :   0.1044 B(  1-C , 32-H ) :   0.9881 B(  2-C ,  3-C ) :   1.3063
B(  2-C ,  6-C ) :   1.0408 B(  3-C ,  4-C ) :   1.5065 B(  3-C ,  5-H ) :   0.9952
B(  4-C , 20-C ) :   1.0378 B(  6-C ,  7-H ) :   0.9459 B(  6-C ,  8-H ) :   0.9423
B(  6-C ,  9-C ) :   1.0666 B(  9-C , 10-H ) :   0.9562 B(  9-C , 11-H ) :   0.9592
B(  9-C , 12-C ) :   1.0561 B( 12-C , 13-H ) :   0.9730 B( 12-C , 14-H ) :   0.9760
B( 12-C , 15-H ) :   0.9784 B( 16-S , 17-C ) :   1.1692 B( 16-S , 20-C ) :   1.1557
B( 17-C , 18-C ) :   1.6020 B( 17-C , 20-C ) :   0.1002 B( 17-C , 33-H ) :   0.9645
B( 18-C , 19-C ) :   1.2492 B( 18-C , 21-H ) :   0.9828 B( 19-C , 20-C ) :   1.5598
B( 19-C , 22-C ) :   1.0682 B( 22-C , 23-H ) :   0.9208 B( 22-C , 24-H ) :   0.9052
B( 22-C , 25-C ) :   1.0679 B( 25-C , 26-H ) :   0.9369 B( 25-C , 27-H ) :   0.9534
B( 25-C , 28-C ) :   1.0992 B( 28-C , 29-H ) :   0.9652 B( 28-C , 30-H ) :   0.9694
B( 28-C , 31-H ) :   0.9710

Dispersion correction           -0.014051490
FINAL SINGLE POINT ENERGY     -1339.858235850674

DIPOLE MOMENT
-------------
                                X             Y             Z
Electronic contribution:     -2.45676      22.40064      19.74898
Nuclear contribution   :      2.67560     -22.77062     -20.34704
                        -----------------------------------------
Total Dipole Moment    :      0.21884      -0.36998      -0.59806
                        -----------------------------------------
Magnitude (a.u.)       :      0.73651
Magnitude (Debye)      :      1.87206

Rotational constants in cm-1:     0.017925     0.009119     0.006406
Rotational constants in MHz :   537.391625   273.394829   192.037691

                             ****ORCA TERMINATED NORMALLY****
TOTAL RUN TIME: 0 days 0 hours 0 minutes 33 seconds 947 msec
