                         Program Version 4.2.1 -  RELEASE  -
|  1> ! wB97X-D3 SP def2-SVP
|  2> %pal
|  3> nprocs 16
|  4> end
|  5>
|  6> * xyz 0 1
|  7> S 	 -40.3782 	 57.5142 	 109.155
|  8> C 	 -41.8309 	 57.5945 	 110.003
|  9> C 	 -42.5555 	 56.4175 	 109.887
| 10> C 	 -41.871 	 55.4142 	 109.147
| 11> C 	 -40.5096 	 55.7615 	 109.036
| 12> H 	 -42.2969 	 54.4529 	 108.96
| 13> C 	 -43.9121 	 56.0949 	 110.485
| 14> H 	 -44.1359 	 56.8822 	 111.191
| 15> H 	 -43.7551 	 55.0891 	 110.953
| 16> C 	 -45.0963 	 56.0406 	 109.486
| 17> H 	 -45.1254 	 55.0346 	 109.031
| 18> H 	 -46.0804 	 56.1031 	 109.956
| 19> C 	 -45.107 	 57.1918 	 108.477
| 20> H 	 -45.0741 	 58.1168 	 109.001
| 21> H 	 -44.2191 	 57.2192 	 107.886
| 22> H 	 -45.8739 	 57.1882 	 107.808
| 23> S 	 -38.6538 	 55.6157 	 107.012
| 24> C 	 -37.799 	 54.1009 	 106.773
| 25> C 	 -38.0204 	 53.2316 	 107.807
| 26> C 	 -38.8944 	 53.6835 	 108.794
| 27> C 	 -39.4429 	 54.9441 	 108.441
| 28> H 	 -37.4648 	 52.3217 	 107.748
| 29> C 	 -39.4187 	 52.8153 	 109.934
| 30> H 	 -40.4415 	 53.1391 	 110.275
| 31> H 	 -38.8993 	 53.1195 	 110.778
| 32> C 	 -39.546 	 51.2856 	 109.781
| 33> H 	 -38.6005 	 50.8307 	 109.634
| 34> H 	 -40.0383 	 51.1186 	 108.793
| 35> C 	 -40.3611 	 50.5741 	 110.892
| 36> H 	 -41.381 	 50.9104 	 110.806
| 37> H 	 -39.9904 	 50.7088 	 111.882
| 38> H 	 -40.3681 	 49.5475 	 110.706
| 39> H 	 -42.1461 	 58.477 	 110.546
| 40> H 	 -37.0816 	 53.8271 	 105.978
| 41> *
| 42>
| 43>                          ****END OF INPUT****

CARTESIAN COORDINATES (ANGSTROEM)
---------------------------------
  S    -40.378200   57.514200  109.155000
  C    -41.830900   57.594500  110.003000
  C    -42.555500   56.417500  109.887000
  C    -41.871000   55.414200  109.147000
  C    -40.509600   55.761500  109.036000
  H    -42.296900   54.452900  108.960000
  C    -43.912100   56.094900  110.485000
  H    -44.135900   56.882200  111.191000
  H    -43.755100   55.089100  110.953000
  C    -45.096300   56.040600  109.486000
  H    -45.125400   55.034600  109.031000
  H    -46.080400   56.103100  109.956000
  C    -45.107000   57.191800  108.477000
  H    -45.074100   58.116800  109.001000
  H    -44.219100   57.219200  107.886000
  H    -45.873900   57.188200  107.808000
  S    -38.653800   55.615700  107.012000
  C    -37.799000   54.100900  106.773000
  C    -38.020400   53.231600  107.807000
  C    -38.894400   53.683500  108.794000
  C    -39.442900   54.944100  108.441000
  H    -37.464800   52.321700  107.748000
  C    -39.418700   52.815300  109.934000
  H    -40.441500   53.139100  110.275000
  H    -38.899300   53.119500  110.778000
  C    -39.546000   51.285600  109.781000
  H    -38.600500   50.830700  109.634000
  H    -40.038300   51.118600  108.793000
  C    -40.361100   50.574100  110.892000
  H    -41.381000   50.910400  110.806000
  H    -39.990400   50.708800  111.882000
  H    -40.368100   49.547500  110.706000
  H    -42.146100   58.477000  110.546000
  H    -37.081600   53.827100  105.978000

 Total Charge           Charge          ....    0
 Multiplicity           Mult            ....    1
 Number of Electrons    NEL             ....  134
 Basis Dimension        Dim             ....  322

ORBITAL ENERGIES
----------------

  NO   OCC          E(Eh)            E(eV)
   0   2.0000     -88.966683     -2420.9065
   1   2.0000     -88.964377     -2420.8438
   2   2.0000     -10.332745      -281.1683
   3   2.0000     -10.329029      -281.0672
   4   2.0000     -10.315130      -280.6890
   5   2.0000     -10.308485      -280.5081
   6   2.0000     -10.306113      -280.4436
   7   2.0000     -10.297393      -280.2063
   8   2.0000     -10.294600      -280.1303
   9   2.0000     -10.294505      -280.1277
  10   2.0000     -10.288666      -279.9688
  11   2.0000     -10.287937      -279.9490
  12   2.0000     -10.287809      -279.9455
  13   2.0000     -10.286886      -279.9204
  14   2.0000     -10.274743      -279.5900
  15   2.0000     -10.260347      -279.1982
  16   2.0000      -8.080957      -219.8940
  17   2.0000      -8.080396      -219.8788
  18   2.0000      -6.039436      -164.3414
  19   2.0000      -6.038806      -164.3243
  20   2.0000      -6.035535      -164.2352
  21   2.0000      -6.034954      -164.2195
  22   2.0000      -6.031769      -164.1328
  23   2.0000      -6.030958      -164.1107
  24   2.0000      -1.008657       -27.4469
  25   2.0000      -0.986864       -26.8539
  26   2.0000      -0.910147       -24.7664
  27   2.0000      -0.905413       -24.6375
  28   2.0000      -0.867527       -23.6066
  29   2.0000      -0.854558       -23.2537
  30   2.0000      -0.848896       -23.0996
  31   2.0000      -0.813938       -22.1484
  32   2.0000      -0.785692       -21.3798
  33   2.0000      -0.773411       -21.0456
  34   2.0000      -0.711586       -19.3632
  35   2.0000      -0.703795       -19.1512
  36   2.0000      -0.696067       -18.9410
  37   2.0000      -0.653416       -17.7803
  38   2.0000      -0.638665       -17.3789
  39   2.0000      -0.622087       -16.9279
  40   2.0000      -0.596234       -16.2244
  41   2.0000      -0.564893       -15.3715
  42   2.0000      -0.559725       -15.2309
  43   2.0000      -0.558360       -15.1937
  44   2.0000      -0.545443       -14.8423
  45   2.0000      -0.526348       -14.3227
  46   2.0000      -0.514749       -14.0070
  47   2.0000      -0.509943       -13.8763
  48   2.0000      -0.505548       -13.7567
  49   2.0000      -0.497670       -13.5423
  50   2.0000      -0.489410       -13.3175
  51   2.0000      -0.481937       -13.1142
  52   2.0000      -0.473527       -12.8853
  53   2.0000      -0.467075       -12.7098
  54   2.0000      -0.456784       -12.4297
  55   2.0000      -0.451725       -12.2920
  56   2.0000      -0.450118       -12.2483
  57   2.0000      -0.440096       -11.9756
  58   2.0000      -0.432598       -11.7716
  59   2.0000      -0.431372       -11.7382
  60   2.0000      -0.421572       -11.4716
  61   2.0000      -0.414842       -11.2884
  62   2.0000      -0.409661       -11.1474
  63   2.0000      -0.346628        -9.4322
  64   2.0000      -0.334440        -9.1006
  65   2.0000      -0.322555        -8.7772
  66   2.0000      -0.284016        -7.7285
  67   0.0000       0.024887         0.6772
  68   0.0000       0.062144         1.6910
  69   0.0000       0.103580         2.8186
  70   0.0000       0.117089         3.1861
  71   0.0000       0.135764         3.6943

MULLIKEN ATOMIC CHARGES
-----------------------
   0 S :    0.110808
   1 C :   -0.107697
   2 C :   -0.127482
   3 C :    0.059792
   4 C :   -0.161010
   5 H :    0.014449
   6 C :    0.075819
   7 H :    0.016928
   8 H :    0.044303
   9 C :   -0.089284
  10 H :    0.023319
  11 H :    0.029946
  12 C :    0.013510
  13 H :    0.009352
  14 H :    0.026439
  15 H :    0.011664
  16 S :    0.106876
  17 C :   -0.093818
  18 C :   -0.063863
  19 C :    0.016301
  20 C :   -0.177672
  21 H :    0.009412
  22 C :    0.088932
  23 H :    0.007749
  24 H :    0.011483
  25 C :   -0.087637
  26 H :    0.020858
  27 H :    0.030808
  28 C :   -0.007665
  29 H :    0.027927
  30 H :    0.032603
  31 H :    0.020824
  32 H :    0.045879
  33 H :    0.060150
Sum of atomic charges:   -0.0000000

LOEWDIN ATOMIC CHARGES
----------------------
   0 S :    0.422002
   1 C :   -0.219661
   2 C :   -0.067484
   3 C :   -0.048942
   4 C :   -0.185938
   5 H :    0.027000
   6 C :   -0.030101
   7 H :    0.027061
   8 H :    0.038244
   9 C :   -0.042057
  10 H :    0.020680
  11 H :    0.026005
  12 C :   -0.053709
  13 H :    0.022035
  14 H :    0.024464
  15 H :    0.013050
  16 S :    0.398088
  17 C :   -0.190775
  18 C :   -0.076044
  19 C :   -0.051897
  20 C :   -0.193135
  21 H :    0.030109
  22 C :   -0.035795
  23 H :    0.034151
  24 H :    0.024165
  25 C :   -0.038396
  26 H :    0.012971
  27 H :    0.029625
  28 C :   -0.051968
  29 H :    0.025650
  30 H :    0.023460
  31 H :    0.022267
  32 H :    0.027539
  33 H :    0.037335

  Mayer bond orders larger than 0.100000
B(  0-S ,  1-C ) :   1.1505 B(  0-S ,  4-C ) :   1.1643 B(  1-C ,  2-C ) :   1.5833
B(  1-C , 32-H ) :   0.9685 B(  2-C ,  3-C ) :   1.2553 B(  2-C ,  6-C ) :   1.0248
B(  3-C ,  4-C ) :   1.5317 B(  3-C ,  5-H ) :   0.9922 B(  4-C , 20-C ) :   1.0531
B(  6-C ,  7-H ) :   0.9377 B(  6-C ,  8-H ) :   0.9475 B(  6-C ,  9-C ) :   1.0625
B(  9-C , 10-H ) :   0.9556 B(  9-C , 11-H ) :   0.9601 B(  9-C , 12-C ) :   1.0793
B( 12-C , 13-H ) :   0.9728 B( 12-C , 14-H ) :   0.9662 B( 12-C , 15-H ) :   0.9733
B( 16-S , 17-C ) :   1.1448 B( 16-S , 20-C ) :   1.1529 B( 17-C , 18-C ) :   1.6223
B( 17-C , 20-C ) :   0.1070 B( 17-C , 33-H ) :   0.9598 B( 18-C , 19-C ) :   1.2497
B( 18-C , 21-H ) :   0.9929 B( 19-C , 20-C ) :   1.5697 B( 19-C , 22-C ) :   1.0313
B( 22-C , 23-H ) :   0.9385 B( 22-C , 24-H ) :   0.9127 B( 22-C , 25-C ) :   1.0583
B( 25-C , 26-H ) :   0.9499 B( 25-C , 27-H ) :   0.9579 B( 25-C , 28-C ) :   1.0873
B( 28-C , 29-H ) :   0.9733 B( 28-C , 30-H ) :   0.9777 B( 28-C , 31-H ) :   0.9716

Dispersion correction           -0.014182467
FINAL SINGLE POINT ENERGY     -1339.856905853671

DIPOLE MOMENT
-------------
                                X             Y             Z
Electronic contribution:     18.85911      16.22950     -10.04765
Nuclear contribution   :    -19.21867     -16.77107      10.27199
                        -----------------------------------------
Total Dipole Moment    :     -0.35956      -0.54157       0.22434
                        -----------------------------------------
Magnitude (a.u.)       :      0.68769
Magnitude (Debye)      :      1.74796

Rotational constants in cm-1:     0.017146     0.008924     0.006636
Rotational constants in MHz :   514.029117   267.536753   198.928638

                             ****ORCA TERMINATED NORMALLY****
TOTAL RUN TIME: 0 days 0 hours 0 minutes 29 seconds 669 msec
