                         Program Version 4.2.1 -  RELEASE  -
|  1> ! wB97X-D3 SP def2-SVP
|  2> %pal
|  3> nprocs 16
|  4> end
|  5>
|  6> * xyz 0 1
|  7> S 	 -21.9928 	 45.8423 	 56.1067
|  8> C 	 -22.5414 	 47.2365 	 56.9491
|  9> C 	 -22.7969 	 46.907 	 58.2724
| 10> C 	 -22.4638 	 45.5733 	 58.6389
| 11> C 	 -22.3117 	 44.8049 	 57.4924
| 12> H 	 -22.6071 	 45.0853 	 59.6115
| 13> C 	 -23.3737 	 47.9721 	 59.2799
| 14> H 	 -22.903 	 48.9786 	 59.3837
| 15> H 	 -23.1234 	 47.554 	 60.2222
| 16> C 	 -24.8716 	 48.1732 	 59.2298
| 17> H 	 -25.3076 	 48.916 	 59.8206
| 18> H 	 -25.1501 	 48.5196 	 58.2712
| 19> C 	 -25.6217 	 46.9325 	 59.5617
| 20> H 	 -25.6303 	 46.5294 	 60.5536
| 21> H 	 -26.6313 	 47.1373 	 59.2676
| 22> H 	 -25.3731 	 46.1157 	 58.9196
| 23> S 	 -20.9751 	 42.4753 	 58.2266
| 24> C 	 -21.6521 	 40.9255 	 57.8316
| 25> C 	 -22.8339 	 41.1048 	 57.2379
| 26> C 	 -23.1826 	 42.4426 	 56.877
| 27> C 	 -22.2865 	 43.33 	 57.4241
| 28> H 	 -23.5773 	 40.3363 	 57.1164
| 29> C 	 -24.4933 	 42.8924 	 56.2382
| 30> H 	 -24.8063 	 42.1477 	 55.3869
| 31> H 	 -24.1456 	 43.7387 	 55.8017
| 32> C 	 -25.7145 	 43.2043 	 57.1508
| 33> H 	 -26.6179 	 42.8439 	 56.5979
| 34> H 	 -25.8395 	 44.3112 	 57.3921
| 35> C 	 -25.7173 	 42.5699 	 58.5376
| 36> H 	 -26.3033 	 43.1511 	 59.2915
| 37> H 	 -24.7149 	 42.4796 	 59.0001
| 38> H 	 -26.0427 	 41.5074 	 58.5553
| 39> H 	 -22.5058 	 48.2579 	 56.5348
| 40> H 	 -21.367 	 39.9584 	 58.2967
| 41> *
| 42>
| 43>                          ****END OF INPUT****

CARTESIAN COORDINATES (ANGSTROEM)
---------------------------------
  S    -21.992800   45.842300   56.106700
  C    -22.541400   47.236500   56.949100
  C    -22.796900   46.907000   58.272400
  C    -22.463800   45.573300   58.638900
  C    -22.311700   44.804900   57.492400
  H    -22.607100   45.085300   59.611500
  C    -23.373700   47.972100   59.279900
  H    -22.903000   48.978600   59.383700
  H    -23.123400   47.554000   60.222200
  C    -24.871600   48.173200   59.229800
  H    -25.307600   48.916000   59.820600
  H    -25.150100   48.519600   58.271200
  C    -25.621700   46.932500   59.561700
  H    -25.630300   46.529400   60.553600
  H    -26.631300   47.137300   59.267600
  H    -25.373100   46.115700   58.919600
  S    -20.975100   42.475300   58.226600
  C    -21.652100   40.925500   57.831600
  C    -22.833900   41.104800   57.237900
  C    -23.182600   42.442600   56.877000
  C    -22.286500   43.330000   57.424100
  H    -23.577300   40.336300   57.116400
  C    -24.493300   42.892400   56.238200
  H    -24.806300   42.147700   55.386900
  H    -24.145600   43.738700   55.801700
  C    -25.714500   43.204300   57.150800
  H    -26.617900   42.843900   56.597900
  H    -25.839500   44.311200   57.392100
  C    -25.717300   42.569900   58.537600
  H    -26.303300   43.151100   59.291500
  H    -24.714900   42.479600   59.000100
  H    -26.042700   41.507400   58.555300
  H    -22.505800   48.257900   56.534800
  H    -21.367000   39.958400   58.296700

 Total Charge           Charge          ....    0
 Multiplicity           Mult            ....    1
 Number of Electrons    NEL             ....  134
 Basis Dimension        Dim             ....  322

ORBITAL ENERGIES
----------------

  NO   OCC          E(Eh)            E(eV)
   0   2.0000     -88.969919     -2420.9946
   1   2.0000     -88.963711     -2420.8257
   2   2.0000     -10.334973      -281.2289
   3   2.0000     -10.327570      -281.0275
   4   2.0000     -10.316062      -280.7143
   5   2.0000     -10.314341      -280.6675
   6   2.0000     -10.308553      -280.5100
   7   2.0000     -10.302720      -280.3513
   8   2.0000     -10.300522      -280.2914
   9   2.0000     -10.294545      -280.1288
  10   2.0000     -10.291830      -280.0549
  11   2.0000     -10.290527      -280.0195
  12   2.0000     -10.287252      -279.9304
  13   2.0000     -10.277941      -279.6770
  14   2.0000     -10.272875      -279.5391
  15   2.0000     -10.262900      -279.2677
  16   2.0000      -8.084607      -219.9933
  17   2.0000      -8.078639      -219.8309
  18   2.0000      -6.042970      -164.4376
  19   2.0000      -6.039076      -164.3316
  20   2.0000      -6.037264      -164.2823
  21   2.0000      -6.035543      -164.2355
  22   2.0000      -6.033072      -164.1682
  23   2.0000      -6.029299      -164.0656
  24   2.0000      -1.011540       -27.5254
  25   2.0000      -0.991620       -26.9833
  26   2.0000      -0.915822       -24.9208
  27   2.0000      -0.904211       -24.6048
  28   2.0000      -0.871991       -23.7281
  29   2.0000      -0.852021       -23.1847
  30   2.0000      -0.844358       -22.9761
  31   2.0000      -0.817913       -22.2566
  32   2.0000      -0.784995       -21.3608
  33   2.0000      -0.774883       -21.0857
  34   2.0000      -0.707627       -19.2555
  35   2.0000      -0.703453       -19.1419
  36   2.0000      -0.688322       -18.7302
  37   2.0000      -0.661154       -17.9909
  38   2.0000      -0.645526       -17.5657
  39   2.0000      -0.610101       -16.6017
  40   2.0000      -0.587161       -15.9775
  41   2.0000      -0.573678       -15.6106
  42   2.0000      -0.561554       -15.2807
  43   2.0000      -0.554125       -15.0785
  44   2.0000      -0.543923       -14.8009
  45   2.0000      -0.537183       -14.6175
  46   2.0000      -0.517342       -14.0776
  47   2.0000      -0.511399       -13.9159
  48   2.0000      -0.505314       -13.7503
  49   2.0000      -0.497582       -13.5399
  50   2.0000      -0.492425       -13.3996
  51   2.0000      -0.481727       -13.1085
  52   2.0000      -0.470055       -12.7908
  53   2.0000      -0.465637       -12.6706
  54   2.0000      -0.456754       -12.4289
  55   2.0000      -0.444697       -12.1008
  56   2.0000      -0.442224       -12.0335
  57   2.0000      -0.437366       -11.9013
  58   2.0000      -0.430536       -11.7155
  59   2.0000      -0.420691       -11.4476
  60   2.0000      -0.415691       -11.3115
  61   2.0000      -0.410035       -11.1576
  62   2.0000      -0.405512       -11.0345
  63   2.0000      -0.344038        -9.3617
  64   2.0000      -0.334880        -9.1125
  65   2.0000      -0.328428        -8.9370
  66   2.0000      -0.303038        -8.2461
  67   0.0000       0.031961         0.8697
  68   0.0000       0.061813         1.6820
  69   0.0000       0.108486         2.9521
  70   0.0000       0.120631         3.2825
  71   0.0000       0.126775         3.4497

MULLIKEN ATOMIC CHARGES
-----------------------
   0 S :    0.127242
   1 C :   -0.116987
   2 C :   -0.123557
   3 C :    0.061193
   4 C :   -0.188021
   5 H :    0.033694
   6 C :    0.075520
   7 H :    0.033748
   8 H :   -0.003993
   9 C :    0.001246
  10 H :    0.008946
  11 H :    0.002982
  12 C :   -0.045440
  13 H :    0.027960
  14 H :    0.011955
  15 H :    0.016291
  16 S :    0.103865
  17 C :   -0.079021
  18 C :   -0.032359
  19 C :   -0.092496
  20 C :   -0.176203
  21 H :    0.009607
  22 C :    0.140238
  23 H :    0.044930
  24 H :   -0.008530
  25 C :   -0.086178
  26 H :    0.041145
  27 H :    0.050897
  28 C :   -0.087383
  29 H :    0.038768
  30 H :    0.040878
  31 H :    0.029050
  32 H :    0.067233
  33 H :    0.072781
Sum of atomic charges:    0.0000000

LOEWDIN ATOMIC CHARGES
----------------------
   0 S :    0.423641
   1 C :   -0.210775
   2 C :   -0.062194
   3 C :   -0.058209
   4 C :   -0.190899
   5 H :    0.039055
   6 C :   -0.032551
   7 H :    0.034310
   8 H :    0.020054
   9 C :   -0.037246
  10 H :    0.020560
  11 H :    0.019734
  12 C :   -0.062966
  13 H :    0.021809
  14 H :    0.025680
  15 H :    0.019051
  16 S :    0.403220
  17 C :   -0.196570
  18 C :   -0.072451
  19 C :   -0.058844
  20 C :   -0.196684
  21 H :    0.027684
  22 C :   -0.031046
  23 H :    0.044014
  24 H :    0.012920
  25 C :   -0.048181
  26 H :    0.033046
  27 H :    0.035123
  28 C :   -0.082475
  29 H :    0.029324
  30 H :    0.027983
  31 H :    0.023425
  32 H :    0.038115
  33 H :    0.042344

  Mayer bond orders larger than 0.100000
B(  0-S ,  1-C ) :   1.1459 B(  0-S ,  4-C ) :   1.1693 B(  1-C ,  2-C ) :   1.5949
B(  1-C ,  4-C ) :   0.1001 B(  1-C , 32-H ) :   0.9691 B(  2-C ,  3-C ) :   1.2655
B(  2-C ,  6-C ) :   1.0040 B(  3-C ,  4-C ) :   1.5603 B(  3-C ,  5-H ) :   0.9823
B(  4-C , 20-C ) :   1.0116 B(  6-C ,  7-H ) :   0.9494 B(  6-C ,  8-H ) :   0.9395
B(  6-C ,  9-C ) :   1.0737 B(  9-C , 10-H ) :   0.9500 B(  9-C , 11-H ) :   0.9486
B(  9-C , 12-C ) :   1.0883 B( 12-C , 13-H ) :   0.9714 B( 12-C , 14-H ) :   0.9663
B( 12-C , 15-H ) :   0.9716 B( 16-S , 17-C ) :   1.1342 B( 16-S , 20-C ) :   1.1493
B( 17-C , 18-C ) :   1.6315 B( 17-C , 33-H ) :   0.9585 B( 18-C , 19-C ) :   1.2356
B( 18-C , 21-H ) :   0.9874 B( 19-C , 20-C ) :   1.6049 B( 19-C , 22-C ) :   1.0453
B( 22-C , 23-H ) :   0.9383 B( 22-C , 24-H ) :   0.9107 B( 22-C , 25-C ) :   1.0470
B( 25-C , 26-H ) :   0.9571 B( 25-C , 27-H ) :   0.9548 B( 25-C , 28-C ) :   1.0933
B( 28-C , 29-H ) :   0.9773 B( 28-C , 30-H ) :   0.9632 B( 28-C , 31-H ) :   0.9742

Dispersion correction           -0.016952727
FINAL SINGLE POINT ENERGY     -1339.853313580123

DIPOLE MOMENT
-------------
                                X             Y             Z
Electronic contribution:     24.63950      -6.20164      -9.60928
Nuclear contribution   :    -25.20995       6.34425       9.91435
                        -----------------------------------------
Total Dipole Moment    :     -0.57045       0.14261       0.30506
                        -----------------------------------------
Magnitude (a.u.)       :      0.66243
Magnitude (Debye)      :      1.68377

Rotational constants in cm-1:     0.019822     0.009990     0.008320
Rotational constants in MHz :   594.234293   299.498255   249.424473

                             ****ORCA TERMINATED NORMALLY****
TOTAL RUN TIME: 0 days 0 hours 0 minutes 37 seconds 214 msec
