                         Program Version 4.2.1 -  RELEASE  -
|  1> ! wB97X-D3 SP def2-SVP
|  2> %pal
|  3> nprocs 16
|  4> end
|  5>
|  6> * xyz 0 1
|  7> S 	 48.0843 	 2.15841 	 84.5845
|  8> C 	 49.5427 	 1.52713 	 83.751
|  9> C 	 50.5464 	 1.34839 	 84.6933
| 10> C 	 50.0787 	 1.33816 	 86.0211
| 11> C 	 48.7416 	 1.6981 	 86.2197
| 12> H 	 50.6341 	 1.21684 	 86.8999
| 13> C 	 52.0022 	 1.08996 	 84.2883
| 14> H 	 52.1154 	 1.3787 	 83.2357
| 15> H 	 51.9747 	 0.0143476 	 84.3539
| 16> C 	 53.1649 	 1.69989 	 85.1528
| 17> H 	 53.068 	 2.80896 	 85.051
| 18> H 	 52.9627 	 1.43972 	 86.2202
| 19> C 	 54.6017 	 1.27086 	 84.8
| 20> H 	 54.6744 	 1.3078 	 83.7036
| 21> H 	 55.3635 	 1.87169 	 85.1549
| 22> H 	 54.8723 	 0.259002 	 85.0622
| 23> S 	 46.9847 	 3.46355 	 87.4437
| 24> C 	 46.438 	 3.24633 	 89.1027
| 25> C 	 46.9614 	 2.06691 	 89.6069
| 26> C 	 47.9493 	 1.45657 	 88.7133
| 27> C 	 47.9743 	 2.03872 	 87.4785
| 28> H 	 46.733 	 1.78606 	 90.6238
| 29> C 	 48.609 	 0.174095 	 89.0694
| 30> H 	 48.6545 	 -0.529407 	 88.2282
| 31> H 	 47.9356 	 -0.174083 	 89.9159
| 32> C 	 50.0036 	 0.441908 	 89.761
| 33> H 	 49.7894 	 1.21957 	 90.5345
| 34> H 	 50.8203 	 0.839691 	 89.1857
| 35> C 	 50.489 	 -0.881239 	 90.4971
| 36> H 	 51.3777 	 -0.576597 	 91.1
| 37> H 	 50.6222 	 -1.6176 	 89.737
| 38> H 	 49.7847 	 -1.39708 	 91.1888
| 39> H 	 49.6596 	 1.47666 	 82.6745
| 40> H 	 46.0195 	 4.07713 	 89.674
| 41> *
| 42>
| 43>                          ****END OF INPUT****

CARTESIAN COORDINATES (ANGSTROEM)
---------------------------------
  S     48.084300    2.158410   84.584500
  C     49.542700    1.527130   83.751000
  C     50.546400    1.348390   84.693300
  C     50.078700    1.338160   86.021100
  C     48.741600    1.698100   86.219700
  H     50.634100    1.216840   86.899900
  C     52.002200    1.089960   84.288300
  H     52.115400    1.378700   83.235700
  H     51.974700    0.014348   84.353900
  C     53.164900    1.699890   85.152800
  H     53.068000    2.808960   85.051000
  H     52.962700    1.439720   86.220200
  C     54.601700    1.270860   84.800000
  H     54.674400    1.307800   83.703600
  H     55.363500    1.871690   85.154900
  H     54.872300    0.259002   85.062200
  S     46.984700    3.463550   87.443700
  C     46.438000    3.246330   89.102700
  C     46.961400    2.066910   89.606900
  C     47.949300    1.456570   88.713300
  C     47.974300    2.038720   87.478500
  H     46.733000    1.786060   90.623800
  C     48.609000    0.174095   89.069400
  H     48.654500   -0.529407   88.228200
  H     47.935600   -0.174083   89.915900
  C     50.003600    0.441908   89.761000
  H     49.789400    1.219570   90.534500
  H     50.820300    0.839691   89.185700
  C     50.489000   -0.881239   90.497100
  H     51.377700   -0.576597   91.100000
  H     50.622200   -1.617600   89.737000
  H     49.784700   -1.397080   91.188800
  H     49.659600    1.476660   82.674500
  H     46.019500    4.077130   89.674000

 Total Charge           Charge          ....    0
 Multiplicity           Mult            ....    1
 Number of Electrons    NEL             ....  134
 Basis Dimension        Dim             ....  322

ORBITAL ENERGIES
----------------

  NO   OCC          E(Eh)            E(eV)
   0   2.0000     -88.963899     -2420.8308
   1   2.0000     -88.962762     -2420.7998
   2   2.0000     -10.343526      -281.4617
   3   2.0000     -10.331446      -281.1329
   4   2.0000     -10.321286      -280.8565
   5   2.0000     -10.318809      -280.7891
   6   2.0000     -10.305892      -280.4376
   7   2.0000     -10.302894      -280.3560
   8   2.0000     -10.300713      -280.2966
   9   2.0000     -10.300706      -280.2965
  10   2.0000     -10.298873      -280.2466
  11   2.0000     -10.297281      -280.2033
  12   2.0000     -10.296363      -280.1783
  13   2.0000     -10.294339      -280.1232
  14   2.0000     -10.284265      -279.8491
  15   2.0000     -10.277466      -279.6641
  16   2.0000      -8.077927      -219.8116
  17   2.0000      -8.076864      -219.7826
  18   2.0000      -6.036522      -164.2621
  19   2.0000      -6.035639      -164.2381
  20   2.0000      -6.032286      -164.1469
  21   2.0000      -6.031697      -164.1308
  22   2.0000      -6.028641      -164.0477
  23   2.0000      -6.027355      -164.0127
  24   2.0000      -1.002812       -27.2879
  25   2.0000      -0.979769       -26.6609
  26   2.0000      -0.905615       -24.6430
  27   2.0000      -0.903683       -24.5905
  28   2.0000      -0.866830       -23.5876
  29   2.0000      -0.847753       -23.0685
  30   2.0000      -0.842113       -22.9151
  31   2.0000      -0.820950       -22.3392
  32   2.0000      -0.779564       -21.2130
  33   2.0000      -0.769127       -20.9290
  34   2.0000      -0.709928       -19.3181
  35   2.0000      -0.701482       -19.0883
  36   2.0000      -0.691268       -18.8103
  37   2.0000      -0.666275       -18.1303
  38   2.0000      -0.643191       -17.5021
  39   2.0000      -0.619914       -16.8687
  40   2.0000      -0.593728       -16.1561
  41   2.0000      -0.565930       -15.3997
  42   2.0000      -0.562981       -15.3195
  43   2.0000      -0.557664       -15.1748
  44   2.0000      -0.530910       -14.4468
  45   2.0000      -0.524285       -14.2665
  46   2.0000      -0.517226       -14.0744
  47   2.0000      -0.510886       -13.9019
  48   2.0000      -0.509281       -13.8582
  49   2.0000      -0.502144       -13.6640
  50   2.0000      -0.496128       -13.5003
  51   2.0000      -0.483878       -13.1670
  52   2.0000      -0.470070       -12.7912
  53   2.0000      -0.463874       -12.6227
  54   2.0000      -0.461364       -12.5544
  55   2.0000      -0.450299       -12.2533
  56   2.0000      -0.443439       -12.0666
  57   2.0000      -0.435280       -11.8446
  58   2.0000      -0.427361       -11.6291
  59   2.0000      -0.425751       -11.5853
  60   2.0000      -0.422588       -11.4992
  61   2.0000      -0.417238       -11.3536
  62   2.0000      -0.406808       -11.0698
  63   2.0000      -0.355032        -9.6609
  64   2.0000      -0.329742        -8.9727
  65   2.0000      -0.324767        -8.8373
  66   2.0000      -0.287364        -7.8196
  67   0.0000       0.022681         0.6172
  68   0.0000       0.063625         1.7313
  69   0.0000       0.102900         2.8001
  70   0.0000       0.122487         3.3330
  71   0.0000       0.130798         3.5592

MULLIKEN ATOMIC CHARGES
-----------------------
   0 S :    0.076449
   1 C :   -0.125651
   2 C :   -0.077181
   3 C :    0.055171
   4 C :   -0.124663
   5 H :   -0.037445
   6 C :    0.058558
   7 H :    0.024341
   8 H :    0.042068
   9 C :   -0.108973
  10 H :    0.046622
  11 H :    0.037917
  12 C :   -0.008705
  13 H :    0.020297
  14 H :    0.023623
  15 H :    0.027079
  16 S :    0.090026
  17 C :   -0.107529
  18 C :   -0.021001
  19 C :   -0.063962
  20 C :   -0.116884
  21 H :    0.022888
  22 C :    0.028003
  23 H :    0.049423
  24 H :    0.033905
  25 C :   -0.103952
  26 H :    0.031782
  27 H :    0.046791
  28 C :   -0.059813
  29 H :    0.048408
  30 H :    0.028766
  31 H :    0.033096
  32 H :    0.053806
  33 H :    0.076742
Sum of atomic charges:   -0.0000000

LOEWDIN ATOMIC CHARGES
----------------------
   0 S :    0.354809
   1 C :   -0.184003
   2 C :   -0.059864
   3 C :   -0.065892
   4 C :   -0.156426
   5 H :    0.018707
   6 C :   -0.032410
   7 H :    0.028838
   8 H :    0.034271
   9 C :   -0.042553
  10 H :    0.032302
  11 H :    0.024440
  12 C :   -0.060608
  13 H :    0.027978
  14 H :    0.019118
  15 H :    0.024914
  16 S :    0.400926
  17 C :   -0.184142
  18 C :   -0.067911
  19 C :   -0.068139
  20 C :   -0.196860
  21 H :    0.030041
  22 C :   -0.033936
  23 H :    0.031960
  24 H :    0.043091
  25 C :   -0.037228
  26 H :    0.027153
  27 H :    0.018679
  28 C :   -0.072453
  29 H :    0.031811
  30 H :    0.020189
  31 H :    0.026720
  32 H :    0.030013
  33 H :    0.036466

  Mayer bond orders larger than 0.100000
B(  0-S ,  1-C ) :   1.1259 B(  0-S ,  4-C ) :   1.1394 B(  1-C ,  2-C ) :   1.5997
B(  1-C ,  4-C ) :   0.1106 B(  1-C , 32-H ) :   0.9720 B(  2-C ,  3-C ) :   1.2438
B(  2-C ,  6-C ) :   1.0047 B(  3-C ,  4-C ) :   1.5705 B(  3-C ,  5-H ) :   1.0002
B(  4-C , 20-C ) :   1.0290 B(  6-C ,  7-H ) :   0.9431 B(  6-C ,  8-H ) :   0.9420
B(  6-C ,  9-C ) :   1.0559 B(  9-C , 10-H ) :   0.9591 B(  9-C , 11-H ) :   0.9545
B(  9-C , 12-C ) :   1.0832 B( 12-C , 13-H ) :   0.9735 B( 12-C , 14-H ) :   0.9744
B( 12-C , 15-H ) :   0.9747 B( 16-S , 17-C ) :   1.1516 B( 16-S , 20-C ) :   1.1332
B( 17-C , 18-C ) :   1.6143 B( 17-C , 33-H ) :   0.9652 B( 18-C , 19-C ) :   1.2328
B( 18-C , 21-H ) :   0.9847 B( 19-C , 20-C ) :   1.6138 B( 19-C , 22-C ) :   1.0522
B( 22-C , 23-H ) :   0.9427 B( 22-C , 24-H ) :   0.9397 B( 22-C , 25-C ) :   1.0393
B( 25-C , 26-H ) :   0.9573 B( 25-C , 27-H ) :   0.9563 B( 25-C , 28-C ) :   1.0674
B( 28-C , 29-H ) :   0.9762 B( 28-C , 30-H ) :   0.9753 B( 28-C , 31-H ) :   0.9781

Dispersion correction           -0.013698092
FINAL SINGLE POINT ENERGY     -1339.858043869456

DIPOLE MOMENT
-------------
                                X             Y             Z
Electronic contribution:    -27.24551      13.61276      -8.68136
Nuclear contribution   :     27.95661     -13.81570       9.06904
                        -----------------------------------------
Total Dipole Moment    :      0.71110      -0.20294       0.38769
                        -----------------------------------------
Magnitude (a.u.)       :      0.83495
Magnitude (Debye)      :      2.12228

Rotational constants in cm-1:     0.016277     0.008954     0.006364
Rotational constants in MHz :   487.966533   268.424590   190.788911

                             ****ORCA TERMINATED NORMALLY****
TOTAL RUN TIME: 0 days 0 hours 0 minutes 29 seconds 801 msec
