                         Program Version 4.2.1 -  RELEASE  -
|  1> ! wB97X-D3 SP def2-SVP
|  2> %pal
|  3> nprocs 16
|  4> end
|  5>
|  6> * xyz 0 1
|  7> S 	 17.2662 	 2.33698 	 85.9077
|  8> C 	 18.232 	 3.77017 	 86.1382
|  9> C 	 17.4673 	 4.92401 	 86.1767
| 10> C 	 16.1212 	 4.63201 	 86.2265
| 11> C 	 15.8242 	 3.27003 	 86.1827
| 12> H 	 15.434 	 5.46147 	 86.0919
| 13> C 	 18.0244 	 6.28837 	 86.3249
| 14> H 	 18.5453 	 6.42699 	 87.3256
| 15> H 	 17.2438 	 7.06143 	 86.4385
| 16> C 	 18.9196 	 6.81464 	 85.1135
| 17> H 	 19.7114 	 6.1115 	 84.8936
| 18> H 	 18.3342 	 6.8778 	 84.2538
| 19> C 	 19.6585 	 8.12315 	 85.3932
| 20> H 	 20.1889 	 8.26144 	 86.3033
| 21> H 	 20.462 	 8.14336 	 84.6866
| 22> H 	 19.0476 	 8.96186 	 85.0329
| 23> S 	 14.4701 	 1.2927 	 87.5455
| 24> C 	 12.7466 	 1.04255 	 87.3376
| 25> C 	 12.2859 	 1.80554 	 86.2779
| 26> C 	 13.2948 	 2.73528 	 85.8029
| 27> C 	 14.5497 	 2.56377 	 86.3192
| 28> H 	 11.262 	 1.83481 	 86.0389
| 29> C 	 12.9863 	 3.70203 	 84.6727
| 30> H 	 12.3988 	 3.06934 	 84.0089
| 31> H 	 13.9307 	 3.98231 	 84.1953
| 32> C 	 12.1935 	 4.93453 	 84.9728
| 33> H 	 12.8534 	 5.47078 	 85.7411
| 34> H 	 11.2466 	 4.71286 	 85.5143
| 35> C 	 11.9353 	 5.7362 	 83.679
| 36> H 	 11.3834 	 6.60518 	 83.7001
| 37> H 	 11.4056 	 5.08659 	 82.9583
| 38> H 	 12.8775 	 6.04518 	 83.2515
| 39> H 	 19.3124 	 3.84656 	 85.9223
| 40> H 	 12.1595 	 0.329361 	 87.92
| 41> *
| 42>
| 43>                          ****END OF INPUT****

CARTESIAN COORDINATES (ANGSTROEM)
---------------------------------
  S     17.266200    2.336980   85.907700
  C     18.232000    3.770170   86.138200
  C     17.467300    4.924010   86.176700
  C     16.121200    4.632010   86.226500
  C     15.824200    3.270030   86.182700
  H     15.434000    5.461470   86.091900
  C     18.024400    6.288370   86.324900
  H     18.545300    6.426990   87.325600
  H     17.243800    7.061430   86.438500
  C     18.919600    6.814640   85.113500
  H     19.711400    6.111500   84.893600
  H     18.334200    6.877800   84.253800
  C     19.658500    8.123150   85.393200
  H     20.188900    8.261440   86.303300
  H     20.462000    8.143360   84.686600
  H     19.047600    8.961860   85.032900
  S     14.470100    1.292700   87.545500
  C     12.746600    1.042550   87.337600
  C     12.285900    1.805540   86.277900
  C     13.294800    2.735280   85.802900
  C     14.549700    2.563770   86.319200
  H     11.262000    1.834810   86.038900
  C     12.986300    3.702030   84.672700
  H     12.398800    3.069340   84.008900
  H     13.930700    3.982310   84.195300
  C     12.193500    4.934530   84.972800
  H     12.853400    5.470780   85.741100
  H     11.246600    4.712860   85.514300
  C     11.935300    5.736200   83.679000
  H     11.383400    6.605180   83.700100
  H     11.405600    5.086590   82.958300
  H     12.877500    6.045180   83.251500
  H     19.312400    3.846560   85.922300
  H     12.159500    0.329361   87.920000

 Total Charge           Charge          ....    0
 Multiplicity           Mult            ....    1
 Number of Electrons    NEL             ....  134
 Basis Dimension        Dim             ....  322

ORBITAL ENERGIES
----------------

  NO   OCC          E(Eh)            E(eV)
   0   2.0000     -88.971710     -2421.0433
   1   2.0000     -88.959740     -2420.7176
   2   2.0000     -10.332540      -281.1627
   3   2.0000     -10.325208      -280.9632
   4   2.0000     -10.321601      -280.8650
   5   2.0000     -10.311919      -280.6016
   6   2.0000     -10.301567      -280.3199
   7   2.0000     -10.298154      -280.2270
   8   2.0000     -10.293647      -280.1044
   9   2.0000     -10.293419      -280.0982
  10   2.0000     -10.293332      -280.0958
  11   2.0000     -10.291997      -280.0595
  12   2.0000     -10.286747      -279.9166
  13   2.0000     -10.285635      -279.8864
  14   2.0000     -10.275251      -279.6038
  15   2.0000     -10.275062      -279.5986
  16   2.0000      -8.086394      -220.0420
  17   2.0000      -8.074533      -219.7192
  18   2.0000      -6.044741      -164.4858
  19   2.0000      -6.040953      -164.3827
  20   2.0000      -6.037286      -164.2829
  21   2.0000      -6.033135      -164.1700
  22   2.0000      -6.028915      -164.0551
  23   2.0000      -6.025285      -163.9563
  24   2.0000      -1.009559       -27.4715
  25   2.0000      -0.985893       -26.8275
  26   2.0000      -0.912150       -24.8208
  27   2.0000      -0.909591       -24.7512
  28   2.0000      -0.871314       -23.7097
  29   2.0000      -0.856215       -23.2988
  30   2.0000      -0.845803       -23.0155
  31   2.0000      -0.815522       -22.1915
  32   2.0000      -0.783449       -21.3187
  33   2.0000      -0.772580       -21.0230
  34   2.0000      -0.709187       -19.2980
  35   2.0000      -0.705299       -19.1922
  36   2.0000      -0.693163       -18.8619
  37   2.0000      -0.666209       -18.1285
  38   2.0000      -0.634255       -17.2590
  39   2.0000      -0.625269       -17.0144
  40   2.0000      -0.595535       -16.2053
  41   2.0000      -0.575001       -15.6466
  42   2.0000      -0.568348       -15.4655
  43   2.0000      -0.560845       -15.2614
  44   2.0000      -0.526786       -14.3346
  45   2.0000      -0.525639       -14.3034
  46   2.0000      -0.519729       -14.1425
  47   2.0000      -0.512612       -13.9489
  48   2.0000      -0.502374       -13.6703
  49   2.0000      -0.499060       -13.5801
  50   2.0000      -0.491759       -13.3814
  51   2.0000      -0.479720       -13.0539
  52   2.0000      -0.472432       -12.8555
  53   2.0000      -0.466943       -12.7062
  54   2.0000      -0.459038       -12.4910
  55   2.0000      -0.451467       -12.2850
  56   2.0000      -0.446056       -12.1378
  57   2.0000      -0.445594       -12.1252
  58   2.0000      -0.433486       -11.7958
  59   2.0000      -0.428668       -11.6647
  60   2.0000      -0.418612       -11.3910
  61   2.0000      -0.411381       -11.1942
  62   2.0000      -0.407280       -11.0826
  63   2.0000      -0.346993        -9.4422
  64   2.0000      -0.336622        -9.1600
  65   2.0000      -0.325432        -8.8555
  66   2.0000      -0.291646        -7.9361
  67   0.0000       0.028664         0.7800
  68   0.0000       0.064809         1.7636
  69   0.0000       0.107572         2.9272
  70   0.0000       0.123904         3.3716
  71   0.0000       0.128456         3.4955

MULLIKEN ATOMIC CHARGES
-----------------------
   0 S :    0.131981
   1 C :   -0.120653
   2 C :   -0.080223
   3 C :    0.048812
   4 C :   -0.167443
   5 H :    0.007897
   6 C :    0.017019
   7 H :    0.050630
   8 H :    0.015527
   9 C :   -0.070700
  10 H :    0.022105
  11 H :    0.019379
  12 C :   -0.023162
  13 H :    0.033438
  14 H :    0.010251
  15 H :    0.033593
  16 S :    0.088078
  17 C :   -0.096324
  18 C :   -0.002845
  19 C :   -0.048685
  20 C :   -0.119865
  21 H :    0.008135
  22 C :    0.034189
  23 H :    0.019187
  24 H :    0.027225
  25 C :   -0.089296
  26 H :    0.032995
  27 H :    0.031263
  28 C :   -0.000168
  29 H :    0.016624
  30 H :    0.027081
  31 H :    0.020169
  32 H :    0.056722
  33 H :    0.067062
Sum of atomic charges:   -0.0000000

LOEWDIN ATOMIC CHARGES
----------------------
   0 S :    0.431294
   1 C :   -0.203471
   2 C :   -0.074035
   3 C :   -0.061585
   4 C :   -0.196666
   5 H :    0.031882
   6 C :   -0.039400
   7 H :    0.042201
   8 H :    0.028299
   9 C :   -0.029542
  10 H :    0.018588
  11 H :    0.018549
  12 C :   -0.067719
  13 H :    0.023924
  14 H :    0.026317
  15 H :    0.029521
  16 S :    0.390617
  17 C :   -0.174818
  18 C :   -0.069324
  19 C :   -0.054830
  20 C :   -0.199584
  21 H :    0.024004
  22 C :   -0.034744
  23 H :    0.028579
  24 H :    0.030119
  25 C :   -0.045475
  26 H :    0.027015
  27 H :    0.024310
  28 C :   -0.059383
  29 H :    0.014788
  30 H :    0.030195
  31 H :    0.025387
  32 H :    0.031208
  33 H :    0.033779

  Mayer bond orders larger than 0.100000
B(  0-S ,  1-C ) :   1.1543 B(  0-S ,  4-C ) :   1.1866 B(  1-C ,  2-C ) :   1.5678
B(  1-C ,  4-C ) :   0.1117 B(  1-C , 32-H ) :   0.9587 B(  2-C ,  3-C ) :   1.3211
B(  2-C ,  6-C ) :   1.0256 B(  3-C ,  4-C ) :   1.5106 B(  3-C ,  5-H ) :   0.9906
B(  4-C , 20-C ) :   1.0171 B(  6-C ,  7-H ) :   0.9446 B(  6-C ,  8-H ) :   0.9441
B(  6-C ,  9-C ) :   1.0429 B(  9-C , 10-H ) :   0.9681 B(  9-C , 11-H ) :   0.9561
B(  9-C , 12-C ) :   1.0866 B( 12-C , 13-H ) :   0.9742 B( 12-C , 14-H ) :   0.9698
B( 12-C , 15-H ) :   0.9751 B( 16-S , 17-C ) :   1.1620 B( 16-S , 20-C ) :   1.1154
B( 17-C , 18-C ) :   1.6058 B( 17-C , 33-H ) :   0.9667 B( 18-C , 19-C ) :   1.2244
B( 18-C , 21-H ) :   0.9939 B( 19-C , 20-C ) :   1.6300 B( 19-C , 22-C ) :   1.0393
B( 22-C , 23-H ) :   0.9342 B( 22-C , 24-H ) :   0.9395 B( 22-C , 25-C ) :   1.0618
B( 25-C , 26-H ) :   0.9520 B( 25-C , 27-H ) :   0.9544 B( 25-C , 28-C ) :   1.0719
B( 28-C , 29-H ) :   0.9754 B( 28-C , 30-H ) :   0.9730 B( 28-C , 31-H ) :   0.9723

Dispersion correction           -0.013659838
FINAL SINGLE POINT ENERGY     -1339.869187491444

DIPOLE MOMENT
-------------
                                X             Y             Z
Electronic contribution:      0.28669     -28.29567      12.02098
Nuclear contribution   :     -0.42635      28.92035     -12.38807
                        -----------------------------------------
Total Dipole Moment    :     -0.13967       0.62468      -0.36708
                        -----------------------------------------
Magnitude (a.u.)       :      0.73789
Magnitude (Debye)      :      1.87556

Rotational constants in cm-1:     0.018672     0.008081     0.006014
Rotational constants in MHz :   559.780042   242.255292   180.285941

                             ****ORCA TERMINATED NORMALLY****
TOTAL RUN TIME: 0 days 0 hours 0 minutes 34 seconds 398 msec
