                         Program Version 4.2.1 -  RELEASE  -
|  1> ! wB97X-D3 SP def2-SVP
|  2> %pal
|  3> nprocs 16
|  4> end
|  5>
|  6> * xyz 0 1
|  7> S 	 -36.042 	 55.765 	 115.296
|  8> C 	 -37.225 	 56.9288 	 115.549
|  9> C 	 -38.491 	 56.4149 	 115.712
| 10> C 	 -38.4852 	 54.9651 	 115.561
| 11> C 	 -37.1989 	 54.4718 	 115.259
| 12> H 	 -39.3883 	 54.3636 	 115.73
| 13> C 	 -39.7616 	 57.2421 	 116.085
| 14> H 	 -39.5362 	 58.2517 	 116.422
| 15> H 	 -40.3002 	 56.8507 	 116.975
| 16> C 	 -40.6479 	 57.3743 	 114.857
| 17> H 	 -40.9665 	 56.3447 	 114.606
| 18> H 	 -41.5666 	 57.9071 	 115.022
| 19> C 	 -39.9614 	 57.8467 	 113.58
| 20> H 	 -39.3971 	 58.7612 	 113.698
| 21> H 	 -39.3118 	 57.1047 	 113.14
| 22> H 	 -40.7769 	 58.045 	 112.823
| 23> S 	 -35.2628 	 52.5765 	 115.811
| 24> C 	 -35.5913 	 50.9045 	 115.381
| 25> C 	 -36.7831 	 50.7206 	 114.795
| 26> C 	 -37.5327 	 51.9489 	 114.636
| 27> C 	 -36.8231 	 53.0632 	 115.121
| 28> H 	 -37.0267 	 49.7693 	 114.371
| 29> C 	 -38.8405 	 51.8963 	 114.033
| 30> H 	 -38.722 	 51.5652 	 113.015
| 31> H 	 -39.0436 	 53.002 	 113.864
| 32> C 	 -40.0558 	 51.233 	 114.73
| 33> H 	 -40.2122 	 51.6928 	 115.741
| 34> H 	 -39.8924 	 50.1358 	 114.942
| 35> C 	 -41.3123 	 51.2564 	 113.877
| 36> H 	 -41.169 	 50.5347 	 113.084
| 37> H 	 -41.494 	 52.2312 	 113.414
| 38> H 	 -42.2391 	 50.9597 	 114.316
| 39> H 	 -37.0567 	 57.961 	 115.726
| 40> H 	 -34.7975 	 50.1331 	 115.516
| 41> *
| 42>
| 43>                          ****END OF INPUT****

CARTESIAN COORDINATES (ANGSTROEM)
---------------------------------
  S    -36.042000   55.765000  115.296000
  C    -37.225000   56.928800  115.549000
  C    -38.491000   56.414900  115.712000
  C    -38.485200   54.965100  115.561000
  C    -37.198900   54.471800  115.259000
  H    -39.388300   54.363600  115.730000
  C    -39.761600   57.242100  116.085000
  H    -39.536200   58.251700  116.422000
  H    -40.300200   56.850700  116.975000
  C    -40.647900   57.374300  114.857000
  H    -40.966500   56.344700  114.606000
  H    -41.566600   57.907100  115.022000
  C    -39.961400   57.846700  113.580000
  H    -39.397100   58.761200  113.698000
  H    -39.311800   57.104700  113.140000
  H    -40.776900   58.045000  112.823000
  S    -35.262800   52.576500  115.811000
  C    -35.591300   50.904500  115.381000
  C    -36.783100   50.720600  114.795000
  C    -37.532700   51.948900  114.636000
  C    -36.823100   53.063200  115.121000
  H    -37.026700   49.769300  114.371000
  C    -38.840500   51.896300  114.033000
  H    -38.722000   51.565200  113.015000
  H    -39.043600   53.002000  113.864000
  C    -40.055800   51.233000  114.730000
  H    -40.212200   51.692800  115.741000
  H    -39.892400   50.135800  114.942000
  C    -41.312300   51.256400  113.877000
  H    -41.169000   50.534700  113.084000
  H    -41.494000   52.231200  113.414000
  H    -42.239100   50.959700  114.316000
  H    -37.056700   57.961000  115.726000
  H    -34.797500   50.133100  115.516000

 Total Charge           Charge          ....    0
 Multiplicity           Mult            ....    1
 Number of Electrons    NEL             ....  134
 Basis Dimension        Dim             ....  322

ORBITAL ENERGIES
----------------

  NO   OCC          E(Eh)            E(eV)
   0   2.0000     -88.969619     -2420.9864
   1   2.0000     -88.962870     -2420.8028
   2   2.0000     -10.333693      -281.1941
   3   2.0000     -10.331891      -281.1451
   4   2.0000     -10.316726      -280.7324
   5   2.0000     -10.306960      -280.4667
   6   2.0000     -10.304198      -280.3915
   7   2.0000     -10.302786      -280.3530
   8   2.0000     -10.301678      -280.3229
   9   2.0000     -10.298322      -280.2316
  10   2.0000     -10.297650      -280.2133
  11   2.0000     -10.289587      -279.9939
  12   2.0000     -10.288586      -279.9667
  13   2.0000     -10.283087      -279.8170
  14   2.0000     -10.276546      -279.6390
  15   2.0000     -10.274529      -279.5842
  16   2.0000      -8.085710      -220.0233
  17   2.0000      -8.077592      -219.8025
  18   2.0000      -6.044175      -164.4704
  19   2.0000      -6.039950      -164.3554
  20   2.0000      -6.036536      -164.2625
  21   2.0000      -6.036193      -164.2532
  22   2.0000      -6.032246      -164.1458
  23   2.0000      -6.028133      -164.0338
  24   2.0000      -1.009504       -27.4700
  25   2.0000      -0.986576       -26.8461
  26   2.0000      -0.912783       -24.8381
  27   2.0000      -0.910639       -24.7797
  28   2.0000      -0.871267       -23.7084
  29   2.0000      -0.857309       -23.3286
  30   2.0000      -0.844079       -22.9685
  31   2.0000      -0.815028       -22.1780
  32   2.0000      -0.784433       -21.3455
  33   2.0000      -0.771896       -21.0044
  34   2.0000      -0.710028       -19.3208
  35   2.0000      -0.696467       -18.9518
  36   2.0000      -0.689556       -18.7638
  37   2.0000      -0.662065       -18.0157
  38   2.0000      -0.637651       -17.3514
  39   2.0000      -0.623816       -16.9749
  40   2.0000      -0.597550       -16.2602
  41   2.0000      -0.570667       -15.5286
  42   2.0000      -0.562404       -15.3038
  43   2.0000      -0.549262       -14.9462
  44   2.0000      -0.544288       -14.8108
  45   2.0000      -0.527581       -14.3562
  46   2.0000      -0.520328       -14.1588
  47   2.0000      -0.511847       -13.9281
  48   2.0000      -0.498841       -13.5742
  49   2.0000      -0.498472       -13.5641
  50   2.0000      -0.493708       -13.4345
  51   2.0000      -0.481595       -13.1049
  52   2.0000      -0.467676       -12.7261
  53   2.0000      -0.462647       -12.5893
  54   2.0000      -0.456652       -12.4261
  55   2.0000      -0.453759       -12.3474
  56   2.0000      -0.446404       -12.1473
  57   2.0000      -0.438474       -11.9315
  58   2.0000      -0.432585       -11.7712
  59   2.0000      -0.428532       -11.6609
  60   2.0000      -0.421319       -11.4647
  61   2.0000      -0.409645       -11.1470
  62   2.0000      -0.408659       -11.1202
  63   2.0000      -0.360049        -9.7974
  64   2.0000      -0.333324        -9.0702
  65   2.0000      -0.327374        -8.9083
  66   2.0000      -0.286422        -7.7939
  67   0.0000       0.025581         0.6961
  68   0.0000       0.082184         2.2363
  69   0.0000       0.108857         2.9622
  70   0.0000       0.120486         3.2786
  71   0.0000       0.127022         3.4565

MULLIKEN ATOMIC CHARGES
-----------------------
   0 S :    0.129774
   1 C :   -0.088591
   2 C :   -0.124286
   3 C :    0.007892
   4 C :   -0.148410
   5 H :    0.025840
   6 C :    0.077562
   7 H :    0.012030
   8 H :    0.040381
   9 C :   -0.079143
  10 H :    0.018153
  11 H :    0.027832
  12 C :   -0.057109
  13 H :    0.023665
  14 H :    0.047072
  15 H :    0.035052
  16 S :    0.082037
  17 C :   -0.101236
  18 C :   -0.002043
  19 C :   -0.045838
  20 C :   -0.112665
  21 H :    0.012374
  22 C :    0.021086
  23 H :    0.023533
  24 H :    0.019550
  25 C :   -0.069564
  26 H :    0.037565
  27 H :    0.034323
  28 C :   -0.027464
  29 H :    0.022041
  30 H :    0.026435
  31 H :    0.028732
  32 H :    0.033197
  33 H :    0.070221
Sum of atomic charges:   -0.0000000

LOEWDIN ATOMIC CHARGES
----------------------
   0 S :    0.444599
   1 C :   -0.215182
   2 C :   -0.058722
   3 C :   -0.063723
   4 C :   -0.202818
   5 H :    0.034117
   6 C :   -0.031981
   7 H :    0.024172
   8 H :    0.036040
   9 C :   -0.047209
  10 H :    0.023760
  11 H :    0.020027
  12 C :   -0.066124
  13 H :    0.018067
  14 H :    0.026247
  15 H :    0.033609
  16 S :    0.377547
  17 C :   -0.177928
  18 C :   -0.068158
  19 C :   -0.057183
  20 C :   -0.185001
  21 H :    0.031308
  22 C :   -0.049136
  23 H :    0.032807
  24 H :    0.038807
  25 C :   -0.041501
  26 H :    0.026395
  27 H :    0.028975
  28 C :   -0.065328
  29 H :    0.025429
  30 H :    0.024223
  31 H :    0.024160
  32 H :    0.023824
  33 H :    0.035883

  Mayer bond orders larger than 0.100000
B(  0-S ,  1-C ) :   1.1566 B(  0-S ,  4-C ) :   1.1671 B(  1-C ,  2-C ) :   1.6077
B(  1-C , 32-H ) :   0.9645 B(  2-C ,  3-C ) :   1.2676 B(  2-C ,  6-C ) :   1.0152
B(  3-C ,  4-C ) :   1.5238 B(  3-C ,  5-H ) :   0.9877 B(  4-C , 20-C ) :   1.0617
B(  6-C ,  7-H ) :   0.9440 B(  6-C ,  8-H ) :   0.9487 B(  6-C ,  9-C ) :   1.0642
B(  9-C , 10-H ) :   0.9552 B(  9-C , 11-H ) :   0.9610 B(  9-C , 12-C ) :   1.0761
B( 12-C , 13-H ) :   0.9777 B( 12-C , 14-H ) :   0.9705 B( 12-C , 15-H ) :   0.9720
B( 16-S , 17-C ) :   1.1343 B( 16-S , 20-C ) :   1.1225 B( 17-C , 18-C ) :   1.6488
B( 17-C , 33-H ) :   0.9591 B( 18-C , 19-C ) :   1.1992 B( 18-C , 21-H ) :   0.9948
B( 19-C , 20-C ) :   1.6029 B( 19-C , 22-C ) :   1.0753 B( 22-C , 23-H ) :   0.9211
B( 22-C , 24-H ) :   0.9218 B( 22-C , 25-C ) :   1.0519 B( 25-C , 26-H ) :   0.9536
B( 25-C , 27-H ) :   0.9545 B( 25-C , 28-C ) :   1.0763 B( 28-C , 29-H ) :   0.9736
B( 28-C , 30-H ) :   0.9753 B( 28-C , 31-H ) :   0.9740

Dispersion correction           -0.014517792
FINAL SINGLE POINT ENERGY     -1339.888577090570

DIPOLE MOMENT
-------------
                                X             Y             Z
Electronic contribution:     29.35625      -2.31242       8.27876
Nuclear contribution   :    -29.98876       2.18444      -8.36299
                        -----------------------------------------
Total Dipole Moment    :     -0.63251      -0.12798      -0.08423
                        -----------------------------------------
Magnitude (a.u.)       :      0.65080
Magnitude (Debye)      :      1.65421

Rotational constants in cm-1:     0.017087     0.009861     0.006653
Rotational constants in MHz :   512.264493   295.633159   199.447216

                             ****ORCA TERMINATED NORMALLY****
TOTAL RUN TIME: 0 days 0 hours 0 minutes 30 seconds 384 msec
