                         Program Version 4.2.1 -  RELEASE  -
|  1> ! wB97X-D3 SP def2-SVP
|  2> %pal
|  3> nprocs 16
|  4> end
|  5>
|  6> * xyz 0 1
|  7> S 	 10.3042 	 -9.46651 	 71.9731
|  8> C 	 8.64855 	 -8.85025 	 71.9715
|  9> C 	 8.13502 	 -8.66132 	 70.7007
| 10> C 	 9.18327 	 -8.67639 	 69.7116
| 11> C 	 10.4151 	 -9.25015 	 70.1977
| 12> H 	 9.05212 	 -8.37057 	 68.6818
| 13> C 	 6.68931 	 -8.19297 	 70.3827
| 14> H 	 6.24372 	 -7.97678 	 71.3474
| 15> H 	 6.16583 	 -9.0715 	 69.9575
| 16> C 	 6.49168 	 -6.98031 	 69.4468
| 17> H 	 7.09902 	 -6.1869 	 69.8567
| 18> H 	 6.90882 	 -7.16685 	 68.4356
| 19> C 	 5.11277 	 -6.35611 	 69.2039
| 20> H 	 4.56057 	 -6.35962 	 70.144
| 21> H 	 5.29008 	 -5.3588 	 68.9548
| 22> H 	 4.50902 	 -6.80632 	 68.3389
| 23> S 	 12.3441 	 -11.2092 	 69.7941
| 24> C 	 13.5699 	 -10.9411 	 68.6174
| 25> C 	 13.3692 	 -9.77745 	 67.8958
| 26> C 	 12.383 	 -8.90219 	 68.5215
| 27> C 	 11.6735 	 -9.57858 	 69.4784
| 28> H 	 13.9487 	 -9.58024 	 66.9607
| 29> C 	 12.1154 	 -7.49306 	 68.0455
| 30> H 	 11.1037 	 -7.46097 	 67.5286
| 31> H 	 12.8139 	 -7.24437 	 67.2845
| 32> C 	 12.0294 	 -6.41341 	 69.1223
| 33> H 	 12.9408 	 -6.52799 	 69.7417
| 34> H 	 11.1582 	 -6.54759 	 69.7283
| 35> C 	 11.8695 	 -5.01893 	 68.5142
| 36> H 	 11.8315 	 -4.23092 	 69.2752
| 37> H 	 10.9732 	 -5.12664 	 67.9464
| 38> H 	 12.683 	 -4.85128 	 67.7134
| 39> H 	 8.06123 	 -8.69649 	 72.9214
| 40> H 	 14.1836 	 -11.6698 	 68.1644
| 41> *
| 42>
| 43>                          ****END OF INPUT****

CARTESIAN COORDINATES (ANGSTROEM)
---------------------------------
  S     10.304200   -9.466510   71.973100
  C      8.648550   -8.850250   71.971500
  C      8.135020   -8.661320   70.700700
  C      9.183270   -8.676390   69.711600
  C     10.415100   -9.250150   70.197700
  H      9.052120   -8.370570   68.681800
  C      6.689310   -8.192970   70.382700
  H      6.243720   -7.976780   71.347400
  H      6.165830   -9.071500   69.957500
  C      6.491680   -6.980310   69.446800
  H      7.099020   -6.186900   69.856700
  H      6.908820   -7.166850   68.435600
  C      5.112770   -6.356110   69.203900
  H      4.560570   -6.359620   70.144000
  H      5.290080   -5.358800   68.954800
  H      4.509020   -6.806320   68.338900
  S     12.344100  -11.209200   69.794100
  C     13.569900  -10.941100   68.617400
  C     13.369200   -9.777450   67.895800
  C     12.383000   -8.902190   68.521500
  C     11.673500   -9.578580   69.478400
  H     13.948700   -9.580240   66.960700
  C     12.115400   -7.493060   68.045500
  H     11.103700   -7.460970   67.528600
  H     12.813900   -7.244370   67.284500
  C     12.029400   -6.413410   69.122300
  H     12.940800   -6.527990   69.741700
  H     11.158200   -6.547590   69.728300
  C     11.869500   -5.018930   68.514200
  H     11.831500   -4.230920   69.275200
  H     10.973200   -5.126640   67.946400
  H     12.683000   -4.851280   67.713400
  H      8.061230   -8.696490   72.921400
  H     14.183600  -11.669800   68.164400

 Total Charge           Charge          ....    0
 Multiplicity           Mult            ....    1
 Number of Electrons    NEL             ....  134
 Basis Dimension        Dim             ....  322

ORBITAL ENERGIES
----------------

  NO   OCC          E(Eh)            E(eV)
   0   2.0000     -88.969750     -2420.9900
   1   2.0000     -88.965631     -2420.8779
   2   2.0000     -10.341967      -281.4192
   3   2.0000     -10.330327      -281.1025
   4   2.0000     -10.322155      -280.8801
   5   2.0000     -10.311446      -280.5887
   6   2.0000     -10.308953      -280.5209
   7   2.0000     -10.305394      -280.4240
   8   2.0000     -10.305235      -280.4197
   9   2.0000     -10.300651      -280.2950
  10   2.0000     -10.299733      -280.2700
  11   2.0000     -10.292984      -280.0863
  12   2.0000     -10.291546      -280.0472
  13   2.0000     -10.283640      -279.8321
  14   2.0000     -10.281098      -279.7629
  15   2.0000     -10.279112      -279.7089
  16   2.0000      -8.083287      -219.9574
  17   2.0000      -8.080360      -219.8778
  18   2.0000      -6.041845      -164.4070
  19   2.0000      -6.038929      -164.3276
  20   2.0000      -6.037988      -164.3020
  21   2.0000      -6.034976      -164.2201
  22   2.0000      -6.034035      -164.1944
  23   2.0000      -6.030934      -164.1101
  24   2.0000      -0.999750       -27.2046
  25   2.0000      -0.977693       -26.6044
  26   2.0000      -0.911877       -24.8134
  27   2.0000      -0.907295       -24.6888
  28   2.0000      -0.865807       -23.5598
  29   2.0000      -0.852776       -23.2052
  30   2.0000      -0.843508       -22.9530
  31   2.0000      -0.810920       -22.0662
  32   2.0000      -0.783591       -21.3226
  33   2.0000      -0.771891       -21.0042
  34   2.0000      -0.708611       -19.2823
  35   2.0000      -0.695628       -18.9290
  36   2.0000      -0.683677       -18.6038
  37   2.0000      -0.658822       -17.9275
  38   2.0000      -0.634726       -17.2718
  39   2.0000      -0.618235       -16.8230
  40   2.0000      -0.593362       -16.1462
  41   2.0000      -0.570307       -15.5188
  42   2.0000      -0.568680       -15.4746
  43   2.0000      -0.559086       -15.2135
  44   2.0000      -0.528076       -14.3697
  45   2.0000      -0.523046       -14.2328
  46   2.0000      -0.513628       -13.9765
  47   2.0000      -0.508803       -13.8452
  48   2.0000      -0.503442       -13.6994
  49   2.0000      -0.497480       -13.5371
  50   2.0000      -0.489644       -13.3239
  51   2.0000      -0.485245       -13.2042
  52   2.0000      -0.470283       -12.7971
  53   2.0000      -0.467978       -12.7343
  54   2.0000      -0.455692       -12.4000
  55   2.0000      -0.448681       -12.2092
  56   2.0000      -0.442737       -12.0475
  57   2.0000      -0.434510       -11.8236
  58   2.0000      -0.432549       -11.7702
  59   2.0000      -0.424316       -11.5462
  60   2.0000      -0.420307       -11.4371
  61   2.0000      -0.419041       -11.4027
  62   2.0000      -0.417054       -11.3486
  63   2.0000      -0.345157        -9.3922
  64   2.0000      -0.333196        -9.0667
  65   2.0000      -0.328053        -8.9268
  66   2.0000      -0.288293        -7.8448
  67   0.0000       0.025498         0.6938
  68   0.0000       0.063783         1.7356
  69   0.0000       0.105334         2.8663
  70   0.0000       0.113530         3.0893
  71   0.0000       0.126021         3.4292

MULLIKEN ATOMIC CHARGES
-----------------------
   0 S :    0.110044
   1 C :   -0.151694
   2 C :   -0.091919
   3 C :    0.024706
   4 C :   -0.155171
   5 H :    0.015525
   6 C :    0.093884
   7 H :    0.012053
   8 H :    0.046540
   9 C :   -0.125652
  10 H :    0.028398
  11 H :    0.032234
  12 C :   -0.029577
  13 H :    0.029051
  14 H :    0.022410
  15 H :    0.049543
  16 S :    0.104512
  17 C :   -0.054782
  18 C :   -0.078353
  19 C :   -0.036862
  20 C :   -0.143435
  21 H :    0.040519
  22 C :    0.051820
  23 H :    0.030524
  24 H :    0.002158
  25 C :   -0.081317
  26 H :    0.036609
  27 H :    0.042020
  28 C :   -0.036716
  29 H :    0.049783
  30 H :    0.013325
  31 H :    0.031128
  32 H :    0.072494
  33 H :    0.046197
Sum of atomic charges:   -0.0000000

LOEWDIN ATOMIC CHARGES
----------------------
   0 S :    0.387948
   1 C :   -0.201338
   2 C :   -0.064407
   3 C :   -0.058432
   4 C :   -0.181445
   5 H :    0.027523
   6 C :   -0.029861
   7 H :    0.026278
   8 H :    0.037139
   9 C :   -0.050359
  10 H :    0.024129
  11 H :    0.024604
  12 C :   -0.062726
  13 H :    0.025362
  14 H :    0.021305
  15 H :    0.034985
  16 S :    0.398603
  17 C :   -0.194561
  18 C :   -0.070000
  19 C :   -0.057018
  20 C :   -0.185852
  21 H :    0.038918
  22 C :   -0.033261
  23 H :    0.035301
  24 H :    0.022091
  25 C :   -0.040409
  26 H :    0.024944
  27 H :    0.023482
  28 C :   -0.063368
  29 H :    0.029285
  30 H :    0.018656
  31 H :    0.029481
  32 H :    0.039060
  33 H :    0.023942

  Mayer bond orders larger than 0.100000
B(  0-S ,  1-C ) :   1.1393 B(  0-S ,  4-C ) :   1.1504 B(  1-C ,  2-C ) :   1.6187
B(  1-C ,  4-C ) :   0.1061 B(  1-C , 32-H ) :   0.9555 B(  2-C ,  3-C ) :   1.2433
B(  2-C ,  6-C ) :   1.0204 B(  3-C ,  4-C ) :   1.5561 B(  3-C ,  5-H ) :   0.9888
B(  4-C , 20-C ) :   1.0399 B(  6-C ,  7-H ) :   0.9420 B(  6-C ,  8-H ) :   0.9322
B(  6-C ,  9-C ) :   1.0664 B(  9-C , 10-H ) :   0.9617 B(  9-C , 11-H ) :   0.9485
B(  9-C , 12-C ) :   1.0875 B( 12-C , 13-H ) :   0.9732 B( 12-C , 14-H ) :   0.9725
B( 12-C , 15-H ) :   0.9757 B( 16-S , 17-C ) :   1.1439 B( 16-S , 20-C ) :   1.1257
B( 17-C , 18-C ) :   1.6535 B( 17-C , 33-H ) :   0.9621 B( 18-C , 19-C ) :   1.2084
B( 18-C , 21-H ) :   0.9769 B( 19-C , 20-C ) :   1.6257 B( 19-C , 22-C ) :   1.0503
B( 22-C , 23-H ) :   0.9244 B( 22-C , 24-H ) :   0.9326 B( 22-C , 25-C ) :   1.0639
B( 25-C , 26-H ) :   0.9584 B( 25-C , 27-H ) :   0.9483 B( 25-C , 28-C ) :   1.0792
B( 28-C , 29-H ) :   0.9734 B( 28-C , 30-H ) :   0.9713 B( 28-C , 31-H ) :   0.9748

Dispersion correction           -0.014177577
FINAL SINGLE POINT ENERGY     -1339.869765126876

DIPOLE MOMENT
-------------
                                X             Y             Z
Electronic contribution:     15.84218     -25.05799      11.58618
Nuclear contribution   :    -16.25931      25.55875     -12.06146
                        -----------------------------------------
Total Dipole Moment    :     -0.41713       0.50076      -0.47528
                        -----------------------------------------
Magnitude (a.u.)       :      0.80663
Magnitude (Debye)      :      2.05029

Rotational constants in cm-1:     0.018086     0.008555     0.006765
Rotational constants in MHz :   542.195913   256.466614   202.795801

                             ****ORCA TERMINATED NORMALLY****
TOTAL RUN TIME: 0 days 0 hours 0 minutes 35 seconds 420 msec
