                         Program Version 4.2.1 -  RELEASE  -
|  1> ! wB97X-D3 SP def2-SVP
|  2> %pal
|  3> nprocs 16
|  4> end
|  5>
|  6> * xyz 0 1
|  7> S 	 -36.9278 	 52.7013 	 110.698
|  8> C 	 -37.9181 	 53.9505 	 111.456
|  9> C 	 -38.9717 	 53.3819 	 112.166
| 10> C 	 -39.1467 	 51.9868 	 111.88
| 11> C 	 -38.203 	 51.5087 	 110.941
| 12> H 	 -39.8584 	 51.2591 	 112.324
| 13> C 	 -39.964 	 54.1041 	 113.061
| 14> H 	 -39.4909 	 55.0329 	 113.449
| 15> H 	 -40.2069 	 53.428 	 113.882
| 16> C 	 -41.3984 	 54.2843 	 112.38
| 17> H 	 -41.6187 	 53.3813 	 111.803
| 18> H 	 -42.1326 	 54.4551 	 113.127
| 19> C 	 -41.3874 	 55.5765 	 111.493
| 20> H 	 -42.3567 	 55.6132 	 110.977
| 21> H 	 -41.2098 	 56.4193 	 112.113
| 22> H 	 -40.5893 	 55.5336 	 110.73
| 23> S 	 -36.4254 	 49.5039 	 110.908
| 24> C 	 -36.8405 	 47.8953 	 110.339
| 25> C 	 -38.1683 	 47.9021 	 109.955
| 26> C 	 -38.8026 	 49.2182 	 109.95
| 27> C 	 -37.9299 	 50.1438 	 110.535
| 28> H 	 -38.6225 	 46.909 	 109.634
| 29> C 	 -40.2797 	 49.4135 	 109.669
| 30> H 	 -40.4129 	 48.8196 	 108.816
| 31> H 	 -40.6047 	 50.4349 	 109.483
| 32> C 	 -41.2009 	 48.8803 	 110.79
| 33> H 	 -41.1223 	 49.6245 	 111.586
| 34> H 	 -40.8185 	 47.9124 	 111.164
| 35> C 	 -42.6783 	 48.7199 	 110.503
| 36> H 	 -43.1153 	 48.1943 	 111.307
| 37> H 	 -42.9074 	 48.14 	 109.693
| 38> H 	 -43.0739 	 49.737 	 110.361
| 39> H 	 -37.5541 	 55.0023 	 111.522
| 40> H 	 -36.2099 	 47.0265 	 110.396
| 41> *
| 42>
| 43>                          ****END OF INPUT****

CARTESIAN COORDINATES (ANGSTROEM)
---------------------------------
  S    -36.927800   52.701300  110.698000
  C    -37.918100   53.950500  111.456000
  C    -38.971700   53.381900  112.166000
  C    -39.146700   51.986800  111.880000
  C    -38.203000   51.508700  110.941000
  H    -39.858400   51.259100  112.324000
  C    -39.964000   54.104100  113.061000
  H    -39.490900   55.032900  113.449000
  H    -40.206900   53.428000  113.882000
  C    -41.398400   54.284300  112.380000
  H    -41.618700   53.381300  111.803000
  H    -42.132600   54.455100  113.127000
  C    -41.387400   55.576500  111.493000
  H    -42.356700   55.613200  110.977000
  H    -41.209800   56.419300  112.113000
  H    -40.589300   55.533600  110.730000
  S    -36.425400   49.503900  110.908000
  C    -36.840500   47.895300  110.339000
  C    -38.168300   47.902100  109.955000
  C    -38.802600   49.218200  109.950000
  C    -37.929900   50.143800  110.535000
  H    -38.622500   46.909000  109.634000
  C    -40.279700   49.413500  109.669000
  H    -40.412900   48.819600  108.816000
  H    -40.604700   50.434900  109.483000
  C    -41.200900   48.880300  110.790000
  H    -41.122300   49.624500  111.586000
  H    -40.818500   47.912400  111.164000
  C    -42.678300   48.719900  110.503000
  H    -43.115300   48.194300  111.307000
  H    -42.907400   48.140000  109.693000
  H    -43.073900   49.737000  110.361000
  H    -37.554100   55.002300  111.522000
  H    -36.209900   47.026500  110.396000

 Total Charge           Charge          ....    0
 Multiplicity           Mult            ....    1
 Number of Electrons    NEL             ....  134
 Basis Dimension        Dim             ....  322

ORBITAL ENERGIES
----------------

  NO   OCC          E(Eh)            E(eV)
   0   2.0000     -88.965332     -2420.8698
   1   2.0000     -88.964111     -2420.8365
   2   2.0000     -10.332872      -281.1717
   3   2.0000     -10.321675      -280.8671
   4   2.0000     -10.320515      -280.8355
   5   2.0000     -10.316340      -280.7219
   6   2.0000     -10.307125      -280.4711
   7   2.0000     -10.305417      -280.4247
   8   2.0000     -10.303571      -280.3744
   9   2.0000     -10.302800      -280.3535
  10   2.0000     -10.297949      -280.2214
  11   2.0000     -10.290631      -280.0223
  12   2.0000     -10.287107      -279.9264
  13   2.0000     -10.285985      -279.8959
  14   2.0000     -10.276388      -279.6347
  15   2.0000     -10.268989      -279.4334
  16   2.0000      -8.080178      -219.8728
  17   2.0000      -8.079831      -219.8634
  18   2.0000      -6.038703      -164.3215
  19   2.0000      -6.038329      -164.3113
  20   2.0000      -6.034522      -164.2077
  21   2.0000      -6.034323      -164.2023
  22   2.0000      -6.030999      -164.1118
  23   2.0000      -6.030465      -164.0973
  24   2.0000      -1.010725       -27.5032
  25   2.0000      -0.981956       -26.7204
  26   2.0000      -0.912373       -24.8269
  27   2.0000      -0.905080       -24.6285
  28   2.0000      -0.867874       -23.6160
  29   2.0000      -0.854419       -23.2499
  30   2.0000      -0.842777       -22.9331
  31   2.0000      -0.812467       -22.1083
  32   2.0000      -0.783056       -21.3080
  33   2.0000      -0.771859       -21.0034
  34   2.0000      -0.707012       -19.2388
  35   2.0000      -0.697744       -18.9866
  36   2.0000      -0.691826       -18.8255
  37   2.0000      -0.659659       -17.9502
  38   2.0000      -0.637921       -17.3587
  39   2.0000      -0.617387       -16.7999
  40   2.0000      -0.598922       -16.2975
  41   2.0000      -0.567083       -15.4311
  42   2.0000      -0.565006       -15.3746
  43   2.0000      -0.539450       -14.6792
  44   2.0000      -0.538049       -14.6411
  45   2.0000      -0.528810       -14.3896
  46   2.0000      -0.525591       -14.3021
  47   2.0000      -0.518195       -14.1008
  48   2.0000      -0.509109       -13.8536
  49   2.0000      -0.499518       -13.5926
  50   2.0000      -0.489905       -13.3310
  51   2.0000      -0.481060       -13.0903
  52   2.0000      -0.470588       -12.8054
  53   2.0000      -0.466572       -12.6961
  54   2.0000      -0.458506       -12.4766
  55   2.0000      -0.447939       -12.1890
  56   2.0000      -0.444441       -12.0938
  57   2.0000      -0.441191       -12.0054
  58   2.0000      -0.430593       -11.7170
  59   2.0000      -0.424418       -11.5490
  60   2.0000      -0.423593       -11.5265
  61   2.0000      -0.419310       -11.4100
  62   2.0000      -0.412170       -11.2157
  63   2.0000      -0.348579        -9.4853
  64   2.0000      -0.327693        -8.9170
  65   2.0000      -0.325450        -8.8560
  66   2.0000      -0.291489        -7.9318
  67   0.0000       0.027807         0.7567
  68   0.0000       0.068789         1.8719
  69   0.0000       0.098863         2.6902
  70   0.0000       0.123221         3.3530
  71   0.0000       0.125653         3.4192

MULLIKEN ATOMIC CHARGES
-----------------------
   0 S :    0.093646
   1 C :   -0.130669
   2 C :   -0.076799
   3 C :    0.010732
   4 C :   -0.148426
   5 H :    0.036081
   6 C :    0.041230
   7 H :    0.032685
   8 H :    0.029641
   9 C :   -0.068365
  10 H :    0.035967
  11 H :    0.028023
  12 C :   -0.053209
  13 H :    0.038391
  14 H :    0.025225
  15 H :    0.035613
  16 S :    0.114437
  17 C :   -0.097524
  18 C :   -0.069818
  19 C :   -0.044495
  20 C :   -0.154356
  21 H :    0.043733
  22 C :    0.114567
  23 H :    0.005719
  24 H :    0.027363
  25 C :   -0.114638
  26 H :    0.014514
  27 H :    0.024492
  28 C :    0.022306
  29 H :    0.024622
  30 H :    0.006971
  31 H :    0.029725
  32 H :    0.066560
  33 H :    0.056055
Sum of atomic charges:   -0.0000000

LOEWDIN ATOMIC CHARGES
----------------------
   0 S :    0.392629
   1 C :   -0.201125
   2 C :   -0.063838
   3 C :   -0.063655
   4 C :   -0.182671
   5 H :    0.037107
   6 C :   -0.032511
   7 H :    0.031172
   8 H :    0.032682
   9 C :   -0.028145
  10 H :    0.024304
  11 H :    0.017300
  12 C :   -0.063287
  13 H :    0.026959
  14 H :    0.017856
  15 H :    0.025650
  16 S :    0.432987
  17 C :   -0.193313
  18 C :   -0.073292
  19 C :   -0.059165
  20 C :   -0.226544
  21 H :    0.040599
  22 C :   -0.027462
  23 H :    0.022947
  24 H :    0.031203
  25 C :   -0.037997
  26 H :    0.018106
  27 H :    0.021973
  28 C :   -0.053437
  29 H :    0.026725
  30 H :    0.011387
  31 H :    0.029259
  32 H :    0.035876
  33 H :    0.029720

  Mayer bond orders larger than 0.100000
B(  0-S ,  1-C ) :   1.1342 B(  0-S ,  4-C ) :   1.1549 B(  1-C ,  2-C ) :   1.5972
B(  1-C ,  4-C ) :   0.1021 B(  1-C , 32-H ) :   0.9660 B(  2-C ,  3-C ) :   1.2315
B(  2-C ,  6-C ) :   1.0410 B(  3-C ,  4-C ) :   1.5580 B(  3-C ,  5-H ) :   0.9809
B(  4-C , 20-C ) :   1.0385 B(  6-C ,  7-H ) :   0.9480 B(  6-C ,  8-H ) :   0.9368
B(  6-C ,  9-C ) :   1.0528 B(  9-C , 10-H ) :   0.9581 B(  9-C , 11-H ) :   0.9603
B(  9-C , 12-C ) :   1.0717 B( 12-C , 13-H ) :   0.9757 B( 12-C , 14-H ) :   0.9787
B( 12-C , 15-H ) :   0.9790 B( 16-S , 17-C ) :   1.1383 B( 16-S , 20-C ) :   1.1755
B( 17-C , 18-C ) :   1.6221 B( 17-C , 33-H ) :   0.9735 B( 18-C , 19-C ) :   1.2296
B( 18-C , 21-H ) :   0.9741 B( 19-C , 20-C ) :   1.5692 B( 19-C , 22-C ) :   1.0677
B( 22-C , 23-H ) :   0.9199 B( 22-C , 24-H ) :   0.9331 B( 22-C , 25-C ) :   1.0629
B( 25-C , 26-H ) :   0.9519 B( 25-C , 27-H ) :   0.9564 B( 25-C , 28-C ) :   1.0900
B( 28-C , 29-H ) :   0.9687 B( 28-C , 30-H ) :   0.9730 B( 28-C , 31-H ) :   0.9728

Dispersion correction           -0.014524124
FINAL SINGLE POINT ENERGY     -1339.873696431293

DIPOLE MOMENT
-------------
                                X             Y             Z
Electronic contribution:     29.97128      -5.07441      -3.44506
Nuclear contribution   :    -30.61542       4.92476       3.75905
                        -----------------------------------------
Total Dipole Moment    :     -0.64414      -0.14965       0.31399
                        -----------------------------------------
Magnitude (a.u.)       :      0.73205
Magnitude (Debye)      :      1.86073

Rotational constants in cm-1:     0.017513     0.009736     0.006702
Rotational constants in MHz :   525.012451   291.876899   200.909392

                             ****ORCA TERMINATED NORMALLY****
TOTAL RUN TIME: 0 days 0 hours 0 minutes 30 seconds 478 msec
