                         Program Version 4.2.1 -  RELEASE  -
|  1> ! wB97X-D3 SP def2-SVP
|  2> %pal
|  3> nprocs 16
|  4> end
|  5>
|  6> * xyz 0 1
|  7> S 	 -44.991 	 29.1606 	 86.0785
|  8> C 	 -45.619 	 30.8204 	 85.7877
|  9> C 	 -44.9219 	 31.4446 	 84.7853
| 10> C 	 -44.0575 	 30.4983 	 84.0892
| 11> C 	 -44.0757 	 29.2315 	 84.6011
| 12> H 	 -43.5301 	 30.6977 	 83.1648
| 13> C 	 -45.1572 	 32.923 	 84.4085
| 14> H 	 -44.2364 	 33.466 	 84.2604
| 15> H 	 -45.5489 	 33.4147 	 85.2868
| 16> C 	 -46.2333 	 32.9903 	 83.2739
| 17> H 	 -45.8482 	 32.4611 	 82.342
| 18> H 	 -47.1947 	 32.3354 	 83.4372
| 19> C 	 -46.612 	 34.4113 	 82.831
| 20> H 	 -45.7572 	 35.0974 	 82.7575
| 21> H 	 -47.1502 	 34.3129 	 81.8885
| 22> H 	 -47.4015 	 34.845 	 83.4865
| 23> S 	 -44.1665 	 26.6677 	 83.6542
| 24> C 	 -42.6533 	 25.876 	 83.3021
| 25> C 	 -41.5929 	 26.6724 	 83.6755
| 26> C 	 -41.9398 	 27.8827 	 84.3077
| 27> C 	 -43.3067 	 28.1115 	 84.2106
| 28> H 	 -40.6157 	 26.3095 	 83.6235
| 29> C 	 -40.8908 	 28.9187 	 84.7238
| 30> H 	 -40.0631 	 28.4238 	 85.1288
| 31> H 	 -41.1723 	 29.479 	 85.6574
| 32> C 	 -40.3998 	 30.0369 	 83.7885
| 33> H 	 -39.3362 	 30.0753 	 83.9472
| 34> H 	 -40.9005 	 31.0313 	 83.9807
| 35> C 	 -40.5376 	 29.6346 	 82.2937
| 36> H 	 -40.1848 	 30.363 	 81.5935
| 37> H 	 -41.5951 	 29.4153 	 81.9852
| 38> H 	 -39.8951 	 28.795 	 82.1419
| 39> H 	 -46.3155 	 31.4004 	 86.3508
| 40> H 	 -42.5332 	 24.8514 	 83.0713
| 41> *
| 42>
| 43>                          ****END OF INPUT****

CARTESIAN COORDINATES (ANGSTROEM)
---------------------------------
  S    -44.991000   29.160600   86.078500
  C    -45.619000   30.820400   85.787700
  C    -44.921900   31.444600   84.785300
  C    -44.057500   30.498300   84.089200
  C    -44.075700   29.231500   84.601100
  H    -43.530100   30.697700   83.164800
  C    -45.157200   32.923000   84.408500
  H    -44.236400   33.466000   84.260400
  H    -45.548900   33.414700   85.286800
  C    -46.233300   32.990300   83.273900
  H    -45.848200   32.461100   82.342000
  H    -47.194700   32.335400   83.437200
  C    -46.612000   34.411300   82.831000
  H    -45.757200   35.097400   82.757500
  H    -47.150200   34.312900   81.888500
  H    -47.401500   34.845000   83.486500
  S    -44.166500   26.667700   83.654200
  C    -42.653300   25.876000   83.302100
  C    -41.592900   26.672400   83.675500
  C    -41.939800   27.882700   84.307700
  C    -43.306700   28.111500   84.210600
  H    -40.615700   26.309500   83.623500
  C    -40.890800   28.918700   84.723800
  H    -40.063100   28.423800   85.128800
  H    -41.172300   29.479000   85.657400
  C    -40.399800   30.036900   83.788500
  H    -39.336200   30.075300   83.947200
  H    -40.900500   31.031300   83.980700
  C    -40.537600   29.634600   82.293700
  H    -40.184800   30.363000   81.593500
  H    -41.595100   29.415300   81.985200
  H    -39.895100   28.795000   82.141900
  H    -46.315500   31.400400   86.350800
  H    -42.533200   24.851400   83.071300

 Total Charge           Charge          ....    0
 Multiplicity           Mult            ....    1
 Number of Electrons    NEL             ....  134
 Basis Dimension        Dim             ....  322

ORBITAL ENERGIES
----------------

  NO   OCC          E(Eh)            E(eV)
   0   2.0000     -88.965744     -2420.8810
   1   2.0000     -88.963288     -2420.8141
   2   2.0000     -10.322496      -280.8894
   3   2.0000     -10.321557      -280.8639
   4   2.0000     -10.313201      -280.6365
   5   2.0000     -10.311772      -280.5976
   6   2.0000     -10.303235      -280.3653
   7   2.0000     -10.303227      -280.3651
   8   2.0000     -10.302034      -280.3326
   9   2.0000     -10.298464      -280.2354
  10   2.0000     -10.294303      -280.1222
  11   2.0000     -10.289674      -279.9963
  12   2.0000     -10.288247      -279.9574
  13   2.0000     -10.286542      -279.9111
  14   2.0000     -10.282135      -279.7911
  15   2.0000     -10.272318      -279.5240
  16   2.0000      -8.080315      -219.8765
  17   2.0000      -8.077547      -219.8012
  18   2.0000      -6.038717      -164.3218
  19   2.0000      -6.036199      -164.2533
  20   2.0000      -6.034820      -164.2158
  21   2.0000      -6.032265      -164.1463
  22   2.0000      -6.031223      -164.1179
  23   2.0000      -6.028019      -164.0307
  24   2.0000      -1.007339       -27.4111
  25   2.0000      -0.980748       -26.6875
  26   2.0000      -0.906783       -24.6748
  27   2.0000      -0.905528       -24.6407
  28   2.0000      -0.870131       -23.6775
  29   2.0000      -0.846701       -23.0399
  30   2.0000      -0.840187       -22.8627
  31   2.0000      -0.814968       -22.1764
  32   2.0000      -0.787090       -21.4178
  33   2.0000      -0.774673       -21.0799
  34   2.0000      -0.710948       -19.3459
  35   2.0000      -0.693049       -18.8588
  36   2.0000      -0.688531       -18.7359
  37   2.0000      -0.664578       -18.0841
  38   2.0000      -0.642673       -17.4880
  39   2.0000      -0.614391       -16.7184
  40   2.0000      -0.592294       -16.1171
  41   2.0000      -0.567523       -15.4431
  42   2.0000      -0.562986       -15.3196
  43   2.0000      -0.545334       -14.8393
  44   2.0000      -0.541632       -14.7386
  45   2.0000      -0.531948       -14.4750
  46   2.0000      -0.516054       -14.0425
  47   2.0000      -0.508218       -13.8293
  48   2.0000      -0.504991       -13.7415
  49   2.0000      -0.498217       -13.5572
  50   2.0000      -0.486210       -13.2305
  51   2.0000      -0.474051       -12.8996
  52   2.0000      -0.470429       -12.8010
  53   2.0000      -0.461610       -12.5611
  54   2.0000      -0.456066       -12.4102
  55   2.0000      -0.449476       -12.2309
  56   2.0000      -0.442797       -12.0491
  57   2.0000      -0.439878       -11.9697
  58   2.0000      -0.434377       -11.8200
  59   2.0000      -0.422621       -11.5001
  60   2.0000      -0.419200       -11.4070
  61   2.0000      -0.409499       -11.1430
  62   2.0000      -0.404458       -11.0059
  63   2.0000      -0.336847        -9.1661
  64   2.0000      -0.328168        -8.9299
  65   2.0000      -0.326220        -8.8769
  66   2.0000      -0.305085        -8.3018
  67   0.0000       0.033490         0.9113
  68   0.0000       0.061815         1.6821
  69   0.0000       0.108685         2.9575
  70   0.0000       0.119781         3.2594
  71   0.0000       0.132507         3.6057

MULLIKEN ATOMIC CHARGES
-----------------------
   0 S :    0.110341
   1 C :   -0.091007
   2 C :   -0.120597
   3 C :    0.043004
   4 C :   -0.142129
   5 H :    0.007817
   6 C :    0.106032
   7 H :    0.030903
   8 H :    0.011496
   9 C :   -0.148229
  10 H :    0.035589
  11 H :    0.050584
  12 C :   -0.034585
  13 H :    0.040903
  14 H :    0.032165
  15 H :    0.034681
  16 S :    0.115253
  17 C :   -0.071074
  18 C :   -0.017909
  19 C :   -0.003130
  20 C :   -0.203951
  21 H :   -0.007026
  22 C :    0.079941
  23 H :    0.000705
  24 H :    0.031049
  25 C :   -0.072032
  26 H :    0.024846
  27 H :    0.045280
  28 C :   -0.056353
  29 H :    0.024570
  30 H :    0.047555
  31 H :    0.018240
  32 H :    0.029432
  33 H :    0.047637
Sum of atomic charges:    0.0000000

LOEWDIN ATOMIC CHARGES
----------------------
   0 S :    0.388102
   1 C :   -0.179630
   2 C :   -0.056067
   3 C :   -0.058004
   4 C :   -0.199719
   5 H :    0.030056
   6 C :   -0.029254
   7 H :    0.031337
   8 H :    0.027194
   9 C :   -0.055619
  10 H :    0.026833
  11 H :    0.039682
  12 C :   -0.074700
  13 H :    0.026624
  14 H :    0.028938
  15 H :    0.027367
  16 S :    0.408557
  17 C :   -0.181092
  18 C :   -0.063745
  19 C :   -0.047831
  20 C :   -0.198356
  21 H :    0.019964
  22 C :   -0.040185
  23 H :    0.022505
  24 H :    0.043799
  25 C :   -0.037223
  26 H :    0.026149
  27 H :    0.027256
  28 C :   -0.069250
  29 H :    0.019950
  30 H :    0.028481
  31 H :    0.020441
  32 H :    0.023108
  33 H :    0.024333

  Mayer bond orders larger than 0.100000
B(  0-S ,  1-C ) :   1.1123 B(  0-S ,  4-C ) :   1.1364 B(  1-C ,  2-C ) :   1.6654
B(  1-C , 32-H ) :   0.9648 B(  2-C ,  3-C ) :   1.1960 B(  2-C ,  6-C ) :   1.0280
B(  3-C ,  4-C ) :   1.6213 B(  3-C ,  5-H ) :   0.9954 B(  4-C , 20-C ) :   1.0521
B(  6-C ,  7-H ) :   0.9422 B(  6-C ,  8-H ) :   0.9393 B(  6-C ,  9-C ) :   1.0390
B(  9-C , 10-H ) :   0.9623 B(  9-C , 11-H ) :   0.9564 B(  9-C , 12-C ) :   1.0753
B( 12-C , 13-H ) :   0.9739 B( 12-C , 14-H ) :   0.9727 B( 12-C , 15-H ) :   0.9753
B( 16-S , 17-C ) :   1.1565 B( 16-S , 20-C ) :   1.1469 B( 17-C , 18-C ) :   1.5973
B( 17-C , 20-C ) :   0.1066 B( 17-C , 33-H ) :   0.9713 B( 18-C , 19-C ) :   1.2520
B( 18-C , 21-H ) :   0.9924 B( 19-C , 20-C ) :   1.5660 B( 19-C , 22-C ) :   1.0683
B( 22-C , 23-H ) :   0.9282 B( 22-C , 24-H ) :   0.9268 B( 22-C , 25-C ) :   1.0587
B( 25-C , 26-H ) :   0.9542 B( 25-C , 27-H ) :   0.9574 B( 25-C , 28-C ) :   1.0990
B( 28-C , 29-H ) :   0.9739 B( 28-C , 30-H ) :   0.9670 B( 28-C , 31-H ) :   0.9736

Dispersion correction           -0.015333684
FINAL SINGLE POINT ENERGY     -1339.866723734463

DIPOLE MOMENT
-------------
                                X             Y             Z
Electronic contribution:     -6.72919     -23.68304      10.56701
Nuclear contribution   :      7.14091      24.15206     -10.71980
                        -----------------------------------------
Total Dipole Moment    :      0.41172       0.46903      -0.15279
                        -----------------------------------------
Magnitude (a.u.)       :      0.64253
Magnitude (Debye)      :      1.63317

Rotational constants in cm-1:     0.020395     0.008269     0.007039
Rotational constants in MHz :   611.435046   247.890346   211.028880

                             ****ORCA TERMINATED NORMALLY****
TOTAL RUN TIME: 0 days 0 hours 0 minutes 29 seconds 556 msec
