                         Program Version 4.2.1 -  RELEASE  -
|  1> ! wB97X-D3 SP def2-SVP
|  2> %pal
|  3> nprocs 16
|  4> end
|  5>
|  6> * xyz 0 1
|  7> S 	 -44.8292 	 25.1409 	 84.1514
|  8> C 	 -44.9178 	 23.3947 	 84.3702
|  9> C 	 -43.6642 	 22.799 	 84.0296
| 10> C 	 -42.756 	 23.773 	 83.5413
| 11> C 	 -43.2089 	 25.083 	 83.5501
| 12> H 	 -41.7725 	 23.6955 	 83.2595
| 13> C 	 -43.3336 	 21.3225 	 84.3856
| 14> H 	 -43.5677 	 20.7109 	 83.5359
| 15> H 	 -43.892 	 21.093 	 85.288
| 16> C 	 -41.901 	 20.9742 	 84.9027
| 17> H 	 -41.8092 	 19.9214 	 85.2422
| 18> H 	 -41.1972 	 21.0447 	 84.0636
| 19> C 	 -41.4472 	 21.8614 	 86.0977
| 20> H 	 -40.4716 	 21.6632 	 86.3545
| 21> H 	 -41.5488 	 22.9173 	 85.9524
| 22> H 	 -41.9475 	 21.4443 	 87.0157
| 23> S 	 -42.9559 	 26.8568 	 81.5597
| 24> C 	 -41.6172 	 27.9827 	 81.5567
| 25> C 	 -40.9219 	 27.9572 	 82.7309
| 26> C 	 -41.411 	 26.9453 	 83.6205
| 27> C 	 -42.5328 	 26.2958 	 83.1571
| 28> H 	 -40.0617 	 28.5462 	 83.1241
| 29> C 	 -40.7635 	 26.5132 	 84.9471
| 30> H 	 -41.4605 	 25.936 	 85.6219
| 31> H 	 -40.419 	 27.3238 	 85.5461
| 32> C 	 -39.4573 	 25.7221 	 84.6996
| 33> H 	 -38.7506 	 26.17 	 83.9389
| 34> H 	 -39.7877 	 24.8015 	 84.2434
| 35> C 	 -38.6569 	 25.2657 	 85.954
| 36> H 	 -37.9799 	 24.5327 	 85.535
| 37> H 	 -39.3892 	 24.7917 	 86.6599
| 38> H 	 -37.9636 	 25.9728 	 86.3964
| 39> H 	 -45.6656 	 22.9066 	 84.8646
| 40> H 	 -41.33 	 28.6522 	 80.7517
| 41> *
| 42>
| 43>                          ****END OF INPUT****

CARTESIAN COORDINATES (ANGSTROEM)
---------------------------------
  S    -44.829200   25.140900   84.151400
  C    -44.917800   23.394700   84.370200
  C    -43.664200   22.799000   84.029600
  C    -42.756000   23.773000   83.541300
  C    -43.208900   25.083000   83.550100
  H    -41.772500   23.695500   83.259500
  C    -43.333600   21.322500   84.385600
  H    -43.567700   20.710900   83.535900
  H    -43.892000   21.093000   85.288000
  C    -41.901000   20.974200   84.902700
  H    -41.809200   19.921400   85.242200
  H    -41.197200   21.044700   84.063600
  C    -41.447200   21.861400   86.097700
  H    -40.471600   21.663200   86.354500
  H    -41.548800   22.917300   85.952400
  H    -41.947500   21.444300   87.015700
  S    -42.955900   26.856800   81.559700
  C    -41.617200   27.982700   81.556700
  C    -40.921900   27.957200   82.730900
  C    -41.411000   26.945300   83.620500
  C    -42.532800   26.295800   83.157100
  H    -40.061700   28.546200   83.124100
  C    -40.763500   26.513200   84.947100
  H    -41.460500   25.936000   85.621900
  H    -40.419000   27.323800   85.546100
  C    -39.457300   25.722100   84.699600
  H    -38.750600   26.170000   83.938900
  H    -39.787700   24.801500   84.243400
  C    -38.656900   25.265700   85.954000
  H    -37.979900   24.532700   85.535000
  H    -39.389200   24.791700   86.659900
  H    -37.963600   25.972800   86.396400
  H    -45.665600   22.906600   84.864600
  H    -41.330000   28.652200   80.751700

 Total Charge           Charge          ....    0
 Multiplicity           Mult            ....    1
 Number of Electrons    NEL             ....  134
 Basis Dimension        Dim             ....  322

ORBITAL ENERGIES
----------------

  NO   OCC          E(Eh)            E(eV)
   0   2.0000     -88.966224     -2420.8940
   1   2.0000     -88.964943     -2420.8592
   2   2.0000     -10.325492      -280.9709
   3   2.0000     -10.321395      -280.8594
   4   2.0000     -10.320981      -280.8482
   5   2.0000     -10.313076      -280.6331
   6   2.0000     -10.309616      -280.5389
   7   2.0000     -10.304522      -280.4003
   8   2.0000     -10.298667      -280.2410
   9   2.0000     -10.295400      -280.1521
  10   2.0000     -10.294640      -280.1314
  11   2.0000     -10.293890      -280.1110
  12   2.0000     -10.290353      -280.0147
  13   2.0000     -10.288729      -279.9705
  14   2.0000     -10.282842      -279.8104
  15   2.0000     -10.273988      -279.5694
  16   2.0000      -8.080896      -219.8924
  17   2.0000      -8.080011      -219.8683
  18   2.0000      -6.039238      -164.3360
  19   2.0000      -6.038570      -164.3179
  20   2.0000      -6.035233      -164.2270
  21   2.0000      -6.034372      -164.2036
  22   2.0000      -6.032020      -164.1396
  23   2.0000      -6.030775      -164.1057
  24   2.0000      -1.009539       -27.4709
  25   2.0000      -0.983493       -26.7622
  26   2.0000      -0.906323       -24.6623
  27   2.0000      -0.905196       -24.6316
  28   2.0000      -0.871193       -23.7064
  29   2.0000      -0.848966       -23.1015
  30   2.0000      -0.844133       -22.9700
  31   2.0000      -0.818302       -22.2671
  32   2.0000      -0.786128       -21.3916
  33   2.0000      -0.773708       -21.0537
  34   2.0000      -0.707442       -19.2505
  35   2.0000      -0.695523       -18.9261
  36   2.0000      -0.691083       -18.8053
  37   2.0000      -0.665075       -18.0976
  38   2.0000      -0.651147       -17.7186
  39   2.0000      -0.616892       -16.7865
  40   2.0000      -0.600920       -16.3519
  41   2.0000      -0.564280       -15.3549
  42   2.0000      -0.561654       -15.2834
  43   2.0000      -0.560927       -15.2636
  44   2.0000      -0.545081       -14.8324
  45   2.0000      -0.523476       -14.2445
  46   2.0000      -0.521630       -14.1943
  47   2.0000      -0.511544       -13.9198
  48   2.0000      -0.505177       -13.7466
  49   2.0000      -0.497944       -13.5497
  50   2.0000      -0.488600       -13.2955
  51   2.0000      -0.479004       -13.0344
  52   2.0000      -0.470218       -12.7953
  53   2.0000      -0.463208       -12.6045
  54   2.0000      -0.460429       -12.5289
  55   2.0000      -0.452055       -12.3011
  56   2.0000      -0.446405       -12.1473
  57   2.0000      -0.438911       -11.9434
  58   2.0000      -0.436313       -11.8727
  59   2.0000      -0.421454       -11.4683
  60   2.0000      -0.419791       -11.4231
  61   2.0000      -0.411808       -11.2059
  62   2.0000      -0.408219       -11.1082
  63   2.0000      -0.341522        -9.2933
  64   2.0000      -0.330571        -8.9953
  65   2.0000      -0.324127        -8.8199
  66   2.0000      -0.305052        -8.3009
  67   0.0000       0.042211         1.1486
  68   0.0000       0.054134         1.4731
  69   0.0000       0.115448         3.1415
  70   0.0000       0.119710         3.2575
  71   0.0000       0.128747         3.5034

MULLIKEN ATOMIC CHARGES
-----------------------
   0 S :    0.118561
   1 C :   -0.081972
   2 C :   -0.101890
   3 C :    0.093582
   4 C :   -0.202140
   5 H :   -0.031655
   6 C :    0.091649
   7 H :    0.047658
   8 H :    0.025679
   9 C :   -0.117988
  10 H :    0.038263
  11 H :    0.027315
  12 C :   -0.035305
  13 H :    0.008703
  14 H :    0.049637
  15 H :    0.028197
  16 S :    0.117080
  17 C :   -0.081808
  18 C :   -0.020350
  19 C :   -0.040407
  20 C :   -0.172587
  21 H :    0.031483
  22 C :    0.082217
  23 H :    0.045216
  24 H :    0.010300
  25 C :   -0.129167
  26 H :    0.038392
  27 H :    0.011550
  28 C :   -0.039423
  29 H :    0.028922
  30 H :    0.043529
  31 H :    0.037635
  32 H :    0.017642
  33 H :    0.061484
Sum of atomic charges:   -0.0000000

LOEWDIN ATOMIC CHARGES
----------------------
   0 S :    0.421613
   1 C :   -0.182180
   2 C :   -0.055053
   3 C :   -0.057310
   4 C :   -0.208820
   5 H :    0.015237
   6 C :   -0.027860
   7 H :    0.032046
   8 H :    0.031741
   9 C :   -0.042891
  10 H :    0.031323
  11 H :    0.016549
  12 C :   -0.063580
  13 H :    0.014893
  14 H :    0.022492
  15 H :    0.033647
  16 S :    0.415472
  17 C :   -0.180409
  18 C :   -0.076529
  19 C :   -0.048874
  20 C :   -0.212665
  21 H :    0.041381
  22 C :   -0.033643
  23 H :    0.037938
  24 H :    0.022559
  25 C :   -0.046992
  26 H :    0.028680
  27 H :    0.015728
  28 C :   -0.069296
  29 H :    0.029085
  30 H :    0.032094
  31 H :    0.022759
  32 H :    0.007593
  33 H :    0.033270

  Mayer bond orders larger than 0.100000
B(  0-S ,  1-C ) :   1.1621 B(  0-S ,  4-C ) :   1.1740 B(  1-C ,  2-C ) :   1.5745
B(  1-C ,  4-C ) :   0.1147 B(  1-C , 32-H ) :   0.9818 B(  2-C ,  3-C ) :   1.2472
B(  2-C ,  6-C ) :   1.0003 B(  3-C ,  4-C ) :   1.5656 B(  3-C ,  5-H ) :   1.0103
B(  4-C , 20-C ) :   0.9893 B(  6-C ,  7-H ) :   0.9388 B(  6-C ,  8-H ) :   0.9515
B(  6-C ,  9-C ) :   1.0736 B(  9-C , 10-H ) :   0.9587 B(  9-C , 11-H ) :   0.9538
B(  9-C , 12-C ) :   1.0774 B( 12-C , 13-H ) :   0.9697 B( 12-C , 14-H ) :   0.9747
B( 12-C , 15-H ) :   0.9710 B( 16-S , 17-C ) :   1.1591 B( 16-S , 20-C ) :   1.1412
B( 17-C , 18-C ) :   1.5953 B( 17-C , 33-H ) :   0.9660 B( 18-C , 19-C ) :   1.2542
B( 18-C , 21-H ) :   0.9793 B( 19-C , 20-C ) :   1.6297 B( 19-C , 22-C ) :   1.0477
B( 22-C , 23-H ) :   0.9371 B( 22-C , 24-H ) :   0.9323 B( 22-C , 25-C ) :   1.0485
B( 25-C , 26-H ) :   0.9572 B( 25-C , 27-H ) :   0.9534 B( 25-C , 28-C ) :   1.0795
B( 28-C , 29-H ) :   0.9733 B( 28-C , 30-H ) :   0.9714 B( 28-C , 31-H ) :   0.9755

Dispersion correction           -0.015926330
FINAL SINGLE POINT ENERGY     -1339.864803778286

DIPOLE MOMENT
-------------
                                X             Y             Z
Electronic contribution:    -21.21704      16.27138     -16.81899
Nuclear contribution   :     21.91111     -16.60436      17.15159
                        -----------------------------------------
Total Dipole Moment    :      0.69407      -0.33298       0.33261
                        -----------------------------------------
Magnitude (a.u.)       :      0.83859
Magnitude (Debye)      :      2.13153

Rotational constants in cm-1:     0.016816     0.010843     0.007476
Rotational constants in MHz :   504.142975   325.062059   224.125990

                             ****ORCA TERMINATED NORMALLY****
TOTAL RUN TIME: 0 days 0 hours 0 minutes 32 seconds 327 msec
