                         Program Version 4.2.1 -  RELEASE  -
|  1> ! wB97X-D3 SP def2-SVP
|  2> %pal
|  3> nprocs 16
|  4> end
|  5>
|  6> * xyz 0 1
|  7> S 	 11.2156 	 -5.92661 	 98.3081
|  8> C 	 10.3674 	 -7.44945 	 98.4665
|  9> C 	 9.39711 	 -7.60512 	 97.5528
| 10> C 	 9.39206 	 -6.50777 	 96.6515
| 11> C 	 10.3983 	 -5.5674 	 96.7983
| 12> H 	 8.6562 	 -6.34958 	 95.8597
| 13> C 	 8.37255 	 -8.77384 	 97.5051
| 14> H 	 7.67958 	 -8.81597 	 98.3572
| 15> H 	 9.02441 	 -9.66036 	 97.4722
| 16> C 	 7.47084 	 -8.77667 	 96.2739
| 17> H 	 6.74827 	 -9.5726 	 96.3831
| 18> H 	 6.87517 	 -7.85879 	 96.1959
| 19> C 	 8.24384 	 -9.03586 	 95.0172
| 20> H 	 7.79457 	 -8.65791 	 94.0621
| 21> H 	 9.28038 	 -8.64538 	 95.007
| 22> H 	 8.4126 	 -10.0815 	 94.8238
| 23> S 	 10.5342 	 -2.83447 	 97.0658
| 24> C 	 10.8257 	 -1.85744 	 95.6672
| 25> C 	 10.797 	 -2.5863 	 94.5043
| 26> C 	 10.6068 	 -4.01279 	 94.6787
| 27> C 	 10.5683 	 -4.30822 	 96.037
| 28> H 	 10.9899 	 -2.06043 	 93.5721
| 29> C 	 10.6531 	 -4.91526 	 93.4191
| 30> H 	 11.3339 	 -5.78273 	 93.5484
| 31> H 	 11.1128 	 -4.31311 	 92.6757
| 32> C 	 9.30324 	 -5.42352 	 92.882
| 33> H 	 8.79129 	 -4.53164 	 92.7064
| 34> H 	 8.6223 	 -6.00505 	 93.4882
| 35> C 	 9.4521 	 -6.17342 	 91.4706
| 36> H 	 8.54173 	 -6.35967 	 90.9587
| 37> H 	 9.98423 	 -7.15262 	 91.568
| 38> H 	 10.0293 	 -5.57426 	 90.7862
| 39> H 	 10.5953 	 -8.21097 	 99.2275
| 40> H 	 11.0857 	 -0.846537 	 95.6992
| 41> *
| 42>
| 43>                          ****END OF INPUT****

CARTESIAN COORDINATES (ANGSTROEM)
---------------------------------
  S     11.215600   -5.926610   98.308100
  C     10.367400   -7.449450   98.466500
  C      9.397110   -7.605120   97.552800
  C      9.392060   -6.507770   96.651500
  C     10.398300   -5.567400   96.798300
  H      8.656200   -6.349580   95.859700
  C      8.372550   -8.773840   97.505100
  H      7.679580   -8.815970   98.357200
  H      9.024410   -9.660360   97.472200
  C      7.470840   -8.776670   96.273900
  H      6.748270   -9.572600   96.383100
  H      6.875170   -7.858790   96.195900
  C      8.243840   -9.035860   95.017200
  H      7.794570   -8.657910   94.062100
  H      9.280380   -8.645380   95.007000
  H      8.412600  -10.081500   94.823800
  S     10.534200   -2.834470   97.065800
  C     10.825700   -1.857440   95.667200
  C     10.797000   -2.586300   94.504300
  C     10.606800   -4.012790   94.678700
  C     10.568300   -4.308220   96.037000
  H     10.989900   -2.060430   93.572100
  C     10.653100   -4.915260   93.419100
  H     11.333900   -5.782730   93.548400
  H     11.112800   -4.313110   92.675700
  C      9.303240   -5.423520   92.882000
  H      8.791290   -4.531640   92.706400
  H      8.622300   -6.005050   93.488200
  C      9.452100   -6.173420   91.470600
  H      8.541730   -6.359670   90.958700
  H      9.984230   -7.152620   91.568000
  H     10.029300   -5.574260   90.786200
  H     10.595300   -8.210970   99.227500
  H     11.085700   -0.846537   95.699200

 Total Charge           Charge          ....    0
 Multiplicity           Mult            ....    1
 Number of Electrons    NEL             ....  134
 Basis Dimension        Dim             ....  322

ORBITAL ENERGIES
----------------

  NO   OCC          E(Eh)            E(eV)
   0   2.0000     -88.964605     -2420.8500
   1   2.0000     -88.964546     -2420.8484
   2   2.0000     -10.334504      -281.2162
   3   2.0000     -10.328778      -281.0603
   4   2.0000     -10.311733      -280.5965
   5   2.0000     -10.311081      -280.5788
   6   2.0000     -10.310085      -280.5517
   7   2.0000     -10.299651      -280.2678
   8   2.0000     -10.298084      -280.2251
   9   2.0000     -10.298076      -280.2249
  10   2.0000     -10.293793      -280.1083
  11   2.0000     -10.292000      -280.0595
  12   2.0000     -10.287290      -279.9314
  13   2.0000     -10.286786      -279.9177
  14   2.0000     -10.281235      -279.7666
  15   2.0000     -10.276068      -279.6260
  16   2.0000      -8.079283      -219.8485
  17   2.0000      -8.079120      -219.8440
  18   2.0000      -6.037871      -164.2988
  19   2.0000      -6.037675      -164.2935
  20   2.0000      -6.033848      -164.1894
  21   2.0000      -6.033768      -164.1872
  22   2.0000      -6.029903      -164.0820
  23   2.0000      -6.029727      -164.0772
  24   2.0000      -1.005047       -27.3487
  25   2.0000      -0.983956       -26.7748
  26   2.0000      -0.915926       -24.9236
  27   2.0000      -0.904253       -24.6060
  28   2.0000      -0.869616       -23.6635
  29   2.0000      -0.847817       -23.0703
  30   2.0000      -0.839281       -22.8380
  31   2.0000      -0.813078       -22.1250
  32   2.0000      -0.784694       -21.3526
  33   2.0000      -0.777101       -21.1460
  34   2.0000      -0.713437       -19.4136
  35   2.0000      -0.703582       -19.1454
  36   2.0000      -0.691549       -18.8180
  37   2.0000      -0.661014       -17.9871
  38   2.0000      -0.637420       -17.3451
  39   2.0000      -0.622797       -16.9472
  40   2.0000      -0.596855       -16.2412
  41   2.0000      -0.565760       -15.3951
  42   2.0000      -0.562495       -15.3063
  43   2.0000      -0.559288       -15.2190
  44   2.0000      -0.532575       -14.4921
  45   2.0000      -0.520557       -14.1651
  46   2.0000      -0.515460       -14.0264
  47   2.0000      -0.510160       -13.8822
  48   2.0000      -0.505935       -13.7672
  49   2.0000      -0.496405       -13.5079
  50   2.0000      -0.487858       -13.2753
  51   2.0000      -0.484940       -13.1959
  52   2.0000      -0.471879       -12.8405
  53   2.0000      -0.463781       -12.6201
  54   2.0000      -0.454107       -12.3569
  55   2.0000      -0.449893       -12.2422
  56   2.0000      -0.444499       -12.0954
  57   2.0000      -0.444279       -12.0894
  58   2.0000      -0.433126       -11.7859
  59   2.0000      -0.426286       -11.5998
  60   2.0000      -0.422252       -11.4901
  61   2.0000      -0.418021       -11.3749
  62   2.0000      -0.413007       -11.2385
  63   2.0000      -0.346318        -9.4238
  64   2.0000      -0.333333        -9.0704
  65   2.0000      -0.329373        -8.9627
  66   2.0000      -0.293393        -7.9836
  67   0.0000       0.028623         0.7789
  68   0.0000       0.071261         1.9391
  69   0.0000       0.108279         2.9464
  70   0.0000       0.125820         3.4237
  71   0.0000       0.129675         3.5286

MULLIKEN ATOMIC CHARGES
-----------------------
   0 S :    0.103670
   1 C :   -0.140767
   2 C :   -0.075064
   3 C :    0.014681
   4 C :   -0.139679
   5 H :    0.009070
   6 C :    0.074099
   7 H :    0.048978
   8 H :    0.035394
   9 C :   -0.058438
  10 H :    0.027842
  11 H :    0.036511
  12 C :   -0.091692
  13 H :    0.036756
  14 H :    0.042355
  15 H :    0.021694
  16 S :    0.098158
  17 C :   -0.065502
  18 C :   -0.051393
  19 C :   -0.018212
  20 C :   -0.168046
  21 H :    0.020903
  22 C :    0.087032
  23 H :    0.039524
  24 H :    0.005400
  25 C :   -0.053998
  26 H :    0.010783
  27 H :    0.034651
  28 C :   -0.059619
  29 H :    0.029010
  30 H :    0.039396
  31 H :    0.018885
  32 H :    0.050986
  33 H :    0.036630
Sum of atomic charges:    0.0000000

LOEWDIN ATOMIC CHARGES
----------------------
   0 S :    0.400088
   1 C :   -0.190544
   2 C :   -0.073775
   3 C :   -0.061103
   4 C :   -0.201377
   5 H :    0.028779
   6 C :   -0.023486
   7 H :    0.035757
   8 H :    0.035681
   9 C :   -0.047898
  10 H :    0.027996
  11 H :    0.025929
  12 C :   -0.079673
  13 H :    0.029186
  14 H :    0.028877
  15 H :    0.023083
  16 S :    0.390773
  17 C :   -0.182619
  18 C :   -0.072583
  19 C :   -0.053649
  20 C :   -0.173433
  21 H :    0.031420
  22 C :   -0.021814
  23 H :    0.034844
  24 H :    0.026641
  25 C :   -0.032884
  26 H :    0.016794
  27 H :    0.020745
  28 C :   -0.064610
  29 H :    0.020848
  30 H :    0.029219
  31 H :    0.019912
  32 H :    0.034188
  33 H :    0.018688

  Mayer bond orders larger than 0.100000
B(  0-S ,  1-C ) :   1.1422 B(  0-S ,  4-C ) :   1.1428 B(  1-C ,  2-C ) :   1.6400
B(  1-C , 32-H ) :   0.9656 B(  2-C ,  3-C ) :   1.2564 B(  2-C ,  6-C ) :   0.9792
B(  3-C ,  4-C ) :   1.5691 B(  3-C ,  5-H ) :   0.9862 B(  4-C , 20-C ) :   1.0301
B(  6-C ,  7-H ) :   0.9433 B(  6-C ,  8-H ) :   0.9414 B(  6-C ,  9-C ) :   1.0985
B(  9-C , 10-H ) :   0.9518 B(  9-C , 11-H ) :   0.9514 B(  9-C , 12-C ) :   1.0624
B( 12-C , 13-H ) :   0.9725 B( 12-C , 14-H ) :   0.9785 B( 12-C , 15-H ) :   0.9700
B( 16-S , 17-C ) :   1.1387 B( 16-S , 20-C ) :   1.1385 B( 17-C , 18-C ) :   1.6478
B( 17-C , 33-H ) :   0.9711 B( 18-C , 19-C ) :   1.2100 B( 18-C , 21-H ) :   0.9835
B( 19-C , 20-C ) :   1.6334 B( 19-C , 22-C ) :   1.0304 B( 22-C , 23-H ) :   0.9423
B( 22-C , 24-H ) :   0.9328 B( 22-C , 25-C ) :   1.0538 B( 25-C , 26-H ) :   0.9501
B( 25-C , 27-H ) :   0.9587 B( 25-C , 28-C ) :   1.0773 B( 28-C , 29-H ) :   0.9773
B( 28-C , 30-H ) :   0.9779 B( 28-C , 31-H ) :   0.9758

Dispersion correction           -0.014891086
FINAL SINGLE POINT ENERGY     -1339.877654330617

DIPOLE MOMENT
-------------
                                X             Y             Z
Electronic contribution:     12.69586      18.38962      23.43741
Nuclear contribution   :    -13.04067     -18.74733     -23.94606
                        -----------------------------------------
Total Dipole Moment    :     -0.34481      -0.35771      -0.50865
                        -----------------------------------------
Magnitude (a.u.)       :      0.71104
Magnitude (Debye)      :      1.80731

Rotational constants in cm-1:     0.015476     0.011166     0.007032
Rotational constants in MHz :   463.954833   334.739676   210.807605

                             ****ORCA TERMINATED NORMALLY****
TOTAL RUN TIME: 0 days 0 hours 0 minutes 35 seconds 443 msec
