                         Program Version 4.2.1 -  RELEASE  -
|  1> ! wB97X-D3 SP def2-SVP
|  2> %pal
|  3> nprocs 16
|  4> end
|  5>
|  6> * xyz 0 1
|  7> S 	 68.3309 	 17.3485 	 73.5325
|  8> C 	 69.7013 	 17.3781 	 72.3957
|  9> C 	 70.596 	 18.337 	 72.8016
| 10> C 	 70.2844 	 18.8961 	 74.0694
| 11> C 	 69.0432 	 18.503 	 74.5799
| 12> H 	 70.8898 	 19.6168 	 74.5013
| 13> C 	 71.9277 	 18.6539 	 72.0733
| 14> H 	 71.8283 	 18.117 	 71.1106
| 15> H 	 72.7759 	 18.1849 	 72.5264
| 16> C 	 72.3301 	 20.1359 	 71.9006
| 17> H 	 72.5091 	 20.5679 	 72.8839
| 18> H 	 73.3191 	 20.3198 	 71.5619
| 19> C 	 71.2737 	 21.0543 	 71.3179
| 20> H 	 70.8835 	 20.8011 	 70.3349
| 21> H 	 70.3184 	 21.0545 	 71.9291
| 22> H 	 71.6899 	 22.0749 	 71.3096
| 23> S 	 66.8604 	 19.8758 	 75.5992
| 24> C 	 66.9161 	 20.3435 	 77.2853
| 25> C 	 67.8267 	 19.5592 	 77.9481
| 26> C 	 68.7716 	 18.8693 	 77.1486
| 27> C 	 68.4042 	 18.9547 	 75.7925
| 28> H 	 67.848 	 19.6548 	 79.0312
| 29> C 	 69.9438 	 18.0488 	 77.6172
| 30> H 	 70.5268 	 17.7574 	 76.7284
| 31> H 	 69.6935 	 17.084 	 78.0115
| 32> C 	 70.8704 	 18.9237 	 78.4203
| 33> H 	 70.4655 	 18.9989 	 79.4455
| 34> H 	 70.8821 	 19.9885 	 78.1053
| 35> C 	 72.314 	 18.3687 	 78.4539
| 36> H 	 72.9198 	 18.3969 	 77.5516
| 37> H 	 72.1845 	 17.2853 	 78.6186
| 38> H 	 72.8857 	 18.8444 	 79.2693
| 39> H 	 69.7659 	 16.8434 	 71.4912
| 40> H 	 66.1408 	 20.8448 	 77.8001
| 41> *
| 42>
| 43>                          ****END OF INPUT****

CARTESIAN COORDINATES (ANGSTROEM)
---------------------------------
  S     68.330900   17.348500   73.532500
  C     69.701300   17.378100   72.395700
  C     70.596000   18.337000   72.801600
  C     70.284400   18.896100   74.069400
  C     69.043200   18.503000   74.579900
  H     70.889800   19.616800   74.501300
  C     71.927700   18.653900   72.073300
  H     71.828300   18.117000   71.110600
  H     72.775900   18.184900   72.526400
  C     72.330100   20.135900   71.900600
  H     72.509100   20.567900   72.883900
  H     73.319100   20.319800   71.561900
  C     71.273700   21.054300   71.317900
  H     70.883500   20.801100   70.334900
  H     70.318400   21.054500   71.929100
  H     71.689900   22.074900   71.309600
  S     66.860400   19.875800   75.599200
  C     66.916100   20.343500   77.285300
  C     67.826700   19.559200   77.948100
  C     68.771600   18.869300   77.148600
  C     68.404200   18.954700   75.792500
  H     67.848000   19.654800   79.031200
  C     69.943800   18.048800   77.617200
  H     70.526800   17.757400   76.728400
  H     69.693500   17.084000   78.011500
  C     70.870400   18.923700   78.420300
  H     70.465500   18.998900   79.445500
  H     70.882100   19.988500   78.105300
  C     72.314000   18.368700   78.453900
  H     72.919800   18.396900   77.551600
  H     72.184500   17.285300   78.618600
  H     72.885700   18.844400   79.269300
  H     69.765900   16.843400   71.491200
  H     66.140800   20.844800   77.800100

 Total Charge           Charge          ....    0
 Multiplicity           Mult            ....    1
 Number of Electrons    NEL             ....  134
 Basis Dimension        Dim             ....  322

ORBITAL ENERGIES
----------------

  NO   OCC          E(Eh)            E(eV)
   0   2.0000     -88.966502     -2420.9016
   1   2.0000     -88.963717     -2420.8258
   2   2.0000     -10.330328      -281.1025
   3   2.0000     -10.328891      -281.0634
   4   2.0000     -10.314442      -280.6702
   5   2.0000     -10.313097      -280.6336
   6   2.0000     -10.307470      -280.4805
   7   2.0000     -10.301527      -280.3188
   8   2.0000     -10.295332      -280.1502
   9   2.0000     -10.293526      -280.1011
  10   2.0000     -10.288884      -279.9748
  11   2.0000     -10.288665      -279.9688
  12   2.0000     -10.288101      -279.9535
  13   2.0000     -10.284886      -279.8660
  14   2.0000     -10.280937      -279.7585
  15   2.0000     -10.277263      -279.6586
  16   2.0000      -8.081311      -219.9036
  17   2.0000      -8.077839      -219.8092
  18   2.0000      -6.039854      -164.3528
  19   2.0000      -6.036320      -164.2566
  20   2.0000      -6.035628      -164.2378
  21   2.0000      -6.032600      -164.1554
  22   2.0000      -6.032209      -164.1447
  23   2.0000      -6.028482      -164.0433
  24   2.0000      -1.005900       -27.3719
  25   2.0000      -0.983034       -26.7497
  26   2.0000      -0.914029       -24.8720
  27   2.0000      -0.909282       -24.7428
  28   2.0000      -0.871214       -23.7069
  29   2.0000      -0.848385       -23.0857
  30   2.0000      -0.842120       -22.9153
  31   2.0000      -0.814435       -22.1619
  32   2.0000      -0.784646       -21.3513
  33   2.0000      -0.773896       -21.0588
  34   2.0000      -0.712698       -19.3935
  35   2.0000      -0.703382       -19.1400
  36   2.0000      -0.698851       -19.0167
  37   2.0000      -0.653385       -17.7795
  38   2.0000      -0.642353       -17.4793
  39   2.0000      -0.624786       -17.0013
  40   2.0000      -0.602216       -16.3871
  41   2.0000      -0.566263       -15.4088
  42   2.0000      -0.560810       -15.2604
  43   2.0000      -0.551638       -15.0108
  44   2.0000      -0.534156       -14.5351
  45   2.0000      -0.532000       -14.4764
  46   2.0000      -0.519394       -14.1334
  47   2.0000      -0.516239       -14.0476
  48   2.0000      -0.507405       -13.8072
  49   2.0000      -0.496891       -13.5211
  50   2.0000      -0.487353       -13.2615
  51   2.0000      -0.484681       -13.1888
  52   2.0000      -0.470842       -12.8123
  53   2.0000      -0.469124       -12.7655
  54   2.0000      -0.455417       -12.3925
  55   2.0000      -0.448531       -12.2052
  56   2.0000      -0.444666       -12.1000
  57   2.0000      -0.433931       -11.8079
  58   2.0000      -0.432570       -11.7708
  59   2.0000      -0.429143       -11.6776
  60   2.0000      -0.423907       -11.5351
  61   2.0000      -0.405398       -11.0314
  62   2.0000      -0.401903       -10.9363
  63   2.0000      -0.339247        -9.2314
  64   2.0000      -0.333110        -9.0644
  65   2.0000      -0.329047        -8.9538
  66   2.0000      -0.296594        -8.0707
  67   0.0000       0.032626         0.8878
  68   0.0000       0.057256         1.5580
  69   0.0000       0.111681         3.0390
  70   0.0000       0.122060         3.3214
  71   0.0000       0.130639         3.5549

MULLIKEN ATOMIC CHARGES
-----------------------
   0 S :    0.113765
   1 C :   -0.115530
   2 C :   -0.099574
   3 C :    0.073837
   4 C :   -0.162066
   5 H :   -0.020966
   6 C :    0.092666
   7 H :    0.014665
   8 H :    0.033641
   9 C :   -0.059279
  10 H :    0.009697
  11 H :    0.014349
  12 C :   -0.068408
  13 H :    0.027394
  14 H :    0.047373
  15 H :    0.036951
  16 S :    0.096248
  17 C :   -0.073150
  18 C :   -0.049079
  19 C :   -0.020490
  20 C :   -0.167786
  21 H :    0.020769
  22 C :    0.103201
  23 H :    0.019641
  24 H :    0.039640
  25 C :   -0.112770
  26 H :    0.030759
  27 H :    0.043347
  28 C :   -0.057194
  29 H :    0.038572
  30 H :    0.027122
  31 H :    0.040588
  32 H :    0.033007
  33 H :    0.049062
Sum of atomic charges:   -0.0000000

LOEWDIN ATOMIC CHARGES
----------------------
   0 S :    0.415388
   1 C :   -0.184607
   2 C :   -0.061292
   3 C :   -0.056016
   4 C :   -0.207119
   5 H :    0.017243
   6 C :   -0.026885
   7 H :    0.028962
   8 H :    0.031058
   9 C :   -0.050437
  10 H :    0.025439
  11 H :    0.023357
  12 C :   -0.071581
  13 H :    0.019478
  14 H :    0.034948
  15 H :    0.029456
  16 S :    0.381004
  17 C :   -0.177486
  18 C :   -0.071389
  19 C :   -0.044690
  20 C :   -0.181806
  21 H :    0.030546
  22 C :   -0.033549
  23 H :    0.034940
  24 H :    0.033064
  25 C :   -0.045745
  26 H :    0.024389
  27 H :    0.028923
  28 C :   -0.070597
  29 H :    0.024212
  30 H :    0.027018
  31 H :    0.029301
  32 H :    0.020807
  33 H :    0.023665

  Mayer bond orders larger than 0.100000
B(  0-S ,  1-C ) :   1.1322 B(  0-S ,  4-C ) :   1.1715 B(  1-C ,  2-C ) :   1.6055
B(  1-C ,  4-C ) :   0.1018 B(  1-C , 32-H ) :   0.9724 B(  2-C ,  3-C ) :   1.2536
B(  2-C ,  6-C ) :   1.0106 B(  3-C ,  4-C ) :   1.5398 B(  3-C ,  5-H ) :   1.0101
B(  4-C , 20-C ) :   1.0356 B(  6-C ,  7-H ) :   0.9425 B(  6-C ,  8-H ) :   0.9426
B(  6-C ,  9-C ) :   1.0706 B(  9-C , 10-H ) :   0.9429 B(  9-C , 11-H ) :   0.9528
B(  9-C , 12-C ) :   1.0782 B( 12-C , 13-H ) :   0.9786 B( 12-C , 14-H ) :   0.9687
B( 12-C , 15-H ) :   0.9732 B( 16-S , 17-C ) :   1.1488 B( 16-S , 20-C ) :   1.1343
B( 17-C , 18-C ) :   1.6295 B( 17-C , 20-C ) :   0.1107 B( 17-C , 33-H ) :   0.9666
B( 18-C , 19-C ) :   1.2242 B( 18-C , 21-H ) :   0.9838 B( 19-C , 20-C ) :   1.5909
B( 19-C , 22-C ) :   1.0477 B( 22-C , 23-H ) :   0.9323 B( 22-C , 24-H ) :   0.9274
B( 22-C , 25-C ) :   1.0399 B( 25-C , 26-H ) :   0.9523 B( 25-C , 27-H ) :   0.9618
B( 25-C , 28-C ) :   1.0807 B( 28-C , 29-H ) :   0.9761 B( 28-C , 30-H ) :   0.9714
B( 28-C , 31-H ) :   0.9742

Dispersion correction           -0.014414229
FINAL SINGLE POINT ENERGY     -1339.871796044798

DIPOLE MOMENT
-------------
                                X             Y             Z
Electronic contribution:    -24.98233      -5.47523      -2.07155
Nuclear contribution   :     25.59168       5.53325       2.36355
                        -----------------------------------------
Total Dipole Moment    :      0.60935       0.05802       0.29200
                        -----------------------------------------
Magnitude (a.u.)       :      0.67819
Magnitude (Debye)      :      1.72381

Rotational constants in cm-1:     0.016620     0.009139     0.007457
Rotational constants in MHz :   498.258677   273.974145   223.557316

                             ****ORCA TERMINATED NORMALLY****
TOTAL RUN TIME: 0 days 0 hours 0 minutes 30 seconds 473 msec
