                         Program Version 4.2.1 -  RELEASE  -
|  1> ! wB97X-D3 SP def2-SVP
|  2> %pal
|  3> nprocs 16
|  4> end
|  5>
|  6> * xyz 0 1
|  7> S 	 56.2272 	 -5.08412 	 86.7009
|  8> C 	 55.408 	 -5.35787 	 88.2679
|  9> C 	 55.0533 	 -4.14297 	 88.8439
| 10> C 	 55.4668 	 -3.09129 	 88.0135
| 11> C 	 56.0813 	 -3.39139 	 86.8171
| 12> H 	 55.1309 	 -2.10956 	 88.368
| 13> C 	 54.3266 	 -3.87084 	 90.1781
| 14> H 	 54.8324 	 -3.00275 	 90.6721
| 15> H 	 54.4242 	 -4.72244 	 90.7802
| 16> C 	 52.8551 	 -3.47635 	 90.0292
| 17> H 	 52.845 	 -2.41938 	 89.8006
| 18> H 	 52.4003 	 -4.01532 	 89.141
| 19> C 	 52.0183 	 -3.72709 	 91.3326
| 20> H 	 52.0042 	 -4.80246 	 91.4762
| 21> H 	 52.4521 	 -3.36152 	 92.3228
| 22> H 	 50.9693 	 -3.43453 	 91.1269
| 23> S 	 56.4464 	 -3.31275 	 84.1793
| 24> C 	 57.0567 	 -1.83077 	 83.3898
| 25> C 	 57.2221 	 -0.784519 	 84.2952
| 26> C 	 57.0021 	 -1.18537 	 85.6627
| 27> C 	 56.4992 	 -2.50228 	 85.7262
| 28> H 	 57.4419 	 0.194296 	 83.9188
| 29> C 	 57.3082 	 -0.364801 	 86.8736
| 30> H 	 58.3366 	 -0.6717 	 87.1334
| 31> H 	 56.577 	 -0.620193 	 87.6645
| 32> C 	 57.4258 	 1.16106 	 86.8321
| 33> H 	 56.4043 	 1.64952 	 86.5378
| 34> H 	 58.1803 	 1.43161 	 86.0889
| 35> C 	 57.6982 	 1.88903 	 88.1101
| 36> H 	 57.9195 	 2.88052 	 87.9188
| 37> H 	 58.5337 	 1.44201 	 88.58
| 38> H 	 56.8641 	 1.73783 	 88.8073
| 39> H 	 55.1334 	 -6.36088 	 88.5248
| 40> H 	 57.32 	 -1.63996 	 82.3394
| 41> *
| 42>
| 43>                          ****END OF INPUT****

CARTESIAN COORDINATES (ANGSTROEM)
---------------------------------
  S     56.227200   -5.084120   86.700900
  C     55.408000   -5.357870   88.267900
  C     55.053300   -4.142970   88.843900
  C     55.466800   -3.091290   88.013500
  C     56.081300   -3.391390   86.817100
  H     55.130900   -2.109560   88.368000
  C     54.326600   -3.870840   90.178100
  H     54.832400   -3.002750   90.672100
  H     54.424200   -4.722440   90.780200
  C     52.855100   -3.476350   90.029200
  H     52.845000   -2.419380   89.800600
  H     52.400300   -4.015320   89.141000
  C     52.018300   -3.727090   91.332600
  H     52.004200   -4.802460   91.476200
  H     52.452100   -3.361520   92.322800
  H     50.969300   -3.434530   91.126900
  S     56.446400   -3.312750   84.179300
  C     57.056700   -1.830770   83.389800
  C     57.222100   -0.784519   84.295200
  C     57.002100   -1.185370   85.662700
  C     56.499200   -2.502280   85.726200
  H     57.441900    0.194296   83.918800
  C     57.308200   -0.364801   86.873600
  H     58.336600   -0.671700   87.133400
  H     56.577000   -0.620193   87.664500
  C     57.425800    1.161060   86.832100
  H     56.404300    1.649520   86.537800
  H     58.180300    1.431610   86.088900
  C     57.698200    1.889030   88.110100
  H     57.919500    2.880520   87.918800
  H     58.533700    1.442010   88.580000
  H     56.864100    1.737830   88.807300
  H     55.133400   -6.360880   88.524800
  H     57.320000   -1.639960   82.339400

 Total Charge           Charge          ....    0
 Multiplicity           Mult            ....    1
 Number of Electrons    NEL             ....  134
 Basis Dimension        Dim             ....  322

ORBITAL ENERGIES
----------------

  NO   OCC          E(Eh)            E(eV)
   0   2.0000     -88.969012     -2420.9699
   1   2.0000     -88.964758     -2420.8542
   2   2.0000     -10.330034      -281.0945
   3   2.0000     -10.329006      -281.0665
   4   2.0000     -10.321447      -280.8608
   5   2.0000     -10.316293      -280.7206
   6   2.0000     -10.310162      -280.5538
   7   2.0000     -10.301860      -280.3279
   8   2.0000     -10.296698      -280.1874
   9   2.0000     -10.295203      -280.1467
  10   2.0000     -10.294741      -280.1341
  11   2.0000     -10.293529      -280.1012
  12   2.0000     -10.292390      -280.0702
  13   2.0000     -10.289784      -279.9993
  14   2.0000     -10.288016      -279.9511
  15   2.0000     -10.270628      -279.4780
  16   2.0000      -8.083044      -219.9508
  17   2.0000      -8.079954      -219.8667
  18   2.0000      -6.041715      -164.4034
  19   2.0000      -6.038444      -164.3144
  20   2.0000      -6.037682      -164.2937
  21   2.0000      -6.034343      -164.2028
  22   2.0000      -6.033626      -164.1833
  23   2.0000      -6.030743      -164.1049
  24   2.0000      -1.008945       -27.4548
  25   2.0000      -0.980901       -26.6917
  26   2.0000      -0.915263       -24.9056
  27   2.0000      -0.910277       -24.7699
  28   2.0000      -0.868728       -23.6393
  29   2.0000      -0.858482       -23.3605
  30   2.0000      -0.842736       -22.9320
  31   2.0000      -0.813732       -22.1428
  32   2.0000      -0.783938       -21.3320
  33   2.0000      -0.774299       -21.0697
  34   2.0000      -0.705101       -19.1868
  35   2.0000      -0.696165       -18.9436
  36   2.0000      -0.693759       -18.8781
  37   2.0000      -0.654797       -17.8179
  38   2.0000      -0.638322       -17.3696
  39   2.0000      -0.630366       -17.1531
  40   2.0000      -0.594467       -16.1763
  41   2.0000      -0.578498       -15.7417
  42   2.0000      -0.568913       -15.4809
  43   2.0000      -0.556060       -15.1312
  44   2.0000      -0.531862       -14.4727
  45   2.0000      -0.528003       -14.3677
  46   2.0000      -0.515468       -14.0266
  47   2.0000      -0.509341       -13.8599
  48   2.0000      -0.507139       -13.8000
  49   2.0000      -0.498344       -13.5606
  50   2.0000      -0.494675       -13.4608
  51   2.0000      -0.478140       -13.0108
  52   2.0000      -0.472217       -12.8497
  53   2.0000      -0.465424       -12.6648
  54   2.0000      -0.461440       -12.5564
  55   2.0000      -0.457473       -12.4485
  56   2.0000      -0.448639       -12.2081
  57   2.0000      -0.438932       -11.9440
  58   2.0000      -0.431835       -11.7508
  59   2.0000      -0.424568       -11.5531
  60   2.0000      -0.419307       -11.4099
  61   2.0000      -0.414154       -11.2697
  62   2.0000      -0.406241       -11.0544
  63   2.0000      -0.351932        -9.5766
  64   2.0000      -0.333743        -9.0816
  65   2.0000      -0.330170        -8.9844
  66   2.0000      -0.282207        -7.6793
  67   0.0000       0.021057         0.5730
  68   0.0000       0.079433         2.1615
  69   0.0000       0.094987         2.5847
  70   0.0000       0.117691         3.2025
  71   0.0000       0.130842         3.5604

MULLIKEN ATOMIC CHARGES
-----------------------
   0 S :    0.092467
   1 C :   -0.146987
   2 C :   -0.078049
   3 C :   -0.013711
   4 C :   -0.099646
   5 H :    0.006987
   6 C :    0.086176
   7 H :    0.039065
   8 H :    0.006209
   9 C :   -0.096154
  10 H :    0.028818
  11 H :    0.050097
  12 C :   -0.073057
  13 H :    0.026251
  14 H :    0.047866
  15 H :    0.048839
  16 S :    0.097271
  17 C :   -0.086866
  18 C :   -0.048678
  19 C :   -0.025710
  20 C :   -0.124992
  21 H :    0.018485
  22 C :    0.065281
  23 H :    0.044202
  24 H :    0.026581
  25 C :   -0.146024
  26 H :    0.033354
  27 H :    0.030560
  28 C :    0.024262
  29 H :    0.026050
  30 H :    0.006189
  31 H :    0.029178
  32 H :    0.045235
  33 H :    0.060454
Sum of atomic charges:   -0.0000000

LOEWDIN ATOMIC CHARGES
----------------------
   0 S :    0.407569
   1 C :   -0.185046
   2 C :   -0.058620
   3 C :   -0.079393
   4 C :   -0.207681
   5 H :    0.026000
   6 C :   -0.025769
   7 H :    0.038762
   8 H :    0.019331
   9 C :   -0.043448
  10 H :    0.018689
  11 H :    0.033988
  12 C :   -0.075310
  13 H :    0.021757
  14 H :    0.034621
  15 H :    0.032354
  16 S :    0.395469
  17 C :   -0.182529
  18 C :   -0.066625
  19 C :   -0.052104
  20 C :   -0.190883
  21 H :    0.029856
  22 C :   -0.039029
  23 H :    0.043778
  24 H :    0.033653
  25 C :   -0.049732
  26 H :    0.029656
  27 H :    0.019799
  28 C :   -0.052533
  29 H :    0.021674
  30 H :    0.016833
  31 H :    0.028018
  32 H :    0.020877
  33 H :    0.036021

  Mayer bond orders larger than 0.100000
B(  0-S ,  1-C ) :   1.1363 B(  0-S ,  4-C ) :   1.1646 B(  1-C ,  2-C ) :   1.5717
B(  1-C ,  4-C ) :   0.1038 B(  1-C , 32-H ) :   0.9768 B(  2-C ,  3-C ) :   1.3016
B(  2-C ,  6-C ) :   1.0203 B(  3-C ,  4-C ) :   1.5307 B(  3-C ,  5-H ) :   0.9846
B(  4-C , 20-C ) :   1.0562 B(  6-C ,  7-H ) :   0.9407 B(  6-C ,  8-H ) :   0.9456
B(  6-C ,  9-C ) :   1.0481 B(  9-C , 10-H ) :   0.9556 B(  9-C , 11-H ) :   0.9599
B(  9-C , 12-C ) :   1.0761 B( 12-C , 13-H ) :   0.9761 B( 12-C , 14-H ) :   0.9734
B( 12-C , 15-H ) :   0.9744 B( 16-S , 17-C ) :   1.1371 B( 16-S , 20-C ) :   1.1326
B( 17-C , 18-C ) :   1.6326 B( 17-C , 33-H ) :   0.9606 B( 18-C , 19-C ) :   1.2252
B( 18-C , 21-H ) :   0.9886 B( 19-C , 20-C ) :   1.5857 B( 19-C , 22-C ) :   1.0411
B( 22-C , 23-H ) :   0.9146 B( 22-C , 24-H ) :   0.9361 B( 22-C , 25-C ) :   1.0805
B( 25-C , 26-H ) :   0.9566 B( 25-C , 27-H ) :   0.9453 B( 25-C , 28-C ) :   1.0953
B( 28-C , 29-H ) :   0.9684 B( 28-C , 30-H ) :   0.9679 B( 28-C , 31-H ) :   0.9724

Dispersion correction           -0.013089537
FINAL SINGLE POINT ENERGY     -1339.867636776814

DIPOLE MOMENT
-------------
                                X             Y             Z
Electronic contribution:      8.17505     -18.35963     -23.16874
Nuclear contribution   :     -8.29487      18.87620      23.60498
                        -----------------------------------------
Total Dipole Moment    :     -0.11982       0.51658       0.43623
                        -----------------------------------------
Magnitude (a.u.)       :      0.68667
Magnitude (Debye)      :      1.74537

Rotational constants in cm-1:     0.016317     0.008411     0.006034
Rotational constants in MHz :   489.173539   252.151095   180.894361

                             ****ORCA TERMINATED NORMALLY****
TOTAL RUN TIME: 0 days 0 hours 0 minutes 28 seconds 802 msec
