                         Program Version 4.2.1 -  RELEASE  -
|  1> ! wB97X-D3 SP def2-SVP
|  2> %pal
|  3> nprocs 16
|  4> end
|  5>
|  6> * xyz 0 1
|  7> S 	 8.25897 	 20.3313 	 33.9716
|  8> C 	 9.73149 	 19.6147 	 33.4221
|  9> C 	 10.833 	 19.7984 	 34.2465
| 10> C 	 10.3992 	 20.4557 	 35.3947
| 11> C 	 9.06853 	 20.7292 	 35.4382
| 12> H 	 11.0195 	 20.5041 	 36.2457
| 13> C 	 12.2393 	 19.2775 	 33.9956
| 14> H 	 12.781 	 20.1507 	 33.7715
| 15> H 	 12.369 	 18.649 	 33.1653
| 16> C 	 12.8453 	 18.6025 	 35.1962
| 17> H 	 12.6599 	 19.1733 	 36.098
| 18> H 	 12.243 	 17.688 	 35.2821
| 19> C 	 14.3709 	 18.3329 	 34.9962
| 20> H 	 14.8471 	 17.9301 	 35.9736
| 21> H 	 14.507 	 17.548 	 34.3206
| 22> H 	 14.8876 	 19.2326 	 34.5811
| 23> S 	 6.52113 	 20.7962 	 36.5175
| 24> C 	 6.27918 	 21.4779 	 38.0621
| 25> C 	 7.35559 	 22.1871 	 38.5367
| 26> C 	 8.47241 	 22.1194 	 37.611
| 27> C 	 8.25396 	 21.2687 	 36.5104
| 28> H 	 7.28104 	 22.7708 	 39.4173
| 29> C 	 9.77642 	 22.6986 	 37.8555
| 30> H 	 10.5163 	 22.5105 	 37.053
| 31> H 	 10.2007 	 22.1015 	 38.7031
| 32> C 	 9.84769 	 24.1963 	 38.0892
| 33> H 	 9.14084 	 24.3771 	 38.8742
| 34> H 	 9.45306 	 24.8623 	 37.329
| 35> C 	 11.1522 	 24.7653 	 38.5854
| 36> H 	 11.0604 	 25.8894 	 38.5998
| 37> H 	 11.9999 	 24.454 	 38.0089
| 38> H 	 11.2831 	 24.4635 	 39.6568
| 39> H 	 9.85161 	 19.3264 	 32.3606
| 40> H 	 5.40711 	 21.5635 	 38.5867
| 41> *
| 42>
| 43>                          ****END OF INPUT****

CARTESIAN COORDINATES (ANGSTROEM)
---------------------------------
  S      8.258970   20.331300   33.971600
  C      9.731490   19.614700   33.422100
  C     10.833000   19.798400   34.246500
  C     10.399200   20.455700   35.394700
  C      9.068530   20.729200   35.438200
  H     11.019500   20.504100   36.245700
  C     12.239300   19.277500   33.995600
  H     12.781000   20.150700   33.771500
  H     12.369000   18.649000   33.165300
  C     12.845300   18.602500   35.196200
  H     12.659900   19.173300   36.098000
  H     12.243000   17.688000   35.282100
  C     14.370900   18.332900   34.996200
  H     14.847100   17.930100   35.973600
  H     14.507000   17.548000   34.320600
  H     14.887600   19.232600   34.581100
  S      6.521130   20.796200   36.517500
  C      6.279180   21.477900   38.062100
  C      7.355590   22.187100   38.536700
  C      8.472410   22.119400   37.611000
  C      8.253960   21.268700   36.510400
  H      7.281040   22.770800   39.417300
  C      9.776420   22.698600   37.855500
  H     10.516300   22.510500   37.053000
  H     10.200700   22.101500   38.703100
  C      9.847690   24.196300   38.089200
  H      9.140840   24.377100   38.874200
  H      9.453060   24.862300   37.329000
  C     11.152200   24.765300   38.585400
  H     11.060400   25.889400   38.599800
  H     11.999900   24.454000   38.008900
  H     11.283100   24.463500   39.656800
  H      9.851610   19.326400   32.360600
  H      5.407110   21.563500   38.586700

 Total Charge           Charge          ....    0
 Multiplicity           Mult            ....    1
 Number of Electrons    NEL             ....  134
 Basis Dimension        Dim             ....  322

ORBITAL ENERGIES
----------------

  NO   OCC          E(Eh)            E(eV)
   0   2.0000     -88.967128     -2420.9186
   1   2.0000     -88.962579     -2420.7948
   2   2.0000     -10.328016      -281.0396
   3   2.0000     -10.326376      -280.9950
   4   2.0000     -10.309447      -280.5343
   5   2.0000     -10.307832      -280.4904
   6   2.0000     -10.303479      -280.3719
   7   2.0000     -10.298353      -280.2324
   8   2.0000     -10.291808      -280.0543
   9   2.0000     -10.288418      -279.9621
  10   2.0000     -10.288232      -279.9570
  11   2.0000     -10.287522      -279.9377
  12   2.0000     -10.285111      -279.8721
  13   2.0000     -10.285093      -279.8716
  14   2.0000     -10.281138      -279.7640
  15   2.0000     -10.278345      -279.6880
  16   2.0000      -8.083035      -219.9506
  17   2.0000      -8.077611      -219.8030
  18   2.0000      -6.041271      -164.3913
  19   2.0000      -6.037597      -164.2914
  20   2.0000      -6.036152      -164.2520
  21   2.0000      -6.033802      -164.1881
  22   2.0000      -6.032163      -164.1435
  23   2.0000      -6.028229      -164.0365
  24   2.0000      -1.014507       -27.6061
  25   2.0000      -0.987542       -26.8724
  26   2.0000      -0.921343       -25.0710
  27   2.0000      -0.916321       -24.9344
  28   2.0000      -0.871438       -23.7130
  29   2.0000      -0.859706       -23.3938
  30   2.0000      -0.848083       -23.0775
  31   2.0000      -0.817638       -22.2491
  32   2.0000      -0.786588       -21.4042
  33   2.0000      -0.770215       -20.9586
  34   2.0000      -0.713763       -19.4225
  35   2.0000      -0.700960       -19.0741
  36   2.0000      -0.693752       -18.8779
  37   2.0000      -0.659904       -17.9569
  38   2.0000      -0.644130       -17.5277
  39   2.0000      -0.634420       -17.2635
  40   2.0000      -0.603293       -16.4164
  41   2.0000      -0.573771       -15.6131
  42   2.0000      -0.569610       -15.4999
  43   2.0000      -0.560668       -15.2566
  44   2.0000      -0.530718       -14.4416
  45   2.0000      -0.527115       -14.3435
  46   2.0000      -0.516047       -14.0424
  47   2.0000      -0.511648       -13.9227
  48   2.0000      -0.507983       -13.8229
  49   2.0000      -0.500402       -13.6166
  50   2.0000      -0.495547       -13.4845
  51   2.0000      -0.476236       -12.9590
  52   2.0000      -0.474053       -12.8997
  53   2.0000      -0.465890       -12.6775
  54   2.0000      -0.461170       -12.5491
  55   2.0000      -0.456989       -12.4353
  56   2.0000      -0.453286       -12.3345
  57   2.0000      -0.438256       -11.9255
  58   2.0000      -0.433592       -11.7986
  59   2.0000      -0.431646       -11.7457
  60   2.0000      -0.422331       -11.4922
  61   2.0000      -0.417484       -11.3603
  62   2.0000      -0.399224       -10.8634
  63   2.0000      -0.358925        -9.7669
  64   2.0000      -0.338037        -9.1985
  65   2.0000      -0.325989        -8.8706
  66   2.0000      -0.279316        -7.6006
  67   0.0000       0.023029         0.6267
  68   0.0000       0.077955         2.1213
  69   0.0000       0.103494         2.8162
  70   0.0000       0.120870         3.2890
  71   0.0000       0.141866         3.8604

MULLIKEN ATOMIC CHARGES
-----------------------
   0 S :    0.115471
   1 C :   -0.136571
   2 C :   -0.087299
   3 C :   -0.013083
   4 C :   -0.104647
   5 H :   -0.004545
   6 C :    0.140321
   7 H :    0.014594
   8 H :    0.005003
   9 C :   -0.111768
  10 H :    0.032842
  11 H :    0.037336
  12 C :   -0.055183
  13 H :    0.050269
  14 H :    0.020978
  15 H :    0.042018
  16 S :    0.088150
  17 C :   -0.025288
  18 C :   -0.031813
  19 C :   -0.024292
  20 C :   -0.131864
  21 H :    0.010063
  22 C :    0.019941
  23 H :    0.023498
  24 H :    0.040956
  25 C :   -0.069694
  26 H :    0.002053
  27 H :    0.029313
  28 C :   -0.049695
  29 H :    0.040706
  30 H :    0.030792
  31 H :    0.030541
  32 H :    0.051671
  33 H :    0.019225
Sum of atomic charges:    0.0000000

LOEWDIN ATOMIC CHARGES
----------------------
   0 S :    0.425529
   1 C :   -0.210357
   2 C :   -0.055163
   3 C :   -0.069360
   4 C :   -0.188189
   5 H :    0.021225
   6 C :   -0.022236
   7 H :    0.026103
   8 H :    0.024141
   9 C :   -0.039447
  10 H :    0.018790
  11 H :    0.029824
  12 C :   -0.067582
  13 H :    0.039278
  14 H :    0.015301
  15 H :    0.030695
  16 S :    0.393755
  17 C :   -0.177768
  18 C :   -0.066700
  19 C :   -0.053841
  20 C :   -0.182232
  21 H :    0.026322
  22 C :   -0.044303
  23 H :    0.030626
  24 H :    0.041035
  25 C :   -0.048365
  26 H :    0.017617
  27 H :    0.027138
  28 C :   -0.063968
  29 H :    0.034832
  30 H :    0.018132
  31 H :    0.028008
  32 H :    0.027498
  33 H :    0.013664

  Mayer bond orders larger than 0.100000
B(  0-S ,  1-C ) :   1.1457 B(  0-S ,  4-C ) :   1.1592 B(  1-C ,  2-C ) :   1.6148
B(  1-C , 32-H ) :   0.9573 B(  2-C ,  3-C ) :   1.2690 B(  2-C ,  6-C ) :   1.0091
B(  3-C ,  4-C ) :   1.5685 B(  3-C ,  5-H ) :   0.9884 B(  4-C , 20-C ) :   1.0701
B(  6-C ,  7-H ) :   0.9215 B(  6-C ,  8-H ) :   0.9458 B(  6-C ,  9-C ) :   1.0595
B(  9-C , 10-H ) :   0.9588 B(  9-C , 11-H ) :   0.9581 B(  9-C , 12-C ) :   1.0721
B( 12-C , 13-H ) :   0.9744 B( 12-C , 14-H ) :   0.9753 B( 12-C , 15-H ) :   0.9755
B( 16-S , 17-C ) :   1.1601 B( 16-S , 20-C ) :   1.1099 B( 17-C , 18-C ) :   1.6218
B( 17-C , 33-H ) :   0.9705 B( 18-C , 19-C ) :   1.2144 B( 18-C , 21-H ) :   0.9950
B( 19-C , 20-C ) :   1.5821 B( 19-C , 22-C ) :   1.0679 B( 22-C , 23-H ) :   0.9295
B( 22-C , 24-H ) :   0.9308 B( 22-C , 25-C ) :   1.0474 B( 25-C , 26-H ) :   0.9523
B( 25-C , 27-H ) :   0.9546 B( 25-C , 28-C ) :   1.0912 B( 28-C , 29-H ) :   0.9728
B( 28-C , 30-H ) :   0.9759 B( 28-C , 31-H ) :   0.9750

Dispersion correction           -0.013279720
FINAL SINGLE POINT ENERGY     -1339.864859922703

DIPOLE MOMENT
-------------
                                X             Y             Z
Electronic contribution:    -29.02872      -5.04884      -8.61194
Nuclear contribution   :     29.61463       5.19654       8.84701
                        -----------------------------------------
Total Dipole Moment    :      0.58590       0.14770       0.23507
                        -----------------------------------------
Magnitude (a.u.)       :      0.64835
Magnitude (Debye)      :      1.64797

Rotational constants in cm-1:     0.016391     0.008821     0.006392
Rotational constants in MHz :   491.389089   264.457669   191.632388

                             ****ORCA TERMINATED NORMALLY****
TOTAL RUN TIME: 0 days 0 hours 0 minutes 34 seconds 826 msec
