                         Program Version 4.2.1 -  RELEASE  -
|  1> ! wB97X-D3 SP def2-SVP
|  2> %pal
|  3> nprocs 16
|  4> end
|  5>
|  6> * xyz 0 1
|  7> S 	 29.4769 	 17.026 	 72.0849
|  8> C 	 28.9113 	 15.429 	 72.1391
|  9> C 	 29.8694 	 14.4914 	 71.8507
| 10> C 	 31.2329 	 15.0295 	 71.8243
| 11> C 	 31.1503 	 16.4919 	 71.7997
| 12> H 	 32.1508 	 14.4011 	 71.7124
| 13> C 	 29.6813 	 12.9777 	 71.5856
| 14> H 	 30.2711 	 12.6708 	 70.6742
| 15> H 	 28.6049 	 12.8475 	 71.3307
| 16> C 	 30.0534 	 12.0659 	 72.8123
| 17> H 	 31.1043 	 11.9015 	 73.0171
| 18> H 	 29.6815 	 12.6513 	 73.7231
| 19> C 	 29.5548 	 10.6636 	 72.6823
| 20> H 	 29.7175 	 10.0981 	 73.5765
| 21> H 	 28.5128 	 10.6463 	 72.4808
| 22> H 	 30.0401 	 10.1069 	 71.903
| 23> S 	 32.1916 	 18.4776 	 70.0638
| 24> C 	 33.8121 	 19.0259 	 70.3322
| 25> C 	 34.3556 	 18.4872 	 71.5011
| 26> C 	 33.478 	 17.6252 	 72.2451
| 27> C 	 32.2347 	 17.3827 	 71.5234
| 28> H 	 35.3667 	 18.7138 	 71.8507
| 29> C 	 33.8853 	 16.9063 	 73.4682
| 30> H 	 32.9458 	 16.6103 	 73.9777
| 31> H 	 34.3717 	 17.663 	 74.1538
| 32> C 	 34.7802 	 15.6748 	 73.2337
| 33> H 	 35.6302 	 16.0179 	 72.6414
| 34> H 	 34.1275 	 15.0694 	 72.651
| 35> C 	 35.3259 	 15.0422 	 74.5117
| 36> H 	 34.5168 	 14.5094 	 75.0485
| 37> H 	 35.6561 	 15.7404 	 75.2432
| 38> H 	 36.0375 	 14.2322 	 74.4202
| 39> H 	 27.8557 	 15.2683 	 72.1551
| 40> H 	 34.3323 	 19.7951 	 69.725
| 41> *
| 42>
| 43>                          ****END OF INPUT****

CARTESIAN COORDINATES (ANGSTROEM)
---------------------------------
  S     29.476900   17.026000   72.084900
  C     28.911300   15.429000   72.139100
  C     29.869400   14.491400   71.850700
  C     31.232900   15.029500   71.824300
  C     31.150300   16.491900   71.799700
  H     32.150800   14.401100   71.712400
  C     29.681300   12.977700   71.585600
  H     30.271100   12.670800   70.674200
  H     28.604900   12.847500   71.330700
  C     30.053400   12.065900   72.812300
  H     31.104300   11.901500   73.017100
  H     29.681500   12.651300   73.723100
  C     29.554800   10.663600   72.682300
  H     29.717500   10.098100   73.576500
  H     28.512800   10.646300   72.480800
  H     30.040100   10.106900   71.903000
  S     32.191600   18.477600   70.063800
  C     33.812100   19.025900   70.332200
  C     34.355600   18.487200   71.501100
  C     33.478000   17.625200   72.245100
  C     32.234700   17.382700   71.523400
  H     35.366700   18.713800   71.850700
  C     33.885300   16.906300   73.468200
  H     32.945800   16.610300   73.977700
  H     34.371700   17.663000   74.153800
  C     34.780200   15.674800   73.233700
  H     35.630200   16.017900   72.641400
  H     34.127500   15.069400   72.651000
  C     35.325900   15.042200   74.511700
  H     34.516800   14.509400   75.048500
  H     35.656100   15.740400   75.243200
  H     36.037500   14.232200   74.420200
  H     27.855700   15.268300   72.155100
  H     34.332300   19.795100   69.725000

 Total Charge           Charge          ....    0
 Multiplicity           Mult            ....    1
 Number of Electrons    NEL             ....  134
 Basis Dimension        Dim             ....  322

ORBITAL ENERGIES
----------------

  NO   OCC          E(Eh)            E(eV)
   0   2.0000     -88.969592     -2420.9857
   1   2.0000     -88.966452     -2420.9002
   2   2.0000     -10.338782      -281.3326
   3   2.0000     -10.332935      -281.1735
   4   2.0000     -10.321804      -280.8706
   5   2.0000     -10.312362      -280.6136
   6   2.0000     -10.311248      -280.5833
   7   2.0000     -10.307764      -280.4885
   8   2.0000     -10.306214      -280.4463
   9   2.0000     -10.303823      -280.3813
  10   2.0000     -10.295538      -280.1558
  11   2.0000     -10.291646      -280.0499
  12   2.0000     -10.291064      -280.0341
  13   2.0000     -10.286567      -279.9117
  14   2.0000     -10.276608      -279.6407
  15   2.0000     -10.270072      -279.4629
  16   2.0000      -8.084771      -219.9978
  17   2.0000      -8.080158      -219.8723
  18   2.0000      -6.043203      -164.4439
  19   2.0000      -6.039181      -164.3345
  20   2.0000      -6.038685      -164.3210
  21   2.0000      -6.035615      -164.2374
  22   2.0000      -6.034686      -164.2121
  23   2.0000      -6.031084      -164.1141
  24   2.0000      -0.997494       -27.1432
  25   2.0000      -0.975784       -26.5524
  26   2.0000      -0.910945       -24.7881
  27   2.0000      -0.906883       -24.6775
  28   2.0000      -0.868864       -23.6430
  29   2.0000      -0.852656       -23.2019
  30   2.0000      -0.848281       -23.0829
  31   2.0000      -0.805287       -21.9130
  32   2.0000      -0.781273       -21.2595
  33   2.0000      -0.766498       -20.8575
  34   2.0000      -0.710521       -19.3343
  35   2.0000      -0.698267       -19.0008
  36   2.0000      -0.693636       -18.8748
  37   2.0000      -0.655766       -17.8443
  38   2.0000      -0.640640       -17.4327
  39   2.0000      -0.612020       -16.6539
  40   2.0000      -0.590574       -16.0703
  41   2.0000      -0.568376       -15.4663
  42   2.0000      -0.566417       -15.4130
  43   2.0000      -0.556016       -15.1300
  44   2.0000      -0.524979       -14.2854
  45   2.0000      -0.520010       -14.1502
  46   2.0000      -0.515093       -14.0164
  47   2.0000      -0.513577       -13.9752
  48   2.0000      -0.510782       -13.8991
  49   2.0000      -0.499184       -13.5835
  50   2.0000      -0.493763       -13.4360
  51   2.0000      -0.481247       -13.0954
  52   2.0000      -0.469445       -12.7742
  53   2.0000      -0.463944       -12.6246
  54   2.0000      -0.454583       -12.3698
  55   2.0000      -0.450809       -12.2671
  56   2.0000      -0.446329       -12.1452
  57   2.0000      -0.435157       -11.8412
  58   2.0000      -0.433844       -11.8055
  59   2.0000      -0.427411       -11.6304
  60   2.0000      -0.421026       -11.4567
  61   2.0000      -0.414718       -11.2851
  62   2.0000      -0.411071       -11.1858
  63   2.0000      -0.337826        -9.1927
  64   2.0000      -0.328560        -8.9406
  65   2.0000      -0.326806        -8.8928
  66   2.0000      -0.289137        -7.8678
  67   0.0000       0.024164         0.6575
  68   0.0000       0.058028         1.5790
  69   0.0000       0.109290         2.9739
  70   0.0000       0.121565         3.3079
  71   0.0000       0.123773         3.3680

MULLIKEN ATOMIC CHARGES
-----------------------
   0 S :    0.128130
   1 C :   -0.108686
   2 C :   -0.098339
   3 C :    0.022331
   4 C :   -0.187091
   5 H :    0.052057
   6 C :    0.035658
   7 H :    0.044995
   8 H :    0.025462
   9 C :   -0.097580
  10 H :    0.027272
  11 H :    0.042567
  12 C :   -0.010745
  13 H :    0.028400
  14 H :    0.015627
  15 H :    0.023930
  16 S :    0.108797
  17 C :   -0.100267
  18 C :   -0.039360
  19 C :   -0.023363
  20 C :   -0.171925
  21 H :    0.021083
  22 C :    0.008113
  23 H :    0.036538
  24 H :    0.031576
  25 C :   -0.022129
  26 H :    0.026898
  27 H :    0.006752
  28 C :   -0.020871
  29 H :    0.017028
  30 H :    0.023618
  31 H :    0.033380
  32 H :    0.045435
  33 H :    0.074709
Sum of atomic charges:    0.0000000

LOEWDIN ATOMIC CHARGES
----------------------
   0 S :    0.426912
   1 C :   -0.214341
   2 C :   -0.066630
   3 C :   -0.049402
   4 C :   -0.198667
   5 H :    0.039995
   6 C :   -0.034364
   7 H :    0.035998
   8 H :    0.031038
   9 C :   -0.048829
  10 H :    0.022738
  11 H :    0.032686
  12 C :   -0.061731
  13 H :    0.026825
  14 H :    0.017475
  15 H :    0.024735
  16 S :    0.390291
  17 C :   -0.197271
  18 C :   -0.078248
  19 C :   -0.046050
  20 C :   -0.194995
  21 H :    0.031024
  22 C :   -0.041940
  23 H :    0.034048
  24 H :    0.034033
  25 C :   -0.030775
  26 H :    0.024685
  27 H :    0.018330
  28 C :   -0.068915
  29 H :    0.029113
  30 H :    0.022529
  31 H :    0.026570
  32 H :    0.023405
  33 H :    0.039729

  Mayer bond orders larger than 0.100000
B(  0-S ,  1-C ) :   1.1492 B(  0-S ,  4-C ) :   1.1605 B(  1-C ,  2-C ) :   1.6127
B(  1-C , 32-H ) :   0.9655 B(  2-C ,  3-C ) :   1.2475 B(  2-C ,  6-C ) :   1.0295
B(  3-C ,  4-C ) :   1.5222 B(  3-C ,  5-H ) :   0.9746 B(  4-C , 20-C ) :   1.1082
B(  6-C ,  7-H ) :   0.9423 B(  6-C ,  8-H ) :   0.9468 B(  6-C ,  9-C ) :   1.0432
B(  9-C , 10-H ) :   0.9545 B(  9-C , 11-H ) :   0.9577 B(  9-C , 12-C ) :   1.0910
B( 12-C , 13-H ) :   0.9705 B( 12-C , 14-H ) :   0.9741 B( 12-C , 15-H ) :   0.9702
B( 16-S , 17-C ) :   1.1664 B( 16-S , 20-C ) :   1.1276 B( 17-C , 18-C ) :   1.5818
B( 17-C , 20-C ) :   0.1074 B( 17-C , 33-H ) :   0.9619 B( 18-C , 19-C ) :   1.2647
B( 18-C , 21-H ) :   0.9839 B( 19-C , 20-C ) :   1.5226 B( 19-C , 22-C ) :   1.0777
B( 22-C , 23-H ) :   0.9259 B( 22-C , 24-H ) :   0.9269 B( 22-C , 25-C ) :   1.0527
B( 25-C , 26-H ) :   0.9569 B( 25-C , 27-H ) :   0.9529 B( 25-C , 28-C ) :   1.0788
B( 28-C , 29-H ) :   0.9696 B( 28-C , 30-H ) :   0.9736 B( 28-C , 31-H ) :   0.9747

Dispersion correction           -0.014046411
FINAL SINGLE POINT ENERGY     -1339.871006898046

DIPOLE MOMENT
-------------
                                X             Y             Z
Electronic contribution:     -8.85538      26.96413     -13.44678
Nuclear contribution   :      9.11382     -27.52855      13.64323
                        -----------------------------------------
Total Dipole Moment    :      0.25844      -0.56441       0.19645
                        -----------------------------------------
Magnitude (a.u.)       :      0.65111
Magnitude (Debye)      :      1.65500

Rotational constants in cm-1:     0.017293     0.008554     0.006361
Rotational constants in MHz :   518.420572   256.443883   190.704854

                             ****ORCA TERMINATED NORMALLY****
TOTAL RUN TIME: 0 days 0 hours 0 minutes 29 seconds 568 msec
