                         Program Version 4.2.1 -  RELEASE  -
|  1> ! wB97X-D3 SP def2-SVP
|  2> %pal
|  3> nprocs 16
|  4> end
|  5>
|  6> * xyz 0 1
|  7> S 	 -48.1202 	 65.1418 	 131.044
|  8> C 	 -47.3124 	 65.7768 	 129.565
|  9> C 	 -47.6662 	 64.9897 	 128.461
| 10> C 	 -48.6859 	 64.0148 	 128.686
| 11> C 	 -49.0801 	 63.9935 	 130.019
| 12> H 	 -49.14 	 63.3948 	 127.922
| 13> C 	 -47.1513 	 65.1493 	 127.027
| 14> H 	 -46.6879 	 66.1431 	 126.908
| 15> H 	 -47.9619 	 65.2131 	 126.379
| 16> C 	 -46.0644 	 64.1903 	 126.665
| 17> H 	 -45.4105 	 63.9571 	 127.536
| 18> H 	 -46.5834 	 63.2217 	 126.501
| 19> C 	 -45.1444 	 64.5441 	 125.461
| 20> H 	 -44.3299 	 63.8458 	 125.418
| 21> H 	 -45.5973 	 64.5799 	 124.494
| 22> H 	 -44.7947 	 65.5505 	 125.618
| 23> S 	 -51.8127 	 64.2569 	 130.42
| 24> C 	 -52.7155 	 62.8269 	 130.558
| 25> C 	 -51.9541 	 61.6551 	 130.66
| 26> C 	 -50.5854 	 61.9075 	 130.446
| 27> C 	 -50.3068 	 63.2842 	 130.383
| 28> H 	 -52.3333 	 60.7163 	 130.869
| 29> C 	 -49.5232 	 60.8003 	 130.366
| 30> H 	 -49.3888 	 60.146 	 131.251
| 31> H 	 -48.5031 	 61.3163 	 130.358
| 32> C 	 -49.7211 	 59.9949 	 129.101
| 33> H 	 -49.7565 	 60.6525 	 128.248
| 34> H 	 -50.782 	 59.6055 	 129.104
| 35> C 	 -48.7591 	 58.8159 	 128.981
| 36> H 	 -48.9084 	 58.2841 	 128.031
| 37> H 	 -48.8831 	 58.2273 	 129.816
| 38> H 	 -47.7703 	 59.2169 	 129.03
| 39> H 	 -46.8665 	 66.7488 	 129.568
| 40> H 	 -53.778 	 62.7736 	 130.599
| 41> *
| 42>
| 43>                          ****END OF INPUT****

CARTESIAN COORDINATES (ANGSTROEM)
---------------------------------
  S    -48.120200   65.141800  131.044000
  C    -47.312400   65.776800  129.565000
  C    -47.666200   64.989700  128.461000
  C    -48.685900   64.014800  128.686000
  C    -49.080100   63.993500  130.019000
  H    -49.140000   63.394800  127.922000
  C    -47.151300   65.149300  127.027000
  H    -46.687900   66.143100  126.908000
  H    -47.961900   65.213100  126.379000
  C    -46.064400   64.190300  126.665000
  H    -45.410500   63.957100  127.536000
  H    -46.583400   63.221700  126.501000
  C    -45.144400   64.544100  125.461000
  H    -44.329900   63.845800  125.418000
  H    -45.597300   64.579900  124.494000
  H    -44.794700   65.550500  125.618000
  S    -51.812700   64.256900  130.420000
  C    -52.715500   62.826900  130.558000
  C    -51.954100   61.655100  130.660000
  C    -50.585400   61.907500  130.446000
  C    -50.306800   63.284200  130.383000
  H    -52.333300   60.716300  130.869000
  C    -49.523200   60.800300  130.366000
  H    -49.388800   60.146000  131.251000
  H    -48.503100   61.316300  130.358000
  C    -49.721100   59.994900  129.101000
  H    -49.756500   60.652500  128.248000
  H    -50.782000   59.605500  129.104000
  C    -48.759100   58.815900  128.981000
  H    -48.908400   58.284100  128.031000
  H    -48.883100   58.227300  129.816000
  H    -47.770300   59.216900  129.030000
  H    -46.866500   66.748800  129.568000
  H    -53.778000   62.773600  130.599000

 Total Charge           Charge          ....    0
 Multiplicity           Mult            ....    1
 Number of Electrons    NEL             ....  134
 Basis Dimension        Dim             ....  322

ORBITAL ENERGIES
----------------

  NO   OCC          E(Eh)            E(eV)
   0   2.0000     -88.968654     -2420.9601
   1   2.0000     -88.967578     -2420.9309
   2   2.0000     -10.333044      -281.1764
   3   2.0000     -10.326476      -280.9977
   4   2.0000     -10.319501      -280.8079
   5   2.0000     -10.314144      -280.6621
   6   2.0000     -10.305514      -280.4273
   7   2.0000     -10.304510      -280.4000
   8   2.0000     -10.296381      -280.1788
   9   2.0000     -10.296022      -280.1690
  10   2.0000     -10.287643      -279.9410
  11   2.0000     -10.286853      -279.9195
  12   2.0000     -10.284707      -279.8611
  13   2.0000     -10.284390      -279.8525
  14   2.0000     -10.275758      -279.6176
  15   2.0000     -10.270373      -279.4711
  16   2.0000      -8.083574      -219.9652
  17   2.0000      -8.080453      -219.8803
  18   2.0000      -6.041880      -164.4079
  19   2.0000      -6.039100      -164.3323
  20   2.0000      -6.038107      -164.3052
  21   2.0000      -6.035283      -164.2284
  22   2.0000      -6.034483      -164.2066
  23   2.0000      -6.031112      -164.1149
  24   2.0000      -1.000125       -27.2148
  25   2.0000      -0.975918       -26.5561
  26   2.0000      -0.912277       -24.8243
  27   2.0000      -0.910028       -24.7631
  28   2.0000      -0.864536       -23.5252
  29   2.0000      -0.854764       -23.2593
  30   2.0000      -0.845273       -23.0010
  31   2.0000      -0.808521       -22.0010
  32   2.0000      -0.784602       -21.3501
  33   2.0000      -0.770718       -20.9723
  34   2.0000      -0.702076       -19.1045
  35   2.0000      -0.698837       -19.0163
  36   2.0000      -0.696218       -18.9451
  37   2.0000      -0.662397       -18.0247
  38   2.0000      -0.643402       -17.5078
  39   2.0000      -0.618352       -16.8262
  40   2.0000      -0.600576       -16.3425
  41   2.0000      -0.565949       -15.4002
  42   2.0000      -0.562895       -15.3172
  43   2.0000      -0.554034       -15.0760
  44   2.0000      -0.529159       -14.3992
  45   2.0000      -0.527922       -14.3655
  46   2.0000      -0.518521       -14.1097
  47   2.0000      -0.515969       -14.0402
  48   2.0000      -0.508077       -13.8255
  49   2.0000      -0.501230       -13.6392
  50   2.0000      -0.489034       -13.3073
  51   2.0000      -0.475607       -12.9419
  52   2.0000      -0.467885       -12.7318
  53   2.0000      -0.460231       -12.5235
  54   2.0000      -0.458497       -12.4763
  55   2.0000      -0.452445       -12.3116
  56   2.0000      -0.448241       -12.1973
  57   2.0000      -0.444312       -12.0903
  58   2.0000      -0.439150       -11.9499
  59   2.0000      -0.425005       -11.5650
  60   2.0000      -0.418610       -11.3910
  61   2.0000      -0.406307       -11.0562
  62   2.0000      -0.405605       -11.0371
  63   2.0000      -0.339651        -9.2424
  64   2.0000      -0.332163        -9.0386
  65   2.0000      -0.318509        -8.6671
  66   2.0000      -0.299960        -8.1623
  67   0.0000       0.030835         0.8391
  68   0.0000       0.053033         1.4431
  69   0.0000       0.109453         2.9784
  70   0.0000       0.120263         3.2725
  71   0.0000       0.123977         3.3736

MULLIKEN ATOMIC CHARGES
-----------------------
   0 S :    0.090673
   1 C :   -0.129482
   2 C :   -0.088771
   3 C :    0.043657
   4 C :   -0.160430
   5 H :    0.028031
   6 C :    0.099724
   7 H :   -0.002695
   8 H :    0.014969
   9 C :   -0.096193
  10 H :    0.039267
  11 H :    0.019117
  12 C :   -0.015044
  13 H :    0.034994
  14 H :    0.025119
  15 H :    0.021173
  16 S :    0.131968
  17 C :   -0.078713
  18 C :   -0.003608
  19 C :   -0.016880
  20 C :   -0.183962
  21 H :   -0.011407
  22 C :    0.033469
  23 H :    0.035058
  24 H :    0.035020
  25 C :   -0.119487
  26 H :    0.018034
  27 H :    0.024127
  28 C :    0.036385
  29 H :    0.042162
  30 H :    0.010928
  31 H :    0.017389
  32 H :    0.059145
  33 H :    0.046264
Sum of atomic charges:    0.0000000

LOEWDIN ATOMIC CHARGES
----------------------
   0 S :    0.356659
   1 C :   -0.183025
   2 C :   -0.052100
   3 C :   -0.050428
   4 C :   -0.181279
   5 H :    0.036033
   6 C :   -0.032396
   7 H :    0.026048
   8 H :    0.020495
   9 C :   -0.045876
  10 H :    0.032341
  11 H :    0.021597
  12 C :   -0.058601
  13 H :    0.027257
  14 H :    0.021377
  15 H :    0.022282
  16 S :    0.424294
  17 C :   -0.191418
  18 C :   -0.065621
  19 C :   -0.044940
  20 C :   -0.195599
  21 H :    0.018472
  22 C :   -0.038403
  23 H :    0.031757
  24 H :    0.036039
  25 C :   -0.044986
  26 H :    0.018246
  27 H :    0.024245
  28 C :   -0.052341
  29 H :    0.032093
  30 H :    0.014947
  31 H :    0.023002
  32 H :    0.027320
  33 H :    0.022505

  Mayer bond orders larger than 0.100000
B(  0-S ,  1-C ) :   1.1173 B(  0-S ,  4-C ) :   1.1296 B(  1-C ,  2-C ) :   1.6208
B(  1-C , 32-H ) :   0.9709 B(  2-C ,  3-C ) :   1.2257 B(  2-C ,  6-C ) :   1.0308
B(  3-C ,  4-C ) :   1.5797 B(  3-C ,  5-H ) :   0.9906 B(  4-C , 20-C ) :   1.0338
B(  6-C ,  7-H ) :   0.9377 B(  6-C ,  8-H ) :   0.9394 B(  6-C ,  9-C ) :   1.0547
B(  9-C , 10-H ) :   0.9561 B(  9-C , 11-H ) :   0.9507 B(  9-C , 12-C ) :   1.0823
B( 12-C , 13-H ) :   0.9758 B( 12-C , 14-H ) :   0.9760 B( 12-C , 15-H ) :   0.9732
B( 16-S , 17-C ) :   1.1883 B( 16-S , 20-C ) :   1.1394 B( 17-C , 18-C ) :   1.5702
B( 17-C , 20-C ) :   0.1007 B( 17-C , 33-H ) :   0.9673 B( 18-C , 19-C ) :   1.2656
B( 18-C , 21-H ) :   1.0001 B( 19-C , 20-C ) :   1.5901 B( 19-C , 22-C ) :   1.0309
B( 22-C , 23-H ) :   0.9466 B( 22-C , 24-H ) :   0.9310 B( 22-C , 25-C ) :   1.0487
B( 25-C , 26-H ) :   0.9527 B( 25-C , 27-H ) :   0.9570 B( 25-C , 28-C ) :   1.0768
B( 28-C , 29-H ) :   0.9727 B( 28-C , 30-H ) :   0.9704 B( 28-C , 31-H ) :   0.9714

Dispersion correction           -0.014121273
FINAL SINGLE POINT ENERGY     -1339.865049470582

DIPOLE MOMENT
-------------
                                X             Y             Z
Electronic contribution:    -15.76530      16.11774      19.81451
Nuclear contribution   :     15.78943     -16.43375     -20.36042
                        -----------------------------------------
Total Dipole Moment    :      0.02414      -0.31601      -0.54590
                        -----------------------------------------
Magnitude (a.u.)       :      0.63123
Magnitude (Debye)      :      1.60446

Rotational constants in cm-1:     0.016441     0.008795     0.006664
Rotational constants in MHz :   492.897651   263.660391   199.794648

                             ****ORCA TERMINATED NORMALLY****
TOTAL RUN TIME: 0 days 0 hours 0 minutes 32 seconds 352 msec
