                         Program Version 4.2.1 -  RELEASE  -
|  1> ! wB97X-D3 SP def2-SVP
|  2> %pal
|  3> nprocs 16
|  4> end
|  5>
|  6> * xyz 0 1
|  7> S 	 -82.3598 	 43.6315 	 129.366
|  8> C 	 -83.9776 	 43.3871 	 128.842
|  9> C 	 -84.9072 	 43.8585 	 129.715
| 10> C 	 -84.3335 	 44.3314 	 130.933
| 11> C 	 -82.9695 	 44.2004 	 130.906
| 12> H 	 -84.7718 	 44.6952 	 131.851
| 13> C 	 -86.3681 	 43.8212 	 129.47
| 14> H 	 -86.8519 	 43.7398 	 130.438
| 15> H 	 -86.6432 	 42.9851 	 128.921
| 16> C 	 -87.0037 	 45.0616 	 128.813
| 17> H 	 -88.1133 	 44.8941 	 128.653
| 18> H 	 -86.9563 	 45.9003 	 129.554
| 19> C 	 -86.3377 	 45.4349 	 127.527
| 20> H 	 -85.2458 	 45.638 	 127.589
| 21> H 	 -86.4111 	 44.6698 	 126.757
| 22> H 	 -86.7686 	 46.3952 	 127.143
| 23> S 	 -80.7647 	 45.7293 	 131.621
| 24> C 	 -80.2253 	 45.8942 	 133.275
| 25> C 	 -80.8587 	 44.8886 	 134.047
| 26> C 	 -81.8665 	 44.1524 	 133.345
| 27> C 	 -82.0095 	 44.5654 	 132.027
| 28> H 	 -80.5521 	 44.7274 	 135.096
| 29> C 	 -82.6413 	 43.0814 	 134.126
| 30> H 	 -82.0853 	 42.6924 	 134.96
| 31> H 	 -82.7667 	 42.2076 	 133.471
| 32> C 	 -84.0513 	 43.4796 	 134.598
| 33> H 	 -84.7566 	 43.5474 	 133.802
| 34> H 	 -84.006 	 44.4254 	 135.151
| 35> C 	 -84.6986 	 42.3286 	 135.491
| 36> H 	 -85.7082 	 42.5757 	 135.798
| 37> H 	 -84.1423 	 42.3003 	 136.437
| 38> H 	 -84.506 	 41.3436 	 134.908
| 39> H 	 -84.239 	 42.9498 	 127.883
| 40> H 	 -79.3786 	 46.3826 	 133.781
| 41> *
| 42>
| 43>                          ****END OF INPUT****

CARTESIAN COORDINATES (ANGSTROEM)
---------------------------------
  S    -82.359800   43.631500  129.366000
  C    -83.977600   43.387100  128.842000
  C    -84.907200   43.858500  129.715000
  C    -84.333500   44.331400  130.933000
  C    -82.969500   44.200400  130.906000
  H    -84.771800   44.695200  131.851000
  C    -86.368100   43.821200  129.470000
  H    -86.851900   43.739800  130.438000
  H    -86.643200   42.985100  128.921000
  C    -87.003700   45.061600  128.813000
  H    -88.113300   44.894100  128.653000
  H    -86.956300   45.900300  129.554000
  C    -86.337700   45.434900  127.527000
  H    -85.245800   45.638000  127.589000
  H    -86.411100   44.669800  126.757000
  H    -86.768600   46.395200  127.143000
  S    -80.764700   45.729300  131.621000
  C    -80.225300   45.894200  133.275000
  C    -80.858700   44.888600  134.047000
  C    -81.866500   44.152400  133.345000
  C    -82.009500   44.565400  132.027000
  H    -80.552100   44.727400  135.096000
  C    -82.641300   43.081400  134.126000
  H    -82.085300   42.692400  134.960000
  H    -82.766700   42.207600  133.471000
  C    -84.051300   43.479600  134.598000
  H    -84.756600   43.547400  133.802000
  H    -84.006000   44.425400  135.151000
  C    -84.698600   42.328600  135.491000
  H    -85.708200   42.575700  135.798000
  H    -84.142300   42.300300  136.437000
  H    -84.506000   41.343600  134.908000
  H    -84.239000   42.949800  127.883000
  H    -79.378600   46.382600  133.781000

 Total Charge           Charge          ....    0
 Multiplicity           Mult            ....    1
 Number of Electrons    NEL             ....  134
 Basis Dimension        Dim             ....  322

ORBITAL ENERGIES
----------------

  NO   OCC          E(Eh)            E(eV)
   0   2.0000     -88.968531     -2420.9568
   1   2.0000     -88.968424     -2420.9539
   2   2.0000     -10.333104      -281.1781
   3   2.0000     -10.332475      -281.1609
   4   2.0000     -10.320152      -280.8256
   5   2.0000     -10.310126      -280.5528
   6   2.0000     -10.305990      -280.4402
   7   2.0000     -10.297382      -280.2060
   8   2.0000     -10.296381      -280.1788
   9   2.0000     -10.294972      -280.1404
  10   2.0000     -10.292629      -280.0767
  11   2.0000     -10.291563      -280.0477
  12   2.0000     -10.288474      -279.9636
  13   2.0000     -10.287367      -279.9335
  14   2.0000     -10.281699      -279.7793
  15   2.0000     -10.276418      -279.6356
  16   2.0000      -8.083893      -219.9739
  17   2.0000      -8.082679      -219.9409
  18   2.0000      -6.042284      -164.4189
  19   2.0000      -6.041274      -164.3914
  20   2.0000      -6.038417      -164.3137
  21   2.0000      -6.037162      -164.2795
  22   2.0000      -6.034641      -164.2109
  23   2.0000      -6.033441      -164.1783
  24   2.0000      -1.009112       -27.4593
  25   2.0000      -0.986462       -26.8430
  26   2.0000      -0.915834       -24.9211
  27   2.0000      -0.903834       -24.5946
  28   2.0000      -0.862739       -23.4763
  29   2.0000      -0.853568       -23.2268
  30   2.0000      -0.844486       -22.9796
  31   2.0000      -0.814742       -22.1703
  32   2.0000      -0.782247       -21.2860
  33   2.0000      -0.770982       -20.9795
  34   2.0000      -0.703357       -19.1393
  35   2.0000      -0.695621       -18.9288
  36   2.0000      -0.688055       -18.7229
  37   2.0000      -0.659213       -17.9381
  38   2.0000      -0.647052       -17.6072
  39   2.0000      -0.620695       -16.8900
  40   2.0000      -0.591522       -16.0961
  41   2.0000      -0.567425       -15.4404
  42   2.0000      -0.564135       -15.3509
  43   2.0000      -0.550415       -14.9776
  44   2.0000      -0.543868       -14.7994
  45   2.0000      -0.521055       -14.1786
  46   2.0000      -0.515433       -14.0257
  47   2.0000      -0.508654       -13.8412
  48   2.0000      -0.508310       -13.8318
  49   2.0000      -0.498020       -13.5518
  50   2.0000      -0.492935       -13.4134
  51   2.0000      -0.479394       -13.0450
  52   2.0000      -0.470173       -12.7940
  53   2.0000      -0.463053       -12.6003
  54   2.0000      -0.455524       -12.3954
  55   2.0000      -0.452046       -12.3008
  56   2.0000      -0.441405       -12.0112
  57   2.0000      -0.433817       -11.8048
  58   2.0000      -0.427499       -11.6328
  59   2.0000      -0.426772       -11.6130
  60   2.0000      -0.422270       -11.4906
  61   2.0000      -0.417218       -11.3531
  62   2.0000      -0.413549       -11.2532
  63   2.0000      -0.345297        -9.3960
  64   2.0000      -0.332340        -9.0434
  65   2.0000      -0.329543        -8.9673
  66   2.0000      -0.297667        -8.0999
  67   0.0000       0.035717         0.9719
  68   0.0000       0.062368         1.6971
  69   0.0000       0.109497         2.9796
  70   0.0000       0.120951         3.2912
  71   0.0000       0.126991         3.4556

MULLIKEN ATOMIC CHARGES
-----------------------
   0 S :    0.122130
   1 C :   -0.117676
   2 C :   -0.086320
   3 C :    0.039566
   4 C :   -0.155622
   5 H :    0.017368
   6 C :    0.112193
   7 H :    0.013686
   8 H :    0.006780
   9 C :   -0.085637
  10 H :    0.041466
  11 H :    0.030246
  12 C :   -0.071352
  13 H :    0.048356
  14 H :    0.022535
  15 H :    0.036510
  16 S :    0.112599
  17 C :   -0.087200
  18 C :   -0.086453
  19 C :   -0.009747
  20 C :   -0.176379
  21 H :    0.030741
  22 C :    0.070244
  23 H :    0.014175
  24 H :    0.027130
  25 C :   -0.084225
  26 H :    0.029736
  27 H :    0.033895
  28 C :   -0.080316
  29 H :    0.040951
  30 H :    0.029427
  31 H :    0.051402
  32 H :    0.043033
  33 H :    0.066755
Sum of atomic charges:   -0.0000000

LOEWDIN ATOMIC CHARGES
----------------------
   0 S :    0.414813
   1 C :   -0.200121
   2 C :   -0.064702
   3 C :   -0.056273
   4 C :   -0.187761
   5 H :    0.034459
   6 C :   -0.029061
   7 H :    0.031638
   8 H :    0.020248
   9 C :   -0.044342
  10 H :    0.031777
  11 H :    0.025544
  12 C :   -0.077032
  13 H :    0.030507
  14 H :    0.020067
  15 H :    0.031292
  16 S :    0.415043
  17 C :   -0.206927
  18 C :   -0.075811
  19 C :   -0.061632
  20 C :   -0.198141
  21 H :    0.033303
  22 C :   -0.030452
  23 H :    0.027125
  24 H :    0.033339
  25 C :   -0.037477
  26 H :    0.015507
  27 H :    0.023142
  28 C :   -0.071585
  29 H :    0.024601
  30 H :    0.021329
  31 H :    0.038002
  32 H :    0.027802
  33 H :    0.041779

  Mayer bond orders larger than 0.100000
B(  0-S ,  1-C ) :   1.1343 B(  0-S ,  4-C ) :   1.1601 B(  1-C ,  2-C ) :   1.6250
B(  1-C , 32-H ) :   0.9669 B(  2-C ,  3-C ) :   1.2061 B(  2-C ,  6-C ) :   1.0336
B(  3-C ,  4-C ) :   1.6085 B(  3-C ,  5-H ) :   0.9938 B(  4-C , 20-C ) :   0.9864
B(  6-C ,  7-H ) :   0.9326 B(  6-C ,  8-H ) :   0.9386 B(  6-C ,  9-C ) :   1.0721
B(  9-C , 10-H ) :   0.9537 B(  9-C , 11-H ) :   0.9542 B(  9-C , 12-C ) :   1.0853
B( 12-C , 13-H ) :   0.9680 B( 12-C , 14-H ) :   0.9739 B( 12-C , 15-H ) :   0.9708
B( 16-S , 17-C ) :   1.1568 B( 16-S , 20-C ) :   1.1515 B( 17-C , 18-C ) :   1.5981
B( 17-C , 20-C ) :   0.1059 B( 17-C , 33-H ) :   0.9619 B( 18-C , 19-C ) :   1.2624
B( 18-C , 21-H ) :   0.9806 B( 19-C , 20-C ) :   1.5934 B( 19-C , 22-C ) :   1.0411
B( 22-C , 23-H ) :   0.9429 B( 22-C , 24-H ) :   0.9263 B( 22-C , 25-C ) :   1.0665
B( 25-C , 26-H ) :   0.9515 B( 25-C , 27-H ) :   0.9588 B( 25-C , 28-C ) :   1.0720
B( 28-C , 29-H ) :   0.9750 B( 28-C , 30-H ) :   0.9781 B( 28-C , 31-H ) :   0.9723

Dispersion correction           -0.014393705
FINAL SINGLE POINT ENERGY     -1339.880432991115

DIPOLE MOMENT
-------------
                                X             Y             Z
Electronic contribution:     23.58778       4.72955      -6.88468
Nuclear contribution   :    -24.03462      -4.91681       7.20840
                        -----------------------------------------
Total Dipole Moment    :     -0.44683      -0.18726       0.32371
                        -----------------------------------------
Magnitude (a.u.)       :      0.58268
Magnitude (Debye)      :      1.48106

Rotational constants in cm-1:     0.018197     0.008761     0.006732
Rotational constants in MHz :   545.519275   262.653917   201.831607

                             ****ORCA TERMINATED NORMALLY****
TOTAL RUN TIME: 0 days 0 hours 0 minutes 33 seconds 359 msec
