                         Program Version 4.2.1 -  RELEASE  -
|  1> ! wB97X-D3 SP def2-SVP
|  2> %pal
|  3> nprocs 16
|  4> end
|  5>
|  6> * xyz 0 1
|  7> S 	 40.3385 	 29.2746 	 82.249
|  8> C 	 39.0496 	 28.5806 	 83.1029
|  9> C 	 39.4078 	 27.4957 	 83.8588
| 10> C 	 40.7863 	 27.2414 	 83.7177
| 11> C 	 41.5647 	 28.1351 	 82.961
| 12> H 	 41.325 	 26.4461 	 84.2049
| 13> C 	 38.5318 	 26.6689 	 84.7112
| 14> H 	 38.4205 	 25.6878 	 84.2414
| 15> H 	 37.4427 	 27.025 	 84.5683
| 16> C 	 38.8255 	 26.6368 	 86.1226
| 17> H 	 39.9375 	 26.5983 	 86.2434
| 18> H 	 38.7352 	 27.6148 	 86.5633
| 19> C 	 38.0405 	 25.6205 	 86.9483
| 20> H 	 37.0722 	 25.7227 	 86.6074
| 21> H 	 38.3597 	 24.6025 	 86.7543
| 22> H 	 38.0774 	 25.8757 	 88.1035
| 23> S 	 43.8471 	 29.7766 	 83.0132
| 24> C 	 45.3715 	 29.1431 	 82.9415
| 25> C 	 45.3264 	 27.7702 	 82.6287
| 26> C 	 44.0208 	 27.2306 	 82.4916
| 27> C 	 43.054 	 28.1875 	 82.8415
| 28> H 	 46.1984 	 27.2763 	 82.2723
| 29> C 	 43.7392 	 25.8322 	 82.0262
| 30> H 	 43.6713 	 25.8904 	 80.977
| 31> H 	 42.8454 	 25.4297 	 82.4292
| 32> C 	 44.7411 	 24.6993 	 82.3579
| 33> H 	 44.8617 	 24.5945 	 83.4081
| 34> H 	 45.7375 	 24.8269 	 81.9216
| 35> C 	 44.4026 	 23.3441 	 81.7205
| 36> H 	 43.8655 	 23.3327 	 80.7436
| 37> H 	 43.8376 	 22.7611 	 82.5162
| 38> H 	 45.3099 	 22.7997 	 81.4506
| 39> H 	 38.0696 	 29.0028 	 83.0047
| 40> H 	 46.3469 	 29.5799 	 82.8523
| 41> *
| 42>
| 43>                          ****END OF INPUT****

CARTESIAN COORDINATES (ANGSTROEM)
---------------------------------
  S     40.338500   29.274600   82.249000
  C     39.049600   28.580600   83.102900
  C     39.407800   27.495700   83.858800
  C     40.786300   27.241400   83.717700
  C     41.564700   28.135100   82.961000
  H     41.325000   26.446100   84.204900
  C     38.531800   26.668900   84.711200
  H     38.420500   25.687800   84.241400
  H     37.442700   27.025000   84.568300
  C     38.825500   26.636800   86.122600
  H     39.937500   26.598300   86.243400
  H     38.735200   27.614800   86.563300
  C     38.040500   25.620500   86.948300
  H     37.072200   25.722700   86.607400
  H     38.359700   24.602500   86.754300
  H     38.077400   25.875700   88.103500
  S     43.847100   29.776600   83.013200
  C     45.371500   29.143100   82.941500
  C     45.326400   27.770200   82.628700
  C     44.020800   27.230600   82.491600
  C     43.054000   28.187500   82.841500
  H     46.198400   27.276300   82.272300
  C     43.739200   25.832200   82.026200
  H     43.671300   25.890400   80.977000
  H     42.845400   25.429700   82.429200
  C     44.741100   24.699300   82.357900
  H     44.861700   24.594500   83.408100
  H     45.737500   24.826900   81.921600
  C     44.402600   23.344100   81.720500
  H     43.865500   23.332700   80.743600
  H     43.837600   22.761100   82.516200
  H     45.309900   22.799700   81.450600
  H     38.069600   29.002800   83.004700
  H     46.346900   29.579900   82.852300

 Total Charge           Charge          ....    0
 Multiplicity           Mult            ....    1
 Number of Electrons    NEL             ....  134
 Basis Dimension        Dim             ....  322

ORBITAL ENERGIES
----------------

  NO   OCC          E(Eh)            E(eV)
   0   2.0000     -88.969192     -2420.9748
   1   2.0000     -88.964275     -2420.8410
   2   2.0000     -10.337959      -281.3102
   3   2.0000     -10.333775      -281.1963
   4   2.0000     -10.312915      -280.6287
   5   2.0000     -10.310474      -280.5623
   6   2.0000     -10.306568      -280.4560
   7   2.0000     -10.295823      -280.1636
   8   2.0000     -10.292832      -280.0822
   9   2.0000     -10.290793      -280.0267
  10   2.0000     -10.288159      -279.9550
  11   2.0000     -10.287157      -279.9278
  12   2.0000     -10.285673      -279.8874
  13   2.0000     -10.285386      -279.8796
  14   2.0000     -10.282525      -279.8017
  15   2.0000     -10.279293      -279.7138
  16   2.0000      -8.084816      -219.9990
  17   2.0000      -8.079008      -219.8410
  18   2.0000      -6.043170      -164.4430
  19   2.0000      -6.039084      -164.3318
  20   2.0000      -6.037541      -164.2899
  21   2.0000      -6.035770      -164.2416
  22   2.0000      -6.033384      -164.1767
  23   2.0000      -6.029879      -164.0813
  24   2.0000      -1.006311       -27.3831
  25   2.0000      -0.991206       -26.9721
  26   2.0000      -0.923744       -25.1363
  27   2.0000      -0.914177       -24.8760
  28   2.0000      -0.868988       -23.6464
  29   2.0000      -0.855783       -23.2870
  30   2.0000      -0.849348       -23.1119
  31   2.0000      -0.813433       -22.1346
  32   2.0000      -0.786189       -21.3933
  33   2.0000      -0.773209       -21.0401
  34   2.0000      -0.708991       -19.2926
  35   2.0000      -0.700689       -19.0667
  36   2.0000      -0.695870       -18.9356
  37   2.0000      -0.655606       -17.8399
  38   2.0000      -0.645227       -17.5575
  39   2.0000      -0.625393       -17.0178
  40   2.0000      -0.602135       -16.3849
  41   2.0000      -0.577153       -15.7051
  42   2.0000      -0.574242       -15.6259
  43   2.0000      -0.556802       -15.1514
  44   2.0000      -0.531837       -14.4720
  45   2.0000      -0.520529       -14.1643
  46   2.0000      -0.517783       -14.0896
  47   2.0000      -0.514439       -13.9986
  48   2.0000      -0.506430       -13.7807
  49   2.0000      -0.503006       -13.6875
  50   2.0000      -0.501413       -13.6441
  51   2.0000      -0.479874       -13.0580
  52   2.0000      -0.469369       -12.7722
  53   2.0000      -0.468029       -12.7357
  54   2.0000      -0.461789       -12.5659
  55   2.0000      -0.451327       -12.2812
  56   2.0000      -0.447139       -12.1673
  57   2.0000      -0.444166       -12.0864
  58   2.0000      -0.436051       -11.8655
  59   2.0000      -0.424404       -11.5486
  60   2.0000      -0.416934       -11.3454
  61   2.0000      -0.408665       -11.1203
  62   2.0000      -0.396485       -10.7889
  63   2.0000      -0.349753        -9.5173
  64   2.0000      -0.331897        -9.0314
  65   2.0000      -0.328514        -8.9393
  66   2.0000      -0.288547        -7.8518
  67   0.0000       0.027364         0.7446
  68   0.0000       0.068790         1.8719
  69   0.0000       0.118847         3.2340
  70   0.0000       0.123683         3.3656
  71   0.0000       0.132544         3.6067

MULLIKEN ATOMIC CHARGES
-----------------------
   0 S :    0.102562
   1 C :   -0.123577
   2 C :   -0.062507
   3 C :    0.020643
   4 C :   -0.155295
   5 H :    0.008998
   6 C :    0.063409
   7 H :    0.030466
   8 H :    0.013103
   9 C :   -0.075788
  10 H :    0.019666
  11 H :    0.014960
  12 C :   -0.020192
  13 H :    0.011895
  14 H :    0.034921
  15 H :    0.055216
  16 S :    0.134255
  17 C :   -0.055358
  18 C :   -0.068941
  19 C :   -0.027159
  20 C :   -0.187733
  21 H :    0.007827
  22 C :    0.130308
  23 H :    0.028534
  24 H :    0.013532
  25 C :   -0.090741
  26 H :    0.030232
  27 H :    0.023837
  28 C :   -0.092705
  29 H :    0.039764
  30 H :    0.044358
  31 H :    0.033120
  32 H :    0.044691
  33 H :    0.053698
Sum of atomic charges:   -0.0000000

LOEWDIN ATOMIC CHARGES
----------------------
   0 S :    0.398791
   1 C :   -0.198360
   2 C :   -0.074539
   3 C :   -0.056849
   4 C :   -0.183450
   5 H :    0.025460
   6 C :   -0.042152
   7 H :    0.033328
   8 H :    0.033769
   9 C :   -0.056671
  10 H :    0.025863
  11 H :    0.026237
  12 C :   -0.057759
  13 H :    0.013183
  14 H :    0.024630
  15 H :    0.044320
  16 S :    0.449992
  17 C :   -0.217212
  18 C :   -0.079444
  19 C :   -0.048178
  20 C :   -0.197402
  21 H :    0.022953
  22 C :   -0.022481
  23 H :    0.033634
  24 H :    0.027744
  25 C :   -0.041088
  26 H :    0.021006
  27 H :    0.021258
  28 C :   -0.075388
  29 H :    0.029996
  30 H :    0.031577
  31 H :    0.026508
  32 H :    0.025860
  33 H :    0.034863

  Mayer bond orders larger than 0.100000
B(  0-S ,  1-C ) :   1.1688 B(  0-S ,  4-C ) :   1.1336 B(  1-C ,  2-C ) :   1.5764
B(  1-C , 32-H ) :   0.9673 B(  2-C ,  3-C ) :   1.2696 B(  2-C ,  6-C ) :   1.0292
B(  3-C ,  4-C ) :   1.5629 B(  3-C ,  5-H ) :   0.9878 B(  4-C , 20-C ) :   1.0601
B(  6-C ,  7-H ) :   0.9331 B(  6-C ,  8-H ) :   0.9241 B(  6-C ,  9-C ) :   1.0693
B(  9-C , 10-H ) :   0.9532 B(  9-C , 11-H ) :   0.9407 B(  9-C , 12-C ) :   1.0666
B( 12-C , 13-H ) :   0.9709 B( 12-C , 14-H ) :   0.9761 B( 12-C , 15-H ) :   0.9749
B( 16-S , 17-C ) :   1.2006 B( 16-S , 20-C ) :   1.1511 B( 17-C , 18-C ) :   1.5510
B( 17-C , 20-C ) :   0.1017 B( 17-C , 33-H ) :   0.9634 B( 18-C , 19-C ) :   1.3030
B( 18-C , 21-H ) :   0.9859 B( 19-C , 20-C ) :   1.5353 B( 19-C , 22-C ) :   1.0404
B( 22-C , 23-H ) :   0.9165 B( 22-C , 24-H ) :   0.9372 B( 22-C , 25-C ) :   1.0738
B( 25-C , 26-H ) :   0.9637 B( 25-C , 27-H ) :   0.9550 B( 25-C , 28-C ) :   1.0679
B( 28-C , 29-H ) :   0.9735 B( 28-C , 30-H ) :   0.9781 B( 28-C , 31-H ) :   0.9814

Dispersion correction           -0.013127055
FINAL SINGLE POINT ENERGY     -1339.853393904897

DIPOLE MOMENT
-------------
                                X             Y             Z
Electronic contribution:      4.67801      27.52904      -9.35507
Nuclear contribution   :     -4.60989     -28.10897       9.35689
                        -----------------------------------------
Total Dipole Moment    :      0.06812      -0.57993       0.00183
                        -----------------------------------------
Magnitude (a.u.)       :      0.58392
Magnitude (Debye)      :      1.48422

Rotational constants in cm-1:     0.015783     0.008176     0.006278
Rotational constants in MHz :   473.167039   245.096650   188.224684

                             ****ORCA TERMINATED NORMALLY****
TOTAL RUN TIME: 0 days 0 hours 0 minutes 28 seconds 574 msec
