                         Program Version 4.2.1 -  RELEASE  -
|  1> ! wB97X-D3 SP def2-SVP
|  2> %pal
|  3> nprocs 16
|  4> end
|  5>
|  6> * xyz 0 1
|  7> S 	 -38.1883 	 43.184 	 95.4876
|  8> C 	 -39.7506 	 43.7096 	 96.1627
|  9> C 	 -39.875 	 43.4661 	 97.5187
| 10> C 	 -38.8196 	 42.7059 	 98.0696
| 11> C 	 -37.8974 	 42.4364 	 97.1042
| 12> H 	 -38.7431 	 42.2607 	 99.036
| 13> C 	 -41.0307 	 43.8571 	 98.3838
| 14> H 	 -41.4839 	 44.803 	 98.0411
| 15> H 	 -40.5853 	 44.0107 	 99.3616
| 16> C 	 -42.0329 	 42.769 	 98.6253
| 17> H 	 -42.6011 	 42.6074 	 97.6442
| 18> H 	 -41.4804 	 41.8581 	 98.8925
| 19> C 	 -42.9287 	 43.0237 	 99.8471
| 20> H 	 -42.4436 	 43.182 	 100.754
| 21> H 	 -43.7516 	 43.7961 	 99.6581
| 22> H 	 -43.5016 	 42.1003 	 99.9218
| 23> S 	 -35.181 	 41.754 	 96.9373
| 24> C 	 -34.6332 	 40.2028 	 97.3365
| 25> C 	 -35.6846 	 39.5471 	 97.8655
| 26> C 	 -37.0047 	 40.1361 	 97.7649
| 27> C 	 -36.8489 	 41.4125 	 97.1981
| 28> H 	 -35.4973 	 38.5097 	 98.174
| 29> C 	 -38.2845 	 39.5028 	 98.2642
| 30> H 	 -39.0691 	 40.2191 	 98.6078
| 31> H 	 -38.1776 	 39.0279 	 99.2403
| 32> C 	 -39.0308 	 38.6027 	 97.1915
| 33> H 	 -38.4742 	 37.7331 	 96.7272
| 34> H 	 -39.2386 	 39.2422 	 96.29
| 35> C 	 -40.3055 	 37.9697 	 97.6528
| 36> H 	 -40.8024 	 37.4642 	 96.8533
| 37> H 	 -40.9684 	 38.7041 	 98.1236
| 38> H 	 -40.2014 	 37.2158 	 98.4938
| 39> H 	 -40.476 	 44.2993 	 95.6162
| 40> H 	 -33.5615 	 40.0165 	 97.3489
| 41> *
| 42>
| 43>                          ****END OF INPUT****

CARTESIAN COORDINATES (ANGSTROEM)
---------------------------------
  S    -38.188300   43.184000   95.487600
  C    -39.750600   43.709600   96.162700
  C    -39.875000   43.466100   97.518700
  C    -38.819600   42.705900   98.069600
  C    -37.897400   42.436400   97.104200
  H    -38.743100   42.260700   99.036000
  C    -41.030700   43.857100   98.383800
  H    -41.483900   44.803000   98.041100
  H    -40.585300   44.010700   99.361600
  C    -42.032900   42.769000   98.625300
  H    -42.601100   42.607400   97.644200
  H    -41.480400   41.858100   98.892500
  C    -42.928700   43.023700   99.847100
  H    -42.443600   43.182000  100.754000
  H    -43.751600   43.796100   99.658100
  H    -43.501600   42.100300   99.921800
  S    -35.181000   41.754000   96.937300
  C    -34.633200   40.202800   97.336500
  C    -35.684600   39.547100   97.865500
  C    -37.004700   40.136100   97.764900
  C    -36.848900   41.412500   97.198100
  H    -35.497300   38.509700   98.174000
  C    -38.284500   39.502800   98.264200
  H    -39.069100   40.219100   98.607800
  H    -38.177600   39.027900   99.240300
  C    -39.030800   38.602700   97.191500
  H    -38.474200   37.733100   96.727200
  H    -39.238600   39.242200   96.290000
  C    -40.305500   37.969700   97.652800
  H    -40.802400   37.464200   96.853300
  H    -40.968400   38.704100   98.123600
  H    -40.201400   37.215800   98.493800
  H    -40.476000   44.299300   95.616200
  H    -33.561500   40.016500   97.348900

 Total Charge           Charge          ....    0
 Multiplicity           Mult            ....    1
 Number of Electrons    NEL             ....  134
 Basis Dimension        Dim             ....  322

ORBITAL ENERGIES
----------------

  NO   OCC          E(Eh)            E(eV)
   0   2.0000     -88.967960     -2420.9413
   1   2.0000     -88.958891     -2420.6945
   2   2.0000     -10.330558      -281.1088
   3   2.0000     -10.324393      -280.9410
   4   2.0000     -10.314573      -280.6738
   5   2.0000     -10.310965      -280.5756
   6   2.0000     -10.307280      -280.4754
   7   2.0000     -10.301129      -280.3080
   8   2.0000     -10.298484      -280.2360
   9   2.0000     -10.293456      -280.0992
  10   2.0000     -10.292828      -280.0821
  11   2.0000     -10.292417      -280.0709
  12   2.0000     -10.291860      -280.0558
  13   2.0000     -10.286912      -279.9211
  14   2.0000     -10.281472      -279.7731
  15   2.0000     -10.277151      -279.6555
  16   2.0000      -8.081489      -219.9085
  17   2.0000      -8.075698      -219.7509
  18   2.0000      -6.039935      -164.3550
  19   2.0000      -6.036514      -164.2619
  20   2.0000      -6.034059      -164.1951
  21   2.0000      -6.032032      -164.1399
  22   2.0000      -6.029758      -164.0781
  23   2.0000      -6.026646      -163.9934
  24   2.0000      -1.011030       -27.5115
  25   2.0000      -0.986830       -26.8530
  26   2.0000      -0.917975       -24.9794
  27   2.0000      -0.904294       -24.6071
  28   2.0000      -0.869895       -23.6710
  29   2.0000      -0.855616       -23.2825
  30   2.0000      -0.847414       -23.0593
  31   2.0000      -0.816777       -22.2256
  32   2.0000      -0.784400       -21.3446
  33   2.0000      -0.772191       -21.0124
  34   2.0000      -0.701715       -19.0946
  35   2.0000      -0.696867       -18.9627
  36   2.0000      -0.692348       -18.8397
  37   2.0000      -0.657150       -17.8820
  38   2.0000      -0.641670       -17.4607
  39   2.0000      -0.626922       -17.0594
  40   2.0000      -0.604006       -16.4358
  41   2.0000      -0.574202       -15.6248
  42   2.0000      -0.558624       -15.2009
  43   2.0000      -0.548947       -14.9376
  44   2.0000      -0.532896       -14.5008
  45   2.0000      -0.525554       -14.3011
  46   2.0000      -0.522726       -14.2241
  47   2.0000      -0.511646       -13.9226
  48   2.0000      -0.508777       -13.8445
  49   2.0000      -0.501417       -13.6443
  50   2.0000      -0.495224       -13.4757
  51   2.0000      -0.478662       -13.0251
  52   2.0000      -0.470487       -12.8026
  53   2.0000      -0.464097       -12.6287
  54   2.0000      -0.458246       -12.4695
  55   2.0000      -0.453015       -12.3272
  56   2.0000      -0.443494       -12.0681
  57   2.0000      -0.433092       -11.7850
  58   2.0000      -0.429367       -11.6837
  59   2.0000      -0.423489       -11.5237
  60   2.0000      -0.421016       -11.4564
  61   2.0000      -0.417424       -11.3587
  62   2.0000      -0.401659       -10.9297
  63   2.0000      -0.345659        -9.4059
  64   2.0000      -0.335388        -9.1264
  65   2.0000      -0.326244        -8.8776
  66   2.0000      -0.293853        -7.9961
  67   0.0000       0.030682         0.8349
  68   0.0000       0.071125         1.9354
  69   0.0000       0.103620         2.8196
  70   0.0000       0.114679         3.1206
  71   0.0000       0.131369         3.5747

MULLIKEN ATOMIC CHARGES
-----------------------
   0 S :    0.104292
   1 C :   -0.117616
   2 C :   -0.079943
   3 C :    0.024922
   4 C :   -0.133360
   5 H :    0.017986
   6 C :    0.088333
   7 H :    0.027618
   8 H :    0.006778
   9 C :   -0.104742
  10 H :    0.041771
  11 H :    0.026089
  12 C :   -0.036306
  13 H :    0.028339
  14 H :    0.040679
  15 H :    0.029540
  16 S :    0.098503
  17 C :   -0.097495
  18 C :   -0.040201
  19 C :   -0.019372
  20 C :   -0.148859
  21 H :    0.022504
  22 C :    0.059094
  23 H :    0.007087
  24 H :    0.023737
  25 C :   -0.095058
  26 H :    0.036253
  27 H :    0.044096
  28 C :   -0.046619
  29 H :    0.036556
  30 H :    0.017899
  31 H :    0.028682
  32 H :    0.038353
  33 H :    0.070458
Sum of atomic charges:    0.0000000

LOEWDIN ATOMIC CHARGES
----------------------
   0 S :    0.368700
   1 C :   -0.187134
   2 C :   -0.059822
   3 C :   -0.051926
   4 C :   -0.160510
   5 H :    0.032715
   6 C :   -0.037450
   7 H :    0.030310
   8 H :    0.028849
   9 C :   -0.043579
  10 H :    0.033187
  11 H :    0.023055
  12 C :   -0.065566
  13 H :    0.015620
  14 H :    0.033268
  15 H :    0.029665
  16 S :    0.432300
  17 C :   -0.206391
  18 C :   -0.075634
  19 C :   -0.059235
  20 C :   -0.211346
  21 H :    0.030347
  22 C :   -0.039733
  23 H :    0.032664
  24 H :    0.032043
  25 C :   -0.047615
  26 H :    0.029453
  27 H :    0.033347
  28 C :   -0.073072
  29 H :    0.025845
  30 H :    0.019501
  31 H :    0.027939
  32 H :    0.023975
  33 H :    0.036230

  Mayer bond orders larger than 0.100000
B(  0-S ,  1-C ) :   1.1135 B(  0-S ,  4-C ) :   1.1357 B(  1-C ,  2-C ) :   1.6529
B(  1-C , 32-H ) :   0.9669 B(  2-C ,  3-C ) :   1.1899 B(  2-C ,  6-C ) :   1.0336
B(  3-C ,  4-C ) :   1.6210 B(  3-C ,  5-H ) :   0.9955 B(  4-C , 20-C ) :   1.0029
B(  6-C ,  7-H ) :   0.9372 B(  6-C ,  8-H ) :   0.9298 B(  6-C ,  9-C ) :   1.0730
B(  9-C , 10-H ) :   0.9506 B(  9-C , 11-H ) :   0.9533 B(  9-C , 12-C ) :   1.0815
B( 12-C , 13-H ) :   0.9735 B( 12-C , 14-H ) :   0.9738 B( 12-C , 15-H ) :   0.9733
B( 16-S , 17-C ) :   1.1602 B( 16-S , 20-C ) :   1.1801 B( 17-C , 18-C ) :   1.5848
B( 17-C , 33-H ) :   0.9732 B( 18-C , 19-C ) :   1.2602 B( 18-C , 21-H ) :   0.9848
B( 19-C , 20-C ) :   1.5545 B( 19-C , 22-C ) :   1.0516 B( 22-C , 23-H ) :   0.9283
B( 22-C , 24-H ) :   0.9371 B( 22-C , 25-C ) :   1.0414 B( 25-C , 26-H ) :   0.9585
B( 25-C , 27-H ) :   0.9532 B( 25-C , 28-C ) :   1.0909 B( 28-C , 29-H ) :   0.9714
B( 28-C , 30-H ) :   0.9703 B( 28-C , 31-H ) :   0.9716

Dispersion correction           -0.014680450
FINAL SINGLE POINT ENERGY     -1339.868244118307

DIPOLE MOMENT
-------------
                                X             Y             Z
Electronic contribution:     27.70727      11.25086     -13.89282
Nuclear contribution   :    -28.21103     -11.55360      14.40463
                        -----------------------------------------
Total Dipole Moment    :     -0.50376      -0.30274       0.51181
                        -----------------------------------------
Magnitude (a.u.)       :      0.77934
Magnitude (Debye)      :      1.98093

Rotational constants in cm-1:     0.017771     0.009390     0.007146
Rotational constants in MHz :   532.753661   281.499120   214.232755

                             ****ORCA TERMINATED NORMALLY****
TOTAL RUN TIME: 0 days 0 hours 0 minutes 29 seconds 562 msec
