                         Program Version 4.2.1 -  RELEASE  -
|  1> ! wB97X-D3 SP def2-SVP
|  2> %pal
|  3> nprocs 16
|  4> end
|  5>
|  6> * xyz 0 1
|  7> S 	 -72.1702 	 51.649 	 138.889
|  8> C 	 -71.6362 	 53.1046 	 139.728
|  9> C 	 -72.4942 	 54.1792 	 139.569
| 10> C 	 -73.6457 	 53.7487 	 138.845
| 11> C 	 -73.6496 	 52.4531 	 138.407
| 12> H 	 -74.5057 	 54.3624 	 138.636
| 13> C 	 -72.3766 	 55.5115 	 140.13
| 14> H 	 -72.3597 	 56.3373 	 139.45
| 15> H 	 -71.4875 	 55.6141 	 140.805
| 16> C 	 -73.5689 	 55.8466 	 141.066
| 17> H 	 -74.5316 	 55.87 	 140.532
| 18> H 	 -73.6923 	 55.0649 	 141.805
| 19> C 	 -73.4459 	 57.247 	 141.678
| 20> H 	 -73.4346 	 58.0148 	 140.838
| 21> H 	 -74.2832 	 57.3688 	 142.316
| 22> H 	 -72.508 	 57.3866 	 142.241
| 23> S 	 -73.9251 	 51.0249 	 136.027
| 24> C 	 -75.5571 	 50.447 	 135.623
| 25> C 	 -76.4548 	 50.9094 	 136.498
| 26> C 	 -75.9059 	 51.7879 	 137.477
| 27> C 	 -74.5389 	 51.8186 	 137.473
| 28> H 	 -77.4897 	 50.6156 	 136.464
| 29> C 	 -76.7961 	 52.2501 	 138.55
| 30> H 	 -77.6929 	 52.2878 	 137.891
| 31> H 	 -76.6336 	 53.2967 	 138.885
| 32> C 	 -76.8441 	 51.2779 	 139.758
| 33> H 	 -77.5052 	 51.7151 	 140.495
| 34> H 	 -75.8724 	 51.2525 	 140.149
| 35> C 	 -77.403 	 49.8849 	 139.266
| 36> H 	 -76.636 	 49.3737 	 138.71
| 37> H 	 -78.369 	 50.0159 	 138.689
| 38> H 	 -77.6517 	 49.2298 	 140.095
| 39> H 	 -70.5892 	 53.3182 	 140.003
| 40> H 	 -75.8216 	 49.6601 	 134.983
| 41> *
| 42>
| 43>                          ****END OF INPUT****

CARTESIAN COORDINATES (ANGSTROEM)
---------------------------------
  S    -72.170200   51.649000  138.889000
  C    -71.636200   53.104600  139.728000
  C    -72.494200   54.179200  139.569000
  C    -73.645700   53.748700  138.845000
  C    -73.649600   52.453100  138.407000
  H    -74.505700   54.362400  138.636000
  C    -72.376600   55.511500  140.130000
  H    -72.359700   56.337300  139.450000
  H    -71.487500   55.614100  140.805000
  C    -73.568900   55.846600  141.066000
  H    -74.531600   55.870000  140.532000
  H    -73.692300   55.064900  141.805000
  C    -73.445900   57.247000  141.678000
  H    -73.434600   58.014800  140.838000
  H    -74.283200   57.368800  142.316000
  H    -72.508000   57.386600  142.241000
  S    -73.925100   51.024900  136.027000
  C    -75.557100   50.447000  135.623000
  C    -76.454800   50.909400  136.498000
  C    -75.905900   51.787900  137.477000
  C    -74.538900   51.818600  137.473000
  H    -77.489700   50.615600  136.464000
  C    -76.796100   52.250100  138.550000
  H    -77.692900   52.287800  137.891000
  H    -76.633600   53.296700  138.885000
  C    -76.844100   51.277900  139.758000
  H    -77.505200   51.715100  140.495000
  H    -75.872400   51.252500  140.149000
  C    -77.403000   49.884900  139.266000
  H    -76.636000   49.373700  138.710000
  H    -78.369000   50.015900  138.689000
  H    -77.651700   49.229800  140.095000
  H    -70.589200   53.318200  140.003000
  H    -75.821600   49.660100  134.983000

 Total Charge           Charge          ....    0
 Multiplicity           Mult            ....    1
 Number of Electrons    NEL             ....  134
 Basis Dimension        Dim             ....  322

ORBITAL ENERGIES
----------------

  NO   OCC          E(Eh)            E(eV)
   0   2.0000     -88.967038     -2420.9162
   1   2.0000     -88.963017     -2420.8068
   2   2.0000     -10.327029      -281.0127
   3   2.0000     -10.322238      -280.8824
   4   2.0000     -10.315281      -280.6931
   5   2.0000     -10.309152      -280.5263
   6   2.0000     -10.300353      -280.2868
   7   2.0000     -10.293217      -280.0927
   8   2.0000     -10.291767      -280.0532
   9   2.0000     -10.291318      -280.0410
  10   2.0000     -10.288453      -279.9630
  11   2.0000     -10.287964      -279.9497
  12   2.0000     -10.286285      -279.9040
  13   2.0000     -10.285649      -279.8867
  14   2.0000     -10.283935      -279.8401
  15   2.0000     -10.280983      -279.7598
  16   2.0000      -8.081574      -219.9108
  17   2.0000      -8.077331      -219.7954
  18   2.0000      -6.040054      -164.3582
  19   2.0000      -6.036170      -164.2525
  20   2.0000      -6.036045      -164.2491
  21   2.0000      -6.032309      -164.1475
  22   2.0000      -6.031949      -164.1377
  23   2.0000      -6.027828      -164.0255
  24   2.0000      -1.010738       -27.5036
  25   2.0000      -0.987811       -26.8797
  26   2.0000      -0.920305       -25.0428
  27   2.0000      -0.910054       -24.7638
  28   2.0000      -0.875419       -23.8214
  29   2.0000      -0.850772       -23.1507
  30   2.0000      -0.841038       -22.8858
  31   2.0000      -0.818976       -22.2855
  32   2.0000      -0.783079       -21.3087
  33   2.0000      -0.770628       -20.9699
  34   2.0000      -0.719602       -19.5814
  35   2.0000      -0.701098       -19.0778
  36   2.0000      -0.690924       -18.8010
  37   2.0000      -0.665092       -18.0981
  38   2.0000      -0.644741       -17.5443
  39   2.0000      -0.623244       -16.9593
  40   2.0000      -0.591456       -16.0943
  41   2.0000      -0.580457       -15.7951
  42   2.0000      -0.564570       -15.3627
  43   2.0000      -0.552718       -15.0402
  44   2.0000      -0.540733       -14.7141
  45   2.0000      -0.528628       -14.3847
  46   2.0000      -0.521021       -14.1777
  47   2.0000      -0.506988       -13.7959
  48   2.0000      -0.501211       -13.6387
  49   2.0000      -0.500362       -13.6155
  50   2.0000      -0.489140       -13.3102
  51   2.0000      -0.479719       -13.0538
  52   2.0000      -0.468374       -12.7451
  53   2.0000      -0.463161       -12.6032
  54   2.0000      -0.461256       -12.5514
  55   2.0000      -0.448926       -12.2159
  56   2.0000      -0.447215       -12.1693
  57   2.0000      -0.436834       -11.8868
  58   2.0000      -0.433792       -11.8041
  59   2.0000      -0.429191       -11.6789
  60   2.0000      -0.424078       -11.5397
  61   2.0000      -0.419835       -11.4243
  62   2.0000      -0.409851       -11.1526
  63   2.0000      -0.349924        -9.5219
  64   2.0000      -0.330084        -8.9820
  65   2.0000      -0.329735        -8.9725
  66   2.0000      -0.292547        -7.9606
  67   0.0000       0.024523         0.6673
  68   0.0000       0.073253         1.9933
  69   0.0000       0.112817         3.0699
  70   0.0000       0.121797         3.3143
  71   0.0000       0.124325         3.3830

MULLIKEN ATOMIC CHARGES
-----------------------
   0 S :    0.103490
   1 C :   -0.117322
   2 C :   -0.066520
   3 C :    0.027101
   4 C :   -0.159416
   5 H :    0.002806
   6 C :    0.085120
   7 H :    0.023603
   8 H :    0.022509
   9 C :   -0.134615
  10 H :    0.030615
  11 H :    0.032330
  12 C :   -0.040868
  13 H :    0.036300
  14 H :    0.035359
  15 H :    0.033652
  16 S :    0.098410
  17 C :   -0.052829
  18 C :   -0.047656
  19 C :   -0.041869
  20 C :   -0.137116
  21 H :    0.015071
  22 C :    0.004141
  23 H :    0.024400
  24 H :    0.025422
  25 C :    0.002481
  26 H :    0.029228
  27 H :    0.030445
  28 C :   -0.085014
  29 H :    0.055552
  30 H :    0.036897
  31 H :    0.032156
  32 H :    0.059617
  33 H :    0.036518
Sum of atomic charges:    0.0000000

LOEWDIN ATOMIC CHARGES
----------------------
   0 S :    0.399272
   1 C :   -0.200343
   2 C :   -0.062978
   3 C :   -0.054731
   4 C :   -0.190564
   5 H :    0.026510
   6 C :   -0.033376
   7 H :    0.029009
   8 H :    0.035854
   9 C :   -0.038773
  10 H :    0.022193
  11 H :    0.021418
  12 C :   -0.063815
  13 H :    0.031322
  14 H :    0.023138
  15 H :    0.024102
  16 S :    0.381470
  17 C :   -0.169915
  18 C :   -0.065265
  19 C :   -0.066133
  20 C :   -0.194250
  21 H :    0.030940
  22 C :   -0.042221
  23 H :    0.033962
  24 H :    0.027401
  25 C :   -0.019866
  26 H :    0.022757
  27 H :    0.021352
  28 C :   -0.066752
  29 H :    0.027207
  30 H :    0.029766
  31 H :    0.023672
  32 H :    0.034090
  33 H :    0.023544

  Mayer bond orders larger than 0.100000
B(  0-S ,  1-C ) :   1.1315 B(  0-S ,  4-C ) :   1.1338 B(  1-C ,  2-C ) :   1.6285
B(  1-C , 32-H ) :   0.9518 B(  2-C ,  3-C ) :   1.2261 B(  2-C ,  6-C ) :   1.0532
B(  3-C ,  4-C ) :   1.5911 B(  3-C ,  5-H ) :   0.9911 B(  4-C , 20-C ) :   1.0618
B(  6-C ,  7-H ) :   0.9267 B(  6-C ,  8-H ) :   0.9420 B(  6-C ,  9-C ) :   1.0534
B(  9-C , 10-H ) :   0.9516 B(  9-C , 11-H ) :   0.9573 B(  9-C , 12-C ) :   1.0857
B( 12-C , 13-H ) :   0.9719 B( 12-C , 14-H ) :   0.9734 B( 12-C , 15-H ) :   0.9750
B( 16-S , 17-C ) :   1.1205 B( 16-S , 20-C ) :   1.1244 B( 17-C , 18-C ) :   1.6637
B( 17-C , 33-H ) :   0.9637 B( 18-C , 19-C ) :   1.2259 B( 18-C , 21-H ) :   0.9807
B( 19-C , 20-C ) :   1.5995 B( 19-C , 22-C ) :   1.0443 B( 22-C , 23-H ) :   0.9415
B( 22-C , 24-H ) :   0.9317 B( 22-C , 25-C ) :   1.0568 B( 25-C , 26-H ) :   0.9583
B( 25-C , 27-H ) :   0.9556 B( 25-C , 28-C ) :   1.0734 B( 28-C , 29-H ) :   0.9698
B( 28-C , 30-H ) :   0.9738 B( 28-C , 31-H ) :   0.9733

Dispersion correction           -0.014921912
FINAL SINGLE POINT ENERGY     -1339.873101321062

DIPOLE MOMENT
-------------
                                X             Y             Z
Electronic contribution:     13.59873     -14.03994     -17.49543
Nuclear contribution   :    -14.03939      14.40577      17.85698
                        -----------------------------------------
Total Dipole Moment    :     -0.44066       0.36583       0.36155
                        -----------------------------------------
Magnitude (a.u.)       :      0.67729
Magnitude (Debye)      :      1.72154

Rotational constants in cm-1:     0.021034     0.008457     0.007024
Rotational constants in MHz :   630.568517   253.539420   210.573037

                             ****ORCA TERMINATED NORMALLY****
TOTAL RUN TIME: 0 days 0 hours 0 minutes 36 seconds 208 msec
