                         Program Version 4.2.1 -  RELEASE  -
|  1> ! wB97X-D3 SP def2-SVP
|  2> %pal
|  3> nprocs 16
|  4> end
|  5>
|  6> * xyz 0 1
|  7> S 	 -2.04282 	 -16.6741 	 90.1094
|  8> C 	 -1.90877 	 -15.377 	 88.8663
|  9> C 	 -1.06188 	 -15.6976 	 87.8298
| 10> C 	 -0.492909 	 -17.0096 	 88.1252
| 11> C 	 -0.865703 	 -17.6506 	 89.2717
| 12> H 	 0.242346 	 -17.4997 	 87.5045
| 13> C 	 -0.647924 	 -14.8137 	 86.6376
| 14> H 	 -0.134309 	 -13.9388 	 87.0771
| 15> H 	 -1.54492 	 -14.4206 	 86.2553
| 16> C 	 0.208619 	 -15.377 	 85.5092
| 17> H 	 0.99773 	 -15.9663 	 85.9795
| 18> H 	 -0.446711 	 -16.0887 	 84.9188
| 19> C 	 0.746848 	 -14.1684 	 84.737
| 20> H 	 -0.0910822 	 -13.5876 	 84.3909
| 21> H 	 1.49212 	 -13.6204 	 85.3542
| 22> H 	 1.19993 	 -14.4843 	 83.8098
| 23> S 	 -0.504578 	 -19.1485 	 91.5677
| 24> C 	 0.122661 	 -20.8303 	 91.4033
| 25> C 	 0.411506 	 -21.1037 	 90.1002
| 26> C 	 -0.0012141 	 -20.0887 	 89.1485
| 27> C 	 -0.396758 	 -18.8946 	 89.8377
| 28> H 	 0.791556 	 -22.0953 	 89.9159
| 29> C 	 0.0323998 	 -20.4483 	 87.7122
| 30> H 	 -0.762703 	 -19.8643 	 87.21
| 31> H 	 -0.14453 	 -21.4725 	 87.478
| 32> C 	 1.39945 	 -20.1537 	 86.9961
| 33> H 	 2.13 	 -20.7444 	 87.5203
| 34> H 	 1.65921 	 -19.1445 	 87.1391
| 35> C 	 1.33344 	 -20.602 	 85.5338
| 36> H 	 0.943316 	 -21.5863 	 85.3366
| 37> H 	 2.32462 	 -20.7003 	 85.0838
| 38> H 	 0.667673 	 -19.8304 	 85.0351
| 39> H 	 -2.37447 	 -14.4829 	 88.8681
| 40> H 	 0.416411 	 -21.4193 	 92.2318
| 41> *
| 42>
| 43>                          ****END OF INPUT****

CARTESIAN COORDINATES (ANGSTROEM)
---------------------------------
  S     -2.042820  -16.674100   90.109400
  C     -1.908770  -15.377000   88.866300
  C     -1.061880  -15.697600   87.829800
  C     -0.492909  -17.009600   88.125200
  C     -0.865703  -17.650600   89.271700
  H      0.242346  -17.499700   87.504500
  C     -0.647924  -14.813700   86.637600
  H     -0.134309  -13.938800   87.077100
  H     -1.544920  -14.420600   86.255300
  C      0.208619  -15.377000   85.509200
  H      0.997730  -15.966300   85.979500
  H     -0.446711  -16.088700   84.918800
  C      0.746848  -14.168400   84.737000
  H     -0.091082  -13.587600   84.390900
  H      1.492120  -13.620400   85.354200
  H      1.199930  -14.484300   83.809800
  S     -0.504578  -19.148500   91.567700
  C      0.122661  -20.830300   91.403300
  C      0.411506  -21.103700   90.100200
  C     -0.001214  -20.088700   89.148500
  C     -0.396758  -18.894600   89.837700
  H      0.791556  -22.095300   89.915900
  C      0.032400  -20.448300   87.712200
  H     -0.762703  -19.864300   87.210000
  H     -0.144530  -21.472500   87.478000
  C      1.399450  -20.153700   86.996100
  H      2.130000  -20.744400   87.520300
  H      1.659210  -19.144500   87.139100
  C      1.333440  -20.602000   85.533800
  H      0.943316  -21.586300   85.336600
  H      2.324620  -20.700300   85.083800
  H      0.667673  -19.830400   85.035100
  H     -2.374470  -14.482900   88.868100
  H      0.416411  -21.419300   92.231800

 Total Charge           Charge          ....    0
 Multiplicity           Mult            ....    1
 Number of Electrons    NEL             ....  134
 Basis Dimension        Dim             ....  322

ORBITAL ENERGIES
----------------

  NO   OCC          E(Eh)            E(eV)
   0   2.0000     -88.966684     -2420.9065
   1   2.0000     -88.963823     -2420.8287
   2   2.0000     -10.335032      -281.2305
   3   2.0000     -10.326962      -281.0109
   4   2.0000     -10.316902      -280.7372
   5   2.0000     -10.309533      -280.5366
   6   2.0000     -10.307908      -280.4924
   7   2.0000     -10.305537      -280.4279
   8   2.0000     -10.295799      -280.1629
   9   2.0000     -10.294232      -280.1203
  10   2.0000     -10.293435      -280.0986
  11   2.0000     -10.291589      -280.0484
  12   2.0000     -10.290400      -280.0160
  13   2.0000     -10.284481      -279.8550
  14   2.0000     -10.284420      -279.8533
  15   2.0000     -10.283853      -279.8379
  16   2.0000      -8.080610      -219.8846
  17   2.0000      -8.077914      -219.8112
  18   2.0000      -6.039289      -164.3374
  19   2.0000      -6.036697      -164.2669
  20   2.0000      -6.035287      -164.2285
  21   2.0000      -6.032531      -164.1535
  22   2.0000      -6.031186      -164.1169
  23   2.0000      -6.028408      -164.0413
  24   2.0000      -1.002015       -27.2662
  25   2.0000      -0.976432       -26.5701
  26   2.0000      -0.917563       -24.9681
  27   2.0000      -0.910933       -24.7877
  28   2.0000      -0.874919       -23.8078
  29   2.0000      -0.850303       -23.1379
  30   2.0000      -0.840422       -22.8691
  31   2.0000      -0.817943       -22.2574
  32   2.0000      -0.783167       -21.3111
  33   2.0000      -0.771273       -20.9874
  34   2.0000      -0.715953       -19.4821
  35   2.0000      -0.704366       -19.1668
  36   2.0000      -0.694944       -18.9104
  37   2.0000      -0.661720       -18.0063
  38   2.0000      -0.643292       -17.5049
  39   2.0000      -0.618430       -16.8283
  40   2.0000      -0.599644       -16.3171
  41   2.0000      -0.579057       -15.7569
  42   2.0000      -0.572865       -15.5884
  43   2.0000      -0.566180       -15.4065
  44   2.0000      -0.527609       -14.3570
  45   2.0000      -0.526620       -14.3301
  46   2.0000      -0.514911       -14.0114
  47   2.0000      -0.506681       -13.7875
  48   2.0000      -0.503121       -13.6906
  49   2.0000      -0.502434       -13.6719
  50   2.0000      -0.497384       -13.5345
  51   2.0000      -0.478683       -13.0256
  52   2.0000      -0.469870       -12.7858
  53   2.0000      -0.463595       -12.6151
  54   2.0000      -0.458760       -12.4835
  55   2.0000      -0.455710       -12.4005
  56   2.0000      -0.445511       -12.1230
  57   2.0000      -0.436181       -11.8691
  58   2.0000      -0.432865       -11.7789
  59   2.0000      -0.429547       -11.6886
  60   2.0000      -0.427845       -11.6422
  61   2.0000      -0.417861       -11.3706
  62   2.0000      -0.415064       -11.2945
  63   2.0000      -0.357295        -9.7225
  64   2.0000      -0.330166        -8.9843
  65   2.0000      -0.326911        -8.8957
  66   2.0000      -0.283039        -7.7019
  67   0.0000       0.019986         0.5439
  68   0.0000       0.081984         2.2309
  69   0.0000       0.096965         2.6386
  70   0.0000       0.119986         3.2650
  71   0.0000       0.127102         3.4586

MULLIKEN ATOMIC CHARGES
-----------------------
   0 S :    0.095005
   1 C :   -0.080759
   2 C :   -0.059561
   3 C :   -0.011707
   4 C :   -0.108385
   5 H :   -0.031065
   6 C :    0.051617
   7 H :    0.038761
   8 H :    0.016559
   9 C :   -0.096365
  10 H :    0.039560
  11 H :    0.044564
  12 C :   -0.026124
  13 H :    0.028689
  14 H :    0.051652
  15 H :    0.026030
  16 S :    0.089329
  17 C :   -0.084723
  18 C :   -0.017806
  19 C :   -0.035687
  20 C :   -0.116402
  21 H :    0.019472
  22 C :    0.038407
  23 H :    0.029416
  24 H :    0.013449
  25 C :   -0.053256
  26 H :    0.014531
  27 H :    0.024742
  28 C :   -0.042664
  29 H :    0.024627
  30 H :    0.035967
  31 H :    0.041333
  32 H :   -0.009583
  33 H :    0.050377
Sum of atomic charges:   -0.0000000

LOEWDIN ATOMIC CHARGES
----------------------
   0 S :    0.379356
   1 C :   -0.164997
   2 C :   -0.050755
   3 C :   -0.073047
   4 C :   -0.190500
   5 H :    0.020030
   6 C :   -0.033186
   7 H :    0.038040
   8 H :    0.024663
   9 C :   -0.042909
  10 H :    0.022532
  11 H :    0.031756
  12 C :   -0.059167
  13 H :    0.025934
  14 H :    0.034841
  15 H :    0.024204
  16 S :    0.379760
  17 C :   -0.163987
  18 C :   -0.063436
  19 C :   -0.050273
  20 C :   -0.192545
  21 H :    0.031958
  22 C :   -0.033134
  23 H :    0.032074
  24 H :    0.027077
  25 C :   -0.029231
  26 H :    0.019228
  27 H :    0.013268
  28 C :   -0.068759
  29 H :    0.022128
  30 H :    0.028090
  31 H :    0.034297
  32 H :    0.003119
  33 H :    0.023576

  Mayer bond orders larger than 0.100000
B(  0-S ,  1-C ) :   1.1171 B(  0-S ,  4-C ) :   1.1167 B(  1-C ,  2-C ) :   1.6534
B(  1-C , 32-H ) :   0.9797 B(  2-C ,  3-C ) :   1.2166 B(  2-C ,  6-C ) :   0.9893
B(  3-C ,  4-C ) :   1.6059 B(  3-C ,  5-H ) :   0.9906 B(  4-C , 20-C ) :   1.0850
B(  6-C ,  7-H ) :   0.9438 B(  6-C ,  8-H ) :   0.9305 B(  6-C ,  9-C ) :   1.0699
B(  9-C , 10-H ) :   0.9499 B(  9-C , 11-H ) :   0.9546 B(  9-C , 12-C ) :   1.0833
B( 12-C , 13-H ) :   0.9720 B( 12-C , 14-H ) :   0.9739 B( 12-C , 15-H ) :   0.9709
B( 16-S , 17-C ) :   1.1212 B( 16-S , 20-C ) :   1.1362 B( 17-C , 18-C ) :   1.6516
B( 17-C , 33-H ) :   0.9689 B( 18-C , 19-C ) :   1.2146 B( 18-C , 21-H ) :   0.9851
B( 19-C , 20-C ) :   1.5532 B( 19-C , 22-C ) :   1.0659 B( 22-C , 23-H ) :   0.9262
B( 22-C , 24-H ) :   0.9369 B( 22-C , 25-C ) :   1.0555 B( 25-C , 26-H ) :   0.9511
B( 25-C , 27-H ) :   0.9554 B( 25-C , 28-C ) :   1.0800 B( 28-C , 29-H ) :   0.9722
B( 28-C , 30-H ) :   0.9732 B( 28-C , 31-H ) :   0.9744

Dispersion correction           -0.013903064
FINAL SINGLE POINT ENERGY     -1339.870400904132

DIPOLE MOMENT
-------------
                                X             Y             Z
Electronic contribution:    -12.46158      -2.55086      31.31810
Nuclear contribution   :     12.87836       2.44413     -32.08620
                        -----------------------------------------
Total Dipole Moment    :      0.41678      -0.10672      -0.76810
                        -----------------------------------------
Magnitude (a.u.)       :      0.88038
Magnitude (Debye)      :      2.23775

Rotational constants in cm-1:     0.016761     0.009510     0.006343
Rotational constants in MHz :   502.476119   285.097791   190.157616

                             ****ORCA TERMINATED NORMALLY****
TOTAL RUN TIME: 0 days 0 hours 0 minutes 33 seconds 920 msec
