                         Program Version 4.2.1 -  RELEASE  -
|  1> ! wB97X-D3 SP def2-SVP
|  2> %pal
|  3> nprocs 16
|  4> end
|  5>
|  6> * xyz 0 1
|  7> S 	 67.2429 	 15.6297 	 75.2534
|  8> C 	 65.9052 	 16.3312 	 74.3314
|  9> C 	 66.0528 	 17.6475 	 74.0514
| 10> C 	 67.289 	 18.1518 	 74.5184
| 11> C 	 68.1079 	 17.157 	 75.0193
| 12> H 	 67.685 	 19.1335 	 74.5597
| 13> C 	 65.2 	 18.6533 	 73.2279
| 14> H 	 64.3335 	 18.017 	 73.1989
| 15> H 	 65.6336 	 18.5764 	 72.2463
| 16> C 	 64.985 	 20.0336 	 73.9144
| 17> H 	 65.8993 	 20.6643 	 74.0886
| 18> H 	 64.4654 	 20.5882 	 73.1199
| 19> C 	 64.1256 	 19.8954 	 75.1622
| 20> H 	 64.6594 	 19.2545 	 75.8484
| 21> H 	 63.9613 	 20.8864 	 75.6221
| 22> H 	 63.1467 	 19.4765 	 74.9412
| 23> S 	 70.625 	 16.1084 	 74.5762
| 24> C 	 71.9946 	 16.5341 	 75.5753
| 25> C 	 71.615 	 17.6527 	 76.3315
| 26> C 	 70.2424 	 18.0115 	 76.3042
| 27> C 	 69.5234 	 17.1628 	 75.4803
| 28> H 	 72.3742 	 18.0918 	 76.8616
| 29> C 	 69.6482 	 19.2236 	 76.9976
| 30> H 	 68.6694 	 19.3366 	 76.6128
| 31> H 	 70.2007 	 20.1629 	 76.8268
| 32> C 	 69.5054 	 19.2481 	 78.4939
| 33> H 	 69.1957 	 20.2713 	 78.7463
| 34> H 	 70.4516 	 19.1094 	 78.9137
| 35> C 	 68.5176 	 18.1881 	 79.0232
| 36> H 	 68.961 	 17.1823 	 78.6308
| 37> H 	 67.5425 	 18.3979 	 78.5657
| 38> H 	 68.4486 	 18.1597 	 80.1216
| 39> H 	 65.1782 	 15.8005 	 73.8509
| 40> H 	 73.0409 	 16.1317 	 75.5847
| 41> *
| 42>
| 43>                          ****END OF INPUT****

CARTESIAN COORDINATES (ANGSTROEM)
---------------------------------
  S     67.242900   15.629700   75.253400
  C     65.905200   16.331200   74.331400
  C     66.052800   17.647500   74.051400
  C     67.289000   18.151800   74.518400
  C     68.107900   17.157000   75.019300
  H     67.685000   19.133500   74.559700
  C     65.200000   18.653300   73.227900
  H     64.333500   18.017000   73.198900
  H     65.633600   18.576400   72.246300
  C     64.985000   20.033600   73.914400
  H     65.899300   20.664300   74.088600
  H     64.465400   20.588200   73.119900
  C     64.125600   19.895400   75.162200
  H     64.659400   19.254500   75.848400
  H     63.961300   20.886400   75.622100
  H     63.146700   19.476500   74.941200
  S     70.625000   16.108400   74.576200
  C     71.994600   16.534100   75.575300
  C     71.615000   17.652700   76.331500
  C     70.242400   18.011500   76.304200
  C     69.523400   17.162800   75.480300
  H     72.374200   18.091800   76.861600
  C     69.648200   19.223600   76.997600
  H     68.669400   19.336600   76.612800
  H     70.200700   20.162900   76.826800
  C     69.505400   19.248100   78.493900
  H     69.195700   20.271300   78.746300
  H     70.451600   19.109400   78.913700
  C     68.517600   18.188100   79.023200
  H     68.961000   17.182300   78.630800
  H     67.542500   18.397900   78.565700
  H     68.448600   18.159700   80.121600
  H     65.178200   15.800500   73.850900
  H     73.040900   16.131700   75.584700

 Total Charge           Charge          ....    0
 Multiplicity           Mult            ....    1
 Number of Electrons    NEL             ....  134
 Basis Dimension        Dim             ....  322

ORBITAL ENERGIES
----------------

  NO   OCC          E(Eh)            E(eV)
   0   2.0000     -88.964652     -2420.8513
   1   2.0000     -88.964461     -2420.8461
   2   2.0000     -10.330563      -281.1089
   3   2.0000     -10.328412      -281.0504
   4   2.0000     -10.322620      -280.8928
   5   2.0000     -10.304347      -280.3955
   6   2.0000     -10.303702      -280.3780
   7   2.0000     -10.299029      -280.2508
   8   2.0000     -10.296084      -280.1707
   9   2.0000     -10.295480      -280.1543
  10   2.0000     -10.288816      -279.9729
  11   2.0000     -10.287963      -279.9497
  12   2.0000     -10.286116      -279.8995
  13   2.0000     -10.280304      -279.7413
  14   2.0000     -10.280056      -279.7345
  15   2.0000     -10.276890      -279.6484
  16   2.0000      -8.078892      -219.8378
  17   2.0000      -8.078702      -219.8327
  18   2.0000      -6.037501      -164.2888
  19   2.0000      -6.037238      -164.2816
  20   2.0000      -6.033502      -164.1799
  21   2.0000      -6.033361      -164.1761
  22   2.0000      -6.029645      -164.0750
  23   2.0000      -6.029239      -164.0639
  24   2.0000      -1.003961       -27.3192
  25   2.0000      -0.983334       -26.7579
  26   2.0000      -0.913525       -24.8583
  27   2.0000      -0.911423       -24.8011
  28   2.0000      -0.866714       -23.5845
  29   2.0000      -0.848158       -23.0795
  30   2.0000      -0.842060       -22.9136
  31   2.0000      -0.815109       -22.1802
  32   2.0000      -0.783724       -21.3262
  33   2.0000      -0.774647       -21.0792
  34   2.0000      -0.711404       -19.3583
  35   2.0000      -0.698404       -19.0046
  36   2.0000      -0.693355       -18.8672
  37   2.0000      -0.656134       -17.8543
  38   2.0000      -0.644501       -17.5378
  39   2.0000      -0.621503       -16.9119
  40   2.0000      -0.597835       -16.2679
  41   2.0000      -0.564913       -15.3721
  42   2.0000      -0.561023       -15.2662
  43   2.0000      -0.551654       -15.0113
  44   2.0000      -0.541233       -14.7277
  45   2.0000      -0.535108       -14.5610
  46   2.0000      -0.526397       -14.3240
  47   2.0000      -0.513124       -13.9628
  48   2.0000      -0.500456       -13.6181
  49   2.0000      -0.495036       -13.4706
  50   2.0000      -0.488759       -13.2998
  51   2.0000      -0.472866       -12.8673
  52   2.0000      -0.466747       -12.7008
  53   2.0000      -0.464219       -12.6320
  54   2.0000      -0.453291       -12.3347
  55   2.0000      -0.447807       -12.1855
  56   2.0000      -0.442043       -12.0286
  57   2.0000      -0.438936       -11.9441
  58   2.0000      -0.432494       -11.7688
  59   2.0000      -0.431854       -11.7514
  60   2.0000      -0.423550       -11.5254
  61   2.0000      -0.412358       -11.2208
  62   2.0000      -0.405795       -11.0422
  63   2.0000      -0.336368        -9.1530
  64   2.0000      -0.332849        -9.0573
  65   2.0000      -0.325374        -8.8539
  66   2.0000      -0.298943        -8.1346
  67   0.0000       0.027225         0.7408
  68   0.0000       0.068329         1.8593
  69   0.0000       0.108269         2.9462
  70   0.0000       0.108939         2.9644
  71   0.0000       0.131983         3.5914

MULLIKEN ATOMIC CHARGES
-----------------------
   0 S :    0.112020
   1 C :   -0.084958
   2 C :   -0.136476
   3 C :    0.057541
   4 C :   -0.184612
   5 H :    0.001798
   6 C :    0.100592
   7 H :    0.006354
   8 H :    0.048781
   9 C :   -0.091983
  10 H :    0.048236
  11 H :    0.033302
  12 C :   -0.037437
  13 H :    0.043434
  14 H :    0.038279
  15 H :    0.034086
  16 S :    0.111071
  17 C :   -0.112815
  18 C :   -0.030463
  19 C :    0.006125
  20 C :   -0.169967
  21 H :   -0.017386
  22 C :    0.086569
  23 H :   -0.012938
  24 H :    0.034053
  25 C :   -0.048122
  26 H :    0.021386
  27 H :    0.009174
  28 C :   -0.081759
  29 H :    0.053396
  30 H :    0.036095
  31 H :    0.043480
  32 H :    0.003984
  33 H :    0.079161
Sum of atomic charges:    0.0000000

LOEWDIN ATOMIC CHARGES
----------------------
   0 S :    0.389622
   1 C :   -0.186274
   2 C :   -0.064298
   3 C :   -0.059953
   4 C :   -0.177696
   5 H :    0.024601
   6 C :   -0.025433
   7 H :    0.027785
   8 H :    0.035107
   9 C :   -0.044463
  10 H :    0.030651
  11 H :    0.028115
  12 C :   -0.059565
  13 H :    0.026692
  14 H :    0.030016
  15 H :    0.026955
  16 S :    0.405082
  17 C :   -0.196586
  18 C :   -0.065139
  19 C :   -0.057265
  20 C :   -0.198773
  21 H :    0.013503
  22 C :   -0.029682
  23 H :    0.019811
  24 H :    0.039186
  25 C :   -0.038084
  26 H :    0.022931
  27 H :    0.011039
  28 C :   -0.070946
  29 H :    0.039525
  30 H :    0.024630
  31 H :    0.025230
  32 H :    0.007518
  33 H :    0.046157

  Mayer bond orders larger than 0.100000
B(  0-S ,  1-C ) :   1.1150 B(  0-S ,  4-C ) :   1.1531 B(  1-C ,  2-C ) :   1.6765
B(  1-C , 32-H ) :   0.9675 B(  2-C ,  3-C ) :   1.1878 B(  2-C ,  6-C ) :   0.9697
B(  3-C ,  4-C ) :   1.6221 B(  3-C ,  5-H ) :   0.9964 B(  4-C , 20-C ) :   0.9950
B(  6-C ,  7-H ) :   0.9398 B(  6-C ,  8-H ) :   0.9441 B(  6-C ,  9-C ) :   1.0555
B(  9-C , 10-H ) :   0.9551 B(  9-C , 11-H ) :   0.9534 B(  9-C , 12-C ) :   1.0714
B( 12-C , 13-H ) :   0.9754 B( 12-C , 14-H ) :   0.9730 B( 12-C , 15-H ) :   0.9741
B( 16-S , 17-C ) :   1.1532 B( 16-S , 20-C ) :   1.1599 B( 17-C , 18-C ) :   1.5927
B( 17-C , 20-C ) :   0.1072 B( 17-C , 33-H ) :   0.9635 B( 18-C , 19-C ) :   1.2327
B( 18-C , 21-H ) :   1.0037 B( 19-C , 20-C ) :   1.5686 B( 19-C , 22-C ) :   1.0445
B( 22-C , 23-H ) :   0.9225 B( 22-C , 24-H ) :   0.9354 B( 22-C , 25-C ) :   1.0844
B( 25-C , 26-H ) :   0.9516 B( 25-C , 27-H ) :   0.9554 B( 25-C , 28-C ) :   1.0696
B( 28-C , 29-H ) :   0.9732 B( 28-C , 30-H ) :   0.9754 B( 28-C , 31-H ) :   0.9754

Dispersion correction           -0.015082301
FINAL SINGLE POINT ENERGY     -1339.853123643124

DIPOLE MOMENT
-------------
                                X             Y             Z
Electronic contribution:     13.41855     -20.32534      -9.55280
Nuclear contribution   :    -13.49094      21.04603       9.53036
                        -----------------------------------------
Total Dipole Moment    :     -0.07239       0.72069      -0.02244
                        -----------------------------------------
Magnitude (a.u.)       :      0.72467
Magnitude (Debye)      :      1.84196

Rotational constants in cm-1:     0.018968     0.009338     0.007551
Rotational constants in MHz :   568.653717   279.940166   226.359333

                             ****ORCA TERMINATED NORMALLY****
TOTAL RUN TIME: 0 days 0 hours 0 minutes 32 seconds 333 msec
