                         Program Version 4.2.1 -  RELEASE  -
|  1> ! wB97X-D3 SP def2-SVP
|  2> %pal
|  3> nprocs 16
|  4> end
|  5>
|  6> * xyz 0 1
|  7> S 	 45.9525 	 9.53052 	 54.2802
|  8> C 	 44.4308 	 9.85077 	 53.482
|  9> C 	 44.5199 	 10.8244 	 52.5198
| 10> C 	 45.8244 	 11.4322 	 52.4849
| 11> C 	 46.7115 	 10.8468 	 53.4033
| 12> H 	 46.1369 	 12.1709 	 51.7134
| 13> C 	 43.3791 	 11.2452 	 51.6757
| 14> H 	 42.4698 	 11.4838 	 52.3549
| 15> H 	 43.126 	 10.3025 	 51.1899
| 16> C 	 43.588 	 12.322 	 50.5422
| 17> H 	 44.5069 	 12.2042 	 49.9628
| 18> H 	 42.7697 	 12.1784 	 49.8527
| 19> C 	 43.6114 	 13.7083 	 51.2492
| 20> H 	 43.8053 	 14.425 	 50.5196
| 21> H 	 42.6811 	 13.9448 	 51.7389
| 22> H 	 44.3525 	 13.8983 	 51.9818
| 23> S 	 49.2342 	 9.97971 	 54.0969
| 24> C 	 50.6692 	 11.0232 	 53.7852
| 25> C 	 50.2165 	 12.3214 	 53.5345
| 26> C 	 48.7921 	 12.346 	 53.2381
| 27> C 	 48.1164 	 11.1524 	 53.5091
| 28> H 	 50.7892 	 13.2769 	 53.5461
| 29> C 	 47.9978 	 13.6633 	 53.0314
| 30> H 	 48.4431 	 14.4709 	 53.6881
| 31> H 	 46.9959 	 13.6683 	 53.298
| 32> C 	 48.1464 	 14.306 	 51.6471
| 33> H 	 47.692 	 15.2686 	 51.5784
| 34> H 	 47.6261 	 13.6983 	 50.9299
| 35> C 	 49.5965 	 14.581 	 51.3113
| 36> H 	 49.5293 	 15.1416 	 50.3994
| 37> H 	 50.3845 	 13.7277 	 51.1375
| 38> H 	 50.064 	 15.2793 	 52.0249
| 39> H 	 43.5219 	 9.32136 	 53.633
| 40> H 	 51.6721 	 10.8106 	 54.0814
| 41> *
| 42>
| 43>                          ****END OF INPUT****

CARTESIAN COORDINATES (ANGSTROEM)
---------------------------------
  S     45.952500    9.530520   54.280200
  C     44.430800    9.850770   53.482000
  C     44.519900   10.824400   52.519800
  C     45.824400   11.432200   52.484900
  C     46.711500   10.846800   53.403300
  H     46.136900   12.170900   51.713400
  C     43.379100   11.245200   51.675700
  H     42.469800   11.483800   52.354900
  H     43.126000   10.302500   51.189900
  C     43.588000   12.322000   50.542200
  H     44.506900   12.204200   49.962800
  H     42.769700   12.178400   49.852700
  C     43.611400   13.708300   51.249200
  H     43.805300   14.425000   50.519600
  H     42.681100   13.944800   51.738900
  H     44.352500   13.898300   51.981800
  S     49.234200    9.979710   54.096900
  C     50.669200   11.023200   53.785200
  C     50.216500   12.321400   53.534500
  C     48.792100   12.346000   53.238100
  C     48.116400   11.152400   53.509100
  H     50.789200   13.276900   53.546100
  C     47.997800   13.663300   53.031400
  H     48.443100   14.470900   53.688100
  H     46.995900   13.668300   53.298000
  C     48.146400   14.306000   51.647100
  H     47.692000   15.268600   51.578400
  H     47.626100   13.698300   50.929900
  C     49.596500   14.581000   51.311300
  H     49.529300   15.141600   50.399400
  H     50.384500   13.727700   51.137500
  H     50.064000   15.279300   52.024900
  H     43.521900    9.321360   53.633000
  H     51.672100   10.810600   54.081400

 Total Charge           Charge          ....    0
 Multiplicity           Mult            ....    1
 Number of Electrons    NEL             ....  134
 Basis Dimension        Dim             ....  322

ORBITAL ENERGIES
----------------

  NO   OCC          E(Eh)            E(eV)
   0   2.0000     -88.970895     -2421.0211
   1   2.0000     -88.965537     -2420.8753
   2   2.0000     -10.333027      -281.1759
   3   2.0000     -10.327608      -281.0285
   4   2.0000     -10.322478      -280.8889
   5   2.0000     -10.307537      -280.4823
   6   2.0000     -10.305395      -280.4241
   7   2.0000     -10.304702      -280.4052
   8   2.0000     -10.299180      -280.2549
   9   2.0000     -10.298932      -280.2482
  10   2.0000     -10.298697      -280.2418
  11   2.0000     -10.297872      -280.2193
  12   2.0000     -10.287341      -279.9328
  13   2.0000     -10.281937      -279.7857
  14   2.0000     -10.281583      -279.7761
  15   2.0000     -10.271593      -279.5043
  16   2.0000      -8.085188      -220.0092
  17   2.0000      -8.079939      -219.8663
  18   2.0000      -6.043801      -164.4602
  19   2.0000      -6.039803      -164.3514
  20   2.0000      -6.038718      -164.3219
  21   2.0000      -6.035845      -164.2437
  22   2.0000      -6.034535      -164.2080
  23   2.0000      -6.030392      -164.0953
  24   2.0000      -1.006054       -27.3761
  25   2.0000      -0.980785       -26.6885
  26   2.0000      -0.912528       -24.8311
  27   2.0000      -0.909467       -24.7479
  28   2.0000      -0.872515       -23.7423
  29   2.0000      -0.850032       -23.1306
  30   2.0000      -0.840189       -22.8627
  31   2.0000      -0.815872       -22.2010
  32   2.0000      -0.783962       -21.3327
  33   2.0000      -0.772687       -21.0259
  34   2.0000      -0.717520       -19.5247
  35   2.0000      -0.702011       -19.1027
  36   2.0000      -0.690288       -18.7837
  37   2.0000      -0.663318       -18.0498
  38   2.0000      -0.633328       -17.2337
  39   2.0000      -0.622209       -16.9312
  40   2.0000      -0.594197       -16.1689
  41   2.0000      -0.568271       -15.4634
  42   2.0000      -0.557556       -15.1719
  43   2.0000      -0.550148       -14.9703
  44   2.0000      -0.547333       -14.8937
  45   2.0000      -0.531103       -14.4520
  46   2.0000      -0.517808       -14.0903
  47   2.0000      -0.508182       -13.8283
  48   2.0000      -0.500302       -13.6139
  49   2.0000      -0.498515       -13.5653
  50   2.0000      -0.495606       -13.4861
  51   2.0000      -0.482658       -13.1338
  52   2.0000      -0.474380       -12.9085
  53   2.0000      -0.470321       -12.7981
  54   2.0000      -0.457902       -12.4602
  55   2.0000      -0.449540       -12.2326
  56   2.0000      -0.445653       -12.1268
  57   2.0000      -0.435905       -11.8616
  58   2.0000      -0.432013       -11.7557
  59   2.0000      -0.427272       -11.6267
  60   2.0000      -0.421887       -11.4801
  61   2.0000      -0.416308       -11.3283
  62   2.0000      -0.408487       -11.1155
  63   2.0000      -0.358449        -9.7539
  64   2.0000      -0.332537        -9.0488
  65   2.0000      -0.323668        -8.8074
  66   2.0000      -0.279946        -7.6177
  67   0.0000       0.017328         0.4715
  68   0.0000       0.072977         1.9858
  69   0.0000       0.102565         2.7909
  70   0.0000       0.113611         3.0915
  71   0.0000       0.126669         3.4468

MULLIKEN ATOMIC CHARGES
-----------------------
   0 S :    0.119502
   1 C :   -0.115084
   2 C :   -0.060152
   3 C :   -0.022012
   4 C :   -0.108851
   5 H :    0.018162
   6 C :   -0.008139
   7 H :    0.055413
   8 H :    0.035262
   9 C :   -0.046446
  10 H :    0.035650
  11 H :    0.034095
  12 C :   -0.021145
  13 H :    0.014764
  14 H :    0.025451
  15 H :    0.022473
  16 S :    0.087306
  17 C :   -0.081863
  18 C :   -0.024902
  19 C :   -0.059173
  20 C :   -0.112729
  21 H :    0.042506
  22 C :    0.022835
  23 H :    0.024611
  24 H :    0.014622
  25 C :   -0.034695
  26 H :    0.020416
  27 H :    0.021764
  28 C :   -0.096582
  29 H :    0.023340
  30 H :    0.064737
  31 H :    0.025027
  32 H :    0.027067
  33 H :    0.056771
Sum of atomic charges:   -0.0000000

LOEWDIN ATOMIC CHARGES
----------------------
   0 S :    0.408480
   1 C :   -0.199255
   2 C :   -0.062569
   3 C :   -0.066752
   4 C :   -0.186118
   5 H :    0.036277
   6 C :   -0.044515
   7 H :    0.045851
   8 H :    0.034019
   9 C :   -0.030594
  10 H :    0.026141
  11 H :    0.028458
  12 C :   -0.060617
  13 H :    0.017026
  14 H :    0.025471
  15 H :    0.020920
  16 S :    0.393175
  17 C :   -0.177116
  18 C :   -0.059245
  19 C :   -0.062556
  20 C :   -0.198330
  21 H :    0.040401
  22 C :   -0.031884
  23 H :    0.034585
  24 H :    0.014658
  25 C :   -0.038454
  26 H :    0.024335
  27 H :    0.014539
  28 C :   -0.078652
  29 H :    0.023018
  30 H :    0.038649
  31 H :    0.022431
  32 H :    0.022121
  33 H :    0.026104

  Mayer bond orders larger than 0.100000
B(  0-S ,  1-C ) :   1.1242 B(  0-S ,  4-C ) :   1.1506 B(  1-C ,  2-C ) :   1.6194
B(  1-C , 32-H ) :   0.9741 B(  2-C ,  3-C ) :   1.2631 B(  2-C ,  6-C ) :   1.0016
B(  3-C ,  4-C ) :   1.5276 B(  3-C ,  5-H ) :   0.9751 B(  4-C , 20-C ) :   1.1027
B(  6-C ,  7-H ) :   0.9422 B(  6-C ,  8-H ) :   0.9324 B(  6-C ,  9-C ) :   1.0858
B(  9-C , 10-H ) :   0.9561 B(  9-C , 11-H ) :   0.9542 B(  9-C , 12-C ) :   1.0632
B( 12-C , 13-H ) :   0.9727 B( 12-C , 14-H ) :   0.9743 B( 12-C , 15-H ) :   0.9782
B( 16-S , 17-C ) :   1.1324 B( 16-S , 20-C ) :   1.1327 B( 17-C , 18-C ) :   1.5934
B( 17-C , 33-H ) :   0.9713 B( 18-C , 19-C ) :   1.2647 B( 18-C , 21-H ) :   0.9711
B( 19-C , 20-C ) :   1.5703 B( 19-C , 22-C ) :   1.0253 B( 22-C , 23-H ) :   0.9424
B( 22-C , 24-H ) :   0.9465 B( 22-C , 25-C ) :   1.0792 B( 25-C , 26-H ) :   0.9486
B( 25-C , 27-H ) :   0.9446 B( 25-C , 28-C ) :   1.0856 B( 28-C , 29-H ) :   0.9703
B( 28-C , 30-H ) :   0.9658 B( 28-C , 31-H ) :   0.9705

Dispersion correction           -0.015298599
FINAL SINGLE POINT ENERGY     -1339.860221727281

DIPOLE MOMENT
-------------
                                X             Y             Z
Electronic contribution:      8.52348     -24.62643      17.21450
Nuclear contribution   :     -8.86534      25.26804     -17.60425
                        -----------------------------------------
Total Dipole Moment    :     -0.34186       0.64161      -0.38975
                        -----------------------------------------
Magnitude (a.u.)       :      0.82489
Magnitude (Debye)      :      2.09669

Rotational constants in cm-1:     0.017483     0.010807     0.006974
Rotational constants in MHz :   524.140433   323.978047   209.061003

                             ****ORCA TERMINATED NORMALLY****
TOTAL RUN TIME: 0 days 0 hours 0 minutes 34 seconds 936 msec
