                         Program Version 4.2.1 -  RELEASE  -
|  1> ! wB97X-D3 SP def2-SVP
|  2> %pal
|  3> nprocs 16
|  4> end
|  5>
|  6> * xyz 0 1
|  7> S 	 -45.1597 	 64.0205 	 143.335
|  8> C 	 -45.0084 	 62.3556 	 143.751
|  9> C 	 -45.2339 	 61.5356 	 142.646
| 10> C 	 -45.6031 	 62.2735 	 141.495
| 11> C 	 -45.4986 	 63.6299 	 141.697
| 12> H 	 -45.8575 	 61.9416 	 140.476
| 13> C 	 -45.3673 	 60.0054 	 142.614
| 14> H 	 -45.6915 	 59.7602 	 141.636
| 15> H 	 -46.1681 	 59.6702 	 143.295
| 16> C 	 -44.1157 	 59.1123 	 142.816
| 17> H 	 -43.3893 	 59.3375 	 142.047
| 18> H 	 -43.6204 	 59.2364 	 143.803
| 19> C 	 -44.4423 	 57.6299 	 142.617
| 20> H 	 -43.6347 	 56.9187 	 142.41
| 21> H 	 -45.0631 	 57.1873 	 143.408
| 22> H 	 -45.0663 	 57.5871 	 141.751
| 23> S 	 -47.2216 	 65.792 	 141.197
| 24> C 	 -47.0724 	 66.6019 	 139.694
| 25> C 	 -46.114 	 66.0757 	 138.877
| 26> C 	 -45.3847 	 65.0821 	 139.561
| 27> C 	 -45.9189 	 64.6589 	 140.76
| 28> H 	 -45.9076 	 66.4763 	 137.858
| 29> C 	 -44.3085 	 64.2352 	 138.842
| 30> H 	 -43.7264 	 63.6186 	 139.547
| 31> H 	 -43.454 	 64.8829 	 138.465
| 32> C 	 -44.9144 	 63.3597 	 137.59
| 33> H 	 -45.0113 	 63.9907 	 136.732
| 34> H 	 -45.9536 	 63.057 	 137.841
| 35> C 	 -44.0773 	 62.1572 	 137.161
| 36> H 	 -43.1514 	 62.3911 	 136.672
| 37> H 	 -44.6018 	 61.4509 	 136.589
| 38> H 	 -43.8522 	 61.6966 	 138.133
| 39> H 	 -44.7967 	 62.0142 	 144.736
| 40> H 	 -47.8092 	 67.3132 	 139.255
| 41> *
| 42>
| 43>                          ****END OF INPUT****

CARTESIAN COORDINATES (ANGSTROEM)
---------------------------------
  S    -45.159700   64.020500  143.335000
  C    -45.008400   62.355600  143.751000
  C    -45.233900   61.535600  142.646000
  C    -45.603100   62.273500  141.495000
  C    -45.498600   63.629900  141.697000
  H    -45.857500   61.941600  140.476000
  C    -45.367300   60.005400  142.614000
  H    -45.691500   59.760200  141.636000
  H    -46.168100   59.670200  143.295000
  C    -44.115700   59.112300  142.816000
  H    -43.389300   59.337500  142.047000
  H    -43.620400   59.236400  143.803000
  C    -44.442300   57.629900  142.617000
  H    -43.634700   56.918700  142.410000
  H    -45.063100   57.187300  143.408000
  H    -45.066300   57.587100  141.751000
  S    -47.221600   65.792000  141.197000
  C    -47.072400   66.601900  139.694000
  C    -46.114000   66.075700  138.877000
  C    -45.384700   65.082100  139.561000
  C    -45.918900   64.658900  140.760000
  H    -45.907600   66.476300  137.858000
  C    -44.308500   64.235200  138.842000
  H    -43.726400   63.618600  139.547000
  H    -43.454000   64.882900  138.465000
  C    -44.914400   63.359700  137.590000
  H    -45.011300   63.990700  136.732000
  H    -45.953600   63.057000  137.841000
  C    -44.077300   62.157200  137.161000
  H    -43.151400   62.391100  136.672000
  H    -44.601800   61.450900  136.589000
  H    -43.852200   61.696600  138.133000
  H    -44.796700   62.014200  144.736000
  H    -47.809200   67.313200  139.255000

 Total Charge           Charge          ....    0
 Multiplicity           Mult            ....    1
 Number of Electrons    NEL             ....  134
 Basis Dimension        Dim             ....  322

ORBITAL ENERGIES
----------------

  NO   OCC          E(Eh)            E(eV)
   0   2.0000     -88.968988     -2420.9692
   1   2.0000     -88.965189     -2420.8659
   2   2.0000     -10.325035      -280.9585
   3   2.0000     -10.324137      -280.9340
   4   2.0000     -10.315811      -280.7075
   5   2.0000     -10.312841      -280.6267
   6   2.0000     -10.304099      -280.3888
   7   2.0000     -10.301732      -280.3244
   8   2.0000     -10.300800      -280.2990
   9   2.0000     -10.294682      -280.1325
  10   2.0000     -10.293082      -280.0890
  11   2.0000     -10.292790      -280.0810
  12   2.0000     -10.292067      -280.0614
  13   2.0000     -10.288693      -279.9696
  14   2.0000     -10.275887      -279.6211
  15   2.0000     -10.273216      -279.5484
  16   2.0000      -8.084647      -219.9944
  17   2.0000      -8.080206      -219.8736
  18   2.0000      -6.042951      -164.4371
  19   2.0000      -6.038940      -164.3279
  20   2.0000      -6.038612      -164.3190
  21   2.0000      -6.035656      -164.2386
  22   2.0000      -6.034724      -164.2132
  23   2.0000      -6.030991      -164.1116
  24   2.0000      -1.013176       -27.5699
  25   2.0000      -0.990764       -26.9601
  26   2.0000      -0.910127       -24.7658
  27   2.0000      -0.894851       -24.3501
  28   2.0000      -0.871536       -23.7157
  29   2.0000      -0.856272       -23.3004
  30   2.0000      -0.850257       -23.1367
  31   2.0000      -0.814056       -22.1516
  32   2.0000      -0.780655       -21.2427
  33   2.0000      -0.767487       -20.8844
  34   2.0000      -0.704624       -19.1738
  35   2.0000      -0.701740       -19.0953
  36   2.0000      -0.695686       -18.9306
  37   2.0000      -0.657567       -17.8933
  38   2.0000      -0.647183       -17.6108
  39   2.0000      -0.615805       -16.7569
  40   2.0000      -0.592608       -16.1257
  41   2.0000      -0.572003       -15.5650
  42   2.0000      -0.563606       -15.3365
  43   2.0000      -0.554338       -15.0843
  44   2.0000      -0.525850       -14.3091
  45   2.0000      -0.521998       -14.2043
  46   2.0000      -0.518244       -14.1021
  47   2.0000      -0.512955       -13.9582
  48   2.0000      -0.502768       -13.6810
  49   2.0000      -0.499033       -13.5794
  50   2.0000      -0.492398       -13.3988
  51   2.0000      -0.477559       -12.9950
  52   2.0000      -0.470301       -12.7975
  53   2.0000      -0.467694       -12.7266
  54   2.0000      -0.459188       -12.4951
  55   2.0000      -0.449305       -12.2262
  56   2.0000      -0.443738       -12.0747
  57   2.0000      -0.434147       -11.8137
  58   2.0000      -0.427821       -11.6416
  59   2.0000      -0.426472       -11.6049
  60   2.0000      -0.424419       -11.5490
  61   2.0000      -0.421357       -11.4657
  62   2.0000      -0.412566       -11.2265
  63   2.0000      -0.345167        -9.3925
  64   2.0000      -0.333995        -9.0885
  65   2.0000      -0.331826        -9.0295
  66   2.0000      -0.296966        -8.0809
  67   0.0000       0.035096         0.9550
  68   0.0000       0.063859         1.7377
  69   0.0000       0.118446         3.2231
  70   0.0000       0.125942         3.4271
  71   0.0000       0.128254         3.4900

MULLIKEN ATOMIC CHARGES
-----------------------
   0 S :    0.129296
   1 C :   -0.115487
   2 C :   -0.051952
   3 C :    0.010352
   4 C :   -0.159277
   5 H :    0.025289
   6 C :    0.061092
   7 H :   -0.000600
   8 H :    0.042811
   9 C :   -0.062617
  10 H :    0.027955
  11 H :    0.035850
  12 C :   -0.055826
  13 H :    0.040080
  14 H :    0.028640
  15 H :    0.007659
  16 S :    0.110617
  17 C :   -0.091940
  18 C :   -0.049352
  19 C :   -0.022293
  20 C :   -0.166009
  21 H :    0.038543
  22 C :    0.008670
  23 H :    0.031333
  24 H :    0.033582
  25 C :   -0.086815
  26 H :    0.023765
  27 H :    0.038832
  28 C :   -0.020389
  29 H :    0.032847
  30 H :    0.027134
  31 H :    0.019993
  32 H :    0.038034
  33 H :    0.070183
Sum of atomic charges:    0.0000000

LOEWDIN ATOMIC CHARGES
----------------------
   0 S :    0.440811
   1 C :   -0.198884
   2 C :   -0.062848
   3 C :   -0.061090
   4 C :   -0.208411
   5 H :    0.038365
   6 C :   -0.027972
   7 H :    0.022386
   8 H :    0.035295
   9 C :   -0.039628
  10 H :    0.024702
  11 H :    0.023407
  12 C :   -0.071214
  13 H :    0.029092
  14 H :    0.024613
  15 H :    0.018623
  16 S :    0.404699
  17 C :   -0.198065
  18 C :   -0.080258
  19 C :   -0.059024
  20 C :   -0.194846
  21 H :    0.042118
  22 C :   -0.038645
  23 H :    0.026495
  24 H :    0.034193
  25 C :   -0.037504
  26 H :    0.016333
  27 H :    0.025556
  28 C :   -0.061873
  29 H :    0.023647
  30 H :    0.020761
  31 H :    0.026692
  32 H :    0.022261
  33 H :    0.040212

  Mayer bond orders larger than 0.100000
B(  0-S ,  1-C ) :   1.1589 B(  0-S ,  4-C ) :   1.1734 B(  1-C ,  2-C ) :   1.5726
B(  1-C , 32-H ) :   0.9791 B(  2-C ,  3-C ) :   1.2637 B(  2-C ,  6-C ) :   1.0171
B(  3-C ,  4-C ) :   1.5625 B(  3-C ,  5-H ) :   0.9875 B(  4-C , 20-C ) :   1.0285
B(  6-C ,  7-H ) :   0.9380 B(  6-C ,  8-H ) :   0.9456 B(  6-C ,  9-C ) :   1.0613
B(  9-C , 10-H ) :   0.9550 B(  9-C , 11-H ) :   0.9596 B(  9-C , 12-C ) :   1.0765
B( 12-C , 13-H ) :   0.9758 B( 12-C , 14-H ) :   0.9753 B( 12-C , 15-H ) :   0.9711
B( 16-S , 17-C ) :   1.1687 B( 16-S , 20-C ) :   1.1259 B( 17-C , 18-C ) :   1.6164
B( 17-C , 33-H ) :   0.9547 B( 18-C , 19-C ) :   1.2393 B( 18-C , 21-H ) :   0.9853
B( 19-C , 20-C ) :   1.6060 B( 19-C , 22-C ) :   1.0623 B( 22-C , 23-H ) :   0.9451
B( 22-C , 24-H ) :   0.9369 B( 22-C , 25-C ) :   1.0260 B( 25-C , 26-H ) :   0.9557
B( 25-C , 27-H ) :   0.9627 B( 25-C , 28-C ) :   1.0816 B( 28-C , 29-H ) :   0.9760
B( 28-C , 30-H ) :   0.9737 B( 28-C , 31-H ) :   0.9768

Dispersion correction           -0.014029079
FINAL SINGLE POINT ENERGY     -1339.879019014808

DIPOLE MOMENT
-------------
                                X             Y             Z
Electronic contribution:    -10.43507      27.37876      13.55853
Nuclear contribution   :     10.49374     -27.84091     -14.01441
                        -----------------------------------------
Total Dipole Moment    :      0.05866      -0.46214      -0.45588
                        -----------------------------------------
Magnitude (a.u.)       :      0.65180
Magnitude (Debye)      :      1.65674

Rotational constants in cm-1:     0.018384     0.008500     0.006265
Rotational constants in MHz :   551.125719   254.820494   187.829932

                             ****ORCA TERMINATED NORMALLY****
TOTAL RUN TIME: 0 days 0 hours 0 minutes 32 seconds 534 msec
