                         Program Version 4.2.1 -  RELEASE  -
|  1> ! wB97X-D3 SP def2-SVP
|  2> %pal
|  3> nprocs 16
|  4> end
|  5>
|  6> * xyz 0 1
|  7> S 	 -30.6109 	 38.7557 	 98.132
|  8> C 	 -31.6887 	 38.1678 	 96.9357
|  9> C 	 -31.5239 	 38.8946 	 95.7523
| 10> C 	 -30.6866 	 40.0166 	 95.9548
| 11> C 	 -30.1797 	 40.1478 	 97.1643
| 12> H 	 -30.4109 	 40.703 	 95.1356
| 13> C 	 -32.4012 	 38.7831 	 94.5394
| 14> H 	 -32.1214 	 39.5467 	 93.7727
| 15> H 	 -33.3986 	 39.1049 	 94.9623
| 16> C 	 -32.4563 	 37.4745 	 93.8264
| 17> H 	 -31.4848 	 37.2137 	 93.4498
| 18> H 	 -32.8322 	 36.7585 	 94.6452
| 19> C 	 -33.4263 	 37.4899 	 92.6302
| 20> H 	 -33.1322 	 37.9672 	 91.7119
| 21> H 	 -33.569 	 36.3963 	 92.5666
| 22> H 	 -34.4047 	 37.919 	 92.8755
| 23> S 	 -27.5654 	 40.5978 	 97.7934
| 24> C 	 -27.0661 	 42.2167 	 98.2599
| 25> C 	 -28.1686 	 43.114 	 98.1472
| 26> C 	 -29.3535 	 42.4887 	 97.7226
| 27> C 	 -29.166 	 41.1253 	 97.5989
| 28> H 	 -27.9447 	 44.1119 	 98.3668
| 29> C 	 -30.6725 	 43.2597 	 97.5881
| 30> H 	 -30.4293 	 44.2308 	 97.9903
| 31> H 	 -31.4541 	 42.8958 	 98.2999
| 32> C 	 -31.1555 	 43.6026 	 96.142
| 33> H 	 -31.9657 	 44.2665 	 96.3923
| 34> H 	 -31.5424 	 42.6177 	 95.7799
| 35> C 	 -30.1328 	 44.4011 	 95.3422
| 36> H 	 -30.6009 	 44.5915 	 94.4169
| 37> H 	 -29.1703 	 43.8138 	 95.0483
| 38> H 	 -29.883 	 45.3982 	 95.6843
| 39> H 	 -32.6294 	 37.6067 	 97.1317
| 40> H 	 -26.041 	 42.5438 	 98.3687
| 41> *
| 42>
| 43>                          ****END OF INPUT****

CARTESIAN COORDINATES (ANGSTROEM)
---------------------------------
  S    -30.610900   38.755700   98.132000
  C    -31.688700   38.167800   96.935700
  C    -31.523900   38.894600   95.752300
  C    -30.686600   40.016600   95.954800
  C    -30.179700   40.147800   97.164300
  H    -30.410900   40.703000   95.135600
  C    -32.401200   38.783100   94.539400
  H    -32.121400   39.546700   93.772700
  H    -33.398600   39.104900   94.962300
  C    -32.456300   37.474500   93.826400
  H    -31.484800   37.213700   93.449800
  H    -32.832200   36.758500   94.645200
  C    -33.426300   37.489900   92.630200
  H    -33.132200   37.967200   91.711900
  H    -33.569000   36.396300   92.566600
  H    -34.404700   37.919000   92.875500
  S    -27.565400   40.597800   97.793400
  C    -27.066100   42.216700   98.259900
  C    -28.168600   43.114000   98.147200
  C    -29.353500   42.488700   97.722600
  C    -29.166000   41.125300   97.598900
  H    -27.944700   44.111900   98.366800
  C    -30.672500   43.259700   97.588100
  H    -30.429300   44.230800   97.990300
  H    -31.454100   42.895800   98.299900
  C    -31.155500   43.602600   96.142000
  H    -31.965700   44.266500   96.392300
  H    -31.542400   42.617700   95.779900
  C    -30.132800   44.401100   95.342200
  H    -30.600900   44.591500   94.416900
  H    -29.170300   43.813800   95.048300
  H    -29.883000   45.398200   95.684300
  H    -32.629400   37.606700   97.131700
  H    -26.041000   42.543800   98.368700

 Total Charge           Charge          ....    0
 Multiplicity           Mult            ....    1
 Number of Electrons    NEL             ....  134
 Basis Dimension        Dim             ....  322

ORBITAL ENERGIES
----------------

  NO   OCC          E(Eh)            E(eV)
   0   2.0000     -88.967794     -2420.9367
   1   2.0000     -88.961955     -2420.7779
   2   2.0000     -10.320632      -280.8387
   3   2.0000     -10.319096      -280.7969
   4   2.0000     -10.315573      -280.7010
   5   2.0000     -10.312447      -280.6160
   6   2.0000     -10.297710      -280.2149
   7   2.0000     -10.296996      -280.1955
   8   2.0000     -10.291529      -280.0468
   9   2.0000     -10.290601      -280.0215
  10   2.0000     -10.290253      -280.0120
  11   2.0000     -10.290135      -280.0088
  12   2.0000     -10.289285      -279.9857
  13   2.0000     -10.285971      -279.8955
  14   2.0000     -10.282435      -279.7993
  15   2.0000     -10.279627      -279.7229
  16   2.0000      -8.083019      -219.9501
  17   2.0000      -8.077524      -219.8006
  18   2.0000      -6.041279      -164.3916
  19   2.0000      -6.037396      -164.2859
  20   2.0000      -6.036036      -164.2489
  21   2.0000      -6.034085      -164.1958
  22   2.0000      -6.031856      -164.1351
  23   2.0000      -6.028279      -164.0378
  24   2.0000      -1.013904       -27.5897
  25   2.0000      -0.989375       -26.9223
  26   2.0000      -0.916221       -24.9317
  27   2.0000      -0.906237       -24.6600
  28   2.0000      -0.868085       -23.6218
  29   2.0000      -0.853011       -23.2116
  30   2.0000      -0.850205       -23.1353
  31   2.0000      -0.814540       -22.1647
  32   2.0000      -0.783454       -21.3189
  33   2.0000      -0.769894       -20.9499
  34   2.0000      -0.703821       -19.1519
  35   2.0000      -0.697990       -18.9933
  36   2.0000      -0.685261       -18.6469
  37   2.0000      -0.665066       -18.0974
  38   2.0000      -0.639982       -17.4148
  39   2.0000      -0.618387       -16.8272
  40   2.0000      -0.587970       -15.9995
  41   2.0000      -0.575864       -15.6701
  42   2.0000      -0.562742       -15.3130
  43   2.0000      -0.552349       -15.0302
  44   2.0000      -0.541182       -14.7263
  45   2.0000      -0.531278       -14.4568
  46   2.0000      -0.520582       -14.1658
  47   2.0000      -0.512282       -13.9399
  48   2.0000      -0.500837       -13.6285
  49   2.0000      -0.494946       -13.4682
  50   2.0000      -0.492744       -13.4083
  51   2.0000      -0.474969       -12.9246
  52   2.0000      -0.472485       -12.8570
  53   2.0000      -0.470085       -12.7917
  54   2.0000      -0.456763       -12.4291
  55   2.0000      -0.446336       -12.1454
  56   2.0000      -0.443698       -12.0736
  57   2.0000      -0.437159       -11.8957
  58   2.0000      -0.434054       -11.8112
  59   2.0000      -0.418275       -11.3818
  60   2.0000      -0.415431       -11.3045
  61   2.0000      -0.409753       -11.1499
  62   2.0000      -0.406233       -11.0542
  63   2.0000      -0.345564        -9.4033
  64   2.0000      -0.331873        -9.0307
  65   2.0000      -0.324285        -8.8242
  66   2.0000      -0.294807        -8.0221
  67   0.0000       0.041441         1.1277
  68   0.0000       0.053511         1.4561
  69   0.0000       0.121508         3.3064
  70   0.0000       0.123315         3.3556
  71   0.0000       0.128247         3.4898

MULLIKEN ATOMIC CHARGES
-----------------------
   0 S :    0.112202
   1 C :   -0.132728
   2 C :   -0.080499
   3 C :    0.024596
   4 C :   -0.160272
   5 H :    0.027439
   6 C :    0.000700
   7 H :    0.020129
   8 H :    0.044941
   9 C :   -0.084621
  10 H :    0.033273
  11 H :    0.035716
  12 C :   -0.036310
  13 H :    0.041047
  14 H :    0.038884
  15 H :    0.020664
  16 S :    0.134200
  17 C :   -0.115669
  18 C :   -0.030384
  19 C :   -0.017468
  20 C :   -0.173694
  21 H :   -0.001327
  22 C :    0.056997
  23 H :   -0.007705
  24 H :    0.050372
  25 C :   -0.061303
  26 H :    0.027379
  27 H :    0.043340
  28 C :   -0.049232
  29 H :    0.019558
  30 H :    0.056248
  31 H :    0.031262
  32 H :    0.075309
  33 H :    0.056957
Sum of atomic charges:   -0.0000000

LOEWDIN ATOMIC CHARGES
----------------------
   0 S :    0.415650
   1 C :   -0.222331
   2 C :   -0.065468
   3 C :   -0.070782
   4 C :   -0.193183
   5 H :    0.037246
   6 C :   -0.047495
   7 H :    0.028319
   8 H :    0.039224
   9 C :   -0.041365
  10 H :    0.025552
  11 H :    0.031468
  12 C :   -0.067645
  13 H :    0.023465
  14 H :    0.036108
  15 H :    0.023142
  16 S :    0.437564
  17 C :   -0.197262
  18 C :   -0.057826
  19 C :   -0.063853
  20 C :   -0.216406
  21 H :    0.021913
  22 C :   -0.036893
  23 H :    0.022182
  24 H :    0.038515
  25 C :   -0.038948
  26 H :    0.026516
  27 H :    0.028184
  28 C :   -0.071987
  29 H :    0.022443
  30 H :    0.039837
  31 H :    0.027021
  32 H :    0.039933
  33 H :    0.027161

  Mayer bond orders larger than 0.100000
B(  0-S ,  1-C ) :   1.1531 B(  0-S ,  4-C ) :   1.1474 B(  1-C ,  2-C ) :   1.5847
B(  1-C , 32-H ) :   0.9581 B(  2-C ,  3-C ) :   1.2623 B(  2-C ,  6-C ) :   1.0171
B(  3-C ,  4-C ) :   1.6071 B(  3-C ,  5-H ) :   0.9830 B(  4-C , 20-C ) :   0.9821
B(  6-C ,  7-H ) :   0.9460 B(  6-C ,  8-H ) :   0.9379 B(  6-C ,  9-C ) :   1.0691
B(  9-C , 10-H ) :   0.9536 B(  9-C , 11-H ) :   0.9566 B(  9-C , 12-C ) :   1.0720
B( 12-C , 13-H ) :   0.9757 B( 12-C , 14-H ) :   0.9762 B( 12-C , 15-H ) :   0.9735
B( 16-S , 17-C ) :   1.1619 B( 16-S , 20-C ) :   1.1905 B( 17-C , 18-C ) :   1.5797
B( 17-C , 20-C ) :   0.1076 B( 17-C , 33-H ) :   0.9685 B( 18-C , 19-C ) :   1.2716
B( 18-C , 21-H ) :   0.9976 B( 19-C , 20-C ) :   1.5664 B( 19-C , 22-C ) :   1.0287
B( 22-C , 23-H ) :   0.9291 B( 22-C , 24-H ) :   0.9395 B( 22-C , 25-C ) :   1.0598
B( 25-C , 26-H ) :   0.9516 B( 25-C , 27-H ) :   0.9558 B( 25-C , 28-C ) :   1.0793
B( 28-C , 29-H ) :   0.9693 B( 28-C , 30-H ) :   0.9698 B( 28-C , 31-H ) :   0.9699

Dispersion correction           -0.014650299
FINAL SINGLE POINT ENERGY     -1339.854490073494

DIPOLE MOMENT
-------------
                                X             Y             Z
Electronic contribution:     17.09518      -7.29382      20.87864
Nuclear contribution   :    -17.49451       7.77976     -21.40446
                        -----------------------------------------
Total Dipole Moment    :     -0.39933       0.48594      -0.52582
                        -----------------------------------------
Magnitude (a.u.)       :      0.81981
Magnitude (Debye)      :      2.08379

Rotational constants in cm-1:     0.020548     0.008196     0.006658
Rotational constants in MHz :   616.005941   245.701225   199.606083

                             ****ORCA TERMINATED NORMALLY****
TOTAL RUN TIME: 0 days 0 hours 0 minutes 30 seconds 518 msec
