                         Program Version 4.2.1 -  RELEASE  -
|  1> ! wB97X-D3 SP def2-SVP
|  2> %pal
|  3> nprocs 16
|  4> end
|  5>
|  6> * xyz 0 1
|  7> S 	 41.0794 	 30.8625 	 82.1512
|  8> C 	 39.6092 	 30.9491 	 82.9942
|  9> C 	 39.5214 	 29.9055 	 83.8869
| 10> C 	 40.6229 	 28.9998 	 83.8348
| 11> C 	 41.5295 	 29.3384 	 82.8546
| 12> H 	 40.8098 	 28.1486 	 84.4553
| 13> C 	 38.4337 	 29.668 	 84.8767
| 14> H 	 37.7459 	 30.5457 	 84.9189
| 15> H 	 39.014 	 29.594 	 85.8655
| 16> C 	 37.7658 	 28.3528 	 84.6065
| 17> H 	 37.3372 	 28.3315 	 83.6153
| 18> H 	 38.4548 	 27.512 	 84.6666
| 19> C 	 36.6459 	 27.999 	 85.6891
| 20> H 	 37.1098 	 28.1389 	 86.7061
| 21> H 	 35.7523 	 28.6646 	 85.6575
| 22> H 	 36.2362 	 27.0089 	 85.6727
| 23> S 	 44.25 	 29.5988 	 82.6872
| 24> C 	 45.2219 	 28.2836 	 81.9708
| 25> C 	 44.4441 	 27.1148 	 81.7471
| 26> C 	 43.0617 	 27.3561 	 82.156
| 27> C 	 42.7969 	 28.644 	 82.5683
| 28> H 	 44.8285 	 26.153 	 81.4223
| 29> C 	 41.989 	 26.3569 	 81.9696
| 30> H 	 41.7021 	 26.4835 	 80.9237
| 31> H 	 41.0582 	 26.5151 	 82.5731
| 32> C 	 42.4988 	 24.9301 	 82.0853
| 33> H 	 42.9911 	 24.7319 	 83.0912
| 34> H 	 43.3307 	 24.6685 	 81.3372
| 35> C 	 41.3753 	 23.9936 	 81.8501
| 36> H 	 41.7068 	 22.9153 	 82.0318
| 37> H 	 41.0069 	 24.0486 	 80.8058
| 38> H 	 40.5456 	 24.1429 	 82.5346
| 39> H 	 38.9101 	 31.785 	 82.9357
| 40> H 	 46.2953 	 28.2805 	 82.1234
| 41> *
| 42>
| 43>                          ****END OF INPUT****

CARTESIAN COORDINATES (ANGSTROEM)
---------------------------------
  S     41.079400   30.862500   82.151200
  C     39.609200   30.949100   82.994200
  C     39.521400   29.905500   83.886900
  C     40.622900   28.999800   83.834800
  C     41.529500   29.338400   82.854600
  H     40.809800   28.148600   84.455300
  C     38.433700   29.668000   84.876700
  H     37.745900   30.545700   84.918900
  H     39.014000   29.594000   85.865500
  C     37.765800   28.352800   84.606500
  H     37.337200   28.331500   83.615300
  H     38.454800   27.512000   84.666600
  C     36.645900   27.999000   85.689100
  H     37.109800   28.138900   86.706100
  H     35.752300   28.664600   85.657500
  H     36.236200   27.008900   85.672700
  S     44.250000   29.598800   82.687200
  C     45.221900   28.283600   81.970800
  C     44.444100   27.114800   81.747100
  C     43.061700   27.356100   82.156000
  C     42.796900   28.644000   82.568300
  H     44.828500   26.153000   81.422300
  C     41.989000   26.356900   81.969600
  H     41.702100   26.483500   80.923700
  H     41.058200   26.515100   82.573100
  C     42.498800   24.930100   82.085300
  H     42.991100   24.731900   83.091200
  H     43.330700   24.668500   81.337200
  C     41.375300   23.993600   81.850100
  H     41.706800   22.915300   82.031800
  H     41.006900   24.048600   80.805800
  H     40.545600   24.142900   82.534600
  H     38.910100   31.785000   82.935700
  H     46.295300   28.280500   82.123400

 Total Charge           Charge          ....    0
 Multiplicity           Mult            ....    1
 Number of Electrons    NEL             ....  134
 Basis Dimension        Dim             ....  322

ORBITAL ENERGIES
----------------

  NO   OCC          E(Eh)            E(eV)
   0   2.0000     -88.964299     -2420.8417
   1   2.0000     -88.964237     -2420.8400
   2   2.0000     -10.328335      -281.0483
   3   2.0000     -10.324913      -280.9552
   4   2.0000     -10.324332      -280.9394
   5   2.0000     -10.310438      -280.5613
   6   2.0000     -10.305922      -280.4384
   7   2.0000     -10.303540      -280.3736
   8   2.0000     -10.297141      -280.1995
   9   2.0000     -10.296904      -280.1930
  10   2.0000     -10.293936      -280.1122
  11   2.0000     -10.290234      -280.0115
  12   2.0000     -10.290057      -280.0067
  13   2.0000     -10.289993      -280.0049
  14   2.0000     -10.284350      -279.8514
  15   2.0000     -10.281723      -279.7799
  16   2.0000      -8.080166      -219.8725
  17   2.0000      -8.078668      -219.8317
  18   2.0000      -6.038608      -164.3189
  19   2.0000      -6.037223      -164.2812
  20   2.0000      -6.034424      -164.2050
  21   2.0000      -6.033175      -164.1710
  22   2.0000      -6.031003      -164.1119
  23   2.0000      -6.029443      -164.0695
  24   2.0000      -1.010946       -27.5092
  25   2.0000      -0.984607       -26.7925
  26   2.0000      -0.918973       -25.0065
  27   2.0000      -0.914165       -24.8757
  28   2.0000      -0.868759       -23.6401
  29   2.0000      -0.852948       -23.2099
  30   2.0000      -0.844796       -22.9881
  31   2.0000      -0.815134       -22.1809
  32   2.0000      -0.776446       -21.1282
  33   2.0000      -0.766676       -20.8623
  34   2.0000      -0.706218       -19.2172
  35   2.0000      -0.699050       -19.0221
  36   2.0000      -0.692492       -18.8437
  37   2.0000      -0.657213       -17.8837
  38   2.0000      -0.646244       -17.5852
  39   2.0000      -0.620966       -16.8974
  40   2.0000      -0.599195       -16.3049
  41   2.0000      -0.571704       -15.5569
  42   2.0000      -0.569399       -15.4941
  43   2.0000      -0.559301       -15.2193
  44   2.0000      -0.529936       -14.4203
  45   2.0000      -0.524063       -14.2605
  46   2.0000      -0.518564       -14.1108
  47   2.0000      -0.511479       -13.9180
  48   2.0000      -0.504284       -13.7223
  49   2.0000      -0.499910       -13.6032
  50   2.0000      -0.489891       -13.3306
  51   2.0000      -0.481274       -13.0961
  52   2.0000      -0.470276       -12.7968
  53   2.0000      -0.465476       -12.6662
  54   2.0000      -0.458542       -12.4776
  55   2.0000      -0.453436       -12.3386
  56   2.0000      -0.443688       -12.0734
  57   2.0000      -0.436867       -11.8877
  58   2.0000      -0.434408       -11.8208
  59   2.0000      -0.425363       -11.5747
  60   2.0000      -0.417238       -11.3536
  61   2.0000      -0.415843       -11.3157
  62   2.0000      -0.412749       -11.2315
  63   2.0000      -0.347955        -9.4683
  64   2.0000      -0.328730        -8.9452
  65   2.0000      -0.325627        -8.8608
  66   2.0000      -0.293327        -7.9818
  67   0.0000       0.032878         0.8947
  68   0.0000       0.067188         1.8283
  69   0.0000       0.107792         2.9332
  70   0.0000       0.124098         3.3769
  71   0.0000       0.126488         3.4419

MULLIKEN ATOMIC CHARGES
-----------------------
   0 S :    0.121257
   1 C :   -0.124016
   2 C :   -0.083404
   3 C :    0.025864
   4 C :   -0.152434
   5 H :    0.013159
   6 C :    0.058248
   7 H :    0.027619
   8 H :    0.043606
   9 C :   -0.077595
  10 H :    0.033151
  11 H :    0.030070
  12 C :   -0.067275
  13 H :    0.028223
  14 H :    0.033996
  15 H :    0.033030
  16 S :    0.096810
  17 C :   -0.095090
  18 C :   -0.035747
  19 C :   -0.030639
  20 C :   -0.161227
  21 H :    0.029300
  22 C :    0.061508
  23 H :    0.038811
  24 H :    0.033387
  25 C :   -0.147409
  26 H :    0.040563
  27 H :    0.042430
  28 C :   -0.038340
  29 H :    0.036146
  30 H :    0.035859
  31 H :    0.026473
  32 H :    0.051980
  33 H :    0.071683
Sum of atomic charges:   -0.0000000

LOEWDIN ATOMIC CHARGES
----------------------
   0 S :    0.432806
   1 C :   -0.220865
   2 C :   -0.067767
   3 C :   -0.062814
   4 C :   -0.196962
   5 H :    0.028810
   6 C :   -0.037459
   7 H :    0.031815
   8 H :    0.042916
   9 C :   -0.037394
  10 H :    0.024292
  11 H :    0.023690
  12 C :   -0.074078
  13 H :    0.027759
  14 H :    0.025208
  15 H :    0.020413
  16 S :    0.395438
  17 C :   -0.177135
  18 C :   -0.063061
  19 C :   -0.056088
  20 C :   -0.204296
  21 H :    0.031990
  22 C :   -0.039480
  23 H :    0.041387
  24 H :    0.035777
  25 C :   -0.055916
  26 H :    0.028288
  27 H :    0.030095
  28 C :   -0.070984
  29 H :    0.031943
  30 H :    0.028341
  31 H :    0.021239
  32 H :    0.033762
  33 H :    0.028331

  Mayer bond orders larger than 0.100000
B(  0-S ,  1-C ) :   1.1413 B(  0-S ,  4-C ) :   1.1709 B(  1-C ,  2-C ) :   1.5964
B(  1-C , 32-H ) :   0.9708 B(  2-C ,  3-C ) :   1.2399 B(  2-C ,  6-C ) :   1.0296
B(  3-C ,  4-C ) :   1.5615 B(  3-C ,  5-H ) :   0.9955 B(  4-C , 20-C ) :   1.0209
B(  6-C ,  7-H ) :   0.9453 B(  6-C ,  8-H ) :   0.9310 B(  6-C ,  9-C ) :   1.0625
B(  9-C , 10-H ) :   0.9578 B(  9-C , 11-H ) :   0.9544 B(  9-C , 12-C ) :   1.0688
B( 12-C , 13-H ) :   0.9753 B( 12-C , 14-H ) :   0.9781 B( 12-C , 15-H ) :   0.9788
B( 16-S , 17-C ) :   1.1583 B( 16-S , 20-C ) :   1.1392 B( 17-C , 18-C ) :   1.5888
B( 17-C , 33-H ) :   0.9626 B( 18-C , 19-C ) :   1.2389 B( 18-C , 21-H ) :   0.9841
B( 19-C , 20-C ) :   1.6084 B( 19-C , 22-C ) :   1.0498 B( 22-C , 23-H ) :   0.9160
B( 22-C , 24-H ) :   0.9409 B( 22-C , 25-C ) :   1.0585 B( 25-C , 26-H ) :   0.9578
B( 25-C , 27-H ) :   0.9402 B( 25-C , 28-C ) :   1.0982 B( 28-C , 29-H ) :   0.9703
B( 28-C , 30-H ) :   0.9699 B( 28-C , 31-H ) :   0.9704

Dispersion correction           -0.013680644
FINAL SINGLE POINT ENERGY     -1339.884145964678

DIPOLE MOMENT
-------------
                                X             Y             Z
Electronic contribution:     19.63697      23.29605      -7.79746
Nuclear contribution   :    -19.95265     -23.86947       8.04266
                        -----------------------------------------
Total Dipole Moment    :     -0.31568      -0.57342       0.24521
                        -----------------------------------------
Magnitude (a.u.)       :      0.69899
Magnitude (Debye)      :      1.77670

Rotational constants in cm-1:     0.016632     0.009202     0.006411
Rotational constants in MHz :   498.609915   275.854821   192.201511

                             ****ORCA TERMINATED NORMALLY****
TOTAL RUN TIME: 0 days 0 hours 0 minutes 29 seconds 963 msec
