                         Program Version 4.2.1 -  RELEASE  -
|  1> ! wB97X-D3 SP def2-SVP
|  2> %pal
|  3> nprocs 16
|  4> end
|  5>
|  6> * xyz 0 1
|  7> S 	 34.8988 	 -1.60638 	 75.0721
|  8> C 	 35.142 	 -1.31973 	 73.359
|  9> C 	 34.3737 	 -0.3339 	 72.8332
| 10> C 	 33.6585 	 0.336836 	 73.8581
| 11> C 	 33.9328 	 -0.0550649 	 75.1688
| 12> H 	 32.9499 	 1.14936 	 73.7009
| 13> C 	 34.2165 	 -0.00396219 	 71.3618
| 14> H 	 33.5902 	 0.907649 	 71.1363
| 15> H 	 33.6721 	 -0.8774 	 71.0702
| 16> C 	 35.4846 	 0.130212 	 70.4969
| 17> H 	 36.2152 	 -0.610813 	 70.7507
| 18> H 	 35.1925 	 -0.138872 	 69.461
| 19> C 	 36.124 	 1.59949 	 70.637
| 20> H 	 35.283 	 2.28316 	 70.3214
| 21> H 	 36.5747 	 1.7057 	 71.6386
| 22> H 	 36.9114 	 1.75404 	 69.8777
| 23> S 	 32.6172 	 -0.513129 	 77.5802
| 24> C 	 31.7497 	 0.804604 	 78.3302
| 25> C 	 31.9395 	 2.00377 	 77.6995
| 26> C 	 32.8302 	 1.90221 	 76.6115
| 27> C 	 33.2554 	 0.565896 	 76.3175
| 28> H 	 31.6119 	 2.96599 	 78.1139
| 29> C 	 33.2662 	 3.15385 	 75.8422
| 30> H 	 32.6844 	 4.01888 	 76.2495
| 31> H 	 33.0896 	 2.82843 	 74.7337
| 32> C 	 34.7621 	 3.48084 	 76.081
| 33> H 	 34.9377 	 4.27534 	 75.4634
| 34> H 	 35.3715 	 2.6732 	 75.6873
| 35> C 	 35.0987 	 3.79796 	 77.5318
| 36> H 	 35.9768 	 4.46573 	 77.5993
| 37> H 	 35.2815 	 2.98937 	 78.2126
| 38> H 	 34.2967 	 4.46241 	 77.9688
| 39> H 	 35.6439 	 -2.07094 	 72.7091
| 40> H 	 31.0956 	 0.842037 	 79.2022
| 41> *
| 42>
| 43>                          ****END OF INPUT****

CARTESIAN COORDINATES (ANGSTROEM)
---------------------------------
  S     34.898800   -1.606380   75.072100
  C     35.142000   -1.319730   73.359000
  C     34.373700   -0.333900   72.833200
  C     33.658500    0.336836   73.858100
  C     33.932800   -0.055065   75.168800
  H     32.949900    1.149360   73.700900
  C     34.216500   -0.003962   71.361800
  H     33.590200    0.907649   71.136300
  H     33.672100   -0.877400   71.070200
  C     35.484600    0.130212   70.496900
  H     36.215200   -0.610813   70.750700
  H     35.192500   -0.138872   69.461000
  C     36.124000    1.599490   70.637000
  H     35.283000    2.283160   70.321400
  H     36.574700    1.705700   71.638600
  H     36.911400    1.754040   69.877700
  S     32.617200   -0.513129   77.580200
  C     31.749700    0.804604   78.330200
  C     31.939500    2.003770   77.699500
  C     32.830200    1.902210   76.611500
  C     33.255400    0.565896   76.317500
  H     31.611900    2.965990   78.113900
  C     33.266200    3.153850   75.842200
  H     32.684400    4.018880   76.249500
  H     33.089600    2.828430   74.733700
  C     34.762100    3.480840   76.081000
  H     34.937700    4.275340   75.463400
  H     35.371500    2.673200   75.687300
  C     35.098700    3.797960   77.531800
  H     35.976800    4.465730   77.599300
  H     35.281500    2.989370   78.212600
  H     34.296700    4.462410   77.968800
  H     35.643900   -2.070940   72.709100
  H     31.095600    0.842037   79.202200

 Total Charge           Charge          ....    0
 Multiplicity           Mult            ....    1
 Number of Electrons    NEL             ....  134
 Basis Dimension        Dim             ....  322

ORBITAL ENERGIES
----------------

  NO   OCC          E(Eh)            E(eV)
   0   2.0000     -88.969757     -2420.9902
   1   2.0000     -88.968764     -2420.9631
   2   2.0000     -10.339010      -281.3388
   3   2.0000     -10.333749      -281.1956
   4   2.0000     -10.316575      -280.7283
   5   2.0000     -10.314611      -280.6748
   6   2.0000     -10.304727      -280.4059
   7   2.0000     -10.301215      -280.3103
   8   2.0000     -10.300310      -280.2857
   9   2.0000     -10.297051      -280.1970
  10   2.0000     -10.294740      -280.1341
  11   2.0000     -10.294110      -280.1170
  12   2.0000     -10.291512      -280.0463
  13   2.0000     -10.290620      -280.0220
  14   2.0000     -10.277525      -279.6657
  15   2.0000     -10.275946      -279.6227
  16   2.0000      -8.083034      -219.9505
  17   2.0000      -8.082801      -219.9442
  18   2.0000      -6.041810      -164.4060
  19   2.0000      -6.041375      -164.3942
  20   2.0000      -6.037974      -164.3016
  21   2.0000      -6.037350      -164.2846
  22   2.0000      -6.033605      -164.1827
  23   2.0000      -6.033356      -164.1760
  24   2.0000      -1.000110       -27.2144
  25   2.0000      -0.982104       -26.7244
  26   2.0000      -0.907386       -24.6912
  27   2.0000      -0.906285       -24.6613
  28   2.0000      -0.867383       -23.6027
  29   2.0000      -0.848288       -23.0831
  30   2.0000      -0.842115       -22.9151
  31   2.0000      -0.810441       -22.0532
  32   2.0000      -0.779512       -21.2116
  33   2.0000      -0.768041       -20.8994
  34   2.0000      -0.712816       -19.3967
  35   2.0000      -0.704079       -19.1590
  36   2.0000      -0.686265       -18.6742
  37   2.0000      -0.661399       -17.9976
  38   2.0000      -0.633135       -17.2285
  39   2.0000      -0.611716       -16.6456
  40   2.0000      -0.583517       -15.8783
  41   2.0000      -0.578520       -15.7423
  42   2.0000      -0.555210       -15.1080
  43   2.0000      -0.552328       -15.0296
  44   2.0000      -0.542771       -14.7696
  45   2.0000      -0.534140       -14.5347
  46   2.0000      -0.509397       -13.8614
  47   2.0000      -0.503416       -13.6986
  48   2.0000      -0.497925       -13.5492
  49   2.0000      -0.487034       -13.2529
  50   2.0000      -0.484781       -13.1916
  51   2.0000      -0.478887       -13.0312
  52   2.0000      -0.471447       -12.8287
  53   2.0000      -0.464804       -12.6480
  54   2.0000      -0.462488       -12.5849
  55   2.0000      -0.448598       -12.2070
  56   2.0000      -0.440471       -11.9858
  57   2.0000      -0.434266       -11.8170
  58   2.0000      -0.431180       -11.7330
  59   2.0000      -0.426277       -11.5996
  60   2.0000      -0.422334       -11.4923
  61   2.0000      -0.418270       -11.3817
  62   2.0000      -0.412394       -11.2218
  63   2.0000      -0.355114        -9.6632
  64   2.0000      -0.334965        -9.1149
  65   2.0000      -0.326609        -8.8875
  66   2.0000      -0.280117        -7.6224
  67   0.0000       0.017100         0.4653
  68   0.0000       0.071358         1.9418
  69   0.0000       0.098149         2.6708
  70   0.0000       0.126417         3.4400
  71   0.0000       0.129359         3.5200

MULLIKEN ATOMIC CHARGES
-----------------------
   0 S :    0.101940
   1 C :   -0.149457
   2 C :   -0.051797
   3 C :   -0.021686
   4 C :   -0.106748
   5 H :    0.019985
   6 C :    0.050798
   7 H :    0.033158
   8 H :    0.039903
   9 C :   -0.080310
  10 H :    0.020285
  11 H :    0.031111
  12 C :   -0.078943
  13 H :    0.041048
  14 H :    0.062782
  15 H :    0.040379
  16 S :    0.107051
  17 C :   -0.075231
  18 C :   -0.046162
  19 C :   -0.065057
  20 C :   -0.167109
  21 H :    0.024032
  22 C :    0.006323
  23 H :    0.027770
  24 H :    0.045786
  25 C :    0.003162
  26 H :    0.006006
  27 H :    0.035056
  28 C :   -0.067141
  29 H :    0.030605
  30 H :    0.050264
  31 H :    0.016956
  32 H :    0.061002
  33 H :    0.054242
Sum of atomic charges:   -0.0000000

LOEWDIN ATOMIC CHARGES
----------------------
   0 S :    0.367812
   1 C :   -0.201525
   2 C :   -0.068165
   3 C :   -0.059482
   4 C :   -0.173556
   5 H :    0.029317
   6 C :   -0.034281
   7 H :    0.035130
   8 H :    0.036088
   9 C :   -0.040062
  10 H :    0.015981
  11 H :    0.026872
  12 C :   -0.069671
  13 H :    0.030935
  14 H :    0.034148
  15 H :    0.026510
  16 S :    0.402457
  17 C :   -0.188224
  18 C :   -0.081539
  19 C :   -0.056251
  20 C :   -0.194947
  21 H :    0.035603
  22 C :   -0.035751
  23 H :    0.030638
  24 H :    0.041861
  25 C :   -0.033757
  26 H :    0.012479
  27 H :    0.028277
  28 C :   -0.069183
  29 H :    0.029854
  30 H :    0.026673
  31 H :    0.026190
  32 H :    0.033846
  33 H :    0.035723

  Mayer bond orders larger than 0.100000
B(  0-S ,  1-C ) :   1.1244 B(  0-S ,  4-C ) :   1.1166 B(  1-C ,  2-C ) :   1.6349
B(  1-C , 32-H ) :   0.9533 B(  2-C ,  3-C ) :   1.2474 B(  2-C ,  6-C ) :   0.9939
B(  3-C ,  4-C ) :   1.5663 B(  3-C ,  5-H ) :   0.9843 B(  4-C , 20-C ) :   1.0919
B(  6-C ,  7-H ) :   0.9515 B(  6-C ,  8-H ) :   0.9290 B(  6-C ,  9-C ) :   1.0791
B(  9-C , 10-H ) :   0.9573 B(  9-C , 11-H ) :   0.9562 B(  9-C , 12-C ) :   1.0583
B( 12-C , 13-H ) :   0.9765 B( 12-C , 14-H ) :   0.9776 B( 12-C , 15-H ) :   0.9775
B( 16-S , 17-C ) :   1.1636 B( 16-S , 20-C ) :   1.1268 B( 17-C , 18-C ) :   1.6015
B( 17-C , 20-C ) :   0.1022 B( 17-C , 33-H ) :   0.9585 B( 18-C , 19-C ) :   1.2924
B( 18-C , 21-H ) :   0.9786 B( 19-C , 20-C ) :   1.5431 B( 19-C , 22-C ) :   1.0259
B( 22-C , 23-H ) :   0.9375 B( 22-C , 24-H ) :   0.9314 B( 22-C , 25-C ) :   1.0808
B( 25-C , 26-H ) :   0.9541 B( 25-C , 27-H ) :   0.9510 B( 25-C , 28-C ) :   1.0680
B( 28-C , 29-H ) :   0.9734 B( 28-C , 30-H ) :   0.9762 B( 28-C , 31-H ) :   0.9735

Dispersion correction           -0.014656580
FINAL SINGLE POINT ENERGY     -1339.859765355540

DIPOLE MOMENT
-------------
                                X             Y             Z
Electronic contribution:     -8.56369     -20.42734      16.18691
Nuclear contribution   :      8.48392      20.92886     -16.68327
                        -----------------------------------------
Total Dipole Moment    :     -0.07977       0.50151      -0.49637
                        -----------------------------------------
Magnitude (a.u.)       :      0.71011
Magnitude (Debye)      :      1.80496

Rotational constants in cm-1:     0.020169     0.008547     0.006825
Rotational constants in MHz :   604.661043   256.233315   204.597411

                             ****ORCA TERMINATED NORMALLY****
TOTAL RUN TIME: 0 days 0 hours 0 minutes 30 seconds 438 msec
