                         Program Version 4.2.1 -  RELEASE  -
|  1> ! wB97X-D3 SP def2-SVP
|  2> %pal
|  3> nprocs 16
|  4> end
|  5>
|  6> * xyz 0 1
|  7> S 	 44.5541 	 21.2209 	 89.6116
|  8> C 	 46.1749 	 21.8513 	 89.5361
|  9> C 	 47.1993 	 20.9192 	 89.6283
| 10> C 	 46.6093 	 19.618 	 89.6065
| 11> C 	 45.2249 	 19.6678 	 89.4777
| 12> H 	 47.1289 	 18.6527 	 89.6335
| 13> C 	 48.681 	 21.168 	 89.8196
| 14> H 	 48.846 	 21.4533 	 90.8554
| 15> H 	 48.7973 	 22.0836 	 89.3271
| 16> C 	 49.754 	 20.092 	 89.4131
| 17> H 	 49.7229 	 19.1969 	 90.0153
| 18> H 	 49.4653 	 19.8185 	 88.4534
| 19> C 	 51.1751 	 20.6762 	 89.4015
| 20> H 	 51.8481 	 20.0339 	 88.8548
| 21> H 	 51.1949 	 21.664 	 88.9511
| 22> H 	 51.6531 	 20.8828 	 90.4126
| 23> S 	 43.0352 	 18.294 	 90.4574
| 24> C 	 42.5413 	 16.8485 	 89.6292
| 25> C 	 43.5167 	 16.4248 	 88.7812
| 26> C 	 44.6651 	 17.2414 	 88.7036
| 27> C 	 44.4243 	 18.483 	 89.3792
| 28> H 	 43.3237 	 15.5775 	 88.1332
| 29> C 	 45.7947 	 16.9263 	 87.7274
| 30> H 	 46.489 	 17.7905 	 87.7377
| 31> H 	 45.3846 	 16.8222 	 86.7211
| 32> C 	 46.5338 	 15.6171 	 88.1109
| 33> H 	 47.3502 	 15.4995 	 87.3464
| 34> H 	 45.8641 	 14.782 	 87.9693
| 35> C 	 47.0181 	 15.5778 	 89.6105
| 36> H 	 46.1457 	 15.2465 	 90.2159
| 37> H 	 47.3546 	 16.5237 	 89.962
| 38> H 	 47.7011 	 14.6749 	 89.7511
| 39> H 	 46.3985 	 22.8969 	 89.8241
| 40> H 	 41.6084 	 16.4097 	 89.7958
| 41> *
| 42>
| 43>                          ****END OF INPUT****

CARTESIAN COORDINATES (ANGSTROEM)
---------------------------------
  S     44.554100   21.220900   89.611600
  C     46.174900   21.851300   89.536100
  C     47.199300   20.919200   89.628300
  C     46.609300   19.618000   89.606500
  C     45.224900   19.667800   89.477700
  H     47.128900   18.652700   89.633500
  C     48.681000   21.168000   89.819600
  H     48.846000   21.453300   90.855400
  H     48.797300   22.083600   89.327100
  C     49.754000   20.092000   89.413100
  H     49.722900   19.196900   90.015300
  H     49.465300   19.818500   88.453400
  C     51.175100   20.676200   89.401500
  H     51.848100   20.033900   88.854800
  H     51.194900   21.664000   88.951100
  H     51.653100   20.882800   90.412600
  S     43.035200   18.294000   90.457400
  C     42.541300   16.848500   89.629200
  C     43.516700   16.424800   88.781200
  C     44.665100   17.241400   88.703600
  C     44.424300   18.483000   89.379200
  H     43.323700   15.577500   88.133200
  C     45.794700   16.926300   87.727400
  H     46.489000   17.790500   87.737700
  H     45.384600   16.822200   86.721100
  C     46.533800   15.617100   88.110900
  H     47.350200   15.499500   87.346400
  H     45.864100   14.782000   87.969300
  C     47.018100   15.577800   89.610500
  H     46.145700   15.246500   90.215900
  H     47.354600   16.523700   89.962000
  H     47.701100   14.674900   89.751100
  H     46.398500   22.896900   89.824100
  H     41.608400   16.409700   89.795800

 Total Charge           Charge          ....    0
 Multiplicity           Mult            ....    1
 Number of Electrons    NEL             ....  134
 Basis Dimension        Dim             ....  322

ORBITAL ENERGIES
----------------

  NO   OCC          E(Eh)            E(eV)
   0   2.0000     -88.972043     -2421.0524
   1   2.0000     -88.960950     -2420.7505
   2   2.0000     -10.326513      -280.9987
   3   2.0000     -10.321726      -280.8684
   4   2.0000     -10.311243      -280.5832
   5   2.0000     -10.307725      -280.4875
   6   2.0000     -10.303934      -280.3843
   7   2.0000     -10.302790      -280.3532
   8   2.0000     -10.293309      -280.0952
   9   2.0000     -10.292790      -280.0811
  10   2.0000     -10.292415      -280.0708
  11   2.0000     -10.291863      -280.0558
  12   2.0000     -10.290548      -280.0200
  13   2.0000     -10.288133      -279.9543
  14   2.0000     -10.285552      -279.8841
  15   2.0000     -10.285242      -279.8757
  16   2.0000      -8.087637      -220.0758
  17   2.0000      -8.075925      -219.7571
  18   2.0000      -6.045937      -164.5183
  19   2.0000      -6.042300      -164.4193
  20   2.0000      -6.038285      -164.3101
  21   2.0000      -6.034325      -164.2023
  22   2.0000      -6.030495      -164.0981
  23   2.0000      -6.026721      -163.9954
  24   2.0000      -1.011337       -27.5199
  25   2.0000      -0.985201       -26.8087
  26   2.0000      -0.913733       -24.8639
  27   2.0000      -0.904066       -24.6009
  28   2.0000      -0.871617       -23.7179
  29   2.0000      -0.854519       -23.2526
  30   2.0000      -0.840546       -22.8724
  31   2.0000      -0.810644       -22.0587
  32   2.0000      -0.784800       -21.3555
  33   2.0000      -0.771937       -21.0055
  34   2.0000      -0.719830       -19.5876
  35   2.0000      -0.698924       -19.0187
  36   2.0000      -0.692672       -18.8486
  37   2.0000      -0.653741       -17.7892
  38   2.0000      -0.635865       -17.3028
  39   2.0000      -0.622232       -16.9318
  40   2.0000      -0.597272       -16.2526
  41   2.0000      -0.571062       -15.5394
  42   2.0000      -0.561196       -15.2709
  43   2.0000      -0.552933       -15.0461
  44   2.0000      -0.534811       -14.5530
  45   2.0000      -0.527929       -14.3657
  46   2.0000      -0.520712       -14.1693
  47   2.0000      -0.508311       -13.8318
  48   2.0000      -0.505430       -13.7534
  49   2.0000      -0.492384       -13.3984
  50   2.0000      -0.486780       -13.2459
  51   2.0000      -0.479290       -13.0421
  52   2.0000      -0.472337       -12.8529
  53   2.0000      -0.469030       -12.7630
  54   2.0000      -0.459406       -12.5011
  55   2.0000      -0.450852       -12.2683
  56   2.0000      -0.441892       -12.0245
  57   2.0000      -0.438370       -11.9287
  58   2.0000      -0.435312       -11.8454
  59   2.0000      -0.433696       -11.8015
  60   2.0000      -0.427247       -11.6260
  61   2.0000      -0.422268       -11.4905
  62   2.0000      -0.409844       -11.1524
  63   2.0000      -0.346078        -9.4173
  64   2.0000      -0.333979        -9.0880
  65   2.0000      -0.328182        -8.9303
  66   2.0000      -0.281950        -7.6722
  67   0.0000       0.021429         0.5831
  68   0.0000       0.075722         2.0605
  69   0.0000       0.110856         3.0165
  70   0.0000       0.119975         3.2647
  71   0.0000       0.129944         3.5360

MULLIKEN ATOMIC CHARGES
-----------------------
   0 S :    0.139936
   1 C :   -0.128846
   2 C :   -0.099476
   3 C :    0.002375
   4 C :   -0.144816
   5 H :   -0.005218
   6 C :    0.081416
   7 H :    0.036468
   8 H :    0.004609
   9 C :   -0.035467
  10 H :    0.038991
  11 H :    0.016679
  12 C :   -0.059185
  13 H :    0.036824
  14 H :    0.025567
  15 H :    0.039527
  16 S :    0.086883
  17 C :   -0.067400
  18 C :   -0.033019
  19 C :   -0.034312
  20 C :   -0.157132
  21 H :    0.018588
  22 C :    0.046569
  23 H :    0.027673
  24 H :    0.040615
  25 C :   -0.093594
  26 H :    0.040155
  27 H :    0.024862
  28 C :   -0.063722
  29 H :    0.044904
  30 H :    0.039001
  31 H :    0.046409
  32 H :    0.049020
  33 H :    0.035116
Sum of atomic charges:    0.0000000

LOEWDIN ATOMIC CHARGES
----------------------
   0 S :    0.442902
   1 C :   -0.217381
   2 C :   -0.053830
   3 C :   -0.064288
   4 C :   -0.214412
   5 H :    0.027311
   6 C :   -0.030918
   7 H :    0.035851
   8 H :    0.025788
   9 C :   -0.029594
  10 H :    0.025597
  11 H :    0.017179
  12 C :   -0.066139
  13 H :    0.025950
  14 H :    0.024357
  15 H :    0.032589
  16 S :    0.390233
  17 C :   -0.178874
  18 C :   -0.071777
  19 C :   -0.058059
  20 C :   -0.188600
  21 H :    0.031414
  22 C :   -0.033497
  23 H :    0.028733
  24 H :    0.033956
  25 C :   -0.041246
  26 H :    0.026586
  27 H :    0.018629
  28 C :   -0.070060
  29 H :    0.035131
  30 H :    0.015139
  31 H :    0.037011
  32 H :    0.027358
  33 H :    0.016961

  Mayer bond orders larger than 0.100000
B(  0-S ,  1-C ) :   1.1368 B(  0-S ,  4-C ) :   1.1724 B(  1-C ,  2-C ) :   1.6188
B(  1-C , 32-H ) :   0.9565 B(  2-C ,  3-C ) :   1.2635 B(  2-C ,  6-C ) :   1.0096
B(  3-C ,  4-C ) :   1.5279 B(  3-C ,  5-H ) :   0.9855 B(  4-C , 20-C ) :   1.0740
B(  6-C ,  7-H ) :   0.9277 B(  6-C ,  8-H ) :   0.9302 B(  6-C ,  9-C ) :   1.0653
B(  9-C , 10-H ) :   0.9487 B(  9-C , 11-H ) :   0.9580 B(  9-C , 12-C ) :   1.0863
B( 12-C , 13-H ) :   0.9745 B( 12-C , 14-H ) :   0.9748 B( 12-C , 15-H ) :   0.9753
B( 16-S , 17-C ) :   1.1392 B( 16-S , 20-C ) :   1.1557 B( 17-C , 18-C ) :   1.6060
B( 17-C , 20-C ) :   0.1064 B( 17-C , 33-H ) :   0.9785 B( 18-C , 19-C ) :   1.2390
B( 18-C , 21-H ) :   0.9907 B( 19-C , 20-C ) :   1.5457 B( 19-C , 22-C ) :   1.0407
B( 22-C , 23-H ) :   0.9386 B( 22-C , 24-H ) :   0.9430 B( 22-C , 25-C ) :   1.0630
B( 25-C , 26-H ) :   0.9616 B( 25-C , 27-H ) :   0.9572 B( 25-C , 28-C ) :   1.0640
B( 28-C , 29-H ) :   0.9671 B( 28-C , 30-H ) :   0.9787 B( 28-C , 31-H ) :   0.9719

Dispersion correction           -0.014855798
FINAL SINGLE POINT ENERGY     -1339.869964502863

DIPOLE MOMENT
-------------
                                X             Y             Z
Electronic contribution:    -29.37764       9.53802       4.96038
Nuclear contribution   :     29.95542      -9.79906      -5.09202
                        -----------------------------------------
Total Dipole Moment    :      0.57778      -0.26105      -0.13164
                        -----------------------------------------
Magnitude (a.u.)       :      0.64754
Magnitude (Debye)      :      1.64591

Rotational constants in cm-1:     0.018372     0.009476     0.006708
Rotational constants in MHz :   550.777681   284.084327   201.109625

                             ****ORCA TERMINATED NORMALLY****
TOTAL RUN TIME: 0 days 0 hours 0 minutes 31 seconds 216 msec
