                         Program Version 4.2.1 -  RELEASE  -
|  1> ! wB97X-D3 SP def2-SVP
|  2> %pal
|  3> nprocs 16
|  4> end
|  5>
|  6> * xyz 0 1
|  7> S 	 41.0639 	 12.044 	 87.4062
|  8> C 	 41.9482 	 13.2712 	 86.565
|  9> C 	 41.6436 	 13.2213 	 85.2309
| 10> C 	 40.811 	 12.1413 	 84.8785
| 11> C 	 40.3561 	 11.4131 	 85.9294
| 12> H 	 40.4504 	 11.9374 	 83.8756
| 13> C 	 42.0373 	 14.2157 	 84.0878
| 14> H 	 42.169 	 13.8166 	 83.1254
| 15> H 	 42.8736 	 14.7131 	 84.381
| 16> C 	 41.0815 	 15.3304 	 83.9457
| 17> H 	 40.9777 	 15.8932 	 84.8701
| 18> H 	 41.4329 	 16.004 	 83.1661
| 19> C 	 39.5871 	 15.0385 	 83.5626
| 20> H 	 39.0935 	 16.0025 	 83.2749
| 21> H 	 39.706 	 14.2795 	 82.782
| 22> H 	 39.0466 	 14.5203 	 84.3052
| 23> S 	 39.6897 	 9.01606 	 84.7127
| 24> C 	 38.3985 	 8.03127 	 85.2874
| 25> C 	 37.7945 	 8.61901 	 86.3714
| 26> C 	 38.3276 	 9.93442 	 86.7133
| 27> C 	 39.3903 	 10.2753 	 85.919
| 28> H 	 36.9056 	 8.20409 	 86.7653
| 29> C 	 37.754 	 10.8185 	 87.7759
| 30> H 	 38.5938 	 11.2867 	 88.264
| 31> H 	 37.23 	 10.2286 	 88.6137
| 32> C 	 36.9257 	 12.011 	 87.1738
| 33> H 	 37.6288 	 12.7748 	 86.8653
| 34> H 	 36.4361 	 12.4899 	 87.9828
| 35> C 	 35.9388 	 11.4737 	 86.1222
| 36> H 	 35.5712 	 10.5132 	 86.3129
| 37> H 	 36.5289 	 11.3411 	 85.19
| 38> H 	 35.1624 	 12.2372 	 85.9553
| 39> H 	 42.5341 	 14.0147 	 87.018
| 40> H 	 37.9939 	 7.12059 	 84.9511
| 41> *
| 42>
| 43>                          ****END OF INPUT****

CARTESIAN COORDINATES (ANGSTROEM)
---------------------------------
  S     41.063900   12.044000   87.406200
  C     41.948200   13.271200   86.565000
  C     41.643600   13.221300   85.230900
  C     40.811000   12.141300   84.878500
  C     40.356100   11.413100   85.929400
  H     40.450400   11.937400   83.875600
  C     42.037300   14.215700   84.087800
  H     42.169000   13.816600   83.125400
  H     42.873600   14.713100   84.381000
  C     41.081500   15.330400   83.945700
  H     40.977700   15.893200   84.870100
  H     41.432900   16.004000   83.166100
  C     39.587100   15.038500   83.562600
  H     39.093500   16.002500   83.274900
  H     39.706000   14.279500   82.782000
  H     39.046600   14.520300   84.305200
  S     39.689700    9.016060   84.712700
  C     38.398500    8.031270   85.287400
  C     37.794500    8.619010   86.371400
  C     38.327600    9.934420   86.713300
  C     39.390300   10.275300   85.919000
  H     36.905600    8.204090   86.765300
  C     37.754000   10.818500   87.775900
  H     38.593800   11.286700   88.264000
  H     37.230000   10.228600   88.613700
  C     36.925700   12.011000   87.173800
  H     37.628800   12.774800   86.865300
  H     36.436100   12.489900   87.982800
  C     35.938800   11.473700   86.122200
  H     35.571200   10.513200   86.312900
  H     36.528900   11.341100   85.190000
  H     35.162400   12.237200   85.955300
  H     42.534100   14.014700   87.018000
  H     37.993900    7.120590   84.951100

 Total Charge           Charge          ....    0
 Multiplicity           Mult            ....    1
 Number of Electrons    NEL             ....  134
 Basis Dimension        Dim             ....  322

ORBITAL ENERGIES
----------------

  NO   OCC          E(Eh)            E(eV)
   0   2.0000     -88.968720     -2420.9620
   1   2.0000     -88.966440     -2420.8999
   2   2.0000     -10.333309      -281.1836
   3   2.0000     -10.329528      -281.0807
   4   2.0000     -10.313343      -280.6403
   5   2.0000     -10.313014      -280.6314
   6   2.0000     -10.303468      -280.3716
   7   2.0000     -10.302404      -280.3427
   8   2.0000     -10.291896      -280.0567
   9   2.0000     -10.290832      -280.0278
  10   2.0000     -10.290564      -280.0205
  11   2.0000     -10.281880      -279.7842
  12   2.0000     -10.281095      -279.7628
  13   2.0000     -10.279779      -279.7270
  14   2.0000     -10.274704      -279.5889
  15   2.0000     -10.271603      -279.5045
  16   2.0000      -8.083335      -219.9587
  17   2.0000      -8.081089      -219.8976
  18   2.0000      -6.041912      -164.4088
  19   2.0000      -6.039763      -164.3503
  20   2.0000      -6.037742      -164.2953
  21   2.0000      -6.035496      -164.2342
  22   2.0000      -6.034145      -164.1974
  23   2.0000      -6.031782      -164.1331
  24   2.0000      -1.011494       -27.5242
  25   2.0000      -0.990404       -26.9503
  26   2.0000      -0.918541       -24.9948
  27   2.0000      -0.907394       -24.6914
  28   2.0000      -0.871546       -23.7160
  29   2.0000      -0.848293       -23.0832
  30   2.0000      -0.840794       -22.8792
  31   2.0000      -0.819761       -22.3068
  32   2.0000      -0.790519       -21.5111
  33   2.0000      -0.776433       -21.1278
  34   2.0000      -0.711631       -19.3645
  35   2.0000      -0.695023       -18.9125
  36   2.0000      -0.690578       -18.7916
  37   2.0000      -0.668132       -18.1808
  38   2.0000      -0.645142       -17.5552
  39   2.0000      -0.619487       -16.8571
  40   2.0000      -0.587398       -15.9839
  41   2.0000      -0.583748       -15.8846
  42   2.0000      -0.560076       -15.2405
  43   2.0000      -0.550800       -14.9880
  44   2.0000      -0.548916       -14.9368
  45   2.0000      -0.544077       -14.8051
  46   2.0000      -0.518022       -14.0961
  47   2.0000      -0.514723       -14.0063
  48   2.0000      -0.503297       -13.6954
  49   2.0000      -0.495932       -13.4950
  50   2.0000      -0.489545       -13.3212
  51   2.0000      -0.483817       -13.1653
  52   2.0000      -0.477435       -12.9917
  53   2.0000      -0.472071       -12.8457
  54   2.0000      -0.466713       -12.6999
  55   2.0000      -0.447818       -12.1857
  56   2.0000      -0.442377       -12.0377
  57   2.0000      -0.434903       -11.8343
  58   2.0000      -0.429999       -11.7009
  59   2.0000      -0.422252       -11.4901
  60   2.0000      -0.414273       -11.2729
  61   2.0000      -0.409645       -11.1470
  62   2.0000      -0.404272       -11.0008
  63   2.0000      -0.354566        -9.6482
  64   2.0000      -0.335458        -9.1283
  65   2.0000      -0.328563        -8.9406
  66   2.0000      -0.296617        -8.0714
  67   0.0000       0.029311         0.7976
  68   0.0000       0.077003         2.0954
  69   0.0000       0.114246         3.1088
  70   0.0000       0.118221         3.2170
  71   0.0000       0.127872         3.4796

MULLIKEN ATOMIC CHARGES
-----------------------
   0 S :    0.105864
   1 C :   -0.106781
   2 C :   -0.095621
   3 C :    0.009609
   4 C :   -0.125107
   5 H :    0.010759
   6 C :    0.185556
   7 H :    0.014862
   8 H :   -0.011724
   9 C :   -0.117799
  10 H :    0.018919
  11 H :    0.029845
  12 C :   -0.054277
  13 H :    0.051332
  14 H :    0.011521
  15 H :    0.033900
  16 S :    0.109902
  17 C :   -0.050460
  18 C :   -0.038176
  19 C :   -0.072202
  20 C :   -0.144612
  21 H :    0.005006
  22 C :    0.035797
  23 H :    0.013655
  24 H :    0.042280
  25 C :   -0.052520
  26 H :    0.033261
  27 H :    0.016810
  28 C :   -0.022373
  29 H :    0.014181
  30 H :    0.042172
  31 H :    0.041113
  32 H :    0.029919
  33 H :    0.035390
Sum of atomic charges:   -0.0000000

LOEWDIN ATOMIC CHARGES
----------------------
   0 S :    0.419974
   1 C :   -0.194120
   2 C :   -0.055552
   3 C :   -0.069835
   4 C :   -0.186462
   5 H :    0.030542
   6 C :   -0.015993
   7 H :    0.025773
   8 H :    0.021462
   9 C :   -0.040001
  10 H :    0.018660
  11 H :    0.024076
  12 C :   -0.067512
  13 H :    0.035013
  14 H :    0.019521
  15 H :    0.015984
  16 S :    0.411850
  17 C :   -0.186415
  18 C :   -0.068136
  19 C :   -0.058400
  20 C :   -0.190819
  21 H :    0.021939
  22 C :   -0.041170
  23 H :    0.017271
  24 H :    0.038162
  25 C :   -0.032083
  26 H :    0.024974
  27 H :    0.016948
  28 C :   -0.062700
  29 H :    0.015108
  30 H :    0.035246
  31 H :    0.028694
  32 H :    0.021572
  33 H :    0.026430

  Mayer bond orders larger than 0.100000
B(  0-S ,  1-C ) :   1.1401 B(  0-S ,  4-C ) :   1.1501 B(  1-C ,  2-C ) :   1.6169
B(  1-C , 32-H ) :   0.9759 B(  2-C ,  3-C ) :   1.2474 B(  2-C ,  6-C ) :   1.0164
B(  3-C ,  4-C ) :   1.5737 B(  3-C ,  5-H ) :   0.9962 B(  4-C , 20-C ) :   1.0173
B(  6-C ,  7-H ) :   0.9408 B(  6-C ,  8-H ) :   0.9170 B(  6-C ,  9-C ) :   1.0902
B(  9-C , 10-H ) :   0.9527 B(  9-C , 11-H ) :   0.9567 B(  9-C , 12-C ) :   1.0751
B( 12-C , 13-H ) :   0.9740 B( 12-C , 14-H ) :   0.9735 B( 12-C , 15-H ) :   0.9731
B( 16-S , 17-C ) :   1.1471 B( 16-S , 20-C ) :   1.1300 B( 17-C , 18-C ) :   1.6308
B( 17-C , 33-H ) :   0.9693 B( 18-C , 19-C ) :   1.2213 B( 18-C , 21-H ) :   0.9898
B( 19-C , 20-C ) :   1.6095 B( 19-C , 22-C ) :   1.0524 B( 22-C , 23-H ) :   0.9268
B( 22-C , 24-H ) :   0.9405 B( 22-C , 25-C ) :   1.0654 B( 25-C , 26-H ) :   0.9552
B( 25-C , 27-H ) :   0.9585 B( 25-C , 28-C ) :   1.0690 B( 28-C , 29-H ) :   0.9779
B( 28-C , 30-H ) :   0.9664 B( 28-C , 31-H ) :   0.9753

Dispersion correction           -0.016043375
FINAL SINGLE POINT ENERGY     -1339.869300508603

DIPOLE MOMENT
-------------
                                X             Y             Z
Electronic contribution:     12.04990     -17.72096       5.55902
Nuclear contribution   :    -12.30078      18.10291      -5.64461
                        -----------------------------------------
Total Dipole Moment    :     -0.25088       0.38195      -0.08560
                        -----------------------------------------
Magnitude (a.u.)       :      0.46492
Magnitude (Debye)      :      1.18174

Rotational constants in cm-1:     0.020165     0.009022     0.008487
Rotational constants in MHz :   604.533306   270.464619   254.419204

                             ****ORCA TERMINATED NORMALLY****
TOTAL RUN TIME: 0 days 0 hours 0 minutes 31 seconds 720 msec
