                         Program Version 4.2.1 -  RELEASE  -
|  1> ! wB97X-D3 SP def2-SVP
|  2> %pal
|  3> nprocs 16
|  4> end
|  5>
|  6> * xyz 0 1
|  7> S 	 -23.8041 	 50.385 	 68.4558
|  8> C 	 -23.2382 	 51.5674 	 67.3132
|  9> C 	 -21.8717 	 51.8196 	 67.3901
| 10> C 	 -21.3551 	 51.0945 	 68.5465
| 11> C 	 -22.2535 	 50.3147 	 69.2397
| 12> H 	 -20.3434 	 51.1447 	 68.8941
| 13> C 	 -21.058 	 52.7693 	 66.5023
| 14> H 	 -20.567 	 53.5937 	 67.024
| 15> H 	 -21.7034 	 53.2599 	 65.8157
| 16> C 	 -20.0571 	 52.1152 	 65.5297
| 17> H 	 -19.4544 	 52.8311 	 65.0345
| 18> H 	 -19.3004 	 51.62 	 66.1123
| 19> C 	 -20.6508 	 51.0249 	 64.6194
| 20> H 	 -19.8632 	 50.3441 	 64.3813
| 21> H 	 -21.3722 	 50.3438 	 65.0762
| 22> H 	 -21.2337 	 51.4562 	 63.7795
| 23> S 	 -23.3677 	 49.6295 	 71.5975
| 24> C 	 -22.6245 	 48.5968 	 72.6864
| 25> C 	 -21.279 	 48.4181 	 72.383
| 26> C 	 -20.9664 	 48.979 	 71.0896
| 27> C 	 -21.9939 	 49.7227 	 70.5336
| 28> H 	 -20.6658 	 47.7709 	 72.9603
| 29> C 	 -19.7776 	 48.4751 	 70.255
| 30> H 	 -19.085 	 47.9933 	 70.9808
| 31> H 	 -19.145 	 49.2679 	 69.8371
| 32> C 	 -20.0276 	 47.461 	 69.1627
| 33> H 	 -20.8152 	 47.7155 	 68.4652
| 34> H 	 -20.38 	 46.591 	 69.5572
| 35> C 	 -18.7512 	 47.0441 	 68.4528
| 36> H 	 -17.8995 	 46.6196 	 69.1434
| 37> H 	 -18.1026 	 47.8003 	 68.0174
| 38> H 	 -18.8112 	 46.2996 	 67.6286
| 39> H 	 -23.8298 	 51.7649 	 66.4736
| 40> H 	 -23.0688 	 48.1339 	 73.5643
| 41> *
| 42>
| 43>                          ****END OF INPUT****

CARTESIAN COORDINATES (ANGSTROEM)
---------------------------------
  S    -23.804100   50.385000   68.455800
  C    -23.238200   51.567400   67.313200
  C    -21.871700   51.819600   67.390100
  C    -21.355100   51.094500   68.546500
  C    -22.253500   50.314700   69.239700
  H    -20.343400   51.144700   68.894100
  C    -21.058000   52.769300   66.502300
  H    -20.567000   53.593700   67.024000
  H    -21.703400   53.259900   65.815700
  C    -20.057100   52.115200   65.529700
  H    -19.454400   52.831100   65.034500
  H    -19.300400   51.620000   66.112300
  C    -20.650800   51.024900   64.619400
  H    -19.863200   50.344100   64.381300
  H    -21.372200   50.343800   65.076200
  H    -21.233700   51.456200   63.779500
  S    -23.367700   49.629500   71.597500
  C    -22.624500   48.596800   72.686400
  C    -21.279000   48.418100   72.383000
  C    -20.966400   48.979000   71.089600
  C    -21.993900   49.722700   70.533600
  H    -20.665800   47.770900   72.960300
  C    -19.777600   48.475100   70.255000
  H    -19.085000   47.993300   70.980800
  H    -19.145000   49.267900   69.837100
  C    -20.027600   47.461000   69.162700
  H    -20.815200   47.715500   68.465200
  H    -20.380000   46.591000   69.557200
  C    -18.751200   47.044100   68.452800
  H    -17.899500   46.619600   69.143400
  H    -18.102600   47.800300   68.017400
  H    -18.811200   46.299600   67.628600
  H    -23.829800   51.764900   66.473600
  H    -23.068800   48.133900   73.564300

 Total Charge           Charge          ....    0
 Multiplicity           Mult            ....    1
 Number of Electrons    NEL             ....  134
 Basis Dimension        Dim             ....  322

ORBITAL ENERGIES
----------------

  NO   OCC          E(Eh)            E(eV)
   0   2.0000     -88.968100     -2420.9451
   1   2.0000     -88.964366     -2420.8435
   2   2.0000     -10.329169      -281.0710
   3   2.0000     -10.325338      -280.9667
   4   2.0000     -10.314795      -280.6799
   5   2.0000     -10.313075      -280.6330
   6   2.0000     -10.310567      -280.5648
   7   2.0000     -10.306227      -280.4467
   8   2.0000     -10.294674      -280.1323
   9   2.0000     -10.293958      -280.1128
  10   2.0000     -10.293855      -280.1100
  11   2.0000     -10.293435      -280.0986
  12   2.0000     -10.285285      -279.8768
  13   2.0000     -10.283059      -279.8163
  14   2.0000     -10.277070      -279.6533
  15   2.0000     -10.275877      -279.6208
  16   2.0000      -8.083246      -219.9563
  17   2.0000      -8.080844      -219.8910
  18   2.0000      -6.041750      -164.4044
  19   2.0000      -6.039209      -164.3352
  20   2.0000      -6.037711      -164.2945
  21   2.0000      -6.034859      -164.2169
  22   2.0000      -6.033955      -164.1923
  23   2.0000      -6.031882      -164.1358
  24   2.0000      -1.014380       -27.6027
  25   2.0000      -0.989121       -26.9153
  26   2.0000      -0.912024       -24.8174
  27   2.0000      -0.911825       -24.8120
  28   2.0000      -0.873524       -23.7698
  29   2.0000      -0.853696       -23.2302
  30   2.0000      -0.843552       -22.9542
  31   2.0000      -0.815256       -22.1842
  32   2.0000      -0.785799       -21.3827
  33   2.0000      -0.773835       -21.0571
  34   2.0000      -0.713868       -19.4253
  35   2.0000      -0.705451       -19.1963
  36   2.0000      -0.695626       -18.9289
  37   2.0000      -0.668207       -18.1828
  38   2.0000      -0.644549       -17.5391
  39   2.0000      -0.623491       -16.9660
  40   2.0000      -0.599127       -16.3031
  41   2.0000      -0.571348       -15.5472
  42   2.0000      -0.558854       -15.2072
  43   2.0000      -0.552641       -15.0381
  44   2.0000      -0.539919       -14.6920
  45   2.0000      -0.525471       -14.2988
  46   2.0000      -0.518324       -14.1043
  47   2.0000      -0.511560       -13.9202
  48   2.0000      -0.507143       -13.8001
  49   2.0000      -0.501893       -13.6572
  50   2.0000      -0.493747       -13.4355
  51   2.0000      -0.483120       -13.1464
  52   2.0000      -0.470201       -12.7948
  53   2.0000      -0.464922       -12.6512
  54   2.0000      -0.455358       -12.3909
  55   2.0000      -0.452272       -12.3069
  56   2.0000      -0.443055       -12.0561
  57   2.0000      -0.440311       -11.9815
  58   2.0000      -0.434731       -11.8296
  59   2.0000      -0.425770       -11.5858
  60   2.0000      -0.416890       -11.3442
  61   2.0000      -0.411795       -11.2055
  62   2.0000      -0.406689       -11.0666
  63   2.0000      -0.359699        -9.7879
  64   2.0000      -0.332142        -9.0380
  65   2.0000      -0.330406        -8.9908
  66   2.0000      -0.288323        -7.8457
  67   0.0000       0.024370         0.6631
  68   0.0000       0.079085         2.1520
  69   0.0000       0.111522         3.0347
  70   0.0000       0.115753         3.1498
  71   0.0000       0.131125         3.5681

MULLIKEN ATOMIC CHARGES
-----------------------
   0 S :    0.111298
   1 C :   -0.104466
   2 C :   -0.082109
   3 C :    0.013505
   4 C :   -0.120897
   5 H :    0.000379
   6 C :    0.094810
   7 H :    0.038689
   8 H :    0.002549
   9 C :   -0.056551
  10 H :    0.020269
  11 H :    0.008717
  12 C :   -0.059428
  13 H :    0.030247
  14 H :    0.034324
  15 H :    0.037007
  16 S :    0.110939
  17 C :   -0.095113
  18 C :   -0.019502
  19 C :   -0.038972
  20 C :   -0.135433
  21 H :    0.008870
  22 C :    0.006354
  23 H :    0.015028
  24 H :    0.027385
  25 C :    0.054118
  26 H :    0.033973
  27 H :   -0.001131
  28 C :   -0.116180
  29 H :    0.024891
  30 H :    0.016598
  31 H :    0.040224
  32 H :    0.037358
  33 H :    0.062249
Sum of atomic charges:    0.0000000

LOEWDIN ATOMIC CHARGES
----------------------
   0 S :    0.411357
   1 C :   -0.187803
   2 C :   -0.053129
   3 C :   -0.054773
   4 C :   -0.203560
   5 H :    0.024825
   6 C :   -0.028862
   7 H :    0.035535
   8 H :    0.024833
   9 C :   -0.038736
  10 H :    0.021610
  11 H :    0.017564
  12 C :   -0.069959
  13 H :    0.026939
  14 H :    0.028773
  15 H :    0.027246
  16 S :    0.442333
  17 C :   -0.207009
  18 C :   -0.070090
  19 C :   -0.060170
  20 C :   -0.197261
  21 H :    0.025569
  22 C :   -0.033065
  23 H :    0.032201
  24 H :    0.026235
  25 C :   -0.034206
  26 H :    0.029763
  27 H :    0.016326
  28 C :   -0.082499
  29 H :    0.032663
  30 H :    0.018348
  31 H :    0.029908
  32 H :    0.014764
  33 H :    0.034329

  Mayer bond orders larger than 0.100000
B(  0-S ,  1-C ) :   1.1488 B(  0-S ,  4-C ) :   1.1354 B(  1-C ,  2-C ) :   1.6030
B(  1-C , 32-H ) :   0.9649 B(  2-C ,  3-C ) :   1.2332 B(  2-C ,  6-C ) :   1.0286
B(  3-C ,  4-C ) :   1.5682 B(  3-C ,  5-H ) :   0.9981 B(  4-C , 20-C ) :   1.0751
B(  6-C ,  7-H ) :   0.9438 B(  6-C ,  8-H ) :   0.9393 B(  6-C ,  9-C ) :   1.0674
B(  9-C , 10-H ) :   0.9557 B(  9-C , 11-H ) :   0.9579 B(  9-C , 12-C ) :   1.0684
B( 12-C , 13-H ) :   0.9746 B( 12-C , 14-H ) :   0.9728 B( 12-C , 15-H ) :   0.9765
B( 16-S , 17-C ) :   1.1904 B( 16-S , 20-C ) :   1.1382 B( 17-C , 18-C ) :   1.5778
B( 17-C , 33-H ) :   0.9655 B( 18-C , 19-C ) :   1.2682 B( 18-C , 21-H ) :   0.9959
B( 19-C , 20-C ) :   1.5710 B( 19-C , 22-C ) :   1.0457 B( 22-C , 23-H ) :   0.9344
B( 22-C , 24-H ) :   0.9419 B( 22-C , 25-C ) :   1.0619 B( 25-C , 26-H ) :   0.9497
B( 25-C , 27-H ) :   0.9425 B( 25-C , 28-C ) :   1.0671 B( 28-C , 29-H ) :   0.9716
B( 28-C , 30-H ) :   0.9749 B( 28-C , 31-H ) :   0.9753

Dispersion correction           -0.014661661
FINAL SINGLE POINT ENERGY     -1339.865365515327

DIPOLE MOMENT
-------------
                                X             Y             Z
Electronic contribution:    -23.09484       4.13157      19.12619
Nuclear contribution   :     23.58823      -4.29280     -19.38990
                        -----------------------------------------
Total Dipole Moment    :      0.49338      -0.16123      -0.26371
                        -----------------------------------------
Magnitude (a.u.)       :      0.58221
Magnitude (Debye)      :      1.47985

Rotational constants in cm-1:     0.018918     0.009500     0.007054
Rotational constants in MHz :   567.142818   284.812438   211.487053

                             ****ORCA TERMINATED NORMALLY****
TOTAL RUN TIME: 0 days 0 hours 0 minutes 34 seconds 625 msec
