                         Program Version 4.2.1 -  RELEASE  -
|  1> ! wB97X-D3 SP def2-SVP
|  2> %pal
|  3> nprocs 16
|  4> end
|  5>
|  6> * xyz 0 1
|  7> S 	 7.64739 	 -27.0141 	 82.5785
|  8> C 	 8.81702 	 -27.9397 	 83.4881
|  9> C 	 9.97985 	 -27.261 	 83.7135
| 10> C 	 9.85615 	 -25.905 	 83.2635
| 11> C 	 8.58712 	 -25.5419 	 82.9398
| 12> H 	 10.601 	 -25.1263 	 83.2257
| 13> C 	 11.1991 	 -27.7243 	 84.4182
| 14> H 	 11.1146 	 -28.7291 	 84.8512
| 15> H 	 11.2286 	 -27.0444 	 85.2728
| 16> C 	 12.4455 	 -27.6171 	 83.5516
| 17> H 	 12.4139 	 -28.2363 	 82.682
| 18> H 	 12.6977 	 -26.5949 	 83.1185
| 19> C 	 13.7234 	 -27.9748 	 84.4024
| 20> H 	 13.5514 	 -28.8958 	 85.0646
| 21> H 	 14.4805 	 -28.3437 	 83.7038
| 22> H 	 14.0868 	 -27.1723 	 84.9737
| 23> S 	 7.29444 	 -24.2015 	 80.8499
| 24> C 	 7.06175 	 -22.5048 	 81.0197
| 25> C 	 7.58046 	 -21.9701 	 82.1927
| 26> C 	 8.1843 	 -22.9814 	 82.9602
| 27> C 	 8.11117 	 -24.2545 	 82.4235
| 28> H 	 7.47932 	 -20.9025 	 82.3687
| 29> C 	 8.64143 	 -22.636 	 84.4239
| 30> H 	 9.12378 	 -21.7101 	 84.266
| 31> H 	 9.48189 	 -23.2565 	 84.6818
| 32> C 	 7.66455 	 -22.5185 	 85.5664
| 33> H 	 8.27897 	 -22.3963 	 86.4172
| 34> H 	 7.19681 	 -23.4683 	 85.7765
| 35> C 	 6.58996 	 -21.3682 	 85.4949
| 36> H 	 5.83487 	 -21.2944 	 86.309
| 37> H 	 5.95769 	 -21.5437 	 84.6022
| 38> H 	 7.08407 	 -20.3615 	 85.4018
| 39> H 	 8.66582 	 -28.9627 	 83.766
| 40> H 	 6.52575 	 -21.8985 	 80.3228
| 41> *
| 42>
| 43>                          ****END OF INPUT****

CARTESIAN COORDINATES (ANGSTROEM)
---------------------------------
  S      7.647390  -27.014100   82.578500
  C      8.817020  -27.939700   83.488100
  C      9.979850  -27.261000   83.713500
  C      9.856150  -25.905000   83.263500
  C      8.587120  -25.541900   82.939800
  H     10.601000  -25.126300   83.225700
  C     11.199100  -27.724300   84.418200
  H     11.114600  -28.729100   84.851200
  H     11.228600  -27.044400   85.272800
  C     12.445500  -27.617100   83.551600
  H     12.413900  -28.236300   82.682000
  H     12.697700  -26.594900   83.118500
  C     13.723400  -27.974800   84.402400
  H     13.551400  -28.895800   85.064600
  H     14.480500  -28.343700   83.703800
  H     14.086800  -27.172300   84.973700
  S      7.294440  -24.201500   80.849900
  C      7.061750  -22.504800   81.019700
  C      7.580460  -21.970100   82.192700
  C      8.184300  -22.981400   82.960200
  C      8.111170  -24.254500   82.423500
  H      7.479320  -20.902500   82.368700
  C      8.641430  -22.636000   84.423900
  H      9.123780  -21.710100   84.266000
  H      9.481890  -23.256500   84.681800
  C      7.664550  -22.518500   85.566400
  H      8.278970  -22.396300   86.417200
  H      7.196810  -23.468300   85.776500
  C      6.589960  -21.368200   85.494900
  H      5.834870  -21.294400   86.309000
  H      5.957690  -21.543700   84.602200
  H      7.084070  -20.361500   85.401800
  H      8.665820  -28.962700   83.766000
  H      6.525750  -21.898500   80.322800

 Total Charge           Charge          ....    0
 Multiplicity           Mult            ....    1
 Number of Electrons    NEL             ....  134
 Basis Dimension        Dim             ....  322

ORBITAL ENERGIES
----------------

  NO   OCC          E(Eh)            E(eV)
   0   2.0000     -88.966885     -2420.9120
   1   2.0000     -88.959365     -2420.7074
   2   2.0000     -10.327685      -281.0306
   3   2.0000     -10.325640      -280.9749
   4   2.0000     -10.313342      -280.6403
   5   2.0000     -10.308881      -280.5189
   6   2.0000     -10.301358      -280.3142
   7   2.0000     -10.297668      -280.2138
   8   2.0000     -10.293937      -280.1123
   9   2.0000     -10.293694      -280.1056
  10   2.0000     -10.291764      -280.0531
  11   2.0000     -10.291624      -280.0493
  12   2.0000     -10.286116      -279.8995
  13   2.0000     -10.286090      -279.8987
  14   2.0000     -10.282930      -279.8127
  15   2.0000     -10.282321      -279.7962
  16   2.0000      -8.081749      -219.9156
  17   2.0000      -8.074236      -219.7111
  18   2.0000      -6.040155      -164.3610
  19   2.0000      -6.036259      -164.2550
  20   2.0000      -6.032844      -164.1620
  21   2.0000      -6.032586      -164.1550
  22   2.0000      -6.029131      -164.0610
  23   2.0000      -6.024486      -163.9346
  24   2.0000      -1.006887       -27.3988
  25   2.0000      -0.986197       -26.8358
  26   2.0000      -0.913945       -24.8697
  27   2.0000      -0.904246       -24.6058
  28   2.0000      -0.867948       -23.6181
  29   2.0000      -0.848823       -23.0977
  30   2.0000      -0.842631       -22.9292
  31   2.0000      -0.814434       -22.1619
  32   2.0000      -0.784092       -21.3362
  33   2.0000      -0.771861       -21.0034
  34   2.0000      -0.711570       -19.3628
  35   2.0000      -0.702262       -19.1095
  36   2.0000      -0.691772       -18.8241
  37   2.0000      -0.661132       -17.9903
  38   2.0000      -0.644218       -17.5301
  39   2.0000      -0.621801       -16.9201
  40   2.0000      -0.589916       -16.0524
  41   2.0000      -0.567621       -15.4457
  42   2.0000      -0.562763       -15.3135
  43   2.0000      -0.545848       -14.8533
  44   2.0000      -0.539437       -14.6788
  45   2.0000      -0.528361       -14.3774
  46   2.0000      -0.515149       -14.0179
  47   2.0000      -0.511129       -13.9085
  48   2.0000      -0.504938       -13.7401
  49   2.0000      -0.498592       -13.5674
  50   2.0000      -0.481514       -13.1027
  51   2.0000      -0.476241       -12.9592
  52   2.0000      -0.470207       -12.7950
  53   2.0000      -0.463898       -12.6233
  54   2.0000      -0.459548       -12.5049
  55   2.0000      -0.450979       -12.2718
  56   2.0000      -0.446471       -12.1491
  57   2.0000      -0.442793       -12.0490
  58   2.0000      -0.438410       -11.9297
  59   2.0000      -0.423950       -11.5363
  60   2.0000      -0.419770       -11.4225
  61   2.0000      -0.414559       -11.2807
  62   2.0000      -0.406800       -11.0696
  63   2.0000      -0.349426        -9.5084
  64   2.0000      -0.335748        -9.1362
  65   2.0000      -0.322761        -8.7828
  66   2.0000      -0.288187        -7.8420
  67   0.0000       0.028228         0.7681
  68   0.0000       0.068629         1.8675
  69   0.0000       0.103035         2.8037
  70   0.0000       0.124252         3.3811
  71   0.0000       0.137318         3.7366

MULLIKEN ATOMIC CHARGES
-----------------------
   0 S :    0.077018
   1 C :   -0.108887
   2 C :   -0.055966
   3 C :    0.020583
   4 C :   -0.142010
   5 H :    0.015181
   6 C :    0.093153
   7 H :    0.020590
   8 H :    0.036203
   9 C :   -0.110395
  10 H :    0.030992
  11 H :    0.043098
  12 C :   -0.059016
  13 H :    0.031920
  14 H :    0.031809
  15 H :    0.038472
  16 S :    0.113443
  17 C :   -0.087290
  18 C :   -0.046742
  19 C :   -0.058258
  20 C :   -0.153164
  21 H :    0.023899
  22 C :    0.098865
  23 H :   -0.000805
  24 H :    0.005106
  25 C :    0.001046
  26 H :    0.014797
  27 H :    0.025724
  28 C :   -0.098133
  29 H :    0.041862
  30 H :    0.043811
  31 H :    0.035520
  32 H :    0.032762
  33 H :    0.044810
Sum of atomic charges:    0.0000000

LOEWDIN ATOMIC CHARGES
----------------------
   0 S :    0.369930
   1 C :   -0.187595
   2 C :   -0.064732
   3 C :   -0.054139
   4 C :   -0.171702
   5 H :    0.028954
   6 C :   -0.032177
   7 H :    0.032153
   8 H :    0.036952
   9 C :   -0.039367
  10 H :    0.021664
  11 H :    0.032815
  12 C :   -0.066738
  13 H :    0.029591
  14 H :    0.027352
  15 H :    0.016835
  16 S :    0.408109
  17 C :   -0.185765
  18 C :   -0.074708
  19 C :   -0.059595
  20 C :   -0.195972
  21 H :    0.036009
  22 C :   -0.026291
  23 H :    0.023346
  24 H :    0.026945
  25 C :   -0.033675
  26 H :    0.022229
  27 H :    0.026237
  28 C :   -0.077521
  29 H :    0.030262
  30 H :    0.028634
  31 H :    0.026819
  32 H :    0.022473
  33 H :    0.022666

  Mayer bond orders larger than 0.100000
B(  0-S ,  1-C ) :   1.1195 B(  0-S ,  4-C ) :   1.1195 B(  1-C ,  2-C ) :   1.6454
B(  1-C , 32-H ) :   0.9712 B(  2-C ,  3-C ) :   1.1831 B(  2-C ,  6-C ) :   1.0225
B(  3-C ,  4-C ) :   1.6299 B(  3-C ,  5-H ) :   0.9894 B(  4-C , 20-C ) :   1.0474
B(  6-C ,  7-H ) :   0.9387 B(  6-C ,  8-H ) :   0.9392 B(  6-C ,  9-C ) :   1.0545
B(  9-C , 10-H ) :   0.9608 B(  9-C , 11-H ) :   0.9559 B(  9-C , 12-C ) :   1.0744
B( 12-C , 13-H ) :   0.9740 B( 12-C , 14-H ) :   0.9764 B( 12-C , 15-H ) :   0.9807
B( 16-S , 17-C ) :   1.1695 B( 16-S , 20-C ) :   1.1304 B( 17-C , 18-C ) :   1.5993
B( 17-C , 33-H ) :   0.9663 B( 18-C , 19-C ) :   1.2495 B( 18-C , 21-H ) :   0.9935
B( 19-C , 20-C ) :   1.6147 B( 19-C , 22-C ) :   1.0236 B( 22-C , 23-H ) :   0.9267
B( 22-C , 24-H ) :   0.9275 B( 22-C , 25-C ) :   1.0805 B( 25-C , 26-H ) :   0.9469
B( 25-C , 27-H ) :   0.9538 B( 25-C , 28-C ) :   1.0667 B( 28-C , 29-H ) :   0.9756
B( 28-C , 30-H ) :   0.9740 B( 28-C , 31-H ) :   0.9762

Dispersion correction           -0.013974377
FINAL SINGLE POINT ENERGY     -1339.870041980671

DIPOLE MOMENT
-------------
                                X             Y             Z
Electronic contribution:    -16.21879      -4.53910     -18.72798
Nuclear contribution   :     16.72165       4.73548      19.12154
                        -----------------------------------------
Total Dipole Moment    :      0.50285       0.19638       0.39356
                        -----------------------------------------
Magnitude (a.u.)       :      0.66807
Magnitude (Debye)      :      1.69810

Rotational constants in cm-1:     0.019603     0.007713     0.006598
Rotational constants in MHz :   587.682176   231.225394   197.789721

                             ****ORCA TERMINATED NORMALLY****
TOTAL RUN TIME: 0 days 0 hours 0 minutes 33 seconds 160 msec
