                         Program Version 4.2.1 -  RELEASE  -
|  1> ! wB97X-D3 SP def2-SVP
|  2> %pal
|  3> nprocs 16
|  4> end
|  5>
|  6> * xyz 0 1
|  7> S 	 42.5047 	 11.3736 	 86.1448
|  8> C 	 42.9451 	 9.79828 	 86.9109
|  9> C 	 44.2847 	 9.87283 	 87.3288
| 10> C 	 44.8667 	 11.2151 	 87.2331
| 11> C 	 44.0153 	 12.103 	 86.6547
| 12> H 	 45.9269 	 11.4579 	 87.514
| 13> C 	 45.1042 	 8.69946 	 87.8083
| 14> H 	 45.6092 	 8.46593 	 86.8891
| 15> H 	 44.3313 	 7.93784 	 87.9514
| 16> C 	 46.1095 	 9.03333 	 88.9564
| 17> H 	 46.7357 	 8.17101 	 89.0544
| 18> H 	 46.7708 	 9.87348 	 88.7625
| 19> C 	 45.4018 	 9.24449 	 90.3514
| 20> H 	 44.6554 	 10.0761 	 90.301
| 21> H 	 44.8536 	 8.33985 	 90.7013
| 22> H 	 46.1726 	 9.46282 	 91.1208
| 23> S 	 43.6188 	 14.2162 	 84.9178
| 24> C 	 44.3944 	 15.7438 	 85.2142
| 25> C 	 44.8848 	 15.7994 	 86.4903
| 26> C 	 44.7878 	 14.5659 	 87.1864
| 27> C 	 44.2324 	 13.5315 	 86.4203
| 28> H 	 45.3287 	 16.7318 	 86.7464
| 29> C 	 45.1944 	 14.4527 	 88.6608
| 30> H 	 46.2494 	 14.6094 	 88.7132
| 31> H 	 44.9374 	 13.4188 	 88.9464
| 32> C 	 44.5826 	 15.5234 	 89.5088
| 33> H 	 45.0438 	 16.4392 	 89.1923
| 34> H 	 44.8538 	 15.2066 	 90.4642
| 35> C 	 43.0325 	 15.5421 	 89.504
| 36> H 	 42.4849 	 14.5922 	 89.3828
| 37> H 	 42.7305 	 16.0837 	 88.6029
| 38> H 	 42.4652 	 16.0718 	 90.3167
| 39> H 	 42.2477 	 8.95307 	 86.7886
| 40> H 	 44.4062 	 16.518 	 84.4489
| 41> *
| 42>
| 43>                          ****END OF INPUT****

CARTESIAN COORDINATES (ANGSTROEM)
---------------------------------
  S     42.504700   11.373600   86.144800
  C     42.945100    9.798280   86.910900
  C     44.284700    9.872830   87.328800
  C     44.866700   11.215100   87.233100
  C     44.015300   12.103000   86.654700
  H     45.926900   11.457900   87.514000
  C     45.104200    8.699460   87.808300
  H     45.609200    8.465930   86.889100
  H     44.331300    7.937840   87.951400
  C     46.109500    9.033330   88.956400
  H     46.735700    8.171010   89.054400
  H     46.770800    9.873480   88.762500
  C     45.401800    9.244490   90.351400
  H     44.655400   10.076100   90.301000
  H     44.853600    8.339850   90.701300
  H     46.172600    9.462820   91.120800
  S     43.618800   14.216200   84.917800
  C     44.394400   15.743800   85.214200
  C     44.884800   15.799400   86.490300
  C     44.787800   14.565900   87.186400
  C     44.232400   13.531500   86.420300
  H     45.328700   16.731800   86.746400
  C     45.194400   14.452700   88.660800
  H     46.249400   14.609400   88.713200
  H     44.937400   13.418800   88.946400
  C     44.582600   15.523400   89.508800
  H     45.043800   16.439200   89.192300
  H     44.853800   15.206600   90.464200
  C     43.032500   15.542100   89.504000
  H     42.484900   14.592200   89.382800
  H     42.730500   16.083700   88.602900
  H     42.465200   16.071800   90.316700
  H     42.247700    8.953070   86.788600
  H     44.406200   16.518000   84.448900

 Total Charge           Charge          ....    0
 Multiplicity           Mult            ....    1
 Number of Electrons    NEL             ....  134
 Basis Dimension        Dim             ....  322

ORBITAL ENERGIES
----------------

  NO   OCC          E(Eh)            E(eV)
   0   2.0000     -88.960875     -2420.7485
   1   2.0000     -88.960672     -2420.7430
   2   2.0000     -10.332024      -281.1487
   3   2.0000     -10.327731      -281.0318
   4   2.0000     -10.320572      -280.8370
   5   2.0000     -10.316755      -280.7332
   6   2.0000     -10.308862      -280.5184
   7   2.0000     -10.304399      -280.3970
   8   2.0000     -10.298184      -280.2278
   9   2.0000     -10.295183      -280.1462
  10   2.0000     -10.294451      -280.1262
  11   2.0000     -10.290968      -280.0315
  12   2.0000     -10.287525      -279.9378
  13   2.0000     -10.286522      -279.9105
  14   2.0000     -10.280225      -279.7391
  15   2.0000     -10.275060      -279.5986
  16   2.0000      -8.075870      -219.7556
  17   2.0000      -8.075153      -219.7361
  18   2.0000      -6.034356      -164.2032
  19   2.0000      -6.033916      -164.1912
  20   2.0000      -6.030304      -164.0929
  21   2.0000      -6.029783      -164.0787
  22   2.0000      -6.026651      -163.9935
  23   2.0000      -6.025628      -163.9657
  24   2.0000      -1.004411       -27.3314
  25   2.0000      -0.979617       -26.6567
  26   2.0000      -0.914945       -24.8969
  27   2.0000      -0.908693       -24.7268
  28   2.0000      -0.866266       -23.5723
  29   2.0000      -0.843720       -22.9588
  30   2.0000      -0.835972       -22.7480
  31   2.0000      -0.816746       -22.2248
  32   2.0000      -0.782283       -21.2870
  33   2.0000      -0.770841       -20.9756
  34   2.0000      -0.714085       -19.4313
  35   2.0000      -0.699193       -19.0260
  36   2.0000      -0.693086       -18.8598
  37   2.0000      -0.654094       -17.7988
  38   2.0000      -0.636049       -17.3078
  39   2.0000      -0.622580       -16.9413
  40   2.0000      -0.598593       -16.2886
  41   2.0000      -0.563192       -15.3252
  42   2.0000      -0.557239       -15.1632
  43   2.0000      -0.551773       -15.0145
  44   2.0000      -0.540366       -14.7041
  45   2.0000      -0.532816       -14.4987
  46   2.0000      -0.526649       -14.3308
  47   2.0000      -0.509740       -13.8707
  48   2.0000      -0.503250       -13.6941
  49   2.0000      -0.495076       -13.4717
  50   2.0000      -0.487128       -13.2554
  51   2.0000      -0.473982       -12.8977
  52   2.0000      -0.465407       -12.6644
  53   2.0000      -0.459739       -12.5101
  54   2.0000      -0.453041       -12.3279
  55   2.0000      -0.447333       -12.1725
  56   2.0000      -0.441874       -12.0240
  57   2.0000      -0.440609       -11.9896
  58   2.0000      -0.434693       -11.8286
  59   2.0000      -0.432234       -11.7617
  60   2.0000      -0.426121       -11.5953
  61   2.0000      -0.409059       -11.1311
  62   2.0000      -0.403185       -10.9712
  63   2.0000      -0.352294        -9.5864
  64   2.0000      -0.329914        -8.9774
  65   2.0000      -0.323892        -8.8135
  66   2.0000      -0.287726        -7.8294
  67   0.0000       0.027942         0.7603
  68   0.0000       0.071947         1.9578
  69   0.0000       0.103439         2.8147
  70   0.0000       0.121824         3.3150
  71   0.0000       0.135411         3.6847

MULLIKEN ATOMIC CHARGES
-----------------------
   0 S :    0.077270
   1 C :   -0.149413
   2 C :   -0.126694
   3 C :   -0.014433
   4 C :   -0.102038
   5 H :    0.039166
   6 C :    0.090765
   7 H :    0.044078
   8 H :    0.022250
   9 C :   -0.059733
  10 H :    0.026985
  11 H :    0.035995
  12 C :   -0.090926
  13 H :    0.050610
  14 H :    0.038541
  15 H :    0.042055
  16 S :    0.085910
  17 C :   -0.099487
  18 C :   -0.034743
  19 C :   -0.051311
  20 C :   -0.152959
  21 H :    0.011638
  22 C :    0.092036
  23 H :    0.024705
  24 H :    0.024268
  25 C :   -0.022571
  26 H :    0.030909
  27 H :    0.019005
  28 C :   -0.085197
  29 H :    0.038234
  30 H :    0.027394
  31 H :    0.040428
  32 H :    0.066076
  33 H :    0.061189
Sum of atomic charges:    0.0000000

LOEWDIN ATOMIC CHARGES
----------------------
   0 S :    0.367335
   1 C :   -0.199126
   2 C :   -0.052373
   3 C :   -0.082296
   4 C :   -0.178395
   5 H :    0.041882
   6 C :   -0.032030
   7 H :    0.038333
   8 H :    0.034237
   9 C :   -0.036445
  10 H :    0.023259
  11 H :    0.024650
  12 C :   -0.071803
  13 H :    0.029053
  14 H :    0.027832
  15 H :    0.028391
  16 S :    0.395684
  17 C :   -0.176896
  18 C :   -0.077356
  19 C :   -0.053742
  20 C :   -0.196787
  21 H :    0.029321
  22 C :   -0.024055
  23 H :    0.028841
  24 H :    0.029368
  25 C :   -0.031093
  26 H :    0.023380
  27 H :    0.020765
  28 C :   -0.081254
  29 H :    0.031450
  30 H :    0.026678
  31 H :    0.030217
  32 H :    0.032855
  33 H :    0.030121

  Mayer bond orders larger than 0.100000
B(  0-S ,  1-C ) :   1.0968 B(  0-S ,  4-C ) :   1.1471 B(  1-C ,  2-C ) :   1.6283
B(  1-C , 32-H ) :   0.9712 B(  2-C ,  3-C ) :   1.1948 B(  2-C ,  6-C ) :   1.0057
B(  3-C ,  4-C ) :   1.6056 B(  3-C ,  5-H ) :   0.9850 B(  4-C , 20-C ) :   1.0418
B(  6-C ,  7-H ) :   0.9302 B(  6-C ,  8-H ) :   0.9451 B(  6-C ,  9-C ) :   1.0657
B(  9-C , 10-H ) :   0.9546 B(  9-C , 11-H ) :   0.9545 B(  9-C , 12-C ) :   1.0671
B( 12-C , 13-H ) :   0.9775 B( 12-C , 14-H ) :   0.9770 B( 12-C , 15-H ) :   0.9760
B( 16-S , 17-C ) :   1.1649 B( 16-S , 20-C ) :   1.1342 B( 17-C , 18-C ) :   1.6029
B( 17-C , 20-C ) :   0.1015 B( 17-C , 33-H ) :   0.9688 B( 18-C , 19-C ) :   1.2176
B( 18-C , 21-H ) :   1.0014 B( 19-C , 20-C ) :   1.5866 B( 19-C , 22-C ) :   1.0290
B( 22-C , 23-H ) :   0.9291 B( 22-C , 24-H ) :   0.9331 B( 22-C , 25-C ) :   1.0859
B( 25-C , 26-H ) :   0.9536 B( 25-C , 27-H ) :   0.9530 B( 25-C , 28-C ) :   1.0615
B( 28-C , 29-H ) :   0.9766 B( 28-C , 30-H ) :   0.9703 B( 28-C , 31-H ) :   0.9792

Dispersion correction           -0.014882443
FINAL SINGLE POINT ENERGY     -1339.874688689377

DIPOLE MOMENT
-------------
                                X             Y             Z
Electronic contribution:     -9.23338       3.56894     -23.78509
Nuclear contribution   :      9.78674      -3.64384      24.18086
                        -----------------------------------------
Total Dipole Moment    :      0.55336      -0.07490       0.39577
                        -----------------------------------------
Magnitude (a.u.)       :      0.68443
Magnitude (Debye)      :      1.73969

Rotational constants in cm-1:     0.019187     0.009205     0.007274
Rotational constants in MHz :   575.211577   275.948475   218.080684

                             ****ORCA TERMINATED NORMALLY****
TOTAL RUN TIME: 0 days 0 hours 0 minutes 29 seconds 775 msec
