                         Program Version 4.2.1 -  RELEASE  -
|  1> ! wB97X-D3 SP def2-SVP
|  2> %pal
|  3> nprocs 16
|  4> end
|  5>
|  6> * xyz 0 1
|  7> S 	 -94.2058 	 50.6349 	 126.683
|  8> C 	 -95.7757 	 50.1501 	 126.233
|  9> C 	 -95.9853 	 50.3733 	 124.897
| 10> C 	 -94.9737 	 51.1798 	 124.282
| 11> C 	 -93.9045 	 51.4542 	 125.111
| 12> H 	 -94.9238 	 51.4872 	 123.226
| 13> C 	 -97.1308 	 49.8115 	 124.062
| 14> H 	 -97.3492 	 50.5188 	 123.239
| 15> H 	 -98.0435 	 49.9165 	 124.706
| 16> C 	 -96.8955 	 48.4201 	 123.565
| 17> H 	 -97.7261 	 48.1564 	 122.912
| 18> H 	 -96.0713 	 48.45 	 122.951
| 19> C 	 -96.7938 	 47.3268 	 124.58
| 20> H 	 -96.7115 	 46.3452 	 124.077
| 21> H 	 -95.8749 	 47.5049 	 125.118
| 22> H 	 -97.7079 	 47.367 	 125.227
| 23> S 	 -92.5523 	 53.4807 	 123.861
| 24> C 	 -90.8796 	 53.6103 	 123.965
| 25> C 	 -90.3055 	 52.565 	 124.554
| 26> C 	 -91.2908 	 51.6716 	 125.137
| 27> C 	 -92.571 	 52.0092 	 124.798
| 28> H 	 -89.2822 	 52.3434 	 124.635
| 29> C 	 -90.8497 	 50.2923 	 125.583
| 30> H 	 -91.3746 	 50.0185 	 126.523
| 31> H 	 -89.8186 	 50.3298 	 125.981
| 32> C 	 -91.0834 	 49.227 	 124.454
| 33> H 	 -90.5571 	 49.5239 	 123.554
| 34> H 	 -92.1252 	 49.2987 	 124.069
| 35> C 	 -90.6471 	 47.7745 	 124.844
| 36> H 	 -91.1138 	 47.5622 	 125.837
| 37> H 	 -89.6227 	 47.7455 	 125.131
| 38> H 	 -90.8027 	 47.0411 	 123.942
| 39> H 	 -96.4116 	 49.6563 	 126.938
| 40> H 	 -90.2961 	 54.2843 	 123.365
| 41> *
| 42>
| 43>                          ****END OF INPUT****

CARTESIAN COORDINATES (ANGSTROEM)
---------------------------------
  S    -94.205800   50.634900  126.683000
  C    -95.775700   50.150100  126.233000
  C    -95.985300   50.373300  124.897000
  C    -94.973700   51.179800  124.282000
  C    -93.904500   51.454200  125.111000
  H    -94.923800   51.487200  123.226000
  C    -97.130800   49.811500  124.062000
  H    -97.349200   50.518800  123.239000
  H    -98.043500   49.916500  124.706000
  C    -96.895500   48.420100  123.565000
  H    -97.726100   48.156400  122.912000
  H    -96.071300   48.450000  122.951000
  C    -96.793800   47.326800  124.580000
  H    -96.711500   46.345200  124.077000
  H    -95.874900   47.504900  125.118000
  H    -97.707900   47.367000  125.227000
  S    -92.552300   53.480700  123.861000
  C    -90.879600   53.610300  123.965000
  C    -90.305500   52.565000  124.554000
  C    -91.290800   51.671600  125.137000
  C    -92.571000   52.009200  124.798000
  H    -89.282200   52.343400  124.635000
  C    -90.849700   50.292300  125.583000
  H    -91.374600   50.018500  126.523000
  H    -89.818600   50.329800  125.981000
  C    -91.083400   49.227000  124.454000
  H    -90.557100   49.523900  123.554000
  H    -92.125200   49.298700  124.069000
  C    -90.647100   47.774500  124.844000
  H    -91.113800   47.562200  125.837000
  H    -89.622700   47.745500  125.131000
  H    -90.802700   47.041100  123.942000
  H    -96.411600   49.656300  126.938000
  H    -90.296100   54.284300  123.365000

 Total Charge           Charge          ....    0
 Multiplicity           Mult            ....    1
 Number of Electrons    NEL             ....  134
 Basis Dimension        Dim             ....  322

ORBITAL ENERGIES
----------------

  NO   OCC          E(Eh)            E(eV)
   0   2.0000     -88.963568     -2420.8218
   1   2.0000     -88.962083     -2420.7814
   2   2.0000     -10.335819      -281.2519
   3   2.0000     -10.326799      -281.0065
   4   2.0000     -10.312319      -280.6125
   5   2.0000     -10.306358      -280.4502
   6   2.0000     -10.300504      -280.2910
   7   2.0000     -10.298784      -280.2442
   8   2.0000     -10.298321      -280.2316
   9   2.0000     -10.294995      -280.1410
  10   2.0000     -10.292818      -280.0818
  11   2.0000     -10.288692      -279.9696
  12   2.0000     -10.286881      -279.9203
  13   2.0000     -10.285309      -279.8775
  14   2.0000     -10.277294      -279.6594
  15   2.0000     -10.273686      -279.5612
  16   2.0000      -8.078650      -219.8312
  17   2.0000      -8.078426      -219.8251
  18   2.0000      -6.037136      -164.2788
  19   2.0000      -6.036908      -164.2726
  20   2.0000      -6.032900      -164.1635
  21   2.0000      -6.032867      -164.1626
  22   2.0000      -6.029328      -164.0664
  23   2.0000      -6.029253      -164.0643
  24   2.0000      -1.013919       -27.5901
  25   2.0000      -0.993115       -27.0240
  26   2.0000      -0.918148       -24.9841
  27   2.0000      -0.901742       -24.5377
  28   2.0000      -0.874700       -23.8018
  29   2.0000      -0.850977       -23.1563
  30   2.0000      -0.844842       -22.9893
  31   2.0000      -0.818539       -22.2736
  32   2.0000      -0.781257       -21.2591
  33   2.0000      -0.769924       -20.9507
  34   2.0000      -0.707154       -19.2426
  35   2.0000      -0.698198       -18.9989
  36   2.0000      -0.690636       -18.7931
  37   2.0000      -0.670666       -18.2497
  38   2.0000      -0.644049       -17.5255
  39   2.0000      -0.617526       -16.8037
  40   2.0000      -0.600288       -16.3347
  41   2.0000      -0.576112       -15.6768
  42   2.0000      -0.552954       -15.0466
  43   2.0000      -0.548866       -14.9354
  44   2.0000      -0.544071       -14.8049
  45   2.0000      -0.525122       -14.2893
  46   2.0000      -0.519643       -14.1402
  47   2.0000      -0.513480       -13.9725
  48   2.0000      -0.503412       -13.6985
  49   2.0000      -0.498510       -13.5651
  50   2.0000      -0.492724       -13.4077
  51   2.0000      -0.479972       -13.0607
  52   2.0000      -0.475281       -12.9330
  53   2.0000      -0.461586       -12.5604
  54   2.0000      -0.452720       -12.3191
  55   2.0000      -0.449417       -12.2292
  56   2.0000      -0.444538       -12.0965
  57   2.0000      -0.441544       -12.0150
  58   2.0000      -0.435888       -11.8611
  59   2.0000      -0.423802       -11.5322
  60   2.0000      -0.417781       -11.3684
  61   2.0000      -0.408490       -11.1156
  62   2.0000      -0.404604       -11.0098
  63   2.0000      -0.360726        -9.8159
  64   2.0000      -0.329930        -8.9779
  65   2.0000      -0.329299        -8.9607
  66   2.0000      -0.291201        -7.9240
  67   0.0000       0.028146         0.7659
  68   0.0000       0.080534         2.1915
  69   0.0000       0.106701         2.9035
  70   0.0000       0.121627         3.3096
  71   0.0000       0.134169         3.6509

MULLIKEN ATOMIC CHARGES
-----------------------
   0 S :    0.095506
   1 C :   -0.108399
   2 C :   -0.105970
   3 C :    0.013053
   4 C :   -0.113014
   5 H :    0.025350
   6 C :    0.041004
   7 H :    0.025568
   8 H :    0.026017
   9 C :   -0.013890
  10 H :    0.022010
  11 H :    0.000706
  12 C :   -0.055755
  13 H :    0.039572
  14 H :    0.041188
  15 H :    0.033713
  16 S :    0.105287
  17 C :   -0.046473
  18 C :   -0.018857
  19 C :   -0.069926
  20 C :   -0.162849
  21 H :   -0.001142
  22 C :    0.027870
  23 H :    0.024780
  24 H :    0.017714
  25 C :   -0.058676
  26 H :    0.016334
  27 H :    0.038465
  28 C :   -0.053315
  29 H :    0.034307
  30 H :    0.018970
  31 H :    0.062526
  32 H :    0.047647
  33 H :    0.050679
Sum of atomic charges:    0.0000000

LOEWDIN ATOMIC CHARGES
----------------------
   0 S :    0.409644
   1 C :   -0.199792
   2 C :   -0.069591
   3 C :   -0.067881
   4 C :   -0.176722
   5 H :    0.035853
   6 C :   -0.034225
   7 H :    0.032994
   8 H :    0.031481
   9 C :   -0.041367
  10 H :    0.025716
  11 H :    0.013483
  12 C :   -0.063030
  13 H :    0.031478
  14 H :    0.023657
  15 H :    0.028441
  16 S :    0.431781
  17 C :   -0.200782
  18 C :   -0.062762
  19 C :   -0.066077
  20 C :   -0.196830
  21 H :    0.024360
  22 C :   -0.040793
  23 H :    0.023402
  24 H :    0.028641
  25 C :   -0.042224
  26 H :    0.020233
  27 H :    0.030308
  28 C :   -0.077028
  29 H :    0.030762
  30 H :    0.017374
  31 H :    0.043568
  32 H :    0.026510
  33 H :    0.029417

  Mayer bond orders larger than 0.100000
B(  0-S ,  1-C ) :   1.1504 B(  0-S ,  4-C ) :   1.1471 B(  1-C ,  2-C ) :   1.5935
B(  1-C , 32-H ) :   0.9763 B(  2-C ,  3-C ) :   1.2578 B(  2-C ,  6-C ) :   1.0152
B(  3-C ,  4-C ) :   1.5644 B(  3-C ,  5-H ) :   0.9869 B(  4-C , 20-C ) :   1.0263
B(  6-C ,  7-H ) :   0.9400 B(  6-C ,  8-H ) :   0.9419 B(  6-C ,  9-C ) :   1.0762
B(  9-C , 10-H ) :   0.9483 B(  9-C , 11-H ) :   0.9455 B(  9-C , 12-C ) :   1.0899
B( 12-C , 13-H ) :   0.9697 B( 12-C , 14-H ) :   0.9714 B( 12-C , 15-H ) :   0.9741
B( 16-S , 17-C ) :   1.1604 B( 16-S , 20-C ) :   1.1445 B( 17-C , 18-C ) :   1.6125
B( 17-C , 33-H ) :   0.9608 B( 18-C , 19-C ) :   1.2412 B( 18-C , 21-H ) :   0.9989
B( 19-C , 20-C ) :   1.6021 B( 19-C , 22-C ) :   1.0680 B( 22-C , 23-H ) :   0.9309
B( 22-C , 24-H ) :   0.9357 B( 22-C , 25-C ) :   1.0380 B( 25-C , 26-H ) :   0.9553
B( 25-C , 27-H ) :   0.9567 B( 25-C , 28-C ) :   1.0687 B( 28-C , 29-H ) :   0.9741
B( 28-C , 30-H ) :   0.9739 B( 28-C , 31-H ) :   0.9724

Dispersion correction           -0.015253231
FINAL SINGLE POINT ENERGY     -1339.878849302961

DIPOLE MOMENT
-------------
                                X             Y             Z
Electronic contribution:      2.98305      24.08032       5.09033
Nuclear contribution   :     -2.90681     -24.55848      -5.47027
                        -----------------------------------------
Total Dipole Moment    :      0.07624      -0.47816      -0.37994
                        -----------------------------------------
Magnitude (a.u.)       :      0.61547
Magnitude (Debye)      :      1.56441

Rotational constants in cm-1:     0.019812     0.009062     0.007501
Rotational constants in MHz :   593.961109   271.678782   224.888636

                             ****ORCA TERMINATED NORMALLY****
TOTAL RUN TIME: 0 days 0 hours 0 minutes 35 seconds 378 msec
