                         Program Version 4.2.1 -  RELEASE  -
|  1> ! wB97X-D3 SP def2-SVP
|  2> %pal
|  3> nprocs 16
|  4> end
|  5>
|  6> * xyz 0 1
|  7> S 	 -37.2145 	 30.1992 	 81.1552
|  8> C 	 -36.6252 	 30.0667 	 79.521
|  9> C 	 -37.5119 	 29.605 	 78.6152
| 10> C 	 -38.7841 	 29.3577 	 79.2743
| 11> C 	 -38.7998 	 29.6957 	 80.6253
| 12> H 	 -39.6981 	 28.9939 	 78.8686
| 13> C 	 -37.2987 	 29.3704 	 77.1493
| 14> H 	 -37.6122 	 28.3616 	 76.9053
| 15> H 	 -36.1871 	 29.4416 	 77.0341
| 16> C 	 -37.9205 	 30.3528 	 76.206
| 17> H 	 -38.9981 	 30.0351 	 76.0701
| 18> H 	 -37.9917 	 31.2224 	 76.7257
| 19> C 	 -37.2037 	 30.359 	 74.8466
| 20> H 	 -37.3415 	 29.399 	 74.3562
| 21> H 	 -37.6749 	 31.088 	 74.1495
| 22> H 	 -36.1156 	 30.6985 	 75.0261
| 23> S 	 -40.63 	 31.1535 	 82.1946
| 24> C 	 -41.8499 	 30.1905 	 83.0032
| 25> C 	 -41.8123 	 28.8329 	 82.7275
| 26> C 	 -40.7544 	 28.4863 	 81.862
| 27> C 	 -39.9392 	 29.6021 	 81.543
| 28> H 	 -42.4234 	 28.1276 	 83.2146
| 29> C 	 -40.4579 	 27.0637 	 81.5564
| 30> H 	 -40.4921 	 26.5754 	 82.4962
| 31> H 	 -39.4866 	 26.7919 	 81.0861
| 32> C 	 -41.6156 	 26.4646 	 80.7799
| 33> H 	 -41.4312 	 26.8193 	 79.7054
| 34> H 	 -42.6699 	 26.7878 	 81.1186
| 35> C 	 -41.5946 	 24.9207 	 80.8477
| 36> H 	 -42.0187 	 24.4577 	 81.7935
| 37> H 	 -40.5488 	 24.6589 	 80.9325
| 38> H 	 -42.0991 	 24.3314 	 80.0399
| 39> H 	 -35.5308 	 30.1982 	 79.3245
| 40> H 	 -42.5734 	 30.6601 	 83.6517
| 41> *
| 42>
| 43>                          ****END OF INPUT****

CARTESIAN COORDINATES (ANGSTROEM)
---------------------------------
  S    -37.214500   30.199200   81.155200
  C    -36.625200   30.066700   79.521000
  C    -37.511900   29.605000   78.615200
  C    -38.784100   29.357700   79.274300
  C    -38.799800   29.695700   80.625300
  H    -39.698100   28.993900   78.868600
  C    -37.298700   29.370400   77.149300
  H    -37.612200   28.361600   76.905300
  H    -36.187100   29.441600   77.034100
  C    -37.920500   30.352800   76.206000
  H    -38.998100   30.035100   76.070100
  H    -37.991700   31.222400   76.725700
  C    -37.203700   30.359000   74.846600
  H    -37.341500   29.399000   74.356200
  H    -37.674900   31.088000   74.149500
  H    -36.115600   30.698500   75.026100
  S    -40.630000   31.153500   82.194600
  C    -41.849900   30.190500   83.003200
  C    -41.812300   28.832900   82.727500
  C    -40.754400   28.486300   81.862000
  C    -39.939200   29.602100   81.543000
  H    -42.423400   28.127600   83.214600
  C    -40.457900   27.063700   81.556400
  H    -40.492100   26.575400   82.496200
  H    -39.486600   26.791900   81.086100
  C    -41.615600   26.464600   80.779900
  H    -41.431200   26.819300   79.705400
  H    -42.669900   26.787800   81.118600
  C    -41.594600   24.920700   80.847700
  H    -42.018700   24.457700   81.793500
  H    -40.548800   24.658900   80.932500
  H    -42.099100   24.331400   80.039900
  H    -35.530800   30.198200   79.324500
  H    -42.573400   30.660100   83.651700

 Total Charge           Charge          ....    0
 Multiplicity           Mult            ....    1
 Number of Electrons    NEL             ....  134
 Basis Dimension        Dim             ....  322

ORBITAL ENERGIES
----------------

  NO   OCC          E(Eh)            E(eV)
   0   2.0000     -88.967182     -2420.9201
   1   2.0000     -88.963266     -2420.8135
   2   2.0000     -10.329862      -281.0898
   3   2.0000     -10.326441      -280.9968
   4   2.0000     -10.319743      -280.8145
   5   2.0000     -10.312945      -280.6295
   6   2.0000     -10.305866      -280.4369
   7   2.0000     -10.299784      -280.2714
   8   2.0000     -10.299150      -280.2541
   9   2.0000     -10.292703      -280.0787
  10   2.0000     -10.291493      -280.0458
  11   2.0000     -10.290372      -280.0153
  12   2.0000     -10.290053      -280.0066
  13   2.0000     -10.289577      -279.9936
  14   2.0000     -10.285102      -279.8718
  15   2.0000     -10.279697      -279.7248
  16   2.0000      -8.080926      -219.8932
  17   2.0000      -8.078520      -219.8277
  18   2.0000      -6.039323      -164.3383
  19   2.0000      -6.036977      -164.2745
  20   2.0000      -6.035743      -164.2409
  21   2.0000      -6.033048      -164.1676
  22   2.0000      -6.031701      -164.1309
  23   2.0000      -6.029224      -164.0635
  24   2.0000      -1.001809       -27.2606
  25   2.0000      -0.981731       -26.7143
  26   2.0000      -0.918979       -25.0067
  27   2.0000      -0.915965       -24.9247
  28   2.0000      -0.866901       -23.5896
  29   2.0000      -0.850244       -23.1363
  30   2.0000      -0.845690       -23.0124
  31   2.0000      -0.809212       -22.0198
  32   2.0000      -0.782464       -21.2919
  33   2.0000      -0.769331       -20.9346
  34   2.0000      -0.705434       -19.1958
  35   2.0000      -0.695406       -18.9230
  36   2.0000      -0.690430       -18.7876
  37   2.0000      -0.662827       -18.0364
  38   2.0000      -0.643637       -17.5143
  39   2.0000      -0.616977       -16.7888
  40   2.0000      -0.604073       -16.4377
  41   2.0000      -0.579860       -15.7788
  42   2.0000      -0.563818       -15.3423
  43   2.0000      -0.553668       -15.0661
  44   2.0000      -0.524859       -14.2821
  45   2.0000      -0.522893       -14.2287
  46   2.0000      -0.518139       -14.0993
  47   2.0000      -0.508167       -13.8279
  48   2.0000      -0.507645       -13.8137
  49   2.0000      -0.497006       -13.5242
  50   2.0000      -0.483749       -13.1635
  51   2.0000      -0.471541       -12.8313
  52   2.0000      -0.470716       -12.8088
  53   2.0000      -0.462902       -12.5962
  54   2.0000      -0.460159       -12.5216
  55   2.0000      -0.455140       -12.3850
  56   2.0000      -0.443924       -12.0798
  57   2.0000      -0.436932       -11.8895
  58   2.0000      -0.433381       -11.7929
  59   2.0000      -0.427886       -11.6434
  60   2.0000      -0.424048       -11.5389
  61   2.0000      -0.414936       -11.2910
  62   2.0000      -0.414744       -11.2858
  63   2.0000      -0.337828        -9.1928
  64   2.0000      -0.332417        -9.0455
  65   2.0000      -0.328378        -8.9356
  66   2.0000      -0.295647        -8.0450
  67   0.0000       0.035635         0.9697
  68   0.0000       0.064668         1.7597
  69   0.0000       0.111486         3.0337
  70   0.0000       0.116859         3.1799
  71   0.0000       0.122351         3.3293

MULLIKEN ATOMIC CHARGES
-----------------------
   0 S :    0.111097
   1 C :   -0.144505
   2 C :   -0.083468
   3 C :    0.048314
   4 C :   -0.185460
   5 H :   -0.004804
   6 C :    0.067770
   7 H :    0.027384
   8 H :    0.011734
   9 C :   -0.035073
  10 H :    0.027561
  11 H :    0.009473
  12 C :   -0.073321
  13 H :    0.039747
  14 H :    0.040568
  15 H :    0.052030
  16 S :    0.103794
  17 C :   -0.083755
  18 C :   -0.015825
  19 C :    0.001317
  20 C :   -0.175589
  21 H :    0.005310
  22 C :    0.083658
  23 H :    0.016472
  24 H :    0.050367
  25 C :   -0.145332
  26 H :    0.042814
  27 H :    0.054940
  28 C :   -0.067509
  29 H :    0.034555
  30 H :    0.021285
  31 H :    0.048772
  32 H :    0.060785
  33 H :    0.054894
Sum of atomic charges:   -0.0000000

LOEWDIN ATOMIC CHARGES
----------------------
   0 S :    0.403681
   1 C :   -0.200721
   2 C :   -0.068391
   3 C :   -0.054867
   4 C :   -0.201248
   5 H :    0.023771
   6 C :   -0.031265
   7 H :    0.029365
   8 H :    0.030400
   9 C :   -0.039947
  10 H :    0.029807
  11 H :    0.010409
  12 C :   -0.067634
  13 H :    0.027500
  14 H :    0.029820
  15 H :    0.035996
  16 S :    0.379542
  17 C :   -0.170363
  18 C :   -0.066460
  19 C :   -0.042102
  20 C :   -0.189724
  21 H :    0.025761
  22 C :   -0.034385
  23 H :    0.027981
  24 H :    0.039581
  25 C :   -0.048557
  26 H :    0.030754
  27 H :    0.032323
  28 C :   -0.081636
  29 H :    0.029743
  30 H :    0.020690
  31 H :    0.031416
  32 H :    0.034049
  33 H :    0.024714

  Mayer bond orders larger than 0.100000
B(  0-S ,  1-C ) :   1.1327 B(  0-S ,  4-C ) :   1.1501 B(  1-C ,  2-C ) :   1.6544
B(  1-C , 32-H ) :   0.9540 B(  2-C ,  3-C ) :   1.1937 B(  2-C ,  6-C ) :   1.0308
B(  3-C ,  4-C ) :   1.6048 B(  3-C ,  5-H ) :   1.0026 B(  4-C , 20-C ) :   1.0276
B(  6-C ,  7-H ) :   0.9312 B(  6-C ,  8-H ) :   0.9402 B(  6-C ,  9-C ) :   1.0607
B(  9-C , 10-H ) :   0.9451 B(  9-C , 11-H ) :   0.9585 B(  9-C , 12-C ) :   1.0837
B( 12-C , 13-H ) :   0.9729 B( 12-C , 14-H ) :   0.9746 B( 12-C , 15-H ) :   0.9737
B( 16-S , 17-C ) :   1.1604 B( 16-S , 20-C ) :   1.1252 B( 17-C , 18-C ) :   1.6063
B( 17-C , 20-C ) :   0.1009 B( 17-C , 33-H ) :   0.9663 B( 18-C , 19-C ) :   1.2356
B( 18-C , 21-H ) :   0.9920 B( 19-C , 20-C ) :   1.5942 B( 19-C , 22-C ) :   1.0448
B( 22-C , 23-H ) :   0.9359 B( 22-C , 24-H ) :   0.9326 B( 22-C , 25-C ) :   1.0372
B( 25-C , 26-H ) :   0.9530 B( 25-C , 27-H ) :   0.9633 B( 25-C , 28-C ) :   1.0604
B( 28-C , 29-H ) :   0.9738 B( 28-C , 30-H ) :   0.9720 B( 28-C , 31-H ) :   0.9757

Dispersion correction           -0.013723581
FINAL SINGLE POINT ENERGY     -1339.873162652527

DIPOLE MOMENT
-------------
                                X             Y             Z
Electronic contribution:      2.90265      17.11923      21.06634
Nuclear contribution   :     -3.10186     -17.62516     -21.38375
                        -----------------------------------------
Total Dipole Moment    :     -0.19921      -0.50592      -0.31741
                        -----------------------------------------
Magnitude (a.u.)       :      0.62960
Magnitude (Debye)      :      1.60031

Rotational constants in cm-1:     0.017435     0.007899     0.006428
Rotational constants in MHz :   522.703005   236.792606   192.694022

                             ****ORCA TERMINATED NORMALLY****
TOTAL RUN TIME: 0 days 0 hours 0 minutes 29 seconds 93 msec
