                         Program Version 4.2.1 -  RELEASE  -
|  1> ! wB97X-D3 SP def2-SVP
|  2> %pal
|  3> nprocs 16
|  4> end
|  5>
|  6> * xyz 0 1
|  7> S 	 -52.3553 	 58.3263 	 135.051
|  8> C 	 -51.7165 	 58.1335 	 133.397
|  9> C 	 -52.2368 	 59.0983 	 132.529
| 10> C 	 -52.9563 	 60.1131 	 133.287
| 11> C 	 -53.1279 	 59.8065 	 134.643
| 12> H 	 -53.3014 	 61.0036 	 132.871
| 13> C 	 -51.9665 	 59.1091 	 130.981
| 14> H 	 -52.8247 	 59.7561 	 130.616
| 15> H 	 -52.1047 	 58.049 	 130.601
| 16> C 	 -50.6037 	 59.7239 	 130.679
| 17> H 	 -50.5082 	 60.7138 	 131.132
| 18> H 	 -49.7974 	 59.0652 	 131.083
| 19> C 	 -50.422 	 59.7339 	 129.144
| 20> H 	 -49.468 	 60.1257 	 128.895
| 21> H 	 -50.5962 	 58.805 	 128.699
| 22> H 	 -51.0864 	 60.4013 	 128.595
| 23> S 	 -55.2122 	 59.7968 	 136.392
| 24> C 	 -55.6016 	 61.2808 	 137.306
| 25> C 	 -54.6946 	 62.2848 	 137.022
| 26> C 	 -53.7757 	 61.8968 	 135.957
| 27> C 	 -53.8949 	 60.5764 	 135.576
| 28> H 	 -54.7538 	 63.2895 	 137.42
| 29> C 	 -52.5663 	 62.8114 	 135.524
| 30> H 	 -52.8529 	 63.0583 	 134.534
| 31> H 	 -51.6211 	 62.2848 	 135.608
| 32> C 	 -52.3473 	 64.1321 	 136.323
| 33> H 	 -52.1244 	 63.7758 	 137.286
| 34> H 	 -53.2319 	 64.7193 	 136.267
| 35> C 	 -51.0883 	 64.8671 	 135.749
| 36> H 	 -51.0453 	 65.8889 	 135.996
| 37> H 	 -51.154 	 64.6951 	 134.652
| 38> H 	 -50.2403 	 64.3917 	 136.156
| 39> H 	 -51.0627 	 57.304 	 133.102
| 40> H 	 -56.1676 	 61.3466 	 138.197
| 41> *
| 42>
| 43>                          ****END OF INPUT****

CARTESIAN COORDINATES (ANGSTROEM)
---------------------------------
  S    -52.355300   58.326300  135.051000
  C    -51.716500   58.133500  133.397000
  C    -52.236800   59.098300  132.529000
  C    -52.956300   60.113100  133.287000
  C    -53.127900   59.806500  134.643000
  H    -53.301400   61.003600  132.871000
  C    -51.966500   59.109100  130.981000
  H    -52.824700   59.756100  130.616000
  H    -52.104700   58.049000  130.601000
  C    -50.603700   59.723900  130.679000
  H    -50.508200   60.713800  131.132000
  H    -49.797400   59.065200  131.083000
  C    -50.422000   59.733900  129.144000
  H    -49.468000   60.125700  128.895000
  H    -50.596200   58.805000  128.699000
  H    -51.086400   60.401300  128.595000
  S    -55.212200   59.796800  136.392000
  C    -55.601600   61.280800  137.306000
  C    -54.694600   62.284800  137.022000
  C    -53.775700   61.896800  135.957000
  C    -53.894900   60.576400  135.576000
  H    -54.753800   63.289500  137.420000
  C    -52.566300   62.811400  135.524000
  H    -52.852900   63.058300  134.534000
  H    -51.621100   62.284800  135.608000
  C    -52.347300   64.132100  136.323000
  H    -52.124400   63.775800  137.286000
  H    -53.231900   64.719300  136.267000
  C    -51.088300   64.867100  135.749000
  H    -51.045300   65.888900  135.996000
  H    -51.154000   64.695100  134.652000
  H    -50.240300   64.391700  136.156000
  H    -51.062700   57.304000  133.102000
  H    -56.167600   61.346600  138.197000

 Total Charge           Charge          ....    0
 Multiplicity           Mult            ....    1
 Number of Electrons    NEL             ....  134
 Basis Dimension        Dim             ....  322

ORBITAL ENERGIES
----------------

  NO   OCC          E(Eh)            E(eV)
   0   2.0000     -88.967589     -2420.9312
   1   2.0000     -88.963858     -2420.8296
   2   2.0000     -10.326609      -281.0013
   3   2.0000     -10.321631      -280.8658
   4   2.0000     -10.317720      -280.7594
   5   2.0000     -10.314931      -280.6835
   6   2.0000     -10.307281      -280.4754
   7   2.0000     -10.307133      -280.4714
   8   2.0000     -10.303165      -280.3634
   9   2.0000     -10.296481      -280.1815
  10   2.0000     -10.294429      -280.1257
  11   2.0000     -10.294261      -280.1211
  12   2.0000     -10.289041      -279.9790
  13   2.0000     -10.281511      -279.7741
  14   2.0000     -10.275612      -279.6136
  15   2.0000     -10.271332      -279.4971
  16   2.0000      -8.082137      -219.9261
  17   2.0000      -8.078346      -219.8230
  18   2.0000      -6.040634      -164.3740
  19   2.0000      -6.036982      -164.2746
  20   2.0000      -6.036606      -164.2644
  21   2.0000      -6.032994      -164.1661
  22   2.0000      -6.032839      -164.1619
  23   2.0000      -6.029025      -164.0581
  24   2.0000      -1.004121       -27.3235
  25   2.0000      -0.976451       -26.5706
  26   2.0000      -0.910607       -24.7789
  27   2.0000      -0.904864       -24.6226
  28   2.0000      -0.869963       -23.6729
  29   2.0000      -0.847422       -23.0595
  30   2.0000      -0.841049       -22.8861
  31   2.0000      -0.811723       -22.0881
  32   2.0000      -0.780519       -21.2390
  33   2.0000      -0.769428       -20.9372
  34   2.0000      -0.706583       -19.2271
  35   2.0000      -0.701794       -19.0968
  36   2.0000      -0.699344       -19.0301
  37   2.0000      -0.654452       -17.8085
  38   2.0000      -0.640425       -17.4268
  39   2.0000      -0.616434       -16.7740
  40   2.0000      -0.591376       -16.0922
  41   2.0000      -0.582653       -15.8548
  42   2.0000      -0.564915       -15.3721
  43   2.0000      -0.561953       -15.2915
  44   2.0000      -0.530523       -14.4363
  45   2.0000      -0.521652       -14.1949
  46   2.0000      -0.517736       -14.0883
  47   2.0000      -0.512622       -13.9492
  48   2.0000      -0.500903       -13.6303
  49   2.0000      -0.499093       -13.5810
  50   2.0000      -0.493374       -13.4254
  51   2.0000      -0.477665       -12.9979
  52   2.0000      -0.463642       -12.6163
  53   2.0000      -0.462382       -12.5820
  54   2.0000      -0.457029       -12.4364
  55   2.0000      -0.453361       -12.3366
  56   2.0000      -0.450094       -12.2477
  57   2.0000      -0.442159       -12.0318
  58   2.0000      -0.441018       -12.0007
  59   2.0000      -0.425441       -11.5768
  60   2.0000      -0.418452       -11.3867
  61   2.0000      -0.413239       -11.2448
  62   2.0000      -0.409779       -11.1507
  63   2.0000      -0.342657        -9.3242
  64   2.0000      -0.330910        -9.0045
  65   2.0000      -0.327333        -8.9072
  66   2.0000      -0.292767        -7.9666
  67   0.0000       0.031762         0.8643
  68   0.0000       0.067493         1.8366
  69   0.0000       0.111443         3.0325
  70   0.0000       0.128018         3.4836
  71   0.0000       0.129208         3.5159

MULLIKEN ATOMIC CHARGES
-----------------------
   0 S :    0.117515
   1 C :   -0.139882
   2 C :   -0.089401
   3 C :    0.055123
   4 C :   -0.158318
   5 H :   -0.015413
   6 C :    0.011644
   7 H :    0.040374
   8 H :    0.051400
   9 C :   -0.071693
  10 H :    0.038441
  11 H :    0.038008
  12 C :    0.003287
  13 H :    0.021190
  14 H :    0.015009
  15 H :    0.016713
  16 S :    0.102821
  17 C :   -0.058817
  18 C :   -0.056872
  19 C :   -0.054284
  20 C :   -0.159410
  21 H :    0.028653
  22 C :    0.040588
  23 H :    0.020754
  24 H :    0.048410
  25 C :   -0.086661
  26 H :    0.024686
  27 H :    0.031309
  28 C :   -0.008021
  29 H :    0.029058
  30 H :    0.033248
  31 H :    0.024940
  32 H :    0.056178
  33 H :    0.049422
Sum of atomic charges:    0.0000000

LOEWDIN ATOMIC CHARGES
----------------------
   0 S :    0.409977
   1 C :   -0.196063
   2 C :   -0.059204
   3 C :   -0.052820
   4 C :   -0.208415
   5 H :    0.017455
   6 C :   -0.034950
   7 H :    0.037083
   8 H :    0.039239
   9 C :   -0.037334
  10 H :    0.028708
  11 H :    0.030462
  12 C :   -0.061047
  13 H :    0.020861
  14 H :    0.017367
  15 H :    0.024403
  16 S :    0.397977
  17 C :   -0.177962
  18 C :   -0.066425
  19 C :   -0.058247
  20 C :   -0.207719
  21 H :    0.032610
  22 C :   -0.025018
  23 H :    0.021536
  24 H :    0.033280
  25 C :   -0.032467
  26 H :    0.017008
  27 H :    0.015434
  28 C :   -0.051934
  29 H :    0.020114
  30 H :    0.030676
  31 H :    0.021306
  32 H :    0.029418
  33 H :    0.024691

  Mayer bond orders larger than 0.100000
B(  0-S ,  1-C ) :   1.1376 B(  0-S ,  4-C ) :   1.1579 B(  1-C ,  2-C ) :   1.6027
B(  1-C , 32-H ) :   0.9687 B(  2-C ,  3-C ) :   1.2512 B(  2-C ,  6-C ) :   1.0026
B(  3-C ,  4-C ) :   1.5539 B(  3-C ,  5-H ) :   1.0023 B(  4-C , 20-C ) :   1.0481
B(  6-C ,  7-H ) :   0.9447 B(  6-C ,  8-H ) :   0.9451 B(  6-C ,  9-C ) :   1.0675
B(  9-C , 10-H ) :   0.9557 B(  9-C , 11-H ) :   0.9554 B(  9-C , 12-C ) :   1.0792
B( 12-C , 13-H ) :   0.9731 B( 12-C , 14-H ) :   0.9726 B( 12-C , 15-H ) :   0.9732
B( 16-S , 17-C ) :   1.1373 B( 16-S , 20-C ) :   1.1374 B( 17-C , 18-C ) :   1.6271
B( 17-C , 33-H ) :   0.9606 B( 18-C , 19-C ) :   1.2476 B( 18-C , 21-H ) :   0.9787
B( 19-C , 20-C ) :   1.6255 B( 19-C , 22-C ) :   1.0055 B( 22-C , 23-H ) :   0.9212
B( 22-C , 24-H ) :   0.9528 B( 22-C , 25-C ) :   1.0923 B( 25-C , 26-H ) :   0.9580
B( 25-C , 27-H ) :   0.9515 B( 25-C , 28-C ) :   1.0754 B( 28-C , 29-H ) :   0.9745
B( 28-C , 30-H ) :   0.9771 B( 28-C , 31-H ) :   0.9760

Dispersion correction           -0.013446161
FINAL SINGLE POINT ENERGY     -1339.866889274133

DIPOLE MOMENT
-------------
                                X             Y             Z
Electronic contribution:    -16.42176     -17.62806      17.80342
Nuclear contribution   :     16.84545      18.10504     -18.18351
                        -----------------------------------------
Total Dipole Moment    :      0.42369       0.47698      -0.38009
                        -----------------------------------------
Magnitude (a.u.)       :      0.74263
Magnitude (Debye)      :      1.88761

Rotational constants in cm-1:     0.017316     0.008046     0.006075
Rotational constants in MHz :   519.127149   241.223381   182.111739

                             ****ORCA TERMINATED NORMALLY****
TOTAL RUN TIME: 0 days 0 hours 0 minutes 33 seconds 757 msec
