                         Program Version 4.2.1 -  RELEASE  -
|  1> ! wB97X-D3 SP def2-SVP
|  2> %pal
|  3> nprocs 16
|  4> end
|  5>
|  6> * xyz 0 1
|  7> S 	 34.6096 	 2.32434 	 72.3866
|  8> C 	 33.2538 	 1.25851 	 72.007
|  9> C 	 32.7517 	 0.81116 	 73.2194
| 10> C 	 33.4618 	 1.2347 	 74.372
| 11> C 	 34.6365 	 1.92541 	 74.0511
| 12> H 	 33.0827 	 1.0761 	 75.4404
| 13> C 	 31.4849 	 0.074392 	 73.3807
| 14> H 	 31.2984 	 -0.0233026 	 74.4606
| 15> H 	 31.6375 	 -1.00458 	 73.0988
| 16> C 	 30.3433 	 0.743155 	 72.5309
| 17> H 	 30.7067 	 0.882816 	 71.4757
| 18> H 	 29.6322 	 -0.0610161 	 72.4277
| 19> C 	 29.6544 	 1.95296 	 73.23
| 20> H 	 30.2046 	 2.86339 	 73.208
| 21> H 	 28.632 	 2.19718 	 72.8497
| 22> H 	 29.5173 	 1.71951 	 74.2959
| 23> S 	 35.8824 	 4.19495 	 74.8592
| 24> C 	 37.0008 	 4.1989 	 76.2222
| 25> C 	 36.9929 	 2.9905 	 76.8771
| 26> C 	 36.0859 	 2.02881 	 76.2598
| 27> C 	 35.5428 	 2.4914 	 75.0838
| 28> H 	 37.601 	 2.8122 	 77.7992
| 29> C 	 35.8998 	 0.62111 	 76.795
| 30> H 	 36.7749 	 -0.0415271 	 76.5876
| 31> H 	 35.1243 	 0.150592 	 76.2915
| 32> C 	 35.3291 	 0.432364 	 78.194
| 33> H 	 34.3627 	 0.77606 	 78.2665
| 34> H 	 35.8005 	 1.0541 	 78.9182
| 35> C 	 35.462 	 -0.95494 	 78.7926
| 36> H 	 36.3991 	 -1.43036 	 78.5077
| 37> H 	 34.6794 	 -1.69257 	 78.3662
| 38> H 	 35.3224 	 -0.931264 	 79.9566
| 39> H 	 32.902 	 1.06211 	 70.9763
| 40> H 	 37.4676 	 5.15637 	 76.5331
| 41> *
| 42>
| 43>                          ****END OF INPUT****

CARTESIAN COORDINATES (ANGSTROEM)
---------------------------------
  S     34.609600    2.324340   72.386600
  C     33.253800    1.258510   72.007000
  C     32.751700    0.811160   73.219400
  C     33.461800    1.234700   74.372000
  C     34.636500    1.925410   74.051100
  H     33.082700    1.076100   75.440400
  C     31.484900    0.074392   73.380700
  H     31.298400   -0.023303   74.460600
  H     31.637500   -1.004580   73.098800
  C     30.343300    0.743155   72.530900
  H     30.706700    0.882816   71.475700
  H     29.632200   -0.061016   72.427700
  C     29.654400    1.952960   73.230000
  H     30.204600    2.863390   73.208000
  H     28.632000    2.197180   72.849700
  H     29.517300    1.719510   74.295900
  S     35.882400    4.194950   74.859200
  C     37.000800    4.198900   76.222200
  C     36.992900    2.990500   76.877100
  C     36.085900    2.028810   76.259800
  C     35.542800    2.491400   75.083800
  H     37.601000    2.812200   77.799200
  C     35.899800    0.621110   76.795000
  H     36.774900   -0.041527   76.587600
  H     35.124300    0.150592   76.291500
  C     35.329100    0.432364   78.194000
  H     34.362700    0.776060   78.266500
  H     35.800500    1.054100   78.918200
  C     35.462000   -0.954940   78.792600
  H     36.399100   -1.430360   78.507700
  H     34.679400   -1.692570   78.366200
  H     35.322400   -0.931264   79.956600
  H     32.902000    1.062110   70.976300
  H     37.467600    5.156370   76.533100

 Total Charge           Charge          ....    0
 Multiplicity           Mult            ....    1
 Number of Electrons    NEL             ....  134
 Basis Dimension        Dim             ....  322

ORBITAL ENERGIES
----------------

  NO   OCC          E(Eh)            E(eV)
   0   2.0000     -88.968682     -2420.9609
   1   2.0000     -88.961124     -2420.7552
   2   2.0000     -10.332520      -281.1622
   3   2.0000     -10.330711      -281.1129
   4   2.0000     -10.321401      -280.8596
   5   2.0000     -10.318261      -280.7742
   6   2.0000     -10.307885      -280.4918
   7   2.0000     -10.302169      -280.3363
   8   2.0000     -10.298240      -280.2293
   9   2.0000     -10.296964      -280.1946
  10   2.0000     -10.295305      -280.1495
  11   2.0000     -10.293714      -280.1062
  12   2.0000     -10.292304      -280.0678
  13   2.0000     -10.286114      -279.8994
  14   2.0000     -10.281439      -279.7722
  15   2.0000     -10.275755      -279.6175
  16   2.0000      -8.083436      -219.9615
  17   2.0000      -8.076246      -219.7658
  18   2.0000      -6.041970      -164.4104
  19   2.0000      -6.037830      -164.2977
  20   2.0000      -6.034799      -164.2152
  21   2.0000      -6.034257      -164.2005
  22   2.0000      -6.030722      -164.1043
  23   2.0000      -6.026912      -164.0006
  24   2.0000      -1.008838       -27.4519
  25   2.0000      -0.985552       -26.8182
  26   2.0000      -0.913645       -24.8615
  27   2.0000      -0.910251       -24.7692
  28   2.0000      -0.864156       -23.5149
  29   2.0000      -0.851178       -23.1617
  30   2.0000      -0.843318       -22.9478
  31   2.0000      -0.812045       -22.0969
  32   2.0000      -0.779513       -21.2116
  33   2.0000      -0.771590       -20.9960
  34   2.0000      -0.713031       -19.4026
  35   2.0000      -0.703764       -19.1504
  36   2.0000      -0.691719       -18.8226
  37   2.0000      -0.660270       -17.9669
  38   2.0000      -0.635323       -17.2880
  39   2.0000      -0.614030       -16.7086
  40   2.0000      -0.597786       -16.2666
  41   2.0000      -0.571878       -15.5616
  42   2.0000      -0.563352       -15.3296
  43   2.0000      -0.545203       -14.8357
  44   2.0000      -0.534111       -14.5339
  45   2.0000      -0.524688       -14.2775
  46   2.0000      -0.517464       -14.0809
  47   2.0000      -0.509769       -13.8715
  48   2.0000      -0.502289       -13.6680
  49   2.0000      -0.499897       -13.6029
  50   2.0000      -0.489435       -13.3182
  51   2.0000      -0.477348       -12.9893
  52   2.0000      -0.472444       -12.8559
  53   2.0000      -0.465686       -12.6720
  54   2.0000      -0.459925       -12.5152
  55   2.0000      -0.450069       -12.2470
  56   2.0000      -0.442500       -12.0410
  57   2.0000      -0.439896       -11.9702
  58   2.0000      -0.436212       -11.8699
  59   2.0000      -0.428129       -11.6500
  60   2.0000      -0.415789       -11.3142
  61   2.0000      -0.413138       -11.2420
  62   2.0000      -0.403069       -10.9681
  63   2.0000      -0.350007        -9.5242
  64   2.0000      -0.329484        -8.9657
  65   2.0000      -0.327069        -8.9000
  66   2.0000      -0.292099        -7.9484
  67   0.0000       0.025481         0.6934
  68   0.0000       0.073322         1.9952
  69   0.0000       0.104074         2.8320
  70   0.0000       0.122770         3.3408
  71   0.0000       0.129971         3.5367

MULLIKEN ATOMIC CHARGES
-----------------------
   0 S :    0.113536
   1 C :   -0.152525
   2 C :   -0.073311
   3 C :   -0.013373
   4 C :   -0.124937
   5 H :    0.050796
   6 C :    0.027903
   7 H :    0.013939
   8 H :    0.044670
   9 C :   -0.065189
  10 H :    0.035047
  11 H :    0.018773
  12 C :   -0.040529
  13 H :    0.038315
  14 H :    0.040415
  15 H :    0.025774
  16 S :    0.081583
  17 C :   -0.109387
  18 C :   -0.028144
  19 C :   -0.054276
  20 C :   -0.133417
  21 H :    0.042947
  22 C :    0.082967
  23 H :    0.043202
  24 H :   -0.012189
  25 C :   -0.023960
  26 H :    0.003135
  27 H :    0.004579
  28 C :   -0.106830
  29 H :    0.032485
  30 H :    0.036052
  31 H :    0.056010
  32 H :    0.071130
  33 H :    0.074808
Sum of atomic charges:   -0.0000000

LOEWDIN ATOMIC CHARGES
----------------------
   0 S :    0.425514
   1 C :   -0.206242
   2 C :   -0.070650
   3 C :   -0.078204
   4 C :   -0.208745
   5 H :    0.044260
   6 C :   -0.039123
   7 H :    0.027266
   8 H :    0.039934
   9 C :   -0.037477
  10 H :    0.027737
  11 H :    0.019836
  12 C :   -0.066093
  13 H :    0.023018
  14 H :    0.031832
  15 H :    0.028020
  16 S :    0.388037
  17 C :   -0.183349
  18 C :   -0.072086
  19 C :   -0.059876
  20 C :   -0.181936
  21 H :    0.042343
  22 C :   -0.032638
  23 H :    0.038231
  24 H :    0.020519
  25 C :   -0.040520
  26 H :    0.014192
  27 H :    0.015899
  28 C :   -0.073469
  29 H :    0.021942
  30 H :    0.027956
  31 H :    0.040427
  32 H :    0.037815
  33 H :    0.035629

  Mayer bond orders larger than 0.100000
B(  0-S ,  1-C ) :   1.1340 B(  0-S ,  4-C ) :   1.1916 B(  1-C ,  2-C ) :   1.5495
B(  1-C ,  4-C ) :   0.1052 B(  1-C , 32-H ) :   0.9721 B(  2-C ,  3-C ) :   1.3024
B(  2-C ,  6-C ) :   1.0303 B(  3-C ,  4-C ) :   1.5035 B(  3-C ,  5-H ) :   0.9716
B(  4-C , 20-C ) :   1.0268 B(  6-C ,  7-H ) :   0.9462 B(  6-C ,  8-H ) :   0.9304
B(  6-C ,  9-C ) :   1.0699 B(  9-C , 10-H ) :   0.9570 B(  9-C , 11-H ) :   0.9549
B(  9-C , 12-C ) :   1.0573 B( 12-C , 13-H ) :   0.9796 B( 12-C , 14-H ) :   0.9775
B( 12-C , 15-H ) :   0.9741 B( 16-S , 17-C ) :   1.1424 B( 16-S , 20-C ) :   1.1399
B( 17-C , 18-C ) :   1.6235 B( 17-C , 33-H ) :   0.9654 B( 18-C , 19-C ) :   1.2061
B( 18-C , 21-H ) :   0.9845 B( 19-C , 20-C ) :   1.6344 B( 19-C , 22-C ) :   1.0555
B( 22-C , 23-H ) :   0.9380 B( 22-C , 24-H ) :   0.9287 B( 22-C , 25-C ) :   1.0446
B( 25-C , 26-H ) :   0.9496 B( 25-C , 27-H ) :   0.9557 B( 25-C , 28-C ) :   1.0772
B( 28-C , 29-H ) :   0.9742 B( 28-C , 30-H ) :   0.9748 B( 28-C , 31-H ) :   0.9740

Dispersion correction           -0.013852707
FINAL SINGLE POINT ENERGY     -1339.861819433607

DIPOLE MOMENT
-------------
                                X             Y             Z
Electronic contribution:     16.00869      17.20297     -13.05279
Nuclear contribution   :    -16.42310     -17.54580      13.42814
                        -----------------------------------------
Total Dipole Moment    :     -0.41440      -0.34283       0.37535
                        -----------------------------------------
Magnitude (a.u.)       :      0.65586
Magnitude (Debye)      :      1.66707

Rotational constants in cm-1:     0.017706     0.008619     0.006559
Rotational constants in MHz :   530.813483   258.382833   196.629342

                             ****ORCA TERMINATED NORMALLY****
TOTAL RUN TIME: 0 days 0 hours 0 minutes 29 seconds 485 msec
