                         Program Version 4.2.1 -  RELEASE  -
|  1> ! wB97X-D3 SP def2-SVP
|  2> %pal
|  3> nprocs 16
|  4> end
|  5>
|  6> * xyz 0 1
|  7> S 	 6.35171 	 17.6614 	 52.8266
|  8> C 	 5.39727 	 16.7212 	 53.9896
|  9> C 	 4.53223 	 15.8559 	 53.3558
| 10> C 	 4.63365 	 15.8706 	 51.9217
| 11> C 	 5.54475 	 16.8335 	 51.5075
| 12> H 	 4.25041 	 15.1987 	 51.1113
| 13> C 	 3.6258 	 14.8682 	 54.0608
| 14> H 	 4.27514 	 14.504 	 54.8441
| 15> H 	 3.43807 	 13.9685 	 53.3658
| 16> C 	 2.36659 	 15.5766 	 54.5889
| 17> H 	 2.62336 	 16.4524 	 55.0776
| 18> H 	 1.79198 	 15.8636 	 53.6752
| 19> C 	 1.52111 	 14.6355 	 55.504
| 20> H 	 0.489515 	 14.4551 	 55.2676
| 21> H 	 1.91961 	 13.6744 	 55.3637
| 22> H 	 1.61119 	 14.8536 	 56.5618
| 23> S 	 7.38313 	 16.4748 	 49.4117
| 24> C 	 6.89827 	 16.6548 	 47.7696
| 25> C 	 5.56485 	 17.0373 	 47.7456
| 26> C 	 5.00257 	 17.4014 	 49.0125
| 27> C 	 5.84621 	 17.0212 	 50.0663
| 28> H 	 4.97812 	 17.0059 	 46.8028
| 29> C 	 3.47727 	 17.776 	 49.1354
| 30> H 	 3.35903 	 18.2397 	 50.1643
| 31> H 	 2.84435 	 16.9419 	 49.1155
| 32> C 	 2.98125 	 18.8678 	 48.1399
| 33> H 	 1.97575 	 19.0494 	 48.4409
| 34> H 	 2.97529 	 18.4166 	 47.1307
| 35> C 	 3.82311 	 20.142 	 48.179
| 36> H 	 3.37613 	 21.0685 	 47.7407
| 37> H 	 4.83189 	 19.8984 	 47.8361
| 38> H 	 3.94405 	 20.4112 	 49.1861
| 39> H 	 5.44447 	 16.754 	 55.0857
| 40> H 	 7.39997 	 16.3728 	 46.8903
| 41> *
| 42>
| 43>                          ****END OF INPUT****

CARTESIAN COORDINATES (ANGSTROEM)
---------------------------------
  S      6.351710   17.661400   52.826600
  C      5.397270   16.721200   53.989600
  C      4.532230   15.855900   53.355800
  C      4.633650   15.870600   51.921700
  C      5.544750   16.833500   51.507500
  H      4.250410   15.198700   51.111300
  C      3.625800   14.868200   54.060800
  H      4.275140   14.504000   54.844100
  H      3.438070   13.968500   53.365800
  C      2.366590   15.576600   54.588900
  H      2.623360   16.452400   55.077600
  H      1.791980   15.863600   53.675200
  C      1.521110   14.635500   55.504000
  H      0.489515   14.455100   55.267600
  H      1.919610   13.674400   55.363700
  H      1.611190   14.853600   56.561800
  S      7.383130   16.474800   49.411700
  C      6.898270   16.654800   47.769600
  C      5.564850   17.037300   47.745600
  C      5.002570   17.401400   49.012500
  C      5.846210   17.021200   50.066300
  H      4.978120   17.005900   46.802800
  C      3.477270   17.776000   49.135400
  H      3.359030   18.239700   50.164300
  H      2.844350   16.941900   49.115500
  C      2.981250   18.867800   48.139900
  H      1.975750   19.049400   48.440900
  H      2.975290   18.416600   47.130700
  C      3.823110   20.142000   48.179000
  H      3.376130   21.068500   47.740700
  H      4.831890   19.898400   47.836100
  H      3.944050   20.411200   49.186100
  H      5.444470   16.754000   55.085700
  H      7.399970   16.372800   46.890300

 Total Charge           Charge          ....    0
 Multiplicity           Mult            ....    1
 Number of Electrons    NEL             ....  134
 Basis Dimension        Dim             ....  322

ORBITAL ENERGIES
----------------

  NO   OCC          E(Eh)            E(eV)
   0   2.0000     -88.971631     -2421.0412
   1   2.0000     -88.965215     -2420.8666
   2   2.0000     -10.331372      -281.1309
   3   2.0000     -10.330054      -281.0951
   4   2.0000     -10.318037      -280.7681
   5   2.0000     -10.313738      -280.6511
   6   2.0000     -10.307114      -280.4708
   7   2.0000     -10.302277      -280.3392
   8   2.0000     -10.299502      -280.2637
   9   2.0000     -10.296703      -280.1875
  10   2.0000     -10.295020      -280.1417
  11   2.0000     -10.294434      -280.1258
  12   2.0000     -10.287858      -279.9469
  13   2.0000     -10.284309      -279.8503
  14   2.0000     -10.271959      -279.5142
  15   2.0000     -10.270134      -279.4645
  16   2.0000      -8.085549      -220.0190
  17   2.0000      -8.080164      -219.8724
  18   2.0000      -6.044189      -164.4707
  19   2.0000      -6.040174      -164.3615
  20   2.0000      -6.038677      -164.3207
  21   2.0000      -6.036224      -164.2540
  22   2.0000      -6.034459      -164.2060
  23   2.0000      -6.031078      -164.1140
  24   2.0000      -1.003714       -27.3125
  25   2.0000      -0.983541       -26.7635
  26   2.0000      -0.911682       -24.8081
  27   2.0000      -0.903538       -24.5865
  28   2.0000      -0.866275       -23.5725
  29   2.0000      -0.849497       -23.1160
  30   2.0000      -0.840519       -22.8717
  31   2.0000      -0.812076       -22.0977
  32   2.0000      -0.781217       -21.2580
  33   2.0000      -0.772644       -21.0247
  34   2.0000      -0.710153       -19.3242
  35   2.0000      -0.702854       -19.1256
  36   2.0000      -0.693861       -18.8809
  37   2.0000      -0.650437       -17.6993
  38   2.0000      -0.640282       -17.4230
  39   2.0000      -0.610657       -16.6168
  40   2.0000      -0.595035       -16.1917
  41   2.0000      -0.572819       -15.5872
  42   2.0000      -0.557214       -15.1626
  43   2.0000      -0.550369       -14.9763
  44   2.0000      -0.542092       -14.7511
  45   2.0000      -0.519559       -14.1379
  46   2.0000      -0.514969       -14.0130
  47   2.0000      -0.511862       -13.9285
  48   2.0000      -0.504849       -13.7376
  49   2.0000      -0.498846       -13.5743
  50   2.0000      -0.485333       -13.2066
  51   2.0000      -0.478124       -13.0104
  52   2.0000      -0.471915       -12.8415
  53   2.0000      -0.460321       -12.5260
  54   2.0000      -0.457341       -12.4449
  55   2.0000      -0.451645       -12.2899
  56   2.0000      -0.442450       -12.0397
  57   2.0000      -0.439244       -11.9524
  58   2.0000      -0.436147       -11.8682
  59   2.0000      -0.424059       -11.5392
  60   2.0000      -0.420635       -11.4461
  61   2.0000      -0.412594       -11.2273
  62   2.0000      -0.411946       -11.2096
  63   2.0000      -0.337884        -9.1943
  64   2.0000      -0.329717        -8.9721
  65   2.0000      -0.328161        -8.9297
  66   2.0000      -0.303603        -8.2614
  67   0.0000       0.034545         0.9400
  68   0.0000       0.061299         1.6680
  69   0.0000       0.112332         3.0567
  70   0.0000       0.123197         3.3524
  71   0.0000       0.131543         3.5795

MULLIKEN ATOMIC CHARGES
-----------------------
   0 S :    0.123771
   1 C :   -0.119925
   2 C :   -0.098458
   3 C :    0.019288
   4 C :   -0.173145
   5 H :    0.045881
   6 C :    0.028812
   7 H :    0.026573
   8 H :    0.043462
   9 C :   -0.047610
  10 H :    0.015086
  11 H :    0.034607
  12 C :   -0.010777
  13 H :    0.028346
  14 H :    0.005985
  15 H :    0.036391
  16 S :    0.115178
  17 C :   -0.068090
  18 C :   -0.070813
  19 C :   -0.044062
  20 C :   -0.172413
  21 H :    0.035910
  22 C :    0.041822
  23 H :    0.037544
  24 H :    0.031120
  25 C :   -0.071685
  26 H :    0.022687
  27 H :    0.029593
  28 C :   -0.030482
  29 H :    0.042939
  30 H :    0.041568
  31 H :    0.007088
  32 H :    0.050412
  33 H :    0.043398
Sum of atomic charges:    0.0000000

LOEWDIN ATOMIC CHARGES
----------------------
   0 S :    0.400202
   1 C :   -0.198609
   2 C :   -0.062149
   3 C :   -0.063301
   4 C :   -0.197226
   5 H :    0.047419
   6 C :   -0.037411
   7 H :    0.026891
   8 H :    0.038796
   9 C :   -0.030525
  10 H :    0.013941
  11 H :    0.032732
  12 C :   -0.066884
  13 H :    0.025817
  14 H :    0.019577
  15 H :    0.027820
  16 S :    0.419261
  17 C :   -0.194322
  18 C :   -0.079210
  19 C :   -0.062223
  20 C :   -0.201879
  21 H :    0.034642
  22 C :   -0.024966
  23 H :    0.036378
  24 H :    0.021537
  25 C :   -0.039354
  26 H :    0.020842
  27 H :    0.019723
  28 C :   -0.067102
  29 H :    0.032890
  30 H :    0.030099
  31 H :    0.018004
  32 H :    0.033660
  33 H :    0.024931

  Mayer bond orders larger than 0.100000
B(  0-S ,  1-C ) :   1.1209 B(  0-S ,  4-C ) :   1.1533 B(  1-C ,  2-C ) :   1.6414
B(  1-C , 32-H ) :   0.9621 B(  2-C ,  3-C ) :   1.2205 B(  2-C ,  6-C ) :   1.0063
B(  3-C ,  4-C ) :   1.5942 B(  3-C ,  5-H ) :   0.9828 B(  4-C , 20-C ) :   1.0162
B(  6-C ,  7-H ) :   0.9411 B(  6-C ,  8-H ) :   0.9439 B(  6-C ,  9-C ) :   1.0639
B(  9-C , 10-H ) :   0.9654 B(  9-C , 11-H ) :   0.9561 B(  9-C , 12-C ) :   1.0597
B( 12-C , 13-H ) :   0.9751 B( 12-C , 14-H ) :   0.9746 B( 12-C , 15-H ) :   0.9773
B( 16-S , 17-C ) :   1.1617 B( 16-S , 20-C ) :   1.1606 B( 17-C , 18-C ) :   1.5978
B( 17-C , 33-H ) :   0.9741 B( 18-C , 19-C ) :   1.2526 B( 18-C , 21-H ) :   0.9793
B( 19-C , 20-C ) :   1.5809 B( 19-C , 22-C ) :   1.0246 B( 22-C , 23-H ) :   0.9372
B( 22-C , 24-H ) :   0.9470 B( 22-C , 25-C ) :   1.0743 B( 25-C , 26-H ) :   0.9548
B( 25-C , 27-H ) :   0.9549 B( 25-C , 28-C ) :   1.0769 B( 28-C , 29-H ) :   0.9744
B( 28-C , 30-H ) :   0.9675 B( 28-C , 31-H ) :   0.9719

Dispersion correction           -0.014217378
FINAL SINGLE POINT ENERGY     -1339.867101914105

DIPOLE MOMENT
-------------
                                X             Y             Z
Electronic contribution:     25.21266       0.20263      -3.58599
Nuclear contribution   :    -25.84659      -0.58657       3.61819
                        -----------------------------------------
Total Dipole Moment    :     -0.63392      -0.38394       0.03220
                        -----------------------------------------
Magnitude (a.u.)       :      0.74183
Magnitude (Debye)      :      1.88558

Rotational constants in cm-1:     0.019769     0.007577     0.006464
Rotational constants in MHz :   592.659784   227.148058   193.799389

                             ****ORCA TERMINATED NORMALLY****
TOTAL RUN TIME: 0 days 0 hours 0 minutes 34 seconds 658 msec
