                         Program Version 4.2.1 -  RELEASE  -
|  1> ! wB97X-D3 SP def2-SVP
|  2> %pal
|  3> nprocs 16
|  4> end
|  5>
|  6> * xyz 0 1
|  7> S 	 41.8816 	 25.3514 	 101.655
|  8> C 	 41.4522 	 25.9017 	 99.9723
|  9> C 	 41.6086 	 24.8982 	 99.0642
| 10> C 	 42.2389 	 23.7862 	 99.683
| 11> C 	 42.3787 	 23.7859 	 101.106
| 12> H 	 42.5792 	 22.9297 	 99.158
| 13> C 	 41.1223 	 24.9648 	 97.6982
| 14> H 	 41.8942 	 24.6443 	 96.9966
| 15> H 	 40.9039 	 26.0527 	 97.498
| 16> C 	 39.8325 	 24.1217 	 97.4353
| 17> H 	 40.1167 	 23.0947 	 97.4674
| 18> H 	 39.1493 	 24.2501 	 98.2938
| 19> C 	 39.0533 	 24.5242 	 96.249
| 20> H 	 38.3288 	 23.741 	 96.1683
| 21> H 	 38.6438 	 25.4956 	 96.3549
| 22> H 	 39.6082 	 24.491 	 95.296
| 23> S 	 43.9292 	 23.5215 	 103.322
| 24> C 	 44.2276 	 21.8795 	 103.966
| 25> C 	 43.446 	 20.9601 	 103.322
| 26> C 	 42.6087 	 21.4853 	 102.242
| 27> C 	 42.8506 	 22.8437 	 102.092
| 28> H 	 43.3504 	 19.9184 	 103.654
| 29> C 	 41.5355 	 20.6076 	 101.614
| 30> H 	 40.9855 	 21.1367 	 100.83
| 31> H 	 40.6842 	 20.4628 	 102.326
| 32> C 	 41.8528 	 19.1291 	 101.197
| 33> H 	 40.8841 	 18.6868 	 100.996
| 34> H 	 42.2099 	 18.6072 	 102.032
| 35> C 	 42.8415 	 19.0404 	 99.9148
| 36> H 	 42.5419 	 19.9085 	 99.3514
| 37> H 	 42.7012 	 18.203 	 99.2128
| 38> H 	 43.9031 	 19.1987 	 100.204
| 39> H 	 40.8891 	 26.8217 	 99.8357
| 40> H 	 44.9618 	 21.7264 	 104.747
| 41> *
| 42>
| 43>                          ****END OF INPUT****

CARTESIAN COORDINATES (ANGSTROEM)
---------------------------------
  S     41.881600   25.351400  101.655000
  C     41.452200   25.901700   99.972300
  C     41.608600   24.898200   99.064200
  C     42.238900   23.786200   99.683000
  C     42.378700   23.785900  101.106000
  H     42.579200   22.929700   99.158000
  C     41.122300   24.964800   97.698200
  H     41.894200   24.644300   96.996600
  H     40.903900   26.052700   97.498000
  C     39.832500   24.121700   97.435300
  H     40.116700   23.094700   97.467400
  H     39.149300   24.250100   98.293800
  C     39.053300   24.524200   96.249000
  H     38.328800   23.741000   96.168300
  H     38.643800   25.495600   96.354900
  H     39.608200   24.491000   95.296000
  S     43.929200   23.521500  103.322000
  C     44.227600   21.879500  103.966000
  C     43.446000   20.960100  103.322000
  C     42.608700   21.485300  102.242000
  C     42.850600   22.843700  102.092000
  H     43.350400   19.918400  103.654000
  C     41.535500   20.607600  101.614000
  H     40.985500   21.136700  100.830000
  H     40.684200   20.462800  102.326000
  C     41.852800   19.129100  101.197000
  H     40.884100   18.686800  100.996000
  H     42.209900   18.607200  102.032000
  C     42.841500   19.040400   99.914800
  H     42.541900   19.908500   99.351400
  H     42.701200   18.203000   99.212800
  H     43.903100   19.198700  100.204000
  H     40.889100   26.821700   99.835700
  H     44.961800   21.726400  104.747000

 Total Charge           Charge          ....    0
 Multiplicity           Mult            ....    1
 Number of Electrons    NEL             ....  134
 Basis Dimension        Dim             ....  322

ORBITAL ENERGIES
----------------

  NO   OCC          E(Eh)            E(eV)
   0   2.0000     -88.965857     -2420.8840
   1   2.0000     -88.960320     -2420.7334
   2   2.0000     -10.332792      -281.1696
   3   2.0000     -10.332326      -281.1569
   4   2.0000     -10.323571      -280.9186
   5   2.0000     -10.313554      -280.6461
   6   2.0000     -10.311970      -280.6030
   7   2.0000     -10.301240      -280.3110
   8   2.0000     -10.300079      -280.2794
   9   2.0000     -10.297102      -280.1984
  10   2.0000     -10.294372      -280.1241
  11   2.0000     -10.293453      -280.0991
  12   2.0000     -10.292979      -280.0862
  13   2.0000     -10.285049      -279.8704
  14   2.0000     -10.284587      -279.8578
  15   2.0000     -10.273730      -279.5624
  16   2.0000      -8.080035      -219.8689
  17   2.0000      -8.074647      -219.7223
  18   2.0000      -6.038701      -164.3214
  19   2.0000      -6.034749      -164.2139
  20   2.0000      -6.033156      -164.1705
  21   2.0000      -6.030514      -164.0986
  22   2.0000      -6.029162      -164.0618
  23   2.0000      -6.025479      -163.9616
  24   2.0000      -1.002895       -27.2902
  25   2.0000      -0.978627       -26.6298
  26   2.0000      -0.920010       -25.0347
  27   2.0000      -0.901170       -24.5221
  28   2.0000      -0.877807       -23.8864
  29   2.0000      -0.845470       -23.0064
  30   2.0000      -0.840314       -22.8661
  31   2.0000      -0.811078       -22.0706
  32   2.0000      -0.784499       -21.3473
  33   2.0000      -0.775630       -21.1060
  34   2.0000      -0.715152       -19.4603
  35   2.0000      -0.702907       -19.1271
  36   2.0000      -0.695693       -18.9308
  37   2.0000      -0.659375       -17.9425
  38   2.0000      -0.640533       -17.4298
  39   2.0000      -0.617686       -16.8081
  40   2.0000      -0.603616       -16.4252
  41   2.0000      -0.576302       -15.6820
  42   2.0000      -0.561382       -15.2760
  43   2.0000      -0.542478       -14.7616
  44   2.0000      -0.538272       -14.6471
  45   2.0000      -0.529132       -14.3984
  46   2.0000      -0.520807       -14.1719
  47   2.0000      -0.511066       -13.9068
  48   2.0000      -0.507287       -13.8040
  49   2.0000      -0.500496       -13.6192
  50   2.0000      -0.489762       -13.3271
  51   2.0000      -0.479220       -13.0402
  52   2.0000      -0.476288       -12.9604
  53   2.0000      -0.462427       -12.5833
  54   2.0000      -0.455359       -12.3910
  55   2.0000      -0.449573       -12.2335
  56   2.0000      -0.444160       -12.0862
  57   2.0000      -0.437275       -11.8989
  58   2.0000      -0.430180       -11.7058
  59   2.0000      -0.426718       -11.6116
  60   2.0000      -0.422116       -11.4864
  61   2.0000      -0.421037       -11.4570
  62   2.0000      -0.413027       -11.2390
  63   2.0000      -0.350668        -9.5422
  64   2.0000      -0.329131        -8.9561
  65   2.0000      -0.326226        -8.8771
  66   2.0000      -0.287331        -7.8187
  67   0.0000       0.023031         0.6267
  68   0.0000       0.069942         1.9032
  69   0.0000       0.095441         2.5971
  70   0.0000       0.119005         3.2383
  71   0.0000       0.128794         3.5047

MULLIKEN ATOMIC CHARGES
-----------------------
   0 S :    0.071129
   1 C :   -0.132656
   2 C :   -0.065312
   3 C :    0.040068
   4 C :   -0.149565
   5 H :   -0.012356
   6 C :    0.055223
   7 H :    0.033324
   8 H :    0.020760
   9 C :   -0.084656
  10 H :    0.020828
  11 H :    0.029999
  12 C :   -0.004635
  13 H :    0.028140
  14 H :    0.031446
  15 H :    0.024905
  16 S :    0.093876
  17 C :   -0.088347
  18 C :   -0.031224
  19 C :    0.007958
  20 C :   -0.149269
  21 H :    0.029470
  22 C :   -0.004236
  23 H :    0.023913
  24 H :    0.045784
  25 C :   -0.051726
  26 H :    0.027704
  27 H :    0.019656
  28 C :   -0.065423
  29 H :    0.019102
  30 H :    0.045600
  31 H :    0.054032
  32 H :    0.052316
  33 H :    0.064172
Sum of atomic charges:   -0.0000000

LOEWDIN ATOMIC CHARGES
----------------------
   0 S :    0.377355
   1 C :   -0.176504
   2 C :   -0.066827
   3 C :   -0.066967
   4 C :   -0.190464
   5 H :    0.018773
   6 C :   -0.033804
   7 H :    0.032821
   8 H :    0.034683
   9 C :   -0.037052
  10 H :    0.018625
  11 H :    0.029407
  12 C :   -0.058676
  13 H :    0.029178
  14 H :    0.022338
  15 H :    0.025829
  16 S :    0.377554
  17 C :   -0.165668
  18 C :   -0.068132
  19 C :   -0.054170
  20 C :   -0.191431
  21 H :    0.033652
  22 C :   -0.039141
  23 H :    0.029612
  24 H :    0.043845
  25 C :   -0.029902
  26 H :    0.026841
  27 H :    0.011220
  28 C :   -0.073472
  29 H :    0.021498
  30 H :    0.028943
  31 H :    0.033566
  32 H :    0.026157
  33 H :    0.030312

  Mayer bond orders larger than 0.100000
B(  0-S ,  1-C ) :   1.1198 B(  0-S ,  4-C ) :   1.1618 B(  1-C ,  2-C ) :   1.6113
B(  1-C ,  4-C ) :   0.1046 B(  1-C , 32-H ) :   0.9652 B(  2-C ,  3-C ) :   1.2309
B(  2-C ,  6-C ) :   1.0501 B(  3-C ,  4-C ) :   1.5509 B(  3-C ,  5-H ) :   1.0035
B(  4-C , 20-C ) :   1.0468 B(  6-C ,  7-H ) :   0.9274 B(  6-C ,  8-H ) :   0.9411
B(  6-C ,  9-C ) :   1.0493 B(  9-C , 10-H ) :   0.9529 B(  9-C , 11-H ) :   0.9555
B(  9-C , 12-C ) :   1.0970 B( 12-C , 13-H ) :   0.9695 B( 12-C , 14-H ) :   0.9734
B( 12-C , 15-H ) :   0.9704 B( 16-S , 17-C ) :   1.1228 B( 16-S , 20-C ) :   1.1279
B( 17-C , 18-C ) :   1.6394 B( 17-C , 33-H ) :   0.9721 B( 18-C , 19-C ) :   1.1990
B( 18-C , 21-H ) :   0.9825 B( 19-C , 20-C ) :   1.6142 B( 19-C , 22-C ) :   1.0401
B( 22-C , 23-H ) :   0.9355 B( 22-C , 24-H ) :   0.9354 B( 22-C , 25-C ) :   1.0790
B( 25-C , 26-H ) :   0.9550 B( 25-C , 27-H ) :   0.9590 B( 25-C , 28-C ) :   1.0456
B( 28-C , 29-H ) :   0.9793 B( 28-C , 30-H ) :   0.9791 B( 28-C , 31-H ) :   0.9777

Dispersion correction           -0.013876662
FINAL SINGLE POINT ENERGY     -1339.869940955473

DIPOLE MOMENT
-------------
                                X             Y             Z
Electronic contribution:     12.90818      15.12621      23.28664
Nuclear contribution   :    -13.33981     -15.72155     -23.68917
                        -----------------------------------------
Total Dipole Moment    :     -0.43163      -0.59534      -0.40253
                        -----------------------------------------
Magnitude (a.u.)       :      0.83831
Magnitude (Debye)      :      2.13081

Rotational constants in cm-1:     0.018116     0.008767     0.006265
Rotational constants in MHz :   543.112911   262.839349   187.833423

                             ****ORCA TERMINATED NORMALLY****
TOTAL RUN TIME: 0 days 0 hours 0 minutes 30 seconds 70 msec
