                         Program Version 4.2.1 -  RELEASE  -
|  1> ! wB97X-D3 SP def2-SVP
|  2> %pal
|  3> nprocs 16
|  4> end
|  5>
|  6> * xyz 0 1
|  7> S 	 36.3978 	 -3.05617 	 70.5427
|  8> C 	 36.1118 	 -1.73224 	 71.6063
|  9> C 	 37.265 	 -0.887292 	 71.6479
| 10> C 	 38.3829 	 -1.53392 	 70.9808
| 11> C 	 38.1201 	 -2.73709 	 70.3164
| 12> H 	 39.3758 	 -1.17508 	 70.9677
| 13> C 	 37.278 	 0.482334 	 72.3128
| 14> H 	 37.8576 	 1.20876 	 71.6812
| 15> H 	 37.8361 	 0.362572 	 73.2738
| 16> C 	 35.8884 	 1.04734 	 72.3793
| 17> H 	 35.452 	 1.03916 	 71.4545
| 18> H 	 35.197 	 0.624434 	 73.0827
| 19> C 	 35.8826 	 2.5641 	 72.7812
| 20> H 	 36.5572 	 3.19113 	 72.2854
| 21> H 	 34.8451 	 2.89644 	 72.7293
| 22> H 	 36.2149 	 2.60528 	 73.8313
| 23> S 	 38.6132 	 -5.37159 	 69.7845
| 24> C 	 40.1356 	 -5.87319 	 69.1307
| 25> C 	 40.9269 	 -4.76205 	 68.7418
| 26> C 	 40.2405 	 -3.54023 	 68.9787
| 27> C 	 39.0273 	 -3.66457 	 69.6541
| 28> H 	 41.8884 	 -4.76109 	 68.2479
| 29> C 	 40.9744 	 -2.25018 	 68.6888
| 30> H 	 41.7056 	 -1.81612 	 69.33
| 31> H 	 40.1869 	 -1.5082 	 68.8129
| 32> C 	 41.4024 	 -2.17361 	 67.16
| 33> H 	 40.5038 	 -2.21096 	 66.569
| 34> H 	 42.0178 	 -2.99966 	 66.8616
| 35> C 	 42.1825 	 -0.950644 	 66.7538
| 36> H 	 41.5787 	 -0.0909262 	 66.82
| 37> H 	 42.5105 	 -1.04483 	 65.7464
| 38> H 	 43.0882 	 -0.82251 	 67.2885
| 39> H 	 35.1613 	 -1.50801 	 72.1575
| 40> H 	 40.5167 	 -6.88699 	 69.1014
| 41> *
| 42>
| 43>                          ****END OF INPUT****

CARTESIAN COORDINATES (ANGSTROEM)
---------------------------------
  S     36.397800   -3.056170   70.542700
  C     36.111800   -1.732240   71.606300
  C     37.265000   -0.887292   71.647900
  C     38.382900   -1.533920   70.980800
  C     38.120100   -2.737090   70.316400
  H     39.375800   -1.175080   70.967700
  C     37.278000    0.482334   72.312800
  H     37.857600    1.208760   71.681200
  H     37.836100    0.362572   73.273800
  C     35.888400    1.047340   72.379300
  H     35.452000    1.039160   71.454500
  H     35.197000    0.624434   73.082700
  C     35.882600    2.564100   72.781200
  H     36.557200    3.191130   72.285400
  H     34.845100    2.896440   72.729300
  H     36.214900    2.605280   73.831300
  S     38.613200   -5.371590   69.784500
  C     40.135600   -5.873190   69.130700
  C     40.926900   -4.762050   68.741800
  C     40.240500   -3.540230   68.978700
  C     39.027300   -3.664570   69.654100
  H     41.888400   -4.761090   68.247900
  C     40.974400   -2.250180   68.688800
  H     41.705600   -1.816120   69.330000
  H     40.186900   -1.508200   68.812900
  C     41.402400   -2.173610   67.160000
  H     40.503800   -2.210960   66.569000
  H     42.017800   -2.999660   66.861600
  C     42.182500   -0.950644   66.753800
  H     41.578700   -0.090926   66.820000
  H     42.510500   -1.044830   65.746400
  H     43.088200   -0.822510   67.288500
  H     35.161300   -1.508010   72.157500
  H     40.516700   -6.886990   69.101400

 Total Charge           Charge          ....    0
 Multiplicity           Mult            ....    1
 Number of Electrons    NEL             ....  134
 Basis Dimension        Dim             ....  322

ORBITAL ENERGIES
----------------

  NO   OCC          E(Eh)            E(eV)
   0   2.0000     -88.968704     -2420.9615
   1   2.0000     -88.965072     -2420.8627
   2   2.0000     -10.334775      -281.2235
   3   2.0000     -10.332272      -281.1554
   4   2.0000     -10.322609      -280.8925
   5   2.0000     -10.320140      -280.8253
   6   2.0000     -10.308161      -280.4993
   7   2.0000     -10.304438      -280.3980
   8   2.0000     -10.300798      -280.2990
   9   2.0000     -10.296193      -280.1737
  10   2.0000     -10.295319      -280.1499
  11   2.0000     -10.289551      -279.9929
  12   2.0000     -10.282633      -279.8047
  13   2.0000     -10.279903      -279.7304
  14   2.0000     -10.275371      -279.6071
  15   2.0000     -10.265473      -279.3377
  16   2.0000      -8.083441      -219.9616
  17   2.0000      -8.079747      -219.8611
  18   2.0000      -6.041935      -164.4094
  19   2.0000      -6.038329      -164.3113
  20   2.0000      -6.037848      -164.2982
  21   2.0000      -6.034301      -164.2017
  22   2.0000      -6.034122      -164.1968
  23   2.0000      -6.030566      -164.1000
  24   2.0000      -1.004822       -27.3426
  25   2.0000      -0.981360       -26.7042
  26   2.0000      -0.916659       -24.9435
  27   2.0000      -0.908244       -24.7146
  28   2.0000      -0.867082       -23.5945
  29   2.0000      -0.857920       -23.3452
  30   2.0000      -0.844614       -22.9831
  31   2.0000      -0.812590       -22.1117
  32   2.0000      -0.783345       -21.3159
  33   2.0000      -0.768056       -20.8999
  34   2.0000      -0.713060       -19.4033
  35   2.0000      -0.705854       -19.2073
  36   2.0000      -0.693179       -18.8624
  37   2.0000      -0.664809       -18.0904
  38   2.0000      -0.638459       -17.3734
  39   2.0000      -0.614805       -16.7297
  40   2.0000      -0.599497       -16.3132
  41   2.0000      -0.579196       -15.7607
  42   2.0000      -0.567711       -15.4482
  43   2.0000      -0.565335       -15.3836
  44   2.0000      -0.529625       -14.4118
  45   2.0000      -0.525635       -14.3033
  46   2.0000      -0.518918       -14.1205
  47   2.0000      -0.518444       -14.1076
  48   2.0000      -0.509714       -13.8700
  49   2.0000      -0.501703       -13.6520
  50   2.0000      -0.488738       -13.2993
  51   2.0000      -0.482084       -13.1182
  52   2.0000      -0.474525       -12.9125
  53   2.0000      -0.460017       -12.5177
  54   2.0000      -0.456934       -12.4338
  55   2.0000      -0.455074       -12.3832
  56   2.0000      -0.442474       -12.0403
  57   2.0000      -0.439995       -11.9729
  58   2.0000      -0.433896       -11.8069
  59   2.0000      -0.428075       -11.6485
  60   2.0000      -0.418259       -11.3814
  61   2.0000      -0.414963       -11.2917
  62   2.0000      -0.410810       -11.1787
  63   2.0000      -0.355777        -9.6812
  64   2.0000      -0.332919        -9.0592
  65   2.0000      -0.323946        -8.8150
  66   2.0000      -0.282080        -7.6758
  67   0.0000       0.019938         0.5425
  68   0.0000       0.076555         2.0832
  69   0.0000       0.105203         2.8627
  70   0.0000       0.117215         3.1896
  71   0.0000       0.138615         3.7719

MULLIKEN ATOMIC CHARGES
-----------------------
   0 S :    0.106842
   1 C :   -0.138990
   2 C :   -0.119776
   3 C :    0.032006
   4 C :   -0.136392
   5 H :   -0.009476
   6 C :    0.065366
   7 H :    0.035890
   8 H :    0.053510
   9 C :   -0.085478
  10 H :    0.021625
  11 H :    0.031137
  12 C :   -0.036884
  13 H :    0.019820
  14 H :    0.036011
  15 H :    0.021588
  16 S :    0.112839
  17 C :   -0.083847
  18 C :   -0.026993
  19 C :   -0.048520
  20 C :   -0.126428
  21 H :    0.022724
  22 C :    0.058419
  23 H :    0.034276
  24 H :    0.007546
  25 C :   -0.102978
  26 H :    0.032286
  27 H :    0.021854
  28 C :    0.006026
  29 H :    0.019180
  30 H :    0.019481
  31 H :    0.016736
  32 H :    0.077162
  33 H :    0.063438
Sum of atomic charges:    0.0000000

LOEWDIN ATOMIC CHARGES
----------------------
   0 S :    0.407623
   1 C :   -0.220003
   2 C :   -0.062897
   3 C :   -0.065661
   4 C :   -0.191231
   5 H :    0.020534
   6 C :   -0.035491
   7 H :    0.039109
   8 H :    0.040545
   9 C :   -0.035823
  10 H :    0.015776
  11 H :    0.022630
  12 C :   -0.056764
  13 H :    0.012237
  14 H :    0.027778
  15 H :    0.025100
  16 S :    0.420085
  17 C :   -0.188931
  18 C :   -0.065794
  19 C :   -0.057049
  20 C :   -0.194865
  21 H :    0.031695
  22 C :   -0.036077
  23 H :    0.025709
  24 H :    0.029510
  25 C :   -0.031832
  26 H :    0.026713
  27 H :    0.015922
  28 C :   -0.056864
  29 H :    0.018490
  30 H :    0.026048
  31 H :    0.019548
  32 H :    0.043032
  33 H :    0.031199

  Mayer bond orders larger than 0.100000
B(  0-S ,  1-C ) :   1.1540 B(  0-S ,  4-C ) :   1.1424 B(  1-C ,  2-C ) :   1.5715
B(  1-C , 32-H ) :   0.9580 B(  2-C ,  3-C ) :   1.2660 B(  2-C ,  6-C ) :   1.0164
B(  3-C ,  4-C ) :   1.5502 B(  3-C ,  5-H ) :   0.9976 B(  4-C , 20-C ) :   1.0727
B(  6-C ,  7-H ) :   0.9467 B(  6-C ,  8-H ) :   0.9300 B(  6-C ,  9-C ) :   1.0823
B(  9-C , 10-H ) :   0.9573 B(  9-C , 11-H ) :   0.9462 B(  9-C , 12-C ) :   1.0872
B( 12-C , 13-H ) :   0.9774 B( 12-C , 14-H ) :   0.9758 B( 12-C , 15-H ) :   0.9755
B( 16-S , 17-C ) :   1.1763 B( 16-S , 20-C ) :   1.1377 B( 17-C , 18-C ) :   1.5590
B( 17-C , 20-C ) :   0.1010 B( 17-C , 33-H ) :   0.9688 B( 18-C , 19-C ) :   1.2782
B( 18-C , 21-H ) :   0.9872 B( 19-C , 20-C ) :   1.5615 B( 19-C , 22-C ) :   1.0402
B( 22-C , 23-H ) :   0.9493 B( 22-C , 24-H ) :   0.9248 B( 22-C , 25-C ) :   1.0434
B( 25-C , 26-H ) :   0.9552 B( 25-C , 27-H ) :   0.9632 B( 25-C , 28-C ) :   1.1012
B( 28-C , 29-H ) :   0.9731 B( 28-C , 30-H ) :   0.9678 B( 28-C , 31-H ) :   0.9704

Dispersion correction           -0.013007554
FINAL SINGLE POINT ENERGY     -1339.861417940825

DIPOLE MOMENT
-------------
                                X             Y             Z
Electronic contribution:     -8.30335     -27.61477       1.47555
Nuclear contribution   :      8.71721      28.17283      -1.41882
                        -----------------------------------------
Total Dipole Moment    :      0.41385       0.55806       0.05673
                        -----------------------------------------
Magnitude (a.u.)       :      0.69708
Magnitude (Debye)      :      1.77184

Rotational constants in cm-1:     0.019314     0.007406     0.005608
Rotational constants in MHz :   579.014567   222.040735   168.134741

                             ****ORCA TERMINATED NORMALLY****
TOTAL RUN TIME: 0 days 0 hours 0 minutes 28 seconds 734 msec
