                         Program Version 4.2.1 -  RELEASE  -
|  1> ! wB97X-D3 SP def2-SVP
|  2> %pal
|  3> nprocs 16
|  4> end
|  5>
|  6> * xyz 0 1
|  7> S 	 -39.6679 	 -8.26047 	 98.7687
|  8> C 	 -41.0562 	 -8.26441 	 97.7439
|  9> C 	 -42.1506 	 -7.64423 	 98.3677
| 10> C 	 -41.7328 	 -7.0753 	 99.6029
| 11> C 	 -40.4124 	 -7.26008 	 99.9603
| 12> H 	 -42.2536 	 -6.42799 	 100.248
| 13> C 	 -43.5906 	 -7.55941 	 97.8545
| 14> H 	 -43.5827 	 -7.15358 	 96.8824
| 15> H 	 -44.1996 	 -6.8573 	 98.4641
| 16> C 	 -44.3542 	 -8.90767 	 97.6184
| 17> H 	 -43.6725 	 -9.66371 	 97.2607
| 18> H 	 -44.7708 	 -9.25683 	 98.6193
| 19> C 	 -45.6848 	 -8.79302 	 96.8544
| 20> H 	 -45.5264 	 -8.34188 	 95.9378
| 21> H 	 -46.2686 	 -9.78562 	 96.8907
| 22> H 	 -46.3228 	 -8.03733 	 97.333
| 23> S 	 -38.0622 	 -6.23008 	 100.877
| 24> C 	 -37.8824 	 -5.91243 	 102.595
| 25> C 	 -39.0902 	 -5.96348 	 103.238
| 26> C 	 -40.1721 	 -6.42403 	 102.447
| 27> C 	 -39.7782 	 -6.69812 	 101.156
| 28> H 	 -39.0705 	 -5.9524 	 104.345
| 29> C 	 -41.5423 	 -6.93469 	 103.043
| 30> H 	 -41.3696 	 -7.68297 	 103.858
| 31> H 	 -42.0826 	 -7.51241 	 102.268
| 32> C 	 -42.4086 	 -5.77022 	 103.659
| 33> H 	 -42.5583 	 -5.01966 	 102.966
| 34> H 	 -41.8737 	 -5.32639 	 104.517
| 35> C 	 -43.7607 	 -6.26002 	 104.183
| 36> H 	 -44.3154 	 -5.5102 	 104.713
| 37> H 	 -43.6602 	 -6.92369 	 105.035
| 38> H 	 -44.3674 	 -6.72226 	 103.358
| 39> H 	 -41.1595 	 -8.76316 	 96.7643
| 40> H 	 -36.9191 	 -6.091 	 103.092
| 41> *
| 42>
| 43>                          ****END OF INPUT****

CARTESIAN COORDINATES (ANGSTROEM)
---------------------------------
  S    -39.667900   -8.260470   98.768700
  C    -41.056200   -8.264410   97.743900
  C    -42.150600   -7.644230   98.367700
  C    -41.732800   -7.075300   99.602900
  C    -40.412400   -7.260080   99.960300
  H    -42.253600   -6.427990  100.248000
  C    -43.590600   -7.559410   97.854500
  H    -43.582700   -7.153580   96.882400
  H    -44.199600   -6.857300   98.464100
  C    -44.354200   -8.907670   97.618400
  H    -43.672500   -9.663710   97.260700
  H    -44.770800   -9.256830   98.619300
  C    -45.684800   -8.793020   96.854400
  H    -45.526400   -8.341880   95.937800
  H    -46.268600   -9.785620   96.890700
  H    -46.322800   -8.037330   97.333000
  S    -38.062200   -6.230080  100.877000
  C    -37.882400   -5.912430  102.595000
  C    -39.090200   -5.963480  103.238000
  C    -40.172100   -6.424030  102.447000
  C    -39.778200   -6.698120  101.156000
  H    -39.070500   -5.952400  104.345000
  C    -41.542300   -6.934690  103.043000
  H    -41.369600   -7.682970  103.858000
  H    -42.082600   -7.512410  102.268000
  C    -42.408600   -5.770220  103.659000
  H    -42.558300   -5.019660  102.966000
  H    -41.873700   -5.326390  104.517000
  C    -43.760700   -6.260020  104.183000
  H    -44.315400   -5.510200  104.713000
  H    -43.660200   -6.923690  105.035000
  H    -44.367400   -6.722260  103.358000
  H    -41.159500   -8.763160   96.764300
  H    -36.919100   -6.091000  103.092000

 Total Charge           Charge          ....    0
 Multiplicity           Mult            ....    1
 Number of Electrons    NEL             ....  134
 Basis Dimension        Dim             ....  322

ORBITAL ENERGIES
----------------

  NO   OCC          E(Eh)            E(eV)
   0   2.0000     -88.971608     -2421.0405
   1   2.0000     -88.960440     -2420.7366
   2   2.0000     -10.333161      -281.1796
   3   2.0000     -10.327049      -281.0133
   4   2.0000     -10.319813      -280.8164
   5   2.0000     -10.316292      -280.7206
   6   2.0000     -10.309342      -280.5315
   7   2.0000     -10.307893      -280.4920
   8   2.0000     -10.304501      -280.3997
   9   2.0000     -10.297530      -280.2100
  10   2.0000     -10.297303      -280.2039
  11   2.0000     -10.293119      -280.0900
  12   2.0000     -10.288730      -279.9706
  13   2.0000     -10.286355      -279.9060
  14   2.0000     -10.283452      -279.8269
  15   2.0000     -10.279571      -279.7213
  16   2.0000      -8.086556      -220.0464
  17   2.0000      -8.075030      -219.7327
  18   2.0000      -6.045035      -164.4938
  19   2.0000      -6.040855      -164.3800
  20   2.0000      -6.037497      -164.2887
  21   2.0000      -6.033530      -164.1807
  22   2.0000      -6.029680      -164.0759
  23   2.0000      -6.025669      -163.9668
  24   2.0000      -1.009754       -27.4768
  25   2.0000      -0.985344       -26.8126
  26   2.0000      -0.909025       -24.7358
  27   2.0000      -0.901429       -24.5291
  28   2.0000      -0.870493       -23.6873
  29   2.0000      -0.855713       -23.2851
  30   2.0000      -0.846499       -23.0344
  31   2.0000      -0.813917       -22.1478
  32   2.0000      -0.782354       -21.2889
  33   2.0000      -0.772950       -21.0330
  34   2.0000      -0.704312       -19.1653
  35   2.0000      -0.702443       -19.1145
  36   2.0000      -0.695299       -18.9200
  37   2.0000      -0.662711       -18.0333
  38   2.0000      -0.643194       -17.5022
  39   2.0000      -0.618469       -16.8294
  40   2.0000      -0.593423       -16.1479
  41   2.0000      -0.572079       -15.5671
  42   2.0000      -0.566082       -15.4039
  43   2.0000      -0.559011       -15.2115
  44   2.0000      -0.525756       -14.3066
  45   2.0000      -0.524988       -14.2857
  46   2.0000      -0.517479       -14.0813
  47   2.0000      -0.513948       -13.9852
  48   2.0000      -0.506525       -13.7832
  49   2.0000      -0.499536       -13.5931
  50   2.0000      -0.489741       -13.3265
  51   2.0000      -0.481005       -13.0888
  52   2.0000      -0.473503       -12.8847
  53   2.0000      -0.463932       -12.6242
  54   2.0000      -0.459356       -12.4997
  55   2.0000      -0.451415       -12.2836
  56   2.0000      -0.445686       -12.1277
  57   2.0000      -0.433658       -11.8004
  58   2.0000      -0.431328       -11.7370
  59   2.0000      -0.430184       -11.7059
  60   2.0000      -0.425459       -11.5773
  61   2.0000      -0.414293       -11.2735
  62   2.0000      -0.410114       -11.1598
  63   2.0000      -0.351138        -9.5549
  64   2.0000      -0.333769        -9.0823
  65   2.0000      -0.331624        -9.0240
  66   2.0000      -0.289310        -7.8725
  67   0.0000       0.018395         0.5006
  68   0.0000       0.076899         2.0925
  69   0.0000       0.106776         2.9055
  70   0.0000       0.116903         3.1811
  71   0.0000       0.127643         3.4734

MULLIKEN ATOMIC CHARGES
-----------------------
   0 S :    0.135121
   1 C :   -0.136504
   2 C :   -0.061486
   3 C :    0.020717
   4 C :   -0.137902
   5 H :   -0.011172
   6 C :    0.080972
   7 H :    0.015040
   8 H :    0.027900
   9 C :   -0.100857
  10 H :    0.033502
  11 H :    0.031743
  12 C :   -0.045930
  13 H :    0.013039
  14 H :    0.061851
  15 H :    0.022103
  16 S :    0.072737
  17 C :   -0.105008
  18 C :   -0.043541
  19 C :   -0.003014
  20 C :   -0.160002
  21 H :    0.034947
  22 C :    0.012009
  23 H :    0.039639
  24 H :    0.030391
  25 C :   -0.058365
  26 H :    0.018917
  27 H :    0.031014
  28 C :   -0.045281
  29 H :    0.023761
  30 H :    0.019366
  31 H :    0.043775
  32 H :    0.060922
  33 H :    0.079597
Sum of atomic charges:   -0.0000000

LOEWDIN ATOMIC CHARGES
----------------------
   0 S :    0.436833
   1 C :   -0.210152
   2 C :   -0.059824
   3 C :   -0.060770
   4 C :   -0.213207
   5 H :    0.021307
   6 C :   -0.031675
   7 H :    0.024825
   8 H :    0.033898
   9 C :   -0.042778
  10 H :    0.019078
  11 H :    0.029509
  12 C :   -0.068755
  13 H :    0.009000
  14 H :    0.043864
  15 H :    0.027045
  16 S :    0.367370
  17 C :   -0.187592
  18 C :   -0.071988
  19 C :   -0.062686
  20 C :   -0.164740
  21 H :    0.037780
  22 C :   -0.026170
  23 H :    0.034569
  24 H :    0.029231
  25 C :   -0.035557
  26 H :    0.012278
  27 H :    0.027757
  28 C :   -0.071894
  29 H :    0.024819
  30 H :    0.024050
  31 H :    0.030736
  32 H :    0.036501
  33 H :    0.037339

  Mayer bond orders larger than 0.100000
B(  0-S ,  1-C ) :   1.1620 B(  0-S ,  4-C ) :   1.1566 B(  1-C ,  2-C ) :   1.5633
B(  1-C , 32-H ) :   0.9658 B(  2-C ,  3-C ) :   1.2738 B(  2-C ,  6-C ) :   1.0218
B(  3-C ,  4-C ) :   1.5475 B(  3-C ,  5-H ) :   1.0024 B(  4-C , 20-C ) :   1.0507
B(  6-C ,  7-H ) :   0.9366 B(  6-C ,  8-H ) :   0.9455 B(  6-C ,  9-C ) :   1.0506
B(  9-C , 10-H ) :   0.9622 B(  9-C , 11-H ) :   0.9593 B(  9-C , 12-C ) :   1.0697
B( 12-C , 13-H ) :   0.9751 B( 12-C , 14-H ) :   0.9731 B( 12-C , 15-H ) :   0.9716
B( 16-S , 17-C ) :   1.1351 B( 16-S , 20-C ) :   1.1280 B( 17-C , 18-C ) :   1.6512
B( 17-C , 33-H ) :   0.9578 B( 18-C , 19-C ) :   1.2217 B( 18-C , 21-H ) :   0.9751
B( 19-C , 20-C ) :   1.6223 B( 19-C , 22-C ) :   1.0214 B( 22-C , 23-H ) :   0.9459
B( 22-C , 24-H ) :   0.9476 B( 22-C , 25-C ) :   1.0428 B( 25-C , 26-H ) :   0.9604
B( 25-C , 27-H ) :   0.9550 B( 25-C , 28-C ) :   1.0941 B( 28-C , 29-H ) :   0.9702
B( 28-C , 30-H ) :   0.9702 B( 28-C , 31-H ) :   0.9744

Dispersion correction           -0.013314048
FINAL SINGLE POINT ENERGY     -1339.862077652209

DIPOLE MOMENT
-------------
                                X             Y             Z
Electronic contribution:     32.20057       1.94662      -4.71153
Nuclear contribution   :    -32.87377      -2.12150       4.98120
                        -----------------------------------------
Total Dipole Moment    :     -0.67321      -0.17487       0.26967
                        -----------------------------------------
Magnitude (a.u.)       :      0.74600
Magnitude (Debye)      :      1.89617

Rotational constants in cm-1:     0.017399     0.008347     0.005843
Rotational constants in MHz :   521.618196   250.227368   175.172014

                             ****ORCA TERMINATED NORMALLY****
TOTAL RUN TIME: 0 days 0 hours 0 minutes 29 seconds 201 msec
