                         Program Version 4.2.1 -  RELEASE  -
|  1> ! wB97X-D3 SP def2-SVP
|  2> %pal
|  3> nprocs 16
|  4> end
|  5>
|  6> * xyz 0 1
|  7> S 	 56.253 	 24.8791 	 40.5736
|  8> C 	 57.7683 	 25.7146 	 41.0632
|  9> C 	 57.4924 	 26.8321 	 41.802
| 10> C 	 56.0815 	 27.0632 	 41.8295
| 11> C 	 55.3318 	 26.2017 	 41.0625
| 12> H 	 55.6548 	 27.8863 	 42.3408
| 13> C 	 58.5439 	 27.7672 	 42.432
| 14> H 	 58.5371 	 28.6386 	 41.7564
| 15> H 	 59.4858 	 27.3001 	 42.3454
| 16> C 	 58.4004 	 28.3321 	 43.8883
| 17> H 	 57.3754 	 28.7003 	 44.0254
| 18> H 	 58.6548 	 27.5437 	 44.6185
| 19> C 	 59.522 	 29.3219 	 44.3328
| 20> H 	 60.5622 	 28.9925 	 44.309
| 21> H 	 59.5379 	 30.1495 	 43.7256
| 22> H 	 59.244 	 29.6488 	 45.3192
| 23> S 	 53.5027 	 25.4283 	 39.1928
| 24> C 	 51.8177 	 25.7806 	 39.3839
| 25> C 	 51.5877 	 26.4704 	 40.5218
| 26> C 	 52.7457 	 26.6423 	 41.3354
| 27> C 	 53.886 	 26.1587 	 40.761
| 28> H 	 50.6419 	 26.8979 	 40.7708
| 29> C 	 52.682 	 27.3063 	 42.6952
| 30> H 	 51.5915 	 27.6166 	 42.8777
| 31> H 	 53.2541 	 28.1826 	 42.6483
| 32> C 	 53.1128 	 26.5244 	 43.9075
| 33> H 	 54.1276 	 26.1777 	 43.8436
| 34> H 	 52.5676 	 25.5697 	 43.9841
| 35> C 	 53.0651 	 27.3859 	 45.2434
| 36> H 	 53.4092 	 26.8447 	 46.0717
| 37> H 	 52.0806 	 27.8596 	 45.5095
| 38> H 	 53.7779 	 28.1544 	 45.0885
| 39> H 	 58.8188 	 25.3549 	 40.883
| 40> H 	 51.0797 	 25.5553 	 38.5889
| 41> *
| 42>
| 43>                          ****END OF INPUT****

CARTESIAN COORDINATES (ANGSTROEM)
---------------------------------
  S     56.253000   24.879100   40.573600
  C     57.768300   25.714600   41.063200
  C     57.492400   26.832100   41.802000
  C     56.081500   27.063200   41.829500
  C     55.331800   26.201700   41.062500
  H     55.654800   27.886300   42.340800
  C     58.543900   27.767200   42.432000
  H     58.537100   28.638600   41.756400
  H     59.485800   27.300100   42.345400
  C     58.400400   28.332100   43.888300
  H     57.375400   28.700300   44.025400
  H     58.654800   27.543700   44.618500
  C     59.522000   29.321900   44.332800
  H     60.562200   28.992500   44.309000
  H     59.537900   30.149500   43.725600
  H     59.244000   29.648800   45.319200
  S     53.502700   25.428300   39.192800
  C     51.817700   25.780600   39.383900
  C     51.587700   26.470400   40.521800
  C     52.745700   26.642300   41.335400
  C     53.886000   26.158700   40.761000
  H     50.641900   26.897900   40.770800
  C     52.682000   27.306300   42.695200
  H     51.591500   27.616600   42.877700
  H     53.254100   28.182600   42.648300
  C     53.112800   26.524400   43.907500
  H     54.127600   26.177700   43.843600
  H     52.567600   25.569700   43.984100
  C     53.065100   27.385900   45.243400
  H     53.409200   26.844700   46.071700
  H     52.080600   27.859600   45.509500
  H     53.777900   28.154400   45.088500
  H     58.818800   25.354900   40.883000
  H     51.079700   25.555300   38.588900

 Total Charge           Charge          ....    0
 Multiplicity           Mult            ....    1
 Number of Electrons    NEL             ....  134
 Basis Dimension        Dim             ....  322

ORBITAL ENERGIES
----------------

  NO   OCC          E(Eh)            E(eV)
   0   2.0000     -88.964732     -2420.8534
   1   2.0000     -88.962112     -2420.7821
   2   2.0000     -10.328665      -281.0573
   3   2.0000     -10.327394      -281.0227
   4   2.0000     -10.316973      -280.7391
   5   2.0000     -10.316020      -280.7132
   6   2.0000     -10.303291      -280.3668
   7   2.0000     -10.300902      -280.3018
   8   2.0000     -10.297739      -280.2157
   9   2.0000     -10.296529      -280.1828
  10   2.0000     -10.291704      -280.0515
  11   2.0000     -10.290146      -280.0091
  12   2.0000     -10.289332      -279.9870
  13   2.0000     -10.284406      -279.8529
  14   2.0000     -10.277465      -279.6640
  15   2.0000     -10.276627      -279.6412
  16   2.0000      -8.080123      -219.8713
  17   2.0000      -8.077286      -219.7941
  18   2.0000      -6.038705      -164.3215
  19   2.0000      -6.035817      -164.2429
  20   2.0000      -6.034683      -164.2121
  21   2.0000      -6.031698      -164.1309
  22   2.0000      -6.030582      -164.1005
  23   2.0000      -6.028005      -164.0304
  24   2.0000      -1.013471       -27.5779
  25   2.0000      -0.988902       -26.9094
  26   2.0000      -0.909556       -24.7503
  27   2.0000      -0.908403       -24.7189
  28   2.0000      -0.873058       -23.7571
  29   2.0000      -0.850439       -23.1416
  30   2.0000      -0.842899       -22.9364
  31   2.0000      -0.816931       -22.2298
  32   2.0000      -0.787784       -21.4367
  33   2.0000      -0.777300       -21.1514
  34   2.0000      -0.712422       -19.3860
  35   2.0000      -0.702844       -19.1254
  36   2.0000      -0.688485       -18.7346
  37   2.0000      -0.666727       -18.1426
  38   2.0000      -0.636578       -17.3222
  39   2.0000      -0.625451       -17.0194
  40   2.0000      -0.600658       -16.3447
  41   2.0000      -0.569789       -15.5047
  42   2.0000      -0.565911       -15.3992
  43   2.0000      -0.559667       -15.2293
  44   2.0000      -0.529722       -14.4145
  45   2.0000      -0.523998       -14.2587
  46   2.0000      -0.517387       -14.0788
  47   2.0000      -0.510369       -13.8878
  48   2.0000      -0.504496       -13.7280
  49   2.0000      -0.497115       -13.5272
  50   2.0000      -0.492835       -13.4107
  51   2.0000      -0.486275       -13.2322
  52   2.0000      -0.476074       -12.9546
  53   2.0000      -0.469404       -12.7731
  54   2.0000      -0.460205       -12.5228
  55   2.0000      -0.455045       -12.3824
  56   2.0000      -0.447920       -12.1885
  57   2.0000      -0.443122       -12.0580
  58   2.0000      -0.433739       -11.8026
  59   2.0000      -0.427346       -11.6287
  60   2.0000      -0.418540       -11.3891
  61   2.0000      -0.414411       -11.2767
  62   2.0000      -0.410976       -11.1832
  63   2.0000      -0.354069        -9.6347
  64   2.0000      -0.332124        -9.0376
  65   2.0000      -0.329235        -8.9589
  66   2.0000      -0.290418        -7.9027
  67   0.0000       0.025692         0.6991
  68   0.0000       0.082539         2.2460
  69   0.0000       0.102125         2.7790
  70   0.0000       0.118201         3.2164
  71   0.0000       0.127124         3.4592

MULLIKEN ATOMIC CHARGES
-----------------------
   0 S :    0.103241
   1 C :   -0.150993
   2 C :   -0.066104
   3 C :    0.006846
   4 C :   -0.097007
   5 H :   -0.019320
   6 C :    0.079400
   7 H :    0.042105
   8 H :    0.003772
   9 C :   -0.101850
  10 H :    0.040170
  11 H :    0.040587
  12 C :   -0.024682
  13 H :    0.036434
  14 H :    0.004272
  15 H :    0.032728
  16 S :    0.086993
  17 C :   -0.088313
  18 C :   -0.014264
  19 C :   -0.054521
  20 C :   -0.125895
  21 H :    0.005008
  22 C :    0.067079
  23 H :    0.023001
  24 H :    0.016563
  25 C :   -0.079144
  26 H :    0.029210
  27 H :    0.029584
  28 C :   -0.031180
  29 H :    0.025122
  30 H :    0.038830
  31 H :    0.012554
  32 H :    0.058049
  33 H :    0.071725
Sum of atomic charges:    0.0000000

LOEWDIN ATOMIC CHARGES
----------------------
   0 S :    0.412632
   1 C :   -0.197308
   2 C :   -0.058216
   3 C :   -0.073908
   4 C :   -0.200903
   5 H :    0.018098
   6 C :   -0.029548
   7 H :    0.037088
   8 H :    0.021788
   9 C :   -0.038535
  10 H :    0.024062
  11 H :    0.030817
  12 C :   -0.057352
  13 H :    0.029837
  14 H :    0.008760
  15 H :    0.029325
  16 S :    0.397823
  17 C :   -0.186947
  18 C :   -0.070157
  19 C :   -0.058160
  20 C :   -0.186848
  21 H :    0.028119
  22 C :   -0.031733
  23 H :    0.037620
  24 H :    0.020661
  25 C :   -0.038942
  26 H :    0.022291
  27 H :    0.025058
  28 C :   -0.058397
  29 H :    0.020089
  30 H :    0.028927
  31 H :    0.017985
  32 H :    0.037519
  33 H :    0.038455

  Mayer bond orders larger than 0.100000
B(  0-S ,  1-C ) :   1.1106 B(  0-S ,  4-C ) :   1.1749 B(  1-C ,  2-C ) :   1.6378
B(  1-C , 32-H ) :   0.9607 B(  2-C ,  3-C ) :   1.2334 B(  2-C ,  6-C ) :   1.0135
B(  3-C ,  4-C ) :   1.5704 B(  3-C ,  5-H ) :   1.0060 B(  4-C , 20-C ) :   1.0202
B(  6-C ,  7-H ) :   0.9396 B(  6-C ,  8-H ) :   0.9408 B(  6-C ,  9-C ) :   1.0616
B(  9-C , 10-H ) :   0.9571 B(  9-C , 11-H ) :   0.9616 B(  9-C , 12-C ) :   1.0711
B( 12-C , 13-H ) :   0.9767 B( 12-C , 14-H ) :   0.9746 B( 12-C , 15-H ) :   0.9742
B( 16-S , 17-C ) :   1.1532 B( 16-S , 20-C ) :   1.1306 B( 17-C , 18-C ) :   1.6017
B( 17-C , 33-H ) :   0.9631 B( 18-C , 19-C ) :   1.2499 B( 18-C , 21-H ) :   0.9958
B( 19-C , 20-C ) :   1.6177 B( 19-C , 22-C ) :   1.0373 B( 22-C , 23-H ) :   0.9332
B( 22-C , 24-H ) :   0.9265 B( 22-C , 25-C ) :   1.0734 B( 25-C , 26-H ) :   0.9507
B( 25-C , 27-H ) :   0.9544 B( 25-C , 28-C ) :   1.0728 B( 28-C , 29-H ) :   0.9750
B( 28-C , 30-H ) :   0.9784 B( 28-C , 31-H ) :   0.9744

Dispersion correction           -0.013979692
FINAL SINGLE POINT ENERGY     -1339.871424763470

DIPOLE MOMENT
-------------
                                X             Y             Z
Electronic contribution:     -7.85128     -17.56116     -26.68823
Nuclear contribution   :      7.94223      18.10387      27.18558
                        -----------------------------------------
Total Dipole Moment    :      0.09095       0.54271       0.49734
                        -----------------------------------------
Magnitude (a.u.)       :      0.74173
Magnitude (Debye)      :      1.88532

Rotational constants in cm-1:     0.018623     0.008746     0.006448
Rotational constants in MHz :   558.310982   262.189139   193.308647

                             ****ORCA TERMINATED NORMALLY****
TOTAL RUN TIME: 0 days 0 hours 0 minutes 29 seconds 938 msec
