                         Program Version 4.2.1 -  RELEASE  -
|  1> ! wB97X-D3 SP def2-SVP
|  2> %pal
|  3> nprocs 16
|  4> end
|  5>
|  6> * xyz 0 1
|  7> S 	 -12.7174 	 59.9475 	 51.8769
|  8> C 	 -12.5103 	 61.204 	 50.615
|  9> C 	 -12.0419 	 62.3587 	 51.204
| 10> C 	 -12.0798 	 62.3662 	 52.6092
| 11> C 	 -12.4159 	 61.1125 	 53.1228
| 12> H 	 -11.8714 	 63.1714 	 53.2811
| 13> C 	 -11.7054 	 63.6396 	 50.3935
| 14> H 	 -12.3986 	 64.4522 	 50.6208
| 15> H 	 -11.7385 	 63.5631 	 49.2913
| 16> C 	 -10.3261 	 64.2057 	 50.7852
| 17> H 	 -10.0456 	 64.9143 	 50.0335
| 18> H 	 -10.4397 	 64.8209 	 51.691
| 19> C 	 -9.16414 	 63.177 	 50.8649
| 20> H 	 -8.25399 	 63.5324 	 50.6905
| 21> H 	 -9.15411 	 62.8105 	 51.8703
| 22> H 	 -9.33176 	 62.2784 	 50.3073
| 23> S 	 -12.3196 	 59.0374 	 54.9679
| 24> C 	 -12.7056 	 59.2729 	 56.5831
| 25> C 	 -13.0735 	 60.6277 	 56.8248
| 26> C 	 -13.0767 	 61.4123 	 55.6192
| 27> C 	 -12.6059 	 60.7075 	 54.5115
| 28> H 	 -13.3333 	 60.8082 	 57.8373
| 29> C 	 -13.415 	 62.8416 	 55.6259
| 30> H 	 -14.4486 	 62.8928 	 55.9316
| 31> H 	 -13.4943 	 63.2583 	 54.6144
| 32> C 	 -12.4936 	 63.7607 	 56.4502
| 33> H 	 -12.6241 	 63.458 	 57.5596
| 34> H 	 -12.8792 	 64.7784 	 56.2822
| 35> C 	 -10.9024 	 63.7461 	 56.0932
| 36> H 	 -10.3561 	 64.4551 	 56.7149
| 37> H 	 -10.6601 	 64.0696 	 55.0759
| 38> H 	 -10.4484 	 62.7237 	 56.2328
| 39> H 	 -12.4273 	 60.9643 	 49.5807
| 40> H 	 -12.5457 	 58.5591 	 57.3869
| 41> *
| 42>
| 43>                          ****END OF INPUT****

CARTESIAN COORDINATES (ANGSTROEM)
---------------------------------
  S    -12.717400   59.947500   51.876900
  C    -12.510300   61.204000   50.615000
  C    -12.041900   62.358700   51.204000
  C    -12.079800   62.366200   52.609200
  C    -12.415900   61.112500   53.122800
  H    -11.871400   63.171400   53.281100
  C    -11.705400   63.639600   50.393500
  H    -12.398600   64.452200   50.620800
  H    -11.738500   63.563100   49.291300
  C    -10.326100   64.205700   50.785200
  H    -10.045600   64.914300   50.033500
  H    -10.439700   64.820900   51.691000
  C     -9.164140   63.177000   50.864900
  H     -8.253990   63.532400   50.690500
  H     -9.154110   62.810500   51.870300
  H     -9.331760   62.278400   50.307300
  S    -12.319600   59.037400   54.967900
  C    -12.705600   59.272900   56.583100
  C    -13.073500   60.627700   56.824800
  C    -13.076700   61.412300   55.619200
  C    -12.605900   60.707500   54.511500
  H    -13.333300   60.808200   57.837300
  C    -13.415000   62.841600   55.625900
  H    -14.448600   62.892800   55.931600
  H    -13.494300   63.258300   54.614400
  C    -12.493600   63.760700   56.450200
  H    -12.624100   63.458000   57.559600
  H    -12.879200   64.778400   56.282200
  C    -10.902400   63.746100   56.093200
  H    -10.356100   64.455100   56.714900
  H    -10.660100   64.069600   55.075900
  H    -10.448400   62.723700   56.232800
  H    -12.427300   60.964300   49.580700
  H    -12.545700   58.559100   57.386900

 Total Charge           Charge          ....    0
 Multiplicity           Mult            ....    1
 Number of Electrons    NEL             ....  134
 Basis Dimension        Dim             ....  322

ORBITAL ENERGIES
----------------

  NO   OCC          E(Eh)            E(eV)
   0   2.0000     -88.967023     -2420.9158
   1   2.0000     -88.964935     -2420.8590
   2   2.0000     -10.333638      -281.1926
   3   2.0000     -10.327477      -281.0249
   4   2.0000     -10.317919      -280.7648
   5   2.0000     -10.312063      -280.6055
   6   2.0000     -10.305432      -280.4251
   7   2.0000     -10.305309      -280.4217
   8   2.0000     -10.304099      -280.3888
   9   2.0000     -10.296311      -280.1769
  10   2.0000     -10.295381      -280.1516
  11   2.0000     -10.292656      -280.0774
  12   2.0000     -10.289472      -279.9908
  13   2.0000     -10.287747      -279.9438
  14   2.0000     -10.283686      -279.8333
  15   2.0000     -10.258600      -279.1507
  16   2.0000      -8.082891      -219.9466
  17   2.0000      -8.079551      -219.8558
  18   2.0000      -6.041278      -164.3915
  19   2.0000      -6.038139      -164.3061
  20   2.0000      -6.037013      -164.2755
  21   2.0000      -6.034086      -164.1958
  22   2.0000      -6.033955      -164.1923
  23   2.0000      -6.030219      -164.0906
  24   2.0000      -1.010595       -27.4997
  25   2.0000      -0.986180       -26.8353
  26   2.0000      -0.910065       -24.7641
  27   2.0000      -0.908087       -24.7103
  28   2.0000      -0.867117       -23.5954
  29   2.0000      -0.845874       -23.0174
  30   2.0000      -0.838911       -22.8279
  31   2.0000      -0.813627       -22.1399
  32   2.0000      -0.789605       -21.4862
  33   2.0000      -0.780248       -21.2316
  34   2.0000      -0.711664       -19.3654
  35   2.0000      -0.697135       -18.9700
  36   2.0000      -0.695203       -18.9174
  37   2.0000      -0.657844       -17.9008
  38   2.0000      -0.640005       -17.4154
  39   2.0000      -0.627354       -17.0712
  40   2.0000      -0.598441       -16.2844
  41   2.0000      -0.567728       -15.4487
  42   2.0000      -0.553645       -15.0654
  43   2.0000      -0.544853       -14.8262
  44   2.0000      -0.543462       -14.7883
  45   2.0000      -0.537405       -14.6235
  46   2.0000      -0.519581       -14.1385
  47   2.0000      -0.508532       -13.8379
  48   2.0000      -0.502285       -13.6679
  49   2.0000      -0.496565       -13.5122
  50   2.0000      -0.489317       -13.3150
  51   2.0000      -0.478421       -13.0185
  52   2.0000      -0.473028       -12.8717
  53   2.0000      -0.466727       -12.7003
  54   2.0000      -0.464480       -12.6392
  55   2.0000      -0.452814       -12.3217
  56   2.0000      -0.447933       -12.1889
  57   2.0000      -0.438353       -11.9282
  58   2.0000      -0.435368       -11.8470
  59   2.0000      -0.424987       -11.5645
  60   2.0000      -0.416078       -11.3221
  61   2.0000      -0.409889       -11.1536
  62   2.0000      -0.406505       -11.0616
  63   2.0000      -0.355592        -9.6761
  64   2.0000      -0.334824        -9.1110
  65   2.0000      -0.329263        -8.9597
  66   2.0000      -0.284504        -7.7417
  67   0.0000       0.022899         0.6231
  68   0.0000       0.076178         2.0729
  69   0.0000       0.106925         2.9096
  70   0.0000       0.117784         3.2051
  71   0.0000       0.126999         3.4558

MULLIKEN ATOMIC CHARGES
-----------------------
   0 S :    0.090090
   1 C :   -0.117571
   2 C :   -0.064156
   3 C :    0.024214
   4 C :   -0.117315
   5 H :   -0.013869
   6 C :    0.069182
   7 H :    0.035512
   8 H :    0.025218
   9 C :   -0.126506
  10 H :    0.021276
  11 H :    0.029188
  12 C :    0.034407
  13 H :    0.002796
  14 H :    0.015104
  15 H :    0.021853
  16 S :    0.116087
  17 C :   -0.102783
  18 C :   -0.050367
  19 C :   -0.029592
  20 C :   -0.134741
  21 H :    0.010220
  22 C :    0.063273
  23 H :    0.029276
  24 H :    0.015247
  25 C :   -0.093691
  26 H :    0.047776
  27 H :    0.040346
  28 C :   -0.085454
  29 H :    0.037188
  30 H :    0.035435
  31 H :    0.060208
  32 H :    0.045577
  33 H :    0.066574
Sum of atomic charges:   -0.0000000

LOEWDIN ATOMIC CHARGES
----------------------
   0 S :    0.392795
   1 C :   -0.187791
   2 C :   -0.054966
   3 C :   -0.070565
   4 C :   -0.176729
   5 H :    0.024709
   6 C :   -0.028475
   7 H :    0.033839
   8 H :    0.029800
   9 C :   -0.043665
  10 H :    0.020100
  11 H :    0.020876
  12 C :   -0.054250
  13 H :    0.005996
  14 H :    0.028319
  15 H :    0.027299
  16 S :    0.436011
  17 C :   -0.208173
  18 C :   -0.071956
  19 C :   -0.053608
  20 C :   -0.204605
  21 H :    0.026259
  22 C :   -0.045421
  23 H :    0.037079
  24 H :    0.030151
  25 C :   -0.036651
  26 H :    0.031550
  27 H :    0.026563
  28 C :   -0.075534
  29 H :    0.027246
  30 H :    0.020841
  31 H :    0.036207
  32 H :    0.022923
  33 H :    0.033824

  Mayer bond orders larger than 0.100000
B(  0-S ,  1-C ) :   1.1146 B(  0-S ,  4-C ) :   1.1680 B(  1-C ,  2-C ) :   1.6161
B(  1-C ,  4-C ) :   0.1042 B(  1-C , 32-H ) :   0.9706 B(  2-C ,  3-C ) :   1.2254
B(  2-C ,  6-C ) :   1.0214 B(  3-C ,  4-C ) :   1.5505 B(  3-C ,  5-H ) :   0.9955
B(  4-C , 20-C ) :   1.0647 B(  6-C ,  7-H ) :   0.9451 B(  6-C ,  8-H ) :   0.9499
B(  6-C ,  9-C ) :   1.0710 B(  9-C , 10-H ) :   0.9615 B(  9-C , 11-H ) :   0.9588
B(  9-C , 12-C ) :   1.0682 B( 12-C , 13-H ) :   0.9767 B( 12-C , 14-H ) :   0.9667
B( 12-C , 15-H ) :   0.9739 B( 16-S , 17-C ) :   1.1975 B( 16-S , 20-C ) :   1.1429
B( 17-C , 18-C ) :   1.5696 B( 17-C , 33-H ) :   0.9662 B( 18-C , 19-C ) :   1.2382
B( 18-C , 21-H ) :   1.0030 B( 19-C , 20-C ) :   1.5515 B( 19-C , 22-C ) :   1.0621
B( 22-C , 23-H ) :   0.9180 B( 22-C , 24-H ) :   0.9282 B( 22-C , 25-C ) :   1.0692
B( 25-C , 26-H ) :   0.9559 B( 25-C , 27-H ) :   0.9579 B( 25-C , 28-C ) :   1.0584
B( 28-C , 29-H ) :   0.9749 B( 28-C , 30-H ) :   0.9723 B( 28-C , 31-H ) :   0.9754

Dispersion correction           -0.015733982
FINAL SINGLE POINT ENERGY     -1339.871865807467

DIPOLE MOMENT
-------------
                                X             Y             Z
Electronic contribution:    -10.85626     -25.36862       0.00885
Nuclear contribution   :     10.99301      25.96991       0.22301
                        -----------------------------------------
Total Dipole Moment    :      0.13676       0.60129       0.23186
                        -----------------------------------------
Magnitude (a.u.)       :      0.65879
Magnitude (Debye)      :      1.67452

Rotational constants in cm-1:     0.019161     0.010032     0.007543
Rotational constants in MHz :   574.428686   300.750102   226.126014

                             ****ORCA TERMINATED NORMALLY****
TOTAL RUN TIME: 0 days 0 hours 0 minutes 34 seconds 195 msec
