                         Program Version 4.2.1 -  RELEASE  -
|  1> ! wB97X-D3 SP def2-SVP
|  2> %pal
|  3> nprocs 16
|  4> end
|  5>
|  6> * xyz 0 1
|  7> S 	 -44.6816 	 62.3702 	 142.197
|  8> C 	 -43.6452 	 60.9268 	 141.838
|  9> C 	 -44.2061 	 60.2888 	 140.784
| 10> C 	 -45.3143 	 60.9119 	 140.184
| 11> C 	 -45.78 	 61.9932 	 140.878
| 12> H 	 -45.9026 	 60.4598 	 139.418
| 13> C 	 -43.7864 	 58.9424 	 140.289
| 14> H 	 -44.3134 	 58.77 	 139.325
| 15> H 	 -44.1551 	 58.2323 	 140.942
| 16> C 	 -42.2741 	 58.6571 	 140.089
| 17> H 	 -41.7255 	 59.5017 	 139.604
| 18> H 	 -41.9335 	 58.5728 	 141.073
| 19> C 	 -41.9865 	 57.3594 	 139.286
| 20> H 	 -40.9711 	 57.1137 	 139.353
| 21> H 	 -42.5151 	 56.5712 	 139.733
| 22> H 	 -42.2528 	 57.4995 	 138.244
| 23> S 	 -47.8481 	 63.09 	 142.269
| 24> C 	 -48.9624 	 64.1208 	 141.502
| 25> C 	 -48.7756 	 64.1667 	 140.162
| 26> C 	 -47.5575 	 63.5192 	 139.735
| 27> C 	 -46.9643 	 62.8514 	 140.793
| 28> H 	 -49.5185 	 64.6244 	 139.571
| 29> C 	 -47.0868 	 63.6413 	 138.317
| 30> H 	 -46.0714 	 63.1401 	 138.238
| 31> H 	 -46.8856 	 64.7071 	 138.109
| 32> C 	 -47.9497 	 63.0274 	 137.262
| 33> H 	 -48.9669 	 63.5148 	 137.315
| 34> H 	 -48.1214 	 61.9751 	 137.54
| 35> C 	 -47.2507 	 63.1175 	 135.938
| 36> H 	 -47.1219 	 64.0864 	 135.566
| 37> H 	 -47.8788 	 62.5549 	 135.279
| 38> H 	 -46.311 	 62.6554 	 136.033
| 39> H 	 -42.8945 	 60.5785 	 142.56
| 40> H 	 -49.932 	 64.3325 	 141.937
| 41> *
| 42>
| 43>                          ****END OF INPUT****

CARTESIAN COORDINATES (ANGSTROEM)
---------------------------------
  S    -44.681600   62.370200  142.197000
  C    -43.645200   60.926800  141.838000
  C    -44.206100   60.288800  140.784000
  C    -45.314300   60.911900  140.184000
  C    -45.780000   61.993200  140.878000
  H    -45.902600   60.459800  139.418000
  C    -43.786400   58.942400  140.289000
  H    -44.313400   58.770000  139.325000
  H    -44.155100   58.232300  140.942000
  C    -42.274100   58.657100  140.089000
  H    -41.725500   59.501700  139.604000
  H    -41.933500   58.572800  141.073000
  C    -41.986500   57.359400  139.286000
  H    -40.971100   57.113700  139.353000
  H    -42.515100   56.571200  139.733000
  H    -42.252800   57.499500  138.244000
  S    -47.848100   63.090000  142.269000
  C    -48.962400   64.120800  141.502000
  C    -48.775600   64.166700  140.162000
  C    -47.557500   63.519200  139.735000
  C    -46.964300   62.851400  140.793000
  H    -49.518500   64.624400  139.571000
  C    -47.086800   63.641300  138.317000
  H    -46.071400   63.140100  138.238000
  H    -46.885600   64.707100  138.109000
  C    -47.949700   63.027400  137.262000
  H    -48.966900   63.514800  137.315000
  H    -48.121400   61.975100  137.540000
  C    -47.250700   63.117500  135.938000
  H    -47.121900   64.086400  135.566000
  H    -47.878800   62.554900  135.279000
  H    -46.311000   62.655400  136.033000
  H    -42.894500   60.578500  142.560000
  H    -49.932000   64.332500  141.937000

 Total Charge           Charge          ....    0
 Multiplicity           Mult            ....    1
 Number of Electrons    NEL             ....  134
 Basis Dimension        Dim             ....  322

ORBITAL ENERGIES
----------------

  NO   OCC          E(Eh)            E(eV)
   0   2.0000     -88.963261     -2420.8134
   1   2.0000     -88.958029     -2420.6710
   2   2.0000     -10.331145      -281.1248
   3   2.0000     -10.326491      -280.9981
   4   2.0000     -10.313646      -280.6486
   5   2.0000     -10.308751      -280.5154
   6   2.0000     -10.303068      -280.3607
   7   2.0000     -10.295197      -280.1466
   8   2.0000     -10.289670      -279.9962
   9   2.0000     -10.288633      -279.9679
  10   2.0000     -10.288141      -279.9545
  11   2.0000     -10.286771      -279.9173
  12   2.0000     -10.284314      -279.8504
  13   2.0000     -10.283664      -279.8327
  14   2.0000     -10.271347      -279.4976
  15   2.0000     -10.267358      -279.3890
  16   2.0000      -8.079405      -219.8518
  17   2.0000      -8.072266      -219.6575
  18   2.0000      -6.037864      -164.2986
  19   2.0000      -6.033643      -164.1838
  20   2.0000      -6.030858      -164.1080
  21   2.0000      -6.030170      -164.0893
  22   2.0000      -6.026807      -163.9978
  23   2.0000      -6.022975      -163.8935
  24   2.0000      -1.012184       -27.5429
  25   2.0000      -0.987811       -26.8797
  26   2.0000      -0.921190       -25.0669
  27   2.0000      -0.911779       -24.8108
  28   2.0000      -0.871602       -23.7175
  29   2.0000      -0.858101       -23.3501
  30   2.0000      -0.844119       -22.9696
  31   2.0000      -0.820251       -22.3202
  32   2.0000      -0.785547       -21.3758
  33   2.0000      -0.773920       -21.0594
  34   2.0000      -0.709842       -19.3158
  35   2.0000      -0.703818       -19.1519
  36   2.0000      -0.693615       -18.8742
  37   2.0000      -0.661269       -17.9940
  38   2.0000      -0.640523       -17.4295
  39   2.0000      -0.621693       -16.9171
  40   2.0000      -0.602255       -16.3882
  41   2.0000      -0.573868       -15.6157
  42   2.0000      -0.569395       -15.4940
  43   2.0000      -0.565020       -15.3750
  44   2.0000      -0.535282       -14.5658
  45   2.0000      -0.525027       -14.2867
  46   2.0000      -0.522650       -14.2220
  47   2.0000      -0.516092       -14.0436
  48   2.0000      -0.507958       -13.8222
  49   2.0000      -0.501271       -13.6403
  50   2.0000      -0.495903       -13.4942
  51   2.0000      -0.483343       -13.1524
  52   2.0000      -0.475715       -12.9449
  53   2.0000      -0.466224       -12.6866
  54   2.0000      -0.460572       -12.5328
  55   2.0000      -0.449033       -12.2188
  56   2.0000      -0.443448       -12.0668
  57   2.0000      -0.441246       -12.0069
  58   2.0000      -0.434076       -11.8118
  59   2.0000      -0.423146       -11.5144
  60   2.0000      -0.419507       -11.4154
  61   2.0000      -0.414920       -11.2905
  62   2.0000      -0.409863       -11.1529
  63   2.0000      -0.348951        -9.4954
  64   2.0000      -0.332063        -9.0359
  65   2.0000      -0.326562        -8.8862
  66   2.0000      -0.296603        -8.0710
  67   0.0000       0.030914         0.8412
  68   0.0000       0.071689         1.9508
  69   0.0000       0.114442         3.1141
  70   0.0000       0.125666         3.4195
  71   0.0000       0.133149         3.6232

MULLIKEN ATOMIC CHARGES
-----------------------
   0 S :    0.071978
   1 C :   -0.148675
   2 C :   -0.069111
   3 C :    0.043983
   4 C :   -0.139168
   5 H :    0.000158
   6 C :    0.073998
   7 H :    0.012451
   8 H :    0.022277
   9 C :   -0.097342
  10 H :    0.039703
  11 H :    0.014397
  12 C :   -0.002619
  13 H :    0.022093
  14 H :    0.015040
  15 H :    0.036492
  16 S :    0.115714
  17 C :   -0.075770
  18 C :   -0.041149
  19 C :   -0.005865
  20 C :   -0.155123
  21 H :    0.005619
  22 C :    0.026108
  23 H :    0.021867
  24 H :    0.037593
  25 C :   -0.115463
  26 H :    0.032237
  27 H :    0.028372
  28 C :    0.043941
  29 H :    0.019625
  30 H :    0.024954
  31 H :    0.015455
  32 H :    0.065589
  33 H :    0.060640
Sum of atomic charges:    0.0000000

LOEWDIN ATOMIC CHARGES
----------------------
   0 S :    0.370909
   1 C :   -0.185301
   2 C :   -0.063650
   3 C :   -0.071654
   4 C :   -0.171383
   5 H :    0.028186
   6 C :   -0.027438
   7 H :    0.027546
   8 H :    0.024266
   9 C :   -0.034221
  10 H :    0.028437
  11 H :    0.011977
  12 C :   -0.051652
  13 H :    0.021168
  14 H :    0.018214
  15 H :    0.027082
  16 S :    0.430810
  17 C :   -0.200877
  18 C :   -0.064953
  19 C :   -0.052663
  20 C :   -0.207725
  21 H :    0.023813
  22 C :   -0.042464
  23 H :    0.033158
  24 H :    0.034679
  25 C :   -0.043387
  26 H :    0.025179
  27 H :    0.025725
  28 C :   -0.047950
  29 H :    0.019628
  30 H :    0.026931
  31 H :    0.021977
  32 H :    0.034393
  33 H :    0.031240

  Mayer bond orders larger than 0.100000
B(  0-S ,  1-C ) :   1.1011 B(  0-S ,  4-C ) :   1.1646 B(  1-C ,  2-C ) :   1.6233
B(  1-C ,  4-C ) :   0.1005 B(  1-C , 32-H ) :   0.9749 B(  2-C ,  3-C ) :   1.2395
B(  2-C ,  6-C ) :   1.0158 B(  3-C ,  4-C ) :   1.5857 B(  3-C ,  5-H ) :   1.0001
B(  4-C , 20-C ) :   1.0075 B(  6-C ,  7-H ) :   0.9459 B(  6-C ,  8-H ) :   0.9282
B(  6-C ,  9-C ) :   1.0586 B(  9-C , 10-H ) :   0.9650 B(  9-C , 11-H ) :   0.9512
B(  9-C , 12-C ) :   1.0925 B( 12-C , 13-H ) :   0.9728 B( 12-C , 14-H ) :   0.9728
B( 12-C , 15-H ) :   0.9766 B( 16-S , 17-C ) :   1.1577 B( 16-S , 20-C ) :   1.1550
B( 17-C , 18-C ) :   1.6338 B( 17-C , 33-H ) :   0.9585 B( 18-C , 19-C ) :   1.2159
B( 18-C , 21-H ) :   0.9951 B( 19-C , 20-C ) :   1.5980 B( 19-C , 22-C ) :   1.0499
B( 22-C , 23-H ) :   0.9303 B( 22-C , 24-H ) :   0.9305 B( 22-C , 25-C ) :   1.0706
B( 25-C , 26-H ) :   0.9490 B( 25-C , 27-H ) :   0.9511 B( 25-C , 28-C ) :   1.0900
B( 28-C , 29-H ) :   0.9715 B( 28-C , 30-H ) :   0.9704 B( 28-C , 31-H ) :   0.9673

Dispersion correction           -0.013322342
FINAL SINGLE POINT ENERGY     -1339.877263013836

DIPOLE MOMENT
-------------
                                X             Y             Z
Electronic contribution:     -8.51215      14.03492      24.38309
Nuclear contribution   :      8.33531     -14.46826     -24.92403
                        -----------------------------------------
Total Dipole Moment    :     -0.17685      -0.43334      -0.54095
                        -----------------------------------------
Magnitude (a.u.)       :      0.71532
Magnitude (Debye)      :      1.81819

Rotational constants in cm-1:     0.018665     0.007941     0.005933
Rotational constants in MHz :   559.569380   238.052602   177.855932

                             ****ORCA TERMINATED NORMALLY****
TOTAL RUN TIME: 0 days 0 hours 0 minutes 34 seconds 101 msec
