                         Program Version 4.2.1 -  RELEASE  -
|  1> ! wB97X-D3 SP def2-SVP
|  2> %pal
|  3> nprocs 16
|  4> end
|  5>
|  6> * xyz 0 1
|  7> S 	 -36.6627 	 52.9034 	 109.908
|  8> C 	 -38.2752 	 52.35 	 110.333
|  9> C 	 -38.3419 	 50.9663 	 110.158
| 10> C 	 -37.1081 	 50.3298 	 109.721
| 11> C 	 -36.0831 	 51.2647 	 109.458
| 12> H 	 -37.0852 	 49.2935 	 109.493
| 13> C 	 -39.6026 	 50.169 	 110.306
| 14> H 	 -39.4924 	 49.3524 	 109.567
| 15> H 	 -40.288 	 50.9196 	 109.893
| 16> C 	 -39.9828 	 49.7716 	 111.697
| 17> H 	 -39.3072 	 49.0371 	 112.067
| 18> H 	 -39.7327 	 50.6229 	 112.311
| 19> C 	 -41.4952 	 49.3415 	 111.945
| 20> H 	 -41.7205 	 49.0454 	 112.965
| 21> H 	 -42.2125 	 50.128 	 111.687
| 22> H 	 -41.5619 	 48.3853 	 111.332
| 23> S 	 -33.811 	 49.6057 	 109.606
| 24> C 	 -32.5173 	 49.9053 	 108.436
| 25> C 	 -32.7434 	 51.0628 	 107.701
| 26> C 	 -34.0123 	 51.678 	 107.972
| 27> C 	 -34.6741 	 51.0266 	 109.003
| 28> H 	 -31.9375 	 51.345 	 107.071
| 29> C 	 -34.5757 	 52.848 	 107.14
| 30> H 	 -33.8101 	 53.2194 	 106.445
| 31> H 	 -34.8536 	 53.7082 	 107.823
| 32> C 	 -35.8767 	 52.5072 	 106.359
| 33> H 	 -36.3922 	 53.4556 	 106.102
| 34> H 	 -36.5989 	 51.898 	 106.809
| 35> C 	 -35.6849 	 51.7081 	 105.017
| 36> H 	 -36.6813 	 51.5457 	 104.542
| 37> H 	 -35.2191 	 50.7585 	 105.165
| 38> H 	 -35.1846 	 52.3431 	 104.353
| 39> H 	 -39.1408 	 53.017 	 110.441
| 40> H 	 -31.6419 	 49.297 	 108.449
| 41> *
| 42>
| 43>                          ****END OF INPUT****

CARTESIAN COORDINATES (ANGSTROEM)
---------------------------------
  S    -36.662700   52.903400  109.908000
  C    -38.275200   52.350000  110.333000
  C    -38.341900   50.966300  110.158000
  C    -37.108100   50.329800  109.721000
  C    -36.083100   51.264700  109.458000
  H    -37.085200   49.293500  109.493000
  C    -39.602600   50.169000  110.306000
  H    -39.492400   49.352400  109.567000
  H    -40.288000   50.919600  109.893000
  C    -39.982800   49.771600  111.697000
  H    -39.307200   49.037100  112.067000
  H    -39.732700   50.622900  112.311000
  C    -41.495200   49.341500  111.945000
  H    -41.720500   49.045400  112.965000
  H    -42.212500   50.128000  111.687000
  H    -41.561900   48.385300  111.332000
  S    -33.811000   49.605700  109.606000
  C    -32.517300   49.905300  108.436000
  C    -32.743400   51.062800  107.701000
  C    -34.012300   51.678000  107.972000
  C    -34.674100   51.026600  109.003000
  H    -31.937500   51.345000  107.071000
  C    -34.575700   52.848000  107.140000
  H    -33.810100   53.219400  106.445000
  H    -34.853600   53.708200  107.823000
  C    -35.876700   52.507200  106.359000
  H    -36.392200   53.455600  106.102000
  H    -36.598900   51.898000  106.809000
  C    -35.684900   51.708100  105.017000
  H    -36.681300   51.545700  104.542000
  H    -35.219100   50.758500  105.165000
  H    -35.184600   52.343100  104.353000
  H    -39.140800   53.017000  110.441000
  H    -31.641900   49.297000  108.449000

 Total Charge           Charge          ....    0
 Multiplicity           Mult            ....    1
 Number of Electrons    NEL             ....  134
 Basis Dimension        Dim             ....  322

ORBITAL ENERGIES
----------------

  NO   OCC          E(Eh)            E(eV)
   0   2.0000     -88.969424     -2420.9811
   1   2.0000     -88.966164     -2420.8924
   2   2.0000     -10.341698      -281.4119
   3   2.0000     -10.332541      -281.1627
   4   2.0000     -10.320648      -280.8391
   5   2.0000     -10.317030      -280.7407
   6   2.0000     -10.310327      -280.5583
   7   2.0000     -10.302784      -280.3530
   8   2.0000     -10.301654      -280.3223
   9   2.0000     -10.298302      -280.2311
  10   2.0000     -10.297879      -280.2195
  11   2.0000     -10.289149      -279.9820
  12   2.0000     -10.287738      -279.9436
  13   2.0000     -10.283117      -279.8178
  14   2.0000     -10.280235      -279.7394
  15   2.0000     -10.268075      -279.4085
  16   2.0000      -8.083463      -219.9622
  17   2.0000      -8.079506      -219.8545
  18   2.0000      -6.041980      -164.4106
  19   2.0000      -6.038205      -164.3079
  20   2.0000      -6.038062      -164.3040
  21   2.0000      -6.034263      -164.2007
  22   2.0000      -6.034067      -164.1953
  23   2.0000      -6.030304      -164.0929
  24   2.0000      -0.998292       -27.1649
  25   2.0000      -0.977754       -26.6060
  26   2.0000      -0.911280       -24.7972
  27   2.0000      -0.898738       -24.4559
  28   2.0000      -0.862660       -23.4742
  29   2.0000      -0.847549       -23.0630
  30   2.0000      -0.841455       -22.8972
  31   2.0000      -0.813621       -22.1397
  32   2.0000      -0.780895       -21.2492
  33   2.0000      -0.769001       -20.9256
  34   2.0000      -0.707792       -19.2600
  35   2.0000      -0.702178       -19.1072
  36   2.0000      -0.686559       -18.6822
  37   2.0000      -0.666059       -18.1244
  38   2.0000      -0.638037       -17.3619
  39   2.0000      -0.615724       -16.7547
  40   2.0000      -0.593869       -16.1600
  41   2.0000      -0.570160       -15.5148
  42   2.0000      -0.555422       -15.1138
  43   2.0000      -0.547040       -14.8857
  44   2.0000      -0.542306       -14.7569
  45   2.0000      -0.519523       -14.1369
  46   2.0000      -0.516909       -14.0658
  47   2.0000      -0.512853       -13.9554
  48   2.0000      -0.501625       -13.6499
  49   2.0000      -0.499583       -13.5943
  50   2.0000      -0.482590       -13.1319
  51   2.0000      -0.481189       -13.0938
  52   2.0000      -0.476889       -12.9768
  53   2.0000      -0.465653       -12.6711
  54   2.0000      -0.458095       -12.4654
  55   2.0000      -0.447661       -12.1815
  56   2.0000      -0.440575       -11.9887
  57   2.0000      -0.435774       -11.8580
  58   2.0000      -0.426853       -11.6153
  59   2.0000      -0.423838       -11.5332
  60   2.0000      -0.418424       -11.3859
  61   2.0000      -0.411680       -11.2024
  62   2.0000      -0.406088       -11.0502
  63   2.0000      -0.345806        -9.4098
  64   2.0000      -0.335036        -9.1168
  65   2.0000      -0.327399        -8.9090
  66   2.0000      -0.291612        -7.9352
  67   0.0000       0.020291         0.5521
  68   0.0000       0.073352         1.9960
  69   0.0000       0.103090         2.8052
  70   0.0000       0.116096         3.1591
  71   0.0000       0.127545         3.4707

MULLIKEN ATOMIC CHARGES
-----------------------
   0 S :    0.090680
   1 C :   -0.122417
   2 C :   -0.149328
   3 C :    0.041155
   4 C :   -0.149603
   5 H :    0.007024
   6 C :    0.062297
   7 H :    0.024343
   8 H :    0.019602
   9 C :   -0.035369
  10 H :    0.016859
  11 H :    0.016095
  12 C :   -0.061536
  13 H :    0.036091
  14 H :    0.043451
  15 H :    0.041526
  16 S :    0.108699
  17 C :   -0.110000
  18 C :   -0.012734
  19 C :   -0.033709
  20 C :   -0.126757
  21 H :    0.013016
  22 C :    0.071500
  23 H :    0.025761
  24 H :    0.050238
  25 C :   -0.086342
  26 H :    0.027757
  27 H :    0.038671
  28 C :   -0.048126
  29 H :    0.030384
  30 H :    0.039696
  31 H :    0.011936
  32 H :    0.064574
  33 H :    0.054568
Sum of atomic charges:   -0.0000000

LOEWDIN ATOMIC CHARGES
----------------------
   0 S :    0.393303
   1 C :   -0.209729
   2 C :   -0.058406
   3 C :   -0.068387
   4 C :   -0.168423
   5 H :    0.025666
   6 C :   -0.038383
   7 H :    0.029821
   8 H :    0.034310
   9 C :   -0.042154
  10 H :    0.021702
  11 H :    0.022157
  12 C :   -0.067764
  13 H :    0.025050
  14 H :    0.026328
  15 H :    0.034170
  16 S :    0.395001
  17 C :   -0.170561
  18 C :   -0.065450
  19 C :   -0.053304
  20 C :   -0.195927
  21 H :    0.029697
  22 C :   -0.034094
  23 H :    0.031845
  24 H :    0.035869
  25 C :   -0.038694
  26 H :    0.027116
  27 H :    0.018313
  28 C :   -0.059783
  29 H :    0.030336
  30 H :    0.021623
  31 H :    0.010616
  32 H :    0.035264
  33 H :    0.022874

  Mayer bond orders larger than 0.100000
B(  0-S ,  1-C ) :   1.1291 B(  0-S ,  4-C ) :   1.1578 B(  1-C ,  2-C ) :   1.6052
B(  1-C , 32-H ) :   0.9631 B(  2-C ,  3-C ) :   1.2562 B(  2-C ,  6-C ) :   1.0156
B(  3-C ,  4-C ) :   1.5468 B(  3-C ,  5-H ) :   0.9945 B(  4-C , 20-C ) :   1.0238
B(  6-C ,  7-H ) :   0.9386 B(  6-C ,  8-H ) :   0.9379 B(  6-C ,  9-C ) :   1.0615
B(  9-C , 10-H ) :   0.9518 B(  9-C , 11-H ) :   0.9527 B(  9-C , 12-C ) :   1.0698
B( 12-C , 13-H ) :   0.9769 B( 12-C , 14-H ) :   0.9777 B( 12-C , 15-H ) :   0.9774
B( 16-S , 17-C ) :   1.1532 B( 16-S , 20-C ) :   1.1403 B( 17-C , 18-C ) :   1.6127
B( 17-C , 33-H ) :   0.9704 B( 18-C , 19-C ) :   1.2271 B( 18-C , 21-H ) :   0.9980
B( 19-C , 20-C ) :   1.5882 B( 19-C , 22-C ) :   1.0341 B( 22-C , 23-H ) :   0.9421
B( 22-C , 24-H ) :   0.9345 B( 22-C , 25-C ) :   1.0488 B( 25-C , 26-H ) :   0.9566
B( 25-C , 27-H ) :   0.9653 B( 25-C , 28-C ) :   1.0728 B( 28-C , 29-H ) :   0.9757
B( 28-C , 30-H ) :   0.9795 B( 28-C , 31-H ) :   0.9780

Dispersion correction           -0.014646975
FINAL SINGLE POINT ENERGY     -1339.873730462912

DIPOLE MOMENT
-------------
                                X             Y             Z
Electronic contribution:     19.14687       2.30433       7.15308
Nuclear contribution   :    -19.34324      -2.40834      -7.47157
                        -----------------------------------------
Total Dipole Moment    :     -0.19638      -0.10400      -0.31849
                        -----------------------------------------
Magnitude (a.u.)       :      0.38835
Magnitude (Debye)      :      0.98711

Rotational constants in cm-1:     0.021868     0.007573     0.006611
Rotational constants in MHz :   655.587151   227.038080   198.191324

                             ****ORCA TERMINATED NORMALLY****
TOTAL RUN TIME: 0 days 0 hours 0 minutes 28 seconds 799 msec
