                         Program Version 4.2.1 -  RELEASE  -
|  1> ! wB97X-D3 SP def2-SVP
|  2> %pal
|  3> nprocs 16
|  4> end
|  5>
|  6> * xyz 0 1
|  7> S 	 -2.17101 	 -15.0304 	 82.5278
|  8> C 	 -3.42846 	 -16.1967 	 83.0704
|  9> C 	 -4.68145 	 -15.8001 	 82.6876
| 10> C 	 -4.65541 	 -14.6416 	 81.8435
| 11> C 	 -3.37966 	 -14.2302 	 81.5022
| 12> H 	 -5.53674 	 -14.2452 	 81.428
| 13> C 	 -5.9567 	 -16.4574 	 83.1602
| 14> H 	 -6.63809 	 -15.6061 	 83.3082
| 15> H 	 -5.71942 	 -16.7794 	 84.2152
| 16> C 	 -6.6841 	 -17.4858 	 82.2089
| 17> H 	 -5.94707 	 -18.14 	 81.8756
| 18> H 	 -7.41045 	 -18.1911 	 82.698
| 19> C 	 -7.43577 	 -16.9443 	 81.0409
| 20> H 	 -8.38803 	 -16.4578 	 81.3396
| 21> H 	 -6.9518 	 -16.2178 	 80.3927
| 22> H 	 -7.82921 	 -17.705 	 80.382
| 23> S 	 -2.01386 	 -11.8787 	 81.1272
| 24> C 	 -2.27909 	 -10.8941 	 79.7419
| 25> C 	 -3.18205 	 -11.5246 	 78.8687
| 26> C 	 -3.70734 	 -12.7547 	 79.3404
| 27> C 	 -3.13759 	 -13.0879 	 80.5763
| 28> H 	 -3.40015 	 -11.0264 	 77.8973
| 29> C 	 -4.60522 	 -13.589 	 78.426
| 30> H 	 -4.70895 	 -13.2306 	 77.415
| 31> H 	 -5.56597 	 -13.5189 	 78.8272
| 32> C 	 -4.33789 	 -15.1063 	 78.2056
| 33> H 	 -4.21243 	 -15.552 	 79.1957
| 34> H 	 -3.39461 	 -15.2254 	 77.6752
| 35> C 	 -5.41636 	 -15.9219 	 77.3689
| 36> H 	 -5.65526 	 -16.9138 	 77.861
| 37> H 	 -5.05938 	 -16.1247 	 76.3737
| 38> H 	 -6.3358 	 -15.3458 	 77.3571
| 39> H 	 -3.22297 	 -16.9397 	 83.8116
| 40> H 	 -1.83234 	 -9.90359 	 79.7013
| 41> *
| 42>
| 43>                          ****END OF INPUT****

CARTESIAN COORDINATES (ANGSTROEM)
---------------------------------
  S     -2.171010  -15.030400   82.527800
  C     -3.428460  -16.196700   83.070400
  C     -4.681450  -15.800100   82.687600
  C     -4.655410  -14.641600   81.843500
  C     -3.379660  -14.230200   81.502200
  H     -5.536740  -14.245200   81.428000
  C     -5.956700  -16.457400   83.160200
  H     -6.638090  -15.606100   83.308200
  H     -5.719420  -16.779400   84.215200
  C     -6.684100  -17.485800   82.208900
  H     -5.947070  -18.140000   81.875600
  H     -7.410450  -18.191100   82.698000
  C     -7.435770  -16.944300   81.040900
  H     -8.388030  -16.457800   81.339600
  H     -6.951800  -16.217800   80.392700
  H     -7.829210  -17.705000   80.382000
  S     -2.013860  -11.878700   81.127200
  C     -2.279090  -10.894100   79.741900
  C     -3.182050  -11.524600   78.868700
  C     -3.707340  -12.754700   79.340400
  C     -3.137590  -13.087900   80.576300
  H     -3.400150  -11.026400   77.897300
  C     -4.605220  -13.589000   78.426000
  H     -4.708950  -13.230600   77.415000
  H     -5.565970  -13.518900   78.827200
  C     -4.337890  -15.106300   78.205600
  H     -4.212430  -15.552000   79.195700
  H     -3.394610  -15.225400   77.675200
  C     -5.416360  -15.921900   77.368900
  H     -5.655260  -16.913800   77.861000
  H     -5.059380  -16.124700   76.373700
  H     -6.335800  -15.345800   77.357100
  H     -3.222970  -16.939700   83.811600
  H     -1.832340   -9.903590   79.701300

 Total Charge           Charge          ....    0
 Multiplicity           Mult            ....    1
 Number of Electrons    NEL             ....  134
 Basis Dimension        Dim             ....  322

ORBITAL ENERGIES
----------------

  NO   OCC          E(Eh)            E(eV)
   0   2.0000     -88.968077     -2420.9445
   1   2.0000     -88.966637     -2420.9053
   2   2.0000     -10.335676      -281.2480
   3   2.0000     -10.331526      -281.1351
   4   2.0000     -10.318436      -280.7789
   5   2.0000     -10.314520      -280.6724
   6   2.0000     -10.309894      -280.5465
   7   2.0000     -10.301588      -280.3205
   8   2.0000     -10.300813      -280.2994
   9   2.0000     -10.299295      -280.2581
  10   2.0000     -10.290583      -280.0210
  11   2.0000     -10.290529      -280.0195
  12   2.0000     -10.289025      -279.9786
  13   2.0000     -10.283601      -279.8310
  14   2.0000     -10.283352      -279.8242
  15   2.0000     -10.278877      -279.7025
  16   2.0000      -8.082195      -219.9277
  17   2.0000      -8.081634      -219.9125
  18   2.0000      -6.040459      -164.3692
  19   2.0000      -6.040303      -164.3650
  20   2.0000      -6.036525      -164.2622
  21   2.0000      -6.036487      -164.2612
  22   2.0000      -6.033278      -164.1738
  23   2.0000      -6.032081      -164.1413
  24   2.0000      -1.005236       -27.3539
  25   2.0000      -0.982714       -26.7410
  26   2.0000      -0.908912       -24.7328
  27   2.0000      -0.902794       -24.5663
  28   2.0000      -0.867995       -23.6193
  29   2.0000      -0.850603       -23.1461
  30   2.0000      -0.846572       -23.0364
  31   2.0000      -0.812888       -22.1198
  32   2.0000      -0.783759       -21.3272
  33   2.0000      -0.774059       -21.0632
  34   2.0000      -0.709259       -19.2999
  35   2.0000      -0.705172       -19.1887
  36   2.0000      -0.689225       -18.7548
  37   2.0000      -0.663685       -18.0598
  38   2.0000      -0.638887       -17.3850
  39   2.0000      -0.617880       -16.8134
  40   2.0000      -0.597232       -16.2515
  41   2.0000      -0.567292       -15.4368
  42   2.0000      -0.564191       -15.3524
  43   2.0000      -0.552431       -15.0324
  44   2.0000      -0.535552       -14.5731
  45   2.0000      -0.519203       -14.1282
  46   2.0000      -0.517088       -14.0707
  47   2.0000      -0.511612       -13.9217
  48   2.0000      -0.504020       -13.7151
  49   2.0000      -0.495063       -13.4713
  50   2.0000      -0.490835       -13.3563
  51   2.0000      -0.481053       -13.0901
  52   2.0000      -0.479651       -13.0520
  53   2.0000      -0.465747       -12.6736
  54   2.0000      -0.458070       -12.4647
  55   2.0000      -0.447721       -12.1831
  56   2.0000      -0.445496       -12.1226
  57   2.0000      -0.439032       -11.9467
  58   2.0000      -0.430907       -11.7256
  59   2.0000      -0.426997       -11.6192
  60   2.0000      -0.419141       -11.4054
  61   2.0000      -0.413943       -11.2639
  62   2.0000      -0.409533       -11.1440
  63   2.0000      -0.348389        -9.4801
  64   2.0000      -0.334094        -9.0912
  65   2.0000      -0.331052        -9.0084
  66   2.0000      -0.288941        -7.8625
  67   0.0000       0.023972         0.6523
  68   0.0000       0.070070         1.9067
  69   0.0000       0.100706         2.7404
  70   0.0000       0.122742         3.3400
  71   0.0000       0.126199         3.4341

MULLIKEN ATOMIC CHARGES
-----------------------
   0 S :    0.093987
   1 C :   -0.118532
   2 C :   -0.092945
   3 C :    0.039829
   4 C :   -0.119038
   5 H :   -0.006302
   6 C :    0.039688
   7 H :    0.025808
   8 H :    0.037582
   9 C :   -0.006850
  10 H :    0.014468
  11 H :    0.034690
  12 C :   -0.070340
  13 H :    0.022847
  14 H :    0.029205
  15 H :    0.028298
  16 S :    0.111191
  17 C :   -0.113243
  18 C :   -0.060100
  19 C :   -0.007372
  20 C :   -0.169687
  21 H :    0.034956
  22 C :    0.096350
  23 H :    0.017571
  24 H :    0.008485
  25 C :   -0.104343
  26 H :    0.044971
  27 H :    0.033548
  28 C :   -0.067535
  29 H :    0.045876
  30 H :    0.039947
  31 H :    0.027323
  32 H :    0.041437
  33 H :    0.068233
Sum of atomic charges:   -0.0000000

LOEWDIN ATOMIC CHARGES
----------------------
   0 S :    0.368969
   1 C :   -0.177329
   2 C :   -0.063886
   3 C :   -0.057865
   4 C :   -0.179056
   5 H :    0.021395
   6 C :   -0.035105
   7 H :    0.032101
   8 H :    0.039732
   9 C :   -0.039686
  10 H :    0.016429
  11 H :    0.036250
  12 C :   -0.072850
  13 H :    0.026949
  14 H :    0.020917
  15 H :    0.029243
  16 S :    0.428695
  17 C :   -0.200390
  18 C :   -0.073899
  19 C :   -0.055539
  20 C :   -0.196881
  21 H :    0.038210
  22 C :   -0.029481
  23 H :    0.029519
  24 H :    0.021339
  25 C :   -0.041146
  26 H :    0.022724
  27 H :    0.023370
  28 C :   -0.067951
  29 H :    0.036497
  30 H :    0.023955
  31 H :    0.020932
  32 H :    0.023000
  33 H :    0.030838

  Mayer bond orders larger than 0.100000
B(  0-S ,  1-C ) :   1.1118 B(  0-S ,  4-C ) :   1.1393 B(  1-C ,  2-C ) :   1.6363
B(  1-C , 32-H ) :   0.9705 B(  2-C ,  3-C ) :   1.2307 B(  2-C ,  6-C ) :   1.0157
B(  3-C ,  4-C ) :   1.5631 B(  3-C ,  5-H ) :   1.0009 B(  4-C , 20-C ) :   1.0401
B(  6-C ,  7-H ) :   0.9459 B(  6-C ,  8-H ) :   0.9448 B(  6-C ,  9-C ) :   1.0385
B(  9-C , 10-H ) :   0.9560 B(  9-C , 11-H ) :   0.9536 B(  9-C , 12-C ) :   1.0898
B( 12-C , 13-H ) :   0.9696 B( 12-C , 14-H ) :   0.9741 B( 12-C , 15-H ) :   0.9677
B( 16-S , 17-C ) :   1.1798 B( 16-S , 20-C ) :   1.1684 B( 17-C , 18-C ) :   1.5581
B( 17-C , 20-C ) :   0.1057 B( 17-C , 33-H ) :   0.9717 B( 18-C , 19-C ) :   1.2797
B( 18-C , 21-H ) :   0.9871 B( 19-C , 20-C ) :   1.5580 B( 19-C , 22-C ) :   1.0304
B( 22-C , 23-H ) :   0.9451 B( 22-C , 24-H ) :   0.9155 B( 22-C , 25-C ) :   1.0657
B( 25-C , 26-H ) :   0.9592 B( 25-C , 27-H ) :   0.9643 B( 25-C , 28-C ) :   1.0600
B( 28-C , 29-H ) :   0.9773 B( 28-C , 30-H ) :   0.9798 B( 28-C , 31-H ) :   0.9797

Dispersion correction           -0.015461856
FINAL SINGLE POINT ENERGY     -1339.871766927224

DIPOLE MOMENT
-------------
                                X             Y             Z
Electronic contribution:     24.61004      17.12322      12.71875
Nuclear contribution   :    -25.23598     -17.28037     -12.94479
                        -----------------------------------------
Total Dipole Moment    :     -0.62594      -0.15715      -0.22604
                        -----------------------------------------
Magnitude (a.u.)       :      0.68380
Magnitude (Debye)      :      1.73809

Rotational constants in cm-1:     0.017662     0.010174     0.007239
Rotational constants in MHz :   529.479119   305.009805   217.032723

                             ****ORCA TERMINATED NORMALLY****
TOTAL RUN TIME: 0 days 0 hours 0 minutes 35 seconds 404 msec
