                         Program Version 4.2.1 -  RELEASE  -
|  1> ! wB97X-D3 SP def2-SVP
|  2> %pal
|  3> nprocs 16
|  4> end
|  5>
|  6> * xyz 0 1
|  7> S 	 -74.5703 	 50.6105 	 138.889
|  8> C 	 -73.4631 	 50.1167 	 140.16
|  9> C 	 -73.6146 	 50.8745 	 141.341
| 10> C 	 -74.7817 	 51.7056 	 141.215
| 11> C 	 -75.4924 	 51.6663 	 140.027
| 12> H 	 -75.1938 	 52.2921 	 141.999
| 13> C 	 -72.8307 	 50.6647 	 142.625
| 14> H 	 -71.7782 	 50.4286 	 142.478
| 15> H 	 -73.0982 	 49.6872 	 143.08
| 16> C 	 -73.0585 	 51.8304 	 143.638
| 17> H 	 -73.0167 	 52.7535 	 143.049
| 18> H 	 -74.0871 	 51.8414 	 143.941
| 19> C 	 -72.0431 	 51.7081 	 144.859
| 20> H 	 -70.9974 	 52.0181 	 144.567
| 21> H 	 -72.2468 	 52.4238 	 145.643
| 22> H 	 -71.9957 	 50.6838 	 145.242
| 23> S 	 -76.7771 	 54.1014 	 140.022
| 24> C 	 -78.2501 	 54.342 	 139.102
| 25> C 	 -78.6915 	 53.0964 	 138.694
| 26> C 	 -77.8419 	 51.9947 	 138.911
| 27> C 	 -76.7124 	 52.3431 	 139.651
| 28> H 	 -79.5119 	 53.0237 	 137.961
| 29> C 	 -78.1877 	 50.6718 	 138.202
| 30> H 	 -79.2679 	 50.6015 	 138.292
| 31> H 	 -77.9091 	 49.8134 	 138.877
| 32> C 	 -77.6785 	 50.4228 	 136.781
| 33> H 	 -77.7883 	 49.3384 	 136.631
| 34> H 	 -76.5918 	 50.792 	 136.708
| 35> C 	 -78.5283 	 51.1115 	 135.63
| 36> H 	 -78.1617 	 50.8217 	 134.636
| 37> H 	 -78.4748 	 52.2138 	 135.736
| 38> H 	 -79.5557 	 50.7949 	 135.753
| 39> H 	 -72.6967 	 49.4248 	 139.911
| 40> H 	 -78.7484 	 55.3027 	 138.932
| 41> *
| 42>
| 43>                          ****END OF INPUT****

CARTESIAN COORDINATES (ANGSTROEM)
---------------------------------
  S    -74.570300   50.610500  138.889000
  C    -73.463100   50.116700  140.160000
  C    -73.614600   50.874500  141.341000
  C    -74.781700   51.705600  141.215000
  C    -75.492400   51.666300  140.027000
  H    -75.193800   52.292100  141.999000
  C    -72.830700   50.664700  142.625000
  H    -71.778200   50.428600  142.478000
  H    -73.098200   49.687200  143.080000
  C    -73.058500   51.830400  143.638000
  H    -73.016700   52.753500  143.049000
  H    -74.087100   51.841400  143.941000
  C    -72.043100   51.708100  144.859000
  H    -70.997400   52.018100  144.567000
  H    -72.246800   52.423800  145.643000
  H    -71.995700   50.683800  145.242000
  S    -76.777100   54.101400  140.022000
  C    -78.250100   54.342000  139.102000
  C    -78.691500   53.096400  138.694000
  C    -77.841900   51.994700  138.911000
  C    -76.712400   52.343100  139.651000
  H    -79.511900   53.023700  137.961000
  C    -78.187700   50.671800  138.202000
  H    -79.267900   50.601500  138.292000
  H    -77.909100   49.813400  138.877000
  C    -77.678500   50.422800  136.781000
  H    -77.788300   49.338400  136.631000
  H    -76.591800   50.792000  136.708000
  C    -78.528300   51.111500  135.630000
  H    -78.161700   50.821700  134.636000
  H    -78.474800   52.213800  135.736000
  H    -79.555700   50.794900  135.753000
  H    -72.696700   49.424800  139.911000
  H    -78.748400   55.302700  138.932000

 Total Charge           Charge          ....    0
 Multiplicity           Mult            ....    1
 Number of Electrons    NEL             ....  134
 Basis Dimension        Dim             ....  322

ORBITAL ENERGIES
----------------

  NO   OCC          E(Eh)            E(eV)
   0   2.0000     -88.965721     -2420.8803
   1   2.0000     -88.965406     -2420.8718
   2   2.0000     -10.333570      -281.1907
   3   2.0000     -10.333329      -281.1842
   4   2.0000     -10.323125      -280.9065
   5   2.0000     -10.315716      -280.7049
   6   2.0000     -10.308958      -280.5210
   7   2.0000     -10.305918      -280.4383
   8   2.0000     -10.297174      -280.2003
   9   2.0000     -10.296697      -280.1874
  10   2.0000     -10.295539      -280.1559
  11   2.0000     -10.294511      -280.1279
  12   2.0000     -10.293103      -280.0896
  13   2.0000     -10.292880      -280.0835
  14   2.0000     -10.288525      -279.9650
  15   2.0000     -10.282079      -279.7896
  16   2.0000      -8.079707      -219.8600
  17   2.0000      -8.078862      -219.8370
  18   2.0000      -6.038279      -164.3099
  19   2.0000      -6.037367      -164.2851
  20   2.0000      -6.034217      -164.1994
  21   2.0000      -6.033546      -164.1811
  22   2.0000      -6.030525      -164.0989
  23   2.0000      -6.029714      -164.0769
  24   2.0000      -1.000542       -27.2261
  25   2.0000      -0.978283       -26.6204
  26   2.0000      -0.904614       -24.6158
  27   2.0000      -0.901579       -24.5332
  28   2.0000      -0.868478       -23.6325
  29   2.0000      -0.844993       -22.9934
  30   2.0000      -0.838878       -22.8270
  31   2.0000      -0.810671       -22.0595
  32   2.0000      -0.782136       -21.2830
  33   2.0000      -0.769994       -20.9526
  34   2.0000      -0.718957       -19.5638
  35   2.0000      -0.697658       -18.9842
  36   2.0000      -0.686463       -18.6796
  37   2.0000      -0.668761       -18.1979
  38   2.0000      -0.639056       -17.3896
  39   2.0000      -0.617400       -16.8003
  40   2.0000      -0.595869       -16.2144
  41   2.0000      -0.563035       -15.3210
  42   2.0000      -0.553291       -15.0558
  43   2.0000      -0.548221       -14.9178
  44   2.0000      -0.536863       -14.6088
  45   2.0000      -0.525514       -14.3000
  46   2.0000      -0.514064       -13.9884
  47   2.0000      -0.507059       -13.7978
  48   2.0000      -0.503554       -13.7024
  49   2.0000      -0.493213       -13.4210
  50   2.0000      -0.485833       -13.2202
  51   2.0000      -0.479505       -13.0480
  52   2.0000      -0.473152       -12.8751
  53   2.0000      -0.469890       -12.7864
  54   2.0000      -0.457164       -12.4401
  55   2.0000      -0.451762       -12.2931
  56   2.0000      -0.442581       -12.0433
  57   2.0000      -0.438694       -11.9375
  58   2.0000      -0.432604       -11.7718
  59   2.0000      -0.421061       -11.4577
  60   2.0000      -0.415215       -11.2986
  61   2.0000      -0.412866       -11.2346
  62   2.0000      -0.407889       -11.0992
  63   2.0000      -0.349696        -9.5157
  64   2.0000      -0.333763        -9.0822
  65   2.0000      -0.328080        -8.9275
  66   2.0000      -0.287336        -7.8188
  67   0.0000       0.020786         0.5656
  68   0.0000       0.066286         1.8037
  69   0.0000       0.104267         2.8373
  70   0.0000       0.109586         2.9820
  71   0.0000       0.130880         3.5614

MULLIKEN ATOMIC CHARGES
-----------------------
   0 S :    0.091661
   1 C :   -0.119641
   2 C :   -0.052084
   3 C :   -0.001745
   4 C :   -0.119424
   5 H :   -0.002581
   6 C :    0.046480
   7 H :    0.020327
   8 H :    0.038100
   9 C :   -0.095020
  10 H :    0.037142
  11 H :    0.035402
  12 C :   -0.044950
  13 H :    0.037285
  14 H :    0.034479
  15 H :    0.041807
  16 S :    0.093423
  17 C :   -0.102087
  18 C :   -0.039775
  19 C :   -0.043556
  20 C :   -0.157543
  21 H :    0.027403
  22 C :    0.033913
  23 H :    0.017782
  24 H :    0.038287
  25 C :   -0.070756
  26 H :    0.041373
  27 H :    0.052563
  28 C :   -0.065704
  29 H :    0.042751
  30 H :    0.042446
  31 H :    0.026100
  32 H :    0.043792
  33 H :    0.072350
Sum of atomic charges:   -0.0000000

LOEWDIN ATOMIC CHARGES
----------------------
   0 S :    0.387447
   1 C :   -0.184028
   2 C :   -0.059133
   3 C :   -0.065349
   4 C :   -0.178536
   5 H :    0.022531
   6 C :   -0.037473
   7 H :    0.029897
   8 H :    0.037204
   9 C :   -0.039846
  10 H :    0.026882
  11 H :    0.020559
  12 C :   -0.067505
  13 H :    0.032312
  14 H :    0.024947
  15 H :    0.027573
  16 S :    0.391731
  17 C :   -0.183202
  18 C :   -0.081257
  19 C :   -0.058439
  20 C :   -0.183338
  21 H :    0.031786
  22 C :   -0.043292
  23 H :    0.029332
  24 H :    0.038907
  25 C :   -0.041820
  26 H :    0.029601
  27 H :    0.029427
  28 C :   -0.068859
  29 H :    0.028045
  30 H :    0.026372
  31 H :    0.020200
  32 H :    0.018990
  33 H :    0.038333

  Mayer bond orders larger than 0.100000
B(  0-S ,  1-C ) :   1.1558 B(  0-S ,  4-C ) :   1.1191 B(  1-C ,  2-C ) :   1.5822
B(  1-C ,  4-C ) :   0.1035 B(  1-C , 32-H ) :   0.9756 B(  2-C ,  3-C ) :   1.2452
B(  2-C ,  6-C ) :   1.0224 B(  3-C ,  4-C ) :   1.5718 B(  3-C ,  5-H ) :   0.9931
B(  4-C , 20-C ) :   1.0787 B(  6-C ,  7-H ) :   0.9433 B(  6-C ,  8-H ) :   0.9329
B(  6-C ,  9-C ) :   1.0615 B(  9-C , 10-H ) :   0.9640 B(  9-C , 11-H ) :   0.9484
B(  9-C , 12-C ) :   1.0626 B( 12-C , 13-H ) :   0.9765 B( 12-C , 14-H ) :   0.9762
B( 12-C , 15-H ) :   0.9764 B( 16-S , 17-C ) :   1.1586 B( 16-S , 20-C ) :   1.1324
B( 17-C , 18-C ) :   1.5851 B( 17-C , 20-C ) :   0.1045 B( 17-C , 33-H ) :   0.9676
B( 18-C , 19-C ) :   1.2746 B( 18-C , 21-H ) :   0.9745 B( 19-C , 20-C ) :   1.5653
B( 19-C , 22-C ) :   1.0384 B( 22-C , 23-H ) :   0.9332 B( 22-C , 24-H ) :   0.9331
B( 22-C , 25-C ) :   1.0584 B( 25-C , 26-H ) :   0.9547 B( 25-C , 27-H ) :   0.9526
B( 25-C , 28-C ) :   1.0725 B( 28-C , 29-H ) :   0.9751 B( 28-C , 30-H ) :   0.9758
B( 28-C , 31-H ) :   0.9761

Dispersion correction           -0.014207654
FINAL SINGLE POINT ENERGY     -1339.879062499720

DIPOLE MOMENT
-------------
                                X             Y             Z
Electronic contribution:     -2.33249       7.17993      -4.60143
Nuclear contribution   :      2.28271      -7.37701       4.69386
                        -----------------------------------------
Total Dipole Moment    :     -0.04978      -0.19708       0.09243
                        -----------------------------------------
Magnitude (a.u.)       :      0.22330
Magnitude (Debye)      :      0.56757

Rotational constants in cm-1:     0.024409     0.007351     0.005951
Rotational constants in MHz :   731.754954   220.381775   178.395486

                             ****ORCA TERMINATED NORMALLY****
TOTAL RUN TIME: 0 days 0 hours 0 minutes 32 seconds 215 msec
