                         Program Version 4.2.1 -  RELEASE  -
|  1> ! wB97X-D3 SP def2-SVP
|  2> %pal
|  3> nprocs 16
|  4> end
|  5>
|  6> * xyz 0 1
|  7> S 	 12.3638 	 -0.604948 	 64.96
|  8> C 	 11.3368 	 -1.51039 	 63.859
|  9> C 	 11.797 	 -1.38299 	 62.5002
| 10> C 	 12.8826 	 -0.45504 	 62.4224
| 11> C 	 13.3019 	 0.077399 	 63.6698
| 12> H 	 13.3472 	 -0.0941005 	 61.5156
| 13> C 	 11.0812 	 -1.91699 	 61.2585
| 14> H 	 11.7779 	 -2.15983 	 60.4333
| 15> H 	 10.4605 	 -1.10739 	 60.9563
| 16> C 	 10.1826 	 -3.11842 	 61.4212
| 17> H 	 10.7009 	 -3.87519 	 62.0524
| 18> H 	 9.24374 	 -2.85769 	 61.914
| 19> C 	 9.78629 	 -3.58363 	 59.9451
| 20> H 	 9.17801 	 -4.43239 	 59.9037
| 21> H 	 9.25846 	 -2.75278 	 59.4992
| 22> H 	 10.6072 	 -3.69857 	 59.2208
| 23> S 	 15.4476 	 0.774193 	 65.252
| 24> C 	 16.4518 	 2.07355 	 64.7636
| 25> C 	 15.954 	 2.64434 	 63.5917
| 26> C 	 14.7639 	 2.12958 	 63.0864
| 27> C 	 14.2775 	 1.10166 	 63.9214
| 28> H 	 16.5424 	 3.45223 	 63.086
| 29> C 	 14.2668 	 2.53834 	 61.7057
| 30> H 	 13.3085 	 2.09907 	 61.5416
| 31> H 	 14.9085 	 2.19779 	 60.868
| 32> C 	 13.9973 	 4.03439 	 61.5272
| 33> H 	 14.8177 	 4.59166 	 62.0336
| 34> H 	 13.0593 	 4.22531 	 62.0161
| 35> C 	 13.8719 	 4.40107 	 60.0187
| 36> H 	 13.232 	 3.69533 	 59.4969
| 37> H 	 14.8765 	 4.56794 	 59.565
| 38> H 	 13.4778 	 5.42402 	 59.8784
| 39> H 	 10.396 	 -1.98012 	 64.1375
| 40> H 	 17.3905 	 2.30623 	 65.197
| 41> *
| 42>
| 43>                          ****END OF INPUT****

CARTESIAN COORDINATES (ANGSTROEM)
---------------------------------
  S     12.363800   -0.604948   64.960000
  C     11.336800   -1.510390   63.859000
  C     11.797000   -1.382990   62.500200
  C     12.882600   -0.455040   62.422400
  C     13.301900    0.077399   63.669800
  H     13.347200   -0.094100   61.515600
  C     11.081200   -1.916990   61.258500
  H     11.777900   -2.159830   60.433300
  H     10.460500   -1.107390   60.956300
  C     10.182600   -3.118420   61.421200
  H     10.700900   -3.875190   62.052400
  H      9.243740   -2.857690   61.914000
  C      9.786290   -3.583630   59.945100
  H      9.178010   -4.432390   59.903700
  H      9.258460   -2.752780   59.499200
  H     10.607200   -3.698570   59.220800
  S     15.447600    0.774193   65.252000
  C     16.451800    2.073550   64.763600
  C     15.954000    2.644340   63.591700
  C     14.763900    2.129580   63.086400
  C     14.277500    1.101660   63.921400
  H     16.542400    3.452230   63.086000
  C     14.266800    2.538340   61.705700
  H     13.308500    2.099070   61.541600
  H     14.908500    2.197790   60.868000
  C     13.997300    4.034390   61.527200
  H     14.817700    4.591660   62.033600
  H     13.059300    4.225310   62.016100
  C     13.871900    4.401070   60.018700
  H     13.232000    3.695330   59.496900
  H     14.876500    4.567940   59.565000
  H     13.477800    5.424020   59.878400
  H     10.396000   -1.980120   64.137500
  H     17.390500    2.306230   65.197000

 Total Charge           Charge          ....    0
 Multiplicity           Mult            ....    1
 Number of Electrons    NEL             ....  134
 Basis Dimension        Dim             ....  322

ORBITAL ENERGIES
----------------

  NO   OCC          E(Eh)            E(eV)
   0   2.0000     -88.968189     -2420.9475
   1   2.0000     -88.968013     -2420.9427
   2   2.0000     -10.331898      -281.1452
   3   2.0000     -10.329974      -281.0929
   4   2.0000     -10.319054      -280.7957
   5   2.0000     -10.315787      -280.7068
   6   2.0000     -10.309479      -280.5352
   7   2.0000     -10.305518      -280.4274
   8   2.0000     -10.296196      -280.1737
   9   2.0000     -10.294323      -280.1228
  10   2.0000     -10.294076      -280.1161
  11   2.0000     -10.292286      -280.0673
  12   2.0000     -10.292237      -280.0660
  13   2.0000     -10.287998      -279.9507
  14   2.0000     -10.285489      -279.8824
  15   2.0000     -10.280043      -279.7342
  16   2.0000      -8.082705      -219.9416
  17   2.0000      -8.082623      -219.9394
  18   2.0000      -6.041116      -164.3871
  19   2.0000      -6.041024      -164.3846
  20   2.0000      -6.037145      -164.2791
  21   2.0000      -6.037121      -164.2784
  22   2.0000      -6.033710      -164.1856
  23   2.0000      -6.033492      -164.1797
  24   2.0000      -1.004669       -27.3384
  25   2.0000      -0.979906       -26.6646
  26   2.0000      -0.914134       -24.8749
  27   2.0000      -0.911993       -24.8166
  28   2.0000      -0.865968       -23.5642
  29   2.0000      -0.854171       -23.2432
  30   2.0000      -0.844147       -22.9704
  31   2.0000      -0.804662       -21.8960
  32   2.0000      -0.784808       -21.3557
  33   2.0000      -0.771026       -20.9807
  34   2.0000      -0.711603       -19.3637
  35   2.0000      -0.702008       -19.1026
  36   2.0000      -0.695362       -18.9218
  37   2.0000      -0.657566       -17.8933
  38   2.0000      -0.636623       -17.3234
  39   2.0000      -0.616979       -16.7889
  40   2.0000      -0.602533       -16.3958
  41   2.0000      -0.574687       -15.6380
  42   2.0000      -0.566318       -15.4103
  43   2.0000      -0.564330       -15.3562
  44   2.0000      -0.531322       -14.4580
  45   2.0000      -0.522698       -14.2233
  46   2.0000      -0.516958       -14.0671
  47   2.0000      -0.510124       -13.8812
  48   2.0000      -0.503086       -13.6897
  49   2.0000      -0.494941       -13.4680
  50   2.0000      -0.488178       -13.2840
  51   2.0000      -0.482594       -13.1320
  52   2.0000      -0.472047       -12.8451
  53   2.0000      -0.468472       -12.7478
  54   2.0000      -0.454093       -12.3565
  55   2.0000      -0.448580       -12.2065
  56   2.0000      -0.447004       -12.1636
  57   2.0000      -0.438868       -11.9422
  58   2.0000      -0.430206       -11.7065
  59   2.0000      -0.426773       -11.6131
  60   2.0000      -0.423790       -11.5319
  61   2.0000      -0.422774       -11.5043
  62   2.0000      -0.417956       -11.3732
  63   2.0000      -0.350147        -9.5280
  64   2.0000      -0.335175        -9.1206
  65   2.0000      -0.330355        -8.9894
  66   2.0000      -0.278317        -7.5734
  67   0.0000       0.019918         0.5420
  68   0.0000       0.068404         1.8614
  69   0.0000       0.106310         2.8928
  70   0.0000       0.114642         3.1196
  71   0.0000       0.131515         3.5787

MULLIKEN ATOMIC CHARGES
-----------------------
   0 S :    0.118860
   1 C :   -0.134529
   2 C :   -0.077071
   3 C :    0.015440
   4 C :   -0.158556
   5 H :    0.009891
   6 C :    0.036629
   7 H :    0.035477
   8 H :    0.036888
   9 C :   -0.095649
  10 H :    0.046467
  11 H :    0.034468
  12 C :   -0.032891
  13 H :    0.028337
  14 H :    0.017633
  15 H :    0.028476
  16 S :    0.102594
  17 C :   -0.072515
  18 C :   -0.071189
  19 C :   -0.022372
  20 C :   -0.127936
  21 H :    0.032783
  22 C :    0.050190
  23 H :    0.014284
  24 H :    0.047524
  25 C :   -0.083561
  26 H :    0.033538
  27 H :    0.033248
  28 C :   -0.062171
  29 H :    0.039266
  30 H :    0.037334
  31 H :    0.032421
  32 H :    0.057670
  33 H :    0.049020
Sum of atomic charges:   -0.0000000

LOEWDIN ATOMIC CHARGES
----------------------
   0 S :    0.418455
   1 C :   -0.211528
   2 C :   -0.054732
   3 C :   -0.067660
   4 C :   -0.202021
   5 H :    0.028372
   6 C :   -0.036213
   7 H :    0.034834
   8 H :    0.033633
   9 C :   -0.039239
  10 H :    0.027088
  11 H :    0.023682
  12 C :   -0.060549
  13 H :    0.016912
  14 H :    0.025460
  15 H :    0.026133
  16 S :    0.409769
  17 C :   -0.192416
  18 C :   -0.076679
  19 C :   -0.056014
  20 C :   -0.184855
  21 H :    0.035537
  22 C :   -0.034517
  23 H :    0.024648
  24 H :    0.035473
  25 C :   -0.036656
  26 H :    0.023224
  27 H :    0.023750
  28 C :   -0.071801
  29 H :    0.024438
  30 H :    0.030809
  31 H :    0.029361
  32 H :    0.028480
  33 H :    0.024825

  Mayer bond orders larger than 0.100000
B(  0-S ,  1-C ) :   1.1497 B(  0-S ,  4-C ) :   1.1669 B(  1-C ,  2-C ) :   1.5583
B(  1-C ,  4-C ) :   0.1075 B(  1-C , 32-H ) :   0.9684 B(  2-C ,  3-C ) :   1.2830
B(  2-C ,  6-C ) :   1.0132 B(  3-C ,  4-C ) :   1.5254 B(  3-C ,  5-H ) :   0.9918
B(  4-C , 20-C ) :   1.0589 B(  6-C ,  7-H ) :   0.9513 B(  6-C ,  8-H ) :   0.9310
B(  6-C ,  9-C ) :   1.0709 B(  9-C , 10-H ) :   0.9642 B(  9-C , 11-H ) :   0.9481
B(  9-C , 12-C ) :   1.0686 B( 12-C , 13-H ) :   0.9766 B( 12-C , 14-H ) :   0.9724
B( 12-C , 15-H ) :   0.9782 B( 16-S , 17-C ) :   1.1691 B( 16-S , 20-C ) :   1.1485
B( 17-C , 18-C ) :   1.5719 B( 17-C , 20-C ) :   0.1087 B( 17-C , 33-H ) :   0.9735
B( 18-C , 19-C ) :   1.2826 B( 18-C , 21-H ) :   0.9794 B( 19-C , 20-C ) :   1.5537
B( 19-C , 22-C ) :   1.0396 B( 22-C , 23-H ) :   0.9231 B( 22-C , 24-H ) :   0.9442
B( 22-C , 25-C ) :   1.0499 B( 25-C , 26-H ) :   0.9635 B( 25-C , 27-H ) :   0.9573
B( 25-C , 28-C ) :   1.0785 B( 28-C , 29-H ) :   0.9734 B( 28-C , 30-H ) :   0.9741
B( 28-C , 31-H ) :   0.9732

Dispersion correction           -0.013123378
FINAL SINGLE POINT ENERGY     -1339.875150588652

DIPOLE MOMENT
-------------
                                X             Y             Z
Electronic contribution:     11.85637      -2.10335      28.39628
Nuclear contribution   :    -11.98648       2.31103     -29.19889
                        -----------------------------------------
Total Dipole Moment    :     -0.13011       0.20768      -0.80261
                        -----------------------------------------
Magnitude (a.u.)       :      0.83919
Magnitude (Debye)      :      2.13305

Rotational constants in cm-1:     0.017862     0.007764     0.005759
Rotational constants in MHz :   535.475322   232.756324   172.637702

                             ****ORCA TERMINATED NORMALLY****
TOTAL RUN TIME: 0 days 0 hours 0 minutes 33 seconds 562 msec
