                         Program Version 4.2.1 -  RELEASE  -
|  1> ! wB97X-D3 SP def2-SVP
|  2> %pal
|  3> nprocs 16
|  4> end
|  5>
|  6> * xyz 0 1
|  7> S 	 44.2778 	 21.7963 	 83.2714
|  8> C 	 44.452 	 23.2867 	 82.3651
|  9> C 	 44.9156 	 22.9653 	 81.0706
| 10> C 	 45.277 	 21.555 	 80.9641
| 11> C 	 45.0725 	 20.7577 	 82.0529
| 12> H 	 45.7429 	 21.2404 	 80.0303
| 13> C 	 44.8484 	 23.9694 	 79.9264
| 14> H 	 44.2717 	 24.8125 	 80.2218
| 15> H 	 44.296 	 23.6029 	 79.0613
| 16> C 	 46.2223 	 24.4962 	 79.3976
| 17> H 	 46.7337 	 25.0405 	 80.1445
| 18> H 	 46.9092 	 23.6884 	 79.1508
| 19> C 	 46.0889 	 25.3982 	 78.2235
| 20> H 	 45.9697 	 24.7345 	 77.294
| 21> H 	 45.1612 	 26.0744 	 78.3107
| 22> H 	 46.9889 	 26.1139 	 78.001
| 23> S 	 45.3765 	 18.7236 	 83.9441
| 24> C 	 46.0916 	 17.2616 	 83.4928
| 25> C 	 46.3085 	 17.1717 	 82.125
| 26> C 	 45.8818 	 18.3275 	 81.3797
| 27> C 	 45.3759 	 19.3373 	 82.2494
| 28> H 	 46.7644 	 16.3752 	 81.6247
| 29> C 	 46.0663 	 18.419 	 79.8576
| 30> H 	 45.3532 	 19.0764 	 79.4614
| 31> H 	 45.8844 	 17.4637 	 79.3623
| 32> C 	 47.5122 	 18.8131 	 79.4714
| 33> H 	 48.1524 	 17.9776 	 79.5175
| 34> H 	 48.006 	 19.4471 	 80.1993
| 35> C 	 47.6342 	 19.4336 	 78.0558
| 36> H 	 47.1707 	 20.4493 	 77.9872
| 37> H 	 47.1056 	 18.7386 	 77.3413
| 38> H 	 48.6223 	 19.6918 	 77.7679
| 39> H 	 43.935 	 24.2207 	 82.6684
| 40> H 	 46.2779 	 16.3718 	 84.0245
| 41> *
| 42>
| 43>                          ****END OF INPUT****

CARTESIAN COORDINATES (ANGSTROEM)
---------------------------------
  S     44.277800   21.796300   83.271400
  C     44.452000   23.286700   82.365100
  C     44.915600   22.965300   81.070600
  C     45.277000   21.555000   80.964100
  C     45.072500   20.757700   82.052900
  H     45.742900   21.240400   80.030300
  C     44.848400   23.969400   79.926400
  H     44.271700   24.812500   80.221800
  H     44.296000   23.602900   79.061300
  C     46.222300   24.496200   79.397600
  H     46.733700   25.040500   80.144500
  H     46.909200   23.688400   79.150800
  C     46.088900   25.398200   78.223500
  H     45.969700   24.734500   77.294000
  H     45.161200   26.074400   78.310700
  H     46.988900   26.113900   78.001000
  S     45.376500   18.723600   83.944100
  C     46.091600   17.261600   83.492800
  C     46.308500   17.171700   82.125000
  C     45.881800   18.327500   81.379700
  C     45.375900   19.337300   82.249400
  H     46.764400   16.375200   81.624700
  C     46.066300   18.419000   79.857600
  H     45.353200   19.076400   79.461400
  H     45.884400   17.463700   79.362300
  C     47.512200   18.813100   79.471400
  H     48.152400   17.977600   79.517500
  H     48.006000   19.447100   80.199300
  C     47.634200   19.433600   78.055800
  H     47.170700   20.449300   77.987200
  H     47.105600   18.738600   77.341300
  H     48.622300   19.691800   77.767900
  H     43.935000   24.220700   82.668400
  H     46.277900   16.371800   84.024500

 Total Charge           Charge          ....    0
 Multiplicity           Mult            ....    1
 Number of Electrons    NEL             ....  134
 Basis Dimension        Dim             ....  322

ORBITAL ENERGIES
----------------

  NO   OCC          E(Eh)            E(eV)
   0   2.0000     -88.971658     -2421.0419
   1   2.0000     -88.963324     -2420.8151
   2   2.0000     -10.339275      -281.3460
   3   2.0000     -10.338387      -281.3218
   4   2.0000     -10.321834      -280.8714
   5   2.0000     -10.315314      -280.6940
   6   2.0000     -10.313582      -280.6468
   7   2.0000     -10.308976      -280.5215
   8   2.0000     -10.296569      -280.1839
   9   2.0000     -10.295950      -280.1671
  10   2.0000     -10.295056      -280.1427
  11   2.0000     -10.295040      -280.1423
  12   2.0000     -10.291344      -280.0417
  13   2.0000     -10.286837      -279.9191
  14   2.0000     -10.286108      -279.8992
  15   2.0000     -10.281214      -279.7661
  16   2.0000      -8.086308      -220.0396
  17   2.0000      -8.077493      -219.7998
  18   2.0000      -6.044875      -164.4894
  19   2.0000      -6.040743      -164.3770
  20   2.0000      -6.037090      -164.2776
  21   2.0000      -6.036299      -164.2561
  22   2.0000      -6.032050      -164.1404
  23   2.0000      -6.027993      -164.0300
  24   2.0000      -1.002741       -27.2860
  25   2.0000      -0.981526       -26.7087
  26   2.0000      -0.911829       -24.8121
  27   2.0000      -0.911430       -24.8013
  28   2.0000      -0.870814       -23.6961
  29   2.0000      -0.853579       -23.2271
  30   2.0000      -0.841431       -22.8965
  31   2.0000      -0.816836       -22.2272
  32   2.0000      -0.785529       -21.3753
  33   2.0000      -0.766342       -20.8532
  34   2.0000      -0.711504       -19.3610
  35   2.0000      -0.702341       -19.1117
  36   2.0000      -0.693746       -18.8778
  37   2.0000      -0.664950       -18.0942
  38   2.0000      -0.641783       -17.4638
  39   2.0000      -0.624977       -17.0065
  40   2.0000      -0.601843       -16.3770
  41   2.0000      -0.568618       -15.4729
  42   2.0000      -0.564596       -15.3634
  43   2.0000      -0.558709       -15.2032
  44   2.0000      -0.532849       -14.4996
  45   2.0000      -0.526387       -14.3237
  46   2.0000      -0.515070       -14.0158
  47   2.0000      -0.510550       -13.8928
  48   2.0000      -0.506881       -13.7929
  49   2.0000      -0.500286       -13.6135
  50   2.0000      -0.493717       -13.4347
  51   2.0000      -0.482798       -13.1376
  52   2.0000      -0.477487       -12.9931
  53   2.0000      -0.461240       -12.5510
  54   2.0000      -0.455619       -12.3980
  55   2.0000      -0.454543       -12.3688
  56   2.0000      -0.444833       -12.1045
  57   2.0000      -0.441382       -12.0106
  58   2.0000      -0.430797       -11.7226
  59   2.0000      -0.428742       -11.6667
  60   2.0000      -0.420384       -11.4392
  61   2.0000      -0.415253       -11.2996
  62   2.0000      -0.408494       -11.1157
  63   2.0000      -0.365872        -9.9559
  64   2.0000      -0.334644        -9.1061
  65   2.0000      -0.323883        -8.8133
  66   2.0000      -0.282562        -7.6889
  67   0.0000       0.015898         0.4326
  68   0.0000       0.084153         2.2899
  69   0.0000       0.093452         2.5430
  70   0.0000       0.115524         3.1436
  71   0.0000       0.121020         3.2931

MULLIKEN ATOMIC CHARGES
-----------------------
   0 S :    0.078909
   1 C :   -0.126922
   2 C :   -0.098643
   3 C :   -0.006857
   4 C :   -0.064807
   5 H :   -0.008876
   6 C :    0.063536
   7 H :    0.006221
   8 H :    0.031171
   9 C :   -0.039459
  10 H :    0.017344
  11 H :    0.026339
  12 C :   -0.124343
  13 H :    0.041131
  14 H :    0.040614
  15 H :    0.054732
  16 S :    0.119358
  17 C :   -0.037711
  18 C :   -0.033017
  19 C :   -0.077649
  20 C :   -0.133799
  21 H :   -0.006943
  22 C :    0.092362
  23 H :    0.016230
  24 H :    0.026524
  25 C :   -0.060494
  26 H :    0.013801
  27 H :    0.032093
  28 C :   -0.061982
  29 H :    0.030429
  30 H :    0.042348
  31 H :    0.028736
  32 H :    0.075577
  33 H :    0.044044
Sum of atomic charges:   -0.0000000

LOEWDIN ATOMIC CHARGES
----------------------
   0 S :    0.378254
   1 C :   -0.200455
   2 C :   -0.059360
   3 C :   -0.074706
   4 C :   -0.174901
   5 H :    0.027015
   6 C :   -0.026939
   7 H :    0.025364
   8 H :    0.032480
   9 C :   -0.047845
  10 H :    0.018899
  11 H :    0.023227
  12 C :   -0.084390
  13 H :    0.029511
  14 H :    0.029200
  15 H :    0.037311
  16 S :    0.422017
  17 C :   -0.196819
  18 C :   -0.068199
  19 C :   -0.039760
  20 C :   -0.183917
  21 H :    0.020049
  22 C :   -0.023734
  23 H :    0.020897
  24 H :    0.034836
  25 C :   -0.040184
  26 H :    0.018265
  27 H :    0.025196
  28 C :   -0.067693
  29 H :    0.025521
  30 H :    0.031330
  31 H :    0.021636
  32 H :    0.039215
  33 H :    0.028677

  Mayer bond orders larger than 0.100000
B(  0-S ,  1-C ) :   1.1361 B(  0-S ,  4-C ) :   1.1254 B(  1-C ,  2-C ) :   1.5990
B(  1-C , 32-H ) :   0.9615 B(  2-C ,  3-C ) :   1.2540 B(  2-C ,  6-C ) :   1.0340
B(  3-C ,  4-C ) :   1.5668 B(  3-C ,  5-H ) :   0.9911 B(  4-C , 20-C ) :   1.0885
B(  6-C ,  7-H ) :   0.9374 B(  6-C ,  8-H ) :   0.9473 B(  6-C ,  9-C ) :   1.0501
B(  9-C , 10-H ) :   0.9526 B(  9-C , 11-H ) :   0.9584 B(  9-C , 12-C ) :   1.0774
B( 12-C , 13-H ) :   0.9745 B( 12-C , 14-H ) :   0.9707 B( 12-C , 15-H ) :   0.9731
B( 16-S , 17-C ) :   1.1704 B( 16-S , 20-C ) :   1.1334 B( 17-C , 18-C ) :   1.5788
B( 17-C , 33-H ) :   0.9667 B( 18-C , 19-C ) :   1.2798 B( 18-C , 21-H ) :   0.9932
B( 19-C , 20-C ) :   1.5557 B( 19-C , 22-C ) :   1.0499 B( 22-C , 23-H ) :   0.9449
B( 22-C , 24-H ) :   0.9281 B( 22-C , 25-C ) :   1.0403 B( 25-C , 26-H ) :   0.9514
B( 25-C , 27-H ) :   0.9604 B( 25-C , 28-C ) :   1.0830 B( 28-C , 29-H ) :   0.9756
B( 28-C , 30-H ) :   0.9724 B( 28-C , 31-H ) :   0.9713

Dispersion correction           -0.013991282
FINAL SINGLE POINT ENERGY     -1339.869236139872

DIPOLE MOMENT
-------------
                                X             Y             Z
Electronic contribution:    -11.29935     -11.76657      30.43951
Nuclear contribution   :     11.59301      11.69544     -31.15377
                        -----------------------------------------
Total Dipole Moment    :      0.29366      -0.07112      -0.71426
                        -----------------------------------------
Magnitude (a.u.)       :      0.77554
Magnitude (Debye)      :      1.97126

Rotational constants in cm-1:     0.018004     0.008998     0.006195
Rotational constants in MHz :   539.749247   269.754082   185.729955

                             ****ORCA TERMINATED NORMALLY****
TOTAL RUN TIME: 0 days 0 hours 0 minutes 30 seconds 120 msec
