                         Program Version 4.2.1 -  RELEASE  -
|  1> ! wB97X-D3 SP def2-SVP
|  2> %pal
|  3> nprocs 16
|  4> end
|  5>
|  6> * xyz 0 1
|  7> S 	 -91.1693 	 38.9775 	 114.847
|  8> C 	 -89.9915 	 37.9122 	 115.634
|  9> C 	 -89.0649 	 38.6793 	 116.294
| 10> C 	 -89.3369 	 40.0785 	 116.376
| 11> C 	 -90.381 	 40.4399 	 115.516
| 12> H 	 -89.0023 	 40.9293 	 116.947
| 13> C 	 -87.8771 	 38.1078 	 116.979
| 14> H 	 -87.6627 	 37.1908 	 116.387
| 15> H 	 -88.1927 	 37.9289 	 118.019
| 16> C 	 -86.6408 	 39.0101 	 117.055
| 17> H 	 -86.7461 	 40.1296 	 117.23
| 18> H 	 -85.8411 	 38.5612 	 117.678
| 19> C 	 -85.9154 	 38.997 	 115.698
| 20> H 	 -85.0507 	 39.5617 	 115.941
| 21> H 	 -85.6032 	 37.9691 	 115.457
| 22> H 	 -86.5253 	 39.4632 	 114.886
| 23> S 	 -90.435 	 42.7688 	 114.117
| 24> C 	 -91.4044 	 44.0769 	 114.76
| 25> C 	 -92.2835 	 43.6558 	 115.761
| 26> C 	 -92.0492 	 42.3099 	 116.083
| 27> C 	 -90.9462 	 41.8014 	 115.424
| 28> H 	 -92.9336 	 44.4362 	 116.194
| 29> C 	 -92.6745 	 41.643 	 117.272
| 30> H 	 -92.1068 	 40.777 	 117.423
| 31> H 	 -93.614 	 41.3277 	 116.989
| 32> C 	 -92.88 	 42.277 	 118.685
| 33> H 	 -93.3379 	 43.2871 	 118.678
| 34> H 	 -91.9575 	 42.4468 	 119.187
| 35> C 	 -93.7229 	 41.398 	 119.628
| 36> H 	 -94.7324 	 41.1797 	 119.243
| 37> H 	 -93.7417 	 41.9009 	 120.571
| 38> H 	 -93.2462 	 40.4126 	 119.556
| 39> H 	 -90.0764 	 36.7655 	 115.556
| 40> H 	 -91.3773 	 45.1222 	 114.55
| 41> *
| 42>
| 43>                          ****END OF INPUT****

CARTESIAN COORDINATES (ANGSTROEM)
---------------------------------
  S    -91.169300   38.977500  114.847000
  C    -89.991500   37.912200  115.634000
  C    -89.064900   38.679300  116.294000
  C    -89.336900   40.078500  116.376000
  C    -90.381000   40.439900  115.516000
  H    -89.002300   40.929300  116.947000
  C    -87.877100   38.107800  116.979000
  H    -87.662700   37.190800  116.387000
  H    -88.192700   37.928900  118.019000
  C    -86.640800   39.010100  117.055000
  H    -86.746100   40.129600  117.230000
  H    -85.841100   38.561200  117.678000
  C    -85.915400   38.997000  115.698000
  H    -85.050700   39.561700  115.941000
  H    -85.603200   37.969100  115.457000
  H    -86.525300   39.463200  114.886000
  S    -90.435000   42.768800  114.117000
  C    -91.404400   44.076900  114.760000
  C    -92.283500   43.655800  115.761000
  C    -92.049200   42.309900  116.083000
  C    -90.946200   41.801400  115.424000
  H    -92.933600   44.436200  116.194000
  C    -92.674500   41.643000  117.272000
  H    -92.106800   40.777000  117.423000
  H    -93.614000   41.327700  116.989000
  C    -92.880000   42.277000  118.685000
  H    -93.337900   43.287100  118.678000
  H    -91.957500   42.446800  119.187000
  C    -93.722900   41.398000  119.628000
  H    -94.732400   41.179700  119.243000
  H    -93.741700   41.900900  120.571000
  H    -93.246200   40.412600  119.556000
  H    -90.076400   36.765500  115.556000
  H    -91.377300   45.122200  114.550000

 Total Charge           Charge          ....    0
 Multiplicity           Mult            ....    1
 Number of Electrons    NEL             ....  134
 Basis Dimension        Dim             ....  322

ORBITAL ENERGIES
----------------

  NO   OCC          E(Eh)            E(eV)
   0   2.0000     -88.969022     -2420.9702
   1   2.0000     -88.963168     -2420.8109
   2   2.0000     -10.330296      -281.1017
   3   2.0000     -10.322438      -280.8878
   4   2.0000     -10.319548      -280.8092
   5   2.0000     -10.313368      -280.6410
   6   2.0000     -10.301916      -280.3294
   7   2.0000     -10.300131      -280.2808
   8   2.0000     -10.296705      -280.1876
   9   2.0000     -10.293527      -280.1011
  10   2.0000     -10.290926      -280.0303
  11   2.0000     -10.290337      -280.0143
  12   2.0000     -10.285039      -279.8701
  13   2.0000     -10.277766      -279.6722
  14   2.0000     -10.276218      -279.6301
  15   2.0000     -10.271456      -279.5005
  16   2.0000      -8.084348      -219.9863
  17   2.0000      -8.076892      -219.7834
  18   2.0000      -6.042698      -164.4302
  19   2.0000      -6.038882      -164.3263
  20   2.0000      -6.035479      -164.2337
  21   2.0000      -6.035136      -164.2244
  22   2.0000      -6.031494      -164.1253
  23   2.0000      -6.027665      -164.0211
  24   2.0000      -1.009192       -27.4615
  25   2.0000      -0.983902       -26.7733
  26   2.0000      -0.912316       -24.8254
  27   2.0000      -0.908015       -24.7083
  28   2.0000      -0.869152       -23.6508
  29   2.0000      -0.856630       -23.3101
  30   2.0000      -0.844628       -22.9835
  31   2.0000      -0.818278       -22.2665
  32   2.0000      -0.780173       -21.2296
  33   2.0000      -0.765413       -20.8280
  34   2.0000      -0.704273       -19.1642
  35   2.0000      -0.699707       -19.0400
  36   2.0000      -0.681064       -18.5327
  37   2.0000      -0.657545       -17.8927
  38   2.0000      -0.640919       -17.4403
  39   2.0000      -0.616508       -16.7760
  40   2.0000      -0.596609       -16.2346
  41   2.0000      -0.568077       -15.4582
  42   2.0000      -0.560901       -15.2629
  43   2.0000      -0.557452       -15.1690
  44   2.0000      -0.539115       -14.6701
  45   2.0000      -0.533719       -14.5232
  46   2.0000      -0.524587       -14.2747
  47   2.0000      -0.515748       -14.0342
  48   2.0000      -0.505300       -13.7499
  49   2.0000      -0.503834       -13.7100
  50   2.0000      -0.481558       -13.1038
  51   2.0000      -0.476338       -12.9618
  52   2.0000      -0.462672       -12.5899
  53   2.0000      -0.460082       -12.5195
  54   2.0000      -0.453148       -12.3308
  55   2.0000      -0.448640       -12.2081
  56   2.0000      -0.440681       -11.9915
  57   2.0000      -0.436442       -11.8762
  58   2.0000      -0.430476       -11.7139
  59   2.0000      -0.425811       -11.5869
  60   2.0000      -0.414631       -11.2827
  61   2.0000      -0.413503       -11.2520
  62   2.0000      -0.409679       -11.1479
  63   2.0000      -0.337194        -9.1755
  64   2.0000      -0.330536        -8.9943
  65   2.0000      -0.314138        -8.5481
  66   2.0000      -0.309599        -8.4246
  67   0.0000       0.038144         1.0379
  68   0.0000       0.054281         1.4771
  69   0.0000       0.112029         3.0485
  70   0.0000       0.122387         3.3303
  71   0.0000       0.127891         3.4801

MULLIKEN ATOMIC CHARGES
-----------------------
   0 S :    0.098941
   1 C :   -0.165998
   2 C :   -0.074690
   3 C :    0.031039
   4 C :   -0.176476
   5 H :    0.025008
   6 C :    0.094942
   7 H :    0.029647
   8 H :    0.047225
   9 C :   -0.124185
  10 H :    0.051400
  11 H :    0.034809
  12 C :   -0.067566
  13 H :    0.023039
  14 H :    0.025378
  15 H :    0.053863
  16 S :    0.135921
  17 C :   -0.086553
  18 C :   -0.066360
  19 C :    0.011944
  20 C :   -0.216823
  21 H :    0.033680
  22 C :    0.126906
  23 H :    0.007346
  24 H :    0.001717
  25 C :   -0.069144
  26 H :    0.020277
  27 H :    0.019169
  28 C :   -0.053645
  29 H :    0.029721
  30 H :    0.043148
  31 H :    0.029968
  32 H :    0.086448
  33 H :    0.039903
Sum of atomic charges:    0.0000000

LOEWDIN ATOMIC CHARGES
----------------------
   0 S :    0.373500
   1 C :   -0.204773
   2 C :   -0.070849
   3 C :   -0.059909
   4 C :   -0.185039
   5 H :    0.038201
   6 C :   -0.038074
   7 H :    0.036519
   8 H :    0.037221
   9 C :   -0.052451
  10 H :    0.034167
  11 H :    0.029817
  12 C :   -0.064466
  13 H :    0.018753
  14 H :    0.019902
  15 H :    0.028790
  16 S :    0.434833
  17 C :   -0.184309
  18 C :   -0.069260
  19 C :   -0.051067
  20 C :   -0.225397
  21 H :    0.039834
  22 C :   -0.027340
  23 H :    0.024703
  24 H :    0.024012
  25 C :   -0.035860
  26 H :    0.019163
  27 H :    0.017268
  28 C :   -0.061278
  29 H :    0.024412
  30 H :    0.027192
  31 H :    0.027892
  32 H :    0.050557
  33 H :    0.023337

  Mayer bond orders larger than 0.100000
B(  0-S ,  1-C ) :   1.1260 B(  0-S ,  4-C ) :   1.1405 B(  1-C ,  2-C ) :   1.6259
B(  1-C , 32-H ) :   0.9603 B(  2-C ,  3-C ) :   1.1895 B(  2-C ,  6-C ) :   1.0173
B(  3-C ,  4-C ) :   1.6035 B(  3-C ,  5-H ) :   0.9914 B(  4-C , 20-C ) :   1.0091
B(  6-C ,  7-H ) :   0.9454 B(  6-C ,  8-H ) :   0.9282 B(  6-C ,  9-C ) :   1.0751
B(  9-C , 10-H ) :   0.9543 B(  9-C , 11-H ) :   0.9576 B(  9-C , 12-C ) :   1.0658
B( 12-C , 13-H ) :   0.9792 B( 12-C , 14-H ) :   0.9757 B( 12-C , 15-H ) :   0.9768
B( 16-S , 17-C ) :   1.1615 B( 16-S , 20-C ) :   1.1607 B( 17-C , 18-C ) :   1.6169
B( 17-C , 20-C ) :   0.1039 B( 17-C , 33-H ) :   0.9681 B( 18-C , 19-C ) :   1.2321
B( 18-C , 21-H ) :   0.9895 B( 19-C , 20-C ) :   1.5784 B( 19-C , 22-C ) :   1.0527
B( 22-C , 23-H ) :   0.9265 B( 22-C , 24-H ) :   0.9123 B( 22-C , 25-C ) :   1.0592
B( 25-C , 26-H ) :   0.9516 B( 25-C , 27-H ) :   0.9565 B( 25-C , 28-C ) :   1.0800
B( 28-C , 29-H ) :   0.9756 B( 28-C , 30-H ) :   0.9726 B( 28-C , 31-H ) :   0.9770

Dispersion correction           -0.014320059
FINAL SINGLE POINT ENERGY     -1339.842864178601

DIPOLE MOMENT
-------------
                                X             Y             Z
Electronic contribution:     -6.05589       4.08306     -19.80837
Nuclear contribution   :      6.15344      -4.02435      20.42345
                        -----------------------------------------
Total Dipole Moment    :      0.09756       0.05871       0.61508
                        -----------------------------------------
Magnitude (a.u.)       :      0.62553
Magnitude (Debye)      :      1.58996

Rotational constants in cm-1:     0.017276     0.008710     0.007343
Rotational constants in MHz :   517.914955   261.125375   220.138746

                             ****ORCA TERMINATED NORMALLY****
TOTAL RUN TIME: 0 days 0 hours 0 minutes 33 seconds 504 msec
