                         Program Version 4.2.1 -  RELEASE  -
|  1> ! wB97X-D3 SP def2-SVP
|  2> %pal
|  3> nprocs 16
|  4> end
|  5>
|  6> * xyz 0 1
|  7> S 	 -40.9258 	 -0.597721 	 98.355
|  8> C 	 -39.9398 	 0.581798 	 99.1498
|  9> C 	 -39.6009 	 1.60069 	 98.2516
| 10> C 	 -40.2269 	 1.49226 	 96.9441
| 11> C 	 -41.0115 	 0.378005 	 96.8589
| 12> H 	 -40.0581 	 2.18781 	 96.1182
| 13> C 	 -38.6504 	 2.73729 	 98.6226
| 14> H 	 -38.107 	 2.56241 	 99.5732
| 15> H 	 -39.3525 	 3.60282 	 98.7921
| 16> C 	 -37.5429 	 3.00979 	 97.5986
| 17> H 	 -37.0703 	 2.05787 	 97.2983
| 18> H 	 -38.0281 	 3.31469 	 96.6863
| 19> C 	 -36.5486 	 4.04867 	 98.0914
| 20> H 	 -36.9292 	 5.12277 	 98.0375
| 21> H 	 -36.1774 	 3.96293 	 99.1166
| 22> H 	 -35.694 	 4.00927 	 97.3801
| 23> S 	 -43.499 	 -0.360546 	 96.0136
| 24> C 	 -43.9291 	 -0.0658135 	 94.3436
| 25> C 	 -42.7839 	 0.195827 	 93.6024
| 26> C 	 -41.5802 	 0.174587 	 94.3509
| 27> C 	 -41.8351 	 0.0593051 	 95.7225
| 28> H 	 -42.8408 	 0.506334 	 92.5704
| 29> C 	 -40.2153 	 0.366713 	 93.7097
| 30> H 	 -39.8901 	 1.49812 	 93.9909
| 31> H 	 -40.2754 	 0.21442 	 92.6068
| 32> C 	 -39.0048 	 -0.523342 	 94.0583
| 33> H 	 -39.1052 	 -1.5433 	 93.6566
| 34> H 	 -38.9272 	 -0.603303 	 95.2023
| 35> C 	 -37.6974 	 0.0885457 	 93.6243
| 36> H 	 -37.6207 	 0.370583 	 92.5715
| 37> H 	 -36.833 	 -0.578577 	 93.856
| 38> H 	 -37.5265 	 0.956092 	 94.3152
| 39> H 	 -39.6217 	 0.507344 	 100.209
| 40> H 	 -44.9513 	 0.124565 	 93.9189
| 41> *
| 42>
| 43>                          ****END OF INPUT****

CARTESIAN COORDINATES (ANGSTROEM)
---------------------------------
  S    -40.925800   -0.597721   98.355000
  C    -39.939800    0.581798   99.149800
  C    -39.600900    1.600690   98.251600
  C    -40.226900    1.492260   96.944100
  C    -41.011500    0.378005   96.858900
  H    -40.058100    2.187810   96.118200
  C    -38.650400    2.737290   98.622600
  H    -38.107000    2.562410   99.573200
  H    -39.352500    3.602820   98.792100
  C    -37.542900    3.009790   97.598600
  H    -37.070300    2.057870   97.298300
  H    -38.028100    3.314690   96.686300
  C    -36.548600    4.048670   98.091400
  H    -36.929200    5.122770   98.037500
  H    -36.177400    3.962930   99.116600
  H    -35.694000    4.009270   97.380100
  S    -43.499000   -0.360546   96.013600
  C    -43.929100   -0.065813   94.343600
  C    -42.783900    0.195827   93.602400
  C    -41.580200    0.174587   94.350900
  C    -41.835100    0.059305   95.722500
  H    -42.840800    0.506334   92.570400
  C    -40.215300    0.366713   93.709700
  H    -39.890100    1.498120   93.990900
  H    -40.275400    0.214420   92.606800
  C    -39.004800   -0.523342   94.058300
  H    -39.105200   -1.543300   93.656600
  H    -38.927200   -0.603303   95.202300
  C    -37.697400    0.088546   93.624300
  H    -37.620700    0.370583   92.571500
  H    -36.833000   -0.578577   93.856000
  H    -37.526500    0.956092   94.315200
  H    -39.621700    0.507344  100.209000
  H    -44.951300    0.124565   93.918900

 Total Charge           Charge          ....    0
 Multiplicity           Mult            ....    1
 Number of Electrons    NEL             ....  134
 Basis Dimension        Dim             ....  322

ORBITAL ENERGIES
----------------

  NO   OCC          E(Eh)            E(eV)
   0   2.0000     -88.966944     -2420.9136
   1   2.0000     -88.966007     -2420.8881
   2   2.0000     -10.332375      -281.1582
   3   2.0000     -10.326370      -280.9948
   4   2.0000     -10.321732      -280.8686
   5   2.0000     -10.316936      -280.7381
   6   2.0000     -10.308793      -280.5165
   7   2.0000     -10.306146      -280.4445
   8   2.0000     -10.305158      -280.4176
   9   2.0000     -10.298636      -280.2401
  10   2.0000     -10.295473      -280.1541
  11   2.0000     -10.294223      -280.1200
  12   2.0000     -10.289833      -280.0006
  13   2.0000     -10.289519      -279.9920
  14   2.0000     -10.288030      -279.9515
  15   2.0000     -10.282612      -279.8041
  16   2.0000      -8.081888      -219.9193
  17   2.0000      -8.080479      -219.8810
  18   2.0000      -6.040416      -164.3681
  19   2.0000      -6.039088      -164.3319
  20   2.0000      -6.036286      -164.2557
  21   2.0000      -6.035047      -164.2220
  22   2.0000      -6.032676      -164.1575
  23   2.0000      -6.031133      -164.1155
  24   2.0000      -1.007877       -27.4257
  25   2.0000      -0.982788       -26.7430
  26   2.0000      -0.910439       -24.7743
  27   2.0000      -0.906662       -24.6715
  28   2.0000      -0.872688       -23.7471
  29   2.0000      -0.855303       -23.2740
  30   2.0000      -0.845478       -23.0066
  31   2.0000      -0.814198       -22.1555
  32   2.0000      -0.776479       -21.1291
  33   2.0000      -0.764498       -20.8031
  34   2.0000      -0.710416       -19.3314
  35   2.0000      -0.694648       -18.9023
  36   2.0000      -0.680624       -18.5207
  37   2.0000      -0.662738       -18.0340
  38   2.0000      -0.639071       -17.3900
  39   2.0000      -0.622774       -16.9466
  40   2.0000      -0.591938       -16.1074
  41   2.0000      -0.569859       -15.5067
  42   2.0000      -0.561924       -15.2907
  43   2.0000      -0.560362       -15.2482
  44   2.0000      -0.525243       -14.2926
  45   2.0000      -0.518892       -14.1198
  46   2.0000      -0.514718       -14.0062
  47   2.0000      -0.512677       -13.9506
  48   2.0000      -0.507509       -13.8100
  49   2.0000      -0.496319       -13.5055
  50   2.0000      -0.493992       -13.4422
  51   2.0000      -0.482290       -13.1238
  52   2.0000      -0.474439       -12.9101
  53   2.0000      -0.470528       -12.8037
  54   2.0000      -0.459278       -12.4976
  55   2.0000      -0.450937       -12.2706
  56   2.0000      -0.438759       -11.9392
  57   2.0000      -0.435927       -11.8622
  58   2.0000      -0.429048       -11.6750
  59   2.0000      -0.424078       -11.5398
  60   2.0000      -0.421267       -11.4633
  61   2.0000      -0.410129       -11.1602
  62   2.0000      -0.407416       -11.0864
  63   2.0000      -0.352793        -9.6000
  64   2.0000      -0.332258        -9.0412
  65   2.0000      -0.324911        -8.8413
  66   2.0000      -0.286268        -7.7898
  67   0.0000       0.023012         0.6262
  68   0.0000       0.068501         1.8640
  69   0.0000       0.107750         2.9320
  70   0.0000       0.115504         3.1430
  71   0.0000       0.126309         3.4370

MULLIKEN ATOMIC CHARGES
-----------------------
   0 S :    0.105459
   1 C :   -0.136950
   2 C :   -0.087779
   3 C :    0.012296
   4 C :   -0.128865
   5 H :    0.018758
   6 C :    0.033005
   7 H :    0.018940
   8 H :    0.050701
   9 C :   -0.080297
  10 H :    0.039104
  11 H :    0.021518
  12 C :   -0.065223
  13 H :    0.039491
  14 H :    0.037638
  15 H :    0.039153
  16 S :    0.116784
  17 C :   -0.106878
  18 C :   -0.051913
  19 C :    0.008964
  20 C :   -0.157148
  21 H :    0.019931
  22 C :   -0.018624
  23 H :    0.048385
  24 H :    0.034855
  25 C :   -0.081763
  26 H :    0.039075
  27 H :    0.049076
  28 C :   -0.069568
  29 H :    0.037386
  30 H :    0.038852
  31 H :    0.029020
  32 H :    0.066838
  33 H :    0.079778
Sum of atomic charges:   -0.0000000

LOEWDIN ATOMIC CHARGES
----------------------
   0 S :    0.389661
   1 C :   -0.212959
   2 C :   -0.061658
   3 C :   -0.064015
   4 C :   -0.179295
   5 H :    0.033593
   6 C :   -0.039199
   7 H :    0.027732
   8 H :    0.038775
   9 C :   -0.046711
  10 H :    0.028712
  11 H :    0.019452
  12 C :   -0.072892
  13 H :    0.033760
  14 H :    0.024749
  15 H :    0.031654
  16 S :    0.417080
  17 C :   -0.200029
  18 C :   -0.070588
  19 C :   -0.061978
  20 C :   -0.199485
  21 H :    0.031216
  22 C :   -0.044832
  23 H :    0.042216
  24 H :    0.034832
  25 C :   -0.052459
  26 H :    0.024416
  27 H :    0.034067
  28 C :   -0.071796
  29 H :    0.021964
  30 H :    0.032036
  31 H :    0.027968
  32 H :    0.038635
  33 H :    0.045378

  Mayer bond orders larger than 0.100000
B(  0-S ,  1-C ) :   1.1232 B(  0-S ,  4-C ) :   1.1381 B(  1-C ,  2-C ) :   1.6189
B(  1-C , 32-H ) :   0.9661 B(  2-C ,  3-C ) :   1.2224 B(  2-C ,  6-C ) :   1.0213
B(  3-C ,  4-C ) :   1.5787 B(  3-C ,  5-H ) :   0.9910 B(  4-C , 20-C ) :   1.0633
B(  6-C ,  7-H ) :   0.9503 B(  6-C ,  8-H ) :   0.9377 B(  6-C ,  9-C ) :   1.0575
B(  9-C , 10-H ) :   0.9593 B(  9-C , 11-H ) :   0.9459 B(  9-C , 12-C ) :   1.0844
B( 12-C , 13-H ) :   0.9732 B( 12-C , 14-H ) :   0.9755 B( 12-C , 15-H ) :   0.9739
B( 16-S , 17-C ) :   1.1552 B( 16-S , 20-C ) :   1.1487 B( 17-C , 18-C ) :   1.5968
B( 17-C , 20-C ) :   0.1004 B( 17-C , 33-H ) :   0.9598 B( 18-C , 19-C ) :   1.2657
B( 18-C , 21-H ) :   0.9887 B( 19-C , 20-C ) :   1.5479 B( 19-C , 22-C ) :   1.0338
B( 22-C , 23-H ) :   0.9322 B( 22-C , 24-H ) :   0.9399 B( 22-C , 25-C ) :   1.0532
B( 25-C , 26-H ) :   0.9550 B( 25-C , 27-H ) :   0.9523 B( 25-C , 28-C ) :   1.0814
B( 28-C , 29-H ) :   0.9743 B( 28-C , 30-H ) :   0.9709 B( 28-C , 31-H ) :   0.9727

Dispersion correction           -0.014822601
FINAL SINGLE POINT ENERGY     -1339.879179035194

DIPOLE MOMENT
-------------
                                X             Y             Z
Electronic contribution:    -27.93317     -14.77260       7.44487
Nuclear contribution   :     28.39093      15.28481      -7.74956
                        -----------------------------------------
Total Dipole Moment    :      0.45776       0.51221      -0.30469
                        -----------------------------------------
Magnitude (a.u.)       :      0.75149
Magnitude (Debye)      :      1.91015

Rotational constants in cm-1:     0.018189     0.009212     0.007116
Rotational constants in MHz :   545.301667   276.182283   213.323237

                             ****ORCA TERMINATED NORMALLY****
TOTAL RUN TIME: 0 days 0 hours 0 minutes 30 seconds 497 msec
