                         Program Version 4.2.1 -  RELEASE  -
|  1> ! wB97X-D3 SP def2-SVP
|  2> %pal
|  3> nprocs 16
|  4> end
|  5>
|  6> * xyz 0 1
|  7> S 	 -80.4744 	 42.0704 	 137.703
|  8> C 	 -80.1327 	 41.0421 	 139.121
|  9> C 	 -80.0699 	 41.8416 	 140.244
| 10> C 	 -80.2196 	 43.2131 	 139.967
| 11> C 	 -80.2512 	 43.5101 	 138.601
| 12> H 	 -80.2313 	 43.9973 	 140.747
| 13> C 	 -80.1345 	 41.323 	 141.647
| 14> H 	 -80.0234 	 40.2419 	 141.637
| 15> H 	 -81.113 	 41.4897 	 142.091
| 16> C 	 -79.1522 	 41.9333 	 142.625
| 17> H 	 -79.2145 	 43.0184 	 142.511
| 18> H 	 -79.3175 	 41.6871 	 143.659
| 19> C 	 -77.622 	 41.678 	 142.274
| 20> H 	 -77.2616 	 41.965 	 141.295
| 21> H 	 -76.9846 	 42.1458 	 143.107
| 22> H 	 -77.634 	 40.5689 	 142.125
| 23> S 	 -81.536 	 45.4919 	 137.107
| 24> C 	 -80.6198 	 46.9701 	 136.809
| 25> C 	 -79.4147 	 46.9228 	 137.42
| 26> C 	 -79.1337 	 45.7404 	 138.113
| 27> C 	 -80.2017 	 44.8523 	 138.088
| 28> H 	 -78.772 	 47.7359 	 137.286
| 29> C 	 -77.8454 	 45.3894 	 138.813
| 30> H 	 -78.0383 	 44.5407 	 139.438
| 31> H 	 -77.5178 	 46.3205 	 139.275
| 32> C 	 -76.7932 	 45.0075 	 137.788
| 33> H 	 -77.3603 	 44.4726 	 137.02
| 34> H 	 -76.1752 	 44.2421 	 138.312
| 35> C 	 -75.9233 	 46.1098 	 137.076
| 36> H 	 -75.3869 	 46.6794 	 137.848
| 37> H 	 -76.6269 	 46.7671 	 136.452
| 38> H 	 -75.1462 	 45.6116 	 136.499
| 39> H 	 -80.3215 	 39.9419 	 139.154
| 40> H 	 -81.0887 	 47.7438 	 136.223
| 41> *
| 42>
| 43>                          ****END OF INPUT****

CARTESIAN COORDINATES (ANGSTROEM)
---------------------------------
  S    -80.474400   42.070400  137.703000
  C    -80.132700   41.042100  139.121000
  C    -80.069900   41.841600  140.244000
  C    -80.219600   43.213100  139.967000
  C    -80.251200   43.510100  138.601000
  H    -80.231300   43.997300  140.747000
  C    -80.134500   41.323000  141.647000
  H    -80.023400   40.241900  141.637000
  H    -81.113000   41.489700  142.091000
  C    -79.152200   41.933300  142.625000
  H    -79.214500   43.018400  142.511000
  H    -79.317500   41.687100  143.659000
  C    -77.622000   41.678000  142.274000
  H    -77.261600   41.965000  141.295000
  H    -76.984600   42.145800  143.107000
  H    -77.634000   40.568900  142.125000
  S    -81.536000   45.491900  137.107000
  C    -80.619800   46.970100  136.809000
  C    -79.414700   46.922800  137.420000
  C    -79.133700   45.740400  138.113000
  C    -80.201700   44.852300  138.088000
  H    -78.772000   47.735900  137.286000
  C    -77.845400   45.389400  138.813000
  H    -78.038300   44.540700  139.438000
  H    -77.517800   46.320500  139.275000
  C    -76.793200   45.007500  137.788000
  H    -77.360300   44.472600  137.020000
  H    -76.175200   44.242100  138.312000
  C    -75.923300   46.109800  137.076000
  H    -75.386900   46.679400  137.848000
  H    -76.626900   46.767100  136.452000
  H    -75.146200   45.611600  136.499000
  H    -80.321500   39.941900  139.154000
  H    -81.088700   47.743800  136.223000

 Total Charge           Charge          ....    0
 Multiplicity           Mult            ....    1
 Number of Electrons    NEL             ....  134
 Basis Dimension        Dim             ....  322

ORBITAL ENERGIES
----------------

  NO   OCC          E(Eh)            E(eV)
   0   2.0000     -88.968875     -2420.9662
   1   2.0000     -88.962473     -2420.7920
   2   2.0000     -10.328097      -281.0418
   3   2.0000     -10.322993      -280.9029
   4   2.0000     -10.319715      -280.8137
   5   2.0000     -10.318381      -280.7774
   6   2.0000     -10.300075      -280.2793
   7   2.0000     -10.299522      -280.2642
   8   2.0000     -10.294233      -280.1203
   9   2.0000     -10.290903      -280.0297
  10   2.0000     -10.288821      -279.9730
  11   2.0000     -10.288149      -279.9548
  12   2.0000     -10.287415      -279.9348
  13   2.0000     -10.285693      -279.8879
  14   2.0000     -10.284589      -279.8579
  15   2.0000     -10.283709      -279.8339
  16   2.0000      -8.083535      -219.9642
  17   2.0000      -8.077056      -219.7879
  18   2.0000      -6.042033      -164.4121
  19   2.0000      -6.038067      -164.3042
  20   2.0000      -6.035470      -164.2335
  21   2.0000      -6.034278      -164.2010
  22   2.0000      -6.031612      -164.1285
  23   2.0000      -6.027923      -164.0281
  24   2.0000      -1.010590       -27.4996
  25   2.0000      -0.988149       -26.8889
  26   2.0000      -0.915818       -24.9207
  27   2.0000      -0.910164       -24.7668
  28   2.0000      -0.871468       -23.7139
  29   2.0000      -0.845562       -23.0089
  30   2.0000      -0.841493       -22.8982
  31   2.0000      -0.814102       -22.1528
  32   2.0000      -0.785399       -21.3718
  33   2.0000      -0.774513       -21.0756
  34   2.0000      -0.712516       -19.3886
  35   2.0000      -0.694065       -18.8865
  36   2.0000      -0.688443       -18.7335
  37   2.0000      -0.663925       -18.0663
  38   2.0000      -0.635816       -17.3014
  39   2.0000      -0.625638       -17.0245
  40   2.0000      -0.600460       -16.3394
  41   2.0000      -0.571415       -15.5490
  42   2.0000      -0.557973       -15.1832
  43   2.0000      -0.548997       -14.9390
  44   2.0000      -0.543338       -14.7850
  45   2.0000      -0.539716       -14.6864
  46   2.0000      -0.515740       -14.0340
  47   2.0000      -0.512886       -13.9563
  48   2.0000      -0.504241       -13.7211
  49   2.0000      -0.493710       -13.4345
  50   2.0000      -0.487938       -13.2775
  51   2.0000      -0.486309       -13.2331
  52   2.0000      -0.482483       -13.1290
  53   2.0000      -0.465491       -12.6667
  54   2.0000      -0.452385       -12.3100
  55   2.0000      -0.450685       -12.2638
  56   2.0000      -0.443224       -12.0607
  57   2.0000      -0.438853       -11.9418
  58   2.0000      -0.430669       -11.7191
  59   2.0000      -0.424232       -11.5439
  60   2.0000      -0.420954       -11.4547
  61   2.0000      -0.409694       -11.1483
  62   2.0000      -0.399019       -10.8578
  63   2.0000      -0.340072        -9.2538
  64   2.0000      -0.333549        -9.0763
  65   2.0000      -0.330303        -8.9880
  66   2.0000      -0.297814        -8.1039
  67   0.0000       0.028994         0.7890
  68   0.0000       0.063333         1.7234
  69   0.0000       0.108590         2.9549
  70   0.0000       0.121624         3.3096
  71   0.0000       0.129193         3.5155

MULLIKEN ATOMIC CHARGES
-----------------------
   0 S :    0.120462
   1 C :   -0.141574
   2 C :   -0.077962
   3 C :    0.013825
   4 C :   -0.168661
   5 H :    0.033807
   6 C :    0.074765
   7 H :    0.010252
   8 H :    0.042307
   9 C :   -0.082380
  10 H :    0.021968
  11 H :    0.034677
  12 C :   -0.096228
  13 H :    0.038943
  14 H :    0.060317
  15 H :    0.024818
  16 S :    0.090172
  17 C :   -0.093937
  18 C :   -0.009000
  19 C :   -0.053934
  20 C :   -0.183233
  21 H :   -0.004764
  22 C :    0.156941
  23 H :    0.021341
  24 H :    0.019052
  25 C :   -0.117687
  26 H :    0.030753
  27 H :    0.031057
  28 C :   -0.052208
  29 H :    0.031966
  30 H :    0.050339
  31 H :    0.044807
  32 H :    0.069766
  33 H :    0.059234
Sum of atomic charges:   -0.0000000

LOEWDIN ATOMIC CHARGES
----------------------
   0 S :    0.416661
   1 C :   -0.200456
   2 C :   -0.067960
   3 C :   -0.064478
   4 C :   -0.208494
   5 H :    0.035580
   6 C :   -0.032508
   7 H :    0.024686
   8 H :    0.038549
   9 C :   -0.041610
  10 H :    0.019303
  11 H :    0.023861
  12 C :   -0.079096
  13 H :    0.021189
  14 H :    0.038370
  15 H :    0.026460
  16 S :    0.380802
  17 C :   -0.162821
  18 C :   -0.072857
  19 C :   -0.046213
  20 C :   -0.199264
  21 H :    0.023350
  22 C :   -0.025517
  23 H :    0.031593
  24 H :    0.030085
  25 C :   -0.045978
  26 H :    0.024463
  27 H :    0.026260
  28 C :   -0.069317
  29 H :    0.023478
  30 H :    0.034075
  31 H :    0.030267
  32 H :    0.039618
  33 H :    0.027918

  Mayer bond orders larger than 0.100000
B(  0-S ,  1-C ) :   1.1303 B(  0-S ,  4-C ) :   1.1717 B(  1-C ,  2-C ) :   1.5895
B(  1-C ,  4-C ) :   0.1014 B(  1-C , 32-H ) :   0.9599 B(  2-C ,  3-C ) :   1.2662
B(  2-C ,  6-C ) :   1.0307 B(  3-C ,  4-C ) :   1.5283 B(  3-C ,  5-H ) :   0.9874
B(  4-C , 20-C ) :   1.0484 B(  6-C ,  7-H ) :   0.9394 B(  6-C ,  8-H ) :   0.9374
B(  6-C ,  9-C ) :   1.0736 B(  9-C , 10-H ) :   0.9559 B(  9-C , 11-H ) :   0.9575
B(  9-C , 12-C ) :   1.0561 B( 12-C , 13-H ) :   0.9745 B( 12-C , 14-H ) :   0.9743
B( 12-C , 15-H ) :   0.9766 B( 16-S , 17-C ) :   1.1563 B( 16-S , 20-C ) :   1.1351
B( 17-C , 18-C ) :   1.5938 B( 17-C , 20-C ) :   0.1023 B( 17-C , 33-H ) :   0.9716
B( 18-C , 19-C ) :   1.2361 B( 18-C , 21-H ) :   1.0025 B( 19-C , 20-C ) :   1.5912
B( 19-C , 22-C ) :   1.0528 B( 22-C , 23-H ) :   0.9111 B( 22-C , 24-H ) :   0.9281
B( 22-C , 25-C ) :   1.0659 B( 25-C , 26-H ) :   0.9558 B( 25-C , 27-H ) :   0.9585
B( 25-C , 28-C ) :   1.0718 B( 28-C , 29-H ) :   0.9752 B( 28-C , 30-H ) :   0.9711
B( 28-C , 31-H ) :   0.9730

Dispersion correction           -0.015270252
FINAL SINGLE POINT ENERGY     -1339.872098523975

DIPOLE MOMENT
-------------
                                X             Y             Z
Electronic contribution:    -21.72015       1.26560     -15.50869
Nuclear contribution   :     21.97892      -1.13130      15.91430
                        -----------------------------------------
Total Dipole Moment    :      0.25877       0.13430       0.40560
                        -----------------------------------------
Magnitude (a.u.)       :      0.49951
Magnitude (Debye)      :      1.26965

Rotational constants in cm-1:     0.018651     0.009358     0.007463
Rotational constants in MHz :   559.155158   280.542656   223.727590

                             ****ORCA TERMINATED NORMALLY****
TOTAL RUN TIME: 0 days 0 hours 0 minutes 36 seconds 997 msec
