                         Program Version 4.2.1 -  RELEASE  -
|  1> ! wB97X-D3 SP def2-SVP
|  2> %pal
|  3> nprocs 16
|  4> end
|  5>
|  6> * xyz 0 1
|  7> S 	 -44.6038 	 54.4052 	 103.155
|  8> C 	 -46.3582 	 54.1634 	 103.576
|  9> C 	 -46.9756 	 53.2489 	 102.746
| 10> C 	 -46.0926 	 52.8153 	 101.701
| 11> C 	 -44.8297 	 53.2416 	 101.867
| 12> H 	 -46.3056 	 52.2302 	 100.791
| 13> C 	 -48.4764 	 53.0584 	 102.712
| 14> H 	 -48.7709 	 53.2946 	 101.727
| 15> H 	 -49.0912 	 53.7304 	 103.247
| 16> C 	 -48.9418 	 51.6411 	 103.129
| 17> H 	 -48.8069 	 50.9797 	 102.354
| 18> H 	 -48.3632 	 51.275 	 103.923
| 19> C 	 -50.4665 	 51.6147 	 103.463
| 20> H 	 -50.7602 	 50.6385 	 103.909
| 21> H 	 -50.7558 	 52.5033 	 104.053
| 22> H 	 -50.9765 	 51.7556 	 102.536
| 23> S 	 -42.7855 	 54.0525 	 100.133
| 24> C 	 -41.9499 	 52.8404 	 99.1255
| 25> C 	 -42.2504 	 51.5526 	 99.533
| 26> C 	 -43.2269 	 51.5138 	 100.548
| 27> C 	 -43.6851 	 52.8284 	 100.99
| 28> H 	 -41.7629 	 50.6416 	 99.0983
| 29> C 	 -43.797 	 50.232 	 100.948
| 30> H 	 -43.8418 	 49.6183 	 100.09
| 31> H 	 -44.878 	 50.4506 	 101.19
| 32> C 	 -43.1309 	 49.5661 	 102.19
| 33> H 	 -42.0607 	 49.5645 	 102.003
| 34> H 	 -43.4511 	 48.5301 	 102.055
| 35> C 	 -43.5292 	 50.1145 	 103.531
| 36> H 	 -43.2621 	 51.155 	 103.741
| 37> H 	 -43.1766 	 49.4921 	 104.351
| 38> H 	 -44.575 	 50.0367 	 103.584
| 39> H 	 -46.7978 	 54.7857 	 104.432
| 40> H 	 -41.194 	 52.9333 	 98.4204
| 41> *
| 42>
| 43>                          ****END OF INPUT****

CARTESIAN COORDINATES (ANGSTROEM)
---------------------------------
  S    -44.603800   54.405200  103.155000
  C    -46.358200   54.163400  103.576000
  C    -46.975600   53.248900  102.746000
  C    -46.092600   52.815300  101.701000
  C    -44.829700   53.241600  101.867000
  H    -46.305600   52.230200  100.791000
  C    -48.476400   53.058400  102.712000
  H    -48.770900   53.294600  101.727000
  H    -49.091200   53.730400  103.247000
  C    -48.941800   51.641100  103.129000
  H    -48.806900   50.979700  102.354000
  H    -48.363200   51.275000  103.923000
  C    -50.466500   51.614700  103.463000
  H    -50.760200   50.638500  103.909000
  H    -50.755800   52.503300  104.053000
  H    -50.976500   51.755600  102.536000
  S    -42.785500   54.052500  100.133000
  C    -41.949900   52.840400   99.125500
  C    -42.250400   51.552600   99.533000
  C    -43.226900   51.513800  100.548000
  C    -43.685100   52.828400  100.990000
  H    -41.762900   50.641600   99.098300
  C    -43.797000   50.232000  100.948000
  H    -43.841800   49.618300  100.090000
  H    -44.878000   50.450600  101.190000
  C    -43.130900   49.566100  102.190000
  H    -42.060700   49.564500  102.003000
  H    -43.451100   48.530100  102.055000
  C    -43.529200   50.114500  103.531000
  H    -43.262100   51.155000  103.741000
  H    -43.176600   49.492100  104.351000
  H    -44.575000   50.036700  103.584000
  H    -46.797800   54.785700  104.432000
  H    -41.194000   52.933300   98.420400

 Total Charge           Charge          ....    0
 Multiplicity           Mult            ....    1
 Number of Electrons    NEL             ....  134
 Basis Dimension        Dim             ....  322

ORBITAL ENERGIES
----------------

  NO   OCC          E(Eh)            E(eV)
   0   2.0000     -88.969407     -2420.9806
   1   2.0000     -88.966550     -2420.9029
   2   2.0000     -10.331923      -281.1459
   3   2.0000     -10.330759      -281.1142
   4   2.0000     -10.326451      -280.9970
   5   2.0000     -10.314681      -280.6767
   6   2.0000     -10.308084      -280.4972
   7   2.0000     -10.301443      -280.3165
   8   2.0000     -10.295185      -280.1462
   9   2.0000     -10.294379      -280.1243
  10   2.0000     -10.287115      -279.9266
  11   2.0000     -10.282359      -279.7972
  12   2.0000     -10.282296      -279.7955
  13   2.0000     -10.281935      -279.7857
  14   2.0000     -10.276398      -279.6350
  15   2.0000     -10.266416      -279.3634
  16   2.0000      -8.083063      -219.9513
  17   2.0000      -8.080569      -219.8835
  18   2.0000      -6.041577      -164.3997
  19   2.0000      -6.039076      -164.3316
  20   2.0000      -6.037590      -164.2912
  21   2.0000      -6.035391      -164.2313
  22   2.0000      -6.034019      -164.1940
  23   2.0000      -6.031149      -164.1159
  24   2.0000      -1.001572       -27.2542
  25   2.0000      -0.979678       -26.6584
  26   2.0000      -0.913457       -24.8564
  27   2.0000      -0.909129       -24.7387
  28   2.0000      -0.866491       -23.5784
  29   2.0000      -0.849677       -23.1209
  30   2.0000      -0.847241       -23.0546
  31   2.0000      -0.817028       -22.2325
  32   2.0000      -0.782072       -21.2813
  33   2.0000      -0.767119       -20.8744
  34   2.0000      -0.712019       -19.3750
  35   2.0000      -0.701620       -19.0921
  36   2.0000      -0.692025       -18.8310
  37   2.0000      -0.654380       -17.8066
  38   2.0000      -0.646610       -17.5952
  39   2.0000      -0.620447       -16.8832
  40   2.0000      -0.592932       -16.1345
  41   2.0000      -0.571889       -15.5619
  42   2.0000      -0.562209       -15.2985
  43   2.0000      -0.548590       -14.9279
  44   2.0000      -0.535805       -14.5800
  45   2.0000      -0.527302       -14.3486
  46   2.0000      -0.515419       -14.0253
  47   2.0000      -0.512047       -13.9335
  48   2.0000      -0.500381       -13.6161
  49   2.0000      -0.495322       -13.4784
  50   2.0000      -0.488582       -13.2950
  51   2.0000      -0.474970       -12.9246
  52   2.0000      -0.472230       -12.8500
  53   2.0000      -0.466467       -12.6932
  54   2.0000      -0.454558       -12.3692
  55   2.0000      -0.449910       -12.2427
  56   2.0000      -0.445634       -12.1263
  57   2.0000      -0.443906       -12.0793
  58   2.0000      -0.432655       -11.7731
  59   2.0000      -0.429297       -11.6818
  60   2.0000      -0.418086       -11.3767
  61   2.0000      -0.417218       -11.3531
  62   2.0000      -0.410561       -11.1719
  63   2.0000      -0.345159        -9.3923
  64   2.0000      -0.334500        -9.1022
  65   2.0000      -0.326216        -8.8768
  66   2.0000      -0.290599        -7.9076
  67   0.0000       0.028543         0.7767
  68   0.0000       0.066977         1.8225
  69   0.0000       0.100090         2.7236
  70   0.0000       0.121598         3.3088
  71   0.0000       0.127741         3.4760

MULLIKEN ATOMIC CHARGES
-----------------------
   0 S :    0.092007
   1 C :   -0.163680
   2 C :   -0.042039
   3 C :    0.020651
   4 C :   -0.145068
   5 H :    0.038932
   6 C :    0.082350
   7 H :    0.015134
   8 H :   -0.002644
   9 C :   -0.042206
  10 H :    0.008612
  11 H :    0.023592
  12 C :   -0.063543
  13 H :    0.049231
  14 H :    0.033560
  15 H :    0.021227
  16 S :    0.111534
  17 C :   -0.055936
  18 C :   -0.063667
  19 C :   -0.044044
  20 C :   -0.157094
  21 H :    0.039639
  22 C :    0.035466
  23 H :    0.011956
  24 H :    0.010559
  25 C :   -0.046329
  26 H :    0.019019
  27 H :    0.022082
  28 C :   -0.001073
  29 H :    0.042239
  30 H :    0.029370
  31 H :    0.009655
  32 H :    0.082694
  33 H :    0.027816
Sum of atomic charges:   -0.0000000

LOEWDIN ATOMIC CHARGES
----------------------
   0 S :    0.365021
   1 C :   -0.178735
   2 C :   -0.057647
   3 C :   -0.066813
   4 C :   -0.186387
   5 H :    0.042030
   6 C :   -0.022221
   7 H :    0.028733
   8 H :    0.022080
   9 C :   -0.027828
  10 H :    0.012197
  11 H :    0.017265
  12 C :   -0.064045
  13 H :    0.032322
  14 H :    0.024614
  15 H :    0.020597
  16 S :    0.407496
  17 C :   -0.173269
  18 C :   -0.074355
  19 C :   -0.056751
  20 C :   -0.212888
  21 H :    0.042239
  22 C :   -0.040756
  23 H :    0.023692
  24 H :    0.033241
  25 C :   -0.033481
  26 H :    0.019445
  27 H :    0.025418
  28 C :   -0.060363
  29 H :    0.029365
  30 H :    0.029079
  31 H :    0.019875
  32 H :    0.042980
  33 H :    0.017850

  Mayer bond orders larger than 0.100000
B(  0-S ,  1-C ) :   1.1081 B(  0-S ,  4-C ) :   1.1353 B(  1-C ,  2-C ) :   1.6443
B(  1-C , 32-H ) :   0.9606 B(  2-C ,  3-C ) :   1.1806 B(  2-C ,  6-C ) :   1.0254
B(  3-C ,  4-C ) :   1.6482 B(  3-C ,  5-H ) :   0.9796 B(  4-C , 20-C ) :   1.0032
B(  6-C ,  7-H ) :   0.9364 B(  6-C ,  8-H ) :   0.9533 B(  6-C ,  9-C ) :   1.0427
B(  9-C , 10-H ) :   0.9544 B(  9-C , 11-H ) :   0.9641 B(  9-C , 12-C ) :   1.0821
B( 12-C , 13-H ) :   0.9754 B( 12-C , 14-H ) :   0.9779 B( 12-C , 15-H ) :   0.9753
B( 16-S , 17-C ) :   1.1589 B( 16-S , 20-C ) :   1.1520 B( 17-C , 18-C ) :   1.5866
B( 17-C , 20-C ) :   0.1119 B( 17-C , 33-H ) :   0.9701 B( 18-C , 19-C ) :   1.2977
B( 18-C , 21-H ) :   0.9760 B( 19-C , 20-C ) :   1.5271 B( 19-C , 22-C ) :   1.0518
B( 22-C , 23-H ) :   0.9341 B( 22-C , 24-H ) :   0.9281 B( 22-C , 25-C ) :   1.0619
B( 25-C , 26-H ) :   0.9555 B( 25-C , 27-H ) :   0.9518 B( 25-C , 28-C ) :   1.0845
B( 28-C , 29-H ) :   0.9716 B( 28-C , 30-H ) :   0.9697 B( 28-C , 31-H ) :   0.9690

Dispersion correction           -0.014875093
FINAL SINGLE POINT ENERGY     -1339.859971894484

DIPOLE MOMENT
-------------
                                X             Y             Z
Electronic contribution:     18.62701      20.33347      -8.05432
Nuclear contribution   :    -19.09623     -20.86175       7.91252
                        -----------------------------------------
Total Dipole Moment    :     -0.46922      -0.52828      -0.14180
                        -----------------------------------------
Magnitude (a.u.)       :      0.72066
Magnitude (Debye)      :      1.83177

Rotational constants in cm-1:     0.020096     0.008290     0.007069
Rotational constants in MHz :   602.477303   248.541813   211.936415

                             ****ORCA TERMINATED NORMALLY****
TOTAL RUN TIME: 0 days 0 hours 0 minutes 30 seconds 968 msec
