                         Program Version 4.2.1 -  RELEASE  -
|  1> ! wB97X-D3 SP def2-SVP
|  2> %pal
|  3> nprocs 16
|  4> end
|  5>
|  6> * xyz 0 1
|  7> S 	 -3.39486 	 28.0968 	 47.0895
|  8> C 	 -2.57484 	 27.5653 	 45.6265
|  9> C 	 -2.65662 	 28.4545 	 44.6232
| 10> C 	 -3.42706 	 29.6046 	 44.9505
| 11> C 	 -3.86152 	 29.5941 	 46.2811
| 12> H 	 -3.54478 	 30.5076 	 44.3563
| 13> C 	 -2.15659 	 28.2764 	 43.2147
| 14> H 	 -2.49363 	 29.0441 	 42.5223
| 15> H 	 -2.70936 	 27.4309 	 42.8448
| 16> C 	 -0.642928 	 28.2157 	 42.9828
| 17> H 	 -0.219885 	 29.1405 	 43.4563
| 18> H 	 -0.153625 	 27.4256 	 43.5295
| 19> C 	 -0.397623 	 28.156 	 41.5008
| 20> H 	 -1.07126 	 27.3919 	 41.0136
| 21> H 	 -0.743299 	 29.0797 	 41.0377
| 22> H 	 0.660765 	 28.0429 	 41.2999
| 23> S 	 -6.15636 	 30.5657 	 47.2711
| 24> C 	 -6.20015 	 32.2734 	 47.8252
| 25> C 	 -4.94508 	 32.8613 	 47.7
| 26> C 	 -3.93447 	 31.9589 	 47.241
| 27> C 	 -4.46016 	 30.7282 	 46.9316
| 28> H 	 -4.78659 	 33.9092 	 47.934
| 29> C 	 -2.45581 	 32.2858 	 47.3017
| 30> H 	 -1.89746 	 31.6331 	 46.5975
| 31> H 	 -2.05136 	 31.9804 	 48.282
| 32> C 	 -2.01721 	 33.7568 	 46.9405
| 33> H 	 -2.23862 	 34.4971 	 47.6691
| 34> H 	 -2.59267 	 34.1556 	 46.0908
| 35> C 	 -0.455246 	 33.9411 	 46.7926
| 36> H 	 -0.141139 	 34.8228 	 47.3884
| 37> H 	 -0.130814 	 34.1756 	 45.7824
| 38> H 	 0.207124 	 33.1814 	 47.1869
| 39> H 	 -2.2448 	 26.5293 	 45.604
| 40> H 	 -7.07781 	 32.8059 	 48.0604
| 41> *
| 42>
| 43>                          ****END OF INPUT****

CARTESIAN COORDINATES (ANGSTROEM)
---------------------------------
  S     -3.394860   28.096800   47.089500
  C     -2.574840   27.565300   45.626500
  C     -2.656620   28.454500   44.623200
  C     -3.427060   29.604600   44.950500
  C     -3.861520   29.594100   46.281100
  H     -3.544780   30.507600   44.356300
  C     -2.156590   28.276400   43.214700
  H     -2.493630   29.044100   42.522300
  H     -2.709360   27.430900   42.844800
  C     -0.642928   28.215700   42.982800
  H     -0.219885   29.140500   43.456300
  H     -0.153625   27.425600   43.529500
  C     -0.397623   28.156000   41.500800
  H     -1.071260   27.391900   41.013600
  H     -0.743299   29.079700   41.037700
  H      0.660765   28.042900   41.299900
  S     -6.156360   30.565700   47.271100
  C     -6.200150   32.273400   47.825200
  C     -4.945080   32.861300   47.700000
  C     -3.934470   31.958900   47.241000
  C     -4.460160   30.728200   46.931600
  H     -4.786590   33.909200   47.934000
  C     -2.455810   32.285800   47.301700
  H     -1.897460   31.633100   46.597500
  H     -2.051360   31.980400   48.282000
  C     -2.017210   33.756800   46.940500
  H     -2.238620   34.497100   47.669100
  H     -2.592670   34.155600   46.090800
  C     -0.455246   33.941100   46.792600
  H     -0.141139   34.822800   47.388400
  H     -0.130814   34.175600   45.782400
  H      0.207124   33.181400   47.186900
  H     -2.244800   26.529300   45.604000
  H     -7.077810   32.805900   48.060400

 Total Charge           Charge          ....    0
 Multiplicity           Mult            ....    1
 Number of Electrons    NEL             ....  134
 Basis Dimension        Dim             ....  322

ORBITAL ENERGIES
----------------

  NO   OCC          E(Eh)            E(eV)
   0   2.0000     -88.964293     -2420.8415
   1   2.0000     -88.964167     -2420.8380
   2   2.0000     -10.325465      -280.9702
   3   2.0000     -10.319578      -280.8100
   4   2.0000     -10.317698      -280.7588
   5   2.0000     -10.310419      -280.5608
   6   2.0000     -10.301883      -280.3285
   7   2.0000     -10.297590      -280.2117
   8   2.0000     -10.295810      -280.1632
   9   2.0000     -10.295409      -280.1523
  10   2.0000     -10.292682      -280.0781
  11   2.0000     -10.291836      -280.0551
  12   2.0000     -10.286430      -279.9080
  13   2.0000     -10.286003      -279.8964
  14   2.0000     -10.281088      -279.7626
  15   2.0000     -10.280854      -279.7563
  16   2.0000      -8.078760      -219.8342
  17   2.0000      -8.078715      -219.8330
  18   2.0000      -6.037252      -164.2820
  19   2.0000      -6.037181      -164.2800
  20   2.0000      -6.033335      -164.1754
  21   2.0000      -6.033288      -164.1741
  22   2.0000      -6.029590      -164.0735
  23   2.0000      -6.029448      -164.0696
  24   2.0000      -1.005102       -27.3502
  25   2.0000      -0.981501       -26.7080
  26   2.0000      -0.915367       -24.9084
  27   2.0000      -0.897595       -24.4248
  28   2.0000      -0.871696       -23.7201
  29   2.0000      -0.850621       -23.1466
  30   2.0000      -0.846481       -23.0339
  31   2.0000      -0.811234       -22.0748
  32   2.0000      -0.778859       -21.1938
  33   2.0000      -0.769106       -20.9284
  34   2.0000      -0.709474       -19.3058
  35   2.0000      -0.705138       -19.1878
  36   2.0000      -0.698493       -19.0070
  37   2.0000      -0.659810       -17.9543
  38   2.0000      -0.645879       -17.5753
  39   2.0000      -0.613803       -16.7024
  40   2.0000      -0.596717       -16.2375
  41   2.0000      -0.573648       -15.6098
  42   2.0000      -0.556423       -15.1410
  43   2.0000      -0.554368       -15.0851
  44   2.0000      -0.530153       -14.4262
  45   2.0000      -0.523786       -14.2529
  46   2.0000      -0.520531       -14.1644
  47   2.0000      -0.505541       -13.7565
  48   2.0000      -0.500176       -13.6105
  49   2.0000      -0.496610       -13.5135
  50   2.0000      -0.490304       -13.3419
  51   2.0000      -0.478410       -13.0182
  52   2.0000      -0.472417       -12.8551
  53   2.0000      -0.464009       -12.6263
  54   2.0000      -0.454689       -12.3727
  55   2.0000      -0.453763       -12.3475
  56   2.0000      -0.444139       -12.0856
  57   2.0000      -0.438732       -11.9385
  58   2.0000      -0.432558       -11.7705
  59   2.0000      -0.424901       -11.5622
  60   2.0000      -0.422177       -11.4880
  61   2.0000      -0.412862       -11.2346
  62   2.0000      -0.412140       -11.2149
  63   2.0000      -0.336219        -9.1490
  64   2.0000      -0.331518        -9.0211
  65   2.0000      -0.323371        -8.7994
  66   2.0000      -0.303212        -8.2508
  67   0.0000       0.039314         1.0698
  68   0.0000       0.057951         1.5769
  69   0.0000       0.114620         3.1190
  70   0.0000       0.120237         3.2718
  71   0.0000       0.128697         3.5020

MULLIKEN ATOMIC CHARGES
-----------------------
   0 S :    0.106034
   1 C :   -0.144697
   2 C :   -0.038253
   3 C :    0.042148
   4 C :   -0.180110
   5 H :    0.020630
   6 C :    0.041451
   7 H :    0.004251
   8 H :    0.029043
   9 C :   -0.065750
  10 H :    0.031440
  11 H :    0.025676
  12 C :   -0.035236
  13 H :    0.034002
  14 H :    0.023138
  15 H :    0.040031
  16 S :    0.106091
  17 C :   -0.076374
  18 C :   -0.042983
  19 C :   -0.006255
  20 C :   -0.182088
  21 H :    0.023988
  22 C :    0.068959
  23 H :    0.034653
  24 H :    0.048348
  25 C :   -0.089192
  26 H :    0.022846
  27 H :    0.032689
  28 C :   -0.063341
  29 H :    0.024375
  30 H :    0.034944
  31 H :    0.034094
  32 H :    0.052661
  33 H :    0.042787
Sum of atomic charges:   -0.0000000

LOEWDIN ATOMIC CHARGES
----------------------
   0 S :    0.392922
   1 C :   -0.189738
   2 C :   -0.068231
   3 C :   -0.054302
   4 C :   -0.197513
   5 H :    0.034849
   6 C :   -0.034223
   7 H :    0.027909
   8 H :    0.030465
   9 C :   -0.041531
  10 H :    0.029955
  11 H :    0.018236
  12 C :   -0.066113
  13 H :    0.032429
  14 H :    0.023884
  15 H :    0.026579
  16 S :    0.397871
  17 C :   -0.165870
  18 C :   -0.065513
  19 C :   -0.059070
  20 C :   -0.204476
  21 H :    0.032448
  22 C :   -0.031175
  23 H :    0.035334
  24 H :    0.038758
  25 C :   -0.045305
  26 H :    0.017591
  27 H :    0.027977
  28 C :   -0.071677
  29 H :    0.029451
  30 H :    0.025146
  31 H :    0.025852
  32 H :    0.027628
  33 H :    0.019452

  Mayer bond orders larger than 0.100000
B(  0-S ,  1-C ) :   1.1301 B(  0-S ,  4-C ) :   1.1530 B(  1-C ,  2-C ) :   1.6211
B(  1-C , 32-H ) :   0.9710 B(  2-C ,  3-C ) :   1.2386 B(  2-C ,  6-C ) :   1.0070
B(  3-C ,  4-C ) :   1.5782 B(  3-C ,  5-H ) :   0.9941 B(  4-C , 20-C ) :   1.0085
B(  6-C ,  7-H ) :   0.9472 B(  6-C ,  8-H ) :   0.9351 B(  6-C ,  9-C ) :   1.0545
B(  9-C , 10-H ) :   0.9522 B(  9-C , 11-H ) :   0.9573 B(  9-C , 12-C ) :   1.0837
B( 12-C , 13-H ) :   0.9712 B( 12-C , 14-H ) :   0.9708 B( 12-C , 15-H ) :   0.9721
B( 16-S , 17-C ) :   1.1395 B( 16-S , 20-C ) :   1.1512 B( 17-C , 18-C ) :   1.6216
B( 17-C , 33-H ) :   0.9734 B( 18-C , 19-C ) :   1.2228 B( 18-C , 21-H ) :   0.9866
B( 19-C , 20-C ) :   1.6188 B( 19-C , 22-C ) :   1.0455 B( 22-C , 23-H ) :   0.9354
B( 22-C , 24-H ) :   0.9335 B( 22-C , 25-C ) :   1.0479 B( 25-C , 26-H ) :   0.9615
B( 25-C , 27-H ) :   0.9657 B( 25-C , 28-C ) :   1.0584 B( 28-C , 29-H ) :   0.9826
B( 28-C , 30-H ) :   0.9794 B( 28-C , 31-H ) :   0.9784

Dispersion correction           -0.013669200
FINAL SINGLE POINT ENERGY     -1339.878809713391

DIPOLE MOMENT
-------------
                                X             Y             Z
Electronic contribution:    -23.91853     -10.04881      16.57892
Nuclear contribution   :     24.36899      10.44006     -16.95169
                        -----------------------------------------
Total Dipole Moment    :      0.45046       0.39124      -0.37277
                        -----------------------------------------
Magnitude (a.u.)       :      0.70352
Magnitude (Debye)      :      1.78821

Rotational constants in cm-1:     0.016635     0.008422     0.006394
Rotational constants in MHz :   498.706151   252.487709   191.686270

                             ****ORCA TERMINATED NORMALLY****
TOTAL RUN TIME: 0 days 0 hours 0 minutes 33 seconds 588 msec
