                         Program Version 4.2.1 -  RELEASE  -
|  1> ! wB97X-D3 SP def2-SVP
|  2> %pal
|  3> nprocs 16
|  4> end
|  5>
|  6> * xyz 0 1
|  7> S 	 -49.6076 	 62.6154 	 129.572
|  8> C 	 -48.3267 	 62.1101 	 128.522
|  9> C 	 -48.8851 	 61.4781 	 127.421
| 10> C 	 -50.2888 	 61.2263 	 127.527
| 11> C 	 -50.8318 	 61.6294 	 128.71
| 12> H 	 -50.8683 	 60.754 	 126.738
| 13> C 	 -48.0732 	 61.2162 	 126.153
| 14> H 	 -47.2027 	 61.9126 	 126.148
| 15> H 	 -48.6868 	 61.5557 	 125.293
| 16> C 	 -47.6261 	 59.7437 	 126.076
| 17> H 	 -47.0786 	 59.4692 	 127.024
| 18> H 	 -48.584 	 59.1589 	 125.926
| 19> C 	 -46.6421 	 59.251 	 124.975
| 20> H 	 -45.5777 	 59.5905 	 125.199
| 21> H 	 -46.6148 	 58.1744 	 124.99
| 22> H 	 -46.9051 	 59.5487 	 123.965
| 23> S 	 -52.9974 	 63.0026 	 129.742
| 24> C 	 -54.5774 	 62.2138 	 129.809
| 25> C 	 -54.5054 	 60.8765 	 129.435
| 26> C 	 -53.1937 	 60.5374 	 128.964
| 27> C 	 -52.2525 	 61.5782 	 129.104
| 28> H 	 -55.3748 	 60.1655 	 129.507
| 29> C 	 -52.8788 	 59.1946 	 128.398
| 30> H 	 -52.0804 	 59.2774 	 127.637
| 31> H 	 -53.7824 	 58.8015 	 127.837
| 32> C 	 -52.4194 	 58.1579 	 129.493
| 33> H 	 -53.3514 	 57.9879 	 129.988
| 34> H 	 -51.7285 	 58.7069 	 130.16
| 35> C 	 -51.8458 	 56.8946 	 128.759
| 36> H 	 -51.4002 	 56.0757 	 129.338
| 37> H 	 -50.9714 	 57.0867 	 128.102
| 38> H 	 -52.6912 	 56.4244 	 128.242
| 39> H 	 -47.2395 	 62.3177 	 128.559
| 40> H 	 -55.541 	 62.5801 	 130.25
| 41> *
| 42>
| 43>                          ****END OF INPUT****

CARTESIAN COORDINATES (ANGSTROEM)
---------------------------------
  S    -49.607600   62.615400  129.572000
  C    -48.326700   62.110100  128.522000
  C    -48.885100   61.478100  127.421000
  C    -50.288800   61.226300  127.527000
  C    -50.831800   61.629400  128.710000
  H    -50.868300   60.754000  126.738000
  C    -48.073200   61.216200  126.153000
  H    -47.202700   61.912600  126.148000
  H    -48.686800   61.555700  125.293000
  C    -47.626100   59.743700  126.076000
  H    -47.078600   59.469200  127.024000
  H    -48.584000   59.158900  125.926000
  C    -46.642100   59.251000  124.975000
  H    -45.577700   59.590500  125.199000
  H    -46.614800   58.174400  124.990000
  H    -46.905100   59.548700  123.965000
  S    -52.997400   63.002600  129.742000
  C    -54.577400   62.213800  129.809000
  C    -54.505400   60.876500  129.435000
  C    -53.193700   60.537400  128.964000
  C    -52.252500   61.578200  129.104000
  H    -55.374800   60.165500  129.507000
  C    -52.878800   59.194600  128.398000
  H    -52.080400   59.277400  127.637000
  H    -53.782400   58.801500  127.837000
  C    -52.419400   58.157900  129.493000
  H    -53.351400   57.987900  129.988000
  H    -51.728500   58.706900  130.160000
  C    -51.845800   56.894600  128.759000
  H    -51.400200   56.075700  129.338000
  H    -50.971400   57.086700  128.102000
  H    -52.691200   56.424400  128.242000
  H    -47.239500   62.317700  128.559000
  H    -55.541000   62.580100  130.250000

 Total Charge           Charge          ....    0
 Multiplicity           Mult            ....    1
 Number of Electrons    NEL             ....  134
 Basis Dimension        Dim             ....  322

ORBITAL ENERGIES
----------------

  NO   OCC          E(Eh)            E(eV)
   0   2.0000     -88.970615     -2421.0135
   1   2.0000     -88.967229     -2420.9214
   2   2.0000     -10.335729      -281.2495
   3   2.0000     -10.330790      -281.1151
   4   2.0000     -10.323516      -280.9172
   5   2.0000     -10.317240      -280.7464
   6   2.0000     -10.303956      -280.3849
   7   2.0000     -10.301532      -280.3189
   8   2.0000     -10.300523      -280.2915
   9   2.0000     -10.298381      -280.2332
  10   2.0000     -10.297836      -280.2184
  11   2.0000     -10.295417      -280.1525
  12   2.0000     -10.293155      -280.0910
  13   2.0000     -10.290628      -280.0222
  14   2.0000     -10.284011      -279.8422
  15   2.0000     -10.283843      -279.8376
  16   2.0000      -8.085096      -220.0066
  17   2.0000      -8.081519      -219.9093
  18   2.0000      -6.043776      -164.4595
  19   2.0000      -6.040281      -164.3644
  20   2.0000      -6.039557      -164.3447
  21   2.0000      -6.036138      -164.2517
  22   2.0000      -6.035766      -164.2415
  23   2.0000      -6.031976      -164.1384
  24   2.0000      -1.006862       -27.3981
  25   2.0000      -0.984981       -26.8027
  26   2.0000      -0.904982       -24.6258
  27   2.0000      -0.903536       -24.5865
  28   2.0000      -0.868992       -23.6465
  29   2.0000      -0.848986       -23.1021
  30   2.0000      -0.842536       -22.9266
  31   2.0000      -0.817519       -22.2458
  32   2.0000      -0.777928       -21.1685
  33   2.0000      -0.765079       -20.8189
  34   2.0000      -0.707772       -19.2595
  35   2.0000      -0.693755       -18.8780
  36   2.0000      -0.689665       -18.7667
  37   2.0000      -0.659872       -17.9560
  38   2.0000      -0.636962       -17.3326
  39   2.0000      -0.623325       -16.9615
  40   2.0000      -0.589777       -16.0486
  41   2.0000      -0.567550       -15.4438
  42   2.0000      -0.563865       -15.3435
  43   2.0000      -0.554853       -15.0983
  44   2.0000      -0.524525       -14.2731
  45   2.0000      -0.519033       -14.1236
  46   2.0000      -0.512769       -13.9532
  47   2.0000      -0.504309       -13.7229
  48   2.0000      -0.503477       -13.7003
  49   2.0000      -0.499889       -13.6027
  50   2.0000      -0.491062       -13.3625
  51   2.0000      -0.483958       -13.1692
  52   2.0000      -0.473249       -12.8778
  53   2.0000      -0.465934       -12.6787
  54   2.0000      -0.459405       -12.5011
  55   2.0000      -0.448849       -12.2138
  56   2.0000      -0.441645       -12.0178
  57   2.0000      -0.433248       -11.7893
  58   2.0000      -0.430022       -11.7015
  59   2.0000      -0.424315       -11.5462
  60   2.0000      -0.416971       -11.3463
  61   2.0000      -0.416758       -11.3406
  62   2.0000      -0.412801       -11.2329
  63   2.0000      -0.357534        -9.7290
  64   2.0000      -0.334179        -9.0935
  65   2.0000      -0.324812        -8.8386
  66   2.0000      -0.286604        -7.7989
  67   0.0000       0.023594         0.6420
  68   0.0000       0.070001         1.9048
  69   0.0000       0.103213         2.8086
  70   0.0000       0.117901         3.2082
  71   0.0000       0.128370         3.4931

MULLIKEN ATOMIC CHARGES
-----------------------
   0 S :    0.099143
   1 C :   -0.110334
   2 C :   -0.116032
   3 C :    0.024506
   4 C :   -0.125376
   5 H :    0.028378
   6 C :    0.056133
   7 H :    0.019664
   8 H :    0.036892
   9 C :   -0.117717
  10 H :    0.042855
  11 H :    0.038031
  12 C :   -0.041923
  13 H :    0.036983
  14 H :    0.033715
  15 H :    0.028098
  16 S :    0.115625
  17 C :   -0.108251
  18 C :   -0.048888
  19 C :   -0.055801
  20 C :   -0.136453
  21 H :    0.043252
  22 C :    0.008219
  23 H :    0.007942
  24 H :    0.032285
  25 C :   -0.041778
  26 H :    0.023074
  27 H :    0.048377
  28 C :   -0.060357
  29 H :    0.031441
  30 H :    0.040289
  31 H :    0.033098
  32 H :    0.062243
  33 H :    0.072668
Sum of atomic charges:    0.0000000

LOEWDIN ATOMIC CHARGES
----------------------
   0 S :    0.391483
   1 C :   -0.206898
   2 C :   -0.065706
   3 C :   -0.063363
   4 C :   -0.176196
   5 H :    0.033351
   6 C :   -0.037915
   7 H :    0.027868
   8 H :    0.034314
   9 C :   -0.050991
  10 H :    0.033110
  11 H :    0.028669
  12 C :   -0.071567
  13 H :    0.029799
  14 H :    0.025638
  15 H :    0.019839
  16 S :    0.414931
  17 C :   -0.196411
  18 C :   -0.075078
  19 C :   -0.061705
  20 C :   -0.205212
  21 H :    0.042971
  22 C :   -0.039550
  23 H :    0.023395
  24 H :    0.032843
  25 C :   -0.029544
  26 H :    0.020318
  27 H :    0.029569
  28 C :   -0.077003
  29 H :    0.026188
  30 H :    0.030651
  31 H :    0.028272
  32 H :    0.041412
  33 H :    0.042519

  Mayer bond orders larger than 0.100000
B(  0-S ,  1-C ) :   1.1341 B(  0-S ,  4-C ) :   1.1356 B(  1-C ,  2-C ) :   1.6146
B(  1-C , 32-H ) :   0.9627 B(  2-C ,  3-C ) :   1.2509 B(  2-C ,  6-C ) :   1.0224
B(  3-C ,  4-C ) :   1.5684 B(  3-C ,  5-H ) :   0.9849 B(  4-C , 20-C ) :   1.0496
B(  6-C ,  7-H ) :   0.9451 B(  6-C ,  8-H ) :   0.9425 B(  6-C ,  9-C ) :   1.0510
B(  9-C , 10-H ) :   0.9588 B(  9-C , 11-H ) :   0.9582 B(  9-C , 12-C ) :   1.0802
B( 12-C , 13-H ) :   0.9760 B( 12-C , 14-H ) :   0.9742 B( 12-C , 15-H ) :   0.9746
B( 16-S , 17-C ) :   1.1526 B( 16-S , 20-C ) :   1.1418 B( 17-C , 18-C ) :   1.6076
B( 17-C , 33-H ) :   0.9583 B( 18-C , 19-C ) :   1.2629 B( 18-C , 21-H ) :   0.9774
B( 19-C , 20-C ) :   1.5730 B( 19-C , 22-C ) :   1.0566 B( 22-C , 23-H ) :   0.9377
B( 22-C , 24-H ) :   0.9362 B( 22-C , 25-C ) :   1.0328 B( 25-C , 26-H ) :   0.9606
B( 25-C , 27-H ) :   0.9637 B( 25-C , 28-C ) :   1.0642 B( 28-C , 29-H ) :   0.9762
B( 28-C , 30-H ) :   0.9761 B( 28-C , 31-H ) :   0.9735

Dispersion correction           -0.013963520
FINAL SINGLE POINT ENERGY     -1339.877090615957

DIPOLE MOMENT
-------------
                                X             Y             Z
Electronic contribution:    -10.69830      25.74735      15.78917
Nuclear contribution   :     10.71137     -26.26042     -16.24105
                        -----------------------------------------
Total Dipole Moment    :      0.01307      -0.51307      -0.45188
                        -----------------------------------------
Magnitude (a.u.)       :      0.68382
Magnitude (Debye)      :      1.73812

Rotational constants in cm-1:     0.018289     0.008683     0.006495
Rotational constants in MHz :   548.302733   260.319218   194.700942

                             ****ORCA TERMINATED NORMALLY****
TOTAL RUN TIME: 0 days 0 hours 0 minutes 34 seconds 568 msec
