                         Program Version 4.2.1 -  RELEASE  -
|  1> ! wB97X-D3 SP def2-SVP
|  2> %pal
|  3> nprocs 16
|  4> end
|  5>
|  6> * xyz 0 1
|  7> S 	 -38.6297 	 30.3408 	 76.2479
|  8> C 	 -39.134 	 31.8139 	 75.5366
|  9> C 	 -38.4745 	 32.873 	 76.1695
| 10> C 	 -37.715 	 32.4821 	 77.2832
| 11> C 	 -37.7625 	 31.1106 	 77.5607
| 12> H 	 -37.1095 	 33.0438 	 77.9451
| 13> C 	 -38.553 	 34.3177 	 75.7904
| 14> H 	 -38.6895 	 34.411 	 74.6584
| 15> H 	 -37.4942 	 34.7709 	 76.0148
| 16> C 	 -39.6183 	 35.1023 	 76.5261
| 17> H 	 -40.571 	 34.4943 	 76.4784
| 18> H 	 -39.4745 	 35.0561 	 77.6303
| 19> C 	 -39.7947 	 36.4666 	 75.9222
| 20> H 	 -38.974 	 37.1534 	 76.2695
| 21> H 	 -39.8184 	 36.4178 	 74.81
| 22> H 	 -40.6639 	 36.92 	 76.3419
| 23> S 	 -36.7076 	 28.7586 	 78.4249
| 24> C 	 -35.9391 	 28.7435 	 80.0055
| 25> C 	 -35.98 	 29.9535 	 80.6271
| 26> C 	 -36.741 	 30.9115 	 79.909
| 27> C 	 -37.046 	 30.4324 	 78.6067
| 28> H 	 -35.5531 	 30.206 	 81.575
| 29> C 	 -36.8362 	 32.3105 	 80.5156
| 30> H 	 -36.2426 	 32.8651 	 79.7999
| 31> H 	 -36.3145 	 32.453 	 81.4404
| 32> C 	 -38.2799 	 32.7751 	 80.6573
| 33> H 	 -38.7631 	 32.5818 	 79.7152
| 34> H 	 -38.2684 	 33.842 	 80.8125
| 35> C 	 -38.9995 	 32.0971 	 81.7995
| 36> H 	 -39.0301 	 31.0367 	 81.7458
| 37> H 	 -39.9656 	 32.5044 	 82.0678
| 38> H 	 -38.5056 	 32.4278 	 82.7519
| 39> H 	 -39.6282 	 32.0029 	 74.6344
| 40> H 	 -35.4054 	 27.8881 	 80.3862
| 41> *
| 42>
| 43>                          ****END OF INPUT****

CARTESIAN COORDINATES (ANGSTROEM)
---------------------------------
  S    -38.629700   30.340800   76.247900
  C    -39.134000   31.813900   75.536600
  C    -38.474500   32.873000   76.169500
  C    -37.715000   32.482100   77.283200
  C    -37.762500   31.110600   77.560700
  H    -37.109500   33.043800   77.945100
  C    -38.553000   34.317700   75.790400
  H    -38.689500   34.411000   74.658400
  H    -37.494200   34.770900   76.014800
  C    -39.618300   35.102300   76.526100
  H    -40.571000   34.494300   76.478400
  H    -39.474500   35.056100   77.630300
  C    -39.794700   36.466600   75.922200
  H    -38.974000   37.153400   76.269500
  H    -39.818400   36.417800   74.810000
  H    -40.663900   36.920000   76.341900
  S    -36.707600   28.758600   78.424900
  C    -35.939100   28.743500   80.005500
  C    -35.980000   29.953500   80.627100
  C    -36.741000   30.911500   79.909000
  C    -37.046000   30.432400   78.606700
  H    -35.553100   30.206000   81.575000
  C    -36.836200   32.310500   80.515600
  H    -36.242600   32.865100   79.799900
  H    -36.314500   32.453000   81.440400
  C    -38.279900   32.775100   80.657300
  H    -38.763100   32.581800   79.715200
  H    -38.268400   33.842000   80.812500
  C    -38.999500   32.097100   81.799500
  H    -39.030100   31.036700   81.745800
  H    -39.965600   32.504400   82.067800
  H    -38.505600   32.427800   82.751900
  H    -39.628200   32.002900   74.634400
  H    -35.405400   27.888100   80.386200

 Total Charge           Charge          ....    0
 Multiplicity           Mult            ....    1
 Number of Electrons    NEL             ....  134
 Basis Dimension        Dim             ....  322

ORBITAL ENERGIES
----------------

  NO   OCC          E(Eh)            E(eV)
   0   2.0000     -88.969829     -2420.9921
   1   2.0000     -88.967703     -2420.9343
   2   2.0000     -10.329026      -281.0671
   3   2.0000     -10.327989      -281.0389
   4   2.0000     -10.315760      -280.7061
   5   2.0000     -10.308589      -280.5110
   6   2.0000     -10.304427      -280.3977
   7   2.0000     -10.299891      -280.2743
   8   2.0000     -10.296912      -280.1932
   9   2.0000     -10.291739      -280.0525
  10   2.0000     -10.289889      -280.0021
  11   2.0000     -10.288615      -279.9674
  12   2.0000     -10.286995      -279.9234
  13   2.0000     -10.281361      -279.7700
  14   2.0000     -10.279777      -279.7270
  15   2.0000     -10.273270      -279.5499
  16   2.0000      -8.085104      -220.0069
  17   2.0000      -8.082565      -219.9378
  18   2.0000      -6.043586      -164.4543
  19   2.0000      -6.041091      -164.3865
  20   2.0000      -6.039638      -164.3469
  21   2.0000      -6.036920      -164.2730
  22   2.0000      -6.035771      -164.2417
  23   2.0000      -6.033457      -164.1787
  24   2.0000      -1.012638       -27.5553
  25   2.0000      -0.989336       -26.9212
  26   2.0000      -0.916820       -24.9479
  27   2.0000      -0.913982       -24.8707
  28   2.0000      -0.875633       -23.8272
  29   2.0000      -0.855616       -23.2825
  30   2.0000      -0.849320       -23.1112
  31   2.0000      -0.814819       -22.1724
  32   2.0000      -0.784318       -21.3424
  33   2.0000      -0.768897       -20.9228
  34   2.0000      -0.713915       -19.4266
  35   2.0000      -0.695987       -18.9388
  36   2.0000      -0.692343       -18.8396
  37   2.0000      -0.669220       -18.2104
  38   2.0000      -0.642588       -17.4857
  39   2.0000      -0.619378       -16.8541
  40   2.0000      -0.601717       -16.3735
  41   2.0000      -0.570047       -15.5118
  42   2.0000      -0.560876       -15.2622
  43   2.0000      -0.558136       -15.1876
  44   2.0000      -0.550440       -14.9782
  45   2.0000      -0.525826       -14.3084
  46   2.0000      -0.517928       -14.0935
  47   2.0000      -0.505873       -13.7655
  48   2.0000      -0.503048       -13.6886
  49   2.0000      -0.499862       -13.6019
  50   2.0000      -0.494792       -13.4640
  51   2.0000      -0.483990       -13.1700
  52   2.0000      -0.474856       -12.9215
  53   2.0000      -0.467777       -12.7289
  54   2.0000      -0.462056       -12.5732
  55   2.0000      -0.454741       -12.3741
  56   2.0000      -0.446536       -12.1509
  57   2.0000      -0.445418       -12.1204
  58   2.0000      -0.431314       -11.7366
  59   2.0000      -0.421380       -11.4663
  60   2.0000      -0.418434       -11.3862
  61   2.0000      -0.410810       -11.1787
  62   2.0000      -0.401352       -10.9214
  63   2.0000      -0.361442        -9.8353
  64   2.0000      -0.337783        -9.1915
  65   2.0000      -0.327154        -8.9023
  66   2.0000      -0.277666        -7.5557
  67   0.0000       0.017246         0.4693
  68   0.0000       0.085026         2.3137
  69   0.0000       0.097952         2.6654
  70   0.0000       0.124263         3.3814
  71   0.0000       0.128805         3.5050

MULLIKEN ATOMIC CHARGES
-----------------------
   0 S :    0.109135
   1 C :   -0.067527
   2 C :   -0.083636
   3 C :    0.016319
   4 C :   -0.126934
   5 H :   -0.021393
   6 C :   -0.008384
   7 H :    0.030667
   8 H :    0.042186
   9 C :   -0.087168
  10 H :    0.026432
  11 H :    0.030481
  12 C :   -0.017705
  13 H :    0.034337
  14 H :    0.040874
  15 H :    0.027758
  16 S :    0.112590
  17 C :   -0.080616
  18 C :   -0.001051
  19 C :   -0.088233
  20 C :   -0.131705
  21 H :    0.009323
  22 C :    0.044781
  23 H :    0.040904
  24 H :    0.009728
  25 C :   -0.047013
  26 H :    0.045268
  27 H :    0.018636
  28 C :   -0.032938
  29 H :    0.043170
  30 H :    0.024842
  31 H :    0.009122
  32 H :    0.024558
  33 H :    0.053189
Sum of atomic charges:    0.0000000

LOEWDIN ATOMIC CHARGES
----------------------
   0 S :    0.421362
   1 C :   -0.209056
   2 C :   -0.065987
   3 C :   -0.065359
   4 C :   -0.192007
   5 H :    0.021739
   6 C :   -0.044033
   7 H :    0.031699
   8 H :    0.039088
   9 C :   -0.055429
  10 H :    0.027820
  11 H :    0.028350
  12 C :   -0.066224
  13 H :    0.031863
  14 H :    0.030697
  15 H :    0.023137
  16 S :    0.419365
  17 C :   -0.179672
  18 C :   -0.064912
  19 C :   -0.050688
  20 C :   -0.209012
  21 H :    0.029786
  22 C :   -0.026986
  23 H :    0.031048
  24 H :    0.025371
  25 C :   -0.039328
  26 H :    0.023734
  27 H :    0.022277
  28 C :   -0.064470
  29 H :    0.023042
  30 H :    0.026768
  31 H :    0.027418
  32 H :    0.021963
  33 H :    0.026635

  Mayer bond orders larger than 0.100000
B(  0-S ,  1-C ) :   1.1475 B(  0-S ,  4-C ) :   1.1564 B(  1-C ,  2-C ) :   1.5623
B(  1-C ,  4-C ) :   0.1014 B(  1-C , 32-H ) :   0.9730 B(  2-C ,  3-C ) :   1.2829
B(  2-C ,  6-C ) :   1.0301 B(  3-C ,  4-C ) :   1.5064 B(  3-C ,  5-H ) :   1.0020
B(  4-C , 20-C ) :   1.1074 B(  6-C ,  7-H ) :   0.9401 B(  6-C ,  8-H ) :   0.9398
B(  6-C ,  9-C ) :   1.0629 B(  9-C , 10-H ) :   0.9515 B(  9-C , 11-H ) :   0.9481
B(  9-C , 12-C ) :   1.0796 B( 12-C , 13-H ) :   0.9711 B( 12-C , 14-H ) :   0.9727
B( 12-C , 15-H ) :   0.9713 B( 16-S , 17-C ) :   1.1486 B( 16-S , 20-C ) :   1.1459
B( 17-C , 18-C ) :   1.5899 B( 17-C , 33-H ) :   0.9688 B( 18-C , 19-C ) :   1.2679
B( 18-C , 21-H ) :   0.9928 B( 19-C , 20-C ) :   1.5403 B( 19-C , 22-C ) :   1.0200
B( 22-C , 23-H ) :   0.9377 B( 22-C , 24-H ) :   0.9399 B( 22-C , 25-C ) :   1.0623
B( 25-C , 26-H ) :   0.9531 B( 25-C , 27-H ) :   0.9505 B( 25-C , 28-C ) :   1.0815
B( 28-C , 29-H ) :   0.9779 B( 28-C , 30-H ) :   0.9703 B( 28-C , 31-H ) :   0.9678

Dispersion correction           -0.014832489
FINAL SINGLE POINT ENERGY     -1339.874359226970

DIPOLE MOMENT
-------------
                                X             Y             Z
Electronic contribution:      8.12103     -28.29398      -8.21977
Nuclear contribution   :     -7.98927      28.92018       8.57737
                        -----------------------------------------
Total Dipole Moment    :      0.13175       0.62620       0.35760
                        -----------------------------------------
Magnitude (a.u.)       :      0.73305
Magnitude (Debye)      :      1.86326

Rotational constants in cm-1:     0.020336     0.009082     0.006856
Rotational constants in MHz :   609.647434   272.270384   205.547613

                             ****ORCA TERMINATED NORMALLY****
TOTAL RUN TIME: 0 days 0 hours 0 minutes 31 seconds 701 msec
