                         Program Version 4.2.1 -  RELEASE  -
|  1> ! wB97X-D3 SP def2-SVP
|  2> %pal
|  3> nprocs 16
|  4> end
|  5>
|  6> * xyz 0 1
|  7> S 	 -55.1504 	 39.6019 	 114.778
|  8> C 	 -53.9183 	 40.3532 	 113.807
|  9> C 	 -54.4288 	 40.8235 	 112.615
| 10> C 	 -55.832 	 40.5679 	 112.51
| 11> C 	 -56.4233 	 39.9526 	 113.622
| 12> H 	 -56.4991 	 40.7948 	 111.651
| 13> C 	 -53.5928 	 41.4479 	 111.533
| 14> H 	 -53.652 	 40.8182 	 110.726
| 15> H 	 -52.5576 	 41.4072 	 111.807
| 16> C 	 -54.0111 	 42.8569 	 111.083
| 17> H 	 -53.4161 	 43.0263 	 110.221
| 18> H 	 -55.0108 	 42.8222 	 110.667
| 19> C 	 -53.9664 	 44.036 	 112.139
| 20> H 	 -54.8815 	 44.3233 	 112.699
| 21> H 	 -53.1 	 43.8468 	 112.812
| 22> H 	 -53.7096 	 44.963 	 111.567
| 23> S 	 -58.0182 	 37.7862 	 113.776
| 24> C 	 -59.7753 	 38.0431 	 113.472
| 25> C 	 -60.0991 	 39.3841 	 113.211
| 26> C 	 -58.9615 	 40.2565 	 113.306
| 27> C 	 -57.7909 	 39.5281 	 113.66
| 28> H 	 -61.0693 	 39.656 	 112.936
| 29> C 	 -58.9784 	 41.7979 	 113.024
| 30> H 	 -58.5218 	 41.7978 	 112.047
| 31> H 	 -58.3312 	 42.2214 	 113.814
| 32> C 	 -60.3517 	 42.5386 	 113.06
| 33> H 	 -60.8192 	 42.285 	 114.027
| 34> H 	 -60.9786 	 42.1441 	 112.181
| 35> C 	 -60.1607 	 44.0782 	 112.842
| 36> H 	 -61.1288 	 44.5157 	 112.7
| 37> H 	 -59.7458 	 44.4159 	 111.913
| 38> H 	 -59.7424 	 44.5464 	 113.771
| 39> H 	 -52.8358 	 40.5006 	 114.012
| 40> H 	 -60.4874 	 37.3487 	 113.045
| 41> *
| 42>
| 43>                          ****END OF INPUT****

CARTESIAN COORDINATES (ANGSTROEM)
---------------------------------
  S    -55.150400   39.601900  114.778000
  C    -53.918300   40.353200  113.807000
  C    -54.428800   40.823500  112.615000
  C    -55.832000   40.567900  112.510000
  C    -56.423300   39.952600  113.622000
  H    -56.499100   40.794800  111.651000
  C    -53.592800   41.447900  111.533000
  H    -53.652000   40.818200  110.726000
  H    -52.557600   41.407200  111.807000
  C    -54.011100   42.856900  111.083000
  H    -53.416100   43.026300  110.221000
  H    -55.010800   42.822200  110.667000
  C    -53.966400   44.036000  112.139000
  H    -54.881500   44.323300  112.699000
  H    -53.100000   43.846800  112.812000
  H    -53.709600   44.963000  111.567000
  S    -58.018200   37.786200  113.776000
  C    -59.775300   38.043100  113.472000
  C    -60.099100   39.384100  113.211000
  C    -58.961500   40.256500  113.306000
  C    -57.790900   39.528100  113.660000
  H    -61.069300   39.656000  112.936000
  C    -58.978400   41.797900  113.024000
  H    -58.521800   41.797800  112.047000
  H    -58.331200   42.221400  113.814000
  C    -60.351700   42.538600  113.060000
  H    -60.819200   42.285000  114.027000
  H    -60.978600   42.144100  112.181000
  C    -60.160700   44.078200  112.842000
  H    -61.128800   44.515700  112.700000
  H    -59.745800   44.415900  111.913000
  H    -59.742400   44.546400  113.771000
  H    -52.835800   40.500600  114.012000
  H    -60.487400   37.348700  113.045000

 Total Charge           Charge          ....    0
 Multiplicity           Mult            ....    1
 Number of Electrons    NEL             ....  134
 Basis Dimension        Dim             ....  322

ORBITAL ENERGIES
----------------

  NO   OCC          E(Eh)            E(eV)
   0   2.0000     -88.970418     -2421.0082
   1   2.0000     -88.965903     -2420.8853
   2   2.0000     -10.327874      -281.0357
   3   2.0000     -10.326693      -281.0036
   4   2.0000     -10.318750      -280.7875
   5   2.0000     -10.312721      -280.6234
   6   2.0000     -10.310636      -280.5667
   7   2.0000     -10.304207      -280.3917
   8   2.0000     -10.297571      -280.2112
   9   2.0000     -10.296276      -280.1759
  10   2.0000     -10.295337      -280.1504
  11   2.0000     -10.294174      -280.1187
  12   2.0000     -10.287330      -279.9325
  13   2.0000     -10.287188      -279.9286
  14   2.0000     -10.283960      -279.8408
  15   2.0000     -10.283293      -279.8226
  16   2.0000      -8.083853      -219.9728
  17   2.0000      -8.080378      -219.8783
  18   2.0000      -6.042421      -164.4226
  19   2.0000      -6.039028      -164.3303
  20   2.0000      -6.038667      -164.3205
  21   2.0000      -6.034781      -164.2147
  22   2.0000      -6.034478      -164.2065
  23   2.0000      -6.031140      -164.1157
  24   2.0000      -1.001918       -27.2636
  25   2.0000      -0.975514       -26.5451
  26   2.0000      -0.910438       -24.7743
  27   2.0000      -0.900225       -24.4964
  28   2.0000      -0.868701       -23.6386
  29   2.0000      -0.848128       -23.0787
  30   2.0000      -0.839478       -22.8433
  31   2.0000      -0.810900       -22.0657
  32   2.0000      -0.785223       -21.3670
  33   2.0000      -0.771359       -20.9897
  34   2.0000      -0.712195       -19.3798
  35   2.0000      -0.699623       -19.0377
  36   2.0000      -0.694397       -18.8955
  37   2.0000      -0.654095       -17.7988
  38   2.0000      -0.635363       -17.2891
  39   2.0000      -0.615646       -16.7526
  40   2.0000      -0.582101       -15.8398
  41   2.0000      -0.574139       -15.6231
  42   2.0000      -0.566480       -15.4147
  43   2.0000      -0.552479       -15.0337
  44   2.0000      -0.532616       -14.4932
  45   2.0000      -0.519068       -14.1245
  46   2.0000      -0.516423       -14.0526
  47   2.0000      -0.507562       -13.8115
  48   2.0000      -0.503067       -13.6892
  49   2.0000      -0.496124       -13.5002
  50   2.0000      -0.487928       -13.2772
  51   2.0000      -0.476407       -12.9637
  52   2.0000      -0.469693       -12.7810
  53   2.0000      -0.466838       -12.7033
  54   2.0000      -0.456814       -12.4305
  55   2.0000      -0.452188       -12.3047
  56   2.0000      -0.446109       -12.1393
  57   2.0000      -0.437962       -11.9175
  58   2.0000      -0.432425       -11.7669
  59   2.0000      -0.422058       -11.4848
  60   2.0000      -0.417823       -11.3696
  61   2.0000      -0.417544       -11.3619
  62   2.0000      -0.414110       -11.2685
  63   2.0000      -0.346926        -9.4403
  64   2.0000      -0.330077        -8.9818
  65   2.0000      -0.327094        -8.9007
  66   2.0000      -0.285403        -7.7662
  67   0.0000       0.026642         0.7250
  68   0.0000       0.064477         1.7545
  69   0.0000       0.105517         2.8713
  70   0.0000       0.127252         3.4627
  71   0.0000       0.130345         3.5469

MULLIKEN ATOMIC CHARGES
-----------------------
   0 S :    0.115799
   1 C :   -0.132694
   2 C :   -0.088607
   3 C :    0.007307
   4 C :   -0.170207
   5 H :    0.023320
   6 C :    0.119465
   7 H :    0.010879
   8 H :    0.001323
   9 C :   -0.064372
  10 H :    0.019592
  11 H :    0.020928
  12 C :   -0.073528
  13 H :    0.056210
  14 H :    0.035272
  15 H :    0.033427
  16 S :    0.111891
  17 C :   -0.071094
  18 C :   -0.054912
  19 C :   -0.058060
  20 C :   -0.157929
  21 H :    0.002183
  22 C :    0.068027
  23 H :    0.036506
  24 H :    0.051882
  25 C :   -0.120216
  26 H :    0.048802
  27 H :    0.042802
  28 C :   -0.027766
  29 H :    0.018165
  30 H :    0.029375
  31 H :    0.049133
  32 H :    0.056307
  33 H :    0.060791
Sum of atomic charges:   -0.0000000

LOEWDIN ATOMIC CHARGES
----------------------
   0 S :    0.406749
   1 C :   -0.212112
   2 C :   -0.066041
   3 C :   -0.063661
   4 C :   -0.206984
   5 H :    0.032641
   6 C :   -0.024071
   7 H :    0.025747
   8 H :    0.025196
   9 C :   -0.037633
  10 H :    0.021435
  11 H :    0.022066
  12 C :   -0.075728
  13 H :    0.033091
  14 H :    0.027649
  15 H :    0.031647
  16 S :    0.395621
  17 C :   -0.185383
  18 C :   -0.060107
  19 C :   -0.049172
  20 C :   -0.200068
  21 H :    0.021202
  22 C :   -0.033653
  23 H :    0.029481
  24 H :    0.039208
  25 C :   -0.044140
  26 H :    0.030253
  27 H :    0.030208
  28 C :   -0.070214
  29 H :    0.025338
  30 H :    0.025791
  31 H :    0.034333
  32 H :    0.039194
  33 H :    0.032118

  Mayer bond orders larger than 0.100000
B(  0-S ,  1-C ) :   1.1359 B(  0-S ,  4-C ) :   1.1432 B(  1-C ,  2-C ) :   1.6082
B(  1-C , 32-H ) :   0.9586 B(  2-C ,  3-C ) :   1.2500 B(  2-C ,  6-C ) :   1.0285
B(  3-C ,  4-C ) :   1.5561 B(  3-C ,  5-H ) :   0.9835 B(  4-C , 20-C ) :   1.0659
B(  6-C ,  7-H ) :   0.9261 B(  6-C ,  8-H ) :   0.9337 B(  6-C ,  9-C ) :   1.0905
B(  9-C , 10-H ) :   0.9573 B(  9-C , 11-H ) :   0.9535 B(  9-C , 12-C ) :   1.0511
B( 12-C , 13-H ) :   0.9780 B( 12-C , 14-H ) :   0.9803 B( 12-C , 15-H ) :   0.9763
B( 16-S , 17-C ) :   1.1382 B( 16-S , 20-C ) :   1.1491 B( 17-C , 18-C ) :   1.6189
B( 17-C , 20-C ) :   0.1018 B( 17-C , 33-H ) :   0.9555 B( 18-C , 19-C ) :   1.2528
B( 18-C , 21-H ) :   0.9923 B( 19-C , 20-C ) :   1.5805 B( 19-C , 22-C ) :   1.0026
B( 22-C , 23-H ) :   0.9305 B( 22-C , 24-H ) :   0.9416 B( 22-C , 25-C ) :   1.0738
B( 25-C , 26-H ) :   0.9584 B( 25-C , 27-H ) :   0.9491 B( 25-C , 28-C ) :   1.0844
B( 28-C , 29-H ) :   0.9702 B( 28-C , 30-H ) :   0.9727 B( 28-C , 31-H ) :   0.9747

Dispersion correction           -0.014083333
FINAL SINGLE POINT ENERGY     -1339.857558383258

DIPOLE MOMENT
-------------
                                X             Y             Z
Electronic contribution:      1.86555     -28.48376      13.01439
Nuclear contribution   :     -2.00496      29.12389     -13.79515
                        -----------------------------------------
Total Dipole Moment    :     -0.13941       0.64013      -0.78076
                        -----------------------------------------
Magnitude (a.u.)       :      1.01921
Magnitude (Debye)      :      2.59062

Rotational constants in cm-1:     0.015403     0.009875     0.006683
Rotational constants in MHz :   461.771807   296.046900   200.345554

                             ****ORCA TERMINATED NORMALLY****
TOTAL RUN TIME: 0 days 0 hours 0 minutes 30 seconds 347 msec
