                         Program Version 4.2.1 -  RELEASE  -
|  1> ! wB97X-D3 SP def2-SVP
|  2> %pal
|  3> nprocs 16
|  4> end
|  5>
|  6> * xyz 0 1
|  7> S 	 -22.8986 	 -0.564535 	 88.3011
|  8> C 	 -24.2586 	 -1.09124 	 89.2288
|  9> C 	 -25.3354 	 -1.47392 	 88.4545
| 10> C 	 -24.9839 	 -1.2774 	 87.1101
| 11> C 	 -23.6664 	 -0.963497 	 86.8341
| 12> H 	 -25.5483 	 -1.36449 	 86.2016
| 13> C 	 -26.6506 	 -1.97129 	 88.922
| 14> H 	 -27.4113 	 -1.28385 	 88.5432
| 15> H 	 -26.642 	 -1.80687 	 90.0354
| 16> C 	 -26.8514 	 -3.40307 	 88.5444
| 17> H 	 -25.9322 	 -3.95964 	 88.4649
| 18> H 	 -27.3977 	 -3.84784 	 89.3657
| 19> C 	 -27.7026 	 -3.72666 	 87.2743
| 20> H 	 -28.6772 	 -3.19595 	 87.2973
| 21> H 	 -27.1649 	 -3.35977 	 86.3237
| 22> H 	 -27.7885 	 -4.8124 	 87.2818
| 23> S 	 -22.2923 	 0.651781 	 85.0573
| 24> C 	 -22.2964 	 0.296922 	 83.3336
| 25> C 	 -22.6042 	 -1.0128 	 83.1926
| 26> C 	 -23.0897 	 -1.6661 	 84.3777
| 27> C 	 -23.0228 	 -0.87652 	 85.5288
| 28> H 	 -22.3934 	 -1.35616 	 82.2609
| 29> C 	 -23.7078 	 -3.02499 	 84.3372
| 30> H 	 -24.1677 	 -3.24342 	 85.2941
| 31> H 	 -22.8648 	 -3.64082 	 84.1108
| 32> C 	 -24.7592 	 -3.27023 	 83.1794
| 33> H 	 -24.3366 	 -2.94817 	 82.2581
| 34> H 	 -25.6729 	 -2.69161 	 83.3516
| 35> C 	 -25.2576 	 -4.73932 	 83.1235
| 36> H 	 -25.7249 	 -5.0662 	 84.021
| 37> H 	 -24.3561 	 -5.38134 	 82.9
| 38> H 	 -25.9579 	 -4.83982 	 82.3235
| 39> H 	 -24.2952 	 -1.08719 	 90.3984
| 40> H 	 -21.9918 	 0.976712 	 82.554
| 41> *
| 42>
| 43>                          ****END OF INPUT****

CARTESIAN COORDINATES (ANGSTROEM)
---------------------------------
  S    -22.898600   -0.564535   88.301100
  C    -24.258600   -1.091240   89.228800
  C    -25.335400   -1.473920   88.454500
  C    -24.983900   -1.277400   87.110100
  C    -23.666400   -0.963497   86.834100
  H    -25.548300   -1.364490   86.201600
  C    -26.650600   -1.971290   88.922000
  H    -27.411300   -1.283850   88.543200
  H    -26.642000   -1.806870   90.035400
  C    -26.851400   -3.403070   88.544400
  H    -25.932200   -3.959640   88.464900
  H    -27.397700   -3.847840   89.365700
  C    -27.702600   -3.726660   87.274300
  H    -28.677200   -3.195950   87.297300
  H    -27.164900   -3.359770   86.323700
  H    -27.788500   -4.812400   87.281800
  S    -22.292300    0.651781   85.057300
  C    -22.296400    0.296922   83.333600
  C    -22.604200   -1.012800   83.192600
  C    -23.089700   -1.666100   84.377700
  C    -23.022800   -0.876520   85.528800
  H    -22.393400   -1.356160   82.260900
  C    -23.707800   -3.024990   84.337200
  H    -24.167700   -3.243420   85.294100
  H    -22.864800   -3.640820   84.110800
  C    -24.759200   -3.270230   83.179400
  H    -24.336600   -2.948170   82.258100
  H    -25.672900   -2.691610   83.351600
  C    -25.257600   -4.739320   83.123500
  H    -25.724900   -5.066200   84.021000
  H    -24.356100   -5.381340   82.900000
  H    -25.957900   -4.839820   82.323500
  H    -24.295200   -1.087190   90.398400
  H    -21.991800    0.976712   82.554000

 Total Charge           Charge          ....    0
 Multiplicity           Mult            ....    1
 Number of Electrons    NEL             ....  134
 Basis Dimension        Dim             ....  322

ORBITAL ENERGIES
----------------

  NO   OCC          E(Eh)            E(eV)
   0   2.0000     -88.964502     -2420.8472
   1   2.0000     -88.956821     -2420.6382
   2   2.0000     -10.327463      -281.0246
   3   2.0000     -10.323990      -280.9300
   4   2.0000     -10.318023      -280.7677
   5   2.0000     -10.317406      -280.7509
   6   2.0000     -10.306461      -280.4531
   7   2.0000     -10.296781      -280.1896
   8   2.0000     -10.293931      -280.1121
   9   2.0000     -10.290790      -280.0266
  10   2.0000     -10.287616      -279.9403
  11   2.0000     -10.287416      -279.9348
  12   2.0000     -10.286697      -279.9152
  13   2.0000     -10.286488      -279.9096
  14   2.0000     -10.284496      -279.8554
  15   2.0000     -10.278529      -279.6930
  16   2.0000      -8.080434      -219.8798
  17   2.0000      -8.071894      -219.6474
  18   2.0000      -6.038788      -164.3238
  19   2.0000      -6.034757      -164.2141
  20   2.0000      -6.031311      -164.1203
  21   2.0000      -6.030500      -164.0982
  22   2.0000      -6.026309      -163.9842
  23   2.0000      -6.022547      -163.8818
  24   2.0000      -1.013097       -27.5678
  25   2.0000      -0.990064       -26.9410
  26   2.0000      -0.920933       -25.0599
  27   2.0000      -0.905043       -24.6275
  28   2.0000      -0.874064       -23.7845
  29   2.0000      -0.851201       -23.1624
  30   2.0000      -0.844797       -22.9881
  31   2.0000      -0.819868       -22.3098
  32   2.0000      -0.785578       -21.3767
  33   2.0000      -0.769774       -20.9466
  34   2.0000      -0.707330       -19.2474
  35   2.0000      -0.700766       -19.0688
  36   2.0000      -0.696075       -18.9412
  37   2.0000      -0.660790       -17.9810
  38   2.0000      -0.642016       -17.4701
  39   2.0000      -0.621412       -16.9095
  40   2.0000      -0.595329       -16.1997
  41   2.0000      -0.581293       -15.8178
  42   2.0000      -0.568543       -15.4708
  43   2.0000      -0.549270       -14.9464
  44   2.0000      -0.540645       -14.7117
  45   2.0000      -0.528600       -14.3839
  46   2.0000      -0.524083       -14.2610
  47   2.0000      -0.513154       -13.9636
  48   2.0000      -0.510516       -13.8919
  49   2.0000      -0.500848       -13.6288
  50   2.0000      -0.487626       -13.2690
  51   2.0000      -0.481173       -13.0934
  52   2.0000      -0.479191       -13.0395
  53   2.0000      -0.467616       -12.7245
  54   2.0000      -0.455006       -12.3813
  55   2.0000      -0.452542       -12.3143
  56   2.0000      -0.448239       -12.1972
  57   2.0000      -0.435217       -11.8429
  58   2.0000      -0.431681       -11.7466
  59   2.0000      -0.424926       -11.5628
  60   2.0000      -0.420722       -11.4484
  61   2.0000      -0.414768       -11.2864
  62   2.0000      -0.406526       -11.0621
  63   2.0000      -0.349751        -9.5172
  64   2.0000      -0.330974        -9.0063
  65   2.0000      -0.320560        -8.7229
  66   2.0000      -0.292293        -7.9537
  67   0.0000       0.033458         0.9104
  68   0.0000       0.070274         1.9122
  69   0.0000       0.115242         3.1359
  70   0.0000       0.117063         3.1854
  71   0.0000       0.125516         3.4155

MULLIKEN ATOMIC CHARGES
-----------------------
   0 S :    0.124132
   1 C :   -0.157376
   2 C :   -0.102119
   3 C :    0.027034
   4 C :   -0.179595
   5 H :   -0.001574
   6 C :    0.098857
   7 H :    0.038338
   8 H :    0.020851
   9 C :   -0.070615
  10 H :    0.038077
  11 H :    0.024893
  12 C :   -0.077243
  13 H :    0.040210
  14 H :    0.040105
  15 H :    0.045484
  16 S :    0.073781
  17 C :   -0.099677
  18 C :    0.002614
  19 C :   -0.041363
  20 C :   -0.114678
  21 H :   -0.017724
  22 C :    0.087691
  23 H :    0.022049
  24 H :    0.026208
  25 C :   -0.092993
  26 H :    0.021956
  27 H :    0.028171
  28 C :   -0.037314
  29 H :    0.029935
  30 H :    0.032381
  31 H :    0.030624
  32 H :    0.076228
  33 H :    0.062651
Sum of atomic charges:   -0.0000000

LOEWDIN ATOMIC CHARGES
----------------------
   0 S :    0.434412
   1 C :   -0.220859
   2 C :   -0.070566
   3 C :   -0.066172
   4 C :   -0.211770
   5 H :    0.025725
   6 C :   -0.033135
   7 H :    0.037077
   8 H :    0.036544
   9 C :   -0.044190
  10 H :    0.027388
  11 H :    0.025947
  12 C :   -0.066799
  13 H :    0.026457
  14 H :    0.027506
  15 H :    0.028426
  16 S :    0.384071
  17 C :   -0.164178
  18 C :   -0.069031
  19 C :   -0.049806
  20 C :   -0.200511
  21 H :    0.015550
  22 C :   -0.027913
  23 H :    0.027241
  24 H :    0.032598
  25 C :   -0.033193
  26 H :    0.015272
  27 H :    0.022221
  28 C :   -0.060427
  29 H :    0.019839
  30 H :    0.029300
  31 H :    0.022888
  32 H :    0.046761
  33 H :    0.033327

  Mayer bond orders larger than 0.100000
B(  0-S ,  1-C ) :   1.1575 B(  0-S ,  4-C ) :   1.1684 B(  1-C ,  2-C ) :   1.5990
B(  1-C ,  4-C ) :   0.1005 B(  1-C , 32-H ) :   0.9490 B(  2-C ,  3-C ) :   1.2371
B(  2-C ,  6-C ) :   1.0332 B(  3-C ,  4-C ) :   1.5650 B(  3-C ,  5-H ) :   1.0004
B(  4-C , 20-C ) :   1.0179 B(  6-C ,  7-H ) :   0.9363 B(  6-C ,  8-H ) :   0.9346
B(  6-C ,  9-C ) :   1.0491 B(  9-C , 10-H ) :   0.9591 B(  9-C , 11-H ) :   0.9534
B(  9-C , 12-C ) :   1.0776 B( 12-C , 13-H ) :   0.9746 B( 12-C , 14-H ) :   0.9735
B( 12-C , 15-H ) :   0.9732 B( 16-S , 17-C ) :   1.1564 B( 16-S , 20-C ) :   1.1212
B( 17-C , 18-C ) :   1.6202 B( 17-C , 33-H ) :   0.9693 B( 18-C , 19-C ) :   1.1967
B( 18-C , 21-H ) :   1.0095 B( 19-C , 20-C ) :   1.6037 B( 19-C , 22-C ) :   1.0556
B( 22-C , 23-H ) :   0.9383 B( 22-C , 24-H ) :   0.9224 B( 22-C , 25-C ) :   1.0621
B( 25-C , 26-H ) :   0.9542 B( 25-C , 27-H ) :   0.9578 B( 25-C , 28-C ) :   1.0862
B( 28-C , 29-H ) :   0.9761 B( 28-C , 30-H ) :   0.9750 B( 28-C , 31-H ) :   0.9748

Dispersion correction           -0.014755477
FINAL SINGLE POINT ENERGY     -1339.865225485147

DIPOLE MOMENT
-------------
                                X             Y             Z
Electronic contribution:     21.88156      23.00684       6.59187
Nuclear contribution   :    -22.43835     -23.48113      -6.87925
                        -----------------------------------------
Total Dipole Moment    :     -0.55680      -0.47429      -0.28737
                        -----------------------------------------
Magnitude (a.u.)       :      0.78585
Magnitude (Debye)      :      1.99746

Rotational constants in cm-1:     0.015664     0.010974     0.006896
Rotational constants in MHz :   469.596203   328.979682   206.732869

                             ****ORCA TERMINATED NORMALLY****
TOTAL RUN TIME: 0 days 0 hours 0 minutes 35 seconds 582 msec
