                         Program Version 4.2.1 -  RELEASE  -
|  1> ! wB97X-D3 SP def2-SVP
|  2> %pal
|  3> nprocs 16
|  4> end
|  5>
|  6> * xyz 0 1
|  7> S 	 11.8657 	 -1.61949 	 63.73
|  8> C 	 10.2621 	 -1.93455 	 63.1353
|  9> C 	 10.0026 	 -1.28297 	 61.9314
| 10> C 	 11.1909 	 -0.58569 	 61.5004
| 11> C 	 12.1983 	 -0.505755 	 62.4159
| 12> H 	 11.3675 	 -0.201264 	 60.5251
| 13> C 	 8.74091 	 -1.28911 	 61.097
| 14> H 	 8.64822 	 -0.384623 	 60.4507
| 15> H 	 7.98716 	 -1.25937 	 61.8396
| 16> C 	 8.61005 	 -2.60438 	 60.2845
| 17> H 	 9.46147 	 -2.74257 	 59.6732
| 18> H 	 8.55532 	 -3.50636 	 60.9583
| 19> C 	 7.2895 	 -2.40966 	 59.4668
| 20> H 	 7.41954 	 -1.79768 	 58.5457
| 21> H 	 6.95221 	 -3.40605 	 59.1577
| 22> H 	 6.50267 	 -1.98992 	 60.0486
| 23> S 	 14.9506 	 -0.731917 	 62.5491
| 24> C 	 15.8753 	 0.69214 	 62.1234
| 25> C 	 15.1124 	 1.78406 	 62.0237
| 26> C 	 13.6957 	 1.53179 	 62.0188
| 27> C 	 13.4792 	 0.164282 	 62.2826
| 28> H 	 15.4907 	 2.785 	 61.778
| 29> C 	 12.666 	 2.59523 	 61.9452
| 30> H 	 11.8253 	 2.2204 	 61.3438
| 31> H 	 13.0067 	 3.42841 	 61.4578
| 32> C 	 11.9547 	 3.17923 	 63.2352
| 33> H 	 12.5823 	 3.3682 	 63.9837
| 34> H 	 11.3595 	 2.40583 	 63.7993
| 35> C 	 11.1219 	 4.45665 	 62.9159
| 36> H 	 10.3379 	 4.15874 	 62.2388
| 37> H 	 11.6873 	 5.40221 	 62.6148
| 38> H 	 10.6173 	 4.80767 	 63.776
| 39> H 	 9.56757 	 -2.49469 	 63.7122
| 40> H 	 16.8937 	 0.758746 	 61.8393
| 41> *
| 42>
| 43>                          ****END OF INPUT****

CARTESIAN COORDINATES (ANGSTROEM)
---------------------------------
  S     11.865700   -1.619490   63.730000
  C     10.262100   -1.934550   63.135300
  C     10.002600   -1.282970   61.931400
  C     11.190900   -0.585690   61.500400
  C     12.198300   -0.505755   62.415900
  H     11.367500   -0.201264   60.525100
  C      8.740910   -1.289110   61.097000
  H      8.648220   -0.384623   60.450700
  H      7.987160   -1.259370   61.839600
  C      8.610050   -2.604380   60.284500
  H      9.461470   -2.742570   59.673200
  H      8.555320   -3.506360   60.958300
  C      7.289500   -2.409660   59.466800
  H      7.419540   -1.797680   58.545700
  H      6.952210   -3.406050   59.157700
  H      6.502670   -1.989920   60.048600
  S     14.950600   -0.731917   62.549100
  C     15.875300    0.692140   62.123400
  C     15.112400    1.784060   62.023700
  C     13.695700    1.531790   62.018800
  C     13.479200    0.164282   62.282600
  H     15.490700    2.785000   61.778000
  C     12.666000    2.595230   61.945200
  H     11.825300    2.220400   61.343800
  H     13.006700    3.428410   61.457800
  C     11.954700    3.179230   63.235200
  H     12.582300    3.368200   63.983700
  H     11.359500    2.405830   63.799300
  C     11.121900    4.456650   62.915900
  H     10.337900    4.158740   62.238800
  H     11.687300    5.402210   62.614800
  H     10.617300    4.807670   63.776000
  H      9.567570   -2.494690   63.712200
  H     16.893700    0.758746   61.839300

 Total Charge           Charge          ....    0
 Multiplicity           Mult            ....    1
 Number of Electrons    NEL             ....  134
 Basis Dimension        Dim             ....  322

ORBITAL ENERGIES
----------------

  NO   OCC          E(Eh)            E(eV)
   0   2.0000     -88.968176     -2420.9471
   1   2.0000     -88.961726     -2420.7716
   2   2.0000     -10.326142      -280.9886
   3   2.0000     -10.323402      -280.9140
   4   2.0000     -10.310846      -280.5724
   5   2.0000     -10.309525      -280.5364
   6   2.0000     -10.302494      -280.3451
   7   2.0000     -10.300862      -280.3007
   8   2.0000     -10.292670      -280.0778
   9   2.0000     -10.291173      -280.0370
  10   2.0000     -10.289700      -279.9970
  11   2.0000     -10.286188      -279.9014
  12   2.0000     -10.284575      -279.8575
  13   2.0000     -10.280693      -279.7519
  14   2.0000     -10.280031      -279.7339
  15   2.0000     -10.279503      -279.7195
  16   2.0000      -8.082956      -219.9484
  17   2.0000      -8.076801      -219.7809
  18   2.0000      -6.041547      -164.3989
  19   2.0000      -6.037587      -164.2911
  20   2.0000      -6.035306      -164.2290
  21   2.0000      -6.033504      -164.1800
  22   2.0000      -6.031326      -164.1207
  23   2.0000      -6.027501      -164.0167
  24   2.0000      -1.007484       -27.4150
  25   2.0000      -0.984421       -26.7875
  26   2.0000      -0.911282       -24.7973
  27   2.0000      -0.903983       -24.5986
  28   2.0000      -0.869993       -23.6737
  29   2.0000      -0.852167       -23.1886
  30   2.0000      -0.843652       -22.9569
  31   2.0000      -0.816562       -22.2198
  32   2.0000      -0.780642       -21.2423
  33   2.0000      -0.767496       -20.8846
  34   2.0000      -0.713339       -19.4109
  35   2.0000      -0.706133       -19.2149
  36   2.0000      -0.697112       -18.9694
  37   2.0000      -0.660046       -17.9608
  38   2.0000      -0.644988       -17.5510
  39   2.0000      -0.619715       -16.8633
  40   2.0000      -0.601532       -16.3685
  41   2.0000      -0.569011       -15.4836
  42   2.0000      -0.559421       -15.2226
  43   2.0000      -0.553519       -15.0620
  44   2.0000      -0.526478       -14.3262
  45   2.0000      -0.522118       -14.2076
  46   2.0000      -0.519370       -14.1328
  47   2.0000      -0.508907       -13.8481
  48   2.0000      -0.499502       -13.5921
  49   2.0000      -0.498324       -13.5601
  50   2.0000      -0.490624       -13.3506
  51   2.0000      -0.479671       -13.0525
  52   2.0000      -0.466811       -12.7026
  53   2.0000      -0.462344       -12.5810
  54   2.0000      -0.459145       -12.4940
  55   2.0000      -0.453630       -12.3439
  56   2.0000      -0.446825       -12.1587
  57   2.0000      -0.440321       -11.9817
  58   2.0000      -0.435458       -11.8494
  59   2.0000      -0.432235       -11.7617
  60   2.0000      -0.426340       -11.6013
  61   2.0000      -0.413896       -11.2627
  62   2.0000      -0.410330       -11.1656
  63   2.0000      -0.350631        -9.5411
  64   2.0000      -0.331233        -9.0133
  65   2.0000      -0.322959        -8.7882
  66   2.0000      -0.286552        -7.7975
  67   0.0000       0.031745         0.8638
  68   0.0000       0.068584         1.8663
  69   0.0000       0.107960         2.9377
  70   0.0000       0.123063         3.3487
  71   0.0000       0.137712         3.7473

MULLIKEN ATOMIC CHARGES
-----------------------
   0 S :    0.095570
   1 C :   -0.118884
   2 C :   -0.087057
   3 C :    0.025949
   4 C :   -0.152187
   5 H :    0.006247
   6 C :    0.064385
   7 H :    0.038126
   8 H :    0.017876
   9 C :   -0.075732
  10 H :    0.027247
  11 H :    0.039772
  12 C :   -0.038565
  13 H :    0.042676
  14 H :    0.027816
  15 H :    0.024869
  16 S :    0.120832
  17 C :   -0.068953
  18 C :   -0.025415
  19 C :   -0.049583
  20 C :   -0.156552
  21 H :    0.018982
  22 C :    0.114374
  23 H :    0.016580
  24 H :   -0.010678
  25 C :   -0.029748
  26 H :   -0.012070
  27 H :    0.031310
  28 C :   -0.063825
  29 H :    0.033511
  30 H :    0.045569
  31 H :    0.019306
  32 H :    0.034866
  33 H :    0.043387
Sum of atomic charges:    0.0000000

LOEWDIN ATOMIC CHARGES
----------------------
   0 S :    0.396718
   1 C :   -0.198022
   2 C :   -0.057797
   3 C :   -0.064776
   4 C :   -0.190803
   5 H :    0.025352
   6 C :   -0.030458
   7 H :    0.036040
   8 H :    0.026171
   9 C :   -0.029647
  10 H :    0.018547
  11 H :    0.030718
  12 C :   -0.065940
  13 H :    0.030447
  14 H :    0.024593
  15 H :    0.019347
  16 S :    0.407570
  17 C :   -0.183003
  18 C :   -0.067028
  19 C :   -0.053356
  20 C :   -0.197295
  21 H :    0.033213
  22 C :   -0.029852
  23 H :    0.035837
  24 H :    0.016840
  25 C :   -0.028974
  26 H :    0.001504
  27 H :    0.034763
  28 C :   -0.068705
  29 H :    0.024579
  30 H :    0.035146
  31 H :    0.022078
  32 H :    0.018318
  33 H :    0.027878

  Mayer bond orders larger than 0.100000
B(  0-S ,  1-C ) :   1.1385 B(  0-S ,  4-C ) :   1.1359 B(  1-C ,  2-C ) :   1.6068
B(  1-C , 32-H ) :   0.9745 B(  2-C ,  3-C ) :   1.2304 B(  2-C ,  6-C ) :   1.0156
B(  3-C ,  4-C ) :   1.6070 B(  3-C ,  5-H ) :   0.9901 B(  4-C , 20-C ) :   1.0464
B(  6-C ,  7-H ) :   0.9505 B(  6-C ,  8-H ) :   0.9310 B(  6-C ,  9-C ) :   1.0595
B(  9-C , 10-H ) :   0.9611 B(  9-C , 11-H ) :   0.9590 B(  9-C , 12-C ) :   1.0693
B( 12-C , 13-H ) :   0.9762 B( 12-C , 14-H ) :   0.9749 B( 12-C , 15-H ) :   0.9744
B( 16-S , 17-C ) :   1.1281 B( 16-S , 20-C ) :   1.1445 B( 17-C , 18-C ) :   1.6387
B( 17-C , 33-H ) :   0.9672 B( 18-C , 19-C ) :   1.2419 B( 18-C , 21-H ) :   0.9789
B( 19-C , 20-C ) :   1.5738 B( 19-C , 22-C ) :   1.0756 B( 22-C , 23-H ) :   0.9182
B( 22-C , 24-H ) :   0.9263 B( 22-C , 25-C ) :   1.0469 B( 25-C , 26-H ) :   0.9524
B( 25-C , 27-H ) :   0.9502 B( 25-C , 28-C ) :   1.0813 B( 28-C , 29-H ) :   0.9783
B( 28-C , 30-H ) :   0.9728 B( 28-C , 31-H ) :   0.9706

Dispersion correction           -0.013862118
FINAL SINGLE POINT ENERGY     -1339.860262596842

DIPOLE MOMENT
-------------
                                X             Y             Z
Electronic contribution:     23.46154     -11.74935      10.49722
Nuclear contribution   :    -23.87031      12.12992     -10.85321
                        -----------------------------------------
Total Dipole Moment    :     -0.40877       0.38057      -0.35599
                        -----------------------------------------
Magnitude (a.u.)       :      0.66231
Magnitude (Debye)      :      1.68345

Rotational constants in cm-1:     0.017961     0.008119     0.006599
Rotational constants in MHz :   538.451732   243.410356   197.823810

                             ****ORCA TERMINATED NORMALLY****
TOTAL RUN TIME: 0 days 0 hours 0 minutes 35 seconds 12 msec
