                         Program Version 4.2.1 -  RELEASE  -
|  1> ! wB97X-D3 SP def2-SVP
|  2> %pal
|  3> nprocs 16
|  4> end
|  5>
|  6> * xyz 0 1
|  7> S 	 -110.486 	 54.5364 	 113.691
|  8> C 	 -110.983 	 54.542 	 112.01
|  9> C 	 -110.43 	 53.4792 	 111.255
| 10> C 	 -109.62 	 52.6927 	 112.107
| 11> C 	 -109.696 	 53.0329 	 113.471
| 12> H 	 -109.076 	 51.7534 	 111.839
| 13> C 	 -110.443 	 53.392 	 109.726
| 14> H 	 -111.259 	 54.0497 	 109.404
| 15> H 	 -110.822 	 52.3584 	 109.504
| 16> C 	 -109.266 	 53.6705 	 108.822
| 17> H 	 -108.755 	 54.5719 	 109.174
| 18> H 	 -108.563 	 52.8893 	 108.806
| 19> C 	 -109.669 	 54.0682 	 107.43
| 20> H 	 -110.027 	 55.1248 	 107.338
| 21> H 	 -108.87 	 53.9408 	 106.696
| 22> H 	 -110.43 	 53.409 	 107.015
| 23> S 	 -107.473 	 52.9881 	 115.024
| 24> C 	 -107.141 	 51.5749 	 115.993
| 25> C 	 -108.264 	 50.8224 	 116.277
| 26> C 	 -109.336 	 51.225 	 115.424
| 27> C 	 -109.063 	 52.3467 	 114.578
| 28> H 	 -108.198 	 49.98 	 116.902
| 29> C 	 -110.493 	 50.3375 	 115.221
| 30> H 	 -110.257 	 49.3384 	 115.493
| 31> H 	 -110.701 	 50.3001 	 114.172
| 32> C 	 -111.759 	 50.6671 	 116.063
| 33> H 	 -111.306 	 50.8625 	 117.02
| 34> H 	 -112.443 	 49.8031 	 116.131
| 35> C 	 -112.5 	 51.8823 	 115.443
| 36> H 	 -112.062 	 52.875 	 115.61
| 37> H 	 -113.409 	 52.1002 	 115.839
| 38> H 	 -112.649 	 51.6599 	 114.426
| 39> H 	 -111.704 	 55.2486 	 111.61
| 40> H 	 -106.251 	 51.4151 	 116.548
| 41> *
| 42>
| 43>                          ****END OF INPUT****

CARTESIAN COORDINATES (ANGSTROEM)
---------------------------------
  S    -110.486000   54.536400  113.691000
  C    -110.983000   54.542000  112.010000
  C    -110.430000   53.479200  111.255000
  C    -109.620000   52.692700  112.107000
  C    -109.696000   53.032900  113.471000
  H    -109.076000   51.753400  111.839000
  C    -110.443000   53.392000  109.726000
  H    -111.259000   54.049700  109.404000
  H    -110.822000   52.358400  109.504000
  C    -109.266000   53.670500  108.822000
  H    -108.755000   54.571900  109.174000
  H    -108.563000   52.889300  108.806000
  C    -109.669000   54.068200  107.430000
  H    -110.027000   55.124800  107.338000
  H    -108.870000   53.940800  106.696000
  H    -110.430000   53.409000  107.015000
  S    -107.473000   52.988100  115.024000
  C    -107.141000   51.574900  115.993000
  C    -108.264000   50.822400  116.277000
  C    -109.336000   51.225000  115.424000
  C    -109.063000   52.346700  114.578000
  H    -108.198000   49.980000  116.902000
  C    -110.493000   50.337500  115.221000
  H    -110.257000   49.338400  115.493000
  H    -110.701000   50.300100  114.172000
  C    -111.759000   50.667100  116.063000
  H    -111.306000   50.862500  117.020000
  H    -112.443000   49.803100  116.131000
  C    -112.500000   51.882300  115.443000
  H    -112.062000   52.875000  115.610000
  H    -113.409000   52.100200  115.839000
  H    -112.649000   51.659900  114.426000
  H    -111.704000   55.248600  111.610000
  H    -106.251000   51.415100  116.548000

 Total Charge           Charge          ....    0
 Multiplicity           Mult            ....    1
 Number of Electrons    NEL             ....  134
 Basis Dimension        Dim             ....  322

ORBITAL ENERGIES
----------------

  NO   OCC          E(Eh)            E(eV)
   0   2.0000     -88.970786     -2421.0182
   1   2.0000     -88.962572     -2420.7946
   2   2.0000     -10.326997      -281.0119
   3   2.0000     -10.326629      -281.0019
   4   2.0000     -10.318088      -280.7694
   5   2.0000     -10.313661      -280.6490
   6   2.0000     -10.306293      -280.4485
   7   2.0000     -10.305419      -280.4247
   8   2.0000     -10.297869      -280.2193
   9   2.0000     -10.296973      -280.1949
  10   2.0000     -10.290985      -280.0319
  11   2.0000     -10.283283      -279.8224
  12   2.0000     -10.282339      -279.7967
  13   2.0000     -10.280181      -279.7380
  14   2.0000     -10.275696      -279.6159
  15   2.0000     -10.256855      -279.1032
  16   2.0000      -8.085586      -220.0200
  17   2.0000      -8.077242      -219.7929
  18   2.0000      -6.043835      -164.4611
  19   2.0000      -6.040087      -164.3591
  20   2.0000      -6.036611      -164.2645
  21   2.0000      -6.035641      -164.2382
  22   2.0000      -6.031747      -164.1322
  23   2.0000      -6.028126      -164.0337
  24   2.0000      -1.005190       -27.3526
  25   2.0000      -0.981935       -26.7198
  26   2.0000      -0.916242       -24.9322
  27   2.0000      -0.906588       -24.6695
  28   2.0000      -0.872016       -23.7288
  29   2.0000      -0.851398       -23.1677
  30   2.0000      -0.843145       -22.9431
  31   2.0000      -0.810857       -22.0645
  32   2.0000      -0.784768       -21.3546
  33   2.0000      -0.768997       -20.9255
  34   2.0000      -0.710121       -19.3234
  35   2.0000      -0.700033       -19.0489
  36   2.0000      -0.690975       -18.8024
  37   2.0000      -0.660870       -17.9832
  38   2.0000      -0.642355       -17.4794
  39   2.0000      -0.617137       -16.7931
  40   2.0000      -0.596368       -16.2280
  41   2.0000      -0.574523       -15.6336
  42   2.0000      -0.569062       -15.4850
  43   2.0000      -0.548899       -14.9363
  44   2.0000      -0.539118       -14.6702
  45   2.0000      -0.522290       -14.2122
  46   2.0000      -0.514516       -14.0007
  47   2.0000      -0.507344       -13.8055
  48   2.0000      -0.506858       -13.7923
  49   2.0000      -0.500964       -13.6319
  50   2.0000      -0.491575       -13.3764
  51   2.0000      -0.471910       -12.8413
  52   2.0000      -0.467993       -12.7347
  53   2.0000      -0.461111       -12.5475
  54   2.0000      -0.456967       -12.4347
  55   2.0000      -0.451011       -12.2726
  56   2.0000      -0.440863       -11.9965
  57   2.0000      -0.436458       -11.8766
  58   2.0000      -0.427897       -11.6437
  59   2.0000      -0.425209       -11.5705
  60   2.0000      -0.421950       -11.4818
  61   2.0000      -0.415365       -11.3027
  62   2.0000      -0.413339       -11.2475
  63   2.0000      -0.336542        -9.1578
  64   2.0000      -0.329891        -8.9768
  65   2.0000      -0.315385        -8.5821
  66   2.0000      -0.301308        -8.1990
  67   0.0000       0.040537         1.1031
  68   0.0000       0.043848         1.1932
  69   0.0000       0.114068         3.1040
  70   0.0000       0.116067         3.1583
  71   0.0000       0.125899         3.4259

MULLIKEN ATOMIC CHARGES
-----------------------
   0 S :    0.139655
   1 C :   -0.131061
   2 C :   -0.080302
   3 C :    0.037872
   4 C :   -0.186648
   5 H :    0.029918
   6 C :    0.043479
   7 H :    0.012598
   8 H :    0.030993
   9 C :   -0.000509
  10 H :    0.029640
  11 H :    0.019742
  12 C :   -0.082637
  13 H :    0.043978
  14 H :    0.029413
  15 H :    0.022225
  16 S :    0.107853
  17 C :   -0.074976
  18 C :   -0.024444
  19 C :   -0.010769
  20 C :   -0.182222
  21 H :    0.008709
  22 C :    0.067003
  23 H :    0.000459
  24 H :    0.017483
  25 C :   -0.060445
  26 H :    0.018027
  27 H :    0.035015
  28 C :    0.004285
  29 H :    0.025359
  30 H :   -0.004331
  31 H :    0.019508
  32 H :    0.051343
  33 H :    0.043787
Sum of atomic charges:   -0.0000000

LOEWDIN ATOMIC CHARGES
----------------------
   0 S :    0.442372
   1 C :   -0.197396
   2 C :   -0.066440
   3 C :   -0.060003
   4 C :   -0.222501
   5 H :    0.039162
   6 C :   -0.036102
   7 H :    0.030524
   8 H :    0.035256
   9 C :   -0.040000
  10 H :    0.031505
  11 H :    0.018253
  12 C :   -0.067994
  13 H :    0.031089
  14 H :    0.028466
  15 H :    0.020900
  16 S :    0.402516
  17 C :   -0.173525
  18 C :   -0.066224
  19 C :   -0.044347
  20 C :   -0.204076
  21 H :    0.027024
  22 C :   -0.032374
  23 H :    0.023094
  24 H :    0.025375
  25 C :   -0.027924
  26 H :    0.019632
  27 H :    0.025116
  28 C :   -0.063295
  29 H :    0.024748
  30 H :    0.010584
  31 H :    0.020788
  32 H :    0.025444
  33 H :    0.020350

  Mayer bond orders larger than 0.100000
B(  0-S ,  1-C ) :   1.1661 B(  0-S ,  4-C ) :   1.1757 B(  1-C ,  2-C ) :   1.5681
B(  1-C ,  4-C ) :   0.1091 B(  1-C , 32-H ) :   0.9652 B(  2-C ,  3-C ) :   1.2654
B(  2-C ,  6-C ) :   1.0351 B(  3-C ,  4-C ) :   1.5591 B(  3-C ,  5-H ) :   0.9849
B(  4-C , 20-C ) :   1.0235 B(  6-C ,  7-H ) :   0.9425 B(  6-C ,  8-H ) :   0.9246
B(  6-C ,  9-C ) :   1.0652 B(  9-C , 10-H ) :   0.9532 B(  9-C , 11-H ) :   0.9506
B(  9-C , 12-C ) :   1.0870 B( 12-C , 13-H ) :   0.9745 B( 12-C , 14-H ) :   0.9716
B( 12-C , 15-H ) :   0.9747 B( 16-S , 17-C ) :   1.1715 B( 16-S , 20-C ) :   1.1402
B( 17-C , 18-C ) :   1.6108 B( 17-C , 20-C ) :   0.1075 B( 17-C , 33-H ) :   0.9656
B( 18-C , 19-C ) :   1.2414 B( 18-C , 21-H ) :   0.9972 B( 19-C , 20-C ) :   1.5731
B( 19-C , 22-C ) :   1.0521 B( 22-C , 23-H ) :   0.9320 B( 22-C , 24-H ) :   0.9411
B( 22-C , 25-C ) :   1.0614 B( 25-C , 26-H ) :   0.9557 B( 25-C , 27-H ) :   0.9588
B( 25-C , 28-C ) :   1.0763 B( 28-C , 29-H ) :   0.9678 B( 28-C , 30-H ) :   0.9688
B( 28-C , 31-H ) :   0.9757

Dispersion correction           -0.014804437
FINAL SINGLE POINT ENERGY     -1339.855581456919

DIPOLE MOMENT
-------------
                                X             Y             Z
Electronic contribution:     11.33664       7.01260      16.18743
Nuclear contribution   :    -11.43910      -7.37960     -16.51345
                        -----------------------------------------
Total Dipole Moment    :     -0.10246      -0.36701      -0.32602
                        -----------------------------------------
Magnitude (a.u.)       :      0.50148
Magnitude (Debye)      :      1.27465

Rotational constants in cm-1:     0.021571     0.007694     0.006828
Rotational constants in MHz :   646.692852   230.654754   204.704120

                             ****ORCA TERMINATED NORMALLY****
TOTAL RUN TIME: 0 days 0 hours 0 minutes 33 seconds 317 msec
