                         Program Version 4.2.1 -  RELEASE  -
|  1> ! wB97X-D3 SP def2-SVP
|  2> %pal
|  3> nprocs 16
|  4> end
|  5>
|  6> * xyz 0 1
|  7> S 	 -20.939 	 36.081 	 35.55
|  8> C 	 -21.391 	 36.5654 	 33.9347
|  9> C 	 -21.1097 	 35.5117 	 33.0048
| 10> C 	 -20.3529 	 34.4867 	 33.6891
| 11> C 	 -20.1852 	 34.6482 	 35.0726
| 12> H 	 -19.9436 	 33.5847 	 33.31
| 13> C 	 -21.3654 	 35.3837 	 31.5188
| 14> H 	 -22.4834 	 35.3089 	 31.3938
| 15> H 	 -21.0973 	 34.3358 	 31.285
| 16> C 	 -20.8494 	 36.4422 	 30.5774
| 17> H 	 -21.0569 	 36.1534 	 29.5451
| 18> H 	 -21.3561 	 37.3238 	 30.7934
| 19> C 	 -19.3637 	 36.8716 	 30.771
| 20> H 	 -18.5959 	 36.1376 	 30.8727
| 21> H 	 -19.0359 	 37.505 	 29.9925
| 22> H 	 -19.2302 	 37.4817 	 31.6224
| 23> S 	 -20.3785 	 33.4797 	 37.6065
| 24> C 	 -19.3261 	 32.2268 	 38.0357
| 25> C 	 -18.4008 	 31.9755 	 37.0789
| 26> C 	 -18.6605 	 32.7541 	 35.899
| 27> C 	 -19.7012 	 33.6119 	 36.0092
| 28> H 	 -17.6571 	 31.2137 	 37.1187
| 29> C 	 -17.7254 	 32.6871 	 34.6108
| 30> H 	 -16.7095 	 32.6534 	 34.9801
| 31> H 	 -17.8092 	 33.6282 	 34.1585
| 32> C 	 -17.9949 	 31.6265 	 33.523
| 33> H 	 -17.4388 	 31.7032 	 32.6248
| 34> H 	 -19.0724 	 31.6133 	 33.3728
| 35> C 	 -17.5795 	 30.2284 	 33.9569
| 36> H 	 -17.9684 	 29.6118 	 33.1403
| 37> H 	 -18.0851 	 29.9823 	 34.8879
| 38> H 	 -16.4831 	 30.1087 	 33.9496
| 39> H 	 -21.7563 	 37.516 	 33.6923
| 40> H 	 -19.2955 	 31.8143 	 39.0429
| 41> *
| 42>
| 43>                          ****END OF INPUT****

CARTESIAN COORDINATES (ANGSTROEM)
---------------------------------
  S    -20.939000   36.081000   35.550000
  C    -21.391000   36.565400   33.934700
  C    -21.109700   35.511700   33.004800
  C    -20.352900   34.486700   33.689100
  C    -20.185200   34.648200   35.072600
  H    -19.943600   33.584700   33.310000
  C    -21.365400   35.383700   31.518800
  H    -22.483400   35.308900   31.393800
  H    -21.097300   34.335800   31.285000
  C    -20.849400   36.442200   30.577400
  H    -21.056900   36.153400   29.545100
  H    -21.356100   37.323800   30.793400
  C    -19.363700   36.871600   30.771000
  H    -18.595900   36.137600   30.872700
  H    -19.035900   37.505000   29.992500
  H    -19.230200   37.481700   31.622400
  S    -20.378500   33.479700   37.606500
  C    -19.326100   32.226800   38.035700
  C    -18.400800   31.975500   37.078900
  C    -18.660500   32.754100   35.899000
  C    -19.701200   33.611900   36.009200
  H    -17.657100   31.213700   37.118700
  C    -17.725400   32.687100   34.610800
  H    -16.709500   32.653400   34.980100
  H    -17.809200   33.628200   34.158500
  C    -17.994900   31.626500   33.523000
  H    -17.438800   31.703200   32.624800
  H    -19.072400   31.613300   33.372800
  C    -17.579500   30.228400   33.956900
  H    -17.968400   29.611800   33.140300
  H    -18.085100   29.982300   34.887900
  H    -16.483100   30.108700   33.949600
  H    -21.756300   37.516000   33.692300
  H    -19.295500   31.814300   39.042900

 Total Charge           Charge          ....    0
 Multiplicity           Mult            ....    1
 Number of Electrons    NEL             ....  134
 Basis Dimension        Dim             ....  322

ORBITAL ENERGIES
----------------

  NO   OCC          E(Eh)            E(eV)
   0   2.0000     -88.969143     -2420.9735
   1   2.0000     -88.964169     -2420.8381
   2   2.0000     -10.327857      -281.0353
   3   2.0000     -10.325747      -280.9779
   4   2.0000     -10.317602      -280.7562
   5   2.0000     -10.313232      -280.6373
   6   2.0000     -10.311562      -280.5919
   7   2.0000     -10.301744      -280.3247
   8   2.0000     -10.297462      -280.2082
   9   2.0000     -10.291214      -280.0382
  10   2.0000     -10.290833      -280.0278
  11   2.0000     -10.287029      -279.9243
  12   2.0000     -10.286953      -279.9222
  13   2.0000     -10.282621      -279.8043
  14   2.0000     -10.275053      -279.5984
  15   2.0000     -10.266162      -279.3565
  16   2.0000      -8.084597      -219.9931
  17   2.0000      -8.080599      -219.8843
  18   2.0000      -6.042995      -164.4383
  19   2.0000      -6.039079      -164.3317
  20   2.0000      -6.038734      -164.3223
  21   2.0000      -6.035719      -164.2403
  22   2.0000      -6.034862      -164.2169
  23   2.0000      -6.031282      -164.1195
  24   2.0000      -1.015528       -27.6339
  25   2.0000      -0.991154       -26.9707
  26   2.0000      -0.914329       -24.8801
  27   2.0000      -0.908765       -24.7287
  28   2.0000      -0.870473       -23.6868
  29   2.0000      -0.854705       -23.2577
  30   2.0000      -0.845657       -23.0115
  31   2.0000      -0.814006       -22.1502
  32   2.0000      -0.789886       -21.4939
  33   2.0000      -0.779818       -21.2199
  34   2.0000      -0.715232       -19.4625
  35   2.0000      -0.699176       -19.0255
  36   2.0000      -0.688158       -18.7257
  37   2.0000      -0.667919       -18.1750
  38   2.0000      -0.645304       -17.5596
  39   2.0000      -0.609325       -16.5806
  40   2.0000      -0.597233       -16.2515
  41   2.0000      -0.577675       -15.7193
  42   2.0000      -0.567231       -15.4351
  43   2.0000      -0.551890       -15.0177
  44   2.0000      -0.546628       -14.8745
  45   2.0000      -0.542303       -14.7568
  46   2.0000      -0.515722       -14.0335
  47   2.0000      -0.512083       -13.9345
  48   2.0000      -0.507928       -13.8214
  49   2.0000      -0.501713       -13.6523
  50   2.0000      -0.488586       -13.2951
  51   2.0000      -0.478723       -13.0267
  52   2.0000      -0.474505       -12.9119
  53   2.0000      -0.470381       -12.7997
  54   2.0000      -0.463605       -12.6153
  55   2.0000      -0.451212       -12.2781
  56   2.0000      -0.444932       -12.1072
  57   2.0000      -0.438804       -11.9405
  58   2.0000      -0.429047       -11.6750
  59   2.0000      -0.424414       -11.5489
  60   2.0000      -0.421164       -11.4605
  61   2.0000      -0.413070       -11.2402
  62   2.0000      -0.409594       -11.1456
  63   2.0000      -0.357833        -9.7371
  64   2.0000      -0.333719        -9.0810
  65   2.0000      -0.329409        -8.9637
  66   2.0000      -0.289336        -7.8732
  67   0.0000       0.028692         0.7808
  68   0.0000       0.077130         2.0988
  69   0.0000       0.115938         3.1548
  70   0.0000       0.119232         3.2445
  71   0.0000       0.137400         3.7388

MULLIKEN ATOMIC CHARGES
-----------------------
   0 S :    0.113412
   1 C :   -0.112160
   2 C :   -0.080397
   3 C :    0.011328
   4 C :   -0.130294
   5 H :   -0.030805
   6 C :    0.058434
   7 H :    0.042262
   8 H :    0.020459
   9 C :   -0.022884
  10 H :    0.035904
  11 H :    0.015458
  12 C :   -0.026926
  13 H :    0.020400
  14 H :    0.016361
  15 H :    0.017017
  16 S :    0.106767
  17 C :   -0.088044
  18 C :   -0.002633
  19 C :   -0.104611
  20 C :   -0.119954
  21 H :    0.009529
  22 C :    0.080322
  23 H :    0.016464
  24 H :    0.016422
  25 C :   -0.063741
  26 H :    0.026198
  27 H :    0.042495
  28 C :   -0.063176
  29 H :    0.028369
  30 H :    0.036411
  31 H :    0.035451
  32 H :    0.032905
  33 H :    0.063259
Sum of atomic charges:    0.0000000

LOEWDIN ATOMIC CHARGES
----------------------
   0 S :    0.443368
   1 C :   -0.199066
   2 C :   -0.051215
   3 C :   -0.067328
   4 C :   -0.213578
   5 H :    0.019360
   6 C :   -0.040023
   7 H :    0.042605
   8 H :    0.032226
   9 C :   -0.030875
  10 H :    0.029498
  11 H :    0.019689
  12 C :   -0.063595
  13 H :    0.020472
  14 H :    0.022696
  15 H :    0.022219
  16 S :    0.425635
  17 C :   -0.197274
  18 C :   -0.071696
  19 C :   -0.058976
  20 C :   -0.198453
  21 H :    0.027073
  22 C :   -0.026195
  23 H :    0.027023
  24 H :    0.020756
  25 C :   -0.038802
  26 H :    0.023066
  27 H :    0.023025
  28 C :   -0.064475
  29 H :    0.027192
  30 H :    0.021618
  31 H :    0.024877
  32 H :    0.015618
  33 H :    0.033538

  Mayer bond orders larger than 0.100000
B(  0-S ,  1-C ) :   1.1666 B(  0-S ,  4-C ) :   1.1769 B(  1-C ,  2-C ) :   1.5282
B(  1-C ,  4-C ) :   0.1042 B(  1-C , 32-H ) :   0.9842 B(  2-C ,  3-C ) :   1.2836
B(  2-C ,  6-C ) :   1.0175 B(  3-C ,  4-C ) :   1.5190 B(  3-C ,  5-H ) :   0.9956
B(  4-C , 20-C ) :   1.0403 B(  6-C ,  7-H ) :   0.9330 B(  6-C ,  8-H ) :   0.9412
B(  6-C ,  9-C ) :   1.0755 B(  9-C , 10-H ) :   0.9571 B(  9-C , 11-H ) :   0.9515
B(  9-C , 12-C ) :   1.0755 B( 12-C , 13-H ) :   0.9796 B( 12-C , 14-H ) :   0.9729
B( 12-C , 15-H ) :   0.9695 B( 16-S , 17-C ) :   1.1714 B( 16-S , 20-C ) :   1.1295
B( 17-C , 18-C ) :   1.5927 B( 17-C , 33-H ) :   0.9649 B( 18-C , 19-C ) :   1.2554
B( 18-C , 21-H ) :   0.9978 B( 19-C , 20-C ) :   1.6311 B( 19-C , 22-C ) :   1.0213
B( 22-C , 23-H ) :   0.9409 B( 22-C , 24-H ) :   0.9318 B( 22-C , 25-C ) :   1.0664
B( 25-C , 26-H ) :   0.9582 B( 25-C , 27-H ) :   0.9468 B( 25-C , 28-C ) :   1.0838
B( 28-C , 29-H ) :   0.9741 B( 28-C , 30-H ) :   0.9750 B( 28-C , 31-H ) :   0.9763

Dispersion correction           -0.014600502
FINAL SINGLE POINT ENERGY     -1339.868291521850

DIPOLE MOMENT
-------------
                                X             Y             Z
Electronic contribution:    -10.78576       6.24294      26.17875
Nuclear contribution   :     11.02972      -6.38056     -26.73302
                        -----------------------------------------
Total Dipole Moment    :      0.24396      -0.13762      -0.55427
                        -----------------------------------------
Magnitude (a.u.)       :      0.62102
Magnitude (Debye)      :      1.57851

Rotational constants in cm-1:     0.019219     0.009151     0.006620
Rotational constants in MHz :   576.175964   274.331305   198.447731

                             ****ORCA TERMINATED NORMALLY****
TOTAL RUN TIME: 0 days 0 hours 0 minutes 34 seconds 395 msec
