                         Program Version 4.2.1 -  RELEASE  -
|  1> ! wB97X-D3 SP def2-SVP
|  2> %pal
|  3> nprocs 16
|  4> end
|  5>
|  6> * xyz 0 1
|  7> S 	 -31.3877 	 37.2187 	 101.361
|  8> C 	 -32.2699 	 35.7157 	 101.263
|  9> C 	 -33.6729 	 35.9319 	 101.139
| 10> C 	 -33.994 	 37.2891 	 101.278
| 11> C 	 -32.8649 	 38.0904 	 101.509
| 12> H 	 -34.9635 	 37.8239 	 101.314
| 13> C 	 -34.742 	 34.7924 	 100.944
| 14> H 	 -35.7475 	 35.1558 	 101.255
| 15> H 	 -34.4847 	 34.0867 	 101.697
| 16> C 	 -34.6946 	 34.0647 	 99.5722
| 17> H 	 -34.7326 	 34.8057 	 98.7861
| 18> H 	 -33.7735 	 33.4706 	 99.5324
| 19> C 	 -35.9753 	 33.0955 	 99.4528
| 20> H 	 -35.9794 	 32.5485 	 98.552
| 21> H 	 -36.0277 	 32.3756 	 100.315
| 22> H 	 -36.9144 	 33.618 	 99.4544
| 23> S 	 -31.5689 	 40.3218 	 100.485
| 24> C 	 -31.8116 	 41.8961 	 101.252
| 25> C 	 -32.7299 	 41.7039 	 102.233
| 26> C 	 -33.3604 	 40.4359 	 102.413
| 27> C 	 -32.7528 	 39.5373 	 101.532
| 28> H 	 -32.9574 	 42.5395 	 102.912
| 29> C 	 -34.2478 	 40.0336 	 103.537
| 30> H 	 -34.2569 	 40.8019 	 104.299
| 31> H 	 -33.8345 	 39.1708 	 104.055
| 32> C 	 -35.7646 	 39.7685 	 103.301
| 33> H 	 -35.7835 	 39.4645 	 102.275
| 34> H 	 -36.4042 	 40.6522 	 103.32
| 35> C 	 -36.2268 	 38.568 	 104.139
| 36> H 	 -37.2305 	 38.2243 	 103.776
| 37> H 	 -36.1793 	 38.8184 	 105.239
| 38> H 	 -35.497 	 37.7665 	 103.93
| 39> H 	 -31.8657 	 34.6909 	 101.267
| 40> H 	 -31.1652 	 42.8228 	 101.072
| 41> *
| 42>
| 43>                          ****END OF INPUT****

CARTESIAN COORDINATES (ANGSTROEM)
---------------------------------
  S    -31.387700   37.218700  101.361000
  C    -32.269900   35.715700  101.263000
  C    -33.672900   35.931900  101.139000
  C    -33.994000   37.289100  101.278000
  C    -32.864900   38.090400  101.509000
  H    -34.963500   37.823900  101.314000
  C    -34.742000   34.792400  100.944000
  H    -35.747500   35.155800  101.255000
  H    -34.484700   34.086700  101.697000
  C    -34.694600   34.064700   99.572200
  H    -34.732600   34.805700   98.786100
  H    -33.773500   33.470600   99.532400
  C    -35.975300   33.095500   99.452800
  H    -35.979400   32.548500   98.552000
  H    -36.027700   32.375600  100.315000
  H    -36.914400   33.618000   99.454400
  S    -31.568900   40.321800  100.485000
  C    -31.811600   41.896100  101.252000
  C    -32.729900   41.703900  102.233000
  C    -33.360400   40.435900  102.413000
  C    -32.752800   39.537300  101.532000
  H    -32.957400   42.539500  102.912000
  C    -34.247800   40.033600  103.537000
  H    -34.256900   40.801900  104.299000
  H    -33.834500   39.170800  104.055000
  C    -35.764600   39.768500  103.301000
  H    -35.783500   39.464500  102.275000
  H    -36.404200   40.652200  103.320000
  C    -36.226800   38.568000  104.139000
  H    -37.230500   38.224300  103.776000
  H    -36.179300   38.818400  105.239000
  H    -35.497000   37.766500  103.930000
  H    -31.865700   34.690900  101.267000
  H    -31.165200   42.822800  101.072000

 Total Charge           Charge          ....    0
 Multiplicity           Mult            ....    1
 Number of Electrons    NEL             ....  134
 Basis Dimension        Dim             ....  322

ORBITAL ENERGIES
----------------

  NO   OCC          E(Eh)            E(eV)
   0   2.0000     -88.972985     -2421.0780
   1   2.0000     -88.963780     -2420.8275
   2   2.0000     -10.327424      -281.0235
   3   2.0000     -10.326748      -281.0051
   4   2.0000     -10.320434      -280.8333
   5   2.0000     -10.319508      -280.8081
   6   2.0000     -10.308762      -280.5157
   7   2.0000     -10.300618      -280.2941
   8   2.0000     -10.299031      -280.2509
   9   2.0000     -10.297737      -280.2157
  10   2.0000     -10.296625      -280.1854
  11   2.0000     -10.292656      -280.0774
  12   2.0000     -10.288695      -279.9696
  13   2.0000     -10.287743      -279.9437
  14   2.0000     -10.284236      -279.8483
  15   2.0000     -10.282272      -279.7949
  16   2.0000      -8.087789      -220.0799
  17   2.0000      -8.078096      -219.8162
  18   2.0000      -6.046121      -164.5233
  19   2.0000      -6.042226      -164.4173
  20   2.0000      -6.038765      -164.3232
  21   2.0000      -6.036717      -164.2674
  22   2.0000      -6.032620      -164.1559
  23   2.0000      -6.028786      -164.0516
  24   2.0000      -1.009526       -27.4706
  25   2.0000      -0.983062       -26.7505
  26   2.0000      -0.910483       -24.7755
  27   2.0000      -0.903473       -24.5847
  28   2.0000      -0.865084       -23.5401
  29   2.0000      -0.852642       -23.2016
  30   2.0000      -0.846245       -23.0275
  31   2.0000      -0.809805       -22.0359
  32   2.0000      -0.780473       -21.2378
  33   2.0000      -0.767859       -20.8945
  34   2.0000      -0.706662       -19.2292
  35   2.0000      -0.703489       -19.1429
  36   2.0000      -0.693359       -18.8673
  37   2.0000      -0.659024       -17.9330
  38   2.0000      -0.639897       -17.4125
  39   2.0000      -0.613829       -16.7031
  40   2.0000      -0.598567       -16.2878
  41   2.0000      -0.565497       -15.3880
  42   2.0000      -0.562035       -15.2938
  43   2.0000      -0.554814       -15.0973
  44   2.0000      -0.524711       -14.2781
  45   2.0000      -0.521205       -14.1827
  46   2.0000      -0.517613       -14.0850
  47   2.0000      -0.510184       -13.8828
  48   2.0000      -0.505898       -13.7662
  49   2.0000      -0.493560       -13.4304
  50   2.0000      -0.491707       -13.3800
  51   2.0000      -0.479195       -13.0396
  52   2.0000      -0.469536       -12.7767
  53   2.0000      -0.466746       -12.7008
  54   2.0000      -0.456283       -12.4161
  55   2.0000      -0.447544       -12.1783
  56   2.0000      -0.444553       -12.0969
  57   2.0000      -0.441497       -12.0137
  58   2.0000      -0.434738       -11.8298
  59   2.0000      -0.430107       -11.7038
  60   2.0000      -0.422254       -11.4901
  61   2.0000      -0.419024       -11.4022
  62   2.0000      -0.408433       -11.1140
  63   2.0000      -0.347291        -9.4503
  64   2.0000      -0.337326        -9.1791
  65   2.0000      -0.329503        -8.9662
  66   2.0000      -0.287082        -7.8119
  67   0.0000       0.023926         0.6511
  68   0.0000       0.066310         1.8044
  69   0.0000       0.109911         2.9908
  70   0.0000       0.126270         3.4360
  71   0.0000       0.132110         3.5949

MULLIKEN ATOMIC CHARGES
-----------------------
   0 S :    0.135211
   1 C :   -0.124677
   2 C :   -0.089847
   3 C :    0.034220
   4 C :   -0.180895
   5 H :    0.016428
   6 C :    0.057860
   7 H :    0.026756
   8 H :    0.021312
   9 C :   -0.062988
  10 H :    0.040232
  11 H :    0.038417
  12 C :   -0.055662
  13 H :    0.028997
  14 H :    0.033377
  15 H :    0.028213
  16 S :    0.092482
  17 C :   -0.123422
  18 C :   -0.041272
  19 C :   -0.005346
  20 C :   -0.163987
  21 H :    0.018435
  22 C :    0.044322
  23 H :    0.011987
  24 H :    0.036954
  25 C :   -0.045219
  26 H :    0.003531
  27 H :    0.033882
  28 C :   -0.088085
  29 H :    0.043657
  30 H :    0.049963
  31 H :    0.040108
  32 H :    0.053765
  33 H :    0.091291
Sum of atomic charges:   -0.0000000

LOEWDIN ATOMIC CHARGES
----------------------
   0 S :    0.440258
   1 C :   -0.212238
   2 C :   -0.059451
   3 C :   -0.067031
   4 C :   -0.205561
   5 H :    0.037489
   6 C :   -0.030606
   7 H :    0.030817
   8 H :    0.026729
   9 C :   -0.028177
  10 H :    0.023727
  11 H :    0.026310
  12 C :   -0.065880
  13 H :    0.018851
  14 H :    0.029194
  15 H :    0.022343
  16 S :    0.384087
  17 C :   -0.205331
  18 C :   -0.071757
  19 C :   -0.067155
  20 C :   -0.187997
  21 H :    0.030306
  22 C :   -0.033730
  23 H :    0.030076
  24 H :    0.036101
  25 C :   -0.040305
  26 H :    0.011690
  27 H :    0.023726
  28 C :   -0.069191
  29 H :    0.030263
  30 H :    0.031001
  31 H :    0.026182
  32 H :    0.031824
  33 H :    0.053436

  Mayer bond orders larger than 0.100000
B(  0-S ,  1-C ) :   1.1606 B(  0-S ,  4-C ) :   1.1742 B(  1-C ,  2-C ) :   1.5608
B(  1-C ,  4-C ) :   0.1113 B(  1-C , 32-H ) :   0.9673 B(  2-C ,  3-C ) :   1.2889
B(  2-C ,  6-C ) :   1.0021 B(  3-C ,  4-C ) :   1.5234 B(  3-C ,  5-H ) :   0.9841
B(  4-C , 20-C ) :   1.0516 B(  6-C ,  7-H ) :   0.9548 B(  6-C ,  8-H ) :   0.9384
B(  6-C ,  9-C ) :   1.0516 B(  9-C , 10-H ) :   0.9638 B(  9-C , 11-H ) :   0.9575
B(  9-C , 12-C ) :   1.0705 B( 12-C , 13-H ) :   0.9779 B( 12-C , 14-H ) :   0.9772
B( 12-C , 15-H ) :   0.9782 B( 16-S , 17-C ) :   1.1165 B( 16-S , 20-C ) :   1.1558
B( 17-C , 18-C ) :   1.6234 B( 17-C , 33-H ) :   0.9595 B( 18-C , 19-C ) :   1.2589
B( 18-C , 21-H ) :   0.9772 B( 19-C , 20-C ) :   1.5523 B( 19-C , 22-C ) :   1.0671
B( 22-C , 23-H ) :   0.9259 B( 22-C , 24-H ) :   0.9366 B( 22-C , 25-C ) :   1.0368
B( 25-C , 26-H ) :   0.9624 B( 25-C , 27-H ) :   0.9495 B( 25-C , 28-C ) :   1.0726
B( 28-C , 29-H ) :   0.9726 B( 28-C , 30-H ) :   0.9759 B( 28-C , 31-H ) :   0.9725

Dispersion correction           -0.014528142
FINAL SINGLE POINT ENERGY     -1339.872926440138

DIPOLE MOMENT
-------------
                                X             Y             Z
Electronic contribution:     25.06459      15.46583      -5.46773
Nuclear contribution   :    -25.48354     -15.69312       5.71625
                        -----------------------------------------
Total Dipole Moment    :     -0.41895      -0.22729       0.24852
                        -----------------------------------------
Magnitude (a.u.)       :      0.53753
Magnitude (Debye)      :      1.36630

Rotational constants in cm-1:     0.019810     0.008314     0.006496
Rotational constants in MHz :   593.898452   249.238885   194.752939

                             ****ORCA TERMINATED NORMALLY****
TOTAL RUN TIME: 0 days 0 hours 0 minutes 30 seconds 35 msec
