                         Program Version 4.2.1 -  RELEASE  -
|  1> ! wB97X-D3 SP def2-SVP
|  2> %pal
|  3> nprocs 16
|  4> end
|  5>
|  6> * xyz 0 1
|  7> S 	 -3.39037 	 -12.7244 	 70.1564
|  8> C 	 -5.09883 	 -12.9895 	 70.596
|  9> C 	 -5.84875 	 -11.7855 	 70.333
| 10> C 	 -5.03148 	 -10.7734 	 69.8166
| 11> C 	 -3.69974 	 -11.119 	 69.6418
| 12> H 	 -5.3156 	 -9.71172 	 69.6482
| 13> C 	 -7.22618 	 -11.5606 	 70.8048
| 14> H 	 -7.43264 	 -10.4844 	 70.628
| 15> H 	 -7.29519 	 -11.8524 	 71.892
| 16> C 	 -8.24832 	 -12.2967 	 69.9025
| 17> H 	 -8.18675 	 -12.0391 	 68.8204
| 18> H 	 -8.05378 	 -13.3298 	 69.8615
| 19> C 	 -9.68178 	 -11.9522 	 70.251
| 20> H 	 -9.86306 	 -12.1531 	 71.2732
| 21> H 	 -9.91117 	 -10.9345 	 70.0435
| 22> H 	 -10.3864 	 -12.5098 	 69.698
| 23> S 	 -2.06947 	 -8.9119 	 70.0519
| 24> C 	 -0.922373 	 -8.49988 	 68.7921
| 25> C 	 -0.910709 	 -9.35483 	 67.6998
| 26> C 	 -1.82243 	 -10.4275 	 67.9127
| 27> C 	 -2.60966 	 -10.2948 	 69.0649
| 28> H 	 -0.123926 	 -9.22619 	 66.9289
| 29> C 	 -1.97159 	 -11.4888 	 66.8812
| 30> H 	 -1.80834 	 -11.0804 	 65.9008
| 31> H 	 -2.96681 	 -11.7012 	 66.8073
| 32> C 	 -1.1049 	 -12.7171 	 67.0626
| 33> H 	 -1.30882 	 -13.2789 	 67.9502
| 34> H 	 -0.0734182 	 -12.38 	 67.3075
| 35> C 	 -1.03924 	 -13.6156 	 65.8127
| 36> H 	 -2.08448 	 -13.9756 	 65.6737
| 37> H 	 -0.399543 	 -14.5528 	 65.9045
| 38> H 	 -0.706124 	 -13.0836 	 64.9164
| 39> H 	 -5.32178 	 -13.8576 	 71.2229
| 40> H 	 -0.154623 	 -7.73284 	 68.9886
| 41> *
| 42>
| 43>                          ****END OF INPUT****

CARTESIAN COORDINATES (ANGSTROEM)
---------------------------------
  S     -3.390370  -12.724400   70.156400
  C     -5.098830  -12.989500   70.596000
  C     -5.848750  -11.785500   70.333000
  C     -5.031480  -10.773400   69.816600
  C     -3.699740  -11.119000   69.641800
  H     -5.315600   -9.711720   69.648200
  C     -7.226180  -11.560600   70.804800
  H     -7.432640  -10.484400   70.628000
  H     -7.295190  -11.852400   71.892000
  C     -8.248320  -12.296700   69.902500
  H     -8.186750  -12.039100   68.820400
  H     -8.053780  -13.329800   69.861500
  C     -9.681780  -11.952200   70.251000
  H     -9.863060  -12.153100   71.273200
  H     -9.911170  -10.934500   70.043500
  H    -10.386400  -12.509800   69.698000
  S     -2.069470   -8.911900   70.051900
  C     -0.922373   -8.499880   68.792100
  C     -0.910709   -9.354830   67.699800
  C     -1.822430  -10.427500   67.912700
  C     -2.609660  -10.294800   69.064900
  H     -0.123926   -9.226190   66.928900
  C     -1.971590  -11.488800   66.881200
  H     -1.808340  -11.080400   65.900800
  H     -2.966810  -11.701200   66.807300
  C     -1.104900  -12.717100   67.062600
  H     -1.308820  -13.278900   67.950200
  H     -0.073418  -12.380000   67.307500
  C     -1.039240  -13.615600   65.812700
  H     -2.084480  -13.975600   65.673700
  H     -0.399543  -14.552800   65.904500
  H     -0.706124  -13.083600   64.916400
  H     -5.321780  -13.857600   71.222900
  H     -0.154623   -7.732840   68.988600

 Total Charge           Charge          ....    0
 Multiplicity           Mult            ....    1
 Number of Electrons    NEL             ....  134
 Basis Dimension        Dim             ....  322

ORBITAL ENERGIES
----------------

  NO   OCC          E(Eh)            E(eV)
   0   2.0000     -88.968007     -2420.9426
   1   2.0000     -88.966519     -2420.9021
   2   2.0000     -10.329599      -281.0827
   3   2.0000     -10.328145      -281.0431
   4   2.0000     -10.321148      -280.8527
   5   2.0000     -10.319684      -280.8129
   6   2.0000     -10.305255      -280.4202
   7   2.0000     -10.304183      -280.3911
   8   2.0000     -10.297377      -280.2059
   9   2.0000     -10.296843      -280.1914
  10   2.0000     -10.294415      -280.1253
  11   2.0000     -10.283129      -279.8182
  12   2.0000     -10.282095      -279.7900
  13   2.0000     -10.281150      -279.7643
  14   2.0000     -10.275746      -279.6173
  15   2.0000     -10.264978      -279.3243
  16   2.0000      -8.082342      -219.9317
  17   2.0000      -8.080803      -219.8898
  18   2.0000      -6.040608      -164.3733
  19   2.0000      -6.039181      -164.3345
  20   2.0000      -6.036687      -164.2666
  21   2.0000      -6.035462      -164.2333
  22   2.0000      -6.033611      -164.1829
  23   2.0000      -6.031651      -164.1296
  24   2.0000      -1.002995       -27.2929
  25   2.0000      -0.981358       -26.7041
  26   2.0000      -0.915625       -24.9154
  27   2.0000      -0.910880       -24.7863
  28   2.0000      -0.865107       -23.5408
  29   2.0000      -0.852232       -23.1904
  30   2.0000      -0.846909       -23.0456
  31   2.0000      -0.812061       -22.0973
  32   2.0000      -0.783333       -21.3156
  33   2.0000      -0.765354       -20.8263
  34   2.0000      -0.705901       -19.2085
  35   2.0000      -0.702491       -19.1157
  36   2.0000      -0.689791       -18.7702
  37   2.0000      -0.662105       -18.0168
  38   2.0000      -0.641325       -17.4513
  39   2.0000      -0.616803       -16.7841
  40   2.0000      -0.598358       -16.2822
  41   2.0000      -0.570440       -15.5225
  42   2.0000      -0.562898       -15.3172
  43   2.0000      -0.554287       -15.0829
  44   2.0000      -0.525006       -14.2861
  45   2.0000      -0.523317       -14.2402
  46   2.0000      -0.515821       -14.0362
  47   2.0000      -0.512215       -13.9381
  48   2.0000      -0.509691       -13.8694
  49   2.0000      -0.500032       -13.6066
  50   2.0000      -0.492301       -13.3962
  51   2.0000      -0.472241       -12.8503
  52   2.0000      -0.469258       -12.7692
  53   2.0000      -0.459281       -12.4977
  54   2.0000      -0.455966       -12.4075
  55   2.0000      -0.454378       -12.3643
  56   2.0000      -0.447921       -12.1885
  57   2.0000      -0.438048       -11.9199
  58   2.0000      -0.434285       -11.8175
  59   2.0000      -0.423960       -11.5365
  60   2.0000      -0.422870       -11.5069
  61   2.0000      -0.414419       -11.2769
  62   2.0000      -0.405795       -11.0422
  63   2.0000      -0.337169        -9.1748
  64   2.0000      -0.335386        -9.1263
  65   2.0000      -0.325924        -8.8689
  66   2.0000      -0.295197        -8.0327
  67   0.0000       0.034699         0.9442
  68   0.0000       0.054632         1.4866
  69   0.0000       0.106509         2.8983
  70   0.0000       0.115828         3.1519
  71   0.0000       0.122551         3.3348

MULLIKEN ATOMIC CHARGES
-----------------------
   0 S :    0.120185
   1 C :   -0.152930
   2 C :   -0.068189
   3 C :    0.028648
   4 C :   -0.172498
   5 H :    0.025529
   6 C :    0.051722
   7 H :    0.024782
   8 H :    0.056710
   9 C :   -0.098892
  10 H :    0.028131
  11 H :    0.016323
  12 C :    0.020190
  13 H :    0.011443
  14 H :    0.019135
  15 H :    0.016876
  16 S :    0.106368
  17 C :   -0.109362
  18 C :   -0.036387
  19 C :   -0.038285
  20 C :   -0.171054
  21 H :    0.039738
  22 C :    0.128262
  23 H :   -0.000513
  24 H :   -0.001000
  25 C :   -0.052855
  26 H :    0.016833
  27 H :    0.015083
  28 C :   -0.072968
  29 H :    0.034132
  30 H :    0.046229
  31 H :    0.035533
  32 H :    0.066538
  33 H :    0.066541
Sum of atomic charges:   -0.0000000

LOEWDIN ATOMIC CHARGES
----------------------
   0 S :    0.429049
   1 C :   -0.203056
   2 C :   -0.058554
   3 C :   -0.073005
   4 C :   -0.213087
   5 H :    0.039260
   6 C :   -0.033169
   7 H :    0.034867
   8 H :    0.042864
   9 C :   -0.039193
  10 H :    0.031249
  11 H :    0.013931
  12 C :   -0.055846
  13 H :    0.017322
  14 H :    0.021429
  15 H :    0.021731
  16 S :    0.394373
  17 C :   -0.181817
  18 C :   -0.075722
  19 C :   -0.047313
  20 C :   -0.196082
  21 H :    0.042686
  22 C :   -0.029128
  23 H :    0.030271
  24 H :    0.019815
  25 C :   -0.041633
  26 H :    0.014773
  27 H :    0.022724
  28 C :   -0.072151
  29 H :    0.028047
  30 H :    0.033762
  31 H :    0.023020
  32 H :    0.028283
  33 H :    0.030301

  Mayer bond orders larger than 0.100000
B(  0-S ,  1-C ) :   1.1617 B(  0-S ,  4-C ) :   1.1941 B(  1-C ,  2-C ) :   1.5152
B(  1-C ,  4-C ) :   0.1172 B(  1-C , 32-H ) :   0.9731 B(  2-C ,  3-C ) :   1.3052
B(  2-C ,  6-C ) :   1.0279 B(  3-C ,  4-C ) :   1.5415 B(  3-C ,  5-H ) :   0.9847
B(  4-C , 20-C ) :   0.9923 B(  6-C ,  7-H ) :   0.9429 B(  6-C ,  8-H ) :   0.9396
B(  6-C ,  9-C ) :   1.0504 B(  9-C , 10-H ) :   0.9554 B(  9-C , 11-H ) :   0.9601
B(  9-C , 12-C ) :   1.0892 B( 12-C , 13-H ) :   0.9709 B( 12-C , 14-H ) :   0.9733
B( 12-C , 15-H ) :   0.9700 B( 16-S , 17-C ) :   1.1662 B( 16-S , 20-C ) :   1.1359
B( 17-C , 18-C ) :   1.6114 B( 17-C , 20-C ) :   0.1005 B( 17-C , 33-H ) :   0.9602
B( 18-C , 19-C ) :   1.2364 B( 18-C , 21-H ) :   0.9851 B( 19-C , 20-C ) :   1.6062
B( 19-C , 22-C ) :   1.0491 B( 22-C , 23-H ) :   0.9324 B( 22-C , 24-H ) :   0.9162
B( 22-C , 25-C ) :   1.0510 B( 25-C , 26-H ) :   0.9474 B( 25-C , 27-H ) :   0.9553
B( 25-C , 28-C ) :   1.0782 B( 28-C , 29-H ) :   0.9747 B( 28-C , 30-H ) :   0.9748
B( 28-C , 31-H ) :   0.9757

Dispersion correction           -0.013993754
FINAL SINGLE POINT ENERGY     -1339.875414315887

DIPOLE MOMENT
-------------
                                X             Y             Z
Electronic contribution:     14.17830      10.63791      10.97362
Nuclear contribution   :    -14.35489     -10.68467     -11.09761
                        -----------------------------------------
Total Dipole Moment    :     -0.17659      -0.04676      -0.12399
                        -----------------------------------------
Magnitude (a.u.)       :      0.22078
Magnitude (Debye)      :      0.56118

Rotational constants in cm-1:     0.019952     0.007544     0.006261
Rotational constants in MHz :   598.156067   226.165968   187.697148

                             ****ORCA TERMINATED NORMALLY****
TOTAL RUN TIME: 0 days 0 hours 0 minutes 33 seconds 367 msec
