                         Program Version 4.2.1 -  RELEASE  -
|  1> ! wB97X-D3 SP def2-SVP
|  2> %pal
|  3> nprocs 16
|  4> end
|  5>
|  6> * xyz 0 1
|  7> S 	 -12.1794 	 52.8454 	 33.0794
|  8> C 	 -10.9568 	 52.6492 	 31.8306
|  9> C 	 -10.1116 	 51.658 	 32.2569
| 10> C 	 -10.5301 	 50.872 	 33.3555
| 11> C 	 -11.6467 	 51.4464 	 33.9667
| 12> H 	 -10.0548 	 49.9793 	 33.7309
| 13> C 	 -8.93856 	 51.1982 	 31.4891
| 14> H 	 -8.25395 	 50.744 	 32.2856
| 15> H 	 -8.46907 	 52.1051 	 31.1235
| 16> C 	 -9.27903 	 50.1828 	 30.3567
| 17> H 	 -9.86582 	 49.3179 	 30.6795
| 18> H 	 -9.92779 	 50.7394 	 29.6395
| 19> C 	 -8.07139 	 49.5344 	 29.7228
| 20> H 	 -7.67597 	 48.8131 	 30.3432
| 21> H 	 -8.01285 	 49.0887 	 28.739
| 22> H 	 -7.26287 	 50.2561 	 29.7867
| 23> S 	 -12.7995 	 52.2721 	 36.3025
| 24> C 	 -13.0678 	 51.1104 	 37.6637
| 25> C 	 -13.0306 	 49.8245 	 37.1581
| 26> C 	 -12.4778 	 49.7373 	 35.8413
| 27> C 	 -12.2804 	 50.9931 	 35.1974
| 28> H 	 -13.2313 	 48.9626 	 37.7936
| 29> C 	 -12.2833 	 48.3869 	 35.1721
| 30> H 	 -12.4198 	 47.5342 	 35.7787
| 31> H 	 -11.2522 	 48.3464 	 34.8
| 32> C 	 -13.2854 	 48.2325 	 33.9885
| 33> H 	 -13.247 	 49.1148 	 33.3613
| 34> H 	 -14.2559 	 48.1585 	 34.4295
| 35> C 	 -12.8372 	 46.9779 	 33.1417
| 36> H 	 -12.7584 	 46.0292 	 33.7833
| 37> H 	 -11.9341 	 47.0861 	 32.6231
| 38> H 	 -13.5863 	 46.8343 	 32.3738
| 39> H 	 -10.6159 	 53.2192 	 30.9304
| 40> H 	 -13.5887 	 51.4234 	 38.58
| 41> *
| 42>
| 43>                          ****END OF INPUT****

CARTESIAN COORDINATES (ANGSTROEM)
---------------------------------
  S    -12.179400   52.845400   33.079400
  C    -10.956800   52.649200   31.830600
  C    -10.111600   51.658000   32.256900
  C    -10.530100   50.872000   33.355500
  C    -11.646700   51.446400   33.966700
  H    -10.054800   49.979300   33.730900
  C     -8.938560   51.198200   31.489100
  H     -8.253950   50.744000   32.285600
  H     -8.469070   52.105100   31.123500
  C     -9.279030   50.182800   30.356700
  H     -9.865820   49.317900   30.679500
  H     -9.927790   50.739400   29.639500
  C     -8.071390   49.534400   29.722800
  H     -7.675970   48.813100   30.343200
  H     -8.012850   49.088700   28.739000
  H     -7.262870   50.256100   29.786700
  S    -12.799500   52.272100   36.302500
  C    -13.067800   51.110400   37.663700
  C    -13.030600   49.824500   37.158100
  C    -12.477800   49.737300   35.841300
  C    -12.280400   50.993100   35.197400
  H    -13.231300   48.962600   37.793600
  C    -12.283300   48.386900   35.172100
  H    -12.419800   47.534200   35.778700
  H    -11.252200   48.346400   34.800000
  C    -13.285400   48.232500   33.988500
  H    -13.247000   49.114800   33.361300
  H    -14.255900   48.158500   34.429500
  C    -12.837200   46.977900   33.141700
  H    -12.758400   46.029200   33.783300
  H    -11.934100   47.086100   32.623100
  H    -13.586300   46.834300   32.373800
  H    -10.615900   53.219200   30.930400
  H    -13.588700   51.423400   38.580000

 Total Charge           Charge          ....    0
 Multiplicity           Mult            ....    1
 Number of Electrons    NEL             ....  134
 Basis Dimension        Dim             ....  322

ORBITAL ENERGIES
----------------

  NO   OCC          E(Eh)            E(eV)
   0   2.0000     -88.972263     -2421.0584
   1   2.0000     -88.963857     -2420.8296
   2   2.0000     -10.335993      -281.2567
   3   2.0000     -10.335518      -281.2437
   4   2.0000     -10.324429      -280.9420
   5   2.0000     -10.317258      -280.7469
   6   2.0000     -10.309824      -280.5446
   7   2.0000     -10.299868      -280.2737
   8   2.0000     -10.295546      -280.1561
   9   2.0000     -10.294133      -280.1176
  10   2.0000     -10.293755      -280.1073
  11   2.0000     -10.293371      -280.0969
  12   2.0000     -10.288770      -279.9717
  13   2.0000     -10.284650      -279.8596
  14   2.0000     -10.280010      -279.7333
  15   2.0000     -10.268697      -279.4255
  16   2.0000      -8.086448      -220.0434
  17   2.0000      -8.077635      -219.8036
  18   2.0000      -6.045218      -164.4987
  19   2.0000      -6.040891      -164.3810
  20   2.0000      -6.037073      -164.2771
  21   2.0000      -6.036331      -164.2569
  22   2.0000      -6.032248      -164.1458
  23   2.0000      -6.028272      -164.0376
  24   2.0000      -1.008382       -27.4395
  25   2.0000      -0.981347       -26.7038
  26   2.0000      -0.916041       -24.9267
  27   2.0000      -0.904305       -24.6074
  28   2.0000      -0.873395       -23.7663
  29   2.0000      -0.854101       -23.2413
  30   2.0000      -0.841229       -22.8910
  31   2.0000      -0.817630       -22.2488
  32   2.0000      -0.779023       -21.1983
  33   2.0000      -0.768136       -20.9021
  34   2.0000      -0.712036       -19.3755
  35   2.0000      -0.708344       -19.2750
  36   2.0000      -0.696324       -18.9479
  37   2.0000      -0.664984       -18.0951
  38   2.0000      -0.634513       -17.2660
  39   2.0000      -0.621834       -16.9210
  40   2.0000      -0.594153       -16.1677
  41   2.0000      -0.569794       -15.5049
  42   2.0000      -0.567003       -15.4289
  43   2.0000      -0.555792       -15.1239
  44   2.0000      -0.529273       -14.4022
  45   2.0000      -0.520482       -14.1630
  46   2.0000      -0.517473       -14.0811
  47   2.0000      -0.509134       -13.8542
  48   2.0000      -0.506276       -13.7765
  49   2.0000      -0.504826       -13.7370
  50   2.0000      -0.495882       -13.4936
  51   2.0000      -0.488406       -13.2902
  52   2.0000      -0.477577       -12.9955
  53   2.0000      -0.464990       -12.6530
  54   2.0000      -0.459396       -12.5008
  55   2.0000      -0.447329       -12.1725
  56   2.0000      -0.442353       -12.0370
  57   2.0000      -0.435228       -11.8432
  58   2.0000      -0.432107       -11.7582
  59   2.0000      -0.429265       -11.6809
  60   2.0000      -0.417008       -11.3474
  61   2.0000      -0.414978       -11.2921
  62   2.0000      -0.408875       -11.1261
  63   2.0000      -0.357095        -9.7171
  64   2.0000      -0.333978        -9.0880
  65   2.0000      -0.325922        -8.8688
  66   2.0000      -0.286083        -7.7847
  67   0.0000       0.016377         0.4456
  68   0.0000       0.068722         1.8700
  69   0.0000       0.101214         2.7542
  70   0.0000       0.117969         3.2101
  71   0.0000       0.125323         3.4102

MULLIKEN ATOMIC CHARGES
-----------------------
   0 S :    0.118724
   1 C :   -0.110739
   2 C :   -0.108949
   3 C :    0.010055
   4 C :   -0.110469
   5 H :    0.011220
   6 C :    0.016553
   7 H :    0.034408
   8 H :    0.025995
   9 C :   -0.053349
  10 H :    0.030778
  11 H :    0.028808
  12 C :   -0.002410
  13 H :    0.001598
  14 H :    0.039520
  15 H :    0.006127
  16 S :    0.072447
  17 C :   -0.101972
  18 C :   -0.025722
  19 C :   -0.057463
  20 C :   -0.134760
  21 H :    0.030022
  22 C :    0.070592
  23 H :    0.005339
  24 H :    0.019048
  25 C :   -0.069981
  26 H :    0.044106
  27 H :    0.028076
  28 C :   -0.047209
  29 H :    0.035998
  30 H :    0.023322
  31 H :    0.031707
  32 H :    0.062943
  33 H :    0.075636
Sum of atomic charges:   -0.0000000

LOEWDIN ATOMIC CHARGES
----------------------
   0 S :    0.414761
   1 C :   -0.214908
   2 C :   -0.070495
   3 C :   -0.063197
   4 C :   -0.191361
   5 H :    0.030701
   6 C :   -0.036481
   7 H :    0.036603
   8 H :    0.028277
   9 C :   -0.037386
  10 H :    0.026048
  11 H :    0.026923
  12 C :   -0.071939
  13 H :    0.016171
  14 H :    0.029998
  15 H :    0.024130
  16 S :    0.374343
  17 C :   -0.173560
  18 C :   -0.069159
  19 C :   -0.055249
  20 C :   -0.188633
  21 H :    0.035662
  22 C :   -0.029382
  23 H :    0.020873
  24 H :    0.026661
  25 C :   -0.025065
  26 H :    0.025053
  27 H :    0.021711
  28 C :   -0.065541
  29 H :    0.030982
  30 H :    0.015753
  31 H :    0.024734
  32 H :    0.048181
  33 H :    0.034792

  Mayer bond orders larger than 0.100000
B(  0-S ,  1-C ) :   1.1119 B(  0-S ,  4-C ) :   1.1572 B(  1-C ,  2-C ) :   1.6136
B(  1-C , 32-H ) :   0.9587 B(  2-C ,  3-C ) :   1.2464 B(  2-C ,  6-C ) :   1.0435
B(  3-C ,  4-C ) :   1.5370 B(  3-C ,  5-H ) :   0.9972 B(  4-C , 20-C ) :   1.0636
B(  6-C ,  7-H ) :   0.9427 B(  6-C ,  8-H ) :   0.9296 B(  6-C ,  9-C ) :   1.0567
B(  9-C , 10-H ) :   0.9640 B(  9-C , 11-H ) :   0.9538 B(  9-C , 12-C ) :   1.0654
B( 12-C , 13-H ) :   0.9698 B( 12-C , 14-H ) :   0.9749 B( 12-C , 15-H ) :   0.9686
B( 16-S , 17-C ) :   1.1447 B( 16-S , 20-C ) :   1.1367 B( 17-C , 18-C ) :   1.5964
B( 17-C , 20-C ) :   0.1116 B( 17-C , 33-H ) :   0.9613 B( 18-C , 19-C ) :   1.2693
B( 18-C , 21-H ) :   0.9820 B( 19-C , 20-C ) :   1.5489 B( 19-C , 22-C ) :   1.0461
B( 22-C , 23-H ) :   0.9375 B( 22-C , 24-H ) :   0.9362 B( 22-C , 25-C ) :   1.0546
B( 25-C , 26-H ) :   0.9611 B( 25-C , 27-H ) :   0.9575 B( 25-C , 28-C ) :   1.0726
B( 28-C , 29-H ) :   0.9745 B( 28-C , 30-H ) :   0.9769 B( 28-C , 31-H ) :   0.9744

Dispersion correction           -0.014439018
FINAL SINGLE POINT ENERGY     -1339.858317310659

DIPOLE MOMENT
-------------
                                X             Y             Z
Electronic contribution:    -11.47918      23.44356      17.39173
Nuclear contribution   :     11.75801     -24.09810     -17.56456
                        -----------------------------------------
Total Dipole Moment    :      0.27883      -0.65454      -0.17283
                        -----------------------------------------
Magnitude (a.u.)       :      0.73215
Magnitude (Debye)      :      1.86097

Rotational constants in cm-1:     0.019110     0.008942     0.006787
Rotational constants in MHz :   572.910971   268.064931   203.472772

                             ****ORCA TERMINATED NORMALLY****
TOTAL RUN TIME: 0 days 0 hours 0 minutes 34 seconds 595 msec
