                         Program Version 4.2.1 -  RELEASE  -
|  1> ! wB97X-D3 SP def2-SVP
|  2> %pal
|  3> nprocs 16
|  4> end
|  5>
|  6> * xyz 0 1
|  7> S 	 4.71999 	 76.2038 	 47.9881
|  8> C 	 4.17654 	 74.7456 	 47.1492
|  9> C 	 5.34797 	 74.2602 	 46.5226
| 10> C 	 6.54839 	 74.925 	 46.8945
| 11> C 	 6.4691 	 75.9441 	 47.739
| 12> H 	 7.46612 	 74.5702 	 46.4969
| 13> C 	 5.34703 	 73.0674 	 45.6624
| 14> H 	 6.37215 	 73.01 	 45.3249
| 15> H 	 4.79247 	 73.225 	 44.7061
| 16> C 	 4.86584 	 71.7628 	 46.3496
| 17> H 	 5.46339 	 71.6345 	 47.2568
| 18> H 	 3.85398 	 71.8731 	 46.6491
| 19> C 	 5.12427 	 70.6184 	 45.4843
| 20> H 	 6.14754 	 70.637 	 45.1475
| 21> H 	 4.98692 	 69.6763 	 46.1204
| 22> H 	 4.35527 	 70.6902 	 44.6647
| 23> S 	 7.39498 	 78.3026 	 46.9473
| 24> C 	 9.05064 	 78.8137 	 47.2463
| 25> C 	 9.58138 	 78.0351 	 48.2423
| 26> C 	 8.75369 	 76.8994 	 48.6014
| 27> C 	 7.53635 	 76.9274 	 47.9897
| 28> H 	 10.4935 	 78.3415 	 48.5846
| 29> C 	 9.08236 	 75.8717 	 49.6768
| 30> H 	 10.21 	 76.034 	 49.7212
| 31> H 	 8.8606 	 74.894 	 49.3689
| 32> C 	 8.26691 	 75.9193 	 50.9849
| 33> H 	 8.37013 	 75.0053 	 51.5463
| 34> H 	 7.22916 	 75.891 	 50.7597
| 35> C 	 8.35907 	 77.1552 	 51.933
| 36> H 	 9.32444 	 77.1314 	 52.4339
| 37> H 	 7.56572 	 77.1168 	 52.6936
| 38> H 	 8.32118 	 78.0501 	 51.4238
| 39> H 	 3.29921 	 74.1382 	 47.2411
| 40> H 	 9.39056 	 79.7245 	 46.8721
| 41> *
| 42>
| 43>                          ****END OF INPUT****

CARTESIAN COORDINATES (ANGSTROEM)
---------------------------------
  S      4.719990   76.203800   47.988100
  C      4.176540   74.745600   47.149200
  C      5.347970   74.260200   46.522600
  C      6.548390   74.925000   46.894500
  C      6.469100   75.944100   47.739000
  H      7.466120   74.570200   46.496900
  C      5.347030   73.067400   45.662400
  H      6.372150   73.010000   45.324900
  H      4.792470   73.225000   44.706100
  C      4.865840   71.762800   46.349600
  H      5.463390   71.634500   47.256800
  H      3.853980   71.873100   46.649100
  C      5.124270   70.618400   45.484300
  H      6.147540   70.637000   45.147500
  H      4.986920   69.676300   46.120400
  H      4.355270   70.690200   44.664700
  S      7.394980   78.302600   46.947300
  C      9.050640   78.813700   47.246300
  C      9.581380   78.035100   48.242300
  C      8.753690   76.899400   48.601400
  C      7.536350   76.927400   47.989700
  H     10.493500   78.341500   48.584600
  C      9.082360   75.871700   49.676800
  H     10.210000   76.034000   49.721200
  H      8.860600   74.894000   49.368900
  C      8.266910   75.919300   50.984900
  H      8.370130   75.005300   51.546300
  H      7.229160   75.891000   50.759700
  C      8.359070   77.155200   51.933000
  H      9.324440   77.131400   52.433900
  H      7.565720   77.116800   52.693600
  H      8.321180   78.050100   51.423800
  H      3.299210   74.138200   47.241100
  H      9.390560   79.724500   46.872100

 Total Charge           Charge          ....    0
 Multiplicity           Mult            ....    1
 Number of Electrons    NEL             ....  134
 Basis Dimension        Dim             ....  322

ORBITAL ENERGIES
----------------

  NO   OCC          E(Eh)            E(eV)
   0   2.0000     -88.963315     -2420.8149
   1   2.0000     -88.958864     -2420.6938
   2   2.0000     -10.330953      -281.1195
   3   2.0000     -10.326099      -280.9875
   4   2.0000     -10.317822      -280.7622
   5   2.0000     -10.314850      -280.6813
   6   2.0000     -10.306798      -280.4622
   7   2.0000     -10.297327      -280.2045
   8   2.0000     -10.293978      -280.1134
   9   2.0000     -10.293700      -280.1058
  10   2.0000     -10.286820      -279.9186
  11   2.0000     -10.286159      -279.9006
  12   2.0000     -10.282664      -279.8055
  13   2.0000     -10.281218      -279.7662
  14   2.0000     -10.280471      -279.7458
  15   2.0000     -10.267500      -279.3929
  16   2.0000      -8.077016      -219.7868
  17   2.0000      -8.074527      -219.7191
  18   2.0000      -6.035789      -164.2422
  19   2.0000      -6.033036      -164.1673
  20   2.0000      -6.031484      -164.1250
  21   2.0000      -6.028766      -164.0511
  22   2.0000      -6.027673      -164.0213
  23   2.0000      -6.025335      -163.9577
  24   2.0000      -1.011412       -27.5219
  25   2.0000      -0.987290       -26.8655
  26   2.0000      -0.922052       -25.0903
  27   2.0000      -0.904471       -24.6119
  28   2.0000      -0.877522       -23.8786
  29   2.0000      -0.852147       -23.1881
  30   2.0000      -0.845795       -23.0152
  31   2.0000      -0.825513       -22.4633
  32   2.0000      -0.783122       -21.3098
  33   2.0000      -0.766373       -20.8541
  34   2.0000      -0.714672       -19.4472
  35   2.0000      -0.702598       -19.1187
  36   2.0000      -0.692290       -18.8382
  37   2.0000      -0.672664       -18.3041
  38   2.0000      -0.641557       -17.4577
  39   2.0000      -0.625266       -17.0143
  40   2.0000      -0.593283       -16.1441
  41   2.0000      -0.576837       -15.6965
  42   2.0000      -0.574867       -15.6429
  43   2.0000      -0.550497       -14.9798
  44   2.0000      -0.544488       -14.8163
  45   2.0000      -0.530220       -14.4280
  46   2.0000      -0.527162       -14.3448
  47   2.0000      -0.521268       -14.1844
  48   2.0000      -0.508247       -13.8301
  49   2.0000      -0.498247       -13.5580
  50   2.0000      -0.493570       -13.4307
  51   2.0000      -0.481182       -13.0936
  52   2.0000      -0.471469       -12.8293
  53   2.0000      -0.468356       -12.7446
  54   2.0000      -0.457911       -12.4604
  55   2.0000      -0.447702       -12.1826
  56   2.0000      -0.444621       -12.0988
  57   2.0000      -0.432092       -11.7578
  58   2.0000      -0.427728       -11.6391
  59   2.0000      -0.424962       -11.5638
  60   2.0000      -0.421024       -11.4566
  61   2.0000      -0.406381       -11.0582
  62   2.0000      -0.403336       -10.9753
  63   2.0000      -0.348633        -9.4868
  64   2.0000      -0.326703        -8.8900
  65   2.0000      -0.322403        -8.7730
  66   2.0000      -0.303724        -8.2647
  67   0.0000       0.036922         1.0047
  68   0.0000       0.048831         1.3288
  69   0.0000       0.117351         3.1933
  70   0.0000       0.124311         3.3827
  71   0.0000       0.131620         3.5816

MULLIKEN ATOMIC CHARGES
-----------------------
   0 S :    0.084906
   1 C :   -0.096907
   2 C :   -0.121782
   3 C :    0.067299
   4 C :   -0.127075
   5 H :   -0.003899
   6 C :    0.038855
   7 H :   -0.000051
   8 H :    0.039404
   9 C :   -0.065986
  10 H :    0.025479
  11 H :    0.020070
  12 C :   -0.038865
  13 H :    0.031691
  14 H :    0.042930
  15 H :    0.038001
  16 S :    0.094236
  17 C :   -0.077513
  18 C :    0.001212
  19 C :   -0.055790
  20 C :   -0.147372
  21 H :   -0.015563
  22 C :    0.102409
  23 H :    0.031516
  24 H :    0.014870
  25 C :   -0.070257
  26 H :    0.021400
  27 H :    0.019341
  28 C :   -0.026699
  29 H :    0.021195
  30 H :    0.034405
  31 H :    0.020954
  32 H :    0.056329
  33 H :    0.041258
Sum of atomic charges:    0.0000000

LOEWDIN ATOMIC CHARGES
----------------------
   0 S :    0.382445
   1 C :   -0.191492
   2 C :   -0.063454
   3 C :   -0.061604
   4 C :   -0.189328
   5 H :    0.026071
   6 C :   -0.040436
   7 H :    0.024110
   8 H :    0.035769
   9 C :   -0.040240
  10 H :    0.025505
  11 H :    0.016075
  12 C :   -0.065103
  13 H :    0.023766
  14 H :    0.034997
  15 H :    0.031324
  16 S :    0.410591
  17 C :   -0.163366
  18 C :   -0.060649
  19 C :   -0.059458
  20 C :   -0.194103
  21 H :    0.017041
  22 C :   -0.029181
  23 H :    0.036476
  24 H :    0.028314
  25 C :   -0.037597
  26 H :    0.023658
  27 H :    0.022838
  28 C :   -0.057564
  29 H :    0.021627
  30 H :    0.029827
  31 H :    0.013875
  32 H :    0.032510
  33 H :    0.016754

  Mayer bond orders larger than 0.100000
B(  0-S ,  1-C ) :   1.1375 B(  0-S ,  4-C ) :   1.1332 B(  1-C ,  2-C ) :   1.5614
B(  1-C ,  4-C ) :   0.1079 B(  1-C , 32-H ) :   0.9747 B(  2-C ,  3-C ) :   1.2794
B(  2-C ,  6-C ) :   1.0408 B(  3-C ,  4-C ) :   1.5694 B(  3-C ,  5-H ) :   0.9964
B(  4-C , 20-C ) :   0.9868 B(  6-C ,  7-H ) :   0.9399 B(  6-C ,  8-H ) :   0.9299
B(  6-C ,  9-C ) :   1.0595 B(  9-C , 10-H ) :   0.9528 B(  9-C , 11-H ) :   0.9512
B(  9-C , 12-C ) :   1.0984 B( 12-C , 13-H ) :   0.9719 B( 12-C , 14-H ) :   0.9715
B( 12-C , 15-H ) :   0.9711 B( 16-S , 17-C ) :   1.1599 B( 16-S , 20-C ) :   1.1544
B( 17-C , 18-C ) :   1.6141 B( 17-C , 33-H ) :   0.9755 B( 18-C , 19-C ) :   1.2032
B( 18-C , 21-H ) :   1.0102 B( 19-C , 20-C ) :   1.6267 B( 19-C , 22-C ) :   1.0419
B( 22-C , 23-H ) :   0.9408 B( 22-C , 24-H ) :   0.9231 B( 22-C , 25-C ) :   1.0694
B( 25-C , 26-H ) :   0.9565 B( 25-C , 27-H ) :   0.9512 B( 25-C , 28-C ) :   1.0734
B( 28-C , 29-H ) :   0.9773 B( 28-C , 30-H ) :   0.9754 B( 28-C , 31-H ) :   0.9781

Dispersion correction           -0.014062519
FINAL SINGLE POINT ENERGY     -1339.841607525935

DIPOLE MOMENT
-------------
                                X             Y             Z
Electronic contribution:     -3.79513      20.58219      -6.22069
Nuclear contribution   :      4.14198     -21.10583       6.17616
                        -----------------------------------------
Total Dipole Moment    :      0.34685      -0.52364      -0.04454
                        -----------------------------------------
Magnitude (a.u.)       :      0.62967
Magnitude (Debye)      :      1.60050

Rotational constants in cm-1:     0.021304     0.007486     0.006855
Rotational constants in MHz :   638.665933   224.419537   205.516702

                             ****ORCA TERMINATED NORMALLY****
TOTAL RUN TIME: 0 days 0 hours 0 minutes 31 seconds 507 msec
