                         Program Version 4.2.1 -  RELEASE  -
|  1> ! wB97X-D3 SP def2-SVP
|  2> %pal
|  3> nprocs 16
|  4> end
|  5>
|  6> * xyz 0 1
|  7> S 	 -42.5304 	 15.8308 	 75.4154
|  8> C 	 -41.156 	 16.1038 	 76.507
|  9> C 	 -41.5185 	 16.542 	 77.7772
| 10> C 	 -42.9379 	 16.7897 	 77.7314
| 11> C 	 -43.6647 	 16.4176 	 76.6323
| 12> H 	 -43.5102 	 17.1407 	 78.5296
| 13> C 	 -40.6895 	 16.8232 	 79.0268
| 14> H 	 -39.7945 	 16.1459 	 79.122
| 15> H 	 -41.2064 	 16.6362 	 79.8975
| 16> C 	 -40.1217 	 18.2335 	 79.0378
| 17> H 	 -39.3108 	 18.1886 	 78.3119
| 18> H 	 -40.9535 	 18.7915 	 78.68
| 19> C 	 -39.5493 	 18.8091 	 80.3412
| 20> H 	 -38.6564 	 18.2751 	 80.6763
| 21> H 	 -39.2295 	 19.8406 	 80.2279
| 22> H 	 -40.32 	 18.7815 	 81.146
| 23> S 	 -45.9937 	 15.3583 	 77.6901
| 24> C 	 -47.5303 	 15.6362 	 77.0377
| 25> C 	 -47.4033 	 16.5934 	 75.9925
| 26> C 	 -46.0501 	 17.0452 	 75.7562
| 27> C 	 -45.1485 	 16.3956 	 76.6157
| 28> H 	 -48.3021 	 16.9208 	 75.4224
| 29> C 	 -45.7387 	 18.2263 	 74.8223
| 30> H 	 -46.5335 	 18.2103 	 74.12
| 31> H 	 -44.9081 	 18.0562 	 74.1222
| 32> C 	 -45.5806 	 19.6595 	 75.3975
| 33> H 	 -45.1669 	 19.6839 	 76.3773
| 34> H 	 -46.5596 	 20.0286 	 75.5902
| 35> C 	 -44.6217 	 20.4915 	 74.4962
| 36> H 	 -45.225 	 20.9265 	 73.6781
| 37> H 	 -43.8267 	 19.9041 	 74.1513
| 38> H 	 -44.3457 	 21.3749 	 75.0672
| 39> H 	 -40.1338 	 16.0298 	 76.2169
| 40> H 	 -48.4786 	 15.2238 	 77.3477
| 41> *
| 42>
| 43>                          ****END OF INPUT****

CARTESIAN COORDINATES (ANGSTROEM)
---------------------------------
  S    -42.530400   15.830800   75.415400
  C    -41.156000   16.103800   76.507000
  C    -41.518500   16.542000   77.777200
  C    -42.937900   16.789700   77.731400
  C    -43.664700   16.417600   76.632300
  H    -43.510200   17.140700   78.529600
  C    -40.689500   16.823200   79.026800
  H    -39.794500   16.145900   79.122000
  H    -41.206400   16.636200   79.897500
  C    -40.121700   18.233500   79.037800
  H    -39.310800   18.188600   78.311900
  H    -40.953500   18.791500   78.680000
  C    -39.549300   18.809100   80.341200
  H    -38.656400   18.275100   80.676300
  H    -39.229500   19.840600   80.227900
  H    -40.320000   18.781500   81.146000
  S    -45.993700   15.358300   77.690100
  C    -47.530300   15.636200   77.037700
  C    -47.403300   16.593400   75.992500
  C    -46.050100   17.045200   75.756200
  C    -45.148500   16.395600   76.615700
  H    -48.302100   16.920800   75.422400
  C    -45.738700   18.226300   74.822300
  H    -46.533500   18.210300   74.120000
  H    -44.908100   18.056200   74.122200
  C    -45.580600   19.659500   75.397500
  H    -45.166900   19.683900   76.377300
  H    -46.559600   20.028600   75.590200
  C    -44.621700   20.491500   74.496200
  H    -45.225000   20.926500   73.678100
  H    -43.826700   19.904100   74.151300
  H    -44.345700   21.374900   75.067200
  H    -40.133800   16.029800   76.216900
  H    -48.478600   15.223800   77.347700

 Total Charge           Charge          ....    0
 Multiplicity           Mult            ....    1
 Number of Electrons    NEL             ....  134
 Basis Dimension        Dim             ....  322

ORBITAL ENERGIES
----------------

  NO   OCC          E(Eh)            E(eV)
   0   2.0000     -88.968931     -2420.9677
   1   2.0000     -88.968636     -2420.9597
   2   2.0000     -10.328805      -281.0611
   3   2.0000     -10.327281      -281.0196
   4   2.0000     -10.318518      -280.7812
   5   2.0000     -10.318292      -280.7750
   6   2.0000     -10.307472      -280.4806
   7   2.0000     -10.306870      -280.4642
   8   2.0000     -10.300636      -280.2946
   9   2.0000     -10.291745      -280.0526
  10   2.0000     -10.287589      -279.9395
  11   2.0000     -10.286496      -279.9098
  12   2.0000     -10.283180      -279.8195
  13   2.0000     -10.282168      -279.7920
  14   2.0000     -10.278377      -279.6889
  15   2.0000     -10.274479      -279.5828
  16   2.0000      -8.084682      -219.9954
  17   2.0000      -8.082298      -219.9305
  18   2.0000      -6.042945      -164.4369
  19   2.0000      -6.041036      -164.3850
  20   2.0000      -6.038704      -164.3215
  21   2.0000      -6.036921      -164.2730
  22   2.0000      -6.035969      -164.2471
  23   2.0000      -6.032902      -164.1636
  24   2.0000      -1.006642       -27.3921
  25   2.0000      -0.984254       -26.7829
  26   2.0000      -0.914794       -24.8928
  27   2.0000      -0.904002       -24.5991
  28   2.0000      -0.866448       -23.5773
  29   2.0000      -0.849892       -23.1267
  30   2.0000      -0.845445       -23.0057
  31   2.0000      -0.809675       -22.0324
  32   2.0000      -0.785671       -21.3792
  33   2.0000      -0.774773       -21.0827
  34   2.0000      -0.707370       -19.2485
  35   2.0000      -0.699929       -19.0460
  36   2.0000      -0.693965       -18.8837
  37   2.0000      -0.662504       -18.0277
  38   2.0000      -0.642236       -17.4761
  39   2.0000      -0.619832       -16.8665
  40   2.0000      -0.596700       -16.2370
  41   2.0000      -0.574395       -15.6301
  42   2.0000      -0.569300       -15.4914
  43   2.0000      -0.557379       -15.1671
  44   2.0000      -0.525008       -14.2862
  45   2.0000      -0.519295       -14.1307
  46   2.0000      -0.516596       -14.0573
  47   2.0000      -0.509457       -13.8630
  48   2.0000      -0.508202       -13.8289
  49   2.0000      -0.499849       -13.6016
  50   2.0000      -0.491254       -13.3677
  51   2.0000      -0.478327       -13.0159
  52   2.0000      -0.477174       -12.9846
  53   2.0000      -0.464728       -12.6459
  54   2.0000      -0.461033       -12.5453
  55   2.0000      -0.451624       -12.2893
  56   2.0000      -0.444355       -12.0915
  57   2.0000      -0.432246       -11.7620
  58   2.0000      -0.428064       -11.6482
  59   2.0000      -0.425022       -11.5654
  60   2.0000      -0.422648       -11.5008
  61   2.0000      -0.418722       -11.3940
  62   2.0000      -0.406070       -11.0497
  63   2.0000      -0.334915        -9.1135
  64   2.0000      -0.332251        -9.0410
  65   2.0000      -0.328679        -8.9438
  66   2.0000      -0.302622        -8.2348
  67   0.0000       0.035908         0.9771
  68   0.0000       0.062260         1.6942
  69   0.0000       0.114428         3.1138
  70   0.0000       0.115385         3.1398
  71   0.0000       0.129668         3.5284

MULLIKEN ATOMIC CHARGES
-----------------------
   0 S :    0.114722
   1 C :   -0.116725
   2 C :   -0.073154
   3 C :    0.017065
   4 C :   -0.116712
   5 H :   -0.017339
   6 C :    0.099304
   7 H :    0.024639
   8 H :    0.001450
   9 C :   -0.082034
  10 H :    0.024644
  11 H :    0.025503
  12 C :   -0.035012
  13 H :    0.029522
  14 H :    0.037973
  15 H :    0.032781
  16 S :    0.142391
  17 C :   -0.100537
  18 C :   -0.067317
  19 C :   -0.038033
  20 C :   -0.189171
  21 H :    0.033368
  22 C :    0.077293
  23 H :    0.000825
  24 H :    0.014563
  25 C :   -0.035878
  26 H :    0.018986
  27 H :    0.015198
  28 C :   -0.042101
  29 H :    0.031914
  30 H :    0.042889
  31 H :    0.030095
  32 H :    0.037872
  33 H :    0.061016
Sum of atomic charges:    0.0000000

LOEWDIN ATOMIC CHARGES
----------------------
   0 S :    0.391074
   1 C :   -0.176287
   2 C :   -0.056286
   3 C :   -0.058095
   4 C :   -0.196628
   5 H :    0.015537
   6 C :   -0.025649
   7 H :    0.034678
   8 H :    0.016988
   9 C :   -0.039928
  10 H :    0.023768
  11 H :    0.020219
  12 C :   -0.066167
  13 H :    0.025127
  14 H :    0.029409
  15 H :    0.026886
  16 S :    0.464224
  17 C :   -0.214757
  18 C :   -0.078885
  19 C :   -0.056188
  20 C :   -0.216494
  21 H :    0.034677
  22 C :   -0.033983
  23 H :    0.024325
  24 H :    0.029092
  25 C :   -0.033285
  26 H :    0.019834
  27 H :    0.019705
  28 C :   -0.055056
  29 H :    0.028479
  30 H :    0.020356
  31 H :    0.027969
  32 H :    0.021997
  33 H :    0.033344

  Mayer bond orders larger than 0.100000
B(  0-S ,  1-C ) :   1.1484 B(  0-S ,  4-C ) :   1.1109 B(  1-C ,  2-C ) :   1.6133
B(  1-C , 32-H ) :   0.9675 B(  2-C ,  3-C ) :   1.2213 B(  2-C ,  6-C ) :   1.0339
B(  3-C ,  4-C ) :   1.6078 B(  3-C ,  5-H ) :   0.9975 B(  4-C , 20-C ) :   1.0388
B(  6-C ,  7-H ) :   0.9394 B(  6-C ,  8-H ) :   0.9374 B(  6-C ,  9-C ) :   1.0528
B(  9-C , 10-H ) :   0.9576 B(  9-C , 11-H ) :   0.9602 B(  9-C , 12-C ) :   1.0879
B( 12-C , 13-H ) :   0.9729 B( 12-C , 14-H ) :   0.9725 B( 12-C , 15-H ) :   0.9743
B( 16-S , 17-C ) :   1.1969 B( 16-S , 20-C ) :   1.1777 B( 17-C , 18-C ) :   1.5390
B( 17-C , 20-C ) :   0.1036 B( 17-C , 33-H ) :   0.9720 B( 18-C , 19-C ) :   1.3039
B( 18-C , 21-H ) :   0.9818 B( 19-C , 20-C ) :   1.5260 B( 19-C , 22-C ) :   1.0489
B( 22-C , 23-H ) :   0.9250 B( 22-C , 24-H ) :   0.9392 B( 22-C , 25-C ) :   1.0423
B( 25-C , 26-H ) :   0.9654 B( 25-C , 27-H ) :   0.9548 B( 25-C , 28-C ) :   1.0711
B( 28-C , 29-H ) :   0.9789 B( 28-C , 30-H ) :   0.9787 B( 28-C , 31-H ) :   0.9751

Dispersion correction           -0.013835207
FINAL SINGLE POINT ENERGY     -1339.865102735517

DIPOLE MOMENT
-------------
                                X             Y             Z
Electronic contribution:    -11.17564     -22.06890      -4.72169
Nuclear contribution   :     11.20758      22.51173       4.95837
                        -----------------------------------------
Total Dipole Moment    :      0.03194       0.44283       0.23668
                        -----------------------------------------
Magnitude (a.u.)       :      0.50313
Magnitude (Debye)      :      1.27886

Rotational constants in cm-1:     0.017542     0.007942     0.006945
Rotational constants in MHz :   525.901233   238.105351   208.207461

                             ****ORCA TERMINATED NORMALLY****
TOTAL RUN TIME: 0 days 0 hours 0 minutes 27 seconds 769 msec
