                         Program Version 4.2.1 -  RELEASE  -
|  1> ! wB97X-D3 SP def2-SVP
|  2> %pal
|  3> nprocs 16
|  4> end
|  5>
|  6> * xyz 0 1
|  7> S 	 -61.7818 	 52.9444 	 125.132
|  8> C 	 -62.6026 	 52.0312 	 126.368
|  9> C 	 -63.9975 	 52.1927 	 126.371
| 10> C 	 -64.3988 	 53.1066 	 125.316
| 11> C 	 -63.3464 	 53.6238 	 124.585
| 12> H 	 -65.3709 	 53.3249 	 124.969
| 13> C 	 -64.9443 	 51.5555 	 127.367
| 14> H 	 -65.8518 	 52.1531 	 127.541
| 15> H 	 -64.4012 	 51.6059 	 128.328
| 16> C 	 -65.309 	 50.0403 	 127.224
| 17> H 	 -64.39 	 49.4787 	 127.415
| 18> H 	 -65.9774 	 49.74 	 128.027
| 19> C 	 -66.0935 	 49.5863 	 125.948
| 20> H 	 -66.7727 	 50.4175 	 125.675
| 21> H 	 -65.3133 	 49.4677 	 125.117
| 22> H 	 -66.6521 	 48.6639 	 126.18
| 23> S 	 -62.5753 	 56.1802 	 123.674
| 24> C 	 -63.2545 	 56.756 	 122.127
| 25> C 	 -64.0526 	 55.7862 	 121.611
| 26> C 	 -64.1967 	 54.6107 	 122.343
| 27> C 	 -63.4652 	 54.6437 	 123.522
| 28> H 	 -64.553 	 56.1195 	 120.689
| 29> C 	 -65.2367 	 53.5175 	 122.024
| 30> H 	 -65.9536 	 53.9258 	 121.31
| 31> H 	 -65.7098 	 53.4153 	 122.959
| 32> C 	 -64.7289 	 52.1786 	 121.469
| 33> H 	 -63.8715 	 51.8255 	 122.058
| 34> H 	 -64.2795 	 52.3018 	 120.422
| 35> C 	 -65.8349 	 51.0942 	 121.473
| 36> H 	 -65.4405 	 50.1163 	 121.047
| 37> H 	 -66.6969 	 51.4786 	 120.908
| 38> H 	 -66.1158 	 50.8913 	 122.46
| 39> H 	 -62.2829 	 51.3572 	 127.06
| 40> H 	 -63.1474 	 57.7642 	 121.675
| 41> *
| 42>
| 43>                          ****END OF INPUT****

CARTESIAN COORDINATES (ANGSTROEM)
---------------------------------
  S    -61.781800   52.944400  125.132000
  C    -62.602600   52.031200  126.368000
  C    -63.997500   52.192700  126.371000
  C    -64.398800   53.106600  125.316000
  C    -63.346400   53.623800  124.585000
  H    -65.370900   53.324900  124.969000
  C    -64.944300   51.555500  127.367000
  H    -65.851800   52.153100  127.541000
  H    -64.401200   51.605900  128.328000
  C    -65.309000   50.040300  127.224000
  H    -64.390000   49.478700  127.415000
  H    -65.977400   49.740000  128.027000
  C    -66.093500   49.586300  125.948000
  H    -66.772700   50.417500  125.675000
  H    -65.313300   49.467700  125.117000
  H    -66.652100   48.663900  126.180000
  S    -62.575300   56.180200  123.674000
  C    -63.254500   56.756000  122.127000
  C    -64.052600   55.786200  121.611000
  C    -64.196700   54.610700  122.343000
  C    -63.465200   54.643700  123.522000
  H    -64.553000   56.119500  120.689000
  C    -65.236700   53.517500  122.024000
  H    -65.953600   53.925800  121.310000
  H    -65.709800   53.415300  122.959000
  C    -64.728900   52.178600  121.469000
  H    -63.871500   51.825500  122.058000
  H    -64.279500   52.301800  120.422000
  C    -65.834900   51.094200  121.473000
  H    -65.440500   50.116300  121.047000
  H    -66.696900   51.478600  120.908000
  H    -66.115800   50.891300  122.460000
  H    -62.282900   51.357200  127.060000
  H    -63.147400   57.764200  121.675000

 Total Charge           Charge          ....    0
 Multiplicity           Mult            ....    1
 Number of Electrons    NEL             ....  134
 Basis Dimension        Dim             ....  322

ORBITAL ENERGIES
----------------

  NO   OCC          E(Eh)            E(eV)
   0   2.0000     -88.973751     -2421.0988
   1   2.0000     -88.965283     -2420.8684
   2   2.0000     -10.334331      -281.2114
   3   2.0000     -10.330332      -281.1026
   4   2.0000     -10.319208      -280.7999
   5   2.0000     -10.311134      -280.5802
   6   2.0000     -10.307087      -280.4701
   7   2.0000     -10.302499      -280.3453
   8   2.0000     -10.299604      -280.2665
   9   2.0000     -10.296056      -280.1699
  10   2.0000     -10.291705      -280.0515
  11   2.0000     -10.290884      -280.0292
  12   2.0000     -10.289924      -280.0031
  13   2.0000     -10.289867      -280.0015
  14   2.0000     -10.289609      -279.9945
  15   2.0000     -10.279012      -279.7061
  16   2.0000      -8.087294      -220.0665
  17   2.0000      -8.078953      -219.8395
  18   2.0000      -6.045913      -164.5177
  19   2.0000      -6.041963      -164.4102
  20   2.0000      -6.038006      -164.3025
  21   2.0000      -6.037504      -164.2888
  22   2.0000      -6.033610      -164.1829
  23   2.0000      -6.029714      -164.0768
  24   2.0000      -1.001945       -27.2643
  25   2.0000      -0.981039       -26.6954
  26   2.0000      -0.905363       -24.6362
  27   2.0000      -0.904151       -24.6032
  28   2.0000      -0.867953       -23.6182
  29   2.0000      -0.849857       -23.1258
  30   2.0000      -0.844800       -22.9882
  31   2.0000      -0.817811       -22.2538
  32   2.0000      -0.781871       -21.2758
  33   2.0000      -0.771713       -20.9994
  34   2.0000      -0.709093       -19.2954
  35   2.0000      -0.699520       -19.0349
  36   2.0000      -0.691654       -18.8209
  37   2.0000      -0.657464       -17.8905
  38   2.0000      -0.641867       -17.4661
  39   2.0000      -0.613452       -16.6929
  40   2.0000      -0.589098       -16.0302
  41   2.0000      -0.575073       -15.6485
  42   2.0000      -0.564797       -15.3689
  43   2.0000      -0.546309       -14.8658
  44   2.0000      -0.543666       -14.7939
  45   2.0000      -0.521305       -14.1854
  46   2.0000      -0.514302       -13.9949
  47   2.0000      -0.507827       -13.8187
  48   2.0000      -0.502628       -13.6772
  49   2.0000      -0.500067       -13.6075
  50   2.0000      -0.487563       -13.2673
  51   2.0000      -0.484845       -13.1933
  52   2.0000      -0.469676       -12.7805
  53   2.0000      -0.467257       -12.7147
  54   2.0000      -0.465356       -12.6630
  55   2.0000      -0.442390       -12.0380
  56   2.0000      -0.439905       -11.9704
  57   2.0000      -0.435653       -11.8547
  58   2.0000      -0.432497       -11.7688
  59   2.0000      -0.425679       -11.5833
  60   2.0000      -0.419726       -11.4213
  61   2.0000      -0.415753       -11.3132
  62   2.0000      -0.413218       -11.2442
  63   2.0000      -0.347101        -9.4451
  64   2.0000      -0.333861        -9.0848
  65   2.0000      -0.329190        -8.9577
  66   2.0000      -0.294473        -8.0130
  67   0.0000       0.029907         0.8138
  68   0.0000       0.060702         1.6518
  69   0.0000       0.113055         3.0764
  70   0.0000       0.115616         3.1461
  71   0.0000       0.120307         3.2737

MULLIKEN ATOMIC CHARGES
-----------------------
   0 S :    0.133448
   1 C :   -0.049737
   2 C :   -0.097198
   3 C :    0.043436
   4 C :   -0.158159
   5 H :   -0.000322
   6 C :    0.036899
   7 H :    0.032670
   8 H :    0.032971
   9 C :   -0.081880
  10 H :    0.025617
  11 H :    0.025954
  12 C :   -0.084716
  13 H :    0.036846
  14 H :    0.058717
  15 H :    0.051183
  16 S :    0.098129
  17 C :   -0.119109
  18 C :   -0.053253
  19 C :    0.003331
  20 C :   -0.181542
  21 H :    0.022552
  22 C :    0.105506
  23 H :    0.018054
  24 H :   -0.004432
  25 C :   -0.096986
  26 H :    0.035891
  27 H :    0.036861
  28 C :   -0.035461
  29 H :    0.045152
  30 H :    0.032709
  31 H :    0.019841
  32 H :   -0.003555
  33 H :    0.070585
Sum of atomic charges:    0.0000000

LOEWDIN ATOMIC CHARGES
----------------------
   0 S :    0.402325
   1 C :   -0.187269
   2 C :   -0.058752
   3 C :   -0.053492
   4 C :   -0.182902
   5 H :    0.021970
   6 C :   -0.040133
   7 H :    0.032234
   8 H :    0.039510
   9 C :   -0.044600
  10 H :    0.020219
  11 H :    0.023446
  12 C :   -0.074623
  13 H :    0.025958
  14 H :    0.035543
  15 H :    0.030746
  16 S :    0.378151
  17 C :   -0.182286
  18 C :   -0.080670
  19 C :   -0.056181
  20 C :   -0.188272
  21 H :    0.037113
  22 C :   -0.023530
  23 H :    0.030446
  24 H :    0.021089
  25 C :   -0.044793
  26 H :    0.024287
  27 H :    0.029837
  28 C :   -0.062651
  29 H :    0.035619
  30 H :    0.025486
  31 H :    0.014903
  32 H :    0.009609
  33 H :    0.041661

  Mayer bond orders larger than 0.100000
B(  0-S ,  1-C ) :   1.1360 B(  0-S ,  4-C ) :   1.1257 B(  1-C ,  2-C ) :   1.6289
B(  1-C , 32-H ) :   0.9665 B(  2-C ,  3-C ) :   1.2200 B(  2-C ,  6-C ) :   1.0193
B(  3-C ,  4-C ) :   1.5997 B(  3-C ,  5-H ) :   0.9939 B(  4-C , 20-C ) :   1.0352
B(  6-C ,  7-H ) :   0.9461 B(  6-C ,  8-H ) :   0.9372 B(  6-C ,  9-C ) :   1.0785
B(  9-C , 10-H ) :   0.9586 B(  9-C , 11-H ) :   0.9574 B(  9-C , 12-C ) :   1.0598
B( 12-C , 13-H ) :   0.9764 B( 12-C , 14-H ) :   0.9760 B( 12-C , 15-H ) :   0.9768
B( 16-S , 17-C ) :   1.1373 B( 16-S , 20-C ) :   1.1421 B( 17-C , 18-C ) :   1.6338
B( 17-C , 20-C ) :   0.1044 B( 17-C , 33-H ) :   0.9609 B( 18-C , 19-C ) :   1.2436
B( 18-C , 21-H ) :   0.9841 B( 19-C , 20-C ) :   1.5886 B( 19-C , 22-C ) :   1.0154
B( 22-C , 23-H ) :   0.9321 B( 22-C , 24-H ) :   0.9372 B( 22-C , 25-C ) :   1.0599
B( 25-C , 26-H ) :   0.9584 B( 25-C , 27-H ) :   0.9535 B( 25-C , 28-C ) :   1.0762
B( 28-C , 29-H ) :   0.9738 B( 28-C , 30-H ) :   0.9741 B( 28-C , 31-H ) :   0.9760

Dispersion correction           -0.014999599
FINAL SINGLE POINT ENERGY     -1339.873394957638

DIPOLE MOMENT
-------------
                                X             Y             Z
Electronic contribution:     20.98579      22.84941       1.59103
Nuclear contribution   :    -21.63369     -23.15972      -1.56931
                        -----------------------------------------
Total Dipole Moment    :     -0.64790      -0.31031       0.02172
                        -----------------------------------------
Magnitude (a.u.)       :      0.71871
Magnitude (Debye)      :      1.82681

Rotational constants in cm-1:     0.018690     0.009353     0.007032
Rotational constants in MHz :   560.322638   280.400512   210.803555

                             ****ORCA TERMINATED NORMALLY****
TOTAL RUN TIME: 0 days 0 hours 0 minutes 34 seconds 418 msec
