                         Program Version 4.2.1 -  RELEASE  -
|  1> ! wB97X-D3 SP def2-SVP
|  2> %pal
|  3> nprocs 16
|  4> end
|  5>
|  6> * xyz 0 1
|  7> S 	 -56.2285 	 42.8843 	 113.902
|  8> C 	 -55.6597 	 43.5496 	 112.355
|  9> C 	 -55.1293 	 42.6494 	 111.478
| 10> C 	 -55.2194 	 41.3007 	 111.998
| 11> C 	 -55.8701 	 41.2693 	 113.244
| 12> H 	 -54.8154 	 40.4875 	 111.426
| 13> C 	 -54.55 	 42.9687 	 110.048
| 14> H 	 -53.4357 	 43.0445 	 110.05
| 15> H 	 -54.8476 	 43.9847 	 109.824
| 16> C 	 -54.9029 	 41.9014 	 109.015
| 17> H 	 -54.4043 	 41.9288 	 108.092
| 18> H 	 -54.4884 	 40.9133 	 109.336
| 19> C 	 -56.4235 	 41.7523 	 108.731
| 20> H 	 -56.4724 	 41.0545 	 107.934
| 21> H 	 -57.015 	 41.2451 	 109.552
| 22> H 	 -56.9491 	 42.7311 	 108.505
| 23> S 	 -54.9844 	 39.9855 	 115.454
| 24> C 	 -55.5174 	 38.432 	 115.881
| 25> C 	 -56.4396 	 37.9197 	 114.959
| 26> C 	 -56.6203 	 38.8328 	 113.782
| 27> C 	 -56.0067 	 40.0705 	 114.051
| 28> H 	 -56.8112 	 36.9203 	 115.085
| 29> C 	 -57.4467 	 38.5464 	 112.53
| 30> H 	 -57.3351 	 37.5002 	 112.165
| 31> H 	 -57.0406 	 39.0717 	 111.722
| 32> C 	 -59.0007 	 38.719 	 112.726
| 33> H 	 -59.2599 	 38.1196 	 113.561
| 34> H 	 -59.5387 	 38.2932 	 111.867
| 35> C 	 -59.3452 	 40.1762 	 112.849
| 36> H 	 -60.4152 	 40.134 	 112.803
| 37> H 	 -58.9353 	 40.7613 	 112.004
| 38> H 	 -58.9404 	 40.7043 	 113.744
| 39> H 	 -55.7558 	 44.562 	 112.193
| 40> H 	 -55.3139 	 37.9767 	 116.814
| 41> *
| 42>
| 43>                          ****END OF INPUT****

CARTESIAN COORDINATES (ANGSTROEM)
---------------------------------
  S    -56.228500   42.884300  113.902000
  C    -55.659700   43.549600  112.355000
  C    -55.129300   42.649400  111.478000
  C    -55.219400   41.300700  111.998000
  C    -55.870100   41.269300  113.244000
  H    -54.815400   40.487500  111.426000
  C    -54.550000   42.968700  110.048000
  H    -53.435700   43.044500  110.050000
  H    -54.847600   43.984700  109.824000
  C    -54.902900   41.901400  109.015000
  H    -54.404300   41.928800  108.092000
  H    -54.488400   40.913300  109.336000
  C    -56.423500   41.752300  108.731000
  H    -56.472400   41.054500  107.934000
  H    -57.015000   41.245100  109.552000
  H    -56.949100   42.731100  108.505000
  S    -54.984400   39.985500  115.454000
  C    -55.517400   38.432000  115.881000
  C    -56.439600   37.919700  114.959000
  C    -56.620300   38.832800  113.782000
  C    -56.006700   40.070500  114.051000
  H    -56.811200   36.920300  115.085000
  C    -57.446700   38.546400  112.530000
  H    -57.335100   37.500200  112.165000
  H    -57.040600   39.071700  111.722000
  C    -59.000700   38.719000  112.726000
  H    -59.259900   38.119600  113.561000
  H    -59.538700   38.293200  111.867000
  C    -59.345200   40.176200  112.849000
  H    -60.415200   40.134000  112.803000
  H    -58.935300   40.761300  112.004000
  H    -58.940400   40.704300  113.744000
  H    -55.755800   44.562000  112.193000
  H    -55.313900   37.976700  116.814000

 Total Charge           Charge          ....    0
 Multiplicity           Mult            ....    1
 Number of Electrons    NEL             ....  134
 Basis Dimension        Dim             ....  322

ORBITAL ENERGIES
----------------

  NO   OCC          E(Eh)            E(eV)
   0   2.0000     -88.970674     -2421.0151
   1   2.0000     -88.960685     -2420.7433
   2   2.0000     -10.333819      -281.1975
   3   2.0000     -10.322379      -280.8862
   4   2.0000     -10.311564      -280.5919
   5   2.0000     -10.311048      -280.5779
   6   2.0000     -10.310618      -280.5662
   7   2.0000     -10.305144      -280.4172
   8   2.0000     -10.303217      -280.3648
   9   2.0000     -10.298933      -280.2482
  10   2.0000     -10.298625      -280.2398
  11   2.0000     -10.292093      -280.0621
  12   2.0000     -10.287042      -279.9246
  13   2.0000     -10.283906      -279.8393
  14   2.0000     -10.280882      -279.7570
  15   2.0000     -10.268045      -279.4077
  16   2.0000      -8.084429      -219.9885
  17   2.0000      -8.076751      -219.7796
  18   2.0000      -6.042950      -164.4370
  19   2.0000      -6.039297      -164.3376
  20   2.0000      -6.035165      -164.2252
  21   2.0000      -6.035022      -164.2213
  22   2.0000      -6.030940      -164.1102
  23   2.0000      -6.027672      -164.0213
  24   2.0000      -1.002002       -27.2659
  25   2.0000      -0.977777       -26.6067
  26   2.0000      -0.908384       -24.7184
  27   2.0000      -0.904918       -24.6241
  28   2.0000      -0.867230       -23.5985
  29   2.0000      -0.846458       -23.0333
  30   2.0000      -0.839915       -22.8553
  31   2.0000      -0.809801       -22.0358
  32   2.0000      -0.784061       -21.3354
  33   2.0000      -0.771745       -21.0002
  34   2.0000      -0.709280       -19.3005
  35   2.0000      -0.697415       -18.9776
  36   2.0000      -0.693265       -18.8647
  37   2.0000      -0.654599       -17.8126
  38   2.0000      -0.641746       -17.4628
  39   2.0000      -0.624939       -17.0054
  40   2.0000      -0.595321       -16.1995
  41   2.0000      -0.559565       -15.2265
  42   2.0000      -0.553454       -15.0602
  43   2.0000      -0.547145       -14.8886
  44   2.0000      -0.537672       -14.6308
  45   2.0000      -0.535256       -14.5651
  46   2.0000      -0.516377       -14.0513
  47   2.0000      -0.507986       -13.8230
  48   2.0000      -0.499290       -13.5864
  49   2.0000      -0.496755       -13.5174
  50   2.0000      -0.493624       -13.4322
  51   2.0000      -0.479259       -13.0413
  52   2.0000      -0.464887       -12.6502
  53   2.0000      -0.460384       -12.5277
  54   2.0000      -0.457468       -12.4483
  55   2.0000      -0.450233       -12.2515
  56   2.0000      -0.445586       -12.1250
  57   2.0000      -0.441370       -12.0103
  58   2.0000      -0.430233       -11.7072
  59   2.0000      -0.427199       -11.6247
  60   2.0000      -0.417772       -11.3682
  61   2.0000      -0.411067       -11.1857
  62   2.0000      -0.407887       -11.0992
  63   2.0000      -0.339799        -9.2464
  64   2.0000      -0.332640        -9.0516
  65   2.0000      -0.321715        -8.7543
  66   2.0000      -0.296114        -8.0577
  67   0.0000       0.034350         0.9347
  68   0.0000       0.065955         1.7947
  69   0.0000       0.106408         2.8955
  70   0.0000       0.109160         2.9704
  71   0.0000       0.125391         3.4121

MULLIKEN ATOMIC CHARGES
-----------------------
   0 S :    0.110721
   1 C :   -0.109338
   2 C :   -0.076679
   3 C :    0.046545
   4 C :   -0.163365
   5 H :    0.012648
   6 C :    0.102462
   7 H :    0.045664
   8 H :    0.014576
   9 C :   -0.081665
  10 H :    0.016085
  11 H :    0.018419
  12 C :   -0.069356
  13 H :    0.022925
  14 H :    0.048371
  15 H :    0.048842
  16 S :    0.115415
  17 C :   -0.082013
  18 C :   -0.033086
  19 C :   -0.052057
  20 C :   -0.160497
  21 H :    0.018072
  22 C :    0.073745
  23 H :    0.019149
  24 H :   -0.004999
  25 C :   -0.053354
  26 H :    0.020349
  27 H :    0.026786
  28 C :   -0.047392
  29 H :    0.028409
  30 H :    0.034569
  31 H :    0.046442
  32 H :    0.014154
  33 H :    0.049452
Sum of atomic charges:   -0.0000000

LOEWDIN ATOMIC CHARGES
----------------------
   0 S :    0.384850
   1 C :   -0.171718
   2 C :   -0.056846
   3 C :   -0.047575
   4 C :   -0.187240
   5 H :    0.028559
   6 C :   -0.026696
   7 H :    0.039263
   8 H :    0.026048
   9 C :   -0.047212
  10 H :    0.020161
  11 H :    0.027809
  12 C :   -0.070949
  13 H :    0.019644
  14 H :    0.030395
  15 H :    0.033392
  16 S :    0.430900
  17 C :   -0.200655
  18 C :   -0.069342
  19 C :   -0.046146
  20 C :   -0.213842
  21 H :    0.027093
  22 C :   -0.034159
  23 H :    0.033432
  24 H :    0.016409
  25 C :   -0.031158
  26 H :    0.018484
  27 H :    0.025010
  28 C :   -0.068824
  29 H :    0.023175
  30 H :    0.028434
  31 H :    0.029428
  32 H :    0.007196
  33 H :    0.022680

  Mayer bond orders larger than 0.100000
B(  0-S ,  1-C ) :   1.1232 B(  0-S ,  4-C ) :   1.1400 B(  1-C ,  2-C ) :   1.6555
B(  1-C , 32-H ) :   0.9735 B(  2-C ,  3-C ) :   1.2240 B(  2-C ,  6-C ) :   0.9984
B(  3-C ,  4-C ) :   1.5836 B(  3-C ,  5-H ) :   0.9891 B(  4-C , 20-C ) :   1.0279
B(  6-C ,  7-H ) :   0.9389 B(  6-C ,  8-H ) :   0.9467 B(  6-C ,  9-C ) :   1.0731
B(  9-C , 10-H ) :   0.9549 B(  9-C , 11-H ) :   0.9440 B(  9-C , 12-C ) :   1.0711
B( 12-C , 13-H ) :   0.9733 B( 12-C , 14-H ) :   0.9730 B( 12-C , 15-H ) :   0.9761
B( 16-S , 17-C ) :   1.1669 B( 16-S , 20-C ) :   1.1589 B( 17-C , 18-C ) :   1.6133
B( 17-C , 33-H ) :   0.9704 B( 18-C , 19-C ) :   1.2153 B( 18-C , 21-H ) :   0.9902
B( 19-C , 20-C ) :   1.5895 B( 19-C , 22-C ) :   1.0557 B( 22-C , 23-H ) :   0.9316
B( 22-C , 24-H ) :   0.9344 B( 22-C , 25-C ) :   1.0709 B( 25-C , 26-H ) :   0.9541
B( 25-C , 27-H ) :   0.9552 B( 25-C , 28-C ) :   1.0766 B( 28-C , 29-H ) :   0.9733
B( 28-C , 30-H ) :   0.9735 B( 28-C , 31-H ) :   0.9721

Dispersion correction           -0.016060056
FINAL SINGLE POINT ENERGY     -1339.870204226797

DIPOLE MOMENT
-------------
                                X             Y             Z
Electronic contribution:     10.40644       4.36240      23.71346
Nuclear contribution   :    -10.37309      -4.58428     -24.36830
                        -----------------------------------------
Total Dipole Moment    :      0.03335      -0.22188      -0.65484
                        -----------------------------------------
Magnitude (a.u.)       :      0.69221
Magnitude (Debye)      :      1.75947

Rotational constants in cm-1:     0.018784     0.009816     0.008153
Rotational constants in MHz :   563.136577   294.278502   244.409587

                             ****ORCA TERMINATED NORMALLY****
TOTAL RUN TIME: 0 days 0 hours 0 minutes 32 seconds 524 msec
