                         Program Version 4.2.1 -  RELEASE  -
|  1> ! wB97X-D3 SP def2-SVP
|  2> %pal
|  3> nprocs 16
|  4> end
|  5>
|  6> * xyz 0 1
|  7> S 	 -29.7914 	 68.6744 	 101.687
|  8> C 	 -28.6379 	 67.3777 	 101.883
|  9> C 	 -27.6871 	 67.715 	 102.829
| 10> C 	 -27.9725 	 69.019 	 103.42
| 11> C 	 -29.0558 	 69.6758 	 102.879
| 12> H 	 -27.3889 	 69.6402 	 104.08
| 13> C 	 -26.534 	 66.8367 	 103.108
| 14> H 	 -26.6563 	 65.9617 	 102.444
| 15> H 	 -26.7786 	 66.4244 	 104.168
| 16> C 	 -25.1079 	 67.4032 	 103.091
| 17> H 	 -25.1141 	 68.2143 	 103.786
| 18> H 	 -24.3652 	 66.7191 	 103.438
| 19> C 	 -24.5617 	 67.9692 	 101.8
| 20> H 	 -24.6158 	 67.3597 	 100.958
| 21> H 	 -25.1925 	 68.8661 	 101.522
| 22> H 	 -23.5559 	 68.3631 	 101.791
| 23> S 	 -30.7343 	 71.2571 	 104.321
| 24> C 	 -30.3102 	 72.9631 	 104.52
| 25> C 	 -29.2912 	 73.3809 	 103.662
| 26> C 	 -28.7776 	 72.3047 	 102.853
| 27> C 	 -29.3601 	 71.1065 	 103.142
| 28> H 	 -29.144 	 74.4049 	 103.658
| 29> C 	 -27.6826 	 72.5322 	 101.845
| 30> H 	 -27.1478 	 71.6204 	 101.724
| 31> H 	 -27.016 	 73.2332 	 102.353
| 32> C 	 -28.0526 	 73.3536 	 100.62
| 33> H 	 -27.1603 	 73.9216 	 100.327
| 34> H 	 -28.7827 	 74.0754 	 100.943
| 35> C 	 -28.4818 	 72.5155 	 99.3699
| 36> H 	 -27.6619 	 71.7854 	 99.1484
| 37> H 	 -28.6138 	 73.2664 	 98.5801
| 38> H 	 -29.3563 	 71.8694 	 99.6511
| 39> H 	 -28.6541 	 66.5428 	 101.323
| 40> H 	 -30.8689 	 73.6384 	 105.172
| 41> *
| 42>
| 43>                          ****END OF INPUT****

CARTESIAN COORDINATES (ANGSTROEM)
---------------------------------
  S    -29.791400   68.674400  101.687000
  C    -28.637900   67.377700  101.883000
  C    -27.687100   67.715000  102.829000
  C    -27.972500   69.019000  103.420000
  C    -29.055800   69.675800  102.879000
  H    -27.388900   69.640200  104.080000
  C    -26.534000   66.836700  103.108000
  H    -26.656300   65.961700  102.444000
  H    -26.778600   66.424400  104.168000
  C    -25.107900   67.403200  103.091000
  H    -25.114100   68.214300  103.786000
  H    -24.365200   66.719100  103.438000
  C    -24.561700   67.969200  101.800000
  H    -24.615800   67.359700  100.958000
  H    -25.192500   68.866100  101.522000
  H    -23.555900   68.363100  101.791000
  S    -30.734300   71.257100  104.321000
  C    -30.310200   72.963100  104.520000
  C    -29.291200   73.380900  103.662000
  C    -28.777600   72.304700  102.853000
  C    -29.360100   71.106500  103.142000
  H    -29.144000   74.404900  103.658000
  C    -27.682600   72.532200  101.845000
  H    -27.147800   71.620400  101.724000
  H    -27.016000   73.233200  102.353000
  C    -28.052600   73.353600  100.620000
  H    -27.160300   73.921600  100.327000
  H    -28.782700   74.075400  100.943000
  C    -28.481800   72.515500   99.369900
  H    -27.661900   71.785400   99.148400
  H    -28.613800   73.266400   98.580100
  H    -29.356300   71.869400   99.651100
  H    -28.654100   66.542800  101.323000
  H    -30.868900   73.638400  105.172000

 Total Charge           Charge          ....    0
 Multiplicity           Mult            ....    1
 Number of Electrons    NEL             ....  134
 Basis Dimension        Dim             ....  322

ORBITAL ENERGIES
----------------

  NO   OCC          E(Eh)            E(eV)
   0   2.0000     -88.963069     -2420.8082
   1   2.0000     -88.961770     -2420.7728
   2   2.0000     -10.330453      -281.1059
   3   2.0000     -10.327762      -281.0327
   4   2.0000     -10.322920      -280.9009
   5   2.0000     -10.308652      -280.5127
   6   2.0000     -10.307586      -280.4837
   7   2.0000     -10.305010      -280.4136
   8   2.0000     -10.300680      -280.2958
   9   2.0000     -10.294402      -280.1249
  10   2.0000     -10.293494      -280.1002
  11   2.0000     -10.286325      -279.9051
  12   2.0000     -10.286135      -279.9000
  13   2.0000     -10.285084      -279.8714
  14   2.0000     -10.282817      -279.8097
  15   2.0000     -10.272408      -279.5264
  16   2.0000      -8.078367      -219.8236
  17   2.0000      -8.075732      -219.7518
  18   2.0000      -6.036862      -164.2714
  19   2.0000      -6.034199      -164.1989
  20   2.0000      -6.032610      -164.1557
  21   2.0000      -6.030517      -164.0987
  22   2.0000      -6.029293      -164.0654
  23   2.0000      -6.026402      -163.9867
  24   2.0000      -1.004367       -27.3302
  25   2.0000      -0.981411       -26.7056
  26   2.0000      -0.914844       -24.8942
  27   2.0000      -0.909309       -24.7436
  28   2.0000      -0.870937       -23.6994
  29   2.0000      -0.848136       -23.0789
  30   2.0000      -0.845207       -22.9993
  31   2.0000      -0.817695       -22.2506
  32   2.0000      -0.783907       -21.3312
  33   2.0000      -0.775490       -21.1022
  34   2.0000      -0.712656       -19.3924
  35   2.0000      -0.700577       -19.0637
  36   2.0000      -0.693324       -18.8663
  37   2.0000      -0.661751       -18.0072
  38   2.0000      -0.647966       -17.6320
  39   2.0000      -0.616608       -16.7788
  40   2.0000      -0.595999       -16.2180
  41   2.0000      -0.571314       -15.5463
  42   2.0000      -0.552801       -15.0425
  43   2.0000      -0.552013       -15.0210
  44   2.0000      -0.543606       -14.7923
  45   2.0000      -0.536893       -14.6096
  46   2.0000      -0.524298       -14.2669
  47   2.0000      -0.521019       -14.1776
  48   2.0000      -0.502685       -13.6788
  49   2.0000      -0.496770       -13.5178
  50   2.0000      -0.487259       -13.2590
  51   2.0000      -0.478032       -13.0079
  52   2.0000      -0.473690       -12.8898
  53   2.0000      -0.465939       -12.6788
  54   2.0000      -0.460224       -12.5233
  55   2.0000      -0.446265       -12.1435
  56   2.0000      -0.443219       -12.0606
  57   2.0000      -0.437353       -11.9010
  58   2.0000      -0.433085       -11.7848
  59   2.0000      -0.424586       -11.5536
  60   2.0000      -0.419233       -11.4079
  61   2.0000      -0.412127       -11.2146
  62   2.0000      -0.406860       -11.0712
  63   2.0000      -0.334525        -9.1029
  64   2.0000      -0.325288        -8.8515
  65   2.0000      -0.324553        -8.8315
  66   2.0000      -0.310515        -8.4496
  67   0.0000       0.045894         1.2488
  68   0.0000       0.054098         1.4721
  69   0.0000       0.107697         2.9306
  70   0.0000       0.117991         3.2107
  71   0.0000       0.121372         3.3027

MULLIKEN ATOMIC CHARGES
-----------------------
   0 S :    0.111350
   1 C :   -0.082166
   2 C :   -0.087717
   3 C :    0.056857
   4 C :   -0.168314
   5 H :    0.009369
   6 C :    0.041961
   7 H :    0.016964
   8 H :    0.056195
   9 C :   -0.027073
  10 H :    0.019576
  11 H :    0.027057
  12 C :   -0.049186
  13 H :    0.012948
  14 H :    0.027678
  15 H :    0.030504
  16 S :    0.086622
  17 C :   -0.097937
  18 C :   -0.026085
  19 C :   -0.011167
  20 C :   -0.193156
  21 H :   -0.001402
  22 C :    0.097648
  23 H :    0.018540
  24 H :    0.016370
  25 C :   -0.074111
  26 H :    0.026724
  27 H :    0.024196
  28 C :   -0.058107
  29 H :    0.036144
  30 H :    0.047935
  31 H :    0.046768
  32 H :    0.003826
  33 H :    0.061187
Sum of atomic charges:    0.0000000

LOEWDIN ATOMIC CHARGES
----------------------
   0 S :    0.414831
   1 C :   -0.178826
   2 C :   -0.061694
   3 C :   -0.063875
   4 C :   -0.216236
   5 H :    0.029557
   6 C :   -0.037088
   7 H :    0.029385
   8 H :    0.050140
   9 C :   -0.039579
  10 H :    0.023159
  11 H :    0.024802
  12 C :   -0.067094
  13 H :    0.013226
  14 H :    0.030436
  15 H :    0.027417
  16 S :    0.365901
  17 C :   -0.165507
  18 C :   -0.070058
  19 C :   -0.047109
  20 C :   -0.176517
  21 H :    0.021591
  22 C :   -0.030089
  23 H :    0.025297
  24 H :    0.036893
  25 C :   -0.038119
  26 H :    0.024283
  27 H :    0.021964
  28 C :   -0.068981
  29 H :    0.028970
  30 H :    0.028599
  31 H :    0.031380
  32 H :    0.004045
  33 H :    0.028897

  Mayer bond orders larger than 0.100000
B(  0-S ,  1-C ) :   1.1399 B(  0-S ,  4-C ) :   1.1639 B(  1-C ,  2-C ) :   1.5977
B(  1-C , 32-H ) :   0.9866 B(  2-C ,  3-C ) :   1.1988 B(  2-C ,  6-C ) :   1.0376
B(  3-C ,  4-C ) :   1.5966 B(  3-C ,  5-H ) :   0.9980 B(  4-C , 20-C ) :   0.9827
B(  6-C ,  7-H ) :   0.9413 B(  6-C ,  8-H ) :   0.9302 B(  6-C ,  9-C ) :   1.0671
B(  9-C , 10-H ) :   0.9526 B(  9-C , 11-H ) :   0.9541 B(  9-C , 12-C ) :   1.0787
B( 12-C , 13-H ) :   0.9753 B( 12-C , 14-H ) :   0.9724 B( 12-C , 15-H ) :   0.9727
B( 16-S , 17-C ) :   1.1513 B( 16-S , 20-C ) :   1.1146 B( 17-C , 18-C ) :   1.6516
B( 17-C , 33-H ) :   0.9632 B( 18-C , 19-C ) :   1.1711 B( 18-C , 21-H ) :   1.0006
B( 19-C , 20-C ) :   1.6704 B( 19-C , 22-C ) :   1.0484 B( 22-C , 23-H ) :   0.9378
B( 22-C , 24-H ) :   0.9246 B( 22-C , 25-C ) :   1.0635 B( 25-C , 26-H ) :   0.9575
B( 25-C , 27-H ) :   0.9530 B( 25-C , 28-C ) :   1.0732 B( 28-C , 29-H ) :   0.9764
B( 28-C , 30-H ) :   0.9746 B( 28-C , 31-H ) :   0.9754

Dispersion correction           -0.014863294
FINAL SINGLE POINT ENERGY     -1339.862667910955

DIPOLE MOMENT
-------------
                                X             Y             Z
Electronic contribution:    -22.65615      -1.68620      10.80246
Nuclear contribution   :     23.35223       1.93842     -10.86505
                        -----------------------------------------
Total Dipole Moment    :      0.69608       0.25222      -0.06259
                        -----------------------------------------
Magnitude (a.u.)       :      0.74300
Magnitude (Debye)      :      1.88857

Rotational constants in cm-1:     0.017818     0.008982     0.007722
Rotational constants in MHz :   534.174874   269.271360   231.513584

                             ****ORCA TERMINATED NORMALLY****
TOTAL RUN TIME: 0 days 0 hours 0 minutes 30 seconds 331 msec
