                         Program Version 4.2.1 -  RELEASE  -
|  1> ! wB97X-D3 SP def2-SVP
|  2> %pal
|  3> nprocs 16
|  4> end
|  5>
|  6> * xyz 0 1
|  7> S 	 -72.9187 	 34.6332 	 114.941
|  8> C 	 -73.6213 	 35.0688 	 116.53
|  9> C 	 -72.6463 	 35.0855 	 117.494
| 10> C 	 -71.3247 	 35.0061 	 116.894
| 11> C 	 -71.3132 	 34.8474 	 115.554
| 12> H 	 -70.3791 	 34.7229 	 117.318
| 13> C 	 -72.8395 	 35.2093 	 118.944
| 14> H 	 -73.8739 	 35.4788 	 119.064
| 15> H 	 -72.3271 	 36.1566 	 119.274
| 16> C 	 -72.3541 	 34.0438 	 119.832
| 17> H 	 -72.9988 	 33.1243 	 119.704
| 18> H 	 -71.3388 	 33.8043 	 119.373
| 19> C 	 -72.1979 	 34.5411 	 121.302
| 20> H 	 -71.3632 	 35.2124 	 121.373
| 21> H 	 -73.047 	 35.1802 	 121.61
| 22> H 	 -72.1589 	 33.702 	 122.013
| 23> S 	 -70.1206 	 33.2213 	 113.811
| 24> C 	 -68.5172 	 33.5868 	 113.198
| 25> C 	 -67.9162 	 34.5808 	 113.861
| 26> C 	 -68.7683 	 35.1877 	 114.853
| 27> C 	 -70.0668 	 34.5651 	 114.84
| 28> H 	 -67.0068 	 35.0381 	 113.431
| 29> C 	 -68.4662 	 36.5117 	 115.412
| 30> H 	 -67.3554 	 36.6897 	 115.266
| 31> H 	 -68.5967 	 36.4961 	 116.507
| 32> C 	 -69.0555 	 37.7219 	 114.768
| 33> H 	 -70.1864 	 37.8137 	 114.87
| 34> H 	 -68.786 	 37.6414 	 113.732
| 35> C 	 -68.5322 	 39.0247 	 115.401
| 36> H 	 -68.7897 	 39.887 	 114.744
| 37> H 	 -67.5467 	 39.0809 	 115.388
| 38> H 	 -68.8864 	 39.2288 	 116.375
| 39> H 	 -74.6898 	 35.2017 	 116.786
| 40> H 	 -68.1865 	 33.1484 	 112.27
| 41> *
| 42>
| 43>                          ****END OF INPUT****

CARTESIAN COORDINATES (ANGSTROEM)
---------------------------------
  S    -72.918700   34.633200  114.941000
  C    -73.621300   35.068800  116.530000
  C    -72.646300   35.085500  117.494000
  C    -71.324700   35.006100  116.894000
  C    -71.313200   34.847400  115.554000
  H    -70.379100   34.722900  117.318000
  C    -72.839500   35.209300  118.944000
  H    -73.873900   35.478800  119.064000
  H    -72.327100   36.156600  119.274000
  C    -72.354100   34.043800  119.832000
  H    -72.998800   33.124300  119.704000
  H    -71.338800   33.804300  119.373000
  C    -72.197900   34.541100  121.302000
  H    -71.363200   35.212400  121.373000
  H    -73.047000   35.180200  121.610000
  H    -72.158900   33.702000  122.013000
  S    -70.120600   33.221300  113.811000
  C    -68.517200   33.586800  113.198000
  C    -67.916200   34.580800  113.861000
  C    -68.768300   35.187700  114.853000
  C    -70.066800   34.565100  114.840000
  H    -67.006800   35.038100  113.431000
  C    -68.466200   36.511700  115.412000
  H    -67.355400   36.689700  115.266000
  H    -68.596700   36.496100  116.507000
  C    -69.055500   37.721900  114.768000
  H    -70.186400   37.813700  114.870000
  H    -68.786000   37.641400  113.732000
  C    -68.532200   39.024700  115.401000
  H    -68.789700   39.887000  114.744000
  H    -67.546700   39.080900  115.388000
  H    -68.886400   39.228800  116.375000
  H    -74.689800   35.201700  116.786000
  H    -68.186500   33.148400  112.270000

 Total Charge           Charge          ....    0
 Multiplicity           Mult            ....    1
 Number of Electrons    NEL             ....  134
 Basis Dimension        Dim             ....  322

ORBITAL ENERGIES
----------------

  NO   OCC          E(Eh)            E(eV)
   0   2.0000     -88.967208     -2420.9208
   1   2.0000     -88.963709     -2420.8256
   2   2.0000     -10.327731      -281.0318
   3   2.0000     -10.324879      -280.9543
   4   2.0000     -10.319497      -280.8078
   5   2.0000     -10.310056      -280.5509
   6   2.0000     -10.304482      -280.3992
   7   2.0000     -10.301446      -280.3166
   8   2.0000     -10.300985      -280.3041
   9   2.0000     -10.293922      -280.1119
  10   2.0000     -10.291011      -280.0327
  11   2.0000     -10.287795      -279.9451
  12   2.0000     -10.285650      -279.8868
  13   2.0000     -10.284770      -279.8628
  14   2.0000     -10.283442      -279.8267
  15   2.0000     -10.263680      -279.2889
  16   2.0000      -8.081561      -219.9104
  17   2.0000      -8.079820      -219.8631
  18   2.0000      -6.040336      -164.3659
  19   2.0000      -6.038116      -164.3055
  20   2.0000      -6.036279      -164.2555
  21   2.0000      -6.034070      -164.1954
  22   2.0000      -6.031890      -164.1361
  23   2.0000      -6.030797      -164.1063
  24   2.0000      -1.012432       -27.5497
  25   2.0000      -0.987384       -26.8681
  26   2.0000      -0.916536       -24.9402
  27   2.0000      -0.913586       -24.8599
  28   2.0000      -0.874518       -23.7968
  29   2.0000      -0.853426       -23.2229
  30   2.0000      -0.845519       -23.0077
  31   2.0000      -0.820988       -22.3402
  32   2.0000      -0.780434       -21.2367
  33   2.0000      -0.770648       -20.9704
  34   2.0000      -0.711229       -19.3535
  35   2.0000      -0.700300       -19.0561
  36   2.0000      -0.689474       -18.7615
  37   2.0000      -0.661610       -18.0033
  38   2.0000      -0.639212       -17.3938
  39   2.0000      -0.618005       -16.8168
  40   2.0000      -0.598351       -16.2820
  41   2.0000      -0.571320       -15.5464
  42   2.0000      -0.569966       -15.5096
  43   2.0000      -0.555549       -15.1173
  44   2.0000      -0.525583       -14.3018
  45   2.0000      -0.519206       -14.1283
  46   2.0000      -0.516647       -14.0587
  47   2.0000      -0.513244       -13.9661
  48   2.0000      -0.503871       -13.7110
  49   2.0000      -0.499279       -13.5861
  50   2.0000      -0.498297       -13.5594
  51   2.0000      -0.483275       -13.1506
  52   2.0000      -0.470890       -12.8136
  53   2.0000      -0.462634       -12.5889
  54   2.0000      -0.455296       -12.3892
  55   2.0000      -0.447618       -12.1803
  56   2.0000      -0.445497       -12.1226
  57   2.0000      -0.441269       -12.0075
  58   2.0000      -0.434322       -11.8185
  59   2.0000      -0.428232       -11.6528
  60   2.0000      -0.422704       -11.5024
  61   2.0000      -0.415196       -11.2980
  62   2.0000      -0.407896       -11.0994
  63   2.0000      -0.355166        -9.6646
  64   2.0000      -0.331072        -9.0089
  65   2.0000      -0.326192        -8.8761
  66   2.0000      -0.288986        -7.8637
  67   0.0000       0.025647         0.6979
  68   0.0000       0.075176         2.0456
  69   0.0000       0.106203         2.8899
  70   0.0000       0.118817         3.2332
  71   0.0000       0.134563         3.6616

MULLIKEN ATOMIC CHARGES
-----------------------
   0 S :    0.101976
   1 C :   -0.126931
   2 C :   -0.085403
   3 C :    0.004196
   4 C :   -0.112060
   5 H :    0.027248
   6 C :    0.059473
   7 H :    0.000214
   8 H :    0.034492
   9 C :   -0.093734
  10 H :    0.049405
  11 H :    0.041135
  12 C :   -0.043759
  13 H :    0.032425
  14 H :    0.030894
  15 H :    0.044551
  16 S :    0.101753
  17 C :   -0.096069
  18 C :   -0.027344
  19 C :   -0.025606
  20 C :   -0.176585
  21 H :    0.035740
  22 C :    0.018062
  23 H :    0.018444
  24 H :    0.024655
  25 C :   -0.059088
  26 H :    0.047675
  27 H :    0.018657
  28 C :    0.007553
  29 H :    0.026463
  30 H :   -0.015287
  31 H :    0.027059
  32 H :    0.056070
  33 H :    0.053728
Sum of atomic charges:   -0.0000000

LOEWDIN ATOMIC CHARGES
----------------------
   0 S :    0.386741
   1 C :   -0.189006
   2 C :   -0.061197
   3 C :   -0.070368
   4 C :   -0.198700
   5 H :    0.031051
   6 C :   -0.042650
   7 H :    0.023047
   8 H :    0.038513
   9 C :   -0.041423
  10 H :    0.031965
  11 H :    0.031333
  12 C :   -0.066293
  13 H :    0.024307
  14 H :    0.027704
  15 H :    0.029362
  16 S :    0.423348
  17 C :   -0.183663
  18 C :   -0.071251
  19 C :   -0.065711
  20 C :   -0.202252
  21 H :    0.041084
  22 C :   -0.048580
  23 H :    0.036048
  24 H :    0.028581
  25 C :   -0.036071
  26 H :    0.033463
  27 H :    0.021820
  28 C :   -0.052109
  29 H :    0.035070
  30 H :    0.000413
  31 H :    0.022261
  32 H :    0.037439
  33 H :    0.025723

  Mayer bond orders larger than 0.100000
B(  0-S ,  1-C ) :   1.1057 B(  0-S ,  4-C ) :   1.1317 B(  1-C ,  2-C ) :   1.6523
B(  1-C , 32-H ) :   0.9613 B(  2-C ,  3-C ) :   1.1885 B(  2-C ,  6-C ) :   1.0424
B(  3-C ,  4-C ) :   1.6184 B(  3-C ,  5-H ) :   0.9820 B(  4-C , 20-C ) :   1.0492
B(  6-C ,  7-H ) :   0.9249 B(  6-C ,  8-H ) :   0.9414 B(  6-C ,  9-C ) :   1.0391
B(  9-C , 10-H ) :   0.9563 B(  9-C , 11-H ) :   0.9621 B(  9-C , 12-C ) :   1.0634
B( 12-C , 13-H ) :   0.9756 B( 12-C , 14-H ) :   0.9755 B( 12-C , 15-H ) :   0.9760
B( 16-S , 17-C ) :   1.1421 B( 16-S , 20-C ) :   1.1770 B( 17-C , 18-C ) :   1.6373
B( 17-C , 33-H ) :   0.9661 B( 18-C , 19-C ) :   1.2414 B( 18-C , 21-H ) :   0.9798
B( 19-C , 20-C ) :   1.5435 B( 19-C , 22-C ) :   1.0755 B( 22-C , 23-H ) :   0.9333
B( 22-C , 24-H ) :   0.9213 B( 22-C , 25-C ) :   1.0688 B( 25-C , 26-H ) :   0.9515
B( 25-C , 27-H ) :   0.9510 B( 25-C , 28-C ) :   1.0872 B( 28-C , 29-H ) :   0.9697
B( 28-C , 30-H ) :   0.9701 B( 28-C , 31-H ) :   0.9751

Dispersion correction           -0.013873431
FINAL SINGLE POINT ENERGY     -1339.855589186144

DIPOLE MOMENT
-------------
                                X             Y             Z
Electronic contribution:     -6.05752     -15.67798     -21.13573
Nuclear contribution   :      6.24354      15.99036      21.51499
                        -----------------------------------------
Total Dipole Moment    :      0.18602       0.31238       0.37926
                        -----------------------------------------
Magnitude (a.u.)       :      0.52538
Magnitude (Debye)      :      1.33541

Rotational constants in cm-1:     0.017096     0.008493     0.007124
Rotational constants in MHz :   512.536529   254.622586   213.570043

                             ****ORCA TERMINATED NORMALLY****
TOTAL RUN TIME: 0 days 0 hours 0 minutes 33 seconds 426 msec
