                         Program Version 4.2.1 -  RELEASE  -
|  1> ! wB97X-D3 SP def2-SVP
|  2> %pal
|  3> nprocs 16
|  4> end
|  5>
|  6> * xyz 0 1
|  7> S 	 60.5737 	 24.9898 	 75.7138
|  8> C 	 61.2093 	 25.1074 	 74.1149
|  9> C 	 62.3609 	 24.3967 	 74.0137
| 10> C 	 62.6351 	 23.5513 	 75.1438
| 11> C 	 61.6778 	 23.785 	 76.169
| 12> H 	 63.4355 	 22.7833 	 75.3108
| 13> C 	 63.3651 	 24.369 	 72.8629
| 14> H 	 63.1735 	 23.4304 	 72.278
| 15> H 	 64.2983 	 24.3073 	 73.2947
| 16> C 	 63.3322 	 25.5622 	 71.9294
| 17> H 	 62.3938 	 25.5931 	 71.4507
| 18> H 	 63.4947 	 26.4641 	 72.5652
| 19> C 	 64.4778 	 25.5589 	 70.9317
| 20> H 	 64.2749 	 26.378 	 70.1911
| 21> H 	 65.4368 	 25.6858 	 71.3402
| 22> H 	 64.4215 	 24.6233 	 70.4582
| 23> S 	 61.5637 	 23.9563 	 78.9391
| 24> C 	 61.6695 	 22.5011 	 79.9043
| 25> C 	 61.7864 	 21.4261 	 79.098
| 26> C 	 61.777 	 21.747 	 77.7151
| 27> C 	 61.6141 	 23.0815 	 77.4492
| 28> H 	 61.8828 	 20.45 	 79.6189
| 29> C 	 61.8848 	 20.6284 	 76.5976
| 30> H 	 62.8967 	 20.6775 	 76.1856
| 31> H 	 61.1576 	 20.8779 	 75.8232
| 32> C 	 61.6017 	 19.1785 	 77.1092
| 33> H 	 62.3271 	 18.8065 	 77.7591
| 34> H 	 61.5801 	 18.5951 	 76.1634
| 35> C 	 60.1349 	 19.0442 	 77.6623
| 36> H 	 59.8709 	 19.6488 	 78.5236
| 37> H 	 59.8272 	 18.0144 	 77.8662
| 38> H 	 59.4328 	 19.4492 	 76.8345
| 39> H 	 60.8272 	 25.7343 	 73.2992
| 40> H 	 61.6763 	 22.4429 	 80.9351
| 41> *
| 42>
| 43>                          ****END OF INPUT****

CARTESIAN COORDINATES (ANGSTROEM)
---------------------------------
  S     60.573700   24.989800   75.713800
  C     61.209300   25.107400   74.114900
  C     62.360900   24.396700   74.013700
  C     62.635100   23.551300   75.143800
  C     61.677800   23.785000   76.169000
  H     63.435500   22.783300   75.310800
  C     63.365100   24.369000   72.862900
  H     63.173500   23.430400   72.278000
  H     64.298300   24.307300   73.294700
  C     63.332200   25.562200   71.929400
  H     62.393800   25.593100   71.450700
  H     63.494700   26.464100   72.565200
  C     64.477800   25.558900   70.931700
  H     64.274900   26.378000   70.191100
  H     65.436800   25.685800   71.340200
  H     64.421500   24.623300   70.458200
  S     61.563700   23.956300   78.939100
  C     61.669500   22.501100   79.904300
  C     61.786400   21.426100   79.098000
  C     61.777000   21.747000   77.715100
  C     61.614100   23.081500   77.449200
  H     61.882800   20.450000   79.618900
  C     61.884800   20.628400   76.597600
  H     62.896700   20.677500   76.185600
  H     61.157600   20.877900   75.823200
  C     61.601700   19.178500   77.109200
  H     62.327100   18.806500   77.759100
  H     61.580100   18.595100   76.163400
  C     60.134900   19.044200   77.662300
  H     59.870900   19.648800   78.523600
  H     59.827200   18.014400   77.866200
  H     59.432800   19.449200   76.834500
  H     60.827200   25.734300   73.299200
  H     61.676300   22.442900   80.935100

 Total Charge           Charge          ....    0
 Multiplicity           Mult            ....    1
 Number of Electrons    NEL             ....  134
 Basis Dimension        Dim             ....  322

ORBITAL ENERGIES
----------------

  NO   OCC          E(Eh)            E(eV)
   0   2.0000     -88.966871     -2420.9116
   1   2.0000     -88.960931     -2420.7500
   2   2.0000     -10.328860      -281.0626
   3   2.0000     -10.322396      -280.8867
   4   2.0000     -10.310209      -280.5551
   5   2.0000     -10.307968      -280.4941
   6   2.0000     -10.300665      -280.2953
   7   2.0000     -10.299623      -280.2670
   8   2.0000     -10.299120      -280.2533
   9   2.0000     -10.296618      -280.1852
  10   2.0000     -10.290781      -280.0264
  11   2.0000     -10.290045      -280.0064
  12   2.0000     -10.286607      -279.9128
  13   2.0000     -10.282840      -279.8103
  14   2.0000     -10.281744      -279.7805
  15   2.0000     -10.272957      -279.5414
  16   2.0000      -8.082863      -219.9459
  17   2.0000      -8.076366      -219.7691
  18   2.0000      -6.041328      -164.3929
  19   2.0000      -6.037114      -164.2782
  20   2.0000      -6.034910      -164.2183
  21   2.0000      -6.033671      -164.1845
  22   2.0000      -6.030759      -164.1053
  23   2.0000      -6.027059      -164.0046
  24   2.0000      -1.012981       -27.5646
  25   2.0000      -0.991714       -26.9859
  26   2.0000      -0.918683       -24.9986
  27   2.0000      -0.899174       -24.4678
  28   2.0000      -0.874643       -23.8002
  29   2.0000      -0.853241       -23.2179
  30   2.0000      -0.837088       -22.7783
  31   2.0000      -0.813801       -22.1446
  32   2.0000      -0.783578       -21.3222
  33   2.0000      -0.772821       -21.0295
  34   2.0000      -0.712526       -19.3888
  35   2.0000      -0.700204       -19.0535
  36   2.0000      -0.694201       -18.8902
  37   2.0000      -0.656095       -17.8533
  38   2.0000      -0.637333       -17.3427
  39   2.0000      -0.609024       -16.5724
  40   2.0000      -0.596431       -16.2297
  41   2.0000      -0.583715       -15.8837
  42   2.0000      -0.573483       -15.6053
  43   2.0000      -0.556192       -15.1348
  44   2.0000      -0.526145       -14.3171
  45   2.0000      -0.523211       -14.2373
  46   2.0000      -0.521186       -14.1822
  47   2.0000      -0.511082       -13.9072
  48   2.0000      -0.508756       -13.8440
  49   2.0000      -0.505526       -13.7561
  50   2.0000      -0.488449       -13.2914
  51   2.0000      -0.485546       -13.2124
  52   2.0000      -0.476181       -12.9576
  53   2.0000      -0.461646       -12.5620
  54   2.0000      -0.460610       -12.5338
  55   2.0000      -0.452624       -12.3165
  56   2.0000      -0.438793       -11.9402
  57   2.0000      -0.433460       -11.7950
  58   2.0000      -0.431945       -11.7538
  59   2.0000      -0.427679       -11.6377
  60   2.0000      -0.424155       -11.5418
  61   2.0000      -0.415466       -11.3054
  62   2.0000      -0.406128       -11.0513
  63   2.0000      -0.351553        -9.5663
  64   2.0000      -0.329759        -8.9732
  65   2.0000      -0.328228        -8.9316
  66   2.0000      -0.293656        -7.9908
  67   0.0000       0.034383         0.9356
  68   0.0000       0.079685         2.1683
  69   0.0000       0.116632         3.1737
  70   0.0000       0.130154         3.5417
  71   0.0000       0.140169         3.8142

MULLIKEN ATOMIC CHARGES
-----------------------
   0 S :    0.128285
   1 C :   -0.134505
   2 C :   -0.092199
   3 C :   -0.001095
   4 C :   -0.163968
   5 H :    0.033663
   6 C :    0.086675
   7 H :    0.041407
   8 H :    0.006607
   9 C :   -0.108164
  10 H :    0.025111
  11 H :    0.034125
  12 C :   -0.001415
  13 H :    0.038818
  14 H :    0.025545
  15 H :    0.012017
  16 S :    0.096926
  17 C :   -0.057929
  18 C :   -0.059203
  19 C :   -0.058101
  20 C :   -0.135359
  21 H :    0.034886
  22 C :    0.054811
  23 H :    0.040478
  24 H :    0.043168
  25 C :   -0.055191
  26 H :    0.028646
  27 H :    0.039514
  28 C :   -0.096975
  29 H :    0.041642
  30 H :    0.039504
  31 H :    0.034928
  32 H :    0.054480
  33 H :    0.022868
Sum of atomic charges:    0.0000000

LOEWDIN ATOMIC CHARGES
----------------------
   0 S :    0.443363
   1 C :   -0.217761
   2 C :   -0.063599
   3 C :   -0.067308
   4 C :   -0.209516
   5 H :    0.040458
   6 C :   -0.027822
   7 H :    0.037825
   8 H :    0.019166
   9 C :   -0.041717
  10 H :    0.015605
  11 H :    0.028986
  12 C :   -0.053636
  13 H :    0.034955
  14 H :    0.018472
  15 H :    0.016677
  16 S :    0.406710
  17 C :   -0.172440
  18 C :   -0.079326
  19 C :   -0.063509
  20 C :   -0.209419
  21 H :    0.041195
  22 C :   -0.025353
  23 H :    0.028683
  24 H :    0.033049
  25 C :   -0.037878
  26 H :    0.011934
  27 H :    0.035437
  28 C :   -0.075139
  29 H :    0.020833
  30 H :    0.023898
  31 H :    0.035497
  32 H :    0.035434
  33 H :    0.016246

  Mayer bond orders larger than 0.100000
B(  0-S ,  1-C ) :   1.1293 B(  0-S ,  4-C ) :   1.1887 B(  1-C ,  2-C ) :   1.6215
B(  1-C , 32-H ) :   0.9650 B(  2-C ,  3-C ) :   1.2477 B(  2-C ,  6-C ) :   1.0048
B(  3-C ,  4-C ) :   1.5369 B(  3-C ,  5-H ) :   0.9892 B(  4-C , 20-C ) :   1.0259
B(  6-C ,  7-H ) :   0.9255 B(  6-C ,  8-H ) :   0.9438 B(  6-C ,  9-C ) :   1.0874
B(  9-C , 10-H ) :   0.9481 B(  9-C , 11-H ) :   0.9579 B(  9-C , 12-C ) :   1.0917
B( 12-C , 13-H ) :   0.9727 B( 12-C , 14-H ) :   0.9761 B( 12-C , 15-H ) :   0.9715
B( 16-S , 17-C ) :   1.1497 B( 16-S , 20-C ) :   1.1432 B( 17-C , 18-C ) :   1.6230
B( 17-C , 33-H ) :   0.9723 B( 18-C , 19-C ) :   1.2424 B( 18-C , 21-H ) :   0.9822
B( 19-C , 20-C ) :   1.6269 B( 19-C , 22-C ) :   1.0018 B( 22-C , 23-H ) :   0.9336
B( 22-C , 24-H ) :   0.9428 B( 22-C , 25-C ) :   1.0881 B( 25-C , 26-H ) :   0.9536
B( 25-C , 27-H ) :   0.9541 B( 25-C , 28-C ) :   1.0640 B( 28-C , 29-H ) :   0.9770
B( 28-C , 30-H ) :   0.9771 B( 28-C , 31-H ) :   0.9731

Dispersion correction           -0.013887851
FINAL SINGLE POINT ENERGY     -1339.877537124570

DIPOLE MOMENT
-------------
                                X             Y             Z
Electronic contribution:     -8.04848      13.04537      18.50857
Nuclear contribution   :      8.41226     -13.50541     -18.88669
                        -----------------------------------------
Total Dipole Moment    :      0.36379      -0.46004      -0.37813
                        -----------------------------------------
Magnitude (a.u.)       :      0.69782
Magnitude (Debye)      :      1.77373

Rotational constants in cm-1:     0.023004     0.007043     0.006037
Rotational constants in MHz :   689.647487   211.142807   180.986330

                             ****ORCA TERMINATED NORMALLY****
TOTAL RUN TIME: 0 days 0 hours 0 minutes 29 seconds 381 msec
