                         Program Version 4.2.1 -  RELEASE  -
|  1> ! wB97X-D3 SP def2-SVP
|  2> %pal
|  3> nprocs 16
|  4> end
|  5>
|  6> * xyz 0 1
|  7> S 	 -31.2032 	 63.767 	 121.132
|  8> C 	 -32.7468 	 63.3842 	 120.312
|  9> C 	 -32.7452 	 63.7634 	 118.99
| 10> C 	 -31.3987 	 64.0491 	 118.554
| 11> C 	 -30.4481 	 64.1163 	 119.592
| 12> H 	 -31.0883 	 64.2079 	 117.518
| 13> C 	 -33.9917 	 63.5386 	 118.145
| 14> H 	 -34.157 	 64.4214 	 117.611
| 15> H 	 -34.7548 	 63.4297 	 118.888
| 16> C 	 -33.9552 	 62.3632 	 117.179
| 17> H 	 -35.0125 	 62.1239 	 116.928
| 18> H 	 -33.3902 	 62.7088 	 116.265
| 19> C 	 -33.3123 	 61.1321 	 117.815
| 20> H 	 -33.8667 	 60.7291 	 118.687
| 21> H 	 -33.3107 	 60.2397 	 117.131
| 22> H 	 -32.296 	 61.2252 	 117.92
| 23> S 	 -28.0488 	 64.3106 	 121.065
| 24> C 	 -26.632 	 64.911 	 120.258
| 25> C 	 -26.8896 	 65.147 	 118.956
| 26> C 	 -28.1732 	 64.8606 	 118.513
| 27> C 	 -29.0042 	 64.4527 	 119.543
| 28> H 	 -26.1366 	 65.6983 	 118.414
| 29> C 	 -28.4834 	 64.9918 	 117.081
| 30> H 	 -27.8548 	 65.8733 	 116.806
| 31> H 	 -29.5352 	 65.4389 	 116.975
| 32> C 	 -28.0383 	 63.8802 	 116.094
| 33> H 	 -28.5021 	 62.9168 	 116.308
| 34> H 	 -26.9255 	 63.6543 	 116.239
| 35> C 	 -28.3001 	 64.3786 	 114.665
| 36> H 	 -27.998 	 65.444 	 114.531
| 37> H 	 -29.4054 	 64.3185 	 114.482
| 38> H 	 -27.7714 	 63.7422 	 113.936
| 39> H 	 -33.5526 	 63.09 	 120.91
| 40> H 	 -25.6578 	 65.0195 	 120.741
| 41> *
| 42>
| 43>                          ****END OF INPUT****

CARTESIAN COORDINATES (ANGSTROEM)
---------------------------------
  S    -31.203200   63.767000  121.132000
  C    -32.746800   63.384200  120.312000
  C    -32.745200   63.763400  118.990000
  C    -31.398700   64.049100  118.554000
  C    -30.448100   64.116300  119.592000
  H    -31.088300   64.207900  117.518000
  C    -33.991700   63.538600  118.145000
  H    -34.157000   64.421400  117.611000
  H    -34.754800   63.429700  118.888000
  C    -33.955200   62.363200  117.179000
  H    -35.012500   62.123900  116.928000
  H    -33.390200   62.708800  116.265000
  C    -33.312300   61.132100  117.815000
  H    -33.866700   60.729100  118.687000
  H    -33.310700   60.239700  117.131000
  H    -32.296000   61.225200  117.920000
  S    -28.048800   64.310600  121.065000
  C    -26.632000   64.911000  120.258000
  C    -26.889600   65.147000  118.956000
  C    -28.173200   64.860600  118.513000
  C    -29.004200   64.452700  119.543000
  H    -26.136600   65.698300  118.414000
  C    -28.483400   64.991800  117.081000
  H    -27.854800   65.873300  116.806000
  H    -29.535200   65.438900  116.975000
  C    -28.038300   63.880200  116.094000
  H    -28.502100   62.916800  116.308000
  H    -26.925500   63.654300  116.239000
  C    -28.300100   64.378600  114.665000
  H    -27.998000   65.444000  114.531000
  H    -29.405400   64.318500  114.482000
  H    -27.771400   63.742200  113.936000
  H    -33.552600   63.090000  120.910000
  H    -25.657800   65.019500  120.741000

 Total Charge           Charge          ....    0
 Multiplicity           Mult            ....    1
 Number of Electrons    NEL             ....  134
 Basis Dimension        Dim             ....  322

ORBITAL ENERGIES
----------------

  NO   OCC          E(Eh)            E(eV)
   0   2.0000     -88.964085     -2420.8358
   1   2.0000     -88.962596     -2420.7953
   2   2.0000     -10.336466      -281.2695
   3   2.0000     -10.333064      -281.1770
   4   2.0000     -10.314873      -280.6820
   5   2.0000     -10.310581      -280.5652
   6   2.0000     -10.302446      -280.3438
   7   2.0000     -10.299445      -280.2621
   8   2.0000     -10.298987      -280.2497
   9   2.0000     -10.298579      -280.2386
  10   2.0000     -10.297542      -280.2104
  11   2.0000     -10.293666      -280.1049
  12   2.0000     -10.289194      -279.9832
  13   2.0000     -10.284978      -279.8685
  14   2.0000     -10.284567      -279.8573
  15   2.0000     -10.272052      -279.5167
  16   2.0000      -8.078485      -219.8268
  17   2.0000      -8.077016      -219.7868
  18   2.0000      -6.037057      -164.2767
  19   2.0000      -6.035570      -164.2362
  20   2.0000      -6.033137      -164.1700
  21   2.0000      -6.031696      -164.1308
  22   2.0000      -6.029106      -164.0603
  23   2.0000      -6.027652      -164.0207
  24   2.0000      -1.005408       -27.3585
  25   2.0000      -0.982848       -26.7447
  26   2.0000      -0.915656       -24.9163
  27   2.0000      -0.911748       -24.8099
  28   2.0000      -0.865971       -23.5643
  29   2.0000      -0.856903       -23.3175
  30   2.0000      -0.837927       -22.8012
  31   2.0000      -0.814841       -22.1730
  32   2.0000      -0.785985       -21.3877
  33   2.0000      -0.772632       -21.0244
  34   2.0000      -0.709672       -19.3112
  35   2.0000      -0.699006       -19.0209
  36   2.0000      -0.693534       -18.8720
  37   2.0000      -0.661200       -17.9922
  38   2.0000      -0.639373       -17.3982
  39   2.0000      -0.620741       -16.8912
  40   2.0000      -0.597338       -16.2544
  41   2.0000      -0.568680       -15.4746
  42   2.0000      -0.561899       -15.2900
  43   2.0000      -0.557128       -15.1602
  44   2.0000      -0.537697       -14.6315
  45   2.0000      -0.530022       -14.4226
  46   2.0000      -0.519914       -14.1476
  47   2.0000      -0.516902       -14.0656
  48   2.0000      -0.501685       -13.6515
  49   2.0000      -0.496340       -13.5061
  50   2.0000      -0.483896       -13.1675
  51   2.0000      -0.480245       -13.0681
  52   2.0000      -0.471018       -12.8170
  53   2.0000      -0.462369       -12.5817
  54   2.0000      -0.457829       -12.4582
  55   2.0000      -0.447953       -12.1894
  56   2.0000      -0.445994       -12.1361
  57   2.0000      -0.442159       -12.0318
  58   2.0000      -0.431857       -11.7514
  59   2.0000      -0.423921       -11.5355
  60   2.0000      -0.419720       -11.4212
  61   2.0000      -0.413293       -11.2463
  62   2.0000      -0.408331       -11.1113
  63   2.0000      -0.361070        -9.8252
  64   2.0000      -0.335688        -9.1345
  65   2.0000      -0.327247        -8.9049
  66   2.0000      -0.280459        -7.6317
  67   0.0000       0.017641         0.4800
  68   0.0000       0.086962         2.3664
  69   0.0000       0.093288         2.5385
  70   0.0000       0.118258         3.2180
  71   0.0000       0.125315         3.4100

MULLIKEN ATOMIC CHARGES
-----------------------
   0 S :    0.081664
   1 C :   -0.114385
   2 C :   -0.104100
   3 C :   -0.018535
   4 C :   -0.109117
   5 H :    0.007448
   6 C :    0.136257
   7 H :    0.016121
   8 H :    0.007518
   9 C :   -0.090810
  10 H :    0.039925
  11 H :    0.038148
  12 C :   -0.031991
  13 H :    0.036819
  14 H :    0.020051
  15 H :    0.024687
  16 S :    0.083428
  17 C :   -0.086946
  18 C :   -0.034805
  19 C :   -0.033590
  20 C :   -0.105715
  21 H :    0.015187
  22 C :   -0.019799
  23 H :    0.018647
  24 H :    0.044063
  25 C :   -0.052783
  26 H :    0.035829
  27 H :    0.037789
  28 C :   -0.057389
  29 H :    0.038463
  30 H :    0.037965
  31 H :    0.043604
  32 H :    0.033847
  33 H :    0.062504
Sum of atomic charges:   -0.0000000

LOEWDIN ATOMIC CHARGES
----------------------
   0 S :    0.378245
   1 C :   -0.170251
   2 C :   -0.055126
   3 C :   -0.077763
   4 C :   -0.177672
   5 H :    0.026691
   6 C :   -0.024195
   7 H :    0.024459
   8 H :    0.026910
   9 C :   -0.040777
  10 H :    0.030950
  11 H :    0.029802
  12 C :   -0.068308
  13 H :    0.030661
  14 H :    0.029758
  15 H :    0.015597
  16 S :    0.379510
  17 C :   -0.180584
  18 C :   -0.077935
  19 C :   -0.067276
  20 C :   -0.174004
  21 H :    0.032408
  22 C :   -0.047297
  23 H :    0.035977
  24 H :    0.038198
  25 C :   -0.040660
  26 H :    0.023972
  27 H :    0.033002
  28 C :   -0.069207
  29 H :    0.028620
  30 H :    0.030013
  31 H :    0.028259
  32 H :    0.012700
  33 H :    0.035327

  Mayer bond orders larger than 0.100000
B(  0-S ,  1-C ) :   1.1254 B(  0-S ,  4-C ) :   1.1483 B(  1-C ,  2-C ) :   1.6090
B(  1-C , 32-H ) :   0.9756 B(  2-C ,  3-C ) :   1.2156 B(  2-C ,  6-C ) :   1.0310
B(  3-C ,  4-C ) :   1.5768 B(  3-C ,  5-H ) :   0.9849 B(  4-C , 20-C ) :   1.0832
B(  6-C ,  7-H ) :   0.9298 B(  6-C ,  8-H ) :   0.9357 B(  6-C ,  9-C ) :   1.0687
B(  9-C , 10-H ) :   0.9565 B(  9-C , 11-H ) :   0.9519 B(  9-C , 12-C ) :   1.0929
B( 12-C , 13-H ) :   0.9741 B( 12-C , 14-H ) :   0.9692 B( 12-C , 15-H ) :   0.9658
B( 16-S , 17-C ) :   1.1466 B( 16-S , 20-C ) :   1.1255 B( 17-C , 18-C ) :   1.6205
B( 17-C , 33-H ) :   0.9634 B( 18-C , 19-C ) :   1.2537 B( 18-C , 21-H ) :   0.9879
B( 19-C , 20-C ) :   1.5908 B( 19-C , 22-C ) :   1.0456 B( 22-C , 23-H ) :   0.9261
B( 22-C , 24-H ) :   0.9286 B( 22-C , 25-C ) :   1.0502 B( 25-C , 26-H ) :   0.9563
B( 25-C , 27-H ) :   0.9518 B( 25-C , 28-C ) :   1.0695 B( 28-C , 29-H ) :   0.9743
B( 28-C , 30-H ) :   0.9758 B( 28-C , 31-H ) :   0.9740

Dispersion correction           -0.014337379
FINAL SINGLE POINT ENERGY     -1339.874602006093

DIPOLE MOMENT
-------------
                                X             Y             Z
Electronic contribution:      8.06071       6.07603      27.72612
Nuclear contribution   :     -8.07104      -6.05551     -28.44921
                        -----------------------------------------
Total Dipole Moment    :     -0.01033       0.02052      -0.72309
                        -----------------------------------------
Magnitude (a.u.)       :      0.72346
Magnitude (Debye)      :      1.83888

Rotational constants in cm-1:     0.017204     0.009785     0.006690
Rotational constants in MHz :   515.760442   293.338568   200.557456

                             ****ORCA TERMINATED NORMALLY****
TOTAL RUN TIME: 0 days 0 hours 0 minutes 31 seconds 466 msec
