                         Program Version 4.2.1 -  RELEASE  -
|  1> ! wB97X-D3 SP def2-SVP
|  2> %pal
|  3> nprocs 16
|  4> end
|  5>
|  6> * xyz 0 1
|  7> S 	 -21.8986 	 -2.75223 	 83.5714
|  8> C 	 -22.2927 	 -3.35984 	 81.9303
|  9> C 	 -21.4271 	 -4.39974 	 81.635
| 10> C 	 -20.4159 	 -4.55794 	 82.6566
| 11> C 	 -20.4677 	 -3.71867 	 83.7586
| 12> H 	 -19.5738 	 -5.18226 	 82.6338
| 13> C 	 -21.2098 	 -5.11644 	 80.3028
| 14> H 	 -20.2091 	 -4.93615 	 79.9337
| 15> H 	 -21.9444 	 -4.7322 	 79.6761
| 16> C 	 -21.5597 	 -6.67367 	 80.39
| 17> H 	 -22.5904 	 -6.76904 	 80.8316
| 18> H 	 -21.6743 	 -7.01693 	 79.3371
| 19> C 	 -20.5415 	 -7.57086 	 81.0189
| 20> H 	 -20.7652 	 -7.72332 	 82.1044
| 21> H 	 -20.3653 	 -8.45996 	 80.4935
| 22> H 	 -19.599 	 -7.04796 	 81.0208
| 23> S 	 -20.8056 	 -3.99158 	 86.4733
| 24> C 	 -19.4783 	 -4.40482 	 87.3473
| 25> C 	 -18.2999 	 -4.01835 	 86.7969
| 26> C 	 -18.4457 	 -3.94673 	 85.33
| 27> C 	 -19.7751 	 -3.89159 	 84.9725
| 28> H 	 -17.4004 	 -4.04395 	 87.3882
| 29> C 	 -17.2971 	 -3.70379 	 84.3333
| 30> H 	 -17.8202 	 -4.03244 	 83.4525
| 31> H 	 -16.478 	 -4.33803 	 84.4299
| 32> C 	 -16.9243 	 -2.21587 	 84.2887
| 33> H 	 -16.8647 	 -1.99875 	 85.3453
| 34> H 	 -17.6457 	 -1.53528 	 83.8724
| 35> C 	 -15.6047 	 -1.86793 	 83.6621
| 36> H 	 -15.3569 	 -0.826209 	 83.8772
| 37> H 	 -15.7108 	 -2.02173 	 82.5687
| 38> H 	 -14.9173 	 -2.6077 	 83.9564
| 39> H 	 -22.9969 	 -2.92324 	 81.2445
| 40> H 	 -19.6025 	 -4.62323 	 88.3976
| 41> *
| 42>
| 43>                          ****END OF INPUT****

CARTESIAN COORDINATES (ANGSTROEM)
---------------------------------
  S    -21.898600   -2.752230   83.571400
  C    -22.292700   -3.359840   81.930300
  C    -21.427100   -4.399740   81.635000
  C    -20.415900   -4.557940   82.656600
  C    -20.467700   -3.718670   83.758600
  H    -19.573800   -5.182260   82.633800
  C    -21.209800   -5.116440   80.302800
  H    -20.209100   -4.936150   79.933700
  H    -21.944400   -4.732200   79.676100
  C    -21.559700   -6.673670   80.390000
  H    -22.590400   -6.769040   80.831600
  H    -21.674300   -7.016930   79.337100
  C    -20.541500   -7.570860   81.018900
  H    -20.765200   -7.723320   82.104400
  H    -20.365300   -8.459960   80.493500
  H    -19.599000   -7.047960   81.020800
  S    -20.805600   -3.991580   86.473300
  C    -19.478300   -4.404820   87.347300
  C    -18.299900   -4.018350   86.796900
  C    -18.445700   -3.946730   85.330000
  C    -19.775100   -3.891590   84.972500
  H    -17.400400   -4.043950   87.388200
  C    -17.297100   -3.703790   84.333300
  H    -17.820200   -4.032440   83.452500
  H    -16.478000   -4.338030   84.429900
  C    -16.924300   -2.215870   84.288700
  H    -16.864700   -1.998750   85.345300
  H    -17.645700   -1.535280   83.872400
  C    -15.604700   -1.867930   83.662100
  H    -15.356900   -0.826209   83.877200
  H    -15.710800   -2.021730   82.568700
  H    -14.917300   -2.607700   83.956400
  H    -22.996900   -2.923240   81.244500
  H    -19.602500   -4.623230   88.397600

 Total Charge           Charge          ....    0
 Multiplicity           Mult            ....    1
 Number of Electrons    NEL             ....  134
 Basis Dimension        Dim             ....  322

ORBITAL ENERGIES
----------------

  NO   OCC          E(Eh)            E(eV)
   0   2.0000     -88.963598     -2420.8226
   1   2.0000     -88.959703     -2420.7166
   2   2.0000     -10.326782      -281.0060
   3   2.0000     -10.325884      -280.9816
   4   2.0000     -10.319449      -280.8065
   5   2.0000     -10.311017      -280.5770
   6   2.0000     -10.307330      -280.4767
   7   2.0000     -10.304262      -280.3932
   8   2.0000     -10.293103      -280.0896
   9   2.0000     -10.291792      -280.0539
  10   2.0000     -10.291044      -280.0335
  11   2.0000     -10.288097      -279.9534
  12   2.0000     -10.286834      -279.9190
  13   2.0000     -10.277333      -279.6604
  14   2.0000     -10.272612      -279.5320
  15   2.0000     -10.270976      -279.4875
  16   2.0000      -8.077846      -219.8094
  17   2.0000      -8.076424      -219.7707
  18   2.0000      -6.036565      -164.2633
  19   2.0000      -6.034809      -164.2155
  20   2.0000      -6.032320      -164.1478
  21   2.0000      -6.031006      -164.1120
  22   2.0000      -6.028492      -164.0436
  23   2.0000      -6.026790      -163.9973
  24   2.0000      -1.011609       -27.5273
  25   2.0000      -0.985299       -26.8113
  26   2.0000      -0.916744       -24.9459
  27   2.0000      -0.909281       -24.7428
  28   2.0000      -0.877054       -23.8659
  29   2.0000      -0.855842       -23.2886
  30   2.0000      -0.840128       -22.8610
  31   2.0000      -0.814582       -22.1659
  32   2.0000      -0.790142       -21.5009
  33   2.0000      -0.776617       -21.1328
  34   2.0000      -0.706393       -19.2219
  35   2.0000      -0.699143       -19.0247
  36   2.0000      -0.694809       -18.9067
  37   2.0000      -0.661657       -18.0046
  38   2.0000      -0.642648       -17.4873
  39   2.0000      -0.615386       -16.7455
  40   2.0000      -0.598632       -16.2896
  41   2.0000      -0.573673       -15.6104
  42   2.0000      -0.568642       -15.4735
  43   2.0000      -0.548841       -14.9347
  44   2.0000      -0.542854       -14.7718
  45   2.0000      -0.536990       -14.6122
  46   2.0000      -0.520060       -14.1515
  47   2.0000      -0.515709       -14.0332
  48   2.0000      -0.508743       -13.8436
  49   2.0000      -0.502495       -13.6736
  50   2.0000      -0.494315       -13.4510
  51   2.0000      -0.489844       -13.3293
  52   2.0000      -0.471711       -12.8359
  53   2.0000      -0.462629       -12.5888
  54   2.0000      -0.457013       -12.4360
  55   2.0000      -0.449052       -12.2193
  56   2.0000      -0.445001       -12.1091
  57   2.0000      -0.441973       -12.0267
  58   2.0000      -0.430481       -11.7140
  59   2.0000      -0.424336       -11.5468
  60   2.0000      -0.413347       -11.2477
  61   2.0000      -0.406209       -11.0535
  62   2.0000      -0.405315       -11.0292
  63   2.0000      -0.356049        -9.6886
  64   2.0000      -0.327244        -8.9048
  65   2.0000      -0.325462        -8.8563
  66   2.0000      -0.286022        -7.7830
  67   0.0000       0.031917         0.8685
  68   0.0000       0.056874         1.5476
  69   0.0000       0.105161         2.8616
  70   0.0000       0.123160         3.3514
  71   0.0000       0.129452         3.5226

MULLIKEN ATOMIC CHARGES
-----------------------
   0 S :    0.084001
   1 C :   -0.123231
   2 C :   -0.062798
   3 C :    0.023711
   4 C :   -0.141140
   5 H :   -0.007184
   6 C :    0.089578
   7 H :    0.044446
   8 H :   -0.002312
   9 C :   -0.125715
  10 H :    0.040163
  11 H :    0.030280
  12 C :   -0.009336
  13 H :    0.047928
  14 H :    0.027135
  15 H :    0.012061
  16 S :    0.107577
  17 C :   -0.083687
  18 C :   -0.019060
  19 C :   -0.109966
  20 C :   -0.136307
  21 H :    0.021345
  22 C :    0.143088
  23 H :   -0.005371
  24 H :    0.007607
  25 C :   -0.081661
  26 H :    0.016932
  27 H :    0.032634
  28 C :   -0.011637
  29 H :    0.046029
  30 H :    0.026312
  31 H :    0.012446
  32 H :    0.050040
  33 H :    0.056090
Sum of atomic charges:   -0.0000000

LOEWDIN ATOMIC CHARGES
----------------------
   0 S :    0.387413
   1 C :   -0.184109
   2 C :   -0.059528
   3 C :   -0.064262
   4 C :   -0.199175
   5 H :    0.015087
   6 C :   -0.018114
   7 H :    0.031423
   8 H :    0.020145
   9 C :   -0.043874
  10 H :    0.030869
  11 H :    0.025359
  12 C :   -0.069653
  13 H :    0.036093
  14 H :    0.021349
  15 H :    0.021515
  16 S :    0.411971
  17 C :   -0.204432
  18 C :   -0.076477
  19 C :   -0.039749
  20 C :   -0.176489
  21 H :    0.028940
  22 C :   -0.021330
  23 H :    0.026662
  24 H :    0.019998
  25 C :   -0.038598
  26 H :    0.021300
  27 H :    0.026715
  28 C :   -0.060003
  29 H :    0.031639
  30 H :    0.027567
  31 H :    0.015378
  32 H :    0.029871
  33 H :    0.026498

  Mayer bond orders larger than 0.100000
B(  0-S ,  1-C ) :   1.1240 B(  0-S ,  4-C ) :   1.1296 B(  1-C ,  2-C ) :   1.6082
B(  1-C , 32-H ) :   0.9722 B(  2-C ,  3-C ) :   1.2292 B(  2-C ,  6-C ) :   1.0227
B(  3-C ,  4-C ) :   1.5706 B(  3-C ,  5-H ) :   0.9917 B(  4-C , 20-C ) :   1.0887
B(  6-C ,  7-H ) :   0.9520 B(  6-C ,  8-H ) :   0.9309 B(  6-C ,  9-C ) :   1.0764
B(  9-C , 10-H ) :   0.9549 B(  9-C , 11-H ) :   0.9622 B(  9-C , 12-C ) :   1.0749
B( 12-C , 13-H ) :   0.9721 B( 12-C , 14-H ) :   0.9715 B( 12-C , 15-H ) :   0.9702
B( 16-S , 17-C ) :   1.1859 B( 16-S , 20-C ) :   1.1031 B( 17-C , 18-C ) :   1.6311
B( 17-C , 33-H ) :   0.9616 B( 18-C , 19-C ) :   1.1872 B( 18-C , 21-H ) :   0.9881
B( 19-C , 20-C ) :   1.6331 B( 19-C , 22-C ) :   1.0415 B( 22-C , 23-H ) :   0.9169
B( 22-C , 24-H ) :   0.9324 B( 22-C , 25-C ) :   1.0566 B( 25-C , 26-H ) :   0.9589
B( 25-C , 27-H ) :   0.9541 B( 25-C , 28-C ) :   1.0909 B( 28-C , 29-H ) :   0.9717
B( 28-C , 30-H ) :   0.9727 B( 28-C , 31-H ) :   0.9730

Dispersion correction           -0.014067212
FINAL SINGLE POINT ENERGY     -1339.838378153834

DIPOLE MOMENT
-------------
                                X             Y             Z
Electronic contribution:    -16.44570       7.42616      16.67399
Nuclear contribution   :     16.94132      -7.63696     -17.00743
                        -----------------------------------------
Total Dipole Moment    :      0.49562      -0.21080      -0.33344
                        -----------------------------------------
Magnitude (a.u.)       :      0.63345
Magnitude (Debye)      :      1.61011

Rotational constants in cm-1:     0.016791     0.008772     0.007575
Rotational constants in MHz :   503.384541   262.992586   227.091919

                             ****ORCA TERMINATED NORMALLY****
TOTAL RUN TIME: 0 days 0 hours 0 minutes 31 seconds 309 msec
