                         Program Version 4.2.1 -  RELEASE  -
|  1> ! wB97X-D3 SP def2-SVP
|  2> %pal
|  3> nprocs 16
|  4> end
|  5>
|  6> * xyz 0 1
|  7> S 	 -35.7073 	 23.7002 	 81.7243
|  8> C 	 -36.3571 	 22.2344 	 82.3261
|  9> C 	 -36.8993 	 21.4349 	 81.3384
| 10> C 	 -36.7644 	 22.0793 	 80.0703
| 11> C 	 -36.319 	 23.3664 	 80.1562
| 12> H 	 -37.0422 	 21.6434 	 79.1691
| 13> C 	 -37.5262 	 20.0224 	 81.5349
| 14> H 	 -38.5913 	 20.1446 	 81.1142
| 15> H 	 -37.6857 	 19.9694 	 82.6233
| 16> C 	 -36.8499 	 18.6991 	 81.1046
| 17> H 	 -37.5698 	 17.9174 	 81.219
| 18> H 	 -36.6904 	 18.5611 	 80.0093
| 19> C 	 -35.589 	 18.2619 	 81.8094
| 20> H 	 -34.7491 	 18.9553 	 81.6349
| 21> H 	 -35.7232 	 18.1676 	 82.8605
| 22> H 	 -35.2177 	 17.3521 	 81.3587
| 23> S 	 -34.5666 	 25.2866 	 79.2475
| 24> C 	 -34.9444 	 26.1506 	 77.8057
| 25> C 	 -36.1633 	 25.771 	 77.28
| 26> C 	 -36.7862 	 24.6929 	 77.9914
| 27> C 	 -36.037 	 24.245 	 79.0481
| 28> H 	 -36.6113 	 26.2686 	 76.4365
| 29> C 	 -38.16 	 24.0726 	 77.6174
| 30> H 	 -38.0146 	 23.0135 	 77.6136
| 31> H 	 -38.4682 	 24.3624 	 76.6432
| 32> C 	 -39.2328 	 24.3964 	 78.7204
| 33> H 	 -39.1167 	 25.4461 	 79.0076
| 34> H 	 -38.9823 	 23.8306 	 79.5858
| 35> C 	 -40.6873 	 24.115 	 78.196
| 36> H 	 -41.4723 	 24.6418 	 78.7602
| 37> H 	 -40.8807 	 23.0988 	 78.391
| 38> H 	 -40.7279 	 24.3722 	 77.1044
| 39> H 	 -36.4105 	 22.0553 	 83.3546
| 40> H 	 -34.3945 	 27.0393 	 77.495
| 41> *
| 42>
| 43>                          ****END OF INPUT****

CARTESIAN COORDINATES (ANGSTROEM)
---------------------------------
  S    -35.707300   23.700200   81.724300
  C    -36.357100   22.234400   82.326100
  C    -36.899300   21.434900   81.338400
  C    -36.764400   22.079300   80.070300
  C    -36.319000   23.366400   80.156200
  H    -37.042200   21.643400   79.169100
  C    -37.526200   20.022400   81.534900
  H    -38.591300   20.144600   81.114200
  H    -37.685700   19.969400   82.623300
  C    -36.849900   18.699100   81.104600
  H    -37.569800   17.917400   81.219000
  H    -36.690400   18.561100   80.009300
  C    -35.589000   18.261900   81.809400
  H    -34.749100   18.955300   81.634900
  H    -35.723200   18.167600   82.860500
  H    -35.217700   17.352100   81.358700
  S    -34.566600   25.286600   79.247500
  C    -34.944400   26.150600   77.805700
  C    -36.163300   25.771000   77.280000
  C    -36.786200   24.692900   77.991400
  C    -36.037000   24.245000   79.048100
  H    -36.611300   26.268600   76.436500
  C    -38.160000   24.072600   77.617400
  H    -38.014600   23.013500   77.613600
  H    -38.468200   24.362400   76.643200
  C    -39.232800   24.396400   78.720400
  H    -39.116700   25.446100   79.007600
  H    -38.982300   23.830600   79.585800
  C    -40.687300   24.115000   78.196000
  H    -41.472300   24.641800   78.760200
  H    -40.880700   23.098800   78.391000
  H    -40.727900   24.372200   77.104400
  H    -36.410500   22.055300   83.354600
  H    -34.394500   27.039300   77.495000

 Total Charge           Charge          ....    0
 Multiplicity           Mult            ....    1
 Number of Electrons    NEL             ....  134
 Basis Dimension        Dim             ....  322

ORBITAL ENERGIES
----------------

  NO   OCC          E(Eh)            E(eV)
   0   2.0000     -88.965508     -2420.8745
   1   2.0000     -88.962171     -2420.7838
   2   2.0000     -10.324602      -280.9467
   3   2.0000     -10.323276      -280.9106
   4   2.0000     -10.315934      -280.7108
   5   2.0000     -10.307584      -280.4836
   6   2.0000     -10.306467      -280.4532
   7   2.0000     -10.303385      -280.3694
   8   2.0000     -10.303176      -280.3637
   9   2.0000     -10.292838      -280.0824
  10   2.0000     -10.290880      -280.0291
  11   2.0000     -10.290366      -280.0151
  12   2.0000     -10.285716      -279.8886
  13   2.0000     -10.282007      -279.7876
  14   2.0000     -10.278631      -279.6958
  15   2.0000     -10.274054      -279.5712
  16   2.0000      -8.081755      -219.9157
  17   2.0000      -8.076795      -219.7808
  18   2.0000      -6.040150      -164.3608
  19   2.0000      -6.036116      -164.2511
  20   2.0000      -6.035302      -164.2289
  21   2.0000      -6.032482      -164.1522
  22   2.0000      -6.031394      -164.1226
  23   2.0000      -6.027499      -164.0166
  24   2.0000      -1.013720       -27.5847
  25   2.0000      -0.984690       -26.7948
  26   2.0000      -0.907007       -24.6809
  27   2.0000      -0.902015       -24.5451
  28   2.0000      -0.871934       -23.7265
  29   2.0000      -0.855428       -23.2774
  30   2.0000      -0.843225       -22.9453
  31   2.0000      -0.813859       -22.1462
  32   2.0000      -0.783859       -21.3299
  33   2.0000      -0.773183       -21.0394
  34   2.0000      -0.709410       -19.3040
  35   2.0000      -0.702261       -19.1095
  36   2.0000      -0.692014       -18.8307
  37   2.0000      -0.664342       -18.0777
  38   2.0000      -0.646215       -17.5844
  39   2.0000      -0.622686       -16.9441
  40   2.0000      -0.593422       -16.1478
  41   2.0000      -0.566807       -15.4236
  42   2.0000      -0.558885       -15.2080
  43   2.0000      -0.550313       -14.9748
  44   2.0000      -0.541314       -14.7299
  45   2.0000      -0.519611       -14.1393
  46   2.0000      -0.517427       -14.0799
  47   2.0000      -0.513713       -13.9789
  48   2.0000      -0.501413       -13.6441
  49   2.0000      -0.494935       -13.4679
  50   2.0000      -0.494114       -13.4455
  51   2.0000      -0.486772       -13.2457
  52   2.0000      -0.470509       -12.8032
  53   2.0000      -0.464806       -12.6480
  54   2.0000      -0.459049       -12.4914
  55   2.0000      -0.452277       -12.3071
  56   2.0000      -0.446038       -12.1373
  57   2.0000      -0.441255       -12.0072
  58   2.0000      -0.433389       -11.7931
  59   2.0000      -0.426688       -11.6108
  60   2.0000      -0.420591       -11.4449
  61   2.0000      -0.412790       -11.2326
  62   2.0000      -0.409045       -11.1307
  63   2.0000      -0.356144        -9.6912
  64   2.0000      -0.333076        -9.0635
  65   2.0000      -0.329033        -8.9534
  66   2.0000      -0.285471        -7.7681
  67   0.0000       0.026580         0.7233
  68   0.0000       0.071971         1.9584
  69   0.0000       0.106365         2.8943
  70   0.0000       0.119512         3.2521
  71   0.0000       0.142748         3.8844

MULLIKEN ATOMIC CHARGES
-----------------------
   0 S :    0.112441
   1 C :   -0.106193
   2 C :   -0.080849
   3 C :    0.022179
   4 C :   -0.117604
   5 H :   -0.016595
   6 C :    0.047409
   7 H :    0.046681
   8 H :    0.015401
   9 C :   -0.048997
  10 H :    0.017298
  11 H :    0.023021
  12 C :   -0.032739
  13 H :    0.036717
  14 H :    0.025696
  15 H :    0.027405
  16 S :    0.077836
  17 C :   -0.084431
  18 C :   -0.027744
  19 C :   -0.066759
  20 C :   -0.143359
  21 H :    0.011816
  22 C :    0.103135
  23 H :    0.020702
  24 H :    0.003161
  25 C :   -0.096590
  26 H :    0.035504
  27 H :    0.040720
  28 C :   -0.035423
  29 H :    0.037345
  30 H :    0.021404
  31 H :    0.039989
  32 H :    0.026344
  33 H :    0.065079
Sum of atomic charges:   -0.0000000

LOEWDIN ATOMIC CHARGES
----------------------
   0 S :    0.432370
   1 C :   -0.198710
   2 C :   -0.063657
   3 C :   -0.056192
   4 C :   -0.201520
   5 H :    0.018005
   6 C :   -0.037143
   7 H :    0.043019
   8 H :    0.030395
   9 C :   -0.049145
  10 H :    0.024675
  11 H :    0.027956
  12 C :   -0.061902
  13 H :    0.029997
  14 H :    0.019119
  15 H :    0.028678
  16 S :    0.379951
  17 C :   -0.190008
  18 C :   -0.073757
  19 C :   -0.051965
  20 C :   -0.175192
  21 H :    0.029261
  22 C :   -0.017638
  23 H :    0.025162
  24 H :    0.019220
  25 C :   -0.033687
  26 H :    0.023635
  27 H :    0.020077
  28 C :   -0.065706
  29 H :    0.028893
  30 H :    0.018388
  31 H :    0.029971
  32 H :    0.014558
  33 H :    0.032892

  Mayer bond orders larger than 0.100000
B(  0-S ,  1-C ) :   1.1503 B(  0-S ,  4-C ) :   1.1546 B(  1-C ,  2-C ) :   1.5972
B(  1-C , 32-H ) :   0.9734 B(  2-C ,  3-C ) :   1.2493 B(  2-C ,  6-C ) :   1.0128
B(  3-C ,  4-C ) :   1.5454 B(  3-C ,  5-H ) :   1.0112 B(  4-C , 20-C ) :   1.0684
B(  6-C ,  7-H ) :   0.9400 B(  6-C ,  8-H ) :   0.9396 B(  6-C ,  9-C ) :   1.0650
B(  9-C , 10-H ) :   0.9461 B(  9-C , 11-H ) :   0.9535 B(  9-C , 12-C ) :   1.0870
B( 12-C , 13-H ) :   0.9752 B( 12-C , 14-H ) :   0.9750 B( 12-C , 15-H ) :   0.9691
B( 16-S , 17-C ) :   1.1590 B( 16-S , 20-C ) :   1.1122 B( 17-C , 18-C ) :   1.6017
B( 17-C , 33-H ) :   0.9644 B( 18-C , 19-C ) :   1.2488 B( 18-C , 21-H ) :   0.9943
B( 19-C , 20-C ) :   1.6178 B( 19-C , 22-C ) :   1.0313 B( 22-C , 23-H ) :   0.9397
B( 22-C , 24-H ) :   0.9372 B( 22-C , 25-C ) :   1.0456 B( 25-C , 26-H ) :   0.9652
B( 25-C , 27-H ) :   0.9561 B( 25-C , 28-C ) :   1.0705 B( 28-C , 29-H ) :   0.9763
B( 28-C , 30-H ) :   0.9768 B( 28-C , 31-H ) :   0.9779

Dispersion correction           -0.014333142
FINAL SINGLE POINT ENERGY     -1339.879434828779

DIPOLE MOMENT
-------------
                                X             Y             Z
Electronic contribution:     18.12924      19.10280       2.84431
Nuclear contribution   :    -18.62954     -19.47469      -2.97614
                        -----------------------------------------
Total Dipole Moment    :     -0.50029      -0.37190      -0.13184
                        -----------------------------------------
Magnitude (a.u.)       :      0.63717
Magnitude (Debye)      :      1.61955

Rotational constants in cm-1:     0.018562     0.008728     0.006892
Rotational constants in MHz :   556.474812   261.647639   206.626194

                             ****ORCA TERMINATED NORMALLY****
TOTAL RUN TIME: 0 days 0 hours 0 minutes 28 seconds 473 msec
