                         Program Version 4.2.1 -  RELEASE  -
|  1> ! wB97X-D3 SP def2-SVP
|  2> %pal
|  3> nprocs 16
|  4> end
|  5>
|  6> * xyz 0 1
|  7> S 	 -117.92 	 47.5904 	 129.857
|  8> C 	 -116.824 	 48.3123 	 128.685
|  9> C 	 -116.209 	 49.4884 	 129.147
| 10> C 	 -116.523 	 49.7167 	 130.485
| 11> C 	 -117.47 	 48.9078 	 130.988
| 12> H 	 -116.114 	 50.4427 	 131.186
| 13> C 	 -115.229 	 50.2672 	 128.29
| 14> H 	 -114.757 	 49.7098 	 127.462
| 15> H 	 -114.33 	 50.3707 	 128.808
| 16> C 	 -115.819 	 51.6491 	 127.817
| 17> H 	 -115.221 	 52.2803 	 127.11
| 18> H 	 -116.802 	 51.4018 	 127.338
| 19> C 	 -116.258 	 52.507 	 129.01
| 20> H 	 -115.438 	 53.0191 	 129.478
| 21> H 	 -116.9 	 53.3211 	 128.539
| 22> H 	 -116.928 	 52.0459 	 129.725
| 23> S 	 -119.576 	 49.9906 	 132.497
| 24> C 	 -119.347 	 50.0582 	 134.209
| 25> C 	 -118.364 	 49.2456 	 134.64
| 26> C 	 -117.595 	 48.6669 	 133.57
| 27> C 	 -118.12 	 49.0598 	 132.318
| 28> H 	 -118.2 	 49.1868 	 135.667
| 29> C 	 -116.413 	 47.693 	 133.722
| 30> H 	 -116.143 	 47.29 	 132.76
| 31> H 	 -116.76 	 46.816 	 134.279
| 32> C 	 -115.168 	 48.2445 	 134.337
| 33> H 	 -115.29 	 48.7719 	 135.279
| 34> H 	 -114.729 	 48.9637 	 133.676
| 35> C 	 -114.074 	 47.2662 	 134.53
| 36> H 	 -114.276 	 46.6291 	 135.435
| 37> H 	 -113.212 	 47.8916 	 134.696
| 38> H 	 -113.939 	 46.5748 	 133.66
| 39> H 	 -116.72 	 47.9033 	 127.72
| 40> H 	 -119.853 	 50.8556 	 134.789
| 41> *
| 42>
| 43>                          ****END OF INPUT****

CARTESIAN COORDINATES (ANGSTROEM)
---------------------------------
  S    -117.920000   47.590400  129.857000
  C    -116.824000   48.312300  128.685000
  C    -116.209000   49.488400  129.147000
  C    -116.523000   49.716700  130.485000
  C    -117.470000   48.907800  130.988000
  H    -116.114000   50.442700  131.186000
  C    -115.229000   50.267200  128.290000
  H    -114.757000   49.709800  127.462000
  H    -114.330000   50.370700  128.808000
  C    -115.819000   51.649100  127.817000
  H    -115.221000   52.280300  127.110000
  H    -116.802000   51.401800  127.338000
  C    -116.258000   52.507000  129.010000
  H    -115.438000   53.019100  129.478000
  H    -116.900000   53.321100  128.539000
  H    -116.928000   52.045900  129.725000
  S    -119.576000   49.990600  132.497000
  C    -119.347000   50.058200  134.209000
  C    -118.364000   49.245600  134.640000
  C    -117.595000   48.666900  133.570000
  C    -118.120000   49.059800  132.318000
  H    -118.200000   49.186800  135.667000
  C    -116.413000   47.693000  133.722000
  H    -116.143000   47.290000  132.760000
  H    -116.760000   46.816000  134.279000
  C    -115.168000   48.244500  134.337000
  H    -115.290000   48.771900  135.279000
  H    -114.729000   48.963700  133.676000
  C    -114.074000   47.266200  134.530000
  H    -114.276000   46.629100  135.435000
  H    -113.212000   47.891600  134.696000
  H    -113.939000   46.574800  133.660000
  H    -116.720000   47.903300  127.720000
  H    -119.853000   50.855600  134.789000

 Total Charge           Charge          ....    0
 Multiplicity           Mult            ....    1
 Number of Electrons    NEL             ....  134
 Basis Dimension        Dim             ....  322

ORBITAL ENERGIES
----------------

  NO   OCC          E(Eh)            E(eV)
   0   2.0000     -88.965913     -2420.8856
   1   2.0000     -88.962673     -2420.7974
   2   2.0000     -10.326306      -280.9931
   3   2.0000     -10.324616      -280.9471
   4   2.0000     -10.314335      -280.6673
   5   2.0000     -10.313895      -280.6554
   6   2.0000     -10.307242      -280.4743
   7   2.0000     -10.302854      -280.3549
   8   2.0000     -10.294712      -280.1334
   9   2.0000     -10.290762      -280.0259
  10   2.0000     -10.290476      -280.0181
  11   2.0000     -10.288271      -279.9581
  12   2.0000     -10.287844      -279.9465
  13   2.0000     -10.277335      -279.6605
  14   2.0000     -10.274527      -279.5841
  15   2.0000     -10.274075      -279.5718
  16   2.0000      -8.079906      -219.8654
  17   2.0000      -8.078396      -219.8243
  18   2.0000      -6.038227      -164.3085
  19   2.0000      -6.036724      -164.2676
  20   2.0000      -6.034661      -164.2115
  21   2.0000      -6.032813      -164.1612
  22   2.0000      -6.030784      -164.1060
  23   2.0000      -6.029239      -164.0639
  24   2.0000      -1.005400       -27.3583
  25   2.0000      -0.985867       -26.8268
  26   2.0000      -0.917470       -24.9656
  27   2.0000      -0.905546       -24.6412
  28   2.0000      -0.866496       -23.5786
  29   2.0000      -0.853155       -23.2155
  30   2.0000      -0.846557       -23.0360
  31   2.0000      -0.820319       -22.3220
  32   2.0000      -0.784548       -21.3486
  33   2.0000      -0.767671       -20.8894
  34   2.0000      -0.697271       -18.9737
  35   2.0000      -0.694071       -18.8866
  36   2.0000      -0.689846       -18.7717
  37   2.0000      -0.655432       -17.8352
  38   2.0000      -0.650881       -17.7114
  39   2.0000      -0.620834       -16.8937
  40   2.0000      -0.602470       -16.3941
  41   2.0000      -0.575642       -15.6640
  42   2.0000      -0.567956       -15.4549
  43   2.0000      -0.543660       -14.7937
  44   2.0000      -0.535971       -14.5845
  45   2.0000      -0.533399       -14.5145
  46   2.0000      -0.514363       -13.9965
  47   2.0000      -0.511130       -13.9086
  48   2.0000      -0.506101       -13.7717
  49   2.0000      -0.497535       -13.5386
  50   2.0000      -0.489321       -13.3151
  51   2.0000      -0.475631       -12.9426
  52   2.0000      -0.471453       -12.8289
  53   2.0000      -0.464095       -12.6287
  54   2.0000      -0.453763       -12.3475
  55   2.0000      -0.447680       -12.1820
  56   2.0000      -0.439702       -11.9649
  57   2.0000      -0.439281       -11.9535
  58   2.0000      -0.435811       -11.8590
  59   2.0000      -0.423684       -11.5290
  60   2.0000      -0.417445       -11.3592
  61   2.0000      -0.410301       -11.1649
  62   2.0000      -0.409610       -11.1461
  63   2.0000      -0.342343        -9.3156
  64   2.0000      -0.332146        -9.0381
  65   2.0000      -0.316543        -8.6136
  66   2.0000      -0.306951        -8.3526
  67   0.0000       0.046725         1.2715
  68   0.0000       0.050266         1.3678
  69   0.0000       0.111869         3.0441
  70   0.0000       0.121300         3.3007
  71   0.0000       0.128666         3.5012

MULLIKEN ATOMIC CHARGES
-----------------------
   0 S :    0.104363
   1 C :   -0.102229
   2 C :   -0.086279
   3 C :    0.053644
   4 C :   -0.202031
   5 H :    0.026722
   6 C :    0.102707
   7 H :    0.015757
   8 H :    0.007675
   9 C :   -0.086456
  10 H :    0.045682
  11 H :    0.036287
  12 C :   -0.084208
  13 H :    0.029311
  14 H :    0.030921
  15 H :    0.050544
  16 S :    0.114771
  17 C :   -0.123253
  18 C :    0.003666
  19 C :   -0.016004
  20 C :   -0.180259
  21 H :   -0.003199
  22 C :    0.106718
  23 H :    0.012445
  24 H :    0.027762
  25 C :   -0.078810
  26 H :    0.021519
  27 H :    0.013051
  28 C :   -0.050087
  29 H :    0.033402
  30 H :    0.032100
  31 H :    0.034461
  32 H :    0.033857
  33 H :    0.075451
Sum of atomic charges:    0.0000000

LOEWDIN ATOMIC CHARGES
----------------------
   0 S :    0.378991
   1 C :   -0.174105
   2 C :   -0.061280
   3 C :   -0.058623
   4 C :   -0.183581
   5 H :    0.040126
   6 C :   -0.036719
   7 H :    0.033926
   8 H :    0.021123
   9 C :   -0.042738
  10 H :    0.029963
  11 H :    0.030179
  12 C :   -0.072996
  13 H :    0.017565
  14 H :    0.033494
  15 H :    0.025709
  16 S :    0.413691
  17 C :   -0.190916
  18 C :   -0.069047
  19 C :   -0.043447
  20 C :   -0.212570
  21 H :    0.023288
  22 C :   -0.029175
  23 H :    0.028488
  24 H :    0.033508
  25 C :   -0.049289
  26 H :    0.022674
  27 H :    0.021182
  28 C :   -0.063443
  29 H :    0.026117
  30 H :    0.026957
  31 H :    0.027649
  32 H :    0.016005
  33 H :    0.037291

  Mayer bond orders larger than 0.100000
B(  0-S ,  1-C ) :   1.1504 B(  0-S ,  4-C ) :   1.1291 B(  1-C ,  2-C ) :   1.6087
B(  1-C ,  4-C ) :   0.1022 B(  1-C , 32-H ) :   0.9743 B(  2-C ,  3-C ) :   1.2229
B(  2-C ,  6-C ) :   1.0162 B(  3-C ,  4-C ) :   1.6315 B(  3-C ,  5-H ) :   0.9836
B(  4-C , 20-C ) :   0.9942 B(  6-C ,  7-H ) :   0.9429 B(  6-C ,  8-H ) :   0.9412
B(  6-C ,  9-C ) :   1.0425 B(  9-C , 10-H ) :   0.9598 B(  9-C , 11-H ) :   0.9584
B(  9-C , 12-C ) :   1.0811 B( 12-C , 13-H ) :   0.9768 B( 12-C , 14-H ) :   0.9716
B( 12-C , 15-H ) :   0.9659 B( 16-S , 17-C ) :   1.1624 B( 16-S , 20-C ) :   1.1540
B( 17-C , 18-C ) :   1.6171 B( 17-C , 33-H ) :   0.9604 B( 18-C , 19-C ) :   1.2236
B( 18-C , 21-H ) :   1.0042 B( 19-C , 20-C ) :   1.6001 B( 19-C , 22-C ) :   1.0381
B( 22-C , 23-H ) :   0.9189 B( 22-C , 24-H ) :   0.9384 B( 22-C , 25-C ) :   1.0738
B( 25-C , 26-H ) :   0.9521 B( 25-C , 27-H ) :   0.9500 B( 25-C , 28-C ) :   1.0962
B( 28-C , 29-H ) :   0.9727 B( 28-C , 30-H ) :   0.9752 B( 28-C , 31-H ) :   0.9703

Dispersion correction           -0.014752187
FINAL SINGLE POINT ENERGY     -1339.868261195199

DIPOLE MOMENT
-------------
                                X             Y             Z
Electronic contribution:    -21.11572      -6.52960      -1.17096
Nuclear contribution   :     21.67743       6.79970       1.33513
                        -----------------------------------------
Total Dipole Moment    :      0.56171       0.27010       0.16417
                        -----------------------------------------
Magnitude (a.u.)       :      0.64454
Magnitude (Debye)      :      1.63828

Rotational constants in cm-1:     0.016630     0.009038     0.007818
Rotational constants in MHz :   498.553112   270.960713   234.379119

                             ****ORCA TERMINATED NORMALLY****
TOTAL RUN TIME: 0 days 0 hours 0 minutes 34 seconds 309 msec
