                         Program Version 4.2.1 -  RELEASE  -
|  1> ! wB97X-D3 SP def2-SVP
|  2> %pal
|  3> nprocs 16
|  4> end
|  5>
|  6> * xyz 0 1
|  7> S 	 10.49 	 24.7016 	 36.1007
|  8> C 	 11.4197 	 23.834 	 34.8732
|  9> C 	 11.447 	 22.4594 	 35.2036
| 10> C 	 10.8502 	 22.2203 	 36.4304
| 11> C 	 10.246 	 23.2928 	 37.0553
| 12> H 	 10.8618 	 21.2622 	 36.9861
| 13> C 	 12.0657 	 21.434 	 34.3715
| 14> H 	 11.986 	 21.7798 	 33.3416
| 15> H 	 11.5035 	 20.5206 	 34.5532
| 16> C 	 13.4883 	 21.1726 	 34.7015
| 17> H 	 14.1029 	 22.0935 	 34.6051
| 18> H 	 13.692 	 20.7993 	 35.6707
| 19> C 	 14.0981 	 20.0975 	 33.8234
| 20> H 	 13.7221 	 19.0642 	 34.1305
| 21> H 	 13.8962 	 20.4323 	 32.8201
| 22> H 	 15.2278 	 20.0117 	 33.7963
| 23> S 	 7.96189 	 23.9256 	 38.3215
| 24> C 	 7.79223 	 23.7416 	 40.0474
| 25> C 	 9.02879 	 23.4095 	 40.579
| 26> C 	 10.0465 	 23.166 	 39.5921
| 27> C 	 9.56621 	 23.3426 	 38.317
| 28> H 	 9.13619 	 23.4914 	 41.5583
| 29> C 	 11.4918 	 22.7802 	 39.9651
| 30> H 	 12.08 	 22.8429 	 39.0666
| 31> H 	 11.579 	 21.694 	 40.2824
| 32> C 	 12.1715 	 23.6928 	 40.9995
| 33> H 	 11.6697 	 23.7555 	 41.9243
| 34> H 	 12.345 	 24.6732 	 40.5467
| 35> C 	 13.613 	 23.2176 	 41.2563
| 36> H 	 13.9849 	 23.8321 	 42.1534
| 37> H 	 14.1703 	 23.2567 	 40.3689
| 38> H 	 13.636 	 22.1963 	 41.5937
| 39> H 	 11.6906 	 24.1896 	 33.9144
| 40> H 	 7.04783 	 24.1112 	 40.7815
| 41> *
| 42>
| 43>                          ****END OF INPUT****

CARTESIAN COORDINATES (ANGSTROEM)
---------------------------------
  S     10.490000   24.701600   36.100700
  C     11.419700   23.834000   34.873200
  C     11.447000   22.459400   35.203600
  C     10.850200   22.220300   36.430400
  C     10.246000   23.292800   37.055300
  H     10.861800   21.262200   36.986100
  C     12.065700   21.434000   34.371500
  H     11.986000   21.779800   33.341600
  H     11.503500   20.520600   34.553200
  C     13.488300   21.172600   34.701500
  H     14.102900   22.093500   34.605100
  H     13.692000   20.799300   35.670700
  C     14.098100   20.097500   33.823400
  H     13.722100   19.064200   34.130500
  H     13.896200   20.432300   32.820100
  H     15.227800   20.011700   33.796300
  S      7.961890   23.925600   38.321500
  C      7.792230   23.741600   40.047400
  C      9.028790   23.409500   40.579000
  C     10.046500   23.166000   39.592100
  C      9.566210   23.342600   38.317000
  H      9.136190   23.491400   41.558300
  C     11.491800   22.780200   39.965100
  H     12.080000   22.842900   39.066600
  H     11.579000   21.694000   40.282400
  C     12.171500   23.692800   40.999500
  H     11.669700   23.755500   41.924300
  H     12.345000   24.673200   40.546700
  C     13.613000   23.217600   41.256300
  H     13.984900   23.832100   42.153400
  H     14.170300   23.256700   40.368900
  H     13.636000   22.196300   41.593700
  H     11.690600   24.189600   33.914400
  H      7.047830   24.111200   40.781500

 Total Charge           Charge          ....    0
 Multiplicity           Mult            ....    1
 Number of Electrons    NEL             ....  134
 Basis Dimension        Dim             ....  322

ORBITAL ENERGIES
----------------

  NO   OCC          E(Eh)            E(eV)
   0   2.0000     -88.967679     -2420.9336
   1   2.0000     -88.966159     -2420.8923
   2   2.0000     -10.324652      -280.9481
   3   2.0000     -10.320879      -280.8454
   4   2.0000     -10.317559      -280.7551
   5   2.0000     -10.314020      -280.6588
   6   2.0000     -10.303194      -280.3642
   7   2.0000     -10.296727      -280.1882
   8   2.0000     -10.294151      -280.1181
   9   2.0000     -10.290383      -280.0156
  10   2.0000     -10.287528      -279.9379
  11   2.0000     -10.284014      -279.8422
  12   2.0000     -10.283749      -279.8350
  13   2.0000     -10.282272      -279.7948
  14   2.0000     -10.280560      -279.7483
  15   2.0000     -10.276491      -279.6375
  16   2.0000      -8.082335      -219.9315
  17   2.0000      -8.081592      -219.9113
  18   2.0000      -6.040766      -164.3776
  19   2.0000      -6.040158      -164.3611
  20   2.0000      -6.036629      -164.2650
  21   2.0000      -6.035918      -164.2457
  22   2.0000      -6.033398      -164.1771
  23   2.0000      -6.032300      -164.1472
  24   2.0000      -1.014896       -27.6167
  25   2.0000      -0.989787       -26.9335
  26   2.0000      -0.927938       -25.2505
  27   2.0000      -0.908575       -24.7236
  28   2.0000      -0.875800       -23.8317
  29   2.0000      -0.853280       -23.2189
  30   2.0000      -0.849323       -23.1113
  31   2.0000      -0.818892       -22.2832
  32   2.0000      -0.782108       -21.2822
  33   2.0000      -0.768818       -20.9206
  34   2.0000      -0.708549       -19.2806
  35   2.0000      -0.699260       -19.0278
  36   2.0000      -0.697392       -18.9770
  37   2.0000      -0.662725       -18.0337
  38   2.0000      -0.645589       -17.5674
  39   2.0000      -0.625271       -17.0145
  40   2.0000      -0.594065       -16.1653
  41   2.0000      -0.578895       -15.7525
  42   2.0000      -0.574495       -15.6328
  43   2.0000      -0.571295       -15.5457
  44   2.0000      -0.532374       -14.4866
  45   2.0000      -0.527036       -14.3414
  46   2.0000      -0.518277       -14.1030
  47   2.0000      -0.516851       -14.0642
  48   2.0000      -0.507765       -13.8170
  49   2.0000      -0.504386       -13.7250
  50   2.0000      -0.494597       -13.4587
  51   2.0000      -0.477339       -12.9890
  52   2.0000      -0.472307       -12.8521
  53   2.0000      -0.466384       -12.6910
  54   2.0000      -0.459703       -12.5092
  55   2.0000      -0.446433       -12.1481
  56   2.0000      -0.443776       -12.0758
  57   2.0000      -0.434098       -11.8124
  58   2.0000      -0.427704       -11.6384
  59   2.0000      -0.425420       -11.5763
  60   2.0000      -0.423545       -11.5252
  61   2.0000      -0.417648       -11.3648
  62   2.0000      -0.413083       -11.2406
  63   2.0000      -0.340462        -9.2644
  64   2.0000      -0.333838        -9.0842
  65   2.0000      -0.327727        -8.9179
  66   2.0000      -0.299453        -8.1485
  67   0.0000       0.033275         0.9055
  68   0.0000       0.065241         1.7753
  69   0.0000       0.113415         3.0862
  70   0.0000       0.127233         3.4622
  71   0.0000       0.132955         3.6179

MULLIKEN ATOMIC CHARGES
-----------------------
   0 S :    0.122390
   1 C :   -0.107794
   2 C :   -0.093350
   3 C :    0.021841
   4 C :   -0.173479
   5 H :    0.016826
   6 C :    0.101776
   7 H :    0.018640
   8 H :    0.022363
   9 C :   -0.057688
  10 H :    0.025358
  11 H :    0.013745
  12 C :   -0.071802
  13 H :    0.045467
  14 H :    0.018695
  15 H :    0.038634
  16 S :    0.119860
  17 C :   -0.094062
  18 C :   -0.003135
  19 C :    0.005213
  20 C :   -0.176604
  21 H :   -0.039555
  22 C :    0.056999
  23 H :    0.016869
  24 H :    0.041268
  25 C :   -0.084083
  26 H :    0.028198
  27 H :    0.038622
  28 C :   -0.041790
  29 H :    0.045656
  30 H :    0.025899
  31 H :    0.015270
  32 H :    0.033762
  33 H :    0.069989
Sum of atomic charges:   -0.0000000

LOEWDIN ATOMIC CHARGES
----------------------
   0 S :    0.423760
   1 C :   -0.196173
   2 C :   -0.060180
   3 C :   -0.069706
   4 C :   -0.208542
   5 H :    0.036033
   6 C :   -0.030464
   7 H :    0.033837
   8 H :    0.035516
   9 C :   -0.042991
  10 H :    0.027584
  11 H :    0.017917
  12 C :   -0.073262
  13 H :    0.031725
  14 H :    0.018250
  15 H :    0.031228
  16 S :    0.432928
  17 C :   -0.199568
  18 C :   -0.053621
  19 C :   -0.051440
  20 C :   -0.219377
  21 H :    0.003538
  22 C :   -0.033910
  23 H :    0.026592
  24 H :    0.035804
  25 C :   -0.035872
  26 H :    0.014509
  27 H :    0.030933
  28 C :   -0.060433
  29 H :    0.037953
  30 H :    0.017159
  31 H :    0.016843
  32 H :    0.019336
  33 H :    0.044095

  Mayer bond orders larger than 0.100000
B(  0-S ,  1-C ) :   1.1508 B(  0-S ,  4-C ) :   1.1756 B(  1-C ,  2-C ) :   1.5510
B(  1-C ,  4-C ) :   0.1159 B(  1-C , 32-H ) :   0.9726 B(  2-C ,  3-C ) :   1.2850
B(  2-C ,  6-C ) :   1.0407 B(  3-C ,  4-C ) :   1.5463 B(  3-C ,  5-H ) :   0.9931
B(  4-C , 20-C ) :   1.0258 B(  6-C ,  7-H ) :   0.9246 B(  6-C ,  8-H ) :   0.9301
B(  6-C ,  9-C ) :   1.0841 B(  9-C , 10-H ) :   0.9488 B(  9-C , 11-H ) :   0.9541
B(  9-C , 12-C ) :   1.0796 B( 12-C , 13-H ) :   0.9747 B( 12-C , 14-H ) :   0.9726
B( 12-C , 15-H ) :   0.9740 B( 16-S , 17-C ) :   1.1501 B( 16-S , 20-C ) :   1.1551
B( 17-C , 18-C ) :   1.6204 B( 17-C , 33-H ) :   0.9595 B( 18-C , 19-C ) :   1.2381
B( 18-C , 21-H ) :   1.0058 B( 19-C , 20-C ) :   1.5873 B( 19-C , 22-C ) :   1.0358
B( 22-C , 23-H ) :   0.9300 B( 22-C , 24-H ) :   0.9384 B( 22-C , 25-C ) :   1.0712
B( 25-C , 26-H ) :   0.9585 B( 25-C , 27-H ) :   0.9541 B( 25-C , 28-C ) :   1.0876
B( 28-C , 29-H ) :   0.9740 B( 28-C , 30-H ) :   0.9759 B( 28-C , 31-H ) :   0.9729

Dispersion correction           -0.013537544
FINAL SINGLE POINT ENERGY     -1339.863107741508

DIPOLE MOMENT
-------------
                                X             Y             Z
Electronic contribution:    -25.74534      14.31440      -1.96093
Nuclear contribution   :     26.24271     -14.57593       2.16641
                        -----------------------------------------
Total Dipole Moment    :      0.49737      -0.26153       0.20549
                        -----------------------------------------
Magnitude (a.u.)       :      0.59833
Magnitude (Debye)      :      1.52085

Rotational constants in cm-1:     0.017928     0.008354     0.006493
Rotational constants in MHz :   537.473815   250.453120   194.657623

                             ****ORCA TERMINATED NORMALLY****
TOTAL RUN TIME: 0 days 0 hours 0 minutes 34 seconds 569 msec
