                         Program Version 4.2.1 -  RELEASE  -
|  1> ! wB97X-D3 SP def2-SVP
|  2> %pal
|  3> nprocs 16
|  4> end
|  5>
|  6> * xyz 0 1
|  7> S 	 61.4976 	 -8.62214 	 86.4606
|  8> C 	 61.0185 	 -7.05086 	 86.9521
|  9> C 	 59.8193 	 -6.77211 	 86.3771
| 10> C 	 59.2576 	 -7.8943 	 85.6371
| 11> C 	 59.9912 	 -9.01969 	 85.7175
| 12> H 	 58.32 	 -7.83978 	 85.1126
| 13> C 	 59.1925 	 -5.40147 	 86.4862
| 14> H 	 59.2141 	 -4.86326 	 85.5787
| 15> H 	 59.8893 	 -4.86755 	 87.0673
| 16> C 	 57.7821 	 -5.31797 	 87.0422
| 17> H 	 57.5669 	 -4.33814 	 87.413
| 18> H 	 57.0248 	 -5.65671 	 86.3084
| 19> C 	 57.601 	 -6.26118 	 88.2876
| 20> H 	 56.805 	 -5.74958 	 88.8512
| 21> H 	 57.3532 	 -7.28892 	 88.0843
| 22> H 	 58.4762 	 -6.26388 	 88.9295
| 23> S 	 59.9981 	 -11.6957 	 85.9736
| 24> C 	 59.5863 	 -12.6644 	 84.5618
| 25> C 	 59.4008 	 -11.8738 	 83.4266
| 26> C 	 59.5191 	 -10.5033 	 83.6985
| 27> C 	 59.7649 	 -10.2607 	 85.054
| 28> H 	 59.3161 	 -12.4019 	 82.4736
| 29> C 	 59.3566 	 -9.39044 	 82.5687
| 30> H 	 58.8578 	 -8.45785 	 82.8934
| 31> H 	 58.6312 	 -9.67242 	 81.8614
| 32> C 	 60.498 	 -9.05984 	 81.7255
| 33> H 	 60.1141 	 -8.53556 	 80.8908
| 34> H 	 60.9088 	 -9.98953 	 81.3868
| 35> C 	 61.5363 	 -8.18581 	 82.4521
| 36> H 	 61.0759 	 -7.45239 	 83.0615
| 37> H 	 62.1888 	 -7.69682 	 81.7328
| 38> H 	 62.2503 	 -8.92168 	 82.9603
| 39> H 	 61.4945 	 -6.5441 	 87.7279
| 40> H 	 59.6855 	 -13.7337 	 84.5158
| 41> *
| 42>
| 43>                          ****END OF INPUT****

CARTESIAN COORDINATES (ANGSTROEM)
---------------------------------
  S     61.497600   -8.622140   86.460600
  C     61.018500   -7.050860   86.952100
  C     59.819300   -6.772110   86.377100
  C     59.257600   -7.894300   85.637100
  C     59.991200   -9.019690   85.717500
  H     58.320000   -7.839780   85.112600
  C     59.192500   -5.401470   86.486200
  H     59.214100   -4.863260   85.578700
  H     59.889300   -4.867550   87.067300
  C     57.782100   -5.317970   87.042200
  H     57.566900   -4.338140   87.413000
  H     57.024800   -5.656710   86.308400
  C     57.601000   -6.261180   88.287600
  H     56.805000   -5.749580   88.851200
  H     57.353200   -7.288920   88.084300
  H     58.476200   -6.263880   88.929500
  S     59.998100  -11.695700   85.973600
  C     59.586300  -12.664400   84.561800
  C     59.400800  -11.873800   83.426600
  C     59.519100  -10.503300   83.698500
  C     59.764900  -10.260700   85.054000
  H     59.316100  -12.401900   82.473600
  C     59.356600   -9.390440   82.568700
  H     58.857800   -8.457850   82.893400
  H     58.631200   -9.672420   81.861400
  C     60.498000   -9.059840   81.725500
  H     60.114100   -8.535560   80.890800
  H     60.908800   -9.989530   81.386800
  C     61.536300   -8.185810   82.452100
  H     61.075900   -7.452390   83.061500
  H     62.188800   -7.696820   81.732800
  H     62.250300   -8.921680   82.960300
  H     61.494500   -6.544100   87.727900
  H     59.685500  -13.733700   84.515800

 Total Charge           Charge          ....    0
 Multiplicity           Mult            ....    1
 Number of Electrons    NEL             ....  134
 Basis Dimension        Dim             ....  322

ORBITAL ENERGIES
----------------

  NO   OCC          E(Eh)            E(eV)
   0   2.0000     -88.970964     -2421.0230
   1   2.0000     -88.956046     -2420.6171
   2   2.0000     -10.323701      -280.9222
   3   2.0000     -10.319765      -280.8151
   4   2.0000     -10.318514      -280.7810
   5   2.0000     -10.309925      -280.5473
   6   2.0000     -10.303812      -280.3810
   7   2.0000     -10.297720      -280.2152
   8   2.0000     -10.297340      -280.2049
   9   2.0000     -10.288049      -279.9520
  10   2.0000     -10.286321      -279.9050
  11   2.0000     -10.285278      -279.8767
  12   2.0000     -10.279265      -279.7130
  13   2.0000     -10.271771      -279.5091
  14   2.0000     -10.270511      -279.4748
  15   2.0000     -10.269315      -279.4423
  16   2.0000      -8.085836      -220.0268
  17   2.0000      -8.072364      -219.6602
  18   2.0000      -6.044144      -164.4695
  19   2.0000      -6.040319      -164.3654
  20   2.0000      -6.036807      -164.2699
  21   2.0000      -6.030866      -164.1082
  22   2.0000      -6.026593      -163.9919
  23   2.0000      -6.023074      -163.8962
  24   2.0000      -1.015624       -27.6365
  25   2.0000      -0.990034       -26.9402
  26   2.0000      -0.916390       -24.9362
  27   2.0000      -0.912485       -24.8300
  28   2.0000      -0.875655       -23.8278
  29   2.0000      -0.850807       -23.1516
  30   2.0000      -0.837549       -22.7909
  31   2.0000      -0.816669       -22.2227
  32   2.0000      -0.786115       -21.3913
  33   2.0000      -0.775691       -21.1076
  34   2.0000      -0.711439       -19.3592
  35   2.0000      -0.693606       -18.8740
  36   2.0000      -0.689384       -18.7591
  37   2.0000      -0.659567       -17.9477
  38   2.0000      -0.645606       -17.5678
  39   2.0000      -0.625538       -17.0217
  40   2.0000      -0.604808       -16.4577
  41   2.0000      -0.568117       -15.4592
  42   2.0000      -0.555228       -15.1085
  43   2.0000      -0.551258       -15.0005
  44   2.0000      -0.544915       -14.8279
  45   2.0000      -0.544148       -14.8070
  46   2.0000      -0.523151       -14.2357
  47   2.0000      -0.511724       -13.9247
  48   2.0000      -0.504492       -13.7279
  49   2.0000      -0.501124       -13.6363
  50   2.0000      -0.496063       -13.4986
  51   2.0000      -0.472828       -12.8663
  52   2.0000      -0.470215       -12.7952
  53   2.0000      -0.462388       -12.5822
  54   2.0000      -0.461419       -12.5558
  55   2.0000      -0.447167       -12.1680
  56   2.0000      -0.443244       -12.0613
  57   2.0000      -0.435492       -11.8503
  58   2.0000      -0.427451       -11.6315
  59   2.0000      -0.418656       -11.3922
  60   2.0000      -0.413858       -11.2616
  61   2.0000      -0.410489       -11.1700
  62   2.0000      -0.407032       -11.0759
  63   2.0000      -0.346394        -9.4259
  64   2.0000      -0.338193        -9.2027
  65   2.0000      -0.323146        -8.7932
  66   2.0000      -0.297891        -8.1060
  67   0.0000       0.028586         0.7779
  68   0.0000       0.074886         2.0378
  69   0.0000       0.116041         3.1576
  70   0.0000       0.118133         3.2146
  71   0.0000       0.129539         3.5249

MULLIKEN ATOMIC CHARGES
-----------------------
   0 S :    0.095790
   1 C :   -0.104161
   2 C :   -0.126710
   3 C :    0.016430
   4 C :   -0.100535
   5 H :    0.006498
   6 C :    0.141148
   7 H :    0.021657
   8 H :   -0.012810
   9 C :   -0.085343
  10 H :    0.028190
  11 H :    0.038162
  12 C :   -0.057648
  13 H :    0.028758
  14 H :    0.040439
  15 H :    0.020941
  16 S :    0.128589
  17 C :   -0.095733
  18 C :   -0.050823
  19 C :    0.015760
  20 C :   -0.193840
  21 H :    0.028842
  22 C :    0.074636
  23 H :    0.009582
  24 H :   -0.001936
  25 C :   -0.040438
  26 H :    0.013977
  27 H :    0.011329
  28 C :   -0.038793
  29 H :    0.031080
  30 H :    0.022311
  31 H :    0.043743
  32 H :    0.037315
  33 H :    0.053596
Sum of atomic charges:    0.0000000

LOEWDIN ATOMIC CHARGES
----------------------
   0 S :    0.417578
   1 C :   -0.197932
   2 C :   -0.056728
   3 C :   -0.065068
   4 C :   -0.200241
   5 H :    0.027006
   6 C :   -0.032343
   7 H :    0.028167
   8 H :    0.023342
   9 C :   -0.037006
  10 H :    0.022718
  11 H :    0.026922
  12 C :   -0.067174
  13 H :    0.026810
  14 H :    0.023335
  15 H :    0.020760
  16 S :    0.430222
  17 C :   -0.184119
  18 C :   -0.069994
  19 C :   -0.046559
  20 C :   -0.211628
  21 H :    0.037442
  22 C :   -0.030671
  23 H :    0.028713
  24 H :    0.025535
  25 C :   -0.037864
  26 H :    0.019494
  27 H :    0.020212
  28 C :   -0.064124
  29 H :    0.019190
  30 H :    0.021971
  31 H :    0.037121
  32 H :    0.019556
  33 H :    0.025357

  Mayer bond orders larger than 0.100000
B(  0-S ,  1-C ) :   1.1369 B(  0-S ,  4-C ) :   1.1558 B(  1-C ,  2-C ) :   1.6106
B(  1-C , 32-H ) :   0.9746 B(  2-C ,  3-C ) :   1.2164 B(  2-C ,  6-C ) :   1.0356
B(  3-C ,  4-C ) :   1.5790 B(  3-C ,  5-H ) :   1.0099 B(  4-C , 20-C ) :   1.0434
B(  6-C ,  7-H ) :   0.9308 B(  6-C ,  8-H ) :   0.9256 B(  6-C ,  9-C ) :   1.0758
B(  9-C , 10-H ) :   0.9621 B(  9-C , 11-H ) :   0.9542 B(  9-C , 12-C ) :   1.0763
B( 12-C , 13-H ) :   0.9790 B( 12-C , 14-H ) :   0.9736 B( 12-C , 15-H ) :   0.9781
B( 16-S , 17-C ) :   1.1624 B( 16-S , 20-C ) :   1.1658 B( 17-C , 18-C ) :   1.5928
B( 17-C , 20-C ) :   0.1122 B( 17-C , 33-H ) :   0.9681 B( 18-C , 19-C ) :   1.2724
B( 18-C , 21-H ) :   0.9863 B( 19-C , 20-C ) :   1.5585 B( 19-C , 22-C ) :   1.0089
B( 22-C , 23-H ) :   0.9355 B( 22-C , 24-H ) :   0.9267 B( 22-C , 25-C ) :   1.1079
B( 25-C , 26-H ) :   0.9470 B( 25-C , 27-H ) :   0.9489 B( 25-C , 28-C ) :   1.0808
B( 28-C , 29-H ) :   0.9767 B( 28-C , 30-H ) :   0.9746 B( 28-C , 31-H ) :   0.9749

Dispersion correction           -0.015996679
FINAL SINGLE POINT ENERGY     -1339.864857348456

DIPOLE MOMENT
-------------
                                X             Y             Z
Electronic contribution:      7.87225     -18.56037       7.60358
Nuclear contribution   :     -8.10905      18.85137      -8.04714
                        -----------------------------------------
Total Dipole Moment    :     -0.23680       0.29100      -0.44356
                        -----------------------------------------
Magnitude (a.u.)       :      0.58095
Magnitude (Debye)      :      1.47665

Rotational constants in cm-1:     0.020162     0.009279     0.008115
Rotational constants in MHz :   604.440644   278.182004   243.285164

                             ****ORCA TERMINATED NORMALLY****
TOTAL RUN TIME: 0 days 0 hours 0 minutes 30 seconds 640 msec
