                         Program Version 4.2.1 -  RELEASE  -
|  1> ! wB97X-D3 SP def2-SVP
|  2> %pal
|  3> nprocs 16
|  4> end
|  5>
|  6> * xyz 0 1
|  7> S 	 -35.6058 	 68.2495 	 145.549
|  8> C 	 -37.1254 	 68.2808 	 144.587
|  9> C 	 -36.733 	 68.3327 	 143.218
| 10> C 	 -35.3537 	 68.3104 	 143.032
| 11> C 	 -34.5876 	 68.1013 	 144.181
| 12> H 	 -34.7552 	 68.2707 	 142.086
| 13> C 	 -37.7866 	 68.347 	 142.118
| 14> H 	 -37.4746 	 69.1929 	 141.501
| 15> H 	 -38.8111 	 68.629 	 142.506
| 16> C 	 -37.9324 	 67.0362 	 141.397
| 17> H 	 -38.2073 	 66.2281 	 142.102
| 18> H 	 -38.7632 	 67.1083 	 140.711
| 19> C 	 -36.6829 	 66.5103 	 140.609
| 20> H 	 -35.9171 	 65.9985 	 141.209
| 21> H 	 -37.1337 	 65.8102 	 139.939
| 22> H 	 -36.2252 	 67.262 	 140.003
| 23> S 	 -32.024 	 68.7365 	 143.93
| 24> C 	 -30.7374 	 67.5383 	 144.271
| 25> C 	 -31.3195 	 66.3932 	 144.669
| 26> C 	 -32.7348 	 66.4237 	 144.688
| 27> C 	 -33.2477 	 67.6519 	 144.347
| 28> H 	 -30.7464 	 65.4593 	 144.845
| 29> C 	 -33.5301 	 65.21 	 145.149
| 30> H 	 -34.5264 	 65.4682 	 145.547
| 31> H 	 -33.1422 	 64.9096 	 146.138
| 32> C 	 -33.6315 	 63.9902 	 144.224
| 33> H 	 -34.1868 	 63.2934 	 144.875
| 34> H 	 -32.6787 	 63.5377 	 144.078
| 35> C 	 -34.3612 	 64.5323 	 143.024
| 36> H 	 -33.6667 	 65.1976 	 142.49
| 37> H 	 -35.2383 	 65.0665 	 143.325
| 38> H 	 -34.5542 	 63.6511 	 142.404
| 39> H 	 -38.1084 	 68.3183 	 145.041
| 40> H 	 -29.7405 	 67.687 	 144.038
| 41> *
| 42>
| 43>                          ****END OF INPUT****

CARTESIAN COORDINATES (ANGSTROEM)
---------------------------------
  S    -35.605800   68.249500  145.549000
  C    -37.125400   68.280800  144.587000
  C    -36.733000   68.332700  143.218000
  C    -35.353700   68.310400  143.032000
  C    -34.587600   68.101300  144.181000
  H    -34.755200   68.270700  142.086000
  C    -37.786600   68.347000  142.118000
  H    -37.474600   69.192900  141.501000
  H    -38.811100   68.629000  142.506000
  C    -37.932400   67.036200  141.397000
  H    -38.207300   66.228100  142.102000
  H    -38.763200   67.108300  140.711000
  C    -36.682900   66.510300  140.609000
  H    -35.917100   65.998500  141.209000
  H    -37.133700   65.810200  139.939000
  H    -36.225200   67.262000  140.003000
  S    -32.024000   68.736500  143.930000
  C    -30.737400   67.538300  144.271000
  C    -31.319500   66.393200  144.669000
  C    -32.734800   66.423700  144.688000
  C    -33.247700   67.651900  144.347000
  H    -30.746400   65.459300  144.845000
  C    -33.530100   65.210000  145.149000
  H    -34.526400   65.468200  145.547000
  H    -33.142200   64.909600  146.138000
  C    -33.631500   63.990200  144.224000
  H    -34.186800   63.293400  144.875000
  H    -32.678700   63.537700  144.078000
  C    -34.361200   64.532300  143.024000
  H    -33.666700   65.197600  142.490000
  H    -35.238300   65.066500  143.325000
  H    -34.554200   63.651100  142.404000
  H    -38.108400   68.318300  145.041000
  H    -29.740500   67.687000  144.038000

 Total Charge           Charge          ....    0
 Multiplicity           Mult            ....    1
 Number of Electrons    NEL             ....  134
 Basis Dimension        Dim             ....  322

ORBITAL ENERGIES
----------------

  NO   OCC          E(Eh)            E(eV)
   0   2.0000     -88.963976     -2420.8329
   1   2.0000     -88.962085     -2420.7814
   2   2.0000     -10.325395      -280.9683
   3   2.0000     -10.321061      -280.8504
   4   2.0000     -10.319994      -280.8213
   5   2.0000     -10.312779      -280.6250
   6   2.0000     -10.306221      -280.4465
   7   2.0000     -10.298909      -280.2476
   8   2.0000     -10.297339      -280.2048
   9   2.0000     -10.294329      -280.1229
  10   2.0000     -10.292951      -280.0854
  11   2.0000     -10.286790      -279.9178
  12   2.0000     -10.284930      -279.8672
  13   2.0000     -10.280913      -279.7579
  14   2.0000     -10.272642      -279.5328
  15   2.0000     -10.271391      -279.4987
  16   2.0000      -8.078293      -219.8215
  17   2.0000      -8.077751      -219.8068
  18   2.0000      -6.036606      -164.2644
  19   2.0000      -6.036325      -164.2567
  20   2.0000      -6.032597      -164.1553
  21   2.0000      -6.031985      -164.1387
  22   2.0000      -6.029521      -164.0716
  23   2.0000      -6.028502      -164.0439
  24   2.0000      -1.015450       -27.6318
  25   2.0000      -0.986467       -26.8431
  26   2.0000      -0.913645       -24.8615
  27   2.0000      -0.912620       -24.8336
  28   2.0000      -0.874723       -23.8024
  29   2.0000      -0.848000       -23.0753
  30   2.0000      -0.839928       -22.8556
  31   2.0000      -0.817452       -22.2440
  32   2.0000      -0.783607       -21.3230
  33   2.0000      -0.772128       -21.0107
  34   2.0000      -0.707938       -19.2640
  35   2.0000      -0.701049       -19.0765
  36   2.0000      -0.695384       -18.9224
  37   2.0000      -0.665577       -18.1113
  38   2.0000      -0.640920       -17.4403
  39   2.0000      -0.613656       -16.6984
  40   2.0000      -0.603987       -16.4353
  41   2.0000      -0.572354       -15.5745
  42   2.0000      -0.555236       -15.1087
  43   2.0000      -0.546734       -14.8774
  44   2.0000      -0.542943       -14.7742
  45   2.0000      -0.539553       -14.6820
  46   2.0000      -0.519974       -14.1492
  47   2.0000      -0.513964       -13.9857
  48   2.0000      -0.509141       -13.8544
  49   2.0000      -0.501885       -13.6570
  50   2.0000      -0.494862       -13.4659
  51   2.0000      -0.483043       -13.1443
  52   2.0000      -0.472963       -12.8700
  53   2.0000      -0.467732       -12.7276
  54   2.0000      -0.453284       -12.3345
  55   2.0000      -0.442245       -12.0341
  56   2.0000      -0.440692       -11.9918
  57   2.0000      -0.434088       -11.8121
  58   2.0000      -0.430157       -11.7052
  59   2.0000      -0.424394       -11.5484
  60   2.0000      -0.415391       -11.3034
  61   2.0000      -0.406345       -11.0572
  62   2.0000      -0.401318       -10.9204
  63   2.0000      -0.342546        -9.3212
  64   2.0000      -0.334156        -9.0928
  65   2.0000      -0.322558        -8.7772
  66   2.0000      -0.300496        -8.1769
  67   0.0000       0.031452         0.8559
  68   0.0000       0.066257         1.8030
  69   0.0000       0.116425         3.1681
  70   0.0000       0.126188         3.4337
  71   0.0000       0.127115         3.4590

MULLIKEN ATOMIC CHARGES
-----------------------
   0 S :    0.107094
   1 C :   -0.138978
   2 C :   -0.095053
   3 C :    0.051208
   4 C :   -0.194510
   5 H :    0.026316
   6 C :    0.064115
   7 H :    0.033928
   8 H :    0.025292
   9 C :   -0.065311
  10 H :    0.029262
  11 H :    0.025602
  12 C :   -0.050462
  13 H :    0.047866
  14 H :    0.024496
  15 H :    0.022505
  16 S :    0.099700
  17 C :   -0.067371
  18 C :   -0.025759
  19 C :   -0.009593
  20 C :   -0.165643
  21 H :    0.031879
  22 C :   -0.006125
  23 H :    0.017575
  24 H :    0.016312
  25 C :   -0.014453
  26 H :    0.026407
  27 H :    0.019016
  28 C :   -0.054691
  29 H :    0.050131
  30 H :    0.044670
  31 H :    0.033211
  32 H :    0.058773
  33 H :    0.032590
Sum of atomic charges:    0.0000000

LOEWDIN ATOMIC CHARGES
----------------------
   0 S :    0.418114
   1 C :   -0.191908
   2 C :   -0.062216
   3 C :   -0.071575
   4 C :   -0.210910
   5 H :    0.040010
   6 C :   -0.036066
   7 H :    0.032366
   8 H :    0.035476
   9 C :   -0.039152
  10 H :    0.029452
  11 H :    0.021773
  12 C :   -0.065578
  13 H :    0.029774
  14 H :    0.026187
  15 H :    0.018037
  16 S :    0.417824
  17 C :   -0.160935
  18 C :   -0.067705
  19 C :   -0.061424
  20 C :   -0.224571
  21 H :    0.039394
  22 C :   -0.044139
  23 H :    0.024390
  24 H :    0.028449
  25 C :   -0.035141
  26 H :    0.027888
  27 H :    0.016157
  28 C :   -0.061420
  29 H :    0.031377
  30 H :    0.025683
  31 H :    0.024848
  32 H :    0.029432
  33 H :    0.016110

  Mayer bond orders larger than 0.100000
B(  0-S ,  1-C ) :   1.1503 B(  0-S ,  4-C ) :   1.1889 B(  1-C ,  2-C ) :   1.5421
B(  1-C ,  4-C ) :   0.1222 B(  1-C , 32-H ) :   0.9787 B(  2-C ,  3-C ) :   1.2871
B(  2-C ,  6-C ) :   1.0134 B(  3-C ,  4-C ) :   1.5401 B(  3-C ,  5-H ) :   0.9824
B(  4-C , 20-C ) :   1.0002 B(  6-C ,  7-H ) :   0.9393 B(  6-C ,  8-H ) :   0.9420
B(  6-C ,  9-C ) :   1.0816 B(  9-C , 10-H ) :   0.9488 B(  9-C , 11-H ) :   0.9580
B(  9-C , 12-C ) :   1.0768 B( 12-C , 13-H ) :   0.9702 B( 12-C , 14-H ) :   0.9705
B( 12-C , 15-H ) :   0.9740 B( 16-S , 17-C ) :   1.1388 B( 16-S , 20-C ) :   1.1612
B( 17-C , 18-C ) :   1.6059 B( 17-C , 33-H ) :   0.9822 B( 18-C , 19-C ) :   1.2531
B( 18-C , 21-H ) :   0.9822 B( 19-C , 20-C ) :   1.5860 B( 19-C , 22-C ) :   1.0316
B( 22-C , 23-H ) :   0.9366 B( 22-C , 24-H ) :   0.9312 B( 22-C , 25-C ) :   1.0745
B( 25-C , 26-H ) :   0.9486 B( 25-C , 27-H ) :   0.9548 B( 25-C , 28-C ) :   1.0676
B( 28-C , 29-H ) :   0.9699 B( 28-C , 30-H ) :   0.9690 B( 28-C , 31-H ) :   0.9719

Dispersion correction           -0.017169491
FINAL SINGLE POINT ENERGY     -1339.871496731946

DIPOLE MOMENT
-------------
                                X             Y             Z
Electronic contribution:     11.78398      17.88177      14.34162
Nuclear contribution   :    -11.96866     -18.41658     -14.67323
                        -----------------------------------------
Total Dipole Moment    :     -0.18467      -0.53481      -0.33161
                        -----------------------------------------
Magnitude (a.u.)       :      0.65581
Magnitude (Debye)      :      1.66693

Rotational constants in cm-1:     0.019647     0.010057     0.008799
Rotational constants in MHz :   589.011267   301.492007   263.797354

                             ****ORCA TERMINATED NORMALLY****
TOTAL RUN TIME: 0 days 0 hours 0 minutes 36 seconds 756 msec
