                         Program Version 4.2.1 -  RELEASE  -
|  1> ! wB97X-D3 SP def2-SVP
|  2> %pal
|  3> nprocs 16
|  4> end
|  5>
|  6> * xyz 0 1
|  7> S 	 -113.475 	 48.4746 	 132.804
|  8> C 	 -113.101 	 50.1483 	 132.517
|  9> C 	 -114.181 	 50.9776 	 132.78
| 10> C 	 -115.331 	 50.2843 	 133.285
| 11> C 	 -115.173 	 48.8714 	 133.284
| 12> H 	 -116.282 	 50.7594 	 133.466
| 13> C 	 -114.142 	 52.4845 	 132.563
| 14> H 	 -114.973 	 52.7878 	 131.903
| 15> H 	 -113.312 	 52.8625 	 132.083
| 16> C 	 -114.22 	 53.2421 	 133.953
| 17> H 	 -115.207 	 53.0094 	 134.455
| 18> H 	 -113.416 	 52.8991 	 134.58
| 19> C 	 -114.293 	 54.731 	 133.822
| 20> H 	 -114.144 	 55.1521 	 134.784
| 21> H 	 -113.476 	 54.8546 	 133.157
| 22> H 	 -115.189 	 55.1857 	 133.387
| 23> S 	 -117.477 	 47.4505 	 132.77
| 24> C 	 -118.081 	 46.3715 	 134.029
| 25> C 	 -117.244 	 46.3182 	 135.082
| 26> C 	 -116.035 	 47.0478 	 134.897
| 27> C 	 -116.075 	 47.8531 	 133.769
| 28> H 	 -117.392 	 45.6484 	 135.903
| 29> C 	 -114.941 	 47.0591 	 136.05
| 30> H 	 -113.99 	 47.083 	 135.51
| 31> H 	 -114.829 	 46.1397 	 136.566
| 32> C 	 -114.944 	 48.1797 	 137.019
| 33> H 	 -115.787 	 48.1448 	 137.657
| 34> H 	 -114.853 	 49.1907 	 136.494
| 35> C 	 -113.637 	 48.1809 	 137.932
| 36> H 	 -112.842 	 48.6029 	 137.293
| 37> H 	 -113.278 	 47.1725 	 138.221
| 38> H 	 -113.757 	 48.9463 	 138.681
| 39> H 	 -112.237 	 50.5401 	 132.086
| 40> H 	 -118.897 	 45.6846 	 134.005
| 41> *
| 42>
| 43>                          ****END OF INPUT****

CARTESIAN COORDINATES (ANGSTROEM)
---------------------------------
  S    -113.475000   48.474600  132.804000
  C    -113.101000   50.148300  132.517000
  C    -114.181000   50.977600  132.780000
  C    -115.331000   50.284300  133.285000
  C    -115.173000   48.871400  133.284000
  H    -116.282000   50.759400  133.466000
  C    -114.142000   52.484500  132.563000
  H    -114.973000   52.787800  131.903000
  H    -113.312000   52.862500  132.083000
  C    -114.220000   53.242100  133.953000
  H    -115.207000   53.009400  134.455000
  H    -113.416000   52.899100  134.580000
  C    -114.293000   54.731000  133.822000
  H    -114.144000   55.152100  134.784000
  H    -113.476000   54.854600  133.157000
  H    -115.189000   55.185700  133.387000
  S    -117.477000   47.450500  132.770000
  C    -118.081000   46.371500  134.029000
  C    -117.244000   46.318200  135.082000
  C    -116.035000   47.047800  134.897000
  C    -116.075000   47.853100  133.769000
  H    -117.392000   45.648400  135.903000
  C    -114.941000   47.059100  136.050000
  H    -113.990000   47.083000  135.510000
  H    -114.829000   46.139700  136.566000
  C    -114.944000   48.179700  137.019000
  H    -115.787000   48.144800  137.657000
  H    -114.853000   49.190700  136.494000
  C    -113.637000   48.180900  137.932000
  H    -112.842000   48.602900  137.293000
  H    -113.278000   47.172500  138.221000
  H    -113.757000   48.946300  138.681000
  H    -112.237000   50.540100  132.086000
  H    -118.897000   45.684600  134.005000

 Total Charge           Charge          ....    0
 Multiplicity           Mult            ....    1
 Number of Electrons    NEL             ....  134
 Basis Dimension        Dim             ....  322

ORBITAL ENERGIES
----------------

  NO   OCC          E(Eh)            E(eV)
   0   2.0000     -88.968461     -2420.9549
   1   2.0000     -88.966848     -2420.9110
   2   2.0000     -10.337729      -281.3039
   3   2.0000     -10.327949      -281.0378
   4   2.0000     -10.312971      -280.6302
   5   2.0000     -10.310971      -280.5758
   6   2.0000     -10.306108      -280.4435
   7   2.0000     -10.302835      -280.3544
   8   2.0000     -10.301981      -280.3311
   9   2.0000     -10.291711      -280.0517
  10   2.0000     -10.287689      -279.9423
  11   2.0000     -10.287234      -279.9299
  12   2.0000     -10.286414      -279.9076
  13   2.0000     -10.283466      -279.8273
  14   2.0000     -10.279322      -279.7146
  15   2.0000     -10.270489      -279.4742
  16   2.0000      -8.082000      -219.9224
  17   2.0000      -8.081021      -219.8958
  18   2.0000      -6.040546      -164.3716
  19   2.0000      -6.039654      -164.3473
  20   2.0000      -6.036595      -164.2641
  21   2.0000      -6.035634      -164.2379
  22   2.0000      -6.032863      -164.1626
  23   2.0000      -6.031648      -164.1295
  24   2.0000      -1.001738       -27.2587
  25   2.0000      -0.980044       -26.6683
  26   2.0000      -0.911891       -24.8138
  27   2.0000      -0.903926       -24.5971
  28   2.0000      -0.873700       -23.7746
  29   2.0000      -0.850763       -23.1504
  30   2.0000      -0.841929       -22.9101
  31   2.0000      -0.816503       -22.2182
  32   2.0000      -0.781895       -21.2765
  33   2.0000      -0.770085       -20.9551
  34   2.0000      -0.711433       -19.3591
  35   2.0000      -0.693444       -18.8696
  36   2.0000      -0.688717       -18.7410
  37   2.0000      -0.663306       -18.0495
  38   2.0000      -0.641871       -17.4662
  39   2.0000      -0.621427       -16.9099
  40   2.0000      -0.596626       -16.2350
  41   2.0000      -0.570142       -15.5144
  42   2.0000      -0.565960       -15.4006
  43   2.0000      -0.561786       -15.2870
  44   2.0000      -0.533782       -14.5249
  45   2.0000      -0.525895       -14.3103
  46   2.0000      -0.516990       -14.0680
  47   2.0000      -0.511050       -13.9064
  48   2.0000      -0.504078       -13.7167
  49   2.0000      -0.503119       -13.6906
  50   2.0000      -0.492407       -13.3991
  51   2.0000      -0.480956       -13.0875
  52   2.0000      -0.471712       -12.8359
  53   2.0000      -0.462434       -12.5835
  54   2.0000      -0.458463       -12.4754
  55   2.0000      -0.448839       -12.2135
  56   2.0000      -0.445815       -12.1313
  57   2.0000      -0.438820       -11.9409
  58   2.0000      -0.436243       -11.8708
  59   2.0000      -0.418936       -11.3998
  60   2.0000      -0.412985       -11.2379
  61   2.0000      -0.407473       -11.0879
  62   2.0000      -0.404864       -11.0169
  63   2.0000      -0.338807        -9.2194
  64   2.0000      -0.335910        -9.1406
  65   2.0000      -0.325861        -8.8671
  66   2.0000      -0.300098        -8.1661
  67   0.0000       0.034267         0.9324
  68   0.0000       0.056119         1.5271
  69   0.0000       0.111333         3.0295
  70   0.0000       0.118382         3.2213
  71   0.0000       0.125151         3.4055

MULLIKEN ATOMIC CHARGES
-----------------------
   0 S :    0.112438
   1 C :   -0.086082
   2 C :   -0.094968
   3 C :    0.059243
   4 C :   -0.172074
   5 H :    0.019378
   6 C :    0.087530
   7 H :    0.033489
   8 H :   -0.007735
   9 C :   -0.129522
  10 H :    0.030964
  11 H :    0.037043
  12 C :    0.001802
  13 H :    0.031118
  14 H :    0.008731
  15 H :    0.037099
  16 S :    0.112699
  17 C :   -0.060724
  18 C :   -0.032279
  19 C :   -0.013759
  20 C :   -0.186084
  21 H :    0.010926
  22 C :    0.087610
  23 H :    0.004529
  24 H :    0.005775
  25 C :   -0.064282
  26 H :    0.022115
  27 H :    0.046233
  28 C :   -0.069406
  29 H :    0.029851
  30 H :    0.038531
  31 H :    0.034856
  32 H :    0.021229
  33 H :    0.043727
Sum of atomic charges:   -0.0000000

LOEWDIN ATOMIC CHARGES
----------------------
   0 S :    0.395445
   1 C :   -0.193421
   2 C :   -0.061434
   3 C :   -0.048624
   4 C :   -0.180740
   5 H :    0.032452
   6 C :   -0.025973
   7 H :    0.034807
   8 H :    0.013149
   9 C :   -0.037643
  10 H :    0.024490
  11 H :    0.023742
  12 C :   -0.062004
  13 H :    0.024935
  14 H :    0.018206
  15 H :    0.027881
  16 S :    0.397808
  17 C :   -0.175633
  18 C :   -0.071648
  19 C :   -0.044927
  20 C :   -0.202037
  21 H :    0.029126
  22 C :   -0.034368
  23 H :    0.025591
  24 H :    0.023128
  25 C :   -0.037344
  26 H :    0.013045
  27 H :    0.037074
  28 C :   -0.068211
  29 H :    0.027479
  30 H :    0.024530
  31 H :    0.025065
  32 H :    0.017417
  33 H :    0.028635

  Mayer bond orders larger than 0.100000
B(  0-S ,  1-C ) :   1.1392 B(  0-S ,  4-C ) :   1.1413 B(  1-C ,  2-C ) :   1.6113
B(  1-C ,  4-C ) :   0.1009 B(  1-C , 32-H ) :   0.9711 B(  2-C ,  3-C ) :   1.2455
B(  2-C ,  6-C ) :   1.0383 B(  3-C ,  4-C ) :   1.5697 B(  3-C ,  5-H ) :   0.9882
B(  4-C , 20-C ) :   1.0426 B(  6-C ,  7-H ) :   0.9389 B(  6-C ,  8-H ) :   0.9404
B(  6-C ,  9-C ) :   1.0499 B(  9-C , 10-H ) :   0.9583 B(  9-C , 11-H ) :   0.9590
B(  9-C , 12-C ) :   1.0752 B( 12-C , 13-H ) :   0.9708 B( 12-C , 14-H ) :   0.9733
B( 12-C , 15-H ) :   0.9754 B( 16-S , 17-C ) :   1.1353 B( 16-S , 20-C ) :   1.1365
B( 17-C , 18-C ) :   1.6372 B( 17-C , 33-H ) :   0.9652 B( 18-C , 19-C ) :   1.2437
B( 18-C , 21-H ) :   0.9870 B( 19-C , 20-C ) :   1.6041 B( 19-C , 22-C ) :   1.0263
B( 22-C , 23-H ) :   0.9265 B( 22-C , 24-H ) :   0.9353 B( 22-C , 25-C ) :   1.0779
B( 25-C , 26-H ) :   0.9592 B( 25-C , 27-H ) :   0.9549 B( 25-C , 28-C ) :   1.0648
B( 28-C , 29-H ) :   0.9789 B( 28-C , 30-H ) :   0.9766 B( 28-C , 31-H ) :   0.9744

Dispersion correction           -0.014233580
FINAL SINGLE POINT ENERGY     -1339.860718928556

DIPOLE MOMENT
-------------
                                X             Y             Z
Electronic contribution:     -8.47400     -19.28090     -16.81437
Nuclear contribution   :      8.55078      19.61681      17.14468
                        -----------------------------------------
Total Dipole Moment    :      0.07678       0.33591       0.33032
                        -----------------------------------------
Magnitude (a.u.)       :      0.47733
Magnitude (Debye)      :      1.21327

Rotational constants in cm-1:     0.017456     0.008278     0.007098
Rotational constants in MHz :   523.320380   248.169661   212.804651

                             ****ORCA TERMINATED NORMALLY****
TOTAL RUN TIME: 0 days 0 hours 0 minutes 33 seconds 340 msec
