                         Program Version 4.2.1 -  RELEASE  -
|  1> ! wB97X-D3 SP def2-SVP
|  2> %pal
|  3> nprocs 16
|  4> end
|  5>
|  6> * xyz 0 1
|  7> S 	 -63.6983 	 48.2578 	 122.857
|  8> C 	 -65.3103 	 47.4269 	 122.879
|  9> C 	 -66.1674 	 47.9089 	 121.894
| 10> C 	 -65.4923 	 48.8022 	 121.009
| 11> C 	 -64.2066 	 49.0958 	 121.399
| 12> H 	 -65.83 	 49.3183 	 120.059
| 13> C 	 -67.4938 	 47.362 	 121.653
| 14> H 	 -68.0292 	 47.9204 	 120.886
| 15> H 	 -67.915 	 47.655 	 122.612
| 16> C 	 -67.4504 	 45.849 	 121.287
| 17> H 	 -67.4861 	 45.6875 	 120.197
| 18> H 	 -66.4927 	 45.3934 	 121.589
| 19> C 	 -68.4892 	 44.9725 	 122.043
| 20> H 	 -68.5118 	 44.0332 	 121.493
| 21> H 	 -68.2584 	 44.7467 	 123.043
| 22> H 	 -69.5028 	 45.395 	 122.005
| 23> S 	 -61.8347 	 49.0631 	 120.109
| 24> C 	 -61.2835 	 50.4319 	 119.187
| 25> C 	 -62.187 	 51.4847 	 119.319
| 26> C 	 -63.3353 	 51.1736 	 120.167
| 27> C 	 -63.2324 	 49.9087 	 120.684
| 28> H 	 -62.1611 	 52.3812 	 118.767
| 29> C 	 -64.4218 	 52.1246 	 120.459
| 30> H 	 -64.0376 	 53.0875 	 120.806
| 31> H 	 -64.9792 	 51.7935 	 121.324
| 32> C 	 -65.5299 	 52.2361 	 119.322
| 33> H 	 -65.7603 	 51.321 	 118.757
| 34> H 	 -65.171 	 52.9108 	 118.492
| 35> C 	 -66.8773 	 52.8564 	 119.849
| 36> H 	 -67.4687 	 52.9522 	 119.025
| 37> H 	 -66.7558 	 53.7876 	 120.2
| 38> H 	 -67.5028 	 52.1041 	 120.428
| 39> H 	 -65.58 	 46.5496 	 123.413
| 40> H 	 -60.4941 	 50.449 	 118.533
| 41> *
| 42>
| 43>                          ****END OF INPUT****

CARTESIAN COORDINATES (ANGSTROEM)
---------------------------------
  S    -63.698300   48.257800  122.857000
  C    -65.310300   47.426900  122.879000
  C    -66.167400   47.908900  121.894000
  C    -65.492300   48.802200  121.009000
  C    -64.206600   49.095800  121.399000
  H    -65.830000   49.318300  120.059000
  C    -67.493800   47.362000  121.653000
  H    -68.029200   47.920400  120.886000
  H    -67.915000   47.655000  122.612000
  C    -67.450400   45.849000  121.287000
  H    -67.486100   45.687500  120.197000
  H    -66.492700   45.393400  121.589000
  C    -68.489200   44.972500  122.043000
  H    -68.511800   44.033200  121.493000
  H    -68.258400   44.746700  123.043000
  H    -69.502800   45.395000  122.005000
  S    -61.834700   49.063100  120.109000
  C    -61.283500   50.431900  119.187000
  C    -62.187000   51.484700  119.319000
  C    -63.335300   51.173600  120.167000
  C    -63.232400   49.908700  120.684000
  H    -62.161100   52.381200  118.767000
  C    -64.421800   52.124600  120.459000
  H    -64.037600   53.087500  120.806000
  H    -64.979200   51.793500  121.324000
  C    -65.529900   52.236100  119.322000
  H    -65.760300   51.321000  118.757000
  H    -65.171000   52.910800  118.492000
  C    -66.877300   52.856400  119.849000
  H    -67.468700   52.952200  119.025000
  H    -66.755800   53.787600  120.200000
  H    -67.502800   52.104100  120.428000
  H    -65.580000   46.549600  123.413000
  H    -60.494100   50.449000  118.533000

 Total Charge           Charge          ....    0
 Multiplicity           Mult            ....    1
 Number of Electrons    NEL             ....  134
 Basis Dimension        Dim             ....  322

ORBITAL ENERGIES
----------------

  NO   OCC          E(Eh)            E(eV)
   0   2.0000     -88.966014     -2420.8883
   1   2.0000     -88.962733     -2420.7990
   2   2.0000     -10.325002      -280.9576
   3   2.0000     -10.318700      -280.7861
   4   2.0000     -10.313100      -280.6337
   5   2.0000     -10.310527      -280.5637
   6   2.0000     -10.298752      -280.2433
   7   2.0000     -10.298635      -280.2401
   8   2.0000     -10.298586      -280.2388
   9   2.0000     -10.295505      -280.1549
  10   2.0000     -10.293722      -280.1064
  11   2.0000     -10.292440      -280.0715
  12   2.0000     -10.290278      -280.0127
  13   2.0000     -10.289000      -279.9779
  14   2.0000     -10.276469      -279.6369
  15   2.0000     -10.270430      -279.4726
  16   2.0000      -8.079513      -219.8547
  17   2.0000      -8.078066      -219.8154
  18   2.0000      -6.038096      -164.3049
  19   2.0000      -6.036559      -164.2631
  20   2.0000      -6.034305      -164.2018
  21   2.0000      -6.032411      -164.1502
  22   2.0000      -6.030161      -164.0890
  23   2.0000      -6.028866      -164.0538
  24   2.0000      -1.005678       -27.3659
  25   2.0000      -0.979770       -26.6609
  26   2.0000      -0.914849       -24.8943
  27   2.0000      -0.903911       -24.5967
  28   2.0000      -0.865040       -23.5389
  29   2.0000      -0.853813       -23.2334
  30   2.0000      -0.844906       -22.9911
  31   2.0000      -0.815284       -22.1850
  32   2.0000      -0.784479       -21.3468
  33   2.0000      -0.772275       -21.0147
  34   2.0000      -0.709682       -19.3114
  35   2.0000      -0.706612       -19.2279
  36   2.0000      -0.699399       -19.0316
  37   2.0000      -0.667054       -18.1515
  38   2.0000      -0.636755       -17.3270
  39   2.0000      -0.608840       -16.5674
  40   2.0000      -0.599486       -16.3128
  41   2.0000      -0.575289       -15.6544
  42   2.0000      -0.560291       -15.2463
  43   2.0000      -0.546461       -14.8700
  44   2.0000      -0.535239       -14.5646
  45   2.0000      -0.528148       -14.3716
  46   2.0000      -0.519492       -14.1361
  47   2.0000      -0.516775       -14.0622
  48   2.0000      -0.509175       -13.8553
  49   2.0000      -0.502745       -13.6804
  50   2.0000      -0.491674       -13.3791
  51   2.0000      -0.478819       -13.0293
  52   2.0000      -0.466339       -12.6897
  53   2.0000      -0.464415       -12.6374
  54   2.0000      -0.457065       -12.4374
  55   2.0000      -0.449335       -12.2270
  56   2.0000      -0.442639       -12.0448
  57   2.0000      -0.441336       -12.0094
  58   2.0000      -0.434452       -11.8220
  59   2.0000      -0.425738       -11.5849
  60   2.0000      -0.421501       -11.4696
  61   2.0000      -0.415530       -11.3071
  62   2.0000      -0.410855       -11.1799
  63   2.0000      -0.338813        -9.2196
  64   2.0000      -0.329023        -8.9532
  65   2.0000      -0.324452        -8.8288
  66   2.0000      -0.293757        -7.9935
  67   0.0000       0.032880         0.8947
  68   0.0000       0.068124         1.8538
  69   0.0000       0.105311         2.8657
  70   0.0000       0.124904         3.3988
  71   0.0000       0.126839         3.4515

MULLIKEN ATOMIC CHARGES
-----------------------
   0 S :    0.107829
   1 C :   -0.119763
   2 C :   -0.107921
   3 C :    0.028245
   4 C :   -0.175535
   5 H :    0.022606
   6 C :    0.092929
   7 H :    0.023264
   8 H :    0.043645
   9 C :   -0.093115
  10 H :    0.040478
  11 H :    0.036163
  12 C :   -0.044844
  13 H :    0.028922
  14 H :    0.027662
  15 H :    0.033886
  16 S :    0.111669
  17 C :   -0.050666
  18 C :   -0.010238
  19 C :   -0.042890
  20 C :   -0.147440
  21 H :    0.000069
  22 C :    0.082555
  23 H :    0.031727
  24 H :    0.020121
  25 C :   -0.140934
  26 H :    0.037716
  27 H :    0.030126
  28 C :    0.017451
  29 H :   -0.001021
  30 H :    0.015708
  31 H :    0.041204
  32 H :    0.033314
  33 H :    0.027076
Sum of atomic charges:    0.0000000

LOEWDIN ATOMIC CHARGES
----------------------
   0 S :    0.378592
   1 C :   -0.186509
   2 C :   -0.057129
   3 C :   -0.071827
   4 C :   -0.189350
   5 H :    0.042336
   6 C :   -0.039529
   7 H :    0.031811
   8 H :    0.042680
   9 C :   -0.035583
  10 H :    0.030000
  11 H :    0.027010
  12 C :   -0.062418
  13 H :    0.028224
  14 H :    0.016325
  15 H :    0.024385
  16 S :    0.420040
  17 C :   -0.174503
  18 C :   -0.059292
  19 C :   -0.057129
  20 C :   -0.209650
  21 H :    0.021253
  22 C :   -0.036397
  23 H :    0.035136
  24 H :    0.031476
  25 C :   -0.037765
  26 H :    0.022650
  27 H :    0.024886
  28 C :   -0.054793
  29 H :    0.016373
  30 H :    0.010000
  31 H :    0.036729
  32 H :    0.018908
  33 H :    0.013059

  Mayer bond orders larger than 0.100000
B(  0-S ,  1-C ) :   1.1133 B(  0-S ,  4-C ) :   1.1448 B(  1-C ,  2-C ) :   1.6295
B(  1-C , 32-H ) :   0.9690 B(  2-C ,  3-C ) :   1.2126 B(  2-C ,  6-C ) :   1.0116
B(  3-C ,  4-C ) :   1.6125 B(  3-C ,  5-H ) :   0.9782 B(  4-C , 20-C ) :   0.9999
B(  6-C ,  7-H ) :   0.9411 B(  6-C ,  8-H ) :   0.9396 B(  6-C ,  9-C ) :   1.0308
B(  9-C , 10-H ) :   0.9598 B(  9-C , 11-H ) :   0.9693 B(  9-C , 12-C ) :   1.0693
B( 12-C , 13-H ) :   0.9735 B( 12-C , 14-H ) :   0.9806 B( 12-C , 15-H ) :   0.9789
B( 16-S , 17-C ) :   1.1552 B( 16-S , 20-C ) :   1.1461 B( 17-C , 18-C ) :   1.5936
B( 17-C , 33-H ) :   0.9821 B( 18-C , 19-C ) :   1.2320 B( 18-C , 21-H ) :   0.9945
B( 19-C , 20-C ) :   1.6109 B( 19-C , 22-C ) :   1.0697 B( 22-C , 23-H ) :   0.9324
B( 22-C , 24-H ) :   0.9341 B( 22-C , 25-C ) :   1.0269 B( 25-C , 26-H ) :   0.9607
B( 25-C , 27-H ) :   0.9550 B( 25-C , 28-C ) :   1.0902 B( 28-C , 29-H ) :   0.9657
B( 28-C , 30-H ) :   0.9740 B( 28-C , 31-H ) :   0.9716

Dispersion correction           -0.014443868
FINAL SINGLE POINT ENERGY     -1339.851142279271

DIPOLE MOMENT
-------------
                                X             Y             Z
Electronic contribution:     27.01428      -1.56135       4.87176
Nuclear contribution   :    -27.65582       1.71086      -5.35513
                        -----------------------------------------
Total Dipole Moment    :     -0.64154       0.14951      -0.48336
                        -----------------------------------------
Magnitude (a.u.)       :      0.81704
Magnitude (Debye)      :      2.07676

Rotational constants in cm-1:     0.018827     0.008451     0.006596
Rotational constants in MHz :   564.423618   253.349051   197.745162

                             ****ORCA TERMINATED NORMALLY****
TOTAL RUN TIME: 0 days 0 hours 0 minutes 33 seconds 738 msec
