                         Program Version 4.2.1 -  RELEASE  -
|  1> ! wB97X-D3 SP def2-SVP
|  2> %pal
|  3> nprocs 16
|  4> end
|  5>
|  6> * xyz 0 1
|  7> S 	 -2.40565 	 -18.4251 	 81.4582
|  8> C 	 -2.16954 	 -18.8082 	 83.122
|  9> C 	 -3.13334 	 -18.2282 	 83.9264
| 10> C 	 -4.02721 	 -17.3361 	 83.1767
| 11> C 	 -3.76179 	 -17.3287 	 81.7979
| 12> H 	 -4.80286 	 -16.6047 	 83.4826
| 13> C 	 -3.08512 	 -18.1475 	 85.4182
| 14> H 	 -3.11147 	 -17.0851 	 85.7307
| 15> H 	 -2.20516 	 -18.6485 	 85.5863
| 16> C 	 -4.08317 	 -18.9013 	 86.3226
| 17> H 	 -5.14175 	 -18.6715 	 86.2337
| 18> H 	 -3.98396 	 -19.9174 	 86.023
| 19> C 	 -3.7869 	 -18.8714 	 87.8072
| 20> H 	 -2.82724 	 -19.167 	 88.0552
| 21> H 	 -3.98113 	 -17.8458 	 88.1953
| 22> H 	 -4.59717 	 -19.3693 	 88.3633
| 23> S 	 -5.87747 	 -16.5189 	 80.2467
| 24> C 	 -5.54321 	 -15.3092 	 78.9927
| 25> C 	 -4.29121 	 -14.7462 	 79.1449
| 26> C 	 -3.55646 	 -15.2657 	 80.1962
| 27> C 	 -4.2084 	 -16.3391 	 80.813
| 28> H 	 -3.87636 	 -14.0888 	 78.3448
| 29> C 	 -2.17155 	 -14.8604 	 80.4186
| 30> H 	 -1.79307 	 -15.4861 	 81.2654
| 31> H 	 -2.12698 	 -13.8706 	 80.9774
| 32> C 	 -1.23896 	 -14.8572 	 79.231
| 33> H 	 -0.257991 	 -14.7979 	 79.6385
| 34> H 	 -1.3768 	 -13.951 	 78.644
| 35> C 	 -1.30963 	 -16.0716 	 78.3209
| 36> H 	 -0.505162 	 -16.1751 	 77.556
| 37> H 	 -2.29199 	 -16.2933 	 77.919
| 38> H 	 -1.09549 	 -16.9956 	 78.9209
| 39> H 	 -1.36377 	 -19.443 	 83.3963
| 40> H 	 -6.30108 	 -15.052 	 78.2469
| 41> *
| 42>
| 43>                          ****END OF INPUT****

CARTESIAN COORDINATES (ANGSTROEM)
---------------------------------
  S     -2.405650  -18.425100   81.458200
  C     -2.169540  -18.808200   83.122000
  C     -3.133340  -18.228200   83.926400
  C     -4.027210  -17.336100   83.176700
  C     -3.761790  -17.328700   81.797900
  H     -4.802860  -16.604700   83.482600
  C     -3.085120  -18.147500   85.418200
  H     -3.111470  -17.085100   85.730700
  H     -2.205160  -18.648500   85.586300
  C     -4.083170  -18.901300   86.322600
  H     -5.141750  -18.671500   86.233700
  H     -3.983960  -19.917400   86.023000
  C     -3.786900  -18.871400   87.807200
  H     -2.827240  -19.167000   88.055200
  H     -3.981130  -17.845800   88.195300
  H     -4.597170  -19.369300   88.363300
  S     -5.877470  -16.518900   80.246700
  C     -5.543210  -15.309200   78.992700
  C     -4.291210  -14.746200   79.144900
  C     -3.556460  -15.265700   80.196200
  C     -4.208400  -16.339100   80.813000
  H     -3.876360  -14.088800   78.344800
  C     -2.171550  -14.860400   80.418600
  H     -1.793070  -15.486100   81.265400
  H     -2.126980  -13.870600   80.977400
  C     -1.238960  -14.857200   79.231000
  H     -0.257991  -14.797900   79.638500
  H     -1.376800  -13.951000   78.644000
  C     -1.309630  -16.071600   78.320900
  H     -0.505162  -16.175100   77.556000
  H     -2.291990  -16.293300   77.919000
  H     -1.095490  -16.995600   78.920900
  H     -1.363770  -19.443000   83.396300
  H     -6.301080  -15.052000   78.246900

 Total Charge           Charge          ....    0
 Multiplicity           Mult            ....    1
 Number of Electrons    NEL             ....  134
 Basis Dimension        Dim             ....  322

ORBITAL ENERGIES
----------------

  NO   OCC          E(Eh)            E(eV)
   0   2.0000     -88.965217     -2420.8666
   1   2.0000     -88.964817     -2420.8557
   2   2.0000     -10.330496      -281.1071
   3   2.0000     -10.327381      -281.0223
   4   2.0000     -10.320326      -280.8303
   5   2.0000     -10.316451      -280.7249
   6   2.0000     -10.307394      -280.4784
   7   2.0000     -10.302392      -280.3423
   8   2.0000     -10.297581      -280.2114
   9   2.0000     -10.292689      -280.0783
  10   2.0000     -10.288926      -279.9759
  11   2.0000     -10.286423      -279.9078
  12   2.0000     -10.282438      -279.7994
  13   2.0000     -10.279858      -279.7292
  14   2.0000     -10.275511      -279.6109
  15   2.0000     -10.274816      -279.5919
  16   2.0000      -8.079434      -219.8526
  17   2.0000      -8.079353      -219.8504
  18   2.0000      -6.037796      -164.2968
  19   2.0000      -6.037789      -164.2966
  20   2.0000      -6.034073      -164.1955
  21   2.0000      -6.033797      -164.1880
  22   2.0000      -6.030328      -164.0936
  23   2.0000      -6.030273      -164.0921
  24   2.0000      -1.003551       -27.3080
  25   2.0000      -0.983477       -26.7618
  26   2.0000      -0.914331       -24.8802
  27   2.0000      -0.913336       -24.8531
  28   2.0000      -0.870527       -23.6882
  29   2.0000      -0.851369       -23.1669
  30   2.0000      -0.847875       -23.0719
  31   2.0000      -0.814013       -22.1504
  32   2.0000      -0.783742       -21.3267
  33   2.0000      -0.770043       -20.9539
  34   2.0000      -0.708014       -19.2660
  35   2.0000      -0.700669       -19.0662
  36   2.0000      -0.691663       -18.8211
  37   2.0000      -0.662005       -18.0141
  38   2.0000      -0.646814       -17.6007
  39   2.0000      -0.612308       -16.6618
  40   2.0000      -0.598462       -16.2850
  41   2.0000      -0.574788       -15.6408
  42   2.0000      -0.564613       -15.3639
  43   2.0000      -0.550204       -14.9718
  44   2.0000      -0.542574       -14.7642
  45   2.0000      -0.529652       -14.4126
  46   2.0000      -0.519391       -14.1333
  47   2.0000      -0.507623       -13.8131
  48   2.0000      -0.504665       -13.7326
  49   2.0000      -0.499971       -13.6049
  50   2.0000      -0.486945       -13.2504
  51   2.0000      -0.478361       -13.0169
  52   2.0000      -0.472406       -12.8548
  53   2.0000      -0.459221       -12.4961
  54   2.0000      -0.458038       -12.4639
  55   2.0000      -0.449127       -12.2214
  56   2.0000      -0.445854       -12.1323
  57   2.0000      -0.436922       -11.8892
  58   2.0000      -0.429403       -11.6846
  59   2.0000      -0.423932       -11.5358
  60   2.0000      -0.420234       -11.4351
  61   2.0000      -0.412083       -11.2133
  62   2.0000      -0.404009       -10.9936
  63   2.0000      -0.337965        -9.1965
  64   2.0000      -0.334427        -9.1002
  65   2.0000      -0.320366        -8.7176
  66   2.0000      -0.299792        -8.1577
  67   0.0000       0.034666         0.9433
  68   0.0000       0.058050         1.5796
  69   0.0000       0.105913         2.8820
  70   0.0000       0.116443         3.1686
  71   0.0000       0.124140         3.3780

MULLIKEN ATOMIC CHARGES
-----------------------
   0 S :    0.107019
   1 C :   -0.121305
   2 C :   -0.067504
   3 C :    0.038387
   4 C :   -0.176524
   5 H :    0.032869
   6 C :    0.096863
   7 H :    0.038990
   8 H :   -0.015217
   9 C :   -0.061070
  10 H :    0.023450
  11 H :    0.012077
  12 C :   -0.032662
  13 H :    0.022085
  14 H :    0.017600
  15 H :    0.033478
  16 S :    0.102498
  17 C :   -0.108992
  18 C :   -0.045928
  19 C :   -0.006086
  20 C :   -0.198598
  21 H :    0.042137
  22 C :    0.039813
  23 H :    0.023402
  24 H :    0.042360
  25 C :   -0.033443
  26 H :    0.022494
  27 H :    0.027914
  28 C :   -0.064432
  29 H :    0.038834
  30 H :    0.039434
  31 H :    0.018021
  32 H :    0.047418
  33 H :    0.064617
Sum of atomic charges:   -0.0000000

LOEWDIN ATOMIC CHARGES
----------------------
   0 S :    0.410815
   1 C :   -0.195376
   2 C :   -0.063238
   3 C :   -0.056090
   4 C :   -0.198767
   5 H :    0.040578
   6 C :   -0.028581
   7 H :    0.036495
   8 H :    0.020331
   9 C :   -0.040415
  10 H :    0.022082
  11 H :    0.018381
  12 C :   -0.060204
  13 H :    0.011694
  14 H :    0.026320
  15 H :    0.033762
  16 S :    0.390288
  17 C :   -0.174207
  18 C :   -0.075965
  19 C :   -0.061371
  20 C :   -0.196505
  21 H :    0.042488
  22 C :   -0.045803
  23 H :    0.032260
  24 H :    0.045077
  25 C :   -0.040480
  26 H :    0.027828
  27 H :    0.021164
  28 C :   -0.077084
  29 H :    0.031108
  30 H :    0.024280
  31 H :    0.025704
  32 H :    0.023508
  33 H :    0.029922

  Mayer bond orders larger than 0.100000
B(  0-S ,  1-C ) :   1.1505 B(  0-S ,  4-C ) :   1.1409 B(  1-C ,  2-C ) :   1.6047
B(  1-C , 32-H ) :   0.9714 B(  2-C ,  3-C ) :   1.2020 B(  2-C ,  6-C ) :   1.0402
B(  3-C ,  4-C ) :   1.6134 B(  3-C ,  5-H ) :   0.9834 B(  4-C , 20-C ) :   1.0061
B(  6-C ,  7-H ) :   0.9444 B(  6-C ,  8-H ) :   0.9280 B(  6-C ,  9-C ) :   1.0595
B(  9-C , 10-H ) :   0.9560 B(  9-C , 11-H ) :   0.9515 B(  9-C , 12-C ) :   1.0986
B( 12-C , 13-H ) :   0.9763 B( 12-C , 14-H ) :   0.9706 B( 12-C , 15-H ) :   0.9701
B( 16-S , 17-C ) :   1.1567 B( 16-S , 20-C ) :   1.1496 B( 17-C , 18-C ) :   1.5965
B( 17-C , 20-C ) :   0.1103 B( 17-C , 33-H ) :   0.9675 B( 18-C , 19-C ) :   1.2486
B( 18-C , 21-H ) :   0.9814 B( 19-C , 20-C ) :   1.5688 B( 19-C , 22-C ) :   1.0703
B( 22-C , 23-H ) :   0.9232 B( 22-C , 24-H ) :   0.9206 B( 22-C , 25-C ) :   1.0690
B( 25-C , 26-H ) :   0.9476 B( 25-C , 27-H ) :   0.9485 B( 25-C , 28-C ) :   1.0848
B( 28-C , 29-H ) :   0.9728 B( 28-C , 30-H ) :   0.9694 B( 28-C , 31-H ) :   0.9673

Dispersion correction           -0.014873767
FINAL SINGLE POINT ENERGY     -1339.864744234699

DIPOLE MOMENT
-------------
                                X             Y             Z
Electronic contribution:    -10.23665      -1.65044     -13.38730
Nuclear contribution   :     10.56460       1.90537      13.66442
                        -----------------------------------------
Total Dipole Moment    :      0.32795       0.25493       0.27712
                        -----------------------------------------
Magnitude (a.u.)       :      0.49933
Magnitude (Debye)      :      1.26920

Rotational constants in cm-1:     0.024257     0.007266     0.006317
Rotational constants in MHz :   727.211819   217.821093   189.386204

                             ****ORCA TERMINATED NORMALLY****
TOTAL RUN TIME: 0 days 0 hours 0 minutes 33 seconds 854 msec
