                         Program Version 4.2.1 -  RELEASE  -
|  1> ! wB97X-D3 SP def2-SVP
|  2> %pal
|  3> nprocs 16
|  4> end
|  5>
|  6> * xyz 0 1
|  7> S 	 -54.9224 	 36.7248 	 84.2856
|  8> C 	 -55.9526 	 38.0971 	 84.2967
|  9> C 	 -56.1314 	 38.514 	 85.6029
| 10> C 	 -55.3937 	 37.7543 	 86.5528
| 11> C 	 -54.8193 	 36.6368 	 85.9819
| 12> H 	 -55.403 	 38.0315 	 87.5993
| 13> C 	 -56.9403 	 39.8033 	 85.938
| 14> H 	 -57.9595 	 39.7168 	 86.0963
| 15> H 	 -56.9386 	 40.2839 	 84.9917
| 16> C 	 -56.2965 	 40.7093 	 86.9568
| 17> H 	 -55.2503 	 40.6125 	 87.0017
| 18> H 	 -56.4653 	 41.7934 	 86.7063
| 19> C 	 -56.988 	 40.524 	 88.3235
| 20> H 	 -57.2132 	 39.4992 	 88.6933
| 21> H 	 -56.4685 	 41.0214 	 89.1581
| 22> H 	 -57.9225 	 41.0973 	 88.3232
| 23> S 	 -52.357 	 35.5069 	 86.1171
| 24> C 	 -51.8669 	 34.4933 	 87.4775
| 25> C 	 -52.9262 	 34.3062 	 88.2998
| 26> C 	 -54.2034 	 34.8683 	 87.9153
| 27> C 	 -54.0181 	 35.633 	 86.7118
| 28> H 	 -52.7728 	 33.6806 	 89.2274
| 29> C 	 -55.4417 	 34.9245 	 88.8683
| 30> H 	 -55.6271 	 33.9449 	 89.2015
| 31> H 	 -56.2846 	 35.337 	 88.3212
| 32> C 	 -55.1893 	 35.7721 	 90.1469
| 33> H 	 -54.5973 	 36.6627 	 89.8033
| 34> H 	 -54.3339 	 35.3971 	 90.7006
| 35> C 	 -56.4138 	 36.1882 	 91.0511
| 36> H 	 -56.145 	 36.4888 	 92.0604
| 37> H 	 -57.112 	 35.3769 	 91.061
| 38> H 	 -56.8689 	 36.9842 	 90.4788
| 39> H 	 -56.3488 	 38.6898 	 83.4543
| 40> H 	 -50.8541 	 34.0293 	 87.6225
| 41> *
| 42>
| 43>                          ****END OF INPUT****

CARTESIAN COORDINATES (ANGSTROEM)
---------------------------------
  S    -54.922400   36.724800   84.285600
  C    -55.952600   38.097100   84.296700
  C    -56.131400   38.514000   85.602900
  C    -55.393700   37.754300   86.552800
  C    -54.819300   36.636800   85.981900
  H    -55.403000   38.031500   87.599300
  C    -56.940300   39.803300   85.938000
  H    -57.959500   39.716800   86.096300
  H    -56.938600   40.283900   84.991700
  C    -56.296500   40.709300   86.956800
  H    -55.250300   40.612500   87.001700
  H    -56.465300   41.793400   86.706300
  C    -56.988000   40.524000   88.323500
  H    -57.213200   39.499200   88.693300
  H    -56.468500   41.021400   89.158100
  H    -57.922500   41.097300   88.323200
  S    -52.357000   35.506900   86.117100
  C    -51.866900   34.493300   87.477500
  C    -52.926200   34.306200   88.299800
  C    -54.203400   34.868300   87.915300
  C    -54.018100   35.633000   86.711800
  H    -52.772800   33.680600   89.227400
  C    -55.441700   34.924500   88.868300
  H    -55.627100   33.944900   89.201500
  H    -56.284600   35.337000   88.321200
  C    -55.189300   35.772100   90.146900
  H    -54.597300   36.662700   89.803300
  H    -54.333900   35.397100   90.700600
  C    -56.413800   36.188200   91.051100
  H    -56.145000   36.488800   92.060400
  H    -57.112000   35.376900   91.061000
  H    -56.868900   36.984200   90.478800
  H    -56.348800   38.689800   83.454300
  H    -50.854100   34.029300   87.622500

 Total Charge           Charge          ....    0
 Multiplicity           Mult            ....    1
 Number of Electrons    NEL             ....  134
 Basis Dimension        Dim             ....  322

ORBITAL ENERGIES
----------------

  NO   OCC          E(Eh)            E(eV)
   0   2.0000     -88.968364     -2420.9523
   1   2.0000     -88.963889     -2420.8305
   2   2.0000     -10.336859      -281.2802
   3   2.0000     -10.329006      -281.0666
   4   2.0000     -10.320123      -280.8248
   5   2.0000     -10.315881      -280.7094
   6   2.0000     -10.312669      -280.6220
   7   2.0000     -10.299624      -280.2670
   8   2.0000     -10.298222      -280.2289
   9   2.0000     -10.296283      -280.1761
  10   2.0000     -10.292208      -280.0652
  11   2.0000     -10.289840      -280.0008
  12   2.0000     -10.287413      -279.9347
  13   2.0000     -10.283463      -279.8273
  14   2.0000     -10.283090      -279.8171
  15   2.0000     -10.282081      -279.7896
  16   2.0000      -8.084237      -219.9833
  17   2.0000      -8.078250      -219.8203
  18   2.0000      -6.042666      -164.4293
  19   2.0000      -6.038444      -164.3144
  20   2.0000      -6.036852      -164.2711
  21   2.0000      -6.035146      -164.2247
  22   2.0000      -6.032738      -164.1591
  23   2.0000      -6.028984      -164.0570
  24   2.0000      -1.012089       -27.5404
  25   2.0000      -0.982671       -26.7398
  26   2.0000      -0.915196       -24.9038
  27   2.0000      -0.900965       -24.5165
  28   2.0000      -0.869782       -23.6680
  29   2.0000      -0.847532       -23.0625
  30   2.0000      -0.841117       -22.8879
  31   2.0000      -0.816898       -22.2289
  32   2.0000      -0.785158       -21.3652
  33   2.0000      -0.773953       -21.0603
  34   2.0000      -0.710783       -19.3414
  35   2.0000      -0.701794       -19.0968
  36   2.0000      -0.692461       -18.8428
  37   2.0000      -0.653113       -17.7721
  38   2.0000      -0.637251       -17.3405
  39   2.0000      -0.628265       -17.0960
  40   2.0000      -0.594374       -16.1737
  41   2.0000      -0.572173       -15.5696
  42   2.0000      -0.558313       -15.1925
  43   2.0000      -0.545692       -14.8490
  44   2.0000      -0.535941       -14.5837
  45   2.0000      -0.527917       -14.3654
  46   2.0000      -0.516325       -14.0499
  47   2.0000      -0.510654       -13.8956
  48   2.0000      -0.506074       -13.7710
  49   2.0000      -0.500288       -13.6135
  50   2.0000      -0.491495       -13.3743
  51   2.0000      -0.484411       -13.1815
  52   2.0000      -0.471350       -12.8261
  53   2.0000      -0.469323       -12.7709
  54   2.0000      -0.458626       -12.4798
  55   2.0000      -0.448825       -12.2131
  56   2.0000      -0.445191       -12.1143
  57   2.0000      -0.441591       -12.0163
  58   2.0000      -0.438759       -11.9392
  59   2.0000      -0.423815       -11.5326
  60   2.0000      -0.417059       -11.3488
  61   2.0000      -0.413415       -11.2496
  62   2.0000      -0.403971       -10.9926
  63   2.0000      -0.347366        -9.4523
  64   2.0000      -0.330831        -9.0024
  65   2.0000      -0.327491        -8.9115
  66   2.0000      -0.296530        -8.0690
  67   0.0000       0.030091         0.8188
  68   0.0000       0.073216         1.9923
  69   0.0000       0.111773         3.0415
  70   0.0000       0.119909         3.2629
  71   0.0000       0.128106         3.4860

MULLIKEN ATOMIC CHARGES
-----------------------
   0 S :    0.129258
   1 C :   -0.125981
   2 C :   -0.121780
   3 C :    0.034102
   4 C :   -0.132996
   5 H :    0.009872
   6 C :    0.137879
   7 H :    0.018191
   8 H :   -0.008488
   9 C :   -0.075783
  10 H :    0.029527
  11 H :    0.037044
  12 C :   -0.093130
  13 H :    0.042469
  14 H :    0.028053
  15 H :    0.030486
  16 S :    0.090996
  17 C :   -0.106046
  18 C :   -0.069935
  19 C :   -0.045061
  20 C :   -0.161284
  21 H :    0.040878
  22 C :    0.125009
  23 H :    0.018218
  24 H :    0.030520
  25 C :   -0.137295
  26 H :    0.023789
  27 H :    0.012527
  28 C :   -0.007627
  29 H :    0.046549
  30 H :    0.027890
  31 H :    0.034074
  32 H :    0.059258
  33 H :    0.078819
Sum of atomic charges:    0.0000000

LOEWDIN ATOMIC CHARGES
----------------------
   0 S :    0.446651
   1 C :   -0.220562
   2 C :   -0.059270
   3 C :   -0.064152
   4 C :   -0.217411
   5 H :    0.031475
   6 C :   -0.024777
   7 H :    0.022699
   8 H :    0.026796
   9 C :   -0.039250
  10 H :    0.018233
  11 H :    0.035577
  12 C :   -0.077942
  13 H :    0.023346
  14 H :    0.025640
  15 H :    0.026892
  16 S :    0.390254
  17 C :   -0.195185
  18 C :   -0.083591
  19 C :   -0.052644
  20 C :   -0.182971
  21 H :    0.039404
  22 C :   -0.019081
  23 H :    0.023675
  24 H :    0.030868
  25 C :   -0.056195
  26 H :    0.024568
  27 H :    0.018501
  28 C :   -0.056518
  29 H :    0.031090
  30 H :    0.022489
  31 H :    0.027101
  32 H :    0.038730
  33 H :    0.045562

  Mayer bond orders larger than 0.100000
B(  0-S ,  1-C ) :   1.1502 B(  0-S ,  4-C ) :   1.1833 B(  1-C ,  2-C ) :   1.5973
B(  1-C , 32-H ) :   0.9620 B(  2-C ,  3-C ) :   1.2879 B(  2-C ,  6-C ) :   1.0050
B(  3-C ,  4-C ) :   1.5170 B(  3-C ,  5-H ) :   0.9973 B(  4-C , 20-C ) :   1.0146
B(  6-C ,  7-H ) :   0.9377 B(  6-C ,  8-H ) :   0.9299 B(  6-C ,  9-C ) :   1.0663
B(  9-C , 10-H ) :   0.9654 B(  9-C , 11-H ) :   0.9568 B(  9-C , 12-C ) :   1.0635
B( 12-C , 13-H ) :   0.9784 B( 12-C , 14-H ) :   0.9732 B( 12-C , 15-H ) :   0.9745
B( 16-S , 17-C ) :   1.1293 B( 16-S , 20-C ) :   1.1628 B( 17-C , 18-C ) :   1.6426
B( 17-C , 33-H ) :   0.9614 B( 18-C , 19-C ) :   1.2258 B( 18-C , 21-H ) :   0.9733
B( 19-C , 20-C ) :   1.5781 B( 19-C , 22-C ) :   1.0570 B( 22-C , 23-H ) :   0.9251
B( 22-C , 24-H ) :   0.9410 B( 22-C , 25-C ) :   1.0501 B( 25-C , 26-H ) :   0.9567
B( 25-C , 27-H ) :   0.9526 B( 25-C , 28-C ) :   1.0552 B( 28-C , 29-H ) :   0.9757
B( 28-C , 30-H ) :   0.9780 B( 28-C , 31-H ) :   0.9785

Dispersion correction           -0.014543531
FINAL SINGLE POINT ENERGY     -1339.862222765828

DIPOLE MOMENT
-------------
                                X             Y             Z
Electronic contribution:     16.26255     -14.28173     -23.68251
Nuclear contribution   :    -16.53521      14.68865      24.23854
                        -----------------------------------------
Total Dipole Moment    :     -0.27266       0.40692       0.55603
                        -----------------------------------------
Magnitude (a.u.)       :      0.74101
Magnitude (Debye)      :      1.88349

Rotational constants in cm-1:     0.015523     0.010505     0.007001
Rotational constants in MHz :   465.371698   314.946332   209.874715

                             ****ORCA TERMINATED NORMALLY****
TOTAL RUN TIME: 0 days 0 hours 0 minutes 30 seconds 191 msec
