                         Program Version 4.2.1 -  RELEASE  -
|  1> ! wB97X-D3 SP def2-SVP
|  2> %pal
|  3> nprocs 16
|  4> end
|  5>
|  6> * xyz 0 1
|  7> S 	 -2.00906 	 -15.3038 	 87.6104
|  8> C 	 -1.38006 	 -16.9101 	 87.9812
|  9> C 	 -2.20585 	 -17.8836 	 87.4934
| 10> C 	 -3.25678 	 -17.3927 	 86.6451
| 11> C 	 -3.20582 	 -16.0217 	 86.5386
| 12> H 	 -3.99694 	 -17.9298 	 86.2341
| 13> C 	 -2.03527 	 -19.3364 	 87.8656
| 14> H 	 -2.92 	 -19.5275 	 88.5037
| 15> H 	 -1.22562 	 -19.4259 	 88.6135
| 16> C 	 -1.91123 	 -20.3642 	 86.7783
| 17> H 	 -2.6356 	 -20.178 	 85.9401
| 18> H 	 -0.903018 	 -20.3993 	 86.3876
| 19> C 	 -2.33691 	 -21.7706 	 87.225
| 20> H 	 -3.35792 	 -21.9174 	 87.4441
| 21> H 	 -2.05423 	 -22.3746 	 86.406
| 22> H 	 -1.70773 	 -22.1755 	 88.0671
| 23> S 	 -4.00928 	 -15.4941 	 84.0436
| 24> C 	 -5.30789 	 -14.3889 	 83.821
| 25> C 	 -5.86383 	 -13.9671 	 85.0137
| 26> C 	 -5.1765 	 -14.4785 	 86.1433
| 27> C 	 -4.19483 	 -15.3331 	 85.7602
| 28> H 	 -6.77563 	 -13.3852 	 84.9106
| 29> C 	 -5.51775 	 -14.0717 	 87.5463
| 30> H 	 -6.1248 	 -13.1512 	 87.5457
| 31> H 	 -4.62654 	 -13.7721 	 88.0861
| 32> C 	 -6.34324 	 -15.0999 	 88.3657
| 33> H 	 -5.84466 	 -16.0937 	 88.4653
| 34> H 	 -7.24296 	 -15.3102 	 87.7983
| 35> C 	 -6.74581 	 -14.4946 	 89.7144
| 36> H 	 -5.90857 	 -14.1548 	 90.2955
| 37> H 	 -7.26359 	 -15.2905 	 90.2735
| 38> H 	 -7.41889 	 -13.6043 	 89.6559
| 39> H 	 -0.626143 	 -17.0452 	 88.783
| 40> H 	 -5.72236 	 -14.1415 	 82.7875
| 41> *
| 42>
| 43>                          ****END OF INPUT****

CARTESIAN COORDINATES (ANGSTROEM)
---------------------------------
  S     -2.009060  -15.303800   87.610400
  C     -1.380060  -16.910100   87.981200
  C     -2.205850  -17.883600   87.493400
  C     -3.256780  -17.392700   86.645100
  C     -3.205820  -16.021700   86.538600
  H     -3.996940  -17.929800   86.234100
  C     -2.035270  -19.336400   87.865600
  H     -2.920000  -19.527500   88.503700
  H     -1.225620  -19.425900   88.613500
  C     -1.911230  -20.364200   86.778300
  H     -2.635600  -20.178000   85.940100
  H     -0.903018  -20.399300   86.387600
  C     -2.336910  -21.770600   87.225000
  H     -3.357920  -21.917400   87.444100
  H     -2.054230  -22.374600   86.406000
  H     -1.707730  -22.175500   88.067100
  S     -4.009280  -15.494100   84.043600
  C     -5.307890  -14.388900   83.821000
  C     -5.863830  -13.967100   85.013700
  C     -5.176500  -14.478500   86.143300
  C     -4.194830  -15.333100   85.760200
  H     -6.775630  -13.385200   84.910600
  C     -5.517750  -14.071700   87.546300
  H     -6.124800  -13.151200   87.545700
  H     -4.626540  -13.772100   88.086100
  C     -6.343240  -15.099900   88.365700
  H     -5.844660  -16.093700   88.465300
  H     -7.242960  -15.310200   87.798300
  C     -6.745810  -14.494600   89.714400
  H     -5.908570  -14.154800   90.295500
  H     -7.263590  -15.290500   90.273500
  H     -7.418890  -13.604300   89.655900
  H     -0.626143  -17.045200   88.783000
  H     -5.722360  -14.141500   82.787500

 Total Charge           Charge          ....    0
 Multiplicity           Mult            ....    1
 Number of Electrons    NEL             ....  134
 Basis Dimension        Dim             ....  322

ORBITAL ENERGIES
----------------

  NO   OCC          E(Eh)            E(eV)
   0   2.0000     -88.964302     -2420.8417
   1   2.0000     -88.964202     -2420.8390
   2   2.0000     -10.324062      -280.9320
   3   2.0000     -10.316237      -280.7191
   4   2.0000     -10.314672      -280.6765
   5   2.0000     -10.312062      -280.6055
   6   2.0000     -10.298025      -280.2235
   7   2.0000     -10.297060      -280.1972
   8   2.0000     -10.290645      -280.0227
   9   2.0000     -10.290275      -280.0126
  10   2.0000     -10.288695      -279.9696
  11   2.0000     -10.288287      -279.9585
  12   2.0000     -10.286480      -279.9093
  13   2.0000     -10.284445      -279.8540
  14   2.0000     -10.278311      -279.6871
  15   2.0000     -10.273876      -279.5664
  16   2.0000      -8.079951      -219.8666
  17   2.0000      -8.078539      -219.8282
  18   2.0000      -6.038250      -164.3091
  19   2.0000      -6.037091      -164.2776
  20   2.0000      -6.034367      -164.2035
  21   2.0000      -6.033255      -164.1732
  22   2.0000      -6.030813      -164.1068
  23   2.0000      -6.029169      -164.0620
  24   2.0000      -1.012109       -27.5409
  25   2.0000      -0.985265       -26.8104
  26   2.0000      -0.913132       -24.8476
  27   2.0000      -0.907175       -24.6855
  28   2.0000      -0.873075       -23.7576
  29   2.0000      -0.854248       -23.2453
  30   2.0000      -0.848907       -23.0999
  31   2.0000      -0.813888       -22.1470
  32   2.0000      -0.781843       -21.2750
  33   2.0000      -0.768835       -20.9211
  34   2.0000      -0.706928       -19.2365
  35   2.0000      -0.697602       -18.9827
  36   2.0000      -0.688916       -18.7464
  37   2.0000      -0.662142       -18.0178
  38   2.0000      -0.646430       -17.5902
  39   2.0000      -0.619422       -16.8553
  40   2.0000      -0.596829       -16.2405
  41   2.0000      -0.568848       -15.4791
  42   2.0000      -0.562260       -15.2999
  43   2.0000      -0.554521       -15.0893
  44   2.0000      -0.529928       -14.4201
  45   2.0000      -0.522196       -14.2097
  46   2.0000      -0.513633       -13.9767
  47   2.0000      -0.511490       -13.9184
  48   2.0000      -0.507198       -13.8016
  49   2.0000      -0.501910       -13.6577
  50   2.0000      -0.490728       -13.3534
  51   2.0000      -0.476043       -12.9538
  52   2.0000      -0.469343       -12.7715
  53   2.0000      -0.464540       -12.6408
  54   2.0000      -0.456545       -12.4232
  55   2.0000      -0.450753       -12.2656
  56   2.0000      -0.448264       -12.1979
  57   2.0000      -0.440369       -11.9830
  58   2.0000      -0.434512       -11.8237
  59   2.0000      -0.425777       -11.5860
  60   2.0000      -0.418266       -11.3816
  61   2.0000      -0.416457       -11.3324
  62   2.0000      -0.410907       -11.1814
  63   2.0000      -0.336301        -9.1512
  64   2.0000      -0.333888        -9.0856
  65   2.0000      -0.325709        -8.8630
  66   2.0000      -0.299076        -8.1383
  67   0.0000       0.040239         1.0950
  68   0.0000       0.067664         1.8412
  69   0.0000       0.107624         2.9286
  70   0.0000       0.119005         3.2383
  71   0.0000       0.135060         3.6752

MULLIKEN ATOMIC CHARGES
-----------------------
   0 S :    0.103552
   1 C :   -0.144325
   2 C :   -0.056366
   3 C :    0.052103
   4 C :   -0.118537
   5 H :   -0.032326
   6 C :    0.073309
   7 H :    0.030225
   8 H :    0.011072
   9 C :   -0.080418
  10 H :    0.037432
  11 H :    0.036533
  12 C :   -0.045359
  13 H :    0.032709
  14 H :    0.020647
  15 H :    0.029190
  16 S :    0.129838
  17 C :   -0.126808
  18 C :   -0.051744
  19 C :    0.016045
  20 C :   -0.216004
  21 H :    0.020271
  22 C :    0.072392
  23 H :    0.011842
  24 H :    0.018882
  25 C :   -0.073854
  26 H :    0.042192
  27 H :    0.021303
  28 C :   -0.049761
  29 H :    0.028073
  30 H :    0.037584
  31 H :    0.033992
  32 H :    0.060795
  33 H :    0.075520
Sum of atomic charges:    0.0000000

LOEWDIN ATOMIC CHARGES
----------------------
   0 S :    0.388678
   1 C :   -0.202051
   2 C :   -0.058490
   3 C :   -0.046532
   4 C :   -0.184780
   5 H :    0.010268
   6 C :   -0.040447
   7 H :    0.036771
   8 H :    0.029929
   9 C :   -0.041013
  10 H :    0.031257
  11 H :    0.027302
  12 C :   -0.061686
  13 H :    0.018166
  14 H :    0.022764
  15 H :    0.027260
  16 S :    0.430908
  17 C :   -0.205996
  18 C :   -0.074324
  19 C :   -0.058514
  20 C :   -0.203534
  21 H :    0.034176
  22 C :   -0.033398
  23 H :    0.031816
  24 H :    0.024069
  25 C :   -0.038116
  26 H :    0.029140
  27 H :    0.022320
  28 C :   -0.069046
  29 H :    0.021403
  30 H :    0.029685
  31 H :    0.028255
  32 H :    0.033510
  33 H :    0.040251

  Mayer bond orders larger than 0.100000
B(  0-S ,  1-C ) :   1.1142 B(  0-S ,  4-C ) :   1.1404 B(  1-C ,  2-C ) :   1.6407
B(  1-C , 32-H ) :   0.9613 B(  2-C ,  3-C ) :   1.2036 B(  2-C ,  6-C ) :   1.0258
B(  3-C ,  4-C ) :   1.5664 B(  3-C ,  5-H ) :   1.0182 B(  4-C , 20-C ) :   1.0377
B(  6-C ,  7-H ) :   0.9369 B(  6-C ,  8-H ) :   0.9342 B(  6-C ,  9-C ) :   1.0591
B(  9-C , 10-H ) :   0.9584 B(  9-C , 11-H ) :   0.9548 B(  9-C , 12-C ) :   1.0826
B( 12-C , 13-H ) :   0.9775 B( 12-C , 14-H ) :   0.9731 B( 12-C , 15-H ) :   0.9735
B( 16-S , 17-C ) :   1.1623 B( 16-S , 20-C ) :   1.1560 B( 17-C , 18-C ) :   1.6183
B( 17-C , 33-H ) :   0.9560 B( 18-C , 19-C ) :   1.2192 B( 18-C , 21-H ) :   0.9932
B( 19-C , 20-C ) :   1.6048 B( 19-C , 22-C ) :   1.0489 B( 22-C , 23-H ) :   0.9326
B( 22-C , 24-H ) :   0.9275 B( 22-C , 25-C ) :   1.0627 B( 25-C , 26-H ) :   0.9564
B( 25-C , 27-H ) :   0.9517 B( 25-C , 28-C ) :   1.0830 B( 28-C , 29-H ) :   0.9747
B( 28-C , 30-H ) :   0.9732 B( 28-C , 31-H ) :   0.9732

Dispersion correction           -0.014216118
FINAL SINGLE POINT ENERGY     -1339.883710969527

DIPOLE MOMENT
-------------
                                X             Y             Z
Electronic contribution:      8.14620      15.25137     -14.63256
Nuclear contribution   :     -8.53625     -15.60250      14.89344
                        -----------------------------------------
Total Dipole Moment    :     -0.39005      -0.35113       0.26088
                        -----------------------------------------
Magnitude (a.u.)       :      0.58608
Magnitude (Debye)      :      1.48971

Rotational constants in cm-1:     0.017607     0.008349     0.007174
Rotational constants in MHz :   527.844324   250.286364   215.058390

                             ****ORCA TERMINATED NORMALLY****
TOTAL RUN TIME: 0 days 0 hours 0 minutes 33 seconds 957 msec
