                         Program Version 4.2.1 -  RELEASE  -
|  1> ! wB97X-D3 SP def2-SVP
|  2> %pal
|  3> nprocs 16
|  4> end
|  5>
|  6> * xyz 0 1
|  7> S 	 43.8479 	 5.35686 	 86.7418
|  8> C 	 44.3917 	 4.77799 	 88.2941
|  9> C 	 43.4452 	 5.15592 	 89.244
| 10> C 	 42.3862 	 6.00453 	 88.7666
| 11> C 	 42.4219 	 6.21551 	 87.4273
| 12> H 	 41.6048 	 6.47076 	 89.2993
| 13> C 	 43.5824 	 4.90123 	 90.719
| 14> H 	 43.3972 	 5.86451 	 91.1493
| 15> H 	 44.6248 	 4.68441 	 90.9439
| 16> C 	 42.6518 	 3.90747 	 91.4708
| 17> H 	 42.8754 	 3.79102 	 92.5153
| 18> H 	 41.648 	 4.38823 	 91.3538
| 19> C 	 42.6169 	 2.52683 	 90.8996
| 20> H 	 41.6342 	 2.04708 	 91.1044
| 21> H 	 42.9415 	 2.42426 	 89.8471
| 22> H 	 43.4091 	 1.96566 	 91.4035
| 23> S 	 42.0924 	 7.60171 	 85.0451
| 24> C 	 40.5458 	 8.37663 	 84.6374
| 25> C 	 39.6129 	 7.97698 	 85.5382
| 26> C 	 40.1274 	 7.2812 	 86.6471
| 27> C 	 41.5158 	 7.00655 	 86.5505
| 28> H 	 38.6475 	 8.41733 	 85.5347
| 29> C 	 39.2058 	 6.95139 	 87.8415
| 30> H 	 38.9992 	 7.88941 	 88.3013
| 31> H 	 39.5747 	 6.29965 	 88.6273
| 32> C 	 37.9777 	 6.22514 	 87.5506
| 33> H 	 37.2308 	 6.96016 	 87.1771
| 34> H 	 37.4285 	 6.0477 	 88.4622
| 35> C 	 38.1891 	 4.90497 	 86.766
| 36> H 	 38.7812 	 4.22673 	 87.3556
| 37> H 	 38.7247 	 5.09121 	 85.7935
| 38> H 	 37.2782 	 4.43485 	 86.4255
| 39> H 	 45.2539 	 4.15243 	 88.4044
| 40> H 	 40.2648 	 8.88696 	 83.7309
| 41> *
| 42>
| 43>                          ****END OF INPUT****

CARTESIAN COORDINATES (ANGSTROEM)
---------------------------------
  S     43.847900    5.356860   86.741800
  C     44.391700    4.777990   88.294100
  C     43.445200    5.155920   89.244000
  C     42.386200    6.004530   88.766600
  C     42.421900    6.215510   87.427300
  H     41.604800    6.470760   89.299300
  C     43.582400    4.901230   90.719000
  H     43.397200    5.864510   91.149300
  H     44.624800    4.684410   90.943900
  C     42.651800    3.907470   91.470800
  H     42.875400    3.791020   92.515300
  H     41.648000    4.388230   91.353800
  C     42.616900    2.526830   90.899600
  H     41.634200    2.047080   91.104400
  H     42.941500    2.424260   89.847100
  H     43.409100    1.965660   91.403500
  S     42.092400    7.601710   85.045100
  C     40.545800    8.376630   84.637400
  C     39.612900    7.976980   85.538200
  C     40.127400    7.281200   86.647100
  C     41.515800    7.006550   86.550500
  H     38.647500    8.417330   85.534700
  C     39.205800    6.951390   87.841500
  H     38.999200    7.889410   88.301300
  H     39.574700    6.299650   88.627300
  C     37.977700    6.225140   87.550600
  H     37.230800    6.960160   87.177100
  H     37.428500    6.047700   88.462200
  C     38.189100    4.904970   86.766000
  H     38.781200    4.226730   87.355600
  H     38.724700    5.091210   85.793500
  H     37.278200    4.434850   86.425500
  H     45.253900    4.152430   88.404400
  H     40.264800    8.886960   83.730900

 Total Charge           Charge          ....    0
 Multiplicity           Mult            ....    1
 Number of Electrons    NEL             ....  134
 Basis Dimension        Dim             ....  322

ORBITAL ENERGIES
----------------

  NO   OCC          E(Eh)            E(eV)
   0   2.0000     -88.967975     -2420.9417
   1   2.0000     -88.962284     -2420.7868
   2   2.0000     -10.336738      -281.2770
   3   2.0000     -10.334409      -281.2136
   4   2.0000     -10.319506      -280.8080
   5   2.0000     -10.317786      -280.7612
   6   2.0000     -10.307313      -280.4762
   7   2.0000     -10.305268      -280.4206
   8   2.0000     -10.291050      -280.0337
   9   2.0000     -10.289804      -279.9998
  10   2.0000     -10.286669      -279.9145
  11   2.0000     -10.286033      -279.8972
  12   2.0000     -10.285871      -279.8928
  13   2.0000     -10.283106      -279.8175
  14   2.0000     -10.277875      -279.6752
  15   2.0000     -10.274021      -279.5703
  16   2.0000      -8.082675      -219.9408
  17   2.0000      -8.076667      -219.7773
  18   2.0000      -6.041206      -164.3896
  19   2.0000      -6.037072      -164.2771
  20   2.0000      -6.035332      -164.2297
  21   2.0000      -6.033510      -164.1801
  22   2.0000      -6.031175      -164.1166
  23   2.0000      -6.027326      -164.0119
  24   2.0000      -1.007764       -27.4226
  25   2.0000      -0.986381       -26.8408
  26   2.0000      -0.920697       -25.0534
  27   2.0000      -0.909801       -24.7570
  28   2.0000      -0.873721       -23.7752
  29   2.0000      -0.851582       -23.1727
  30   2.0000      -0.842451       -22.9243
  31   2.0000      -0.821543       -22.3553
  32   2.0000      -0.786221       -21.3942
  33   2.0000      -0.773215       -21.0403
  34   2.0000      -0.709951       -19.3187
  35   2.0000      -0.696411       -18.9503
  36   2.0000      -0.692890       -18.8545
  37   2.0000      -0.659682       -17.9509
  38   2.0000      -0.646830       -17.6012
  39   2.0000      -0.624093       -16.9824
  40   2.0000      -0.601231       -16.3603
  41   2.0000      -0.569847       -15.5063
  42   2.0000      -0.567104       -15.4317
  43   2.0000      -0.549847       -14.9621
  44   2.0000      -0.549047       -14.9403
  45   2.0000      -0.538369       -14.6498
  46   2.0000      -0.523708       -14.2508
  47   2.0000      -0.510663       -13.8959
  48   2.0000      -0.507728       -13.8160
  49   2.0000      -0.499936       -13.6039
  50   2.0000      -0.492233       -13.3943
  51   2.0000      -0.480389       -13.0721
  52   2.0000      -0.475799       -12.9472
  53   2.0000      -0.468934       -12.7604
  54   2.0000      -0.457803       -12.4575
  55   2.0000      -0.446178       -12.1411
  56   2.0000      -0.442292       -12.0354
  57   2.0000      -0.440189       -11.9781
  58   2.0000      -0.429226       -11.6798
  59   2.0000      -0.421632       -11.4732
  60   2.0000      -0.410634       -11.1739
  61   2.0000      -0.408403       -11.1132
  62   2.0000      -0.399286       -10.8651
  63   2.0000      -0.363906        -9.9024
  64   2.0000      -0.336535        -9.1576
  65   2.0000      -0.324842        -8.8394
  66   2.0000      -0.288296        -7.8449
  67   0.0000       0.021183         0.5764
  68   0.0000       0.080245         2.1836
  69   0.0000       0.105924         2.8823
  70   0.0000       0.117596         3.1999
  71   0.0000       0.131624         3.5817

MULLIKEN ATOMIC CHARGES
-----------------------
   0 S :    0.078692
   1 C :   -0.108834
   2 C :   -0.077272
   3 C :    0.008949
   4 C :   -0.097281
   5 H :    0.000484
   6 C :    0.058959
   7 H :    0.021593
   8 H :    0.012805
   9 C :   -0.059387
  10 H :    0.034811
  11 H :    0.022742
  12 C :   -0.067850
  13 H :    0.045467
  14 H :    0.039608
  15 H :    0.018348
  16 S :    0.098682
  17 C :   -0.079931
  18 C :   -0.018650
  19 C :   -0.062343
  20 C :   -0.132607
  21 H :    0.015387
  22 C :    0.062443
  23 H :    0.029558
  24 H :    0.020725
  25 C :   -0.080225
  26 H :    0.007725
  27 H :    0.015045
  28 C :   -0.032482
  29 H :    0.033363
  30 H :    0.048415
  31 H :    0.031710
  32 H :    0.052582
  33 H :    0.058768
Sum of atomic charges:    0.0000000

LOEWDIN ATOMIC CHARGES
----------------------
   0 S :    0.374858
   1 C :   -0.191193
   2 C :   -0.060060
   3 C :   -0.065884
   4 C :   -0.159393
   5 H :    0.025392
   6 C :   -0.034460
   7 H :    0.030554
   8 H :    0.024633
   9 C :   -0.043086
  10 H :    0.026034
  11 H :    0.022893
  12 C :   -0.076374
  13 H :    0.032294
  14 H :    0.028127
  15 H :    0.023856
  16 S :    0.413003
  17 C :   -0.173174
  18 C :   -0.069715
  19 C :   -0.055093
  20 C :   -0.206363
  21 H :    0.029652
  22 C :   -0.036647
  23 H :    0.031334
  24 H :    0.030299
  25 C :   -0.053038
  26 H :    0.019071
  27 H :    0.024128
  28 C :   -0.061144
  29 H :    0.025482
  30 H :    0.035714
  31 H :    0.025486
  32 H :    0.029199
  33 H :    0.033613

  Mayer bond orders larger than 0.100000
B(  0-S ,  1-C ) :   1.1277 B(  0-S ,  4-C ) :   1.1324 B(  1-C ,  2-C ) :   1.5967
B(  1-C , 32-H ) :   0.9778 B(  2-C ,  3-C ) :   1.2033 B(  2-C ,  6-C ) :   1.0279
B(  3-C ,  4-C ) :   1.6094 B(  3-C ,  5-H ) :   1.0000 B(  4-C , 20-C ) :   1.0537
B(  6-C ,  7-H ) :   0.9394 B(  6-C ,  8-H ) :   0.9466 B(  6-C ,  9-C ) :   1.0693
B(  9-C , 10-H ) :   0.9587 B(  9-C , 11-H ) :   0.9589 B(  9-C , 12-C ) :   1.0713
B( 12-C , 13-H ) :   0.9745 B( 12-C , 14-H ) :   0.9765 B( 12-C , 15-H ) :   0.9755
B( 16-S , 17-C ) :   1.1502 B( 16-S , 20-C ) :   1.1542 B( 17-C , 18-C ) :   1.6026
B( 17-C , 20-C ) :   0.1006 B( 17-C , 33-H ) :   0.9663 B( 18-C , 19-C ) :   1.2833
B( 18-C , 21-H ) :   0.9856 B( 19-C , 20-C ) :   1.5512 B( 19-C , 22-C ) :   1.0205
B( 22-C , 23-H ) :   0.9311 B( 22-C , 24-H ) :   0.9422 B( 22-C , 25-C ) :   1.0934
B( 25-C , 26-H ) :   0.9421 B( 25-C , 27-H ) :   0.9495 B( 25-C , 28-C ) :   1.0624
B( 28-C , 29-H ) :   0.9744 B( 28-C , 30-H ) :   0.9715 B( 28-C , 31-H ) :   0.9744

Dispersion correction           -0.014523976
FINAL SINGLE POINT ENERGY     -1339.866229943176

DIPOLE MOMENT
-------------
                                X             Y             Z
Electronic contribution:     15.04283      12.80531     -20.08847
Nuclear contribution   :    -15.57837     -12.79928      20.60389
                        -----------------------------------------
Total Dipole Moment    :     -0.53554       0.00603       0.51542
                        -----------------------------------------
Magnitude (a.u.)       :      0.74330
Magnitude (Debye)      :      1.88932

Rotational constants in cm-1:     0.019644     0.009054     0.006865
Rotational constants in MHz :   588.904355   271.425239   205.806296

                             ****ORCA TERMINATED NORMALLY****
TOTAL RUN TIME: 0 days 0 hours 0 minutes 30 seconds 406 msec
