                         Program Version 4.2.1 -  RELEASE  -
|  1> ! wB97X-D3 SP def2-SVP
|  2> %pal
|  3> nprocs 16
|  4> end
|  5>
|  6> * xyz 0 1
|  7> S 	 -11.6833 	 55.6278 	 58.9001
|  8> C 	 -12.1934 	 53.9849 	 58.9918
|  9> C 	 -12.6766 	 53.5015 	 60.2095
| 10> C 	 -12.766 	 54.5697 	 61.1087
| 11> C 	 -12.4248 	 55.807 	 60.5252
| 12> H 	 -13.2144 	 54.5938 	 62.0803
| 13> C 	 -12.9747 	 51.9693 	 60.4323
| 14> H 	 -12.7436 	 51.6544 	 61.4311
| 15> H 	 -12.5019 	 51.4019 	 59.6185
| 16> C 	 -14.4476 	 51.5768 	 60.3816
| 17> H 	 -14.9794 	 51.8476 	 61.2537
| 18> H 	 -14.9534 	 52.0963 	 59.6014
| 19> C 	 -14.6833 	 50.1434 	 60.0661
| 20> H 	 -15.6359 	 49.7899 	 60.4489
| 21> H 	 -14.5778 	 49.9519 	 58.9733
| 22> H 	 -13.9654 	 49.554 	 60.6213
| 23> S 	 -10.9986 	 58.0099 	 61.0799
| 24> C 	 -11.6737 	 59.2619 	 61.9859
| 25> C 	 -12.7859 	 58.8728 	 62.6874
| 26> C 	 -13.2634 	 57.6142 	 62.1918
| 27> C 	 -12.4746 	 57.0754 	 61.2026
| 28> H 	 -13.1946 	 59.5212 	 63.3858
| 29> C 	 -14.5102 	 57.0002 	 62.7748
| 30> H 	 -14.117 	 56.2196 	 63.4236
| 31> H 	 -15.0506 	 56.4726 	 61.9205
| 32> C 	 -15.5267 	 57.8965 	 63.5242
| 33> H 	 -15.7777 	 58.7427 	 62.8884
| 34> H 	 -15.1241 	 58.265 	 64.4949
| 35> C 	 -16.8793 	 57.2172 	 63.8679
| 36> H 	 -16.8569 	 56.5159 	 64.7547
| 37> H 	 -17.3891 	 56.8014 	 62.9872
| 38> H 	 -17.5182 	 57.9501 	 64.3133
| 39> H 	 -12.0474 	 53.2123 	 58.1865
| 40> H 	 -11.0568 	 60.0662 	 62.3324
| 41> *
| 42>
| 43>                          ****END OF INPUT****

CARTESIAN COORDINATES (ANGSTROEM)
---------------------------------
  S    -11.683300   55.627800   58.900100
  C    -12.193400   53.984900   58.991800
  C    -12.676600   53.501500   60.209500
  C    -12.766000   54.569700   61.108700
  C    -12.424800   55.807000   60.525200
  H    -13.214400   54.593800   62.080300
  C    -12.974700   51.969300   60.432300
  H    -12.743600   51.654400   61.431100
  H    -12.501900   51.401900   59.618500
  C    -14.447600   51.576800   60.381600
  H    -14.979400   51.847600   61.253700
  H    -14.953400   52.096300   59.601400
  C    -14.683300   50.143400   60.066100
  H    -15.635900   49.789900   60.448900
  H    -14.577800   49.951900   58.973300
  H    -13.965400   49.554000   60.621300
  S    -10.998600   58.009900   61.079900
  C    -11.673700   59.261900   61.985900
  C    -12.785900   58.872800   62.687400
  C    -13.263400   57.614200   62.191800
  C    -12.474600   57.075400   61.202600
  H    -13.194600   59.521200   63.385800
  C    -14.510200   57.000200   62.774800
  H    -14.117000   56.219600   63.423600
  H    -15.050600   56.472600   61.920500
  C    -15.526700   57.896500   63.524200
  H    -15.777700   58.742700   62.888400
  H    -15.124100   58.265000   64.494900
  C    -16.879300   57.217200   63.867900
  H    -16.856900   56.515900   64.754700
  H    -17.389100   56.801400   62.987200
  H    -17.518200   57.950100   64.313300
  H    -12.047400   53.212300   58.186500
  H    -11.056800   60.066200   62.332400

 Total Charge           Charge          ....    0
 Multiplicity           Mult            ....    1
 Number of Electrons    NEL             ....  134
 Basis Dimension        Dim             ....  322

ORBITAL ENERGIES
----------------

  NO   OCC          E(Eh)            E(eV)
   0   2.0000     -88.974419     -2421.1170
   1   2.0000     -88.958554     -2420.6853
   2   2.0000     -10.330503      -281.1073
   3   2.0000     -10.318591      -280.7831
   4   2.0000     -10.314602      -280.6746
   5   2.0000     -10.304965      -280.4124
   6   2.0000     -10.303599      -280.3752
   7   2.0000     -10.301399      -280.3153
   8   2.0000     -10.298238      -280.2293
   9   2.0000     -10.296185      -280.1734
  10   2.0000     -10.295105      -280.1441
  11   2.0000     -10.294966      -280.1403
  12   2.0000     -10.285771      -279.8901
  13   2.0000     -10.284021      -279.8424
  14   2.0000     -10.276218      -279.6301
  15   2.0000     -10.271877      -279.5120
  16   2.0000      -8.088486      -220.0989
  17   2.0000      -8.075069      -219.7338
  18   2.0000      -6.046785      -164.5414
  19   2.0000      -6.043411      -164.4496
  20   2.0000      -6.039179      -164.3344
  21   2.0000      -6.033370      -164.1763
  22   2.0000      -6.029532      -164.0719
  23   2.0000      -6.025732      -163.9685
  24   2.0000      -1.011192       -27.5159
  25   2.0000      -0.986222       -26.8365
  26   2.0000      -0.917149       -24.9569
  27   2.0000      -0.906821       -24.6759
  28   2.0000      -0.872480       -23.7414
  29   2.0000      -0.859213       -23.3804
  30   2.0000      -0.849184       -23.1075
  31   2.0000      -0.812284       -22.1034
  32   2.0000      -0.784243       -21.3403
  33   2.0000      -0.770376       -20.9630
  34   2.0000      -0.709072       -19.2948
  35   2.0000      -0.697859       -18.9897
  36   2.0000      -0.691410       -18.8142
  37   2.0000      -0.658777       -17.9262
  38   2.0000      -0.635716       -17.2987
  39   2.0000      -0.620612       -16.8877
  40   2.0000      -0.595222       -16.1968
  41   2.0000      -0.584697       -15.9104
  42   2.0000      -0.571769       -15.5586
  43   2.0000      -0.563639       -15.3374
  44   2.0000      -0.525787       -14.3074
  45   2.0000      -0.521116       -14.1803
  46   2.0000      -0.516289       -14.0489
  47   2.0000      -0.512552       -13.9472
  48   2.0000      -0.504568       -13.7300
  49   2.0000      -0.487180       -13.2568
  50   2.0000      -0.485677       -13.2159
  51   2.0000      -0.481501       -13.1023
  52   2.0000      -0.472572       -12.8593
  53   2.0000      -0.468903       -12.7595
  54   2.0000      -0.460877       -12.5411
  55   2.0000      -0.455077       -12.3833
  56   2.0000      -0.448582       -12.2065
  57   2.0000      -0.435474       -11.8498
  58   2.0000      -0.432743       -11.7755
  59   2.0000      -0.429004       -11.6738
  60   2.0000      -0.422298       -11.4913
  61   2.0000      -0.417020       -11.3477
  62   2.0000      -0.414495       -11.2790
  63   2.0000      -0.352362        -9.5882
  64   2.0000      -0.337541        -9.1850
  65   2.0000      -0.326482        -8.8840
  66   2.0000      -0.279285        -7.5997
  67   0.0000       0.023261         0.6330
  68   0.0000       0.070896         1.9292
  69   0.0000       0.099683         2.7125
  70   0.0000       0.128085         3.4854
  71   0.0000       0.129909         3.5350

MULLIKEN ATOMIC CHARGES
-----------------------
   0 S :    0.136813
   1 C :   -0.123886
   2 C :   -0.071481
   3 C :    0.024655
   4 C :   -0.174303
   5 H :   -0.003002
   6 C :    0.091762
   7 H :    0.026035
   8 H :    0.023873
   9 C :   -0.060366
  10 H :    0.013781
  11 H :    0.013743
  12 C :   -0.046684
  13 H :    0.028924
  14 H :    0.043021
  15 H :    0.014637
  16 S :    0.087434
  17 C :   -0.058125
  18 C :   -0.038893
  19 C :   -0.055211
  20 C :   -0.121490
  21 H :   -0.003420
  22 C :    0.019391
  23 H :    0.048396
  24 H :    0.045458
  25 C :   -0.085814
  26 H :    0.038821
  27 H :    0.035741
  28 C :   -0.050667
  29 H :    0.033882
  30 H :    0.043853
  31 H :    0.021591
  32 H :    0.051726
  33 H :    0.049806
Sum of atomic charges:   -0.0000000

LOEWDIN ATOMIC CHARGES
----------------------
   0 S :    0.407424
   1 C :   -0.211013
   2 C :   -0.062428
   3 C :   -0.053543
   4 C :   -0.182857
   5 H :    0.027675
   6 C :   -0.018225
   7 H :    0.031096
   8 H :    0.032439
   9 C :   -0.047305
  10 H :    0.016001
  11 H :    0.018984
  12 C :   -0.062208
  13 H :    0.027419
  14 H :    0.030126
  15 H :    0.019128
  16 S :    0.421626
  17 C :   -0.198223
  18 C :   -0.065301
  19 C :   -0.057677
  20 C :   -0.200871
  21 H :    0.020912
  22 C :   -0.043052
  23 H :    0.031645
  24 H :    0.040982
  25 C :   -0.043243
  26 H :    0.027184
  27 H :    0.027427
  28 C :   -0.070979
  29 H :    0.030505
  30 H :    0.027244
  31 H :    0.024202
  32 H :    0.031454
  33 H :    0.023450

  Mayer bond orders larger than 0.100000
B(  0-S ,  1-C ) :   1.1495 B(  0-S ,  4-C ) :   1.1370 B(  1-C ,  2-C ) :   1.6130
B(  1-C ,  4-C ) :   0.1020 B(  1-C , 32-H ) :   0.9499 B(  2-C ,  3-C ) :   1.2602
B(  2-C ,  6-C ) :   1.0245 B(  3-C ,  4-C ) :   1.5529 B(  3-C ,  5-H ) :   0.9910
B(  4-C , 20-C ) :   1.0779 B(  6-C ,  7-H ) :   0.9380 B(  6-C ,  8-H ) :   0.9442
B(  6-C ,  9-C ) :   1.0569 B(  9-C , 10-H ) :   0.9551 B(  9-C , 11-H ) :   0.9540
B(  9-C , 12-C ) :   1.0929 B( 12-C , 13-H ) :   0.9714 B( 12-C , 14-H ) :   0.9760
B( 12-C , 15-H ) :   0.9709 B( 16-S , 17-C ) :   1.1775 B( 16-S , 20-C ) :   1.1395
B( 17-C , 18-C ) :   1.5962 B( 17-C , 33-H ) :   0.9605 B( 18-C , 19-C ) :   1.2377
B( 18-C , 21-H ) :   1.0057 B( 19-C , 20-C ) :   1.6037 B( 19-C , 22-C ) :   1.0336
B( 22-C , 23-H ) :   0.9202 B( 22-C , 24-H ) :   0.9398 B( 22-C , 25-C ) :   1.0763
B( 25-C , 26-H ) :   0.9575 B( 25-C , 27-H ) :   0.9430 B( 25-C , 28-C ) :   1.0932
B( 28-C , 29-H ) :   0.9731 B( 28-C , 30-H ) :   0.9740 B( 28-C , 31-H ) :   0.9699

Dispersion correction           -0.013157341
FINAL SINGLE POINT ENERGY     -1339.858253858816

DIPOLE MOMENT
-------------
                                X             Y             Z
Electronic contribution:     24.14194      17.52055     -11.86014
Nuclear contribution   :    -24.61288     -17.83329      12.41721
                        -----------------------------------------
Total Dipole Moment    :     -0.47094      -0.31274       0.55708
                        -----------------------------------------
Magnitude (a.u.)       :      0.79368
Magnitude (Debye)      :      2.01737

Rotational constants in cm-1:     0.016718     0.008451     0.005870
Rotational constants in MHz :   501.196306   253.361188   175.987631

                             ****ORCA TERMINATED NORMALLY****
TOTAL RUN TIME: 0 days 0 hours 0 minutes 32 seconds 607 msec
