                         Program Version 4.2.1 -  RELEASE  -
|  1> ! wB97X-D3 SP def2-SVP
|  2> %pal
|  3> nprocs 16
|  4> end
|  5>
|  6> * xyz 0 1
|  7> S 	 -0.712396 	 -26.577 	 86.1885
|  8> C 	 -1.75671 	 -27.6676 	 85.2071
|  9> C 	 -1.33772 	 -28.9465 	 85.318
| 10> C 	 -0.393601 	 -29.0976 	 86.3476
| 11> C 	 -0.00475332 	 -27.9511 	 86.9505
| 12> H 	 0.0406485 	 -29.979 	 86.7237
| 13> C 	 -2.0338 	 -30.0576 	 84.6877
| 14> H 	 -3.10284 	 -29.8495 	 84.7148
| 15> H 	 -1.9021 	 -30.9783 	 85.2832
| 16> C 	 -1.69623 	 -30.3864 	 83.2663
| 17> H 	 -2.21734 	 -31.2634 	 82.9716
| 18> H 	 -2.28614 	 -29.7035 	 82.6029
| 19> C 	 -0.269694 	 -30.6288 	 82.9821
| 20> H 	 0.102305 	 -31.5157 	 83.448
| 21> H 	 -0.0357193 	 -30.7855 	 81.8937
| 22> H 	 0.307878 	 -29.7598 	 83.3479
| 23> S 	 2.77268 	 -27.9796 	 87.1822
| 24> C 	 3.42413 	 -28.1647 	 88.7701
| 25> C 	 2.44535 	 -27.9732 	 89.7051
| 26> C 	 1.1307 	 -27.8291 	 89.199
| 27> C 	 1.12531 	 -27.8127 	 87.8502
| 28> H 	 2.81978 	 -28.1412 	 90.7661
| 29> C 	 -0.15329 	 -27.5323 	 89.9906
| 30> H 	 -0.172159 	 -28.1478 	 90.8911
| 31> H 	 -0.996219 	 -27.995 	 89.5201
| 32> C 	 -0.417351 	 -26.1164 	 90.5188
| 33> H 	 -0.460286 	 -25.3749 	 89.6191
| 34> H 	 0.516293 	 -25.7782 	 90.9483
| 35> C 	 -1.59199 	 -25.8141 	 91.4903
| 36> H 	 -1.44234 	 -26.1855 	 92.5677
| 37> H 	 -2.6153 	 -26.0755 	 91.1539
| 38> H 	 -1.63613 	 -24.6906 	 91.552
| 39> H 	 -2.51234 	 -27.3945 	 84.5104
| 40> H 	 4.55141 	 -28.2041 	 89.0499
| 41> *
| 42>
| 43>                          ****END OF INPUT****

CARTESIAN COORDINATES (ANGSTROEM)
---------------------------------
  S     -0.712396  -26.577000   86.188500
  C     -1.756710  -27.667600   85.207100
  C     -1.337720  -28.946500   85.318000
  C     -0.393601  -29.097600   86.347600
  C     -0.004753  -27.951100   86.950500
  H      0.040648  -29.979000   86.723700
  C     -2.033800  -30.057600   84.687700
  H     -3.102840  -29.849500   84.714800
  H     -1.902100  -30.978300   85.283200
  C     -1.696230  -30.386400   83.266300
  H     -2.217340  -31.263400   82.971600
  H     -2.286140  -29.703500   82.602900
  C     -0.269694  -30.628800   82.982100
  H      0.102305  -31.515700   83.448000
  H     -0.035719  -30.785500   81.893700
  H      0.307878  -29.759800   83.347900
  S      2.772680  -27.979600   87.182200
  C      3.424130  -28.164700   88.770100
  C      2.445350  -27.973200   89.705100
  C      1.130700  -27.829100   89.199000
  C      1.125310  -27.812700   87.850200
  H      2.819780  -28.141200   90.766100
  C     -0.153290  -27.532300   89.990600
  H     -0.172159  -28.147800   90.891100
  H     -0.996219  -27.995000   89.520100
  C     -0.417351  -26.116400   90.518800
  H     -0.460286  -25.374900   89.619100
  H      0.516293  -25.778200   90.948300
  C     -1.591990  -25.814100   91.490300
  H     -1.442340  -26.185500   92.567700
  H     -2.615300  -26.075500   91.153900
  H     -1.636130  -24.690600   91.552000
  H     -2.512340  -27.394500   84.510400
  H      4.551410  -28.204100   89.049900

 Total Charge           Charge          ....    0
 Multiplicity           Mult            ....    1
 Number of Electrons    NEL             ....  134
 Basis Dimension        Dim             ....  322

ORBITAL ENERGIES
----------------

  NO   OCC          E(Eh)            E(eV)
   0   2.0000     -88.963519     -2420.8204
   1   2.0000     -88.963427     -2420.8179
   2   2.0000     -10.321956      -280.8747
   3   2.0000     -10.321272      -280.8561
   4   2.0000     -10.319458      -280.8067
   5   2.0000     -10.310240      -280.5559
   6   2.0000     -10.303574      -280.3745
   7   2.0000     -10.295634      -280.1584
   8   2.0000     -10.293913      -280.1116
   9   2.0000     -10.292784      -280.0809
  10   2.0000     -10.290693      -280.0240
  11   2.0000     -10.288508      -279.9645
  12   2.0000     -10.284533      -279.8564
  13   2.0000     -10.283430      -279.8264
  14   2.0000     -10.277861      -279.6748
  15   2.0000     -10.273879      -279.5665
  16   2.0000      -8.078319      -219.8222
  17   2.0000      -8.078032      -219.8144
  18   2.0000      -6.036818      -164.2702
  19   2.0000      -6.036537      -164.2625
  20   2.0000      -6.032834      -164.1618
  21   2.0000      -6.032623      -164.1560
  22   2.0000      -6.029033      -164.0583
  23   2.0000      -6.028745      -164.0505
  24   2.0000      -1.013080       -27.5673
  25   2.0000      -0.990534       -26.9538
  26   2.0000      -0.925217       -25.1764
  27   2.0000      -0.901157       -24.5217
  28   2.0000      -0.873603       -23.7719
  29   2.0000      -0.849280       -23.1101
  30   2.0000      -0.846107       -23.0237
  31   2.0000      -0.816447       -22.2167
  32   2.0000      -0.786961       -21.4143
  33   2.0000      -0.776590       -21.1321
  34   2.0000      -0.705984       -19.2108
  35   2.0000      -0.704444       -19.1689
  36   2.0000      -0.693554       -18.8726
  37   2.0000      -0.652505       -17.7556
  38   2.0000      -0.642158       -17.4740
  39   2.0000      -0.613532       -16.6951
  40   2.0000      -0.594757       -16.1842
  41   2.0000      -0.575985       -15.6734
  42   2.0000      -0.560103       -15.2412
  43   2.0000      -0.548238       -14.9183
  44   2.0000      -0.543877       -14.7997
  45   2.0000      -0.521897       -14.2016
  46   2.0000      -0.513175       -13.9642
  47   2.0000      -0.508819       -13.8457
  48   2.0000      -0.504982       -13.7412
  49   2.0000      -0.498972       -13.5777
  50   2.0000      -0.492234       -13.3944
  51   2.0000      -0.481245       -13.0953
  52   2.0000      -0.470392       -12.8000
  53   2.0000      -0.462856       -12.5950
  54   2.0000      -0.457878       -12.4595
  55   2.0000      -0.447464       -12.1761
  56   2.0000      -0.441552       -12.0152
  57   2.0000      -0.433542       -11.7973
  58   2.0000      -0.431356       -11.7378
  59   2.0000      -0.427575       -11.6349
  60   2.0000      -0.423738       -11.5305
  61   2.0000      -0.401688       -10.9305
  62   2.0000      -0.398925       -10.8553
  63   2.0000      -0.337944        -9.1959
  64   2.0000      -0.330503        -8.9934
  65   2.0000      -0.320336        -8.7168
  66   2.0000      -0.317617        -8.6428
  67   0.0000       0.043138         1.1738
  68   0.0000       0.055446         1.5088
  69   0.0000       0.114837         3.1249
  70   0.0000       0.115760         3.1500
  71   0.0000       0.124752         3.3947

MULLIKEN ATOMIC CHARGES
-----------------------
   0 S :    0.102201
   1 C :   -0.107709
   2 C :   -0.043290
   3 C :    0.041328
   4 C :   -0.168154
   5 H :   -0.011527
   6 C :    0.041528
   7 H :    0.027903
   8 H :    0.021844
   9 C :   -0.045254
  10 H :    0.005193
  11 H :    0.015466
  12 C :   -0.046121
  13 H :    0.022072
  14 H :    0.038761
  15 H :    0.047460
  16 S :    0.114189
  17 C :   -0.136366
  18 C :   -0.064633
  19 C :   -0.012460
  20 C :   -0.169231
  21 H :    0.040734
  22 C :    0.114346
  23 H :    0.000419
  24 H :    0.020167
  25 C :   -0.075570
  26 H :    0.029273
  27 H :    0.019057
  28 C :   -0.079165
  29 H :    0.049542
  30 H :    0.043508
  31 H :    0.041177
  32 H :    0.031359
  33 H :    0.091955
Sum of atomic charges:   -0.0000000

LOEWDIN ATOMIC CHARGES
----------------------
   0 S :    0.395861
   1 C :   -0.166752
   2 C :   -0.070266
   3 C :   -0.052949
   4 C :   -0.201303
   5 H :    0.025302
   6 C :   -0.034105
   7 H :    0.036915
   8 H :    0.031855
   9 C :   -0.052155
  10 H :    0.020651
  11 H :    0.025143
  12 C :   -0.066857
  13 H :    0.022319
  14 H :    0.034332
  15 H :    0.030014
  16 S :    0.397023
  17 C :   -0.207694
  18 C :   -0.089470
  19 C :   -0.053212
  20 C :   -0.187770
  21 H :    0.042994
  22 C :   -0.036111
  23 H :    0.028964
  24 H :    0.028295
  25 C :   -0.049564
  26 H :    0.029619
  27 H :    0.023222
  28 C :   -0.078455
  29 H :    0.033009
  30 H :    0.027487
  31 H :    0.036675
  32 H :    0.022857
  33 H :    0.054126

  Mayer bond orders larger than 0.100000
B(  0-S ,  1-C ) :   1.1281 B(  0-S ,  4-C ) :   1.1421 B(  1-C ,  2-C ) :   1.6251
B(  1-C , 32-H ) :   0.9714 B(  2-C ,  3-C ) :   1.2011 B(  2-C ,  6-C ) :   1.0215
B(  3-C ,  4-C ) :   1.6143 B(  3-C ,  5-H ) :   1.0138 B(  4-C , 20-C ) :   0.9959
B(  6-C ,  7-H ) :   0.9389 B(  6-C ,  8-H ) :   0.9426 B(  6-C ,  9-C ) :   1.0922
B(  9-C , 10-H ) :   0.9422 B(  9-C , 11-H ) :   0.9490 B(  9-C , 12-C ) :   1.0786
B( 12-C , 13-H ) :   0.9705 B( 12-C , 14-H ) :   0.9700 B( 12-C , 15-H ) :   0.9732
B( 16-S , 17-C ) :   1.1549 B( 16-S , 20-C ) :   1.1338 B( 17-C , 18-C ) :   1.6425
B( 17-C , 33-H ) :   0.9496 B( 18-C , 19-C ) :   1.2210 B( 18-C , 21-H ) :   0.9793
B( 19-C , 20-C ) :   1.6390 B( 19-C , 22-C ) :   1.0503 B( 22-C , 23-H ) :   0.9204
B( 22-C , 24-H ) :   0.9215 B( 22-C , 25-C ) :   1.0589 B( 25-C , 26-H ) :   0.9515
B( 25-C , 27-H ) :   0.9508 B( 25-C , 28-C ) :   1.0758 B( 28-C , 29-H ) :   0.9728
B( 28-C , 30-H ) :   0.9762 B( 28-C , 31-H ) :   0.9718

Dispersion correction           -0.014432199
FINAL SINGLE POINT ENERGY     -1339.860867690623

DIPOLE MOMENT
-------------
                                X             Y             Z
Electronic contribution:     12.64599       6.34911      -2.58507
Nuclear contribution   :    -12.87408      -6.74914       2.76000
                        -----------------------------------------
Total Dipole Moment    :     -0.22809      -0.40003       0.17493
                        -----------------------------------------
Magnitude (a.u.)       :      0.49259
Magnitude (Debye)      :      1.25207

Rotational constants in cm-1:     0.020162     0.008400     0.006708
Rotational constants in MHz :   604.440910   251.829055   201.104313

                             ****ORCA TERMINATED NORMALLY****
TOTAL RUN TIME: 0 days 0 hours 0 minutes 31 seconds 910 msec
