                         Program Version 4.2.1 -  RELEASE  -
|  1> ! wB97X-D3 SP def2-SVP
|  2> %pal
|  3> nprocs 16
|  4> end
|  5>
|  6> * xyz 0 1
|  7> S 	 5.69981 	 12.694 	 86.5307
|  8> C 	 5.05359 	 12.7157 	 84.9171
|  9> C 	 5.75359 	 13.6573 	 84.1516
| 10> C 	 6.76737 	 14.3588 	 84.8335
| 11> C 	 6.87132 	 13.9638 	 86.1462
| 12> H 	 7.42012 	 15.1151 	 84.419
| 13> C 	 5.39123 	 13.9448 	 82.691
| 14> H 	 5.56172 	 12.9059 	 82.3016
| 15> H 	 6.10276 	 14.6774 	 82.2268
| 16> C 	 3.88605 	 14.4177 	 82.4527
| 17> H 	 3.18765 	 13.6945 	 82.8458
| 18> H 	 3.7012 	 15.3387 	 82.9013
| 19> C 	 3.6577 	 14.6522 	 80.9921
| 20> H 	 2.89335 	 15.4334 	 80.7524
| 21> H 	 4.45738 	 15.2104 	 80.4309
| 22> H 	 3.62133 	 13.6988 	 80.4766
| 23> S 	 8.35055 	 13.2074 	 88.315
| 24> C 	 9.11921 	 14.4138 	 89.2769
| 25> C 	 9.18539 	 15.585 	 88.5798
| 26> C 	 8.48113 	 15.5937 	 87.3824
| 27> C 	 7.77533 	 14.4275 	 87.1942
| 28> H 	 9.84332 	 16.3667 	 88.9864
| 29> C 	 8.62929 	 16.8636 	 86.4455
| 30> H 	 8.4934 	 16.5298 	 85.4193
| 31> H 	 9.59707 	 17.2792 	 86.506
| 32> C 	 7.65049 	 18.023 	 86.6746
| 33> H 	 7.70536 	 18.6607 	 85.7581
| 34> H 	 8.02617 	 18.6462 	 87.4662
| 35> C 	 6.23085 	 17.6234 	 86.9615
| 36> H 	 5.67554 	 18.5291 	 87.3576
| 37> H 	 6.11632 	 16.7389 	 87.5754
| 38> H 	 5.63485 	 17.2986 	 86.107
| 39> H 	 4.18286 	 12.1554 	 84.6563
| 40> H 	 9.76259 	 14.0873 	 90.1303
| 41> *
| 42>
| 43>                          ****END OF INPUT****

CARTESIAN COORDINATES (ANGSTROEM)
---------------------------------
  S      5.699810   12.694000   86.530700
  C      5.053590   12.715700   84.917100
  C      5.753590   13.657300   84.151600
  C      6.767370   14.358800   84.833500
  C      6.871320   13.963800   86.146200
  H      7.420120   15.115100   84.419000
  C      5.391230   13.944800   82.691000
  H      5.561720   12.905900   82.301600
  H      6.102760   14.677400   82.226800
  C      3.886050   14.417700   82.452700
  H      3.187650   13.694500   82.845800
  H      3.701200   15.338700   82.901300
  C      3.657700   14.652200   80.992100
  H      2.893350   15.433400   80.752400
  H      4.457380   15.210400   80.430900
  H      3.621330   13.698800   80.476600
  S      8.350550   13.207400   88.315000
  C      9.119210   14.413800   89.276900
  C      9.185390   15.585000   88.579800
  C      8.481130   15.593700   87.382400
  C      7.775330   14.427500   87.194200
  H      9.843320   16.366700   88.986400
  C      8.629290   16.863600   86.445500
  H      8.493400   16.529800   85.419300
  H      9.597070   17.279200   86.506000
  C      7.650490   18.023000   86.674600
  H      7.705360   18.660700   85.758100
  H      8.026170   18.646200   87.466200
  C      6.230850   17.623400   86.961500
  H      5.675540   18.529100   87.357600
  H      6.116320   16.738900   87.575400
  H      5.634850   17.298600   86.107000
  H      4.182860   12.155400   84.656300
  H      9.762590   14.087300   90.130300

 Total Charge           Charge          ....    0
 Multiplicity           Mult            ....    1
 Number of Electrons    NEL             ....  134
 Basis Dimension        Dim             ....  322

ORBITAL ENERGIES
----------------

  NO   OCC          E(Eh)            E(eV)
   0   2.0000     -88.966224     -2420.8940
   1   2.0000     -88.963052     -2420.8077
   2   2.0000     -10.331148      -281.1248
   3   2.0000     -10.327733      -281.0319
   4   2.0000     -10.314159      -280.6625
   5   2.0000     -10.311792      -280.5981
   6   2.0000     -10.303521      -280.3731
   7   2.0000     -10.302086      -280.3340
   8   2.0000     -10.300915      -280.3021
   9   2.0000     -10.293828      -280.1093
  10   2.0000     -10.292776      -280.0807
  11   2.0000     -10.289924      -280.0031
  12   2.0000     -10.285024      -279.8697
  13   2.0000     -10.284390      -279.8525
  14   2.0000     -10.280211      -279.7388
  15   2.0000     -10.270785      -279.4823
  16   2.0000      -8.080707      -219.8872
  17   2.0000      -8.078595      -219.8298
  18   2.0000      -6.039126      -164.3330
  19   2.0000      -6.036935      -164.2733
  20   2.0000      -6.035184      -164.2257
  21   2.0000      -6.033169      -164.1709
  22   2.0000      -6.031630      -164.1290
  23   2.0000      -6.029286      -164.0652
  24   2.0000      -1.012350       -27.5474
  25   2.0000      -0.988274       -26.8923
  26   2.0000      -0.908328       -24.7169
  27   2.0000      -0.907115       -24.6838
  28   2.0000      -0.870530       -23.6883
  29   2.0000      -0.855279       -23.2733
  30   2.0000      -0.846163       -23.0253
  31   2.0000      -0.814303       -22.1583
  32   2.0000      -0.786520       -21.4023
  33   2.0000      -0.764868       -20.8131
  34   2.0000      -0.707217       -19.2443
  35   2.0000      -0.703023       -19.1302
  36   2.0000      -0.690072       -18.7778
  37   2.0000      -0.662531       -18.0284
  38   2.0000      -0.641023       -17.4431
  39   2.0000      -0.619559       -16.8591
  40   2.0000      -0.594422       -16.1750
  41   2.0000      -0.573803       -15.6140
  42   2.0000      -0.561235       -15.2720
  43   2.0000      -0.552516       -15.0347
  44   2.0000      -0.545721       -14.8498
  45   2.0000      -0.528078       -14.3697
  46   2.0000      -0.515723       -14.0335
  47   2.0000      -0.512160       -13.9366
  48   2.0000      -0.508325       -13.8322
  49   2.0000      -0.496744       -13.5171
  50   2.0000      -0.490974       -13.3601
  51   2.0000      -0.477203       -12.9854
  52   2.0000      -0.468448       -12.7471
  53   2.0000      -0.463749       -12.6192
  54   2.0000      -0.454403       -12.3649
  55   2.0000      -0.453275       -12.3342
  56   2.0000      -0.446061       -12.1379
  57   2.0000      -0.436343       -11.8735
  58   2.0000      -0.431960       -11.7542
  59   2.0000      -0.427920       -11.6443
  60   2.0000      -0.420214       -11.4346
  61   2.0000      -0.405451       -11.0329
  62   2.0000      -0.403220       -10.9722
  63   2.0000      -0.357501        -9.7281
  64   2.0000      -0.332821        -9.0565
  65   2.0000      -0.330785        -9.0011
  66   2.0000      -0.282847        -7.6967
  67   0.0000       0.019839         0.5399
  68   0.0000       0.075663         2.0589
  69   0.0000       0.101051         2.7497
  70   0.0000       0.120545         3.2802
  71   0.0000       0.137406         3.7390

MULLIKEN ATOMIC CHARGES
-----------------------
   0 S :    0.107821
   1 C :   -0.129255
   2 C :   -0.074187
   3 C :    0.014475
   4 C :   -0.127426
   5 H :    0.005115
   6 C :    0.004574
   7 H :    0.050715
   8 H :    0.032490
   9 C :   -0.011395
  10 H :    0.030006
  11 H :    0.017566
  12 C :   -0.075631
  13 H :    0.038521
  14 H :    0.018235
  15 H :    0.033608
  16 S :    0.098417
  17 C :   -0.103687
  18 C :   -0.053008
  19 C :   -0.044329
  20 C :   -0.142353
  21 H :    0.025187
  22 C :    0.101636
  23 H :    0.008876
  24 H :    0.015775
  25 C :   -0.061252
  26 H :    0.031724
  27 H :    0.023227
  28 C :   -0.068928
  29 H :    0.040600
  30 H :    0.046486
  31 H :    0.024077
  32 H :    0.047256
  33 H :    0.075062
Sum of atomic charges:   -0.0000000

LOEWDIN ATOMIC CHARGES
----------------------
   0 S :    0.407744
   1 C :   -0.207611
   2 C :   -0.061779
   3 C :   -0.070752
   4 C :   -0.179706
   5 H :    0.030696
   6 C :   -0.034524
   7 H :    0.041374
   8 H :    0.031604
   9 C :   -0.031877
  10 H :    0.024281
  11 H :    0.018668
  12 C :   -0.081266
  13 H :    0.033220
  14 H :    0.028146
  15 H :    0.024915
  16 S :    0.413168
  17 C :   -0.200353
  18 C :   -0.077106
  19 C :   -0.061589
  20 C :   -0.193940
  21 H :    0.036438
  22 C :   -0.018484
  23 H :    0.022721
  24 H :    0.027121
  25 C :   -0.042897
  26 H :    0.030875
  27 H :    0.019585
  28 C :   -0.077298
  29 H :    0.034676
  30 H :    0.028169
  31 H :    0.024603
  32 H :    0.023411
  33 H :    0.037766

  Mayer bond orders larger than 0.100000
B(  0-S ,  1-C ) :   1.1385 B(  0-S ,  4-C ) :   1.1676 B(  1-C ,  2-C ) :   1.5679
B(  1-C ,  4-C ) :   0.1075 B(  1-C , 32-H ) :   0.9793 B(  2-C ,  3-C ) :   1.2777
B(  2-C ,  6-C ) :   0.9985 B(  3-C ,  4-C ) :   1.5445 B(  3-C ,  5-H ) :   0.9935
B(  4-C , 20-C ) :   1.0535 B(  6-C ,  7-H ) :   0.9420 B(  6-C ,  8-H ) :   0.9517
B(  6-C ,  9-C ) :   1.0597 B(  9-C , 10-H ) :   0.9543 B(  9-C , 11-H ) :   0.9568
B(  9-C , 12-C ) :   1.0876 B( 12-C , 13-H ) :   0.9722 B( 12-C , 14-H ) :   0.9676
B( 12-C , 15-H ) :   0.9752 B( 16-S , 17-C ) :   1.1567 B( 16-S , 20-C ) :   1.1640
B( 17-C , 18-C ) :   1.5873 B( 17-C , 20-C ) :   0.1087 B( 17-C , 33-H ) :   0.9628
B( 18-C , 19-C ) :   1.2586 B( 18-C , 21-H ) :   0.9906 B( 19-C , 20-C ) :   1.5773
B( 19-C , 22-C ) :   1.0196 B( 22-C , 23-H ) :   0.9405 B( 22-C , 24-H ) :   0.9361
B( 22-C , 25-C ) :   1.0778 B( 25-C , 26-H ) :   0.9528 B( 25-C , 27-H ) :   0.9570
B( 25-C , 28-C ) :   1.0832 B( 28-C , 29-H ) :   0.9729 B( 28-C , 30-H ) :   0.9687
B( 28-C , 31-H ) :   0.9722

Dispersion correction           -0.014659231
FINAL SINGLE POINT ENERGY     -1339.866707156419

DIPOLE MOMENT
-------------
                                X             Y             Z
Electronic contribution:      9.60278     -19.01675      20.35689
Nuclear contribution   :     -9.44735      19.51933     -20.80844
                        -----------------------------------------
Total Dipole Moment    :      0.15543       0.50258      -0.45154
                        -----------------------------------------
Magnitude (a.u.)       :      0.69328
Magnitude (Debye)      :      1.76218

Rotational constants in cm-1:     0.021762     0.008339     0.006553
Rotational constants in MHz :   652.414452   249.999965   196.444360

                             ****ORCA TERMINATED NORMALLY****
TOTAL RUN TIME: 0 days 0 hours 0 minutes 34 seconds 5 msec
