                         Program Version 4.2.1 -  RELEASE  -
|  1> ! wB97X-D3 SP def2-SVP
|  2> %pal
|  3> nprocs 16
|  4> end
|  5>
|  6> * xyz 0 1
|  7> S 	 -4.96068 	 27.658 	 55.8481
|  8> C 	 -5.21872 	 25.8808 	 56.1632
|  9> C 	 -5.26635 	 25.1795 	 54.9628
| 10> C 	 -5.28078 	 26.0347 	 53.8315
| 11> C 	 -5.02494 	 27.3357 	 54.1431
| 12> H 	 -5.4208 	 25.8104 	 52.751
| 13> C 	 -5.15388 	 23.6405 	 54.6979
| 14> H 	 -6.17142 	 23.3309 	 54.3551
| 15> H 	 -4.87038 	 23.1879 	 55.5972
| 16> C 	 -4.16423 	 23.1613 	 53.5879
| 17> H 	 -3.96443 	 22.092 	 53.6022
| 18> H 	 -4.48919 	 23.3429 	 52.5626
| 19> C 	 -2.65685 	 23.7439 	 53.6814
| 20> H 	 -2.53992 	 24.8018 	 53.937
| 21> H 	 -2.108 	 23.1843 	 54.4076
| 22> H 	 -2.05672 	 23.6733 	 52.8011
| 23> S 	 -3.12638 	 28.9601 	 52.9214
| 24> C 	 -3.64732 	 30.0573 	 51.723
| 25> C 	 -5.02173 	 30.1674 	 51.7056
| 26> C 	 -5.68815 	 29.3806 	 52.6781
| 27> C 	 -4.78946 	 28.4552 	 53.2202
| 28> H 	 -5.47438 	 30.885 	 51.1131
| 29> C 	 -7.2178 	 29.2192 	 52.6929
| 30> H 	 -7.5469 	 28.4661 	 53.2885
| 31> H 	 -7.5269 	 28.9584 	 51.6551
| 32> C 	 -8.10654 	 30.4725 	 52.9328
| 33> H 	 -7.49466 	 31.2694 	 53.2916
| 34> H 	 -8.86863 	 30.4168 	 53.6913
| 35> C 	 -8.76012 	 31.0862 	 51.6417
| 36> H 	 -9.49885 	 31.9241 	 51.8204
| 37> H 	 -9.36072 	 30.4437 	 51.0301
| 38> H 	 -7.9663 	 31.3961 	 50.9342
| 39> H 	 -5.23592 	 25.4348 	 57.0919
| 40> H 	 -2.92279 	 30.7265 	 51.2139
| 41> *
| 42>
| 43>                          ****END OF INPUT****

CARTESIAN COORDINATES (ANGSTROEM)
---------------------------------
  S     -4.960680   27.658000   55.848100
  C     -5.218720   25.880800   56.163200
  C     -5.266350   25.179500   54.962800
  C     -5.280780   26.034700   53.831500
  C     -5.024940   27.335700   54.143100
  H     -5.420800   25.810400   52.751000
  C     -5.153880   23.640500   54.697900
  H     -6.171420   23.330900   54.355100
  H     -4.870380   23.187900   55.597200
  C     -4.164230   23.161300   53.587900
  H     -3.964430   22.092000   53.602200
  H     -4.489190   23.342900   52.562600
  C     -2.656850   23.743900   53.681400
  H     -2.539920   24.801800   53.937000
  H     -2.108000   23.184300   54.407600
  H     -2.056720   23.673300   52.801100
  S     -3.126380   28.960100   52.921400
  C     -3.647320   30.057300   51.723000
  C     -5.021730   30.167400   51.705600
  C     -5.688150   29.380600   52.678100
  C     -4.789460   28.455200   53.220200
  H     -5.474380   30.885000   51.113100
  C     -7.217800   29.219200   52.692900
  H     -7.546900   28.466100   53.288500
  H     -7.526900   28.958400   51.655100
  C     -8.106540   30.472500   52.932800
  H     -7.494660   31.269400   53.291600
  H     -8.868630   30.416800   53.691300
  C     -8.760120   31.086200   51.641700
  H     -9.498850   31.924100   51.820400
  H     -9.360720   30.443700   51.030100
  H     -7.966300   31.396100   50.934200
  H     -5.235920   25.434800   57.091900
  H     -2.922790   30.726500   51.213900

 Total Charge           Charge          ....    0
 Multiplicity           Mult            ....    1
 Number of Electrons    NEL             ....  134
 Basis Dimension        Dim             ....  322

ORBITAL ENERGIES
----------------

  NO   OCC          E(Eh)            E(eV)
   0   2.0000     -88.965919     -2420.8857
   1   2.0000     -88.964761     -2420.8542
   2   2.0000     -10.325779      -280.9787
   3   2.0000     -10.324162      -280.9347
   4   2.0000     -10.316346      -280.7220
   5   2.0000     -10.314846      -280.6812
   6   2.0000     -10.306694      -280.4594
   7   2.0000     -10.306513      -280.4545
   8   2.0000     -10.300967      -280.3036
   9   2.0000     -10.296188      -280.1735
  10   2.0000     -10.292419      -280.0709
  11   2.0000     -10.289468      -279.9907
  12   2.0000     -10.287162      -279.9279
  13   2.0000     -10.285097      -279.8717
  14   2.0000     -10.282562      -279.8027
  15   2.0000     -10.270849      -279.4840
  16   2.0000      -8.080294      -219.8760
  17   2.0000      -8.079795      -219.8624
  18   2.0000      -6.038546      -164.3172
  19   2.0000      -6.038385      -164.3128
  20   2.0000      -6.034778      -164.2147
  21   2.0000      -6.034551      -164.2085
  22   2.0000      -6.031187      -164.1169
  23   2.0000      -6.030380      -164.0950
  24   2.0000      -1.007010       -27.4021
  25   2.0000      -0.983044       -26.7500
  26   2.0000      -0.904470       -24.6119
  27   2.0000      -0.899914       -24.4879
  28   2.0000      -0.862519       -23.4703
  29   2.0000      -0.848959       -23.1014
  30   2.0000      -0.838780       -22.8244
  31   2.0000      -0.812301       -22.1038
  32   2.0000      -0.786506       -21.4019
  33   2.0000      -0.775343       -21.0981
  34   2.0000      -0.708874       -19.2894
  35   2.0000      -0.703381       -19.1400
  36   2.0000      -0.695967       -18.9382
  37   2.0000      -0.659953       -17.9582
  38   2.0000      -0.642085       -17.4720
  39   2.0000      -0.618416       -16.8279
  40   2.0000      -0.603795       -16.4301
  41   2.0000      -0.560913       -15.2632
  42   2.0000      -0.552922       -15.0458
  43   2.0000      -0.547393       -14.8953
  44   2.0000      -0.534231       -14.5372
  45   2.0000      -0.528715       -14.3871
  46   2.0000      -0.517848       -14.0914
  47   2.0000      -0.508039       -13.8244
  48   2.0000      -0.504822       -13.7369
  49   2.0000      -0.494468       -13.4551
  50   2.0000      -0.482741       -13.1360
  51   2.0000      -0.477108       -12.9828
  52   2.0000      -0.467183       -12.7127
  53   2.0000      -0.463064       -12.6006
  54   2.0000      -0.460214       -12.5231
  55   2.0000      -0.448234       -12.1971
  56   2.0000      -0.445102       -12.1118
  57   2.0000      -0.435894       -11.8613
  58   2.0000      -0.431459       -11.7406
  59   2.0000      -0.424634       -11.5549
  60   2.0000      -0.423684       -11.5290
  61   2.0000      -0.416218       -11.3259
  62   2.0000      -0.413220       -11.2443
  63   2.0000      -0.335414        -9.1271
  64   2.0000      -0.327615        -8.9149
  65   2.0000      -0.319969        -8.7068
  66   2.0000      -0.310648        -8.4532
  67   0.0000       0.046243         1.2583
  68   0.0000       0.049467         1.3461
  69   0.0000       0.110574         3.0089
  70   0.0000       0.115744         3.1496
  71   0.0000       0.125348         3.4109

MULLIKEN ATOMIC CHARGES
-----------------------
   0 S :    0.111274
   1 C :   -0.102989
   2 C :   -0.091560
   3 C :    0.032950
   4 C :   -0.182381
   5 H :    0.029562
   6 C :    0.126252
   7 H :    0.048694
   8 H :    0.011269
   9 C :   -0.096592
  10 H :    0.038573
  11 H :    0.031317
  12 C :   -0.071055
  13 H :    0.041986
  14 H :    0.019601
  15 H :    0.022815
  16 S :    0.120463
  17 C :   -0.100182
  18 C :   -0.010091
  19 C :    0.024891
  20 C :   -0.205271
  21 H :   -0.010955
  22 C :    0.088301
  23 H :    0.006927
  24 H :    0.037753
  25 C :   -0.052849
  26 H :    0.024371
  27 H :    0.028791
  28 C :   -0.101543
  29 H :    0.041709
  30 H :    0.020814
  31 H :    0.029868
  32 H :    0.015219
  33 H :    0.072068
Sum of atomic charges:   -0.0000000

LOEWDIN ATOMIC CHARGES
----------------------
   0 S :    0.384175
   1 C :   -0.169576
   2 C :   -0.055614
   3 C :   -0.065354
   4 C :   -0.199220
   5 H :    0.042767
   6 C :   -0.019205
   7 H :    0.042246
   8 H :    0.020491
   9 C :   -0.039497
  10 H :    0.030277
  11 H :    0.020693
  12 C :   -0.073002
  13 H :    0.027654
  14 H :    0.018138
  15 H :    0.022852
  16 S :    0.420951
  17 C :   -0.199180
  18 C :   -0.068366
  19 C :   -0.046214
  20 C :   -0.202749
  21 H :    0.016942
  22 C :   -0.019304
  23 H :    0.017617
  24 H :    0.042243
  25 C :   -0.038474
  26 H :    0.023271
  27 H :    0.024474
  28 C :   -0.078435
  29 H :    0.033706
  30 H :    0.015377
  31 H :    0.023078
  32 H :    0.010543
  33 H :    0.036695

  Mayer bond orders larger than 0.100000
B(  0-S ,  1-C ) :   1.1126 B(  0-S ,  4-C ) :   1.1521 B(  1-C ,  2-C ) :   1.6512
B(  1-C , 32-H ) :   0.9789 B(  2-C ,  3-C ) :   1.1946 B(  2-C ,  6-C ) :   1.0093
B(  3-C ,  4-C ) :   1.6377 B(  3-C ,  5-H ) :   0.9841 B(  4-C , 20-C ) :   1.0098
B(  6-C ,  7-H ) :   0.9368 B(  6-C ,  8-H ) :   0.9477 B(  6-C ,  9-C ) :   1.0643
B(  9-C , 10-H ) :   0.9618 B(  9-C , 11-H ) :   0.9605 B(  9-C , 12-C ) :   1.0557
B( 12-C , 13-H ) :   0.9779 B( 12-C , 14-H ) :   0.9816 B( 12-C , 15-H ) :   0.9781
B( 16-S , 17-C ) :   1.1689 B( 16-S , 20-C ) :   1.1648 B( 17-C , 18-C ) :   1.5944
B( 17-C , 20-C ) :   0.1016 B( 17-C , 33-H ) :   0.9631 B( 18-C , 19-C ) :   1.2400
B( 18-C , 21-H ) :   1.0002 B( 19-C , 20-C ) :   1.5622 B( 19-C , 22-C ) :   1.0595
B( 22-C , 23-H ) :   0.9346 B( 22-C , 24-H ) :   0.9551 B( 22-C , 25-C ) :   1.0233
B( 25-C , 26-H ) :   0.9641 B( 25-C , 27-H ) :   0.9614 B( 25-C , 28-C ) :   1.0719
B( 28-C , 29-H ) :   0.9740 B( 28-C , 30-H ) :   0.9743 B( 28-C , 31-H ) :   0.9783

Dispersion correction           -0.014597902
FINAL SINGLE POINT ENERGY     -1339.846456282709

DIPOLE MOMENT
-------------
                                X             Y             Z
Electronic contribution:     10.86552       7.26612       9.32559
Nuclear contribution   :    -11.10190      -7.49931      -9.62203
                        -----------------------------------------
Total Dipole Moment    :     -0.23637      -0.23319      -0.29644
                        -----------------------------------------
Magnitude (a.u.)       :      0.44512
Magnitude (Debye)      :      1.13139

Rotational constants in cm-1:     0.020587     0.007879     0.007016
Rotational constants in MHz :   617.185226   236.210240   210.346433

                             ****ORCA TERMINATED NORMALLY****
TOTAL RUN TIME: 0 days 0 hours 0 minutes 32 seconds 329 msec
