                         Program Version 4.2.1 -  RELEASE  -
|  1> ! wB97X-D3 SP def2-SVP
|  2> %pal
|  3> nprocs 16
|  4> end
|  5>
|  6> * xyz 0 1
|  7> S 	 -0.350504 	 -24.734 	 58.3864
|  8> C 	 -0.827927 	 -26.3615 	 58.2819
|  9> C 	 0.24031 	 -27.2205 	 58.2074
| 10> C 	 1.49724 	 -26.5134 	 58.4226
| 11> C 	 1.35232 	 -25.1377 	 58.5271
| 12> H 	 2.48411 	 -26.9519 	 58.3788
| 13> C 	 0.260558 	 -28.6481 	 58.006
| 14> H 	 1.10221 	 -28.8998 	 57.4033
| 15> H 	 -0.61382 	 -29.0005 	 57.4151
| 16> C 	 0.515678 	 -29.4575 	 59.3005
| 17> H 	 1.01971 	 -30.3809 	 59.0237
| 18> H 	 1.01281 	 -28.921 	 60.1064
| 19> C 	 -0.800402 	 -29.7957 	 60.0158
| 20> H 	 -1.33304 	 -30.6421 	 59.5511
| 21> H 	 -0.672828 	 -30.2357 	 61.0225
| 22> H 	 -1.44191 	 -28.852 	 60.1132
| 23> S 	 2.07497 	 -22.8539 	 57.1269
| 24> C 	 3.52323 	 -22.0177 	 57.6082
| 25> C 	 4.31414 	 -22.8667 	 58.2657
| 26> C 	 3.71024 	 -24.0302 	 58.774
| 27> C 	 2.34309 	 -24.129 	 58.3436
| 28> H 	 5.32583 	 -22.6386 	 58.3677
| 29> C 	 4.52794 	 -25.0748 	 59.5009
| 30> H 	 3.9217 	 -25.9072 	 59.8937
| 31> H 	 4.78474 	 -24.5855 	 60.3801
| 32> C 	 5.80361 	 -25.7141 	 58.7703
| 33> H 	 6.33271 	 -26.4133 	 59.4629
| 34> H 	 6.46697 	 -24.8662 	 58.528
| 35> C 	 5.33227 	 -26.366 	 57.4789
| 36> H 	 6.19187 	 -26.9589 	 57.0542
| 37> H 	 5.04036 	 -25.5652 	 56.8147
| 38> H 	 4.58824 	 -27.1069 	 57.61
| 39> H 	 -1.80336 	 -26.8282 	 58.3597
| 40> H 	 3.97142 	 -21.134 	 57.1919
| 41> *
| 42>
| 43>                          ****END OF INPUT****

CARTESIAN COORDINATES (ANGSTROEM)
---------------------------------
  S     -0.350504  -24.734000   58.386400
  C     -0.827927  -26.361500   58.281900
  C      0.240310  -27.220500   58.207400
  C      1.497240  -26.513400   58.422600
  C      1.352320  -25.137700   58.527100
  H      2.484110  -26.951900   58.378800
  C      0.260558  -28.648100   58.006000
  H      1.102210  -28.899800   57.403300
  H     -0.613820  -29.000500   57.415100
  C      0.515678  -29.457500   59.300500
  H      1.019710  -30.380900   59.023700
  H      1.012810  -28.921000   60.106400
  C     -0.800402  -29.795700   60.015800
  H     -1.333040  -30.642100   59.551100
  H     -0.672828  -30.235700   61.022500
  H     -1.441910  -28.852000   60.113200
  S      2.074970  -22.853900   57.126900
  C      3.523230  -22.017700   57.608200
  C      4.314140  -22.866700   58.265700
  C      3.710240  -24.030200   58.774000
  C      2.343090  -24.129000   58.343600
  H      5.325830  -22.638600   58.367700
  C      4.527940  -25.074800   59.500900
  H      3.921700  -25.907200   59.893700
  H      4.784740  -24.585500   60.380100
  C      5.803610  -25.714100   58.770300
  H      6.332710  -26.413300   59.462900
  H      6.466970  -24.866200   58.528000
  C      5.332270  -26.366000   57.478900
  H      6.191870  -26.958900   57.054200
  H      5.040360  -25.565200   56.814700
  H      4.588240  -27.106900   57.610000
  H     -1.803360  -26.828200   58.359700
  H      3.971420  -21.134000   57.191900

 Total Charge           Charge          ....    0
 Multiplicity           Mult            ....    1
 Number of Electrons    NEL             ....  134
 Basis Dimension        Dim             ....  322

ORBITAL ENERGIES
----------------

  NO   OCC          E(Eh)            E(eV)
   0   2.0000     -88.966021     -2420.8885
   1   2.0000     -88.964359     -2420.8433
   2   2.0000     -10.331488      -281.1341
   3   2.0000     -10.328480      -281.0522
   4   2.0000     -10.310501      -280.5630
   5   2.0000     -10.307689      -280.4865
   6   2.0000     -10.303382      -280.3693
   7   2.0000     -10.298677      -280.2412
   8   2.0000     -10.297598      -280.2119
   9   2.0000     -10.296070      -280.1703
  10   2.0000     -10.288872      -279.9744
  11   2.0000     -10.288819      -279.9730
  12   2.0000     -10.288542      -279.9655
  13   2.0000     -10.283590      -279.8307
  14   2.0000     -10.280394      -279.7437
  15   2.0000     -10.277770      -279.6723
  16   2.0000      -8.081445      -219.9073
  17   2.0000      -8.078691      -219.8323
  18   2.0000      -6.040037      -164.3578
  19   2.0000      -6.037342      -164.2844
  20   2.0000      -6.035773      -164.2417
  21   2.0000      -6.033460      -164.1788
  22   2.0000      -6.032124      -164.1424
  23   2.0000      -6.029080      -164.0596
  24   2.0000      -1.010482       -27.4966
  25   2.0000      -0.988845       -26.9079
  26   2.0000      -0.920485       -25.0477
  27   2.0000      -0.905943       -24.6520
  28   2.0000      -0.876457       -23.8496
  29   2.0000      -0.851454       -23.1692
  30   2.0000      -0.846239       -23.0273
  31   2.0000      -0.817792       -22.2532
  32   2.0000      -0.783086       -21.3089
  33   2.0000      -0.773647       -21.0520
  34   2.0000      -0.715895       -19.4805
  35   2.0000      -0.696790       -18.9606
  36   2.0000      -0.695833       -18.9346
  37   2.0000      -0.657465       -17.8905
  38   2.0000      -0.639429       -17.3997
  39   2.0000      -0.623434       -16.9645
  40   2.0000      -0.597914       -16.2701
  41   2.0000      -0.584016       -15.8919
  42   2.0000      -0.554588       -15.0911
  43   2.0000      -0.553158       -15.0522
  44   2.0000      -0.544287       -14.8108
  45   2.0000      -0.533251       -14.5105
  46   2.0000      -0.522999       -14.2315
  47   2.0000      -0.514512       -14.0006
  48   2.0000      -0.508936       -13.8489
  49   2.0000      -0.495181       -13.4746
  50   2.0000      -0.491861       -13.3842
  51   2.0000      -0.477836       -13.0026
  52   2.0000      -0.473135       -12.8747
  53   2.0000      -0.468805       -12.7568
  54   2.0000      -0.461881       -12.5684
  55   2.0000      -0.447429       -12.1752
  56   2.0000      -0.443941       -12.0802
  57   2.0000      -0.433479       -11.7956
  58   2.0000      -0.429995       -11.7008
  59   2.0000      -0.427067       -11.6211
  60   2.0000      -0.422937       -11.5087
  61   2.0000      -0.418114       -11.3775
  62   2.0000      -0.410586       -11.1726
  63   2.0000      -0.358929        -9.7670
  64   2.0000      -0.325858        -8.8671
  65   2.0000      -0.323776        -8.8104
  66   2.0000      -0.283103        -7.7036
  67   0.0000       0.019719         0.5366
  68   0.0000       0.074053         2.0151
  69   0.0000       0.101098         2.7510
  70   0.0000       0.117808         3.2057
  71   0.0000       0.132838         3.6147

MULLIKEN ATOMIC CHARGES
-----------------------
   0 S :    0.117552
   1 C :   -0.085932
   2 C :   -0.117259
   3 C :    0.038360
   4 C :   -0.142558
   5 H :   -0.012336
   6 C :    0.073024
   7 H :    0.016869
   8 H :    0.032613
   9 C :   -0.057954
  10 H :    0.030400
  11 H :    0.044128
  12 C :   -0.104791
  13 H :    0.029268
  14 H :    0.032245
  15 H :    0.043096
  16 S :    0.100022
  17 C :   -0.061905
  18 C :   -0.038902
  19 C :   -0.040237
  20 C :   -0.140611
  21 H :   -0.007345
  22 C :    0.063560
  23 H :    0.019295
  24 H :    0.014783
  25 C :   -0.086072
  26 H :    0.044474
  27 H :    0.034305
  28 C :   -0.043916
  29 H :    0.034404
  30 H :    0.054723
  31 H :    0.025879
  32 H :    0.042447
  33 H :    0.048368
Sum of atomic charges:   -0.0000000

LOEWDIN ATOMIC CHARGES
----------------------
   0 S :    0.426736
   1 C :   -0.215365
   2 C :   -0.065971
   3 C :   -0.048839
   4 C :   -0.196842
   5 H :    0.023999
   6 C :   -0.038129
   7 H :    0.032184
   8 H :    0.036736
   9 C :   -0.036024
  10 H :    0.023581
  11 H :    0.030824
  12 C :   -0.079676
  13 H :    0.021414
  14 H :    0.024964
  15 H :    0.031031
  16 S :    0.395232
  17 C :   -0.187636
  18 C :   -0.069905
  19 C :   -0.058817
  20 C :   -0.185167
  21 H :    0.020510
  22 C :   -0.036590
  23 H :    0.029405
  24 H :    0.022958
  25 C :   -0.033395
  26 H :    0.029378
  27 H :    0.023299
  28 C :   -0.064132
  29 H :    0.032508
  30 H :    0.032137
  31 H :    0.014708
  32 H :    0.033322
  33 H :    0.031560

  Mayer bond orders larger than 0.100000
B(  0-S ,  1-C ) :   1.1377 B(  0-S ,  4-C ) :   1.1431 B(  1-C ,  2-C ) :   1.6058
B(  1-C , 32-H ) :   0.9606 B(  2-C ,  3-C ) :   1.2426 B(  2-C ,  6-C ) :   1.0615
B(  3-C ,  4-C ) :   1.5450 B(  3-C ,  5-H ) :   0.9884 B(  4-C , 20-C ) :   1.0943
B(  6-C ,  7-H ) :   0.9272 B(  6-C ,  8-H ) :   0.9401 B(  6-C ,  9-C ) :   1.0446
B(  9-C , 10-H ) :   0.9574 B(  9-C , 11-H ) :   0.9625 B(  9-C , 12-C ) :   1.0722
B( 12-C , 13-H ) :   0.9765 B( 12-C , 14-H ) :   0.9750 B( 12-C , 15-H ) :   0.9736
B( 16-S , 17-C ) :   1.1337 B( 16-S , 20-C ) :   1.1488 B( 17-C , 18-C ) :   1.6178
B( 17-C , 20-C ) :   0.1010 B( 17-C , 33-H ) :   0.9650 B( 18-C , 19-C ) :   1.2606
B( 18-C , 21-H ) :   0.9961 B( 19-C , 20-C ) :   1.5310 B( 19-C , 22-C ) :   1.0405
B( 22-C , 23-H ) :   0.9374 B( 22-C , 24-H ) :   0.9263 B( 22-C , 25-C ) :   1.0622
B( 25-C , 26-H ) :   0.9575 B( 25-C , 27-H ) :   0.9551 B( 25-C , 28-C ) :   1.0744
B( 28-C , 29-H ) :   0.9691 B( 28-C , 30-H ) :   0.9730 B( 28-C , 31-H ) :   0.9734

Dispersion correction           -0.015155647
FINAL SINGLE POINT ENERGY     -1339.854620180205

DIPOLE MOMENT
-------------
                                X             Y             Z
Electronic contribution:    -10.37042      25.05128      -6.05258
Nuclear contribution   :     10.94070     -25.74268       6.04091
                        -----------------------------------------
Total Dipole Moment    :      0.57028      -0.69140      -0.01168
                        -----------------------------------------
Magnitude (a.u.)       :      0.89632
Magnitude (Debye)      :      2.27827

Rotational constants in cm-1:     0.020694     0.009023     0.006801
Rotational constants in MHz :   620.378309   270.493241   203.878586

                             ****ORCA TERMINATED NORMALLY****
TOTAL RUN TIME: 0 days 0 hours 0 minutes 38 seconds 258 msec
