                         Program Version 4.2.1 -  RELEASE  -
|  1> ! wB97X-D3 SP def2-SVP
|  2> %pal
|  3> nprocs 16
|  4> end
|  5>
|  6> * xyz 0 1
|  7> S 	 9.71742 	 22.5704 	 52.1374
|  8> C 	 10.7699 	 21.6897 	 53.1776
|  9> C 	 12.0291 	 21.4762 	 52.6495
| 10> C 	 12.1573 	 21.891 	 51.345
| 11> C 	 11.0343 	 22.5889 	 50.8978
| 12> H 	 13.0072 	 21.5437 	 50.7567
| 13> C 	 13.2061 	 20.8076 	 53.4468
| 14> H 	 13.0424 	 20.9607 	 54.4928
| 15> H 	 14.1139 	 21.3699 	 53.2609
| 16> C 	 13.4965 	 19.3273 	 53.2256
| 17> H 	 12.6625 	 18.6596 	 53.5038
| 18> H 	 13.6271 	 19.1026 	 52.1615
| 19> C 	 14.5919 	 18.818 	 54.1466
| 20> H 	 14.3045 	 18.896 	 55.2106
| 21> H 	 14.8908 	 17.8323 	 53.9105
| 22> H 	 15.4699 	 19.5337 	 54.0977
| 23> S 	 9.2198 	 22.3279 	 48.8455
| 24> C 	 9.67513 	 22.8127 	 47.1906
| 25> C 	 10.9006 	 23.3983 	 47.2016
| 26> C 	 11.5036 	 23.3452 	 48.4886
| 27> C 	 10.7289 	 22.8487 	 49.4902
| 28> H 	 11.2853 	 23.8273 	 46.2227
| 29> C 	 12.8991 	 23.9684 	 48.743
| 30> H 	 13.6797 	 23.2951 	 48.3401
| 31> H 	 13.0437 	 24.0312 	 49.8403
| 32> C 	 13.0458 	 25.3998 	 48.1106
| 33> H 	 12.2663 	 26.0972 	 48.4825
| 34> H 	 13.1128 	 25.2952 	 46.963
| 35> C 	 14.2518 	 26.2021 	 48.6076
| 36> H 	 14.2225 	 26.8008 	 49.5705
| 37> H 	 14.4684 	 26.8503 	 47.7688
| 38> H 	 15.1901 	 25.6447 	 48.5722
| 39> H 	 10.4376 	 21.4758 	 54.2172
| 40> H 	 9.10689 	 22.8903 	 46.2898
| 41> *
| 42>
| 43>                          ****END OF INPUT****

CARTESIAN COORDINATES (ANGSTROEM)
---------------------------------
  S      9.717420   22.570400   52.137400
  C     10.769900   21.689700   53.177600
  C     12.029100   21.476200   52.649500
  C     12.157300   21.891000   51.345000
  C     11.034300   22.588900   50.897800
  H     13.007200   21.543700   50.756700
  C     13.206100   20.807600   53.446800
  H     13.042400   20.960700   54.492800
  H     14.113900   21.369900   53.260900
  C     13.496500   19.327300   53.225600
  H     12.662500   18.659600   53.503800
  H     13.627100   19.102600   52.161500
  C     14.591900   18.818000   54.146600
  H     14.304500   18.896000   55.210600
  H     14.890800   17.832300   53.910500
  H     15.469900   19.533700   54.097700
  S      9.219800   22.327900   48.845500
  C      9.675130   22.812700   47.190600
  C     10.900600   23.398300   47.201600
  C     11.503600   23.345200   48.488600
  C     10.728900   22.848700   49.490200
  H     11.285300   23.827300   46.222700
  C     12.899100   23.968400   48.743000
  H     13.679700   23.295100   48.340100
  H     13.043700   24.031200   49.840300
  C     13.045800   25.399800   48.110600
  H     12.266300   26.097200   48.482500
  H     13.112800   25.295200   46.963000
  C     14.251800   26.202100   48.607600
  H     14.222500   26.800800   49.570500
  H     14.468400   26.850300   47.768800
  H     15.190100   25.644700   48.572200
  H     10.437600   21.475800   54.217200
  H      9.106890   22.890300   46.289800

 Total Charge           Charge          ....    0
 Multiplicity           Mult            ....    1
 Number of Electrons    NEL             ....  134
 Basis Dimension        Dim             ....  322

ORBITAL ENERGIES
----------------

  NO   OCC          E(Eh)            E(eV)
   0   2.0000     -88.972817     -2421.0734
   1   2.0000     -88.960738     -2420.7448
   2   2.0000     -10.336152      -281.2610
   3   2.0000     -10.320379      -280.8318
   4   2.0000     -10.318773      -280.7881
   5   2.0000     -10.311076      -280.5787
   6   2.0000     -10.300436      -280.2891
   7   2.0000     -10.296753      -280.1889
   8   2.0000     -10.296125      -280.1718
   9   2.0000     -10.295024      -280.1419
  10   2.0000     -10.293934      -280.1122
  11   2.0000     -10.293139      -280.0906
  12   2.0000     -10.292544      -280.0744
  13   2.0000     -10.287430      -279.9352
  14   2.0000     -10.281993      -279.7873
  15   2.0000     -10.277475      -279.6643
  16   2.0000      -8.087079      -220.0606
  17   2.0000      -8.075520      -219.7461
  18   2.0000      -6.045446      -164.5049
  19   2.0000      -6.041696      -164.4029
  20   2.0000      -6.037984      -164.3019
  21   2.0000      -6.034258      -164.2005
  22   2.0000      -6.029997      -164.0846
  23   2.0000      -6.026034      -163.9767
  24   2.0000      -1.009212       -27.4620
  25   2.0000      -0.987066       -26.8594
  26   2.0000      -0.911215       -24.7954
  27   2.0000      -0.896930       -24.4067
  28   2.0000      -0.872029       -23.7291
  29   2.0000      -0.859657       -23.3924
  30   2.0000      -0.843193       -22.9444
  31   2.0000      -0.815816       -22.1995
  32   2.0000      -0.778992       -21.1974
  33   2.0000      -0.765758       -20.8373
  34   2.0000      -0.705529       -19.1984
  35   2.0000      -0.698293       -19.0015
  36   2.0000      -0.688555       -18.7365
  37   2.0000      -0.654694       -17.8151
  38   2.0000      -0.637686       -17.3523
  39   2.0000      -0.629017       -17.1164
  40   2.0000      -0.585131       -15.9222
  41   2.0000      -0.568770       -15.4770
  42   2.0000      -0.564765       -15.3680
  43   2.0000      -0.559330       -15.2201
  44   2.0000      -0.533252       -14.5105
  45   2.0000      -0.518988       -14.1224
  46   2.0000      -0.515359       -14.0236
  47   2.0000      -0.505770       -13.7627
  48   2.0000      -0.502016       -13.6606
  49   2.0000      -0.495926       -13.4948
  50   2.0000      -0.489073       -13.3083
  51   2.0000      -0.478722       -13.0267
  52   2.0000      -0.473528       -12.8854
  53   2.0000      -0.465200       -12.6587
  54   2.0000      -0.460517       -12.5313
  55   2.0000      -0.451161       -12.2767
  56   2.0000      -0.443421       -12.0661
  57   2.0000      -0.440614       -11.9897
  58   2.0000      -0.429491       -11.6870
  59   2.0000      -0.425241       -11.5714
  60   2.0000      -0.413172       -11.2430
  61   2.0000      -0.407934       -11.1005
  62   2.0000      -0.404103       -10.9962
  63   2.0000      -0.357879        -9.7384
  64   2.0000      -0.338261        -9.2045
  65   2.0000      -0.326342        -8.8802
  66   2.0000      -0.287590        -7.8257
  67   0.0000       0.024622         0.6700
  68   0.0000       0.076605         2.0845
  69   0.0000       0.104202         2.8355
  70   0.0000       0.123939         3.3726
  71   0.0000       0.136726         3.7205

MULLIKEN ATOMIC CHARGES
-----------------------
   0 S :    0.110531
   1 C :   -0.144536
   2 C :   -0.063801
   3 C :    0.019984
   4 C :   -0.143289
   5 H :    0.030814
   6 C :    0.064844
   7 H :    0.006429
   8 H :    0.022974
   9 C :   -0.064947
  10 H :    0.027526
  11 H :    0.027640
  12 C :   -0.049075
  13 H :    0.033313
  14 H :    0.035710
  15 H :    0.022755
  16 S :    0.091624
  17 C :   -0.078587
  18 C :   -0.063661
  19 C :   -0.057181
  20 C :   -0.113906
  21 H :    0.043843
  22 C :    0.057696
  23 H :    0.035043
  24 H :    0.033146
  25 C :   -0.123295
  26 H :    0.050004
  27 H :    0.048752
  28 C :   -0.057877
  29 H :    0.060600
  30 H :    0.019375
  31 H :    0.010834
  32 H :    0.064063
  33 H :    0.042652
Sum of atomic charges:    0.0000000

LOEWDIN ATOMIC CHARGES
----------------------
   0 S :    0.402117
   1 C :   -0.199782
   2 C :   -0.068723
   3 C :   -0.050944
   4 C :   -0.174679
   5 H :    0.040379
   6 C :   -0.026290
   7 H :    0.025217
   8 H :    0.029048
   9 C :   -0.047755
  10 H :    0.027924
  11 H :    0.022390
  12 C :   -0.063349
  13 H :    0.028077
  14 H :    0.021484
  15 H :    0.025202
  16 S :    0.394256
  17 C :   -0.178966
  18 C :   -0.076581
  19 C :   -0.070883
  20 C :   -0.206799
  21 H :    0.044786
  22 C :   -0.036116
  23 H :    0.029958
  24 H :    0.029951
  25 C :   -0.049542
  26 H :    0.036517
  27 H :    0.031924
  28 C :   -0.083745
  29 H :    0.035242
  30 H :    0.028479
  31 H :    0.019113
  32 H :    0.033172
  33 H :    0.028914

  Mayer bond orders larger than 0.100000
B(  0-S ,  1-C ) :   1.1583 B(  0-S ,  4-C ) :   1.1494 B(  1-C ,  2-C ) :   1.5857
B(  1-C ,  4-C ) :   0.1007 B(  1-C , 32-H ) :   0.9602 B(  2-C ,  3-C ) :   1.3055
B(  2-C ,  6-C ) :   1.0051 B(  3-C ,  4-C ) :   1.5232 B(  3-C ,  5-H ) :   0.9848
B(  4-C , 20-C ) :   1.0385 B(  6-C ,  7-H ) :   0.9427 B(  6-C ,  8-H ) :   0.9434
B(  6-C ,  9-C ) :   1.0652 B(  9-C , 10-H ) :   0.9522 B(  9-C , 11-H ) :   0.9566
B(  9-C , 12-C ) :   1.0770 B( 12-C , 13-H ) :   0.9740 B( 12-C , 14-H ) :   0.9735
B( 12-C , 15-H ) :   0.9743 B( 16-S , 17-C ) :   1.1324 B( 16-S , 20-C ) :   1.1203
B( 17-C , 18-C ) :   1.6542 B( 17-C , 33-H ) :   0.9627 B( 18-C , 19-C ) :   1.2243
B( 18-C , 21-H ) :   0.9783 B( 19-C , 20-C ) :   1.6394 B( 19-C , 22-C ) :   1.0338
B( 22-C , 23-H ) :   0.9299 B( 22-C , 24-H ) :   0.9420 B( 22-C , 25-C ) :   1.0662
B( 25-C , 26-H ) :   0.9589 B( 25-C , 27-H ) :   0.9512 B( 25-C , 28-C ) :   1.0773
B( 28-C , 29-H ) :   0.9770 B( 28-C , 30-H ) :   0.9695 B( 28-C , 31-H ) :   0.9675

Dispersion correction           -0.013276093
FINAL SINGLE POINT ENERGY     -1339.866683998076

DIPOLE MOMENT
-------------
                                X             Y             Z
Electronic contribution:    -27.67098       0.13627      -4.26250
Nuclear contribution   :     28.29625      -0.21181       4.32008
                        -----------------------------------------
Total Dipole Moment    :      0.62527      -0.07554       0.05758
                        -----------------------------------------
Magnitude (a.u.)       :      0.63244
Magnitude (Debye)      :      1.60754

Rotational constants in cm-1:     0.017424     0.007792     0.006307
Rotational constants in MHz :   522.364466   233.612601   189.065350

                             ****ORCA TERMINATED NORMALLY****
TOTAL RUN TIME: 0 days 0 hours 0 minutes 33 seconds 878 msec
