                         Program Version 4.2.1 -  RELEASE  -
|  1> ! wB97X-D3 SP def2-SVP
|  2> %pal
|  3> nprocs 16
|  4> end
|  5>
|  6> * xyz 0 1
|  7> S 	 -29.6365 	 62.9027 	 110.514
|  8> C 	 -31.2561 	 62.4408 	 109.929
|  9> C 	 -31.9414 	 61.6691 	 110.807
| 10> C 	 -31.2921 	 61.4861 	 112.004
| 11> C 	 -30.0402 	 62.0167 	 111.993
| 12> H 	 -31.6665 	 60.9524 	 112.826
| 13> C 	 -33.4349 	 61.2971 	 110.615
| 14> H 	 -33.8162 	 61.6767 	 109.664
| 15> H 	 -33.9694 	 61.9187 	 111.289
| 16> C 	 -33.7719 	 59.8124 	 110.83
| 17> H 	 -33.4766 	 59.6424 	 111.838
| 18> H 	 -34.7891 	 59.5771 	 110.712
| 19> C 	 -32.9548 	 58.8678 	 109.93
| 20> H 	 -31.8514 	 59.0986 	 109.809
| 21> H 	 -33.1215 	 57.7976 	 110.213
| 22> H 	 -33.3218 	 58.9212 	 108.928
| 23> S 	 -28.4931 	 63.7442 	 113.555
| 24> C 	 -27.7595 	 63.1692 	 115.053
| 25> C 	 -28.2981 	 61.9726 	 115.352
| 26> C 	 -29.2205 	 61.4294 	 114.366
| 27> C 	 -29.258 	 62.21 	 113.204
| 28> H 	 -27.9255 	 61.5739 	 116.266
| 29> C 	 -29.7273 	 59.9936 	 114.553
| 30> H 	 -30.1066 	 59.6062 	 113.634
| 31> H 	 -30.6585 	 60.0204 	 115.2
| 32> C 	 -28.8138 	 58.9747 	 115.284
| 33> H 	 -28.57 	 59.4727 	 116.253
| 34> H 	 -27.9035 	 58.9927 	 114.634
| 35> C 	 -29.4888 	 57.5848 	 115.501
| 36> H 	 -29.7791 	 57.1435 	 114.531
| 37> H 	 -30.3876 	 57.6327 	 116.095
| 38> H 	 -28.7554 	 56.8814 	 115.927
| 39> H 	 -31.7599 	 63.0174 	 109.159
| 40> H 	 -27.1809 	 63.6959 	 115.832
| 41> *
| 42>
| 43>                          ****END OF INPUT****

CARTESIAN COORDINATES (ANGSTROEM)
---------------------------------
  S    -29.636500   62.902700  110.514000
  C    -31.256100   62.440800  109.929000
  C    -31.941400   61.669100  110.807000
  C    -31.292100   61.486100  112.004000
  C    -30.040200   62.016700  111.993000
  H    -31.666500   60.952400  112.826000
  C    -33.434900   61.297100  110.615000
  H    -33.816200   61.676700  109.664000
  H    -33.969400   61.918700  111.289000
  C    -33.771900   59.812400  110.830000
  H    -33.476600   59.642400  111.838000
  H    -34.789100   59.577100  110.712000
  C    -32.954800   58.867800  109.930000
  H    -31.851400   59.098600  109.809000
  H    -33.121500   57.797600  110.213000
  H    -33.321800   58.921200  108.928000
  S    -28.493100   63.744200  113.555000
  C    -27.759500   63.169200  115.053000
  C    -28.298100   61.972600  115.352000
  C    -29.220500   61.429400  114.366000
  C    -29.258000   62.210000  113.204000
  H    -27.925500   61.573900  116.266000
  C    -29.727300   59.993600  114.553000
  H    -30.106600   59.606200  113.634000
  H    -30.658500   60.020400  115.200000
  C    -28.813800   58.974700  115.284000
  H    -28.570000   59.472700  116.253000
  H    -27.903500   58.992700  114.634000
  C    -29.488800   57.584800  115.501000
  H    -29.779100   57.143500  114.531000
  H    -30.387600   57.632700  116.095000
  H    -28.755400   56.881400  115.927000
  H    -31.759900   63.017400  109.159000
  H    -27.180900   63.695900  115.832000

 Total Charge           Charge          ....    0
 Multiplicity           Mult            ....    1
 Number of Electrons    NEL             ....  134
 Basis Dimension        Dim             ....  322

ORBITAL ENERGIES
----------------

  NO   OCC          E(Eh)            E(eV)
   0   2.0000     -88.970767     -2421.0177
   1   2.0000     -88.962133     -2420.7827
   2   2.0000     -10.331234      -281.1272
   3   2.0000     -10.329789      -281.0878
   4   2.0000     -10.313297      -280.6391
   5   2.0000     -10.312007      -280.6040
   6   2.0000     -10.306741      -280.4607
   7   2.0000     -10.297939      -280.2212
   8   2.0000     -10.295710      -280.1605
   9   2.0000     -10.293296      -280.0948
  10   2.0000     -10.292411      -280.0707
  11   2.0000     -10.288054      -279.9522
  12   2.0000     -10.287914      -279.9484
  13   2.0000     -10.286347      -279.9057
  14   2.0000     -10.284375      -279.8521
  15   2.0000     -10.278842      -279.7015
  16   2.0000      -8.084722      -219.9965
  17   2.0000      -8.076639      -219.7765
  18   2.0000      -6.043170      -164.4430
  19   2.0000      -6.039552      -164.3446
  20   2.0000      -6.035377      -164.2310
  21   2.0000      -6.035354      -164.2303
  22   2.0000      -6.031172      -164.1165
  23   2.0000      -6.027166      -164.0075
  24   2.0000      -1.011463       -27.5233
  25   2.0000      -0.986564       -26.8458
  26   2.0000      -0.912522       -24.8310
  27   2.0000      -0.902953       -24.5706
  28   2.0000      -0.874019       -23.7833
  29   2.0000      -0.855220       -23.2717
  30   2.0000      -0.839363       -22.8402
  31   2.0000      -0.819599       -22.3024
  32   2.0000      -0.784078       -21.3358
  33   2.0000      -0.772042       -21.0083
  34   2.0000      -0.713931       -19.4270
  35   2.0000      -0.698923       -19.0187
  36   2.0000      -0.697414       -18.9776
  37   2.0000      -0.652170       -17.7464
  38   2.0000      -0.636963       -17.3326
  39   2.0000      -0.633623       -17.2418
  40   2.0000      -0.593147       -16.1404
  41   2.0000      -0.570314       -15.5190
  42   2.0000      -0.563438       -15.3319
  43   2.0000      -0.552115       -15.0238
  44   2.0000      -0.548837       -14.9346
  45   2.0000      -0.522704       -14.2235
  46   2.0000      -0.514827       -14.0092
  47   2.0000      -0.511841       -13.9279
  48   2.0000      -0.498235       -13.5577
  49   2.0000      -0.496515       -13.5109
  50   2.0000      -0.489237       -13.3128
  51   2.0000      -0.481873       -13.1124
  52   2.0000      -0.468775       -12.7560
  53   2.0000      -0.463863       -12.6224
  54   2.0000      -0.460757       -12.5378
  55   2.0000      -0.456027       -12.4091
  56   2.0000      -0.448148       -12.1947
  57   2.0000      -0.438517       -11.9327
  58   2.0000      -0.427468       -11.6320
  59   2.0000      -0.422718       -11.5027
  60   2.0000      -0.421851       -11.4792
  61   2.0000      -0.418979       -11.4010
  62   2.0000      -0.412400       -11.2220
  63   2.0000      -0.357109        -9.7174
  64   2.0000      -0.340984        -9.2786
  65   2.0000      -0.325028        -8.8445
  66   2.0000      -0.286965        -7.8087
  67   0.0000       0.018423         0.5013
  68   0.0000       0.081714         2.2235
  69   0.0000       0.102956         2.8016
  70   0.0000       0.121103         3.2954
  71   0.0000       0.131462         3.5773

MULLIKEN ATOMIC CHARGES
-----------------------
   0 S :    0.102359
   1 C :   -0.135016
   2 C :   -0.069097
   3 C :    0.015267
   4 C :   -0.122607
   5 H :   -0.001493
   6 C :    0.082859
   7 H :    0.006626
   8 H :    0.026894
   9 C :   -0.028507
  10 H :    0.015377
  11 H :    0.025621
  12 C :   -0.088132
  13 H :    0.058722
  14 H :    0.038092
  15 H :    0.017679
  16 S :    0.087740
  17 C :   -0.093792
  18 C :   -0.051425
  19 C :   -0.013823
  20 C :   -0.119535
  21 H :    0.008652
  22 C :    0.006726
  23 H :    0.013226
  24 H :    0.029012
  25 C :   -0.092407
  26 H :    0.041947
  27 H :    0.046488
  28 C :   -0.040850
  29 H :    0.032330
  30 H :    0.034858
  31 H :    0.046037
  32 H :    0.055160
  33 H :    0.065013
Sum of atomic charges:    0.0000000

LOEWDIN ATOMIC CHARGES
----------------------
   0 S :    0.383683
   1 C :   -0.186764
   2 C :   -0.059897
   3 C :   -0.050737
   4 C :   -0.171545
   5 H :    0.026840
   6 C :   -0.021602
   7 H :    0.024329
   8 H :    0.028326
   9 C :   -0.033132
  10 H :    0.017328
  11 H :    0.022344
  12 C :   -0.074096
  13 H :    0.036145
  14 H :    0.029916
  15 H :    0.018633
  16 S :    0.388471
  17 C :   -0.190593
  18 C :   -0.073045
  19 C :   -0.061804
  20 C :   -0.190336
  21 H :    0.026568
  22 C :   -0.043577
  23 H :    0.017414
  24 H :    0.032323
  25 C :   -0.043949
  26 H :    0.024866
  27 H :    0.031005
  28 C :   -0.064969
  29 H :    0.028482
  30 H :    0.024736
  31 H :    0.032721
  32 H :    0.029085
  33 H :    0.042833

  Mayer bond orders larger than 0.100000
B(  0-S ,  1-C ) :   1.1215 B(  0-S ,  4-C ) :   1.1420 B(  1-C ,  2-C ) :   1.6339
B(  1-C , 32-H ) :   0.9583 B(  2-C ,  3-C ) :   1.2446 B(  2-C ,  6-C ) :   1.0074
B(  3-C ,  4-C ) :   1.5652 B(  3-C ,  5-H ) :   0.9969 B(  4-C , 20-C ) :   1.0701
B(  6-C ,  7-H ) :   0.9439 B(  6-C ,  8-H ) :   0.9420 B(  6-C ,  9-C ) :   1.0659
B(  9-C , 10-H ) :   0.9576 B(  9-C , 11-H ) :   0.9555 B(  9-C , 12-C ) :   1.0747
B( 12-C , 13-H ) :   0.9727 B( 12-C , 14-H ) :   0.9749 B( 12-C , 15-H ) :   0.9750
B( 16-S , 17-C ) :   1.1200 B( 16-S , 20-C ) :   1.1345 B( 17-C , 18-C ) :   1.6704
B( 17-C , 33-H ) :   0.9591 B( 18-C , 19-C ) :   1.2040 B( 18-C , 21-H ) :   0.9888
B( 19-C , 20-C ) :   1.5872 B( 19-C , 22-C ) :   1.0457 B( 22-C , 23-H ) :   0.9410
B( 22-C , 24-H ) :   0.9245 B( 22-C , 25-C ) :   1.0609 B( 25-C , 26-H ) :   0.9456
B( 25-C , 27-H ) :   0.9592 B( 25-C , 28-C ) :   1.0740 B( 28-C , 29-H ) :   0.9752
B( 28-C , 30-H ) :   0.9745 B( 28-C , 31-H ) :   0.9744

Dispersion correction           -0.013954130
FINAL SINGLE POINT ENERGY     -1339.863654514774

DIPOLE MOMENT
-------------
                                X             Y             Z
Electronic contribution:     14.21379      26.60432      -4.88590
Nuclear contribution   :    -14.79856     -27.01650       5.26235
                        -----------------------------------------
Total Dipole Moment    :     -0.58478      -0.41218       0.37644
                        -----------------------------------------
Magnitude (a.u.)       :      0.80843
Magnitude (Debye)      :      2.05487

Rotational constants in cm-1:     0.016142     0.009846     0.006584
Rotational constants in MHz :   483.925639   295.174553   197.392590

                             ****ORCA TERMINATED NORMALLY****
TOTAL RUN TIME: 0 days 0 hours 0 minutes 28 seconds 420 msec
