                         Program Version 4.2.1 -  RELEASE  -
|  1> ! wB97X-D3 SP def2-SVP
|  2> %pal
|  3> nprocs 16
|  4> end
|  5>
|  6> * xyz 0 1
|  7> S 	 -42.0194 	 52.5076 	 101.529
|  8> C 	 -41.4154 	 52.6314 	 103.185
|  9> C 	 -42.0705 	 53.5862 	 103.928
| 10> C 	 -43.0529 	 54.26 	 103.178
| 11> C 	 -43.0367 	 53.9345 	 101.845
| 12> H 	 -43.7764 	 54.8735 	 103.512
| 13> C 	 -41.8084 	 53.7077 	 105.41
| 14> H 	 -41.8478 	 54.7524 	 105.635
| 15> H 	 -40.7964 	 53.4684 	 105.755
| 16> C 	 -42.6773 	 52.8405 	 106.32
| 17> H 	 -42.7209 	 53.4552 	 107.23
| 18> H 	 -43.6602 	 52.8463 	 105.824
| 19> C 	 -42.0038 	 51.542 	 106.747
| 20> H 	 -42.4089 	 50.6906 	 106.046
| 21> H 	 -40.913 	 51.5593 	 106.748
| 22> H 	 -42.3461 	 51.1029 	 107.737
| 23> S 	 -44.7199 	 52.9619 	 99.8244
| 24> C 	 -45.9352 	 54.1149 	 99.181
| 25> C 	 -45.8062 	 55.4224 	 99.6147
| 26> C 	 -44.6693 	 55.4798 	 100.507
| 27> C 	 -44.0411 	 54.2344 	 100.806
| 28> H 	 -46.4009 	 56.2478 	 99.3367
| 29> C 	 -44.3274 	 56.8169 	 101.205
| 30> H 	 -44.2867 	 57.5824 	 100.412
| 31> H 	 -43.2762 	 56.8481 	 101.6
| 32> C 	 -45.28 	 57.243 	 102.299
| 33> H 	 -45.781 	 56.3867 	 102.838
| 34> H 	 -45.9861 	 57.7601 	 101.674
| 35> C 	 -44.6235 	 58.2413 	 103.285
| 36> H 	 -44.2534 	 59.1823 	 102.803
| 37> H 	 -43.7066 	 57.8276 	 103.646
| 38> H 	 -45.3167 	 58.4408 	 104.08
| 39> H 	 -40.7398 	 51.8516 	 103.574
| 40> H 	 -46.7491 	 53.8054 	 98.5982
| 41> *
| 42>
| 43>                          ****END OF INPUT****

CARTESIAN COORDINATES (ANGSTROEM)
---------------------------------
  S    -42.019400   52.507600  101.529000
  C    -41.415400   52.631400  103.185000
  C    -42.070500   53.586200  103.928000
  C    -43.052900   54.260000  103.178000
  C    -43.036700   53.934500  101.845000
  H    -43.776400   54.873500  103.512000
  C    -41.808400   53.707700  105.410000
  H    -41.847800   54.752400  105.635000
  H    -40.796400   53.468400  105.755000
  C    -42.677300   52.840500  106.320000
  H    -42.720900   53.455200  107.230000
  H    -43.660200   52.846300  105.824000
  C    -42.003800   51.542000  106.747000
  H    -42.408900   50.690600  106.046000
  H    -40.913000   51.559300  106.748000
  H    -42.346100   51.102900  107.737000
  S    -44.719900   52.961900   99.824400
  C    -45.935200   54.114900   99.181000
  C    -45.806200   55.422400   99.614700
  C    -44.669300   55.479800  100.507000
  C    -44.041100   54.234400  100.806000
  H    -46.400900   56.247800   99.336700
  C    -44.327400   56.816900  101.205000
  H    -44.286700   57.582400  100.412000
  H    -43.276200   56.848100  101.600000
  C    -45.280000   57.243000  102.299000
  H    -45.781000   56.386700  102.838000
  H    -45.986100   57.760100  101.674000
  C    -44.623500   58.241300  103.285000
  H    -44.253400   59.182300  102.803000
  H    -43.706600   57.827600  103.646000
  H    -45.316700   58.440800  104.080000
  H    -40.739800   51.851600  103.574000
  H    -46.749100   53.805400   98.598200

 Total Charge           Charge          ....    0
 Multiplicity           Mult            ....    1
 Number of Electrons    NEL             ....  134
 Basis Dimension        Dim             ....  322

ORBITAL ENERGIES
----------------

  NO   OCC          E(Eh)            E(eV)
   0   2.0000     -88.970012     -2420.9971
   1   2.0000     -88.963678     -2420.8248
   2   2.0000     -10.331918      -281.1458
   3   2.0000     -10.329872      -281.0901
   4   2.0000     -10.319387      -280.8048
   5   2.0000     -10.314643      -280.6757
   6   2.0000     -10.307178      -280.4726
   7   2.0000     -10.299560      -280.2653
   8   2.0000     -10.297959      -280.2217
   9   2.0000     -10.293634      -280.1040
  10   2.0000     -10.291356      -280.0420
  11   2.0000     -10.289267      -279.9852
  12   2.0000     -10.288985      -279.9775
  13   2.0000     -10.288167      -279.9553
  14   2.0000     -10.287537      -279.9381
  15   2.0000     -10.280179      -279.7379
  16   2.0000      -8.083906      -219.9743
  17   2.0000      -8.078186      -219.8186
  18   2.0000      -6.042480      -164.4242
  19   2.0000      -6.038634      -164.3196
  20   2.0000      -6.036552      -164.2629
  21   2.0000      -6.034540      -164.2082
  22   2.0000      -6.032989      -164.1660
  23   2.0000      -6.028871      -164.0539
  24   2.0000      -1.003319       -27.3017
  25   2.0000      -0.979141       -26.6438
  26   2.0000      -0.915122       -24.9017
  27   2.0000      -0.908607       -24.7244
  28   2.0000      -0.867805       -23.6142
  29   2.0000      -0.851731       -23.1768
  30   2.0000      -0.844460       -22.9789
  31   2.0000      -0.815803       -22.1991
  32   2.0000      -0.781998       -21.2792
  33   2.0000      -0.768136       -20.9020
  34   2.0000      -0.705342       -19.1933
  35   2.0000      -0.693943       -18.8831
  36   2.0000      -0.692125       -18.8337
  37   2.0000      -0.665575       -18.1112
  38   2.0000      -0.647840       -17.6286
  39   2.0000      -0.628063       -17.0905
  40   2.0000      -0.596710       -16.2373
  41   2.0000      -0.574507       -15.6331
  42   2.0000      -0.563805       -15.3419
  43   2.0000      -0.551153       -14.9976
  44   2.0000      -0.538808       -14.6617
  45   2.0000      -0.528926       -14.3928
  46   2.0000      -0.519024       -14.1234
  47   2.0000      -0.509209       -13.8563
  48   2.0000      -0.500084       -13.6080
  49   2.0000      -0.492195       -13.3933
  50   2.0000      -0.486973       -13.2512
  51   2.0000      -0.481550       -13.1037
  52   2.0000      -0.473747       -12.8913
  53   2.0000      -0.466677       -12.6989
  54   2.0000      -0.460485       -12.5304
  55   2.0000      -0.448298       -12.1988
  56   2.0000      -0.444374       -12.0920
  57   2.0000      -0.441312       -12.0087
  58   2.0000      -0.435117       -11.8401
  59   2.0000      -0.431619       -11.7449
  60   2.0000      -0.419109       -11.4045
  61   2.0000      -0.406081       -11.0500
  62   2.0000      -0.395935       -10.7739
  63   2.0000      -0.353463        -9.6182
  64   2.0000      -0.336738        -9.1631
  65   2.0000      -0.328436        -8.9372
  66   2.0000      -0.283281        -7.7085
  67   0.0000       0.022377         0.6089
  68   0.0000       0.068694         1.8693
  69   0.0000       0.093362         2.5405
  70   0.0000       0.121126         3.2960
  71   0.0000       0.128982         3.5098

MULLIKEN ATOMIC CHARGES
-----------------------
   0 S :    0.072621
   1 C :   -0.124451
   2 C :   -0.061500
   3 C :    0.064026
   4 C :   -0.112810
   5 H :   -0.046586
   6 C :    0.053170
   7 H :    0.017514
   8 H :    0.009489
   9 C :   -0.048216
  10 H :    0.029039
  11 H :    0.041357
  12 C :   -0.093508
  13 H :    0.045293
  14 H :    0.040270
  15 H :    0.044858
  16 S :    0.106050
  17 C :   -0.072118
  18 C :    0.005421
  19 C :   -0.068950
  20 C :   -0.128912
  21 H :    0.013354
  22 C :    0.004266
  23 H :    0.027294
  24 H :    0.028079
  25 C :   -0.079062
  26 H :    0.055548
  27 H :    0.021985
  28 C :   -0.035736
  29 H :    0.032257
  30 H :    0.019695
  31 H :    0.040181
  32 H :    0.060224
  33 H :    0.039858
Sum of atomic charges:   -0.0000000

LOEWDIN ATOMIC CHARGES
----------------------
   0 S :    0.373879
   1 C :   -0.183213
   2 C :   -0.064862
   3 C :   -0.045869
   4 C :   -0.164619
   5 H :    0.013260
   6 C :   -0.033246
   7 H :    0.025741
   8 H :    0.029714
   9 C :   -0.045359
  10 H :    0.028672
  11 H :    0.030124
  12 C :   -0.081582
  13 H :    0.038647
  14 H :    0.023734
  15 H :    0.032973
  16 S :    0.390671
  17 C :   -0.157414
  18 C :   -0.057526
  19 C :   -0.052901
  20 C :   -0.208640
  21 H :    0.029797
  22 C :   -0.043168
  23 H :    0.029573
  24 H :    0.027042
  25 C :   -0.048372
  26 H :    0.030726
  27 H :    0.022796
  28 C :   -0.062736
  29 H :    0.031927
  30 H :    0.018171
  31 H :    0.025314
  32 H :    0.030820
  33 H :    0.015927

  Mayer bond orders larger than 0.100000
B(  0-S ,  1-C ) :   1.1347 B(  0-S ,  4-C ) :   1.1382 B(  1-C ,  2-C ) :   1.6135
B(  1-C , 32-H ) :   0.9648 B(  2-C ,  3-C ) :   1.2321 B(  2-C ,  6-C ) :   1.0296
B(  3-C ,  4-C ) :   1.5705 B(  3-C ,  5-H ) :   1.0150 B(  4-C , 20-C ) :   1.0501
B(  6-C ,  7-H ) :   0.9390 B(  6-C ,  8-H ) :   0.9426 B(  6-C ,  9-C ) :   1.0603
B(  9-C , 10-H ) :   0.9549 B(  9-C , 11-H ) :   0.9605 B(  9-C , 12-C ) :   1.0676
B( 12-C , 13-H ) :   0.9736 B( 12-C , 14-H ) :   0.9743 B( 12-C , 15-H ) :   0.9758
B( 16-S , 17-C ) :   1.1465 B( 16-S , 20-C ) :   1.1263 B( 17-C , 18-C ) :   1.6081
B( 17-C , 33-H ) :   0.9710 B( 18-C , 19-C ) :   1.2338 B( 18-C , 21-H ) :   0.9980
B( 19-C , 20-C ) :   1.5945 B( 19-C , 22-C ) :   1.0521 B( 22-C , 23-H ) :   0.9388
B( 22-C , 24-H ) :   0.9461 B( 22-C , 25-C ) :   1.0296 B( 25-C , 26-H ) :   0.9606
B( 25-C , 27-H ) :   0.9524 B( 25-C , 28-C ) :   1.0839 B( 28-C , 29-H ) :   0.9715
B( 28-C , 30-H ) :   0.9760 B( 28-C , 31-H ) :   0.9751

Dispersion correction           -0.014513592
FINAL SINGLE POINT ENERGY     -1339.852486330899

DIPOLE MOMENT
-------------
                                X             Y             Z
Electronic contribution:      0.56573     -13.17255     -24.54647
Nuclear contribution   :     -0.86996      13.54352      25.12796
                        -----------------------------------------
Total Dipole Moment    :     -0.30423       0.37097       0.58149
                        -----------------------------------------
Magnitude (a.u.)       :      0.75386
Magnitude (Debye)      :      1.91616

Rotational constants in cm-1:     0.018291     0.008945     0.006677
Rotational constants in MHz :   548.363757   268.156143   200.162899

                             ****ORCA TERMINATED NORMALLY****
TOTAL RUN TIME: 0 days 0 hours 0 minutes 30 seconds 214 msec
