                         Program Version 4.2.1 -  RELEASE  -
|  1> ! wB97X-D3 SP def2-SVP
|  2> %pal
|  3> nprocs 16
|  4> end
|  5>
|  6> * xyz 0 1
|  7> S 	 -16.0172 	 -3.8907 	 83.8651
|  8> C 	 -16.2077 	 -4.9183 	 82.4754
|  9> C 	 -16.7911 	 -6.12482 	 82.8269
| 10> C 	 -17.3646 	 -6.07619 	 84.1733
| 11> C 	 -17.2549 	 -4.8317 	 84.7277
| 12> H 	 -17.9568 	 -6.83969 	 84.6333
| 13> C 	 -16.7519 	 -7.37649 	 82.1511
| 14> H 	 -17.5852 	 -8.00742 	 82.5005
| 15> H 	 -15.842 	 -7.90396 	 82.4733
| 16> C 	 -16.8048 	 -7.36276 	 80.5609
| 17> H 	 -17.8097 	 -6.90034 	 80.2549
| 18> H 	 -16.0154 	 -6.7345 	 80.2067
| 19> C 	 -16.6159 	 -8.71927 	 79.9177
| 20> H 	 -17.3901 	 -9.46147 	 80.2073
| 21> H 	 -16.7935 	 -8.76014 	 78.8418
| 22> H 	 -15.6511 	 -9.18242 	 80.0961
| 23> S 	 -19.3978 	 -5.17142 	 86.3806
| 24> C 	 -19.3852 	 -4.3606 	 87.9251
| 25> C 	 -18.2459 	 -3.59776 	 88.2405
| 26> C 	 -17.3777 	 -3.67603 	 87.0983
| 27> C 	 -17.8138 	 -4.48762 	 86.0254
| 28> H 	 -18.1858 	 -2.94222 	 89.1144
| 29> C 	 -16.0631 	 -2.91098 	 87.1995
| 30> H 	 -15.3891 	 -3.53802 	 86.5602
| 31> H 	 -15.8181 	 -2.81266 	 88.22
| 32> C 	 -16.1032 	 -1.47161 	 86.5292
| 33> H 	 -16.8532 	 -0.972558 	 87.0686
| 34> H 	 -16.3907 	 -1.53664 	 85.4368
| 35> C 	 -14.8505 	 -0.663297 	 86.7185
| 36> H 	 -15.0345 	 0.346162 	 86.1987
| 37> H 	 -13.9598 	 -1.20422 	 86.2791
| 38> H 	 -14.734 	 -0.488616 	 87.7263
| 39> H 	 -15.6961 	 -4.79267 	 81.4958
| 40> H 	 -20.2209 	 -4.30016 	 88.5505
| 41> *
| 42>
| 43>                          ****END OF INPUT****

CARTESIAN COORDINATES (ANGSTROEM)
---------------------------------
  S    -16.017200   -3.890700   83.865100
  C    -16.207700   -4.918300   82.475400
  C    -16.791100   -6.124820   82.826900
  C    -17.364600   -6.076190   84.173300
  C    -17.254900   -4.831700   84.727700
  H    -17.956800   -6.839690   84.633300
  C    -16.751900   -7.376490   82.151100
  H    -17.585200   -8.007420   82.500500
  H    -15.842000   -7.903960   82.473300
  C    -16.804800   -7.362760   80.560900
  H    -17.809700   -6.900340   80.254900
  H    -16.015400   -6.734500   80.206700
  C    -16.615900   -8.719270   79.917700
  H    -17.390100   -9.461470   80.207300
  H    -16.793500   -8.760140   78.841800
  H    -15.651100   -9.182420   80.096100
  S    -19.397800   -5.171420   86.380600
  C    -19.385200   -4.360600   87.925100
  C    -18.245900   -3.597760   88.240500
  C    -17.377700   -3.676030   87.098300
  C    -17.813800   -4.487620   86.025400
  H    -18.185800   -2.942220   89.114400
  C    -16.063100   -2.910980   87.199500
  H    -15.389100   -3.538020   86.560200
  H    -15.818100   -2.812660   88.220000
  C    -16.103200   -1.471610   86.529200
  H    -16.853200   -0.972558   87.068600
  H    -16.390700   -1.536640   85.436800
  C    -14.850500   -0.663297   86.718500
  H    -15.034500    0.346162   86.198700
  H    -13.959800   -1.204220   86.279100
  H    -14.734000   -0.488616   87.726300
  H    -15.696100   -4.792670   81.495800
  H    -20.220900   -4.300160   88.550500

 Total Charge           Charge          ....    0
 Multiplicity           Mult            ....    1
 Number of Electrons    NEL             ....  134
 Basis Dimension        Dim             ....  322

ORBITAL ENERGIES
----------------

  NO   OCC          E(Eh)            E(eV)
   0   2.0000     -88.971731     -2421.0439
   1   2.0000     -88.967128     -2420.9186
   2   2.0000     -10.331864      -281.1443
   3   2.0000     -10.328540      -281.0539
   4   2.0000     -10.316507      -280.7264
   5   2.0000     -10.313459      -280.6435
   6   2.0000     -10.305406      -280.4244
   7   2.0000     -10.299832      -280.2727
   8   2.0000     -10.299068      -280.2519
   9   2.0000     -10.296237      -280.1749
  10   2.0000     -10.291235      -280.0387
  11   2.0000     -10.291183      -280.0373
  12   2.0000     -10.289484      -279.9911
  13   2.0000     -10.280407      -279.7441
  14   2.0000     -10.280334      -279.7421
  15   2.0000     -10.276435      -279.6360
  16   2.0000      -8.085979      -220.0307
  17   2.0000      -8.081031      -219.8960
  18   2.0000      -6.044451      -164.4779
  19   2.0000      -6.040653      -164.3745
  20   2.0000      -6.039807      -164.3515
  21   2.0000      -6.036730      -164.2678
  22   2.0000      -6.035998      -164.2479
  23   2.0000      -6.031216      -164.1177
  24   2.0000      -1.005692       -27.3663
  25   2.0000      -0.982533       -26.7361
  26   2.0000      -0.913020       -24.8445
  27   2.0000      -0.905037       -24.6273
  28   2.0000      -0.870989       -23.7008
  29   2.0000      -0.856907       -23.3176
  30   2.0000      -0.850053       -23.1311
  31   2.0000      -0.813483       -22.1360
  32   2.0000      -0.779226       -21.2038
  33   2.0000      -0.764415       -20.8008
  34   2.0000      -0.713077       -19.4038
  35   2.0000      -0.698070       -18.9955
  36   2.0000      -0.684396       -18.6234
  37   2.0000      -0.668355       -18.1869
  38   2.0000      -0.636976       -17.3330
  39   2.0000      -0.608938       -16.5700
  40   2.0000      -0.587239       -15.9796
  41   2.0000      -0.574369       -15.6294
  42   2.0000      -0.571413       -15.5489
  43   2.0000      -0.565236       -15.3808
  44   2.0000      -0.522988       -14.2312
  45   2.0000      -0.521472       -14.1900
  46   2.0000      -0.517284       -14.0760
  47   2.0000      -0.512274       -13.9397
  48   2.0000      -0.508896       -13.8478
  49   2.0000      -0.503978       -13.7140
  50   2.0000      -0.488401       -13.2901
  51   2.0000      -0.480002       -13.0615
  52   2.0000      -0.473383       -12.8814
  53   2.0000      -0.465013       -12.6537
  54   2.0000      -0.458251       -12.4696
  55   2.0000      -0.456869       -12.4320
  56   2.0000      -0.448647       -12.2083
  57   2.0000      -0.432523       -11.7696
  58   2.0000      -0.429585       -11.6896
  59   2.0000      -0.425576       -11.5805
  60   2.0000      -0.416767       -11.3408
  61   2.0000      -0.411880       -11.2078
  62   2.0000      -0.409918       -11.1544
  63   2.0000      -0.358805        -9.7636
  64   2.0000      -0.333011        -9.0617
  65   2.0000      -0.319651        -8.6981
  66   2.0000      -0.279330        -7.6010
  67   0.0000       0.020973         0.5707
  68   0.0000       0.069248         1.8843
  69   0.0000       0.090412         2.4602
  70   0.0000       0.112868         3.0713
  71   0.0000       0.136844         3.7237

MULLIKEN ATOMIC CHARGES
-----------------------
   0 S :    0.094509
   1 C :   -0.119849
   2 C :   -0.057400
   3 C :   -0.021317
   4 C :   -0.083275
   5 H :    0.016115
   6 C :    0.024570
   7 H :    0.025405
   8 H :    0.048247
   9 C :   -0.088048
  10 H :    0.048097
  11 H :    0.027588
  12 C :   -0.051911
  13 H :    0.023786
  14 H :    0.030844
  15 H :    0.033222
  16 S :    0.110628
  17 C :   -0.067723
  18 C :   -0.038537
  19 C :   -0.072139
  20 C :   -0.141391
  21 H :    0.036527
  22 C :    0.049884
  23 H :    0.029986
  24 H :    0.010886
  25 C :   -0.086492
  26 H :    0.005853
  27 H :    0.044079
  28 C :   -0.024913
  29 H :    0.046724
  30 H :    0.041461
  31 H :    0.011633
  32 H :    0.058883
  33 H :    0.034070
Sum of atomic charges:   -0.0000000

LOEWDIN ATOMIC CHARGES
----------------------
   0 S :    0.400434
   1 C :   -0.212900
   2 C :   -0.060876
   3 C :   -0.065314
   4 C :   -0.171446
   5 H :    0.023465
   6 C :   -0.040438
   7 H :    0.031730
   8 H :    0.041728
   9 C :   -0.038869
  10 H :    0.035833
  11 H :    0.017379
  12 C :   -0.075601
  13 H :    0.027630
  14 H :    0.029099
  15 H :    0.024516
  16 S :    0.417259
  17 C :   -0.173265
  18 C :   -0.069534
  19 C :   -0.052884
  20 C :   -0.198256
  21 H :    0.039646
  22 C :   -0.031180
  23 H :    0.024900
  24 H :    0.021577
  25 C :   -0.043418
  26 H :    0.012670
  27 H :    0.021428
  28 C :   -0.063706
  29 H :    0.039230
  30 H :    0.030969
  31 H :    0.009822
  32 H :    0.034806
  33 H :    0.013568

  Mayer bond orders larger than 0.100000
B(  0-S ,  1-C ) :   1.1062 B(  0-S ,  4-C ) :   1.1233 B(  1-C ,  2-C ) :   1.6250
B(  1-C , 32-H ) :   0.9638 B(  2-C ,  3-C ) :   1.1987 B(  2-C ,  6-C ) :   1.0577
B(  3-C ,  4-C ) :   1.5681 B(  3-C ,  5-H ) :   0.9948 B(  4-C , 20-C ) :   1.0859
B(  6-C ,  7-H ) :   0.9393 B(  6-C ,  8-H ) :   0.9224 B(  6-C ,  9-C ) :   1.0586
B(  9-C , 10-H ) :   0.9593 B(  9-C , 11-H ) :   0.9520 B(  9-C , 12-C ) :   1.0916
B( 12-C , 13-H ) :   0.9712 B( 12-C , 14-H ) :   0.9713 B( 12-C , 15-H ) :   0.9736
B( 16-S , 17-C ) :   1.1722 B( 16-S , 20-C ) :   1.1275 B( 17-C , 18-C ) :   1.6005
B( 17-C , 33-H ) :   0.9677 B( 18-C , 19-C ) :   1.2492 B( 18-C , 21-H ) :   0.9854
B( 19-C , 20-C ) :   1.5677 B( 19-C , 22-C ) :   1.0461 B( 22-C , 23-H ) :   0.9300
B( 22-C , 24-H ) :   0.9353 B( 22-C , 25-C ) :   1.0639 B( 25-C , 26-H ) :   0.9524
B( 25-C , 27-H ) :   0.9505 B( 25-C , 28-C ) :   1.0921 B( 28-C , 29-H ) :   0.9707
B( 28-C , 30-H ) :   0.9730 B( 28-C , 31-H ) :   0.9724

Dispersion correction           -0.013757417
FINAL SINGLE POINT ENERGY     -1339.856613166956

DIPOLE MOMENT
-------------
                                X             Y             Z
Electronic contribution:    -10.27214       1.18425      10.09133
Nuclear contribution   :     10.34142      -1.35630     -10.07160
                        -----------------------------------------
Total Dipole Moment    :      0.06929      -0.17205       0.01973
                        -----------------------------------------
Magnitude (a.u.)       :      0.18653
Magnitude (Debye)      :      0.47411

Rotational constants in cm-1:     0.022664     0.007449     0.005775
Rotational constants in MHz :   679.463479   223.323011   173.123451

                             ****ORCA TERMINATED NORMALLY****
TOTAL RUN TIME: 0 days 0 hours 0 minutes 33 seconds 393 msec
