                         Program Version 4.2.1 -  RELEASE  -
|  1> ! wB97X-D3 SP def2-SVP
|  2> %pal
|  3> nprocs 16
|  4> end
|  5>
|  6> * xyz 0 1
|  7> S 	 7.89467 	 -7.52279 	 97.7812
|  8> C 	 8.91781 	 -7.78602 	 99.141
|  9> C 	 10.0685 	 -7.10391 	 99.063
| 10> C 	 10.022 	 -6.11419 	 98.0008
| 11> C 	 8.87558 	 -6.13932 	 97.3007
| 12> H 	 10.7969 	 -5.42268 	 97.665
| 13> C 	 11.2759 	 -7.24865 	 99.9191
| 14> H 	 12.104 	 -6.87065 	 99.2907
| 15> H 	 11.626 	 -8.24386 	 100.129
| 16> C 	 11.2656 	 -6.36868 	 101.198
| 17> H 	 12.2987 	 -6.18914 	 101.587
| 18> H 	 10.7927 	 -5.41424 	 100.894
| 19> C 	 10.5165 	 -7.06679 	 102.348
| 20> H 	 9.51373 	 -7.35542 	 101.901
| 21> H 	 10.9771 	 -7.95226 	 102.786
| 22> H 	 10.3006 	 -6.39526 	 103.113
| 23> S 	 8.44078 	 -6.07928 	 94.5992
| 24> C 	 7.9551 	 -4.55969 	 93.8748
| 25> C 	 8.08193 	 -3.56747 	 94.7964
| 26> C 	 8.35292 	 -3.93466 	 96.097
| 27> C 	 8.59146 	 -5.31861 	 96.1694
| 28> H 	 7.84235 	 -2.6345 	 94.3677
| 29> C 	 8.54582 	 -2.90338 	 97.1986
| 30> H 	 9.52483 	 -2.4201 	 97.0231
| 31> H 	 8.66614 	 -3.423 	 98.1773
| 32> C 	 7.4262 	 -1.84705 	 97.2767
| 33> H 	 7.32276 	 -1.17071 	 96.438
| 34> H 	 7.61161 	 -1.16931 	 98.1407
| 35> C 	 5.98006 	 -2.42127 	 97.3644
| 36> H 	 5.20476 	 -1.63799 	 97.5208
| 37> H 	 5.91294 	 -3.16721 	 98.2205
| 38> H 	 5.70534 	 -2.84866 	 96.4053
| 39> H 	 8.84809 	 -8.43783 	 99.9879
| 40> H 	 7.61434 	 -4.45402 	 92.792
| 41> *
| 42>
| 43>                          ****END OF INPUT****

CARTESIAN COORDINATES (ANGSTROEM)
---------------------------------
  S      7.894670   -7.522790   97.781200
  C      8.917810   -7.786020   99.141000
  C     10.068500   -7.103910   99.063000
  C     10.022000   -6.114190   98.000800
  C      8.875580   -6.139320   97.300700
  H     10.796900   -5.422680   97.665000
  C     11.275900   -7.248650   99.919100
  H     12.104000   -6.870650   99.290700
  H     11.626000   -8.243860  100.129000
  C     11.265600   -6.368680  101.198000
  H     12.298700   -6.189140  101.587000
  H     10.792700   -5.414240  100.894000
  C     10.516500   -7.066790  102.348000
  H      9.513730   -7.355420  101.901000
  H     10.977100   -7.952260  102.786000
  H     10.300600   -6.395260  103.113000
  S      8.440780   -6.079280   94.599200
  C      7.955100   -4.559690   93.874800
  C      8.081930   -3.567470   94.796400
  C      8.352920   -3.934660   96.097000
  C      8.591460   -5.318610   96.169400
  H      7.842350   -2.634500   94.367700
  C      8.545820   -2.903380   97.198600
  H      9.524830   -2.420100   97.023100
  H      8.666140   -3.423000   98.177300
  C      7.426200   -1.847050   97.276700
  H      7.322760   -1.170710   96.438000
  H      7.611610   -1.169310   98.140700
  C      5.980060   -2.421270   97.364400
  H      5.204760   -1.637990   97.520800
  H      5.912940   -3.167210   98.220500
  H      5.705340   -2.848660   96.405300
  H      8.848090   -8.437830   99.987900
  H      7.614340   -4.454020   92.792000

 Total Charge           Charge          ....    0
 Multiplicity           Mult            ....    1
 Number of Electrons    NEL             ....  134
 Basis Dimension        Dim             ....  322

ORBITAL ENERGIES
----------------

  NO   OCC          E(Eh)            E(eV)
   0   2.0000     -88.964459     -2420.8460
   1   2.0000     -88.963529     -2420.8207
   2   2.0000     -10.323602      -280.9195
   3   2.0000     -10.320951      -280.8474
   4   2.0000     -10.318407      -280.7781
   5   2.0000     -10.306410      -280.4517
   6   2.0000     -10.301774      -280.3255
   7   2.0000     -10.298900      -280.2473
   8   2.0000     -10.295335      -280.1503
   9   2.0000     -10.293063      -280.0885
  10   2.0000     -10.291410      -280.0435
  11   2.0000     -10.289272      -279.9853
  12   2.0000     -10.288936      -279.9762
  13   2.0000     -10.282943      -279.8131
  14   2.0000     -10.279983      -279.7326
  15   2.0000     -10.276930      -279.6495
  16   2.0000      -8.079670      -219.8590
  17   2.0000      -8.078436      -219.8254
  18   2.0000      -6.038328      -164.3113
  19   2.0000      -6.036867      -164.2715
  20   2.0000      -6.034309      -164.2019
  21   2.0000      -6.032867      -164.1627
  22   2.0000      -6.030020      -164.0852
  23   2.0000      -6.029334      -164.0665
  24   2.0000      -1.013627       -27.5822
  25   2.0000      -0.991142       -26.9703
  26   2.0000      -0.913457       -24.8564
  27   2.0000      -0.904586       -24.6150
  28   2.0000      -0.876421       -23.8486
  29   2.0000      -0.849063       -23.1042
  30   2.0000      -0.843971       -22.9656
  31   2.0000      -0.816869       -22.2281
  32   2.0000      -0.784268       -21.3410
  33   2.0000      -0.774594       -21.0778
  34   2.0000      -0.711247       -19.3540
  35   2.0000      -0.695616       -18.9287
  36   2.0000      -0.691388       -18.8136
  37   2.0000      -0.654087       -17.7986
  38   2.0000      -0.642749       -17.4901
  39   2.0000      -0.620322       -16.8798
  40   2.0000      -0.598013       -16.2728
  41   2.0000      -0.577552       -15.7160
  42   2.0000      -0.551726       -15.0132
  43   2.0000      -0.546711       -14.8768
  44   2.0000      -0.537233       -14.6189
  45   2.0000      -0.532063       -14.4782
  46   2.0000      -0.520833       -14.1726
  47   2.0000      -0.517081       -14.0705
  48   2.0000      -0.503210       -13.6930
  49   2.0000      -0.494203       -13.4479
  50   2.0000      -0.485903       -13.2221
  51   2.0000      -0.479443       -13.0463
  52   2.0000      -0.475763       -12.9462
  53   2.0000      -0.463784       -12.6202
  54   2.0000      -0.461321       -12.5532
  55   2.0000      -0.443363       -12.0645
  56   2.0000      -0.438602       -11.9350
  57   2.0000      -0.435878       -11.8609
  58   2.0000      -0.434486       -11.8230
  59   2.0000      -0.428918       -11.6714
  60   2.0000      -0.417282       -11.3548
  61   2.0000      -0.415121       -11.2960
  62   2.0000      -0.408313       -11.1108
  63   2.0000      -0.345595        -9.4041
  64   2.0000      -0.333094        -9.0640
  65   2.0000      -0.327112        -8.9012
  66   2.0000      -0.297398        -8.0926
  67   0.0000       0.035679         0.9709
  68   0.0000       0.064878         1.7654
  69   0.0000       0.112535         3.0622
  70   0.0000       0.122977         3.3464
  71   0.0000       0.138613         3.7719

MULLIKEN ATOMIC CHARGES
-----------------------
   0 S :    0.124255
   1 C :   -0.087415
   2 C :   -0.100027
   3 C :    0.022686
   4 C :   -0.149472
   5 H :    0.020807
   6 C :    0.059835
   7 H :    0.020780
   8 H :    0.022698
   9 C :   -0.074355
  10 H :    0.036171
  11 H :    0.035022
  12 C :   -0.042749
  13 H :    0.016745
  14 H :    0.037881
  15 H :    0.023576
  16 S :    0.107467
  17 C :   -0.142484
  18 C :   -0.020981
  19 C :   -0.002783
  20 C :   -0.197467
  21 H :   -0.001305
  22 C :    0.089423
  23 H :    0.046975
  24 H :    0.034551
  25 C :   -0.095063
  26 H :    0.025814
  27 H :    0.034460
  28 C :   -0.082774
  29 H :    0.035471
  30 H :    0.045381
  31 H :    0.038985
  32 H :    0.033495
  33 H :    0.084396
Sum of atomic charges:   -0.0000000

LOEWDIN ATOMIC CHARGES
----------------------
   0 S :    0.404669
   1 C :   -0.197893
   2 C :   -0.068456
   3 C :   -0.055158
   4 C :   -0.194868
   5 H :    0.036028
   6 C :   -0.038293
   7 H :    0.036575
   8 H :    0.026025
   9 C :   -0.036570
  10 H :    0.025448
  11 H :    0.028044
  12 C :   -0.067375
  13 H :    0.027812
  14 H :    0.025645
  15 H :    0.016579
  16 S :    0.402548
  17 C :   -0.194394
  18 C :   -0.075604
  19 C :   -0.057034
  20 C :   -0.198171
  21 H :    0.025889
  22 C :   -0.030735
  23 H :    0.039410
  24 H :    0.035580
  25 C :   -0.048782
  26 H :    0.020193
  27 H :    0.028132
  28 C :   -0.071714
  29 H :    0.028193
  30 H :    0.030354
  31 H :    0.023471
  32 H :    0.027816
  33 H :    0.046637

  Mayer bond orders larger than 0.100000
B(  0-S ,  1-C ) :   1.1221 B(  0-S ,  4-C ) :   1.1158 B(  1-C ,  2-C ) :   1.6654
B(  1-C , 32-H ) :   0.9582 B(  2-C ,  3-C ) :   1.1880 B(  2-C ,  6-C ) :   1.0327
B(  3-C ,  4-C ) :   1.6263 B(  3-C ,  5-H ) :   0.9935 B(  4-C , 20-C ) :   1.0517
B(  6-C ,  7-H ) :   0.9337 B(  6-C ,  8-H ) :   0.9435 B(  6-C ,  9-C ) :   1.0611
B(  9-C , 10-H ) :   0.9567 B(  9-C , 11-H ) :   0.9545 B(  9-C , 12-C ) :   1.0800
B( 12-C , 13-H ) :   0.9709 B( 12-C , 14-H ) :   0.9761 B( 12-C , 15-H ) :   0.9728
B( 16-S , 17-C ) :   1.1498 B( 16-S , 20-C ) :   1.1650 B( 17-C , 18-C ) :   1.6055
B( 17-C , 20-C ) :   0.1083 B( 17-C , 33-H ) :   0.9584 B( 18-C , 19-C ) :   1.2400
B( 18-C , 21-H ) :   0.9975 B( 19-C , 20-C ) :   1.5594 B( 19-C , 22-C ) :   1.0384
B( 22-C , 23-H ) :   0.9385 B( 22-C , 24-H ) :   0.9299 B( 22-C , 25-C ) :   1.0646
B( 25-C , 26-H ) :   0.9557 B( 25-C , 27-H ) :   0.9583 B( 25-C , 28-C ) :   1.0729
B( 28-C , 29-H ) :   0.9743 B( 28-C , 30-H ) :   0.9776 B( 28-C , 31-H ) :   0.9714

Dispersion correction           -0.014681470
FINAL SINGLE POINT ENERGY     -1339.874290023007

DIPOLE MOMENT
-------------
                                X             Y             Z
Electronic contribution:     -3.95277     -13.49935     -20.31400
Nuclear contribution   :      4.31220      13.95825      20.54873
                        -----------------------------------------
Total Dipole Moment    :      0.35942       0.45889       0.23473
                        -----------------------------------------
Magnitude (a.u.)       :      0.62838
Magnitude (Debye)      :      1.59722

Rotational constants in cm-1:     0.020879     0.008214     0.006874
Rotational constants in MHz :   625.944761   246.246471   206.087175

                             ****ORCA TERMINATED NORMALLY****
TOTAL RUN TIME: 0 days 0 hours 0 minutes 34 seconds 755 msec
