                         Program Version 4.2.1 -  RELEASE  -
|  1> ! wB97X-D3 SP def2-SVP
|  2> %pal
|  3> nprocs 16
|  4> end
|  5>
|  6> * xyz 0 1
|  7> S 	 -49.1996 	 7.97776 	 94.3956
|  8> C 	 -48.7846 	 6.92797 	 95.7803
|  9> C 	 -48.6231 	 5.57646 	 95.3699
| 10> C 	 -49.0102 	 5.46668 	 93.9857
| 11> C 	 -49.4214 	 6.62471 	 93.372
| 12> H 	 -49.0051 	 4.51217 	 93.5047
| 13> C 	 -48.1156 	 4.39274 	 96.1999
| 14> H 	 -47.6359 	 4.7613 	 97.0634
| 15> H 	 -47.3149 	 4.01736 	 95.5781
| 16> C 	 -49.1663 	 3.32347 	 96.6918
| 17> H 	 -48.5849 	 2.65733 	 97.3333
| 18> H 	 -49.8869 	 3.76474 	 97.3558
| 19> C 	 -49.7632 	 2.46259 	 95.5681
| 20> H 	 -50.0551 	 3.12946 	 94.7434
| 21> H 	 -49.1803 	 1.5318 	 95.3466
| 22> H 	 -50.7177 	 2.16404 	 96.0113
| 23> S 	 -51.3768 	 6.42388 	 91.4502
| 24> C 	 -51.0762 	 6.9709 	 89.8296
| 25> C 	 -49.7892 	 7.38533 	 89.6951
| 26> C 	 -49.0569 	 7.30451 	 90.9155
| 27> C 	 -49.769 	 6.77226 	 91.9484
| 28> H 	 -49.513 	 7.84191 	 88.7211
| 29> C 	 -47.5834 	 7.76735 	 91.0162
| 30> H 	 -47.0305 	 7.62306 	 90.0797
| 31> H 	 -47.1407 	 7.05908 	 91.7332
| 32> C 	 -47.2504 	 9.28905 	 91.559
| 33> H 	 -46.0894 	 9.37778 	 91.5083
| 34> H 	 -47.5435 	 9.42966 	 92.6728
| 35> C 	 -47.8698 	 10.3927 	 90.6554
| 36> H 	 -48.96 	 10.374 	 90.616
| 37> H 	 -47.4283 	 10.2884 	 89.6625
| 38> H 	 -47.5169 	 11.3779 	 90.9193
| 39> H 	 -48.7333 	 7.17089 	 96.8341
| 40> H 	 -51.8518 	 6.84424 	 89.0924
| 41> *
| 42>
| 43>                          ****END OF INPUT****

CARTESIAN COORDINATES (ANGSTROEM)
---------------------------------
  S    -49.199600    7.977760   94.395600
  C    -48.784600    6.927970   95.780300
  C    -48.623100    5.576460   95.369900
  C    -49.010200    5.466680   93.985700
  C    -49.421400    6.624710   93.372000
  H    -49.005100    4.512170   93.504700
  C    -48.115600    4.392740   96.199900
  H    -47.635900    4.761300   97.063400
  H    -47.314900    4.017360   95.578100
  C    -49.166300    3.323470   96.691800
  H    -48.584900    2.657330   97.333300
  H    -49.886900    3.764740   97.355800
  C    -49.763200    2.462590   95.568100
  H    -50.055100    3.129460   94.743400
  H    -49.180300    1.531800   95.346600
  H    -50.717700    2.164040   96.011300
  S    -51.376800    6.423880   91.450200
  C    -51.076200    6.970900   89.829600
  C    -49.789200    7.385330   89.695100
  C    -49.056900    7.304510   90.915500
  C    -49.769000    6.772260   91.948400
  H    -49.513000    7.841910   88.721100
  C    -47.583400    7.767350   91.016200
  H    -47.030500    7.623060   90.079700
  H    -47.140700    7.059080   91.733200
  C    -47.250400    9.289050   91.559000
  H    -46.089400    9.377780   91.508300
  H    -47.543500    9.429660   92.672800
  C    -47.869800   10.392700   90.655400
  H    -48.960000   10.374000   90.616000
  H    -47.428300   10.288400   89.662500
  H    -47.516900   11.377900   90.919300
  H    -48.733300    7.170890   96.834100
  H    -51.851800    6.844240   89.092400

 Total Charge           Charge          ....    0
 Multiplicity           Mult            ....    1
 Number of Electrons    NEL             ....  134
 Basis Dimension        Dim             ....  322

ORBITAL ENERGIES
----------------

  NO   OCC          E(Eh)            E(eV)
   0   2.0000     -88.970281     -2421.0044
   1   2.0000     -88.960002     -2420.7247
   2   2.0000     -10.326498      -280.9983
   3   2.0000     -10.320649      -280.8391
   4   2.0000     -10.318815      -280.7892
   5   2.0000     -10.312629      -280.6209
   6   2.0000     -10.305675      -280.4317
   7   2.0000     -10.304189      -280.3912
   8   2.0000     -10.301364      -280.3144
   9   2.0000     -10.296618      -280.1852
  10   2.0000     -10.293291      -280.0947
  11   2.0000     -10.292703      -280.0787
  12   2.0000     -10.291163      -280.0368
  13   2.0000     -10.290219      -280.0111
  14   2.0000     -10.281788      -279.7817
  15   2.0000     -10.274201      -279.5752
  16   2.0000      -8.084287      -219.9846
  17   2.0000      -8.076020      -219.7597
  18   2.0000      -6.042868      -164.4348
  19   2.0000      -6.038837      -164.3251
  20   2.0000      -6.035048      -164.2220
  21   2.0000      -6.034419      -164.2049
  22   2.0000      -6.030230      -164.0909
  23   2.0000      -6.026947      -164.0016
  24   2.0000      -1.010553       -27.4986
  25   2.0000      -0.985078       -26.8053
  26   2.0000      -0.908135       -24.7116
  27   2.0000      -0.886241       -24.1158
  28   2.0000      -0.867235       -23.5987
  29   2.0000      -0.846061       -23.0225
  30   2.0000      -0.841815       -22.9070
  31   2.0000      -0.815076       -22.1793
  32   2.0000      -0.784034       -21.3346
  33   2.0000      -0.769768       -20.9464
  34   2.0000      -0.703097       -19.1322
  35   2.0000      -0.698851       -19.0167
  36   2.0000      -0.683200       -18.5908
  37   2.0000      -0.661329       -17.9957
  38   2.0000      -0.635763       -17.3000
  39   2.0000      -0.617987       -16.8163
  40   2.0000      -0.588035       -16.0012
  41   2.0000      -0.570634       -15.5277
  42   2.0000      -0.548157       -14.9161
  43   2.0000      -0.545776       -14.8513
  44   2.0000      -0.539242       -14.6735
  45   2.0000      -0.531634       -14.4665
  46   2.0000      -0.517785       -14.0897
  47   2.0000      -0.512406       -13.9433
  48   2.0000      -0.500781       -13.6270
  49   2.0000      -0.495272       -13.4770
  50   2.0000      -0.485153       -13.2017
  51   2.0000      -0.473884       -12.8950
  52   2.0000      -0.471315       -12.8251
  53   2.0000      -0.465472       -12.6661
  54   2.0000      -0.458677       -12.4812
  55   2.0000      -0.446767       -12.1572
  56   2.0000      -0.436096       -11.8668
  57   2.0000      -0.432791       -11.7769
  58   2.0000      -0.426394       -11.6028
  59   2.0000      -0.421777       -11.4771
  60   2.0000      -0.419612       -11.4182
  61   2.0000      -0.414362       -11.2754
  62   2.0000      -0.410243       -11.1633
  63   2.0000      -0.335693        -9.1347
  64   2.0000      -0.332210        -9.0399
  65   2.0000      -0.322583        -8.7779
  66   2.0000      -0.307346        -8.3633
  67   0.0000       0.044281         1.2049
  68   0.0000       0.058596         1.5945
  69   0.0000       0.107572         2.9272
  70   0.0000       0.129073         3.5123
  71   0.0000       0.131307         3.5731

MULLIKEN ATOMIC CHARGES
-----------------------
   0 S :    0.132265
   1 C :   -0.125212
   2 C :   -0.117034
   3 C :    0.033469
   4 C :   -0.149225
   5 H :    0.008977
   6 C :    0.085425
   7 H :    0.002854
   8 H :    0.034296
   9 C :   -0.064986
  10 H :    0.025201
  11 H :    0.031129
  12 C :   -0.060633
  13 H :    0.040715
  14 H :    0.055706
  15 H :    0.026932
  16 S :    0.103469
  17 C :   -0.107506
  18 C :   -0.035148
  19 C :   -0.022342
  20 C :   -0.173101
  21 H :    0.034462
  22 C :    0.050314
  23 H :    0.028316
  24 H :    0.036672
  25 C :   -0.134468
  26 H :    0.044893
  27 H :    0.053532
  28 C :   -0.036541
  29 H :    0.050494
  30 H :    0.018032
  31 H :    0.025815
  32 H :    0.045342
  33 H :    0.057887
Sum of atomic charges:   -0.0000000

LOEWDIN ATOMIC CHARGES
----------------------
   0 S :    0.431769
   1 C :   -0.196400
   2 C :   -0.057337
   3 C :   -0.063402
   4 C :   -0.211078
   5 H :    0.025495
   6 C :   -0.029594
   7 H :    0.023477
   8 H :    0.035627
   9 C :   -0.034750
  10 H :    0.025415
  11 H :    0.023090
  12 C :   -0.074673
  13 H :    0.028451
  14 H :    0.035379
  15 H :    0.030411
  16 S :    0.421544
  17 C :   -0.183673
  18 C :   -0.078886
  19 C :   -0.063845
  20 C :   -0.213208
  21 H :    0.040720
  22 C :   -0.036089
  23 H :    0.029501
  24 H :    0.033960
  25 C :   -0.049764
  26 H :    0.032164
  27 H :    0.019475
  28 C :   -0.073210
  29 H :    0.027307
  30 H :    0.023711
  31 H :    0.023978
  32 H :    0.028091
  33 H :    0.026345

  Mayer bond orders larger than 0.100000
B(  0-S ,  1-C ) :   1.1448 B(  0-S ,  4-C ) :   1.1582 B(  1-C ,  2-C ) :   1.6011
B(  1-C , 32-H ) :   0.9662 B(  2-C ,  3-C ) :   1.2521 B(  2-C ,  6-C ) :   1.0165
B(  3-C ,  4-C ) :   1.5784 B(  3-C ,  5-H ) :   0.9894 B(  4-C , 20-C ) :   0.9860
B(  6-C ,  7-H ) :   0.9354 B(  6-C ,  8-H ) :   0.9418 B(  6-C ,  9-C ) :   1.0657
B(  9-C , 10-H ) :   0.9545 B(  9-C , 11-H ) :   0.9620 B(  9-C , 12-C ) :   1.0716
B( 12-C , 13-H ) :   0.9722 B( 12-C , 14-H ) :   0.9758 B( 12-C , 15-H ) :   0.9715
B( 16-S , 17-C ) :   1.1690 B( 16-S , 20-C ) :   1.1593 B( 17-C , 18-C ) :   1.5991
B( 17-C , 33-H ) :   0.9707 B( 18-C , 19-C ) :   1.2313 B( 18-C , 21-H ) :   0.9914
B( 19-C , 20-C ) :   1.6194 B( 19-C , 22-C ) :   1.0314 B( 22-C , 23-H ) :   0.9463
B( 22-C , 24-H ) :   0.9340 B( 22-C , 25-C ) :   1.0525 B( 25-C , 26-H ) :   0.9562
B( 25-C , 27-H ) :   0.9514 B( 25-C , 28-C ) :   1.0655 B( 28-C , 29-H ) :   0.9766
B( 28-C , 30-H ) :   0.9732 B( 28-C , 31-H ) :   0.9731

Dispersion correction           -0.015076708
FINAL SINGLE POINT ENERGY     -1339.874323776291

DIPOLE MOMENT
-------------
                                X             Y             Z
Electronic contribution:    -11.53450       5.17794      -3.91733
Nuclear contribution   :     11.84357      -5.45991       4.02015
                        -----------------------------------------
Total Dipole Moment    :      0.30906      -0.28198       0.10282
                        -----------------------------------------
Magnitude (a.u.)       :      0.43082
Magnitude (Debye)      :      1.09505

Rotational constants in cm-1:     0.021624     0.008459     0.006902
Rotational constants in MHz :   648.258977   253.580329   206.920066

                             ****ORCA TERMINATED NORMALLY****
TOTAL RUN TIME: 0 days 0 hours 0 minutes 28 seconds 677 msec
