                         Program Version 4.2.1 -  RELEASE  -
|  1> ! wB97X-D3 SP def2-SVP
|  2> %pal
|  3> nprocs 16
|  4> end
|  5>
|  6> * xyz 0 1
|  7> S 	 28.1087 	 6.89474 	 76.7872
|  8> C 	 29.5653 	 7.46108 	 77.5606
|  9> C 	 30.0223 	 6.63469 	 78.6304
| 10> C 	 29.1473 	 5.50487 	 78.7021
| 11> C 	 28.0287 	 5.5087 	 77.8502
| 12> H 	 29.2317 	 4.58591 	 79.3053
| 13> C 	 31.1065 	 6.88835 	 79.5787
| 14> H 	 30.7645 	 6.42549 	 80.4834
| 15> H 	 31.207 	 8.01068 	 79.6547
| 16> C 	 32.5301 	 6.42417 	 79.2579
| 17> H 	 33.2426 	 7.10302 	 79.7793
| 18> H 	 32.7705 	 5.47166 	 79.7364
| 19> C 	 32.9152 	 6.24014 	 77.784
| 20> H 	 32.2222 	 6.84998 	 77.1605
| 21> H 	 33.9923 	 6.41645 	 77.528
| 22> H 	 32.6005 	 5.2508 	 77.446
| 23> S 	 26.4331 	 4.17914 	 76.0874
| 24> C 	 25.2142 	 3.07312 	 76.5634
| 25> C 	 25.277 	 2.84664 	 77.9354
| 26> C 	 26.2775 	 3.62145 	 78.5894
| 27> C 	 26.9758 	 4.47896 	 77.7143
| 28> H 	 24.6162 	 2.1172 	 78.386
| 29> C 	 26.3774 	 3.54442 	 80.1517
| 30> H 	 27.3581 	 3.34201 	 80.3539
| 31> H 	 25.8639 	 2.66748 	 80.4201
| 32> C 	 25.8545 	 4.74361 	 81.0008
| 33> H 	 24.7589 	 4.93478 	 80.8541
| 34> H 	 26.3464 	 5.67345 	 80.6122
| 35> C 	 26.1493 	 4.5203 	 82.5374
| 36> H 	 25.7351 	 5.28825 	 83.1273
| 37> H 	 27.1817 	 4.3732 	 82.7324
| 38> H 	 25.6769 	 3.56459 	 83.0759
| 39> H 	 30.0356 	 8.37637 	 77.2726
| 40> H 	 24.322 	 2.82035 	 75.9227
| 41> *
| 42>
| 43>                          ****END OF INPUT****

CARTESIAN COORDINATES (ANGSTROEM)
---------------------------------
  S     28.108700    6.894740   76.787200
  C     29.565300    7.461080   77.560600
  C     30.022300    6.634690   78.630400
  C     29.147300    5.504870   78.702100
  C     28.028700    5.508700   77.850200
  H     29.231700    4.585910   79.305300
  C     31.106500    6.888350   79.578700
  H     30.764500    6.425490   80.483400
  H     31.207000    8.010680   79.654700
  C     32.530100    6.424170   79.257900
  H     33.242600    7.103020   79.779300
  H     32.770500    5.471660   79.736400
  C     32.915200    6.240140   77.784000
  H     32.222200    6.849980   77.160500
  H     33.992300    6.416450   77.528000
  H     32.600500    5.250800   77.446000
  S     26.433100    4.179140   76.087400
  C     25.214200    3.073120   76.563400
  C     25.277000    2.846640   77.935400
  C     26.277500    3.621450   78.589400
  C     26.975800    4.478960   77.714300
  H     24.616200    2.117200   78.386000
  C     26.377400    3.544420   80.151700
  H     27.358100    3.342010   80.353900
  H     25.863900    2.667480   80.420100
  C     25.854500    4.743610   81.000800
  H     24.758900    4.934780   80.854100
  H     26.346400    5.673450   80.612200
  C     26.149300    4.520300   82.537400
  H     25.735100    5.288250   83.127300
  H     27.181700    4.373200   82.732400
  H     25.676900    3.564590   83.075900
  H     30.035600    8.376370   77.272600
  H     24.322000    2.820350   75.922700

 Total Charge           Charge          ....    0
 Multiplicity           Mult            ....    1
 Number of Electrons    NEL             ....  134
 Basis Dimension        Dim             ....  322

ORBITAL ENERGIES
----------------

  NO   OCC          E(Eh)            E(eV)
   0   2.0000     -88.972181     -2421.0561
   1   2.0000     -88.964765     -2420.8543
   2   2.0000     -10.334597      -281.2187
   3   2.0000     -10.332405      -281.1590
   4   2.0000     -10.319296      -280.8023
   5   2.0000     -10.317913      -280.7647
   6   2.0000     -10.308582      -280.5108
   7   2.0000     -10.308338      -280.5041
   8   2.0000     -10.299184      -280.2550
   9   2.0000     -10.298267      -280.2301
  10   2.0000     -10.295515      -280.1552
  11   2.0000     -10.294805      -280.1359
  12   2.0000     -10.288159      -279.9550
  13   2.0000     -10.285670      -279.8873
  14   2.0000     -10.285175      -279.8738
  15   2.0000     -10.279189      -279.7110
  16   2.0000      -8.086622      -220.0482
  17   2.0000      -8.080371      -219.8781
  18   2.0000      -6.045005      -164.4930
  19   2.0000      -6.041096      -164.3866
  20   2.0000      -6.038708      -164.3216
  21   2.0000      -6.037612      -164.2918
  22   2.0000      -6.034593      -164.2096
  23   2.0000      -6.031417      -164.1232
  24   2.0000      -1.006875       -27.3985
  25   2.0000      -0.985033       -26.8041
  26   2.0000      -0.917137       -24.9566
  27   2.0000      -0.899857       -24.4864
  28   2.0000      -0.864992       -23.5376
  29   2.0000      -0.850364       -23.1396
  30   2.0000      -0.844316       -22.9750
  31   2.0000      -0.810932       -22.0666
  32   2.0000      -0.784810       -21.3558
  33   2.0000      -0.775212       -21.0946
  34   2.0000      -0.707584       -19.2543
  35   2.0000      -0.702435       -19.1142
  36   2.0000      -0.691829       -18.8256
  37   2.0000      -0.661974       -18.0132
  38   2.0000      -0.638755       -17.3814
  39   2.0000      -0.617887       -16.8136
  40   2.0000      -0.590837       -16.0775
  41   2.0000      -0.562329       -15.3018
  42   2.0000      -0.561156       -15.2698
  43   2.0000      -0.552397       -15.0315
  44   2.0000      -0.546138       -14.8612
  45   2.0000      -0.526493       -14.3266
  46   2.0000      -0.514648       -14.0043
  47   2.0000      -0.504086       -13.7169
  48   2.0000      -0.501416       -13.6442
  49   2.0000      -0.496983       -13.5236
  50   2.0000      -0.489359       -13.3161
  51   2.0000      -0.484377       -13.1806
  52   2.0000      -0.470359       -12.7991
  53   2.0000      -0.462750       -12.5921
  54   2.0000      -0.458573       -12.4784
  55   2.0000      -0.448444       -12.2028
  56   2.0000      -0.445701       -12.1281
  57   2.0000      -0.442386       -12.0379
  58   2.0000      -0.440586       -11.9890
  59   2.0000      -0.428703       -11.6656
  60   2.0000      -0.416444       -11.3320
  61   2.0000      -0.411689       -11.2026
  62   2.0000      -0.401381       -10.9221
  63   2.0000      -0.350430        -9.5357
  64   2.0000      -0.333099        -9.0641
  65   2.0000      -0.331696        -9.0259
  66   2.0000      -0.285568        -7.7707
  67   0.0000       0.019738         0.5371
  68   0.0000       0.072712         1.9786
  69   0.0000       0.107049         2.9129
  70   0.0000       0.111117         3.0236
  71   0.0000       0.139257         3.7894

MULLIKEN ATOMIC CHARGES
-----------------------
   0 S :    0.122883
   1 C :   -0.106478
   2 C :   -0.114872
   3 C :    0.004882
   4 C :   -0.149608
   5 H :    0.018347
   6 C :    0.105087
   7 H :    0.028246
   8 H :    0.039796
   9 C :   -0.099885
  10 H :    0.031437
  11 H :    0.023633
  12 C :   -0.042618
  13 H :    0.017373
  14 H :    0.052896
  15 H :    0.027639
  16 S :    0.099890
  17 C :   -0.115056
  18 C :   -0.050491
  19 C :   -0.064013
  20 C :   -0.151923
  21 H :    0.023037
  22 C :    0.143622
  23 H :   -0.006120
  24 H :   -0.005725
  25 C :   -0.075866
  26 H :    0.039702
  27 H :    0.047781
  28 C :   -0.068037
  29 H :    0.032603
  30 H :    0.027845
  31 H :    0.033766
  32 H :    0.043759
  33 H :    0.086465
Sum of atomic charges:   -0.0000000

LOEWDIN ATOMIC CHARGES
----------------------
   0 S :    0.418592
   1 C :   -0.195660
   2 C :   -0.062329
   3 C :   -0.067518
   4 C :   -0.202848
   5 H :    0.033574
   6 C :   -0.035399
   7 H :    0.036443
   8 H :    0.045352
   9 C :   -0.049787
  10 H :    0.027480
  11 H :    0.021726
  12 C :   -0.076714
  13 H :    0.025853
  14 H :    0.033960
  15 H :    0.027940
  16 S :    0.426432
  17 C :   -0.214391
  18 C :   -0.074060
  19 C :   -0.057441
  20 C :   -0.202849
  21 H :    0.032183
  22 C :   -0.019215
  23 H :    0.013786
  24 H :    0.022853
  25 C :   -0.036799
  26 H :    0.029622
  27 H :    0.032388
  28 C :   -0.072144
  29 H :    0.019702
  30 H :    0.017604
  31 H :    0.036672
  32 H :    0.019700
  33 H :    0.045294

  Mayer bond orders larger than 0.100000
B(  0-S ,  1-C ) :   1.1629 B(  0-S ,  4-C ) :   1.1571 B(  1-C ,  2-C ) :   1.5546
B(  1-C ,  4-C ) :   0.1021 B(  1-C , 32-H ) :   0.9646 B(  2-C ,  3-C ) :   1.2535
B(  2-C ,  6-C ) :   1.0475 B(  3-C ,  4-C ) :   1.5593 B(  3-C ,  5-H ) :   0.9860
B(  4-C , 20-C ) :   1.0544 B(  6-C ,  7-H ) :   0.9357 B(  6-C ,  8-H ) :   0.9326
B(  6-C ,  9-C ) :   1.0581 B(  9-C , 10-H ) :   0.9621 B(  9-C , 11-H ) :   0.9564
B(  9-C , 12-C ) :   1.0832 B( 12-C , 13-H ) :   0.9705 B( 12-C , 14-H ) :   0.9747
B( 12-C , 15-H ) :   0.9663 B( 16-S , 17-C ) :   1.1771 B( 16-S , 20-C ) :   1.1629
B( 17-C , 18-C ) :   1.5712 B( 17-C , 20-C ) :   0.1037 B( 17-C , 33-H ) :   0.9568
B( 18-C , 19-C ) :   1.2908 B( 18-C , 21-H ) :   0.9903 B( 19-C , 20-C ) :   1.5453
B( 19-C , 22-C ) :   1.0266 B( 22-C , 23-H ) :   0.9300 B( 22-C , 24-H ) :   0.9281
B( 22-C , 25-C ) :   1.0572 B( 25-C , 26-H ) :   0.9585 B( 25-C , 27-H ) :   0.9564
B( 25-C , 28-C ) :   1.0640 B( 28-C , 29-H ) :   0.9765 B( 28-C , 30-H ) :   0.9782
B( 28-C , 31-H ) :   0.9756

Dispersion correction           -0.014148795
FINAL SINGLE POINT ENERGY     -1339.863945443793

DIPOLE MOMENT
-------------
                                X             Y             Z
Electronic contribution:    -12.42153       0.64632     -22.66054
Nuclear contribution   :     12.52814      -0.70021      23.23721
                        -----------------------------------------
Total Dipole Moment    :      0.10660      -0.05389       0.57667
                        -----------------------------------------
Magnitude (a.u.)       :      0.58891
Magnitude (Debye)      :      1.49689

Rotational constants in cm-1:     0.017688     0.008779     0.006697
Rotational constants in MHz :   530.259059   263.191253   200.784288

                             ****ORCA TERMINATED NORMALLY****
TOTAL RUN TIME: 0 days 0 hours 0 minutes 34 seconds 146 msec
