                         Program Version 4.2.1 -  RELEASE  -
|  1> ! wB97X-D3 SP def2-SVP
|  2> %pal
|  3> nprocs 16
|  4> end
|  5>
|  6> * xyz 0 1
|  7> S 	 0.20845 	 -4.11423 	 77.7652
|  8> C 	 -1.07005 	 -4.56782 	 78.8286
|  9> C 	 -0.753206 	 -4.47828 	 80.1764
| 10> C 	 0.584112 	 -4.07951 	 80.436
| 11> C 	 1.31804 	 -3.87763 	 79.2474
| 12> H 	 0.965163 	 -3.82162 	 81.4079
| 13> C 	 -1.7602 	 -4.79354 	 81.2232
| 14> H 	 -2.75894 	 -4.50441 	 80.7749
| 15> H 	 -1.67004 	 -4.0137 	 81.9659
| 16> C 	 -1.79035 	 -6.29527 	 81.7474
| 17> H 	 -2.6314 	 -6.32256 	 82.3813
| 18> H 	 -2.12781 	 -6.90951 	 80.9249
| 19> C 	 -0.512955 	 -7.00884 	 82.3951
| 20> H 	 0.365999 	 -6.7471 	 81.7745
| 21> H 	 -0.282864 	 -6.7521 	 83.4636
| 22> H 	 -0.685713 	 -8.13056 	 82.3806
| 23> S 	 3.98527 	 -4.41527 	 79.5633
| 24> C 	 5.14519 	 -3.1958 	 79.241
| 25> C 	 4.6443 	 -2.06123 	 78.6586
| 26> C 	 3.22404 	 -2.22545 	 78.5198
| 27> C 	 2.68954 	 -3.38795 	 79.0939
| 28> H 	 5.22135 	 -1.20892 	 78.3856
| 29> C 	 2.4661 	 -1.14105 	 77.7537
| 30> H 	 2.85039 	 -0.119025 	 77.8824
| 31> H 	 1.55273 	 -1.12422 	 78.3183
| 32> C 	 2.25685 	 -1.46138 	 76.2332
| 33> H 	 1.85897 	 -2.48718 	 75.9909
| 34> H 	 3.21238 	 -1.42836 	 75.7262
| 35> C 	 1.28072 	 -0.475372 	 75.65
| 36> H 	 1.67979 	 0.528097 	 75.4645
| 37> H 	 0.497948 	 -0.353691 	 76.306
| 38> H 	 0.994982 	 -0.805768 	 74.6261
| 39> H 	 -1.99106 	 -4.91029 	 78.3878
| 40> H 	 6.24504 	 -3.28389 	 79.4874
| 41> *
| 42>
| 43>                          ****END OF INPUT****

CARTESIAN COORDINATES (ANGSTROEM)
---------------------------------
  S      0.208450   -4.114230   77.765200
  C     -1.070050   -4.567820   78.828600
  C     -0.753206   -4.478280   80.176400
  C      0.584112   -4.079510   80.436000
  C      1.318040   -3.877630   79.247400
  H      0.965163   -3.821620   81.407900
  C     -1.760200   -4.793540   81.223200
  H     -2.758940   -4.504410   80.774900
  H     -1.670040   -4.013700   81.965900
  C     -1.790350   -6.295270   81.747400
  H     -2.631400   -6.322560   82.381300
  H     -2.127810   -6.909510   80.924900
  C     -0.512955   -7.008840   82.395100
  H      0.365999   -6.747100   81.774500
  H     -0.282864   -6.752100   83.463600
  H     -0.685713   -8.130560   82.380600
  S      3.985270   -4.415270   79.563300
  C      5.145190   -3.195800   79.241000
  C      4.644300   -2.061230   78.658600
  C      3.224040   -2.225450   78.519800
  C      2.689540   -3.387950   79.093900
  H      5.221350   -1.208920   78.385600
  C      2.466100   -1.141050   77.753700
  H      2.850390   -0.119025   77.882400
  H      1.552730   -1.124220   78.318300
  C      2.256850   -1.461380   76.233200
  H      1.858970   -2.487180   75.990900
  H      3.212380   -1.428360   75.726200
  C      1.280720   -0.475372   75.650000
  H      1.679790    0.528097   75.464500
  H      0.497948   -0.353691   76.306000
  H      0.994982   -0.805768   74.626100
  H     -1.991060   -4.910290   78.387800
  H      6.245040   -3.283890   79.487400

 Total Charge           Charge          ....    0
 Multiplicity           Mult            ....    1
 Number of Electrons    NEL             ....  134
 Basis Dimension        Dim             ....  322

ORBITAL ENERGIES
----------------

  NO   OCC          E(Eh)            E(eV)
   0   2.0000     -88.966665     -2420.9060
   1   2.0000     -88.964640     -2420.8509
   2   2.0000     -10.340920      -281.3907
   3   2.0000     -10.322333      -280.8850
   4   2.0000     -10.315742      -280.7056
   5   2.0000     -10.313041      -280.6321
   6   2.0000     -10.302246      -280.3384
   7   2.0000     -10.301613      -280.3211
   8   2.0000     -10.297446      -280.2078
   9   2.0000     -10.295847      -280.1642
  10   2.0000     -10.292115      -280.0627
  11   2.0000     -10.291149      -280.0364
  12   2.0000     -10.288378      -279.9610
  13   2.0000     -10.286922      -279.9214
  14   2.0000     -10.284462      -279.8544
  15   2.0000     -10.266802      -279.3739
  16   2.0000      -8.080550      -219.8829
  17   2.0000      -8.079965      -219.8670
  18   2.0000      -6.038992      -164.3293
  19   2.0000      -6.038403      -164.3133
  20   2.0000      -6.034859      -164.2169
  21   2.0000      -6.034722      -164.2131
  22   2.0000      -6.031341      -164.1211
  23   2.0000      -6.030848      -164.1077
  24   2.0000      -1.004595       -27.3364
  25   2.0000      -0.980681       -26.6857
  26   2.0000      -0.904111       -24.6021
  27   2.0000      -0.898354       -24.4455
  28   2.0000      -0.866998       -23.5922
  29   2.0000      -0.850265       -23.1369
  30   2.0000      -0.844320       -22.9751
  31   2.0000      -0.814794       -22.1717
  32   2.0000      -0.777779       -21.1645
  33   2.0000      -0.760743       -20.7009
  34   2.0000      -0.705740       -19.2042
  35   2.0000      -0.700558       -19.0632
  36   2.0000      -0.692710       -18.8496
  37   2.0000      -0.661326       -17.9956
  38   2.0000      -0.643451       -17.5092
  39   2.0000      -0.613040       -16.6817
  40   2.0000      -0.591924       -16.1071
  41   2.0000      -0.566551       -15.4166
  42   2.0000      -0.556896       -15.1539
  43   2.0000      -0.537788       -14.6339
  44   2.0000      -0.532924       -14.5016
  45   2.0000      -0.526563       -14.3285
  46   2.0000      -0.512628       -13.9493
  47   2.0000      -0.511148       -13.9091
  48   2.0000      -0.506230       -13.7752
  49   2.0000      -0.496794       -13.5185
  50   2.0000      -0.485622       -13.2144
  51   2.0000      -0.476395       -12.9634
  52   2.0000      -0.468087       -12.7373
  53   2.0000      -0.464460       -12.6386
  54   2.0000      -0.459272       -12.4974
  55   2.0000      -0.446106       -12.1392
  56   2.0000      -0.439579       -11.9615
  57   2.0000      -0.435666       -11.8551
  58   2.0000      -0.434621       -11.8266
  59   2.0000      -0.423639       -11.5278
  60   2.0000      -0.419314       -11.4101
  61   2.0000      -0.413215       -11.2441
  62   2.0000      -0.403139       -10.9700
  63   2.0000      -0.344213        -9.3665
  64   2.0000      -0.334623        -9.1055
  65   2.0000      -0.320680        -8.7261
  66   2.0000      -0.292904        -7.9703
  67   0.0000       0.030301         0.8245
  68   0.0000       0.063642         1.7318
  69   0.0000       0.100508         2.7350
  70   0.0000       0.120102         3.2681
  71   0.0000       0.133902         3.6437

MULLIKEN ATOMIC CHARGES
-----------------------
   0 S :    0.091987
   1 C :   -0.114325
   2 C :   -0.093233
   3 C :    0.057550
   4 C :   -0.167091
   5 H :    0.019954
   6 C :    0.042746
   7 H :    0.024286
   8 H :    0.020184
   9 C :   -0.026653
  10 H :    0.017823
  11 H :    0.020579
  12 C :   -0.092769
  13 H :    0.051987
  14 H :    0.044626
  15 H :    0.049160
  16 S :    0.128370
  17 C :   -0.106738
  18 C :   -0.014562
  19 C :   -0.049084
  20 C :   -0.171105
  21 H :    0.012142
  22 C :    0.046172
  23 H :    0.022801
  24 H :    0.021176
  25 C :   -0.070957
  26 H :    0.035799
  27 H :    0.022401
  28 C :   -0.006285
  29 H :    0.018742
  30 H :    0.013198
  31 H :    0.031591
  32 H :    0.048063
  33 H :    0.071464
Sum of atomic charges:   -0.0000000

LOEWDIN ATOMIC CHARGES
----------------------
   0 S :    0.378737
   1 C :   -0.193814
   2 C :   -0.076231
   3 C :   -0.046091
   4 C :   -0.162363
   5 H :    0.035359
   6 C :   -0.037649
   7 H :    0.039286
   8 H :    0.026525
   9 C :   -0.035468
  10 H :    0.017151
  11 H :    0.025118
  12 C :   -0.076292
  13 H :    0.029940
  14 H :    0.028047
  15 H :    0.036361
  16 S :    0.439933
  17 C :   -0.201297
  18 C :   -0.073259
  19 C :   -0.047735
  20 C :   -0.230661
  21 H :    0.030816
  22 C :   -0.036024
  23 H :    0.030883
  24 H :    0.025773
  25 C :   -0.039704
  26 H :    0.023057
  27 H :    0.021011
  28 C :   -0.060486
  29 H :    0.022858
  30 H :    0.013120
  31 H :    0.030400
  32 H :    0.023725
  33 H :    0.038971

  Mayer bond orders larger than 0.100000
B(  0-S ,  1-C ) :   1.1535 B(  0-S ,  4-C ) :   1.1245 B(  1-C ,  2-C ) :   1.5976
B(  1-C ,  4-C ) :   0.1010 B(  1-C , 32-H ) :   0.9676 B(  2-C ,  3-C ) :   1.2454
B(  2-C ,  6-C ) :   1.0245 B(  3-C ,  4-C ) :   1.5725 B(  3-C ,  5-H ) :   0.9914
B(  4-C , 20-C ) :   1.0365 B(  6-C ,  7-H ) :   0.9420 B(  6-C ,  8-H ) :   0.9402
B(  6-C ,  9-C ) :   1.0533 B(  9-C , 10-H ) :   0.9570 B(  9-C , 11-H ) :   0.9564
B(  9-C , 12-C ) :   1.0602 B( 12-C , 13-H ) :   0.9747 B( 12-C , 14-H ) :   0.9784
B( 12-C , 15-H ) :   0.9755 B( 16-S , 17-C ) :   1.1805 B( 16-S , 20-C ) :   1.1486
B( 17-C , 18-C ) :   1.5817 B( 17-C , 33-H ) :   0.9553 B( 18-C , 19-C ) :   1.2600
B( 18-C , 21-H ) :   1.0008 B( 19-C , 20-C ) :   1.5713 B( 19-C , 22-C ) :   1.0398
B( 22-C , 23-H ) :   0.9439 B( 22-C , 24-H ) :   0.9311 B( 22-C , 25-C ) :   1.0545
B( 25-C , 26-H ) :   0.9551 B( 25-C , 27-H ) :   0.9532 B( 25-C , 28-C ) :   1.0841
B( 28-C , 29-H ) :   0.9719 B( 28-C , 30-H ) :   0.9744 B( 28-C , 31-H ) :   0.9721

Dispersion correction           -0.014763025
FINAL SINGLE POINT ENERGY     -1339.869677996216

DIPOLE MOMENT
-------------
                                X             Y             Z
Electronic contribution:     11.67994      -3.66625      -1.89009
Nuclear contribution   :    -11.88828       3.90615       2.05578
                        -----------------------------------------
Total Dipole Moment    :     -0.20834       0.23990       0.16570
                        -----------------------------------------
Magnitude (a.u.)       :      0.35835
Magnitude (Debye)      :      0.91084

Rotational constants in cm-1:     0.020327     0.008640     0.006554
Rotational constants in MHz :   609.397202   259.035461   196.491107

                             ****ORCA TERMINATED NORMALLY****
TOTAL RUN TIME: 0 days 0 hours 0 minutes 33 seconds 777 msec
