                         Program Version 4.2.1 -  RELEASE  -
|  1> ! wB97X-D3 SP def2-SVP
|  2> %pal
|  3> nprocs 16
|  4> end
|  5>
|  6> * xyz 0 1
|  7> S 	 43.5234 	 18.8143 	 45.7592
|  8> C 	 43.184 	 17.4304 	 44.8176
|  9> C 	 42.715 	 17.6936 	 43.5356
| 10> C 	 42.4925 	 19.1442 	 43.4007
| 11> C 	 43.0057 	 19.892 	 44.4565
| 12> H 	 42.105 	 19.7 	 42.5115
| 13> C 	 42.2491 	 16.6913 	 42.5264
| 14> H 	 42.7986 	 15.7774 	 42.4064
| 15> H 	 42.4123 	 17.1526 	 41.5117
| 16> C 	 40.7671 	 16.1673 	 42.6093
| 17> H 	 40.1291 	 16.9566 	 42.3134
| 18> H 	 40.6622 	 15.3264 	 41.9138
| 19> C 	 40.2414 	 15.7254 	 44.0171
| 20> H 	 40.925 	 15.0289 	 44.4977
| 21> H 	 39.9923 	 16.5985 	 44.706
| 22> H 	 39.2664 	 15.2496 	 43.9427
| 23> S 	 44.4203 	 21.8209 	 45.9923
| 24> C 	 44.1052 	 23.5549 	 45.8283
| 25> C 	 43.1401 	 23.7461 	 44.8469
| 26> C 	 42.7069 	 22.5056 	 44.2014
| 27> C 	 43.188 	 21.3659 	 44.7227
| 28> H 	 42.7663 	 24.7178 	 44.6691
| 29> C 	 41.5414 	 22.5081 	 43.2442
| 30> H 	 40.7448 	 23.1317 	 43.7172
| 31> H 	 41.0188 	 21.5976 	 43.2264
| 32> C 	 41.8563 	 23.0019 	 41.8466
| 33> H 	 42.4531 	 23.9011 	 41.9979
| 34> H 	 40.9113 	 23.3348 	 41.4403
| 35> C 	 42.5228 	 22.0804 	 40.8665
| 36> H 	 41.809 	 21.375 	 40.3445
| 37> H 	 43.2781 	 21.5052 	 41.3643
| 38> H 	 43.0054 	 22.5001 	 40.0783
| 39> H 	 43.1914 	 16.4478 	 45.2222
| 40> H 	 44.6661 	 24.3841 	 46.3971
| 41> *
| 42>
| 43>                          ****END OF INPUT****

CARTESIAN COORDINATES (ANGSTROEM)
---------------------------------
  S     43.523400   18.814300   45.759200
  C     43.184000   17.430400   44.817600
  C     42.715000   17.693600   43.535600
  C     42.492500   19.144200   43.400700
  C     43.005700   19.892000   44.456500
  H     42.105000   19.700000   42.511500
  C     42.249100   16.691300   42.526400
  H     42.798600   15.777400   42.406400
  H     42.412300   17.152600   41.511700
  C     40.767100   16.167300   42.609300
  H     40.129100   16.956600   42.313400
  H     40.662200   15.326400   41.913800
  C     40.241400   15.725400   44.017100
  H     40.925000   15.028900   44.497700
  H     39.992300   16.598500   44.706000
  H     39.266400   15.249600   43.942700
  S     44.420300   21.820900   45.992300
  C     44.105200   23.554900   45.828300
  C     43.140100   23.746100   44.846900
  C     42.706900   22.505600   44.201400
  C     43.188000   21.365900   44.722700
  H     42.766300   24.717800   44.669100
  C     41.541400   22.508100   43.244200
  H     40.744800   23.131700   43.717200
  H     41.018800   21.597600   43.226400
  C     41.856300   23.001900   41.846600
  H     42.453100   23.901100   41.997900
  H     40.911300   23.334800   41.440300
  C     42.522800   22.080400   40.866500
  H     41.809000   21.375000   40.344500
  H     43.278100   21.505200   41.364300
  H     43.005400   22.500100   40.078300
  H     43.191400   16.447800   45.222200
  H     44.666100   24.384100   46.397100

 Total Charge           Charge          ....    0
 Multiplicity           Mult            ....    1
 Number of Electrons    NEL             ....  134
 Basis Dimension        Dim             ....  322

ORBITAL ENERGIES
----------------

  NO   OCC          E(Eh)            E(eV)
   0   2.0000     -88.966772     -2420.9089
   1   2.0000     -88.960652     -2420.7424
   2   2.0000     -10.339815      -281.3607
   3   2.0000     -10.336046      -281.2581
   4   2.0000     -10.330426      -281.1052
   5   2.0000     -10.311791      -280.5981
   6   2.0000     -10.308766      -280.5158
   7   2.0000     -10.306132      -280.4441
   8   2.0000     -10.302504      -280.3454
   9   2.0000     -10.298190      -280.2280
  10   2.0000     -10.296422      -280.1799
  11   2.0000     -10.289750      -279.9983
  12   2.0000     -10.286883      -279.9203
  13   2.0000     -10.283109      -279.8176
  14   2.0000     -10.282245      -279.7941
  15   2.0000     -10.270795      -279.4825
  16   2.0000      -8.082024      -219.9231
  17   2.0000      -8.074368      -219.7147
  18   2.0000      -6.040558      -164.3720
  19   2.0000      -6.036444      -164.2600
  20   2.0000      -6.033250      -164.1731
  21   2.0000      -6.032730      -164.1589
  22   2.0000      -6.029017      -164.0579
  23   2.0000      -6.024758      -163.9420
  24   2.0000      -1.002346       -27.2752
  25   2.0000      -0.980624       -26.6841
  26   2.0000      -0.913438       -24.8559
  27   2.0000      -0.905174       -24.6310
  28   2.0000      -0.864855       -23.5339
  29   2.0000      -0.850798       -23.1514
  30   2.0000      -0.842308       -22.9204
  31   2.0000      -0.815204       -22.1828
  32   2.0000      -0.786828       -21.4107
  33   2.0000      -0.779752       -21.2181
  34   2.0000      -0.708355       -19.2753
  35   2.0000      -0.697797       -18.9880
  36   2.0000      -0.691616       -18.8198
  37   2.0000      -0.661328       -17.9956
  38   2.0000      -0.642149       -17.4738
  39   2.0000      -0.619868       -16.8675
  40   2.0000      -0.600303       -16.3351
  41   2.0000      -0.570529       -15.5249
  42   2.0000      -0.557697       -15.1757
  43   2.0000      -0.547896       -14.9090
  44   2.0000      -0.543997       -14.8029
  45   2.0000      -0.531810       -14.4713
  46   2.0000      -0.516629       -14.0582
  47   2.0000      -0.509575       -13.8662
  48   2.0000      -0.502341       -13.6694
  49   2.0000      -0.498540       -13.5659
  50   2.0000      -0.487847       -13.2750
  51   2.0000      -0.481590       -13.1047
  52   2.0000      -0.472448       -12.8560
  53   2.0000      -0.468967       -12.7612
  54   2.0000      -0.459024       -12.4907
  55   2.0000      -0.450069       -12.2470
  56   2.0000      -0.441236       -12.0067
  57   2.0000      -0.437828       -11.9139
  58   2.0000      -0.433282       -11.7902
  59   2.0000      -0.425741       -11.5850
  60   2.0000      -0.418093       -11.3769
  61   2.0000      -0.413117       -11.2415
  62   2.0000      -0.399201       -10.8628
  63   2.0000      -0.363112        -9.8808
  64   2.0000      -0.331456        -9.0194
  65   2.0000      -0.325740        -8.8638
  66   2.0000      -0.289004        -7.8642
  67   0.0000       0.024417         0.6644
  68   0.0000       0.073783         2.0077
  69   0.0000       0.100562         2.7364
  70   0.0000       0.109207         2.9717
  71   0.0000       0.135173         3.6783

MULLIKEN ATOMIC CHARGES
-----------------------
   0 S :    0.102935
   1 C :   -0.088350
   2 C :   -0.071752
   3 C :   -0.010913
   4 C :   -0.120442
   5 H :    0.020455
   6 C :    0.035106
   7 H :    0.023439
   8 H :    0.032124
   9 C :   -0.057499
  10 H :    0.021404
  11 H :    0.034754
  12 C :   -0.087283
  13 H :    0.029843
  14 H :    0.051643
  15 H :    0.033470
  16 S :    0.059100
  17 C :   -0.112531
  18 C :   -0.011727
  19 C :   -0.071114
  20 C :   -0.078565
  21 H :    0.009409
  22 C :    0.021832
  23 H :    0.032741
  24 H :    0.005157
  25 C :   -0.040692
  26 H :    0.019883
  27 H :    0.018073
  28 C :   -0.004625
  29 H :    0.029975
  30 H :    0.028336
  31 H :    0.008043
  32 H :    0.040780
  33 H :    0.096991
Sum of atomic charges:    0.0000000

LOEWDIN ATOMIC CHARGES
----------------------
   0 S :    0.416307
   1 C :   -0.194966
   2 C :   -0.063262
   3 C :   -0.068985
   4 C :   -0.179009
   5 H :    0.036114
   6 C :   -0.042341
   7 H :    0.028805
   8 H :    0.039783
   9 C :   -0.033011
  10 H :    0.016510
  11 H :    0.026175
  12 C :   -0.075586
  13 H :    0.018762
  14 H :    0.036414
  15 H :    0.026974
  16 S :    0.347005
  17 C :   -0.183614
  18 C :   -0.068628
  19 C :   -0.067426
  20 C :   -0.163922
  21 H :    0.024374
  22 C :   -0.031990
  23 H :    0.041413
  24 H :    0.019560
  25 C :   -0.039064
  26 H :    0.024512
  27 H :    0.023110
  28 C :   -0.062486
  29 H :    0.031111
  30 H :    0.025449
  31 H :    0.015357
  32 H :    0.022388
  33 H :    0.054168

  Mayer bond orders larger than 0.100000
B(  0-S ,  1-C ) :   1.1559 B(  0-S ,  4-C ) :   1.1430 B(  1-C ,  2-C ) :   1.6082
B(  1-C , 32-H ) :   0.9698 B(  2-C ,  3-C ) :   1.2155 B(  2-C ,  6-C ) :   1.0436
B(  3-C ,  4-C ) :   1.6035 B(  3-C ,  5-H ) :   0.9719 B(  4-C , 20-C ) :   1.0257
B(  6-C ,  7-H ) :   0.9461 B(  6-C ,  8-H ) :   0.9379 B(  6-C ,  9-C ) :   1.0622
B(  9-C , 10-H ) :   0.9575 B(  9-C , 11-H ) :   0.9591 B(  9-C , 12-C ) :   1.0780
B( 12-C , 13-H ) :   0.9776 B( 12-C , 14-H ) :   0.9724 B( 12-C , 15-H ) :   0.9731
B( 16-S , 17-C ) :   1.1358 B( 16-S , 20-C ) :   1.0919 B( 17-C , 18-C ) :   1.6396
B( 17-C , 33-H ) :   0.9553 B( 18-C , 19-C ) :   1.1893 B( 18-C , 21-H ) :   0.9954
B( 19-C , 20-C ) :   1.6805 B( 19-C , 22-C ) :   1.0364 B( 22-C , 23-H ) :   0.9376
B( 22-C , 24-H ) :   0.9424 B( 22-C , 25-C ) :   1.0660 B( 25-C , 26-H ) :   0.9568
B( 25-C , 27-H ) :   0.9499 B( 25-C , 28-C ) :   1.0873 B( 28-C , 29-H ) :   0.9678
B( 28-C , 30-H ) :   0.9687 B( 28-C , 31-H ) :   0.9668

Dispersion correction           -0.014799619
FINAL SINGLE POINT ENERGY     -1339.866446130566

DIPOLE MOMENT
-------------
                                X             Y             Z
Electronic contribution:     16.08196       7.28076      20.75720
Nuclear contribution   :    -16.58878      -7.22969     -21.27274
                        -----------------------------------------
Total Dipole Moment    :     -0.50682       0.05108      -0.51554
                        -----------------------------------------
Magnitude (a.u.)       :      0.72475
Magnitude (Debye)      :      1.84217

Rotational constants in cm-1:     0.020350     0.008774     0.006654
Rotational constants in MHz :   610.079888   263.037543   199.479926

                             ****ORCA TERMINATED NORMALLY****
TOTAL RUN TIME: 0 days 0 hours 0 minutes 34 seconds 809 msec
