                         Program Version 4.2.1 -  RELEASE  -
|  1> ! wB97X-D3 SP def2-SVP
|  2> %pal
|  3> nprocs 16
|  4> end
|  5>
|  6> * xyz 0 1
|  7> S 	 37.1626 	 5.11845 	 87.7777
|  8> C 	 36.1 	 4.91924 	 86.3694
|  9> C 	 36.4679 	 5.57957 	 85.2008
| 10> C 	 37.6799 	 6.24296 	 85.5632
| 11> C 	 38.1563 	 6.19025 	 86.8224
| 12> H 	 38.2598 	 6.88797 	 84.8624
| 13> C 	 35.71 	 5.8062 	 83.921
| 14> H 	 35.7366 	 6.88745 	 83.8244
| 15> H 	 34.6857 	 5.34812 	 83.98
| 16> C 	 36.3568 	 5.18818 	 82.7088
| 17> H 	 36.6372 	 4.08336 	 82.8225
| 18> H 	 35.5684 	 5.30903 	 81.9641
| 19> C 	 37.6545 	 5.91861 	 82.1801
| 20> H 	 38.0907 	 5.52282 	 81.3238
| 21> H 	 37.5307 	 6.96595 	 82.0987
| 22> H 	 38.4967 	 5.78128 	 82.8702
| 23> S 	 40.6213 	 5.82579 	 87.9429
| 24> C 	 41.5905 	 7.25104 	 88.5102
| 25> C 	 40.9637 	 8.454 	 88.108
| 26> C 	 39.6642 	 8.25339 	 87.568
| 27> C 	 39.3488 	 6.85393 	 87.3752
| 28> H 	 41.3522 	 9.46977 	 88.2275
| 29> C 	 38.9335 	 9.47791 	 87.1615
| 30> H 	 39.2718 	 10.2235 	 87.831
| 31> H 	 37.8588 	 9.33836 	 87.2766
| 32> C 	 39.2928 	 9.89192 	 85.717
| 33> H 	 38.9258 	 9.15309 	 85.0341
| 34> H 	 40.3226 	 10.0487 	 85.6941
| 35> C 	 38.5588 	 11.2359 	 85.2859
| 36> H 	 38.8224 	 11.5792 	 84.2573
| 37> H 	 38.7095 	 12.0515 	 86.0187
| 38> H 	 37.4864 	 11.1143 	 85.2726
| 39> H 	 35.3647 	 4.16186 	 86.5498
| 40> H 	 42.548 	 7.31171 	 89.0873
| 41> *
| 42>
| 43>                          ****END OF INPUT****

CARTESIAN COORDINATES (ANGSTROEM)
---------------------------------
  S     37.162600    5.118450   87.777700
  C     36.100000    4.919240   86.369400
  C     36.467900    5.579570   85.200800
  C     37.679900    6.242960   85.563200
  C     38.156300    6.190250   86.822400
  H     38.259800    6.887970   84.862400
  C     35.710000    5.806200   83.921000
  H     35.736600    6.887450   83.824400
  H     34.685700    5.348120   83.980000
  C     36.356800    5.188180   82.708800
  H     36.637200    4.083360   82.822500
  H     35.568400    5.309030   81.964100
  C     37.654500    5.918610   82.180100
  H     38.090700    5.522820   81.323800
  H     37.530700    6.965950   82.098700
  H     38.496700    5.781280   82.870200
  S     40.621300    5.825790   87.942900
  C     41.590500    7.251040   88.510200
  C     40.963700    8.454000   88.108000
  C     39.664200    8.253390   87.568000
  C     39.348800    6.853930   87.375200
  H     41.352200    9.469770   88.227500
  C     38.933500    9.477910   87.161500
  H     39.271800   10.223500   87.831000
  H     37.858800    9.338360   87.276600
  C     39.292800    9.891920   85.717000
  H     38.925800    9.153090   85.034100
  H     40.322600   10.048700   85.694100
  C     38.558800   11.235900   85.285900
  H     38.822400   11.579200   84.257300
  H     38.709500   12.051500   86.018700
  H     37.486400   11.114300   85.272600
  H     35.364700    4.161860   86.549800
  H     42.548000    7.311710   89.087300

 Total Charge           Charge          ....    0
 Multiplicity           Mult            ....    1
 Number of Electrons    NEL             ....  134
 Basis Dimension        Dim             ....  322

ORBITAL ENERGIES
----------------

  NO   OCC          E(Eh)            E(eV)
   0   2.0000     -88.971479     -2421.0370
   1   2.0000     -88.961558     -2420.7671
   2   2.0000     -10.330284      -281.1013
   3   2.0000     -10.327695      -281.0309
   4   2.0000     -10.323458      -280.9156
   5   2.0000     -10.316846      -280.7357
   6   2.0000     -10.305438      -280.4252
   7   2.0000     -10.302971      -280.3581
   8   2.0000     -10.302612      -280.3483
   9   2.0000     -10.297130      -280.1991
  10   2.0000     -10.296784      -280.1897
  11   2.0000     -10.291896      -280.0567
  12   2.0000     -10.285738      -279.8891
  13   2.0000     -10.285346      -279.8785
  14   2.0000     -10.283148      -279.8187
  15   2.0000     -10.273682      -279.5611
  16   2.0000      -8.084837      -219.9996
  17   2.0000      -8.076648      -219.7768
  18   2.0000      -6.043492      -164.4518
  19   2.0000      -6.039389      -164.3401
  20   2.0000      -6.035671      -164.2390
  21   2.0000      -6.035007      -164.2209
  22   2.0000      -6.031239      -164.1183
  23   2.0000      -6.027406      -164.0140
  24   2.0000      -1.003086       -27.2954
  25   2.0000      -0.978031       -26.6136
  26   2.0000      -0.918102       -24.9828
  27   2.0000      -0.909683       -24.7537
  28   2.0000      -0.864971       -23.5371
  29   2.0000      -0.844905       -22.9910
  30   2.0000      -0.843192       -22.9444
  31   2.0000      -0.812430       -22.1074
  32   2.0000      -0.789982       -21.4965
  33   2.0000      -0.765518       -20.8308
  34   2.0000      -0.707707       -19.2577
  35   2.0000      -0.705395       -19.1948
  36   2.0000      -0.688340       -18.7307
  37   2.0000      -0.662458       -18.0264
  38   2.0000      -0.647180       -17.6106
  39   2.0000      -0.617637       -16.8068
  40   2.0000      -0.588486       -16.0135
  41   2.0000      -0.574981       -15.6460
  42   2.0000      -0.571408       -15.5488
  43   2.0000      -0.547853       -14.9078
  44   2.0000      -0.531150       -14.4533
  45   2.0000      -0.526805       -14.3351
  46   2.0000      -0.516922       -14.0662
  47   2.0000      -0.510265       -13.8850
  48   2.0000      -0.503652       -13.7051
  49   2.0000      -0.491836       -13.3835
  50   2.0000      -0.490546       -13.3484
  51   2.0000      -0.479041       -13.0354
  52   2.0000      -0.472670       -12.8620
  53   2.0000      -0.463110       -12.6019
  54   2.0000      -0.455038       -12.3822
  55   2.0000      -0.445516       -12.1231
  56   2.0000      -0.444458       -12.0943
  57   2.0000      -0.436101       -11.8669
  58   2.0000      -0.433049       -11.7839
  59   2.0000      -0.429489       -11.6870
  60   2.0000      -0.427834       -11.6419
  61   2.0000      -0.420769       -11.4497
  62   2.0000      -0.418083       -11.3766
  63   2.0000      -0.339515        -9.2387
  64   2.0000      -0.329791        -8.9741
  65   2.0000      -0.324612        -8.8331
  66   2.0000      -0.294726        -8.0199
  67   0.0000       0.032437         0.8827
  68   0.0000       0.062862         1.7106
  69   0.0000       0.105558         2.8724
  70   0.0000       0.110790         3.0147
  71   0.0000       0.127018         3.4563

MULLIKEN ATOMIC CHARGES
-----------------------
   0 S :    0.099053
   1 C :   -0.152518
   2 C :   -0.036391
   3 C :   -0.008225
   4 C :   -0.149370
   5 H :    0.016089
   6 C :    0.077768
   7 H :    0.041214
   8 H :    0.041188
   9 C :   -0.095820
  10 H :    0.051326
  11 H :    0.034308
  12 C :   -0.033547
  13 H :    0.019775
  14 H :    0.019472
  15 H :    0.031522
  16 S :    0.120623
  17 C :   -0.112365
  18 C :   -0.047184
  19 C :   -0.039519
  20 C :   -0.178234
  21 H :    0.027679
  22 C :    0.076506
  23 H :    0.007746
  24 H :    0.030176
  25 C :   -0.034759
  26 H :    0.029512
  27 H :    0.017893
  28 C :   -0.067563
  29 H :    0.041901
  30 H :    0.029093
  31 H :    0.023655
  32 H :    0.043451
  33 H :    0.075547
Sum of atomic charges:   -0.0000000

LOEWDIN ATOMIC CHARGES
----------------------
   0 S :    0.387942
   1 C :   -0.171633
   2 C :   -0.063992
   3 C :   -0.066410
   4 C :   -0.209246
   5 H :    0.029922
   6 C :   -0.028347
   7 H :    0.038633
   8 H :    0.043610
   9 C :   -0.040413
  10 H :    0.036755
  11 H :    0.024154
  12 C :   -0.066484
  13 H :    0.019662
  14 H :    0.017243
  15 H :    0.028865
  16 S :    0.408672
  17 C :   -0.188664
  18 C :   -0.070944
  19 C :   -0.052021
  20 C :   -0.213264
  21 H :    0.033389
  22 C :   -0.028856
  23 H :    0.024410
  24 H :    0.032364
  25 C :   -0.019701
  26 H :    0.021200
  27 H :    0.015407
  28 C :   -0.072666
  29 H :    0.028913
  30 H :    0.024011
  31 H :    0.020653
  32 H :    0.014253
  33 H :    0.042585

  Mayer bond orders larger than 0.100000
B(  0-S ,  1-C ) :   1.1591 B(  0-S ,  4-C ) :   1.1229 B(  1-C ,  2-C ) :   1.5974
B(  1-C , 32-H ) :   0.9696 B(  2-C ,  3-C ) :   1.2169 B(  2-C ,  6-C ) :   1.0154
B(  3-C ,  4-C ) :   1.6438 B(  3-C ,  5-H ) :   0.9728 B(  4-C , 20-C ) :   1.0194
B(  6-C ,  7-H ) :   0.9384 B(  6-C ,  8-H ) :   0.9382 B(  6-C ,  9-C ) :   1.0727
B(  9-C , 10-H ) :   0.9542 B(  9-C , 11-H ) :   0.9583 B(  9-C , 12-C ) :   1.0744
B( 12-C , 13-H ) :   0.9706 B( 12-C , 14-H ) :   0.9760 B( 12-C , 15-H ) :   0.9681
B( 16-S , 17-C ) :   1.1495 B( 16-S , 20-C ) :   1.1606 B( 17-C , 18-C ) :   1.5801
B( 17-C , 20-C ) :   0.1146 B( 17-C , 33-H ) :   0.9614 B( 18-C , 19-C ) :   1.2856
B( 18-C , 21-H ) :   0.9746 B( 19-C , 20-C ) :   1.5386 B( 19-C , 22-C ) :   1.0656
B( 22-C , 23-H ) :   0.9250 B( 22-C , 24-H ) :   0.9273 B( 22-C , 25-C ) :   1.0723
B( 25-C , 26-H ) :   0.9538 B( 25-C , 27-H ) :   0.9570 B( 25-C , 28-C ) :   1.0746
B( 28-C , 29-H ) :   0.9763 B( 28-C , 30-H ) :   0.9766 B( 28-C , 31-H ) :   0.9761

Dispersion correction           -0.014467702
FINAL SINGLE POINT ENERGY     -1339.860381111206

DIPOLE MOMENT
-------------
                                X             Y             Z
Electronic contribution:      5.90062     -16.86739      22.92381
Nuclear contribution   :     -6.05770      17.30204     -23.44891
                        -----------------------------------------
Total Dipole Moment    :     -0.15709       0.43465      -0.52510
                        -----------------------------------------
Magnitude (a.u.)       :      0.69952
Magnitude (Debye)      :      1.77803

Rotational constants in cm-1:     0.016068     0.009732     0.007310
Rotational constants in MHz :   481.700334   291.766917   219.157444

                             ****ORCA TERMINATED NORMALLY****
TOTAL RUN TIME: 0 days 0 hours 0 minutes 30 seconds 464 msec
