                         Program Version 4.2.1 -  RELEASE  -
|  1> ! wB97X-D3 SP def2-SVP
|  2> %pal
|  3> nprocs 16
|  4> end
|  5>
|  6> * xyz 0 1
|  7> S 	 -16.1259 	 -9.81398 	 89.0218
|  8> C 	 -16.0975 	 -10.5223 	 90.5661
|  9> C 	 -14.8242 	 -10.9434 	 90.9192
| 10> C 	 -13.8402 	 -10.6185 	 89.8767
| 11> C 	 -14.4167 	 -10.0056 	 88.7763
| 12> H 	 -12.7529 	 -10.8387 	 89.8351
| 13> C 	 -14.4429 	 -11.5832 	 92.1704
| 14> H 	 -15.3472 	 -11.9929 	 92.5621
| 15> H 	 -13.9099 	 -10.9895 	 92.9623
| 16> C 	 -13.493 	 -12.8458 	 92.0767
| 17> H 	 -13.9524 	 -13.7095 	 91.5128
| 18> H 	 -12.5846 	 -12.5051 	 91.5678
| 19> C 	 -13.1119 	 -13.5508 	 93.4462
| 20> H 	 -12.2601 	 -13.0482 	 93.924
| 21> H 	 -13.7999 	 -13.6698 	 94.2335
| 22> H 	 -12.7569 	 -14.5555 	 93.4075
| 23> S 	 -12.7684 	 -8.16065 	 87.3591
| 24> C 	 -12.3892 	 -8.59219 	 85.8202
| 25> C 	 -13.1347 	 -9.58492 	 85.2706
| 26> C 	 -14.0393 	 -10.1974 	 86.2194
| 27> C 	 -13.8195 	 -9.63762 	 87.4827
| 28> H 	 -13.0465 	 -9.88223 	 84.2268
| 29> C 	 -15.0549 	 -11.3126 	 85.8674
| 30> H 	 -15.3434 	 -11.6884 	 86.8357
| 31> H 	 -14.3652 	 -11.9922 	 85.2968
| 32> C 	 -16.1654 	 -10.8312 	 84.8715
| 33> H 	 -15.7756 	 -10.5235 	 84.0205
| 34> H 	 -16.7649 	 -10.0064 	 85.2525
| 35> C 	 -17.0923 	 -11.9797 	 84.4983
| 36> H 	 -17.7484 	 -11.6715 	 83.606
| 37> H 	 -17.654 	 -12.2233 	 85.3616
| 38> H 	 -16.5786 	 -12.9118 	 84.1466
| 39> H 	 -16.9801 	 -10.5628 	 91.1988
| 40> H 	 -11.5911 	 -8.03969 	 85.2257
| 41> *
| 42>
| 43>                          ****END OF INPUT****

CARTESIAN COORDINATES (ANGSTROEM)
---------------------------------
  S    -16.125900   -9.813980   89.021800
  C    -16.097500  -10.522300   90.566100
  C    -14.824200  -10.943400   90.919200
  C    -13.840200  -10.618500   89.876700
  C    -14.416700  -10.005600   88.776300
  H    -12.752900  -10.838700   89.835100
  C    -14.442900  -11.583200   92.170400
  H    -15.347200  -11.992900   92.562100
  H    -13.909900  -10.989500   92.962300
  C    -13.493000  -12.845800   92.076700
  H    -13.952400  -13.709500   91.512800
  H    -12.584600  -12.505100   91.567800
  C    -13.111900  -13.550800   93.446200
  H    -12.260100  -13.048200   93.924000
  H    -13.799900  -13.669800   94.233500
  H    -12.756900  -14.555500   93.407500
  S    -12.768400   -8.160650   87.359100
  C    -12.389200   -8.592190   85.820200
  C    -13.134700   -9.584920   85.270600
  C    -14.039300  -10.197400   86.219400
  C    -13.819500   -9.637620   87.482700
  H    -13.046500   -9.882230   84.226800
  C    -15.054900  -11.312600   85.867400
  H    -15.343400  -11.688400   86.835700
  H    -14.365200  -11.992200   85.296800
  C    -16.165400  -10.831200   84.871500
  H    -15.775600  -10.523500   84.020500
  H    -16.764900  -10.006400   85.252500
  C    -17.092300  -11.979700   84.498300
  H    -17.748400  -11.671500   83.606000
  H    -17.654000  -12.223300   85.361600
  H    -16.578600  -12.911800   84.146600
  H    -16.980100  -10.562800   91.198800
  H    -11.591100   -8.039690   85.225700

 Total Charge           Charge          ....    0
 Multiplicity           Mult            ....    1
 Number of Electrons    NEL             ....  134
 Basis Dimension        Dim             ....  322

ORBITAL ENERGIES
----------------

  NO   OCC          E(Eh)            E(eV)
   0   2.0000     -88.963439     -2420.8183
   1   2.0000     -88.962625     -2420.7961
   2   2.0000     -10.326192      -280.9900
   3   2.0000     -10.325343      -280.9669
   4   2.0000     -10.313737      -280.6510
   5   2.0000     -10.312235      -280.6102
   6   2.0000     -10.306494      -280.4539
   7   2.0000     -10.303606      -280.3754
   8   2.0000     -10.299297      -280.2581
   9   2.0000     -10.299260      -280.2571
  10   2.0000     -10.298201      -280.2283
  11   2.0000     -10.291401      -280.0432
  12   2.0000     -10.288456      -279.9631
  13   2.0000     -10.279860      -279.7292
  14   2.0000     -10.278318      -279.6872
  15   2.0000     -10.274787      -279.5912
  16   2.0000      -8.079293      -219.8487
  17   2.0000      -8.078945      -219.8393
  18   2.0000      -6.037653      -164.2929
  19   2.0000      -6.037169      -164.2797
  20   2.0000      -6.033500      -164.1799
  21   2.0000      -6.033470      -164.1791
  22   2.0000      -6.030279      -164.0922
  23   2.0000      -6.029654      -164.0752
  24   2.0000      -1.007189       -27.4070
  25   2.0000      -0.989585       -26.9280
  26   2.0000      -0.910284       -24.7701
  27   2.0000      -0.905881       -24.6503
  28   2.0000      -0.867305       -23.6006
  29   2.0000      -0.852928       -23.2093
  30   2.0000      -0.844662       -22.9844
  31   2.0000      -0.811684       -22.0870
  32   2.0000      -0.783551       -21.3215
  33   2.0000      -0.769637       -20.9429
  34   2.0000      -0.709279       -19.3005
  35   2.0000      -0.704228       -19.1630
  36   2.0000      -0.685176       -18.6446
  37   2.0000      -0.654181       -17.8012
  38   2.0000      -0.640941       -17.4409
  39   2.0000      -0.615396       -16.7458
  40   2.0000      -0.593540       -16.1510
  41   2.0000      -0.570820       -15.5328
  42   2.0000      -0.570437       -15.5224
  43   2.0000      -0.555662       -15.1203
  44   2.0000      -0.527672       -14.3587
  45   2.0000      -0.515536       -14.0284
  46   2.0000      -0.511957       -13.9311
  47   2.0000      -0.510289       -13.8857
  48   2.0000      -0.504211       -13.7203
  49   2.0000      -0.497483       -13.5372
  50   2.0000      -0.489952       -13.3323
  51   2.0000      -0.474713       -12.9176
  52   2.0000      -0.472529       -12.8582
  53   2.0000      -0.465296       -12.6613
  54   2.0000      -0.458916       -12.4877
  55   2.0000      -0.454487       -12.3672
  56   2.0000      -0.449148       -12.2219
  57   2.0000      -0.438025       -11.9193
  58   2.0000      -0.430359       -11.7107
  59   2.0000      -0.427966       -11.6455
  60   2.0000      -0.416404       -11.3309
  61   2.0000      -0.415367       -11.3027
  62   2.0000      -0.413718       -11.2578
  63   2.0000      -0.337425        -9.1818
  64   2.0000      -0.326898        -8.8954
  65   2.0000      -0.321915        -8.7597
  66   2.0000      -0.303007        -8.2452
  67   0.0000       0.042357         1.1526
  68   0.0000       0.065793         1.7903
  69   0.0000       0.106038         2.8854
  70   0.0000       0.115964         3.1555
  71   0.0000       0.132194         3.5972

MULLIKEN ATOMIC CHARGES
-----------------------
   0 S :    0.118017
   1 C :   -0.119940
   2 C :   -0.068640
   3 C :    0.036400
   4 C :   -0.206591
   5 H :    0.032346
   6 C :    0.072856
   7 H :    0.008700
   8 H :    0.053858
   9 C :   -0.121809
  10 H :    0.045080
  11 H :    0.040388
  12 C :   -0.045958
  13 H :    0.021374
  14 H :    0.015840
  15 H :    0.020231
  16 S :    0.123979
  17 C :   -0.093170
  18 C :   -0.051160
  19 C :   -0.023052
  20 C :   -0.199339
  21 H :    0.014891
  22 C :    0.070657
  23 H :    0.033849
  24 H :    0.037126
  25 C :    0.002627
  26 H :   -0.013677
  27 H :    0.034287
  28 C :   -0.074661
  29 H :    0.043806
  30 H :    0.031613
  31 H :    0.031324
  32 H :    0.053091
  33 H :    0.075656
Sum of atomic charges:   -0.0000000

LOEWDIN ATOMIC CHARGES
----------------------
   0 S :    0.432814
   1 C :   -0.208501
   2 C :   -0.068390
   3 C :   -0.059152
   4 C :   -0.207580
   5 H :    0.040065
   6 C :   -0.040070
   7 H :    0.026731
   8 H :    0.041232
   9 C :   -0.037106
  10 H :    0.029955
  11 H :    0.021829
  12 C :   -0.078206
  13 H :    0.025665
  14 H :    0.018983
  15 H :    0.026182
  16 S :    0.419303
  17 C :   -0.219381
  18 C :   -0.089478
  19 C :   -0.040381
  20 C :   -0.202406
  21 H :    0.030024
  22 C :   -0.021953
  23 H :    0.024992
  24 H :    0.040787
  25 C :   -0.024797
  26 H :    0.002333
  27 H :    0.029662
  28 C :   -0.066494
  29 H :    0.034544
  30 H :    0.018856
  31 H :    0.026504
  32 H :    0.031029
  33 H :    0.042404

  Mayer bond orders larger than 0.100000
B(  0-S ,  1-C ) :   1.1558 B(  0-S ,  4-C ) :   1.1614 B(  1-C ,  2-C ) :   1.5975
B(  1-C , 32-H ) :   0.9694 B(  2-C ,  3-C ) :   1.2110 B(  2-C ,  6-C ) :   1.0528
B(  3-C ,  4-C ) :   1.6082 B(  3-C ,  5-H ) :   0.9850 B(  4-C , 20-C ) :   1.0087
B(  6-C ,  7-H ) :   0.9339 B(  6-C ,  8-H ) :   0.9381 B(  6-C ,  9-C ) :   1.0464
B(  9-C , 10-H ) :   0.9649 B(  9-C , 11-H ) :   0.9589 B(  9-C , 12-C ) :   1.0627
B( 12-C , 13-H ) :   0.9753 B( 12-C , 14-H ) :   0.9775 B( 12-C , 15-H ) :   0.9764
B( 16-S , 17-C ) :   1.1790 B( 16-S , 20-C ) :   1.1302 B( 17-C , 18-C ) :   1.6159
B( 17-C , 33-H ) :   0.9512 B( 18-C , 19-C ) :   1.2238 B( 18-C , 21-H ) :   0.9905
B( 19-C , 20-C ) :   1.6053 B( 19-C , 22-C ) :   1.0278 B( 22-C , 23-H ) :   0.9349
B( 22-C , 24-H ) :   0.9332 B( 22-C , 25-C ) :   1.0640 B( 25-C , 26-H ) :   0.9483
B( 25-C , 27-H ) :   0.9529 B( 25-C , 28-C ) :   1.0902 B( 28-C , 29-H ) :   0.9742
B( 28-C , 30-H ) :   0.9778 B( 28-C , 31-H ) :   0.9733

Dispersion correction           -0.013746719
FINAL SINGLE POINT ENERGY     -1339.855583850773

DIPOLE MOMENT
-------------
                                X             Y             Z
Electronic contribution:      3.05615      21.00640      -4.22439
Nuclear contribution   :     -3.02634     -21.38941       4.16481
                        -----------------------------------------
Total Dipole Moment    :      0.02981      -0.38301      -0.05959
                        -----------------------------------------
Magnitude (a.u.)       :      0.38876
Magnitude (Debye)      :      0.98816

Rotational constants in cm-1:     0.018546     0.007560     0.006444
Rotational constants in MHz :   555.996052   226.634135   193.190961

                             ****ORCA TERMINATED NORMALLY****
TOTAL RUN TIME: 0 days 0 hours 0 minutes 32 seconds 218 msec
