                         Program Version 4.2.1 -  RELEASE  -
|  1> ! wB97X-D3 SP def2-SVP
|  2> %pal
|  3> nprocs 16
|  4> end
|  5>
|  6> * xyz 0 1
|  7> S 	 46.2704 	 6.31636 	 87.2697
|  8> C 	 46.7921 	 6.84696 	 88.8267
|  9> C 	 46.0729 	 7.98013 	 89.2175
| 10> C 	 45.1727 	 8.45873 	 88.2196
| 11> C 	 45.0444 	 7.62747 	 87.0877
| 12> H 	 44.5692 	 9.31724 	 88.267
| 13> C 	 46.3278 	 8.74504 	 90.5224
| 14> H 	 46.3871 	 8.10377 	 91.3947
| 15> H 	 45.3571 	 9.34398 	 90.733
| 16> C 	 47.5879 	 9.6167 	 90.5793
| 17> H 	 47.7342 	 9.84259 	 91.6418
| 18> H 	 48.4239 	 9.0072 	 90.3727
| 19> C 	 47.4446 	 10.9379 	 89.7744
| 20> H 	 46.7318 	 11.5441 	 90.3789
| 21> H 	 48.4095 	 11.4977 	 89.8173
| 22> H 	 47.0456 	 10.6743 	 88.7866
| 23> S 	 45.1083 	 7.79242 	 84.3822
| 24> C 	 43.6976 	 8.00619 	 83.4503
| 25> C 	 42.6461 	 8.3811 	 84.2788
| 26> C 	 42.9545 	 8.2883 	 85.6511
| 27> C 	 44.2342 	 7.9215 	 85.9075
| 28> H 	 41.7518 	 8.59102 	 83.7854
| 29> C 	 41.9254 	 8.5836 	 86.7211
| 30> H 	 41.2106 	 9.33287 	 86.3568
| 31> H 	 42.3255 	 9.06662 	 87.5537
| 32> C 	 41.2174 	 7.30835 	 87.1379
| 33> H 	 41.1614 	 6.72738 	 86.2516
| 34> H 	 40.2162 	 7.52745 	 87.5736
| 35> C 	 42.0294 	 6.60053 	 88.2865
| 36> H 	 42.2634 	 7.23938 	 89.0598
| 37> H 	 42.9294 	 5.99833 	 87.9884
| 38> H 	 41.3851 	 5.87778 	 88.7086
| 39> H 	 47.6128 	 6.42289 	 89.3519
| 40> H 	 43.635 	 7.8262 	 82.3209
| 41> *
| 42>
| 43>                          ****END OF INPUT****

CARTESIAN COORDINATES (ANGSTROEM)
---------------------------------
  S     46.270400    6.316360   87.269700
  C     46.792100    6.846960   88.826700
  C     46.072900    7.980130   89.217500
  C     45.172700    8.458730   88.219600
  C     45.044400    7.627470   87.087700
  H     44.569200    9.317240   88.267000
  C     46.327800    8.745040   90.522400
  H     46.387100    8.103770   91.394700
  H     45.357100    9.343980   90.733000
  C     47.587900    9.616700   90.579300
  H     47.734200    9.842590   91.641800
  H     48.423900    9.007200   90.372700
  C     47.444600   10.937900   89.774400
  H     46.731800   11.544100   90.378900
  H     48.409500   11.497700   89.817300
  H     47.045600   10.674300   88.786600
  S     45.108300    7.792420   84.382200
  C     43.697600    8.006190   83.450300
  C     42.646100    8.381100   84.278800
  C     42.954500    8.288300   85.651100
  C     44.234200    7.921500   85.907500
  H     41.751800    8.591020   83.785400
  C     41.925400    8.583600   86.721100
  H     41.210600    9.332870   86.356800
  H     42.325500    9.066620   87.553700
  C     41.217400    7.308350   87.137900
  H     41.161400    6.727380   86.251600
  H     40.216200    7.527450   87.573600
  C     42.029400    6.600530   88.286500
  H     42.263400    7.239380   89.059800
  H     42.929400    5.998330   87.988400
  H     41.385100    5.877780   88.708600
  H     47.612800    6.422890   89.351900
  H     43.635000    7.826200   82.320900

 Total Charge           Charge          ....    0
 Multiplicity           Mult            ....    1
 Number of Electrons    NEL             ....  134
 Basis Dimension        Dim             ....  322

ORBITAL ENERGIES
----------------

  NO   OCC          E(Eh)            E(eV)
   0   2.0000     -88.970511     -2421.0107
   1   2.0000     -88.960522     -2420.7389
   2   2.0000     -10.337404      -281.2951
   3   2.0000     -10.325306      -280.9659
   4   2.0000     -10.319925      -280.8194
   5   2.0000     -10.316110      -280.7156
   6   2.0000     -10.304544      -280.4009
   7   2.0000     -10.301141      -280.3083
   8   2.0000     -10.296708      -280.1877
   9   2.0000     -10.294963      -280.1402
  10   2.0000     -10.288419      -279.9621
  11   2.0000     -10.283735      -279.8347
  12   2.0000     -10.283004      -279.8148
  13   2.0000     -10.282841      -279.8103
  14   2.0000     -10.281370      -279.7703
  15   2.0000     -10.263776      -279.2916
  16   2.0000      -8.084151      -219.9809
  17   2.0000      -8.076331      -219.7681
  18   2.0000      -6.042663      -164.4292
  19   2.0000      -6.038561      -164.3176
  20   2.0000      -6.035199      -164.2261
  21   2.0000      -6.034719      -164.2131
  22   2.0000      -6.030609      -164.1012
  23   2.0000      -6.027208      -164.0087
  24   2.0000      -1.009468       -27.4690
  25   2.0000      -0.985119       -26.8065
  26   2.0000      -0.911709       -24.8089
  27   2.0000      -0.906949       -24.6793
  28   2.0000      -0.870298       -23.6820
  29   2.0000      -0.847577       -23.0638
  30   2.0000      -0.842474       -22.9249
  31   2.0000      -0.812765       -22.1164
  32   2.0000      -0.782713       -21.2987
  33   2.0000      -0.771060       -20.9816
  34   2.0000      -0.705771       -19.2050
  35   2.0000      -0.701206       -19.0808
  36   2.0000      -0.693491       -18.8709
  37   2.0000      -0.664321       -18.0771
  38   2.0000      -0.645551       -17.5663
  39   2.0000      -0.618318       -16.8253
  40   2.0000      -0.601555       -16.3692
  41   2.0000      -0.574200       -15.6248
  42   2.0000      -0.549836       -14.9618
  43   2.0000      -0.547463       -14.8972
  44   2.0000      -0.544683       -14.8216
  45   2.0000      -0.529561       -14.4101
  46   2.0000      -0.514838       -14.0095
  47   2.0000      -0.512470       -13.9450
  48   2.0000      -0.506611       -13.7856
  49   2.0000      -0.498452       -13.5636
  50   2.0000      -0.488492       -13.2925
  51   2.0000      -0.479240       -13.0408
  52   2.0000      -0.473223       -12.8771
  53   2.0000      -0.470349       -12.7988
  54   2.0000      -0.456625       -12.4254
  55   2.0000      -0.442347       -12.0369
  56   2.0000      -0.438889       -11.9428
  57   2.0000      -0.436768       -11.8851
  58   2.0000      -0.433920       -11.8076
  59   2.0000      -0.420225       -11.4349
  60   2.0000      -0.417436       -11.3590
  61   2.0000      -0.412595       -11.2273
  62   2.0000      -0.408354       -11.1119
  63   2.0000      -0.348877        -9.4934
  64   2.0000      -0.332826        -9.0567
  65   2.0000      -0.328129        -8.9289
  66   2.0000      -0.291511        -7.9324
  67   0.0000       0.022243         0.6053
  68   0.0000       0.072123         1.9626
  69   0.0000       0.108794         2.9604
  70   0.0000       0.117803         3.2056
  71   0.0000       0.137667         3.7461

MULLIKEN ATOMIC CHARGES
-----------------------
   0 S :    0.118041
   1 C :   -0.111438
   2 C :   -0.068200
   3 C :    0.046663
   4 C :   -0.147252
   5 H :   -0.001367
   6 C :    0.010066
   7 H :    0.025330
   8 H :    0.028497
   9 C :   -0.045603
  10 H :    0.019594
  11 H :    0.012466
  12 C :   -0.057413
  13 H :    0.030380
  14 H :    0.046790
  15 H :    0.054089
  16 S :    0.101767
  17 C :   -0.127792
  18 C :   -0.028950
  19 C :   -0.031320
  20 C :   -0.166466
  21 H :   -0.004233
  22 C :    0.104980
  23 H :    0.016061
  24 H :   -0.009342
  25 C :   -0.060460
  26 H :    0.027656
  27 H :    0.033400
  28 C :   -0.025314
  29 H :    0.009858
  30 H :    0.051985
  31 H :    0.011900
  32 H :    0.046207
  33 H :    0.089420
Sum of atomic charges:   -0.0000000

LOEWDIN ATOMIC CHARGES
----------------------
   0 S :    0.405100
   1 C :   -0.195988
   2 C :   -0.068477
   3 C :   -0.053534
   4 C :   -0.184251
   5 H :    0.021182
   6 C :   -0.039106
   7 H :    0.028980
   8 H :    0.034857
   9 C :   -0.040722
  10 H :    0.023541
  11 H :    0.014085
  12 C :   -0.066683
  13 H :    0.028659
  14 H :    0.032002
  15 H :    0.029221
  16 S :    0.417513
  17 C :   -0.205179
  18 C :   -0.073433
  19 C :   -0.055257
  20 C :   -0.192638
  21 H :    0.022650
  22 C :   -0.027842
  23 H :    0.031497
  24 H :    0.014476
  25 C :   -0.027545
  26 H :    0.020927
  27 H :    0.027186
  28 C :   -0.060654
  29 H :    0.011529
  30 H :    0.034367
  31 H :    0.018746
  32 H :    0.025974
  33 H :    0.048814

  Mayer bond orders larger than 0.100000
B(  0-S ,  1-C ) :   1.1600 B(  0-S ,  4-C ) :   1.1426 B(  1-C ,  2-C ) :   1.5606
B(  1-C ,  4-C ) :   0.1054 B(  1-C , 32-H ) :   0.9757 B(  2-C ,  3-C ) :   1.2703
B(  2-C ,  6-C ) :   1.0218 B(  3-C ,  4-C ) :   1.5359 B(  3-C ,  5-H ) :   0.9958
B(  4-C , 20-C ) :   1.0591 B(  6-C ,  7-H ) :   0.9414 B(  6-C ,  8-H ) :   0.9457
B(  6-C ,  9-C ) :   1.0747 B(  9-C , 10-H ) :   0.9543 B(  9-C , 11-H ) :   0.9544
B(  9-C , 12-C ) :   1.0633 B( 12-C , 13-H ) :   0.9756 B( 12-C , 14-H ) :   0.9741
B( 12-C , 15-H ) :   0.9785 B( 16-S , 17-C ) :   1.1807 B( 16-S , 20-C ) :   1.1403
B( 17-C , 18-C ) :   1.5796 B( 17-C , 20-C ) :   0.1002 B( 17-C , 33-H ) :   0.9572
B( 18-C , 19-C ) :   1.2404 B( 18-C , 21-H ) :   1.0084 B( 19-C , 20-C ) :   1.5982
B( 19-C , 22-C ) :   1.0429 B( 22-C , 23-H ) :   0.9281 B( 22-C , 24-H ) :   0.9381
B( 22-C , 25-C ) :   1.0674 B( 25-C , 26-H ) :   0.9557 B( 25-C , 27-H ) :   0.9563
B( 25-C , 28-C ) :   1.0824 B( 28-C , 29-H ) :   0.9750 B( 28-C , 30-H ) :   0.9693
B( 28-C , 31-H ) :   0.9723

Dispersion correction           -0.015657641
FINAL SINGLE POINT ENERGY     -1339.869005079025

DIPOLE MOMENT
-------------
                                X             Y             Z
Electronic contribution:      6.67230      -9.84474     -19.74343
Nuclear contribution   :     -6.92328      10.11659      20.13210
                        -----------------------------------------
Total Dipole Moment    :     -0.25098       0.27185       0.38867
                        -----------------------------------------
Magnitude (a.u.)       :      0.53662
Magnitude (Debye)      :      1.36398

Rotational constants in cm-1:     0.020316     0.008698     0.007834
Rotational constants in MHz :   609.043849   260.749947   234.844247

                             ****ORCA TERMINATED NORMALLY****
TOTAL RUN TIME: 0 days 0 hours 0 minutes 29 seconds 752 msec
