                         Program Version 4.2.1 -  RELEASE  -
|  1> ! wB97X-D3 SP def2-SVP
|  2> %pal
|  3> nprocs 16
|  4> end
|  5>
|  6> * xyz 0 1
|  7> S 	 49.5342 	 7.55496 	 82.6032
|  8> C 	 48.0313 	 8.16729 	 83.1832
|  9> C 	 46.9196 	 7.51195 	 82.6337
| 10> C 	 47.3443 	 6.57444 	 81.6338
| 11> C 	 48.7278 	 6.42697 	 81.5393
| 12> H 	 46.7145 	 6.05024 	 80.9908
| 13> C 	 45.4631 	 7.8859 	 82.8055
| 14> H 	 44.9725 	 7.91304 	 81.8044
| 15> H 	 45.4654 	 8.85296 	 83.3093
| 16> C 	 44.623 	 6.85971 	 83.6317
| 17> H 	 43.5465 	 7.10301 	 83.5634
| 18> H 	 44.7877 	 5.83796 	 83.148
| 19> C 	 44.9947 	 6.77033 	 85.1714
| 20> H 	 44.4925 	 7.61936 	 85.6571
| 21> H 	 44.5938 	 5.85235 	 85.5628
| 22> H 	 46.0844 	 6.76763 	 85.3602
| 23> S 	 49.8728 	 6.07408 	 78.982
| 24> C 	 50.3843 	 4.48479 	 78.4481
| 25> C 	 50.1138 	 3.62234 	 79.4937
| 26> C 	 49.4528 	 4.13206 	 80.6533
| 27> C 	 49.3934 	 5.49349 	 80.6347
| 28> H 	 50.2683 	 2.54723 	 79.2011
| 29> C 	 48.9475 	 3.22753 	 81.7748
| 30> H 	 48.2494 	 2.52019 	 81.2351
| 31> H 	 48.427 	 3.80503 	 82.5112
| 32> C 	 50.1183 	 2.53528 	 82.4379
| 33> H 	 50.7266 	 3.19055 	 83.0246
| 34> H 	 50.8815 	 2.15572 	 81.7168
| 35> C 	 49.6592 	 1.47383 	 83.4391
| 36> H 	 48.9016 	 0.822849 	 83.0042
| 37> H 	 49.3356 	 1.87212 	 84.3764
| 38> H 	 50.4217 	 0.841958 	 83.8051
| 39> H 	 47.8893 	 8.93369 	 83.9031
| 40> H 	 50.7089 	 4.15112 	 77.4585
| 41> *
| 42>
| 43>                          ****END OF INPUT****

CARTESIAN COORDINATES (ANGSTROEM)
---------------------------------
  S     49.534200    7.554960   82.603200
  C     48.031300    8.167290   83.183200
  C     46.919600    7.511950   82.633700
  C     47.344300    6.574440   81.633800
  C     48.727800    6.426970   81.539300
  H     46.714500    6.050240   80.990800
  C     45.463100    7.885900   82.805500
  H     44.972500    7.913040   81.804400
  H     45.465400    8.852960   83.309300
  C     44.623000    6.859710   83.631700
  H     43.546500    7.103010   83.563400
  H     44.787700    5.837960   83.148000
  C     44.994700    6.770330   85.171400
  H     44.492500    7.619360   85.657100
  H     44.593800    5.852350   85.562800
  H     46.084400    6.767630   85.360200
  S     49.872800    6.074080   78.982000
  C     50.384300    4.484790   78.448100
  C     50.113800    3.622340   79.493700
  C     49.452800    4.132060   80.653300
  C     49.393400    5.493490   80.634700
  H     50.268300    2.547230   79.201100
  C     48.947500    3.227530   81.774800
  H     48.249400    2.520190   81.235100
  H     48.427000    3.805030   82.511200
  C     50.118300    2.535280   82.437900
  H     50.726600    3.190550   83.024600
  H     50.881500    2.155720   81.716800
  C     49.659200    1.473830   83.439100
  H     48.901600    0.822849   83.004200
  H     49.335600    1.872120   84.376400
  H     50.421700    0.841958   83.805100
  H     47.889300    8.933690   83.903100
  H     50.708900    4.151120   77.458500

 Total Charge           Charge          ....    0
 Multiplicity           Mult            ....    1
 Number of Electrons    NEL             ....  134
 Basis Dimension        Dim             ....  322

ORBITAL ENERGIES
----------------

  NO   OCC          E(Eh)            E(eV)
   0   2.0000     -88.970632     -2421.0140
   1   2.0000     -88.958604     -2420.6867
   2   2.0000     -10.328934      -281.0646
   3   2.0000     -10.326796      -281.0064
   4   2.0000     -10.320969      -280.8479
   5   2.0000     -10.314934      -280.6836
   6   2.0000     -10.303651      -280.3766
   7   2.0000     -10.302371      -280.3418
   8   2.0000     -10.298381      -280.2332
   9   2.0000     -10.298165      -280.2273
  10   2.0000     -10.294932      -280.1393
  11   2.0000     -10.294582      -280.1298
  12   2.0000     -10.292261      -280.0667
  13   2.0000     -10.283141      -279.8185
  14   2.0000     -10.280820      -279.7553
  15   2.0000     -10.268374      -279.4167
  16   2.0000      -8.085482      -220.0172
  17   2.0000      -8.072575      -219.6659
  18   2.0000      -6.043921      -164.4634
  19   2.0000      -6.039840      -164.3524
  20   2.0000      -6.036455      -164.2603
  21   2.0000      -6.031227      -164.1180
  22   2.0000      -6.027175      -164.0078
  23   2.0000      -6.023204      -163.8997
  24   2.0000      -1.004039       -27.3213
  25   2.0000      -0.982892       -26.7458
  26   2.0000      -0.910760       -24.7830
  27   2.0000      -0.905069       -24.6282
  28   2.0000      -0.868600       -23.6358
  29   2.0000      -0.846321       -23.0296
  30   2.0000      -0.844840       -22.9893
  31   2.0000      -0.809667       -22.0322
  32   2.0000      -0.782469       -21.2921
  33   2.0000      -0.774969       -21.0880
  34   2.0000      -0.707989       -19.2654
  35   2.0000      -0.700759       -19.0686
  36   2.0000      -0.691388       -18.8136
  37   2.0000      -0.652999       -17.7690
  38   2.0000      -0.645129       -17.5549
  39   2.0000      -0.616814       -16.7844
  40   2.0000      -0.595400       -16.2016
  41   2.0000      -0.566517       -15.4157
  42   2.0000      -0.562764       -15.3136
  43   2.0000      -0.545228       -14.8364
  44   2.0000      -0.543528       -14.7901
  45   2.0000      -0.525217       -14.2919
  46   2.0000      -0.519560       -14.1380
  47   2.0000      -0.512257       -13.9392
  48   2.0000      -0.504773       -13.7356
  49   2.0000      -0.500768       -13.6266
  50   2.0000      -0.488095       -13.2817
  51   2.0000      -0.477533       -12.9943
  52   2.0000      -0.468857       -12.7582
  53   2.0000      -0.467132       -12.7113
  54   2.0000      -0.459720       -12.5096
  55   2.0000      -0.448627       -12.2078
  56   2.0000      -0.441162       -12.0046
  57   2.0000      -0.438727       -11.9384
  58   2.0000      -0.431543       -11.7429
  59   2.0000      -0.423872       -11.5342
  60   2.0000      -0.421431       -11.4677
  61   2.0000      -0.414406       -11.2766
  62   2.0000      -0.406307       -11.0562
  63   2.0000      -0.335722        -9.1355
  64   2.0000      -0.325987        -8.8706
  65   2.0000      -0.323509        -8.8031
  66   2.0000      -0.309633        -8.4255
  67   0.0000       0.041900         1.1402
  68   0.0000       0.054331         1.4784
  69   0.0000       0.110015         2.9937
  70   0.0000       0.122114         3.3229
  71   0.0000       0.132222         3.5980

MULLIKEN ATOMIC CHARGES
-----------------------
   0 S :    0.134938
   1 C :   -0.096922
   2 C :   -0.099980
   3 C :    0.066965
   4 C :   -0.191498
   5 H :   -0.009190
   6 C :    0.070665
   7 H :    0.045212
   8 H :    0.018893
   9 C :   -0.120905
  10 H :    0.040937
  11 H :    0.036600
  12 C :   -0.059743
  13 H :    0.036369
  14 H :    0.033912
  15 H :    0.044831
  16 S :    0.081620
  17 C :   -0.095400
  18 C :   -0.066746
  19 C :   -0.024761
  20 C :   -0.166704
  21 H :    0.033217
  22 C :    0.109316
  23 H :    0.043733
  24 H :    0.026238
  25 C :   -0.092058
  26 H :    0.019340
  27 H :    0.034657
  28 C :   -0.010927
  29 H :    0.024261
  30 H :    0.020394
  31 H :    0.013581
  32 H :    0.032315
  33 H :    0.066840
Sum of atomic charges:    0.0000000

LOEWDIN ATOMIC CHARGES
----------------------
   0 S :    0.428931
   1 C :   -0.200341
   2 C :   -0.065385
   3 C :   -0.042363
   4 C :   -0.207747
   5 H :    0.020885
   6 C :   -0.032911
   7 H :    0.040300
   8 H :    0.027786
   9 C :   -0.045566
  10 H :    0.025253
  11 H :    0.026076
  12 C :   -0.069364
  13 H :    0.026120
  14 H :    0.024001
  15 H :    0.027774
  16 S :    0.368968
  17 C :   -0.183883
  18 C :   -0.088666
  19 C :   -0.051227
  20 C :   -0.186930
  21 H :    0.035641
  22 C :   -0.020927
  23 H :    0.040889
  24 H :    0.029239
  25 C :   -0.042552
  26 H :    0.025019
  27 H :    0.027693
  28 C :   -0.064997
  29 H :    0.022806
  30 H :    0.023151
  31 H :    0.021773
  32 H :    0.021186
  33 H :    0.039368

  Mayer bond orders larger than 0.100000
B(  0-S ,  1-C ) :   1.1595 B(  0-S ,  4-C ) :   1.1530 B(  1-C ,  2-C ) :   1.5883
B(  1-C , 32-H ) :   0.9666 B(  2-C ,  3-C ) :   1.2480 B(  2-C ,  6-C ) :   1.0273
B(  3-C ,  4-C ) :   1.5686 B(  3-C ,  5-H ) :   1.0030 B(  4-C , 20-C ) :   1.0223
B(  6-C ,  7-H ) :   0.9433 B(  6-C ,  8-H ) :   0.9421 B(  6-C ,  9-C ) :   1.0580
B(  9-C , 10-H ) :   0.9604 B(  9-C , 11-H ) :   0.9612 B(  9-C , 12-C ) :   1.0622
B( 12-C , 13-H ) :   0.9783 B( 12-C , 14-H ) :   0.9769 B( 12-C , 15-H ) :   0.9783
B( 16-S , 17-C ) :   1.1464 B( 16-S , 20-C ) :   1.1179 B( 17-C , 18-C ) :   1.6360
B( 17-C , 33-H ) :   0.9658 B( 18-C , 19-C ) :   1.2154 B( 18-C , 21-H ) :   0.9753
B( 19-C , 20-C ) :   1.6299 B( 19-C , 22-C ) :   1.0355 B( 22-C , 23-H ) :   0.9330
B( 22-C , 24-H ) :   0.9301 B( 22-C , 25-C ) :   1.0660 B( 25-C , 26-H ) :   0.9488
B( 25-C , 27-H ) :   0.9614 B( 25-C , 28-C ) :   1.0836 B( 28-C , 29-H ) :   0.9763
B( 28-C , 30-H ) :   0.9719 B( 28-C , 31-H ) :   0.9688

Dispersion correction           -0.014173941
FINAL SINGLE POINT ENERGY     -1339.880364721728

DIPOLE MOMENT
-------------
                                X             Y             Z
Electronic contribution:     15.23355      14.43678     -17.35682
Nuclear contribution   :    -15.75022     -14.84721      17.55822
                        -----------------------------------------
Total Dipole Moment    :     -0.51667      -0.41043       0.20140
                        -----------------------------------------
Magnitude (a.u.)       :      0.68990
Magnitude (Debye)      :      1.75359

Rotational constants in cm-1:     0.017309     0.008628     0.006882
Rotational constants in MHz :   518.913101   258.661120   206.318733

                             ****ORCA TERMINATED NORMALLY****
TOTAL RUN TIME: 0 days 0 hours 0 minutes 29 seconds 558 msec
