                         Program Version 4.2.1 -  RELEASE  -
|  1> ! wB97X-D3 SP def2-SVP
|  2> %pal
|  3> nprocs 16
|  4> end
|  5>
|  6> * xyz 0 1
|  7> S 	 -11.709 	 74.1627 	 47.7195
|  8> C 	 -12.3981 	 75.6413 	 48.4863
|  9> C 	 -12.6615 	 75.3588 	 49.8186
| 10> C 	 -12.2583 	 74.0358 	 50.2183
| 11> C 	 -11.6854 	 73.2839 	 49.2214
| 12> H 	 -12.2458 	 73.6714 	 51.2442
| 13> C 	 -13.2962 	 76.3176 	 50.8083
| 14> H 	 -13.4538 	 77.3361 	 50.3789
| 15> H 	 -12.6001 	 76.4087 	 51.6626
| 16> C 	 -14.6512 	 75.8775 	 51.3118
| 17> H 	 -15.3643 	 75.9748 	 50.4927
| 18> H 	 -14.5156 	 74.77 	 51.5179
| 19> C 	 -15.1303 	 76.7388 	 52.5189
| 20> H 	 -15.8174 	 76.2118 	 53.1297
| 21> H 	 -14.3163 	 76.9494 	 53.1519
| 22> H 	 -15.5168 	 77.6803 	 52.0483
| 23> S 	 -10.0963 	 71.6668 	 50.7969
| 24> C 	 -9.86236 	 70.0551 	 50.3222
| 25> C 	 -10.3888 	 69.7521 	 49.132
| 26> C 	 -11.0806 	 70.8432 	 48.539
| 27> C 	 -11.0724 	 71.968 	 49.3592
| 28> H 	 -10.282 	 68.7313 	 48.7853
| 29> C 	 -11.9094 	 70.7656 	 47.2913
| 30> H 	 -11.4959 	 70.0795 	 46.6823
| 31> H 	 -11.8538 	 71.7155 	 46.7267
| 32> C 	 -13.4048 	 70.2521 	 47.4093
| 33> H 	 -13.9382 	 70.6862 	 48.2426
| 34> H 	 -13.4199 	 69.2642 	 47.6969
| 35> C 	 -14.2472 	 70.221 	 46.1989
| 36> H 	 -13.8445 	 69.602 	 45.3865
| 37> H 	 -14.4033 	 71.238 	 45.824
| 38> H 	 -15.222 	 69.7618 	 46.4611
| 39> H 	 -12.4743 	 76.628 	 48.0472
| 40> H 	 -9.40314 	 69.2688 	 50.894
| 41> *
| 42>
| 43>                          ****END OF INPUT****

CARTESIAN COORDINATES (ANGSTROEM)
---------------------------------
  S    -11.709000   74.162700   47.719500
  C    -12.398100   75.641300   48.486300
  C    -12.661500   75.358800   49.818600
  C    -12.258300   74.035800   50.218300
  C    -11.685400   73.283900   49.221400
  H    -12.245800   73.671400   51.244200
  C    -13.296200   76.317600   50.808300
  H    -13.453800   77.336100   50.378900
  H    -12.600100   76.408700   51.662600
  C    -14.651200   75.877500   51.311800
  H    -15.364300   75.974800   50.492700
  H    -14.515600   74.770000   51.517900
  C    -15.130300   76.738800   52.518900
  H    -15.817400   76.211800   53.129700
  H    -14.316300   76.949400   53.151900
  H    -15.516800   77.680300   52.048300
  S    -10.096300   71.666800   50.796900
  C     -9.862360   70.055100   50.322200
  C    -10.388800   69.752100   49.132000
  C    -11.080600   70.843200   48.539000
  C    -11.072400   71.968000   49.359200
  H    -10.282000   68.731300   48.785300
  C    -11.909400   70.765600   47.291300
  H    -11.495900   70.079500   46.682300
  H    -11.853800   71.715500   46.726700
  C    -13.404800   70.252100   47.409300
  H    -13.938200   70.686200   48.242600
  H    -13.419900   69.264200   47.696900
  C    -14.247200   70.221000   46.198900
  H    -13.844500   69.602000   45.386500
  H    -14.403300   71.238000   45.824000
  H    -15.222000   69.761800   46.461100
  H    -12.474300   76.628000   48.047200
  H     -9.403140   69.268800   50.894000

 Total Charge           Charge          ....    0
 Multiplicity           Mult            ....    1
 Number of Electrons    NEL             ....  134
 Basis Dimension        Dim             ....  322

ORBITAL ENERGIES
----------------

  NO   OCC          E(Eh)            E(eV)
   0   2.0000     -88.966951     -2420.9138
   1   2.0000     -88.965198     -2420.8661
   2   2.0000     -10.331219      -281.1268
   3   2.0000     -10.327063      -281.0137
   4   2.0000     -10.318410      -280.7782
   5   2.0000     -10.307392      -280.4784
   6   2.0000     -10.304002      -280.3861
   7   2.0000     -10.302831      -280.3543
   8   2.0000     -10.293884      -280.1108
   9   2.0000     -10.293044      -280.0880
  10   2.0000     -10.288108      -279.9536
  11   2.0000     -10.287530      -279.9379
  12   2.0000     -10.283162      -279.8191
  13   2.0000     -10.277379      -279.6617
  14   2.0000     -10.274604      -279.5862
  15   2.0000     -10.272194      -279.5206
  16   2.0000      -8.082399      -219.9333
  17   2.0000      -8.079009      -219.8410
  18   2.0000      -6.040778      -164.3779
  19   2.0000      -6.037743      -164.2953
  20   2.0000      -6.036880      -164.2719
  21   2.0000      -6.033630      -164.1834
  22   2.0000      -6.033188      -164.1714
  23   2.0000      -6.029580      -164.0732
  24   2.0000      -1.011143       -27.5146
  25   2.0000      -0.985829       -26.8258
  26   2.0000      -0.914273       -24.8786
  27   2.0000      -0.909495       -24.7486
  28   2.0000      -0.872204       -23.7339
  29   2.0000      -0.860353       -23.4114
  30   2.0000      -0.842747       -22.9323
  31   2.0000      -0.817481       -22.2448
  32   2.0000      -0.785216       -21.3668
  33   2.0000      -0.773459       -21.0469
  34   2.0000      -0.708564       -19.2810
  35   2.0000      -0.697759       -18.9870
  36   2.0000      -0.691318       -18.8117
  37   2.0000      -0.665289       -18.1034
  38   2.0000      -0.633253       -17.2317
  39   2.0000      -0.622604       -16.9419
  40   2.0000      -0.599684       -16.3182
  41   2.0000      -0.570827       -15.5330
  42   2.0000      -0.566622       -15.4186
  43   2.0000      -0.561202       -15.2711
  44   2.0000      -0.528751       -14.3881
  45   2.0000      -0.521598       -14.1934
  46   2.0000      -0.517473       -14.0812
  47   2.0000      -0.516235       -14.0475
  48   2.0000      -0.507959       -13.8223
  49   2.0000      -0.502741       -13.6803
  50   2.0000      -0.490099       -13.3363
  51   2.0000      -0.482892       -13.1402
  52   2.0000      -0.475247       -12.9321
  53   2.0000      -0.464543       -12.6409
  54   2.0000      -0.459414       -12.5013
  55   2.0000      -0.455255       -12.3881
  56   2.0000      -0.446800       -12.1581
  57   2.0000      -0.437413       -11.9026
  58   2.0000      -0.430020       -11.7015
  59   2.0000      -0.425746       -11.5851
  60   2.0000      -0.417467       -11.3598
  61   2.0000      -0.414587       -11.2815
  62   2.0000      -0.405214       -11.0264
  63   2.0000      -0.353272        -9.6130
  64   2.0000      -0.334256        -9.0956
  65   2.0000      -0.329022        -8.9532
  66   2.0000      -0.290007        -7.8915
  67   0.0000       0.026482         0.7206
  68   0.0000       0.080488         2.1902
  69   0.0000       0.111371         3.0306
  70   0.0000       0.116332         3.1656
  71   0.0000       0.127311         3.4643

MULLIKEN ATOMIC CHARGES
-----------------------
   0 S :    0.087108
   1 C :   -0.121647
   2 C :   -0.070002
   3 C :   -0.007718
   4 C :   -0.109764
   5 H :    0.019298
   6 C :    0.043637
   7 H :    0.018014
   8 H :    0.033954
   9 C :   -0.121724
  10 H :    0.032430
  11 H :    0.034907
  12 C :   -0.002769
  13 H :    0.032448
  14 H :    0.015141
  15 H :    0.043262
  16 S :    0.116860
  17 C :   -0.071054
  18 C :   -0.048541
  19 C :   -0.038058
  20 C :   -0.150714
  21 H :    0.015069
  22 C :    0.120213
  23 H :   -0.020319
  24 H :    0.025677
  25 C :   -0.028510
  26 H :    0.020511
  27 H :   -0.008148
  28 C :   -0.055496
  29 H :    0.028266
  30 H :    0.034247
  31 H :    0.035766
  32 H :    0.052029
  33 H :    0.045627
Sum of atomic charges:   -0.0000000

LOEWDIN ATOMIC CHARGES
----------------------
   0 S :    0.394022
   1 C :   -0.185438
   2 C :   -0.058115
   3 C :   -0.075757
   4 C :   -0.186424
   5 H :    0.029072
   6 C :   -0.037232
   7 H :    0.028660
   8 H :    0.030976
   9 C :   -0.045197
  10 H :    0.023740
  11 H :    0.025638
  12 C :   -0.057083
  13 H :    0.023802
  14 H :    0.017100
  15 H :    0.035672
  16 S :    0.424214
  17 C :   -0.197337
  18 C :   -0.073669
  19 C :   -0.053401
  20 C :   -0.189116
  21 H :    0.034668
  22 C :   -0.027621
  23 H :    0.014105
  24 H :    0.023368
  25 C :   -0.038030
  26 H :    0.024678
  27 H :    0.013708
  28 C :   -0.062851
  29 H :    0.023731
  30 H :    0.023669
  31 H :    0.033703
  32 H :    0.032259
  33 H :    0.030487

  Mayer bond orders larger than 0.100000
B(  0-S ,  1-C ) :   1.1111 B(  0-S ,  4-C ) :   1.1454 B(  1-C ,  2-C ) :   1.6309
B(  1-C , 32-H ) :   0.9711 B(  2-C ,  3-C ) :   1.2146 B(  2-C ,  6-C ) :   1.0316
B(  3-C ,  4-C ) :   1.5815 B(  3-C ,  5-H ) :   0.9871 B(  4-C , 20-C ) :   1.0555
B(  6-C ,  7-H ) :   0.9439 B(  6-C ,  8-H ) :   0.9377 B(  6-C ,  9-C ) :   1.0589
B(  9-C , 10-H ) :   0.9577 B(  9-C , 11-H ) :   0.9599 B(  9-C , 12-C ) :   1.0650
B( 12-C , 13-H ) :   0.9749 B( 12-C , 14-H ) :   0.9769 B( 12-C , 15-H ) :   0.9753
B( 16-S , 17-C ) :   1.1533 B( 16-S , 20-C ) :   1.1408 B( 17-C , 18-C ) :   1.6402
B( 17-C , 33-H ) :   0.9595 B( 18-C , 19-C ) :   1.2302 B( 18-C , 21-H ) :   0.9942
B( 19-C , 20-C ) :   1.5732 B( 19-C , 22-C ) :   1.0708 B( 22-C , 23-H ) :   0.9087
B( 22-C , 24-H ) :   0.9292 B( 22-C , 25-C ) :   1.0462 B( 25-C , 26-H ) :   0.9537
B( 25-C , 27-H ) :   0.9460 B( 25-C , 28-C ) :   1.1000 B( 28-C , 29-H ) :   0.9725
B( 28-C , 30-H ) :   0.9749 B( 28-C , 31-H ) :   0.9683

Dispersion correction           -0.013707792
FINAL SINGLE POINT ENERGY     -1339.877437745606

DIPOLE MOMENT
-------------
                                X             Y             Z
Electronic contribution:     20.65992      -2.96824      -0.48448
Nuclear contribution   :    -20.94734       2.81160       0.67777
                        -----------------------------------------
Total Dipole Moment    :     -0.28742      -0.15665       0.19328
                        -----------------------------------------
Magnitude (a.u.)       :      0.38014
Magnitude (Debye)      :      0.96625

Rotational constants in cm-1:     0.018149     0.008090     0.006842
Rotational constants in MHz :   544.107278   242.542989   205.126212

                             ****ORCA TERMINATED NORMALLY****
TOTAL RUN TIME: 0 days 0 hours 0 minutes 30 seconds 663 msec
