                         Program Version 4.2.1 -  RELEASE  -
|  1> ! wB97X-D3 SP def2-SVP
|  2> %pal
|  3> nprocs 16
|  4> end
|  5>
|  6> * xyz 0 1
|  7> S 	 18.3854 	 1.99356 	 84.9289
|  8> C 	 18.8723 	 3.63926 	 84.9493
|  9> C 	 18.4366 	 4.26994 	 86.0848
| 10> C 	 17.7549 	 3.39359 	 86.9266
| 11> C 	 17.6239 	 2.09088 	 86.4709
| 12> H 	 17.2229 	 3.5249 	 87.8791
| 13> C 	 18.8207 	 5.6936 	 86.3885
| 14> H 	 19.8768 	 5.80072 	 86.5726
| 15> H 	 18.4455 	 5.98372 	 87.356
| 16> C 	 18.2306 	 6.75004 	 85.4008
| 17> H 	 18.7474 	 6.83096 	 84.4704
| 18> H 	 17.2365 	 6.40537 	 85.0335
| 19> C 	 18.1046 	 8.10266 	 86.0977
| 20> H 	 19.0882 	 8.37278 	 86.4506
| 21> H 	 17.6271 	 8.81881 	 85.3966
| 22> H 	 17.3995 	 8.00874 	 86.8478
| 23> S 	 16.8644 	 0.187902 	 88.2971
| 24> C 	 15.2155 	 -0.37796 	 88.3335
| 25> C 	 14.4384 	 0.0673544 	 87.28
| 26> C 	 15.1736 	 1.03884 	 86.4825
| 27> C 	 16.5323 	 1.14446 	 86.8984
| 28> H 	 13.3816 	 -0.167889 	 87.2098
| 29> C 	 14.5525 	 1.84077 	 85.3257
| 30> H 	 14.1823 	 1.14608 	 84.5169
| 31> H 	 15.3284 	 2.54744 	 84.959
| 32> C 	 13.3696 	 2.71129 	 85.6996
| 33> H 	 13.6733 	 3.31682 	 86.6429
| 34> H 	 12.4807 	 2.07962 	 85.8939
| 35> C 	 12.7827 	 3.6224 	 84.5455
| 36> H 	 11.8389 	 3.89401 	 84.9493
| 37> H 	 12.4215 	 2.98249 	 83.67
| 38> H 	 13.2772 	 4.52719 	 84.1116
| 39> H 	 19.3401 	 4.24354 	 84.2292
| 40> H 	 14.7195 	 -0.999719 	 89.0803
| 41> *
| 42>
| 43>                          ****END OF INPUT****

CARTESIAN COORDINATES (ANGSTROEM)
---------------------------------
  S     18.385400    1.993560   84.928900
  C     18.872300    3.639260   84.949300
  C     18.436600    4.269940   86.084800
  C     17.754900    3.393590   86.926600
  C     17.623900    2.090880   86.470900
  H     17.222900    3.524900   87.879100
  C     18.820700    5.693600   86.388500
  H     19.876800    5.800720   86.572600
  H     18.445500    5.983720   87.356000
  C     18.230600    6.750040   85.400800
  H     18.747400    6.830960   84.470400
  H     17.236500    6.405370   85.033500
  C     18.104600    8.102660   86.097700
  H     19.088200    8.372780   86.450600
  H     17.627100    8.818810   85.396600
  H     17.399500    8.008740   86.847800
  S     16.864400    0.187902   88.297100
  C     15.215500   -0.377960   88.333500
  C     14.438400    0.067354   87.280000
  C     15.173600    1.038840   86.482500
  C     16.532300    1.144460   86.898400
  H     13.381600   -0.167889   87.209800
  C     14.552500    1.840770   85.325700
  H     14.182300    1.146080   84.516900
  H     15.328400    2.547440   84.959000
  C     13.369600    2.711290   85.699600
  H     13.673300    3.316820   86.642900
  H     12.480700    2.079620   85.893900
  C     12.782700    3.622400   84.545500
  H     11.838900    3.894010   84.949300
  H     12.421500    2.982490   83.670000
  H     13.277200    4.527190   84.111600
  H     19.340100    4.243540   84.229200
  H     14.719500   -0.999719   89.080300

 Total Charge           Charge          ....    0
 Multiplicity           Mult            ....    1
 Number of Electrons    NEL             ....  134
 Basis Dimension        Dim             ....  322

ORBITAL ENERGIES
----------------

  NO   OCC          E(Eh)            E(eV)
   0   2.0000     -88.968947     -2420.9681
   1   2.0000     -88.967355     -2420.9248
   2   2.0000     -10.330472      -281.1064
   3   2.0000     -10.324073      -280.9323
   4   2.0000     -10.316501      -280.7263
   5   2.0000     -10.310617      -280.5662
   6   2.0000     -10.306875      -280.4643
   7   2.0000     -10.298240      -280.2294
   8   2.0000     -10.296540      -280.1831
   9   2.0000     -10.295005      -280.1413
  10   2.0000     -10.293457      -280.0992
  11   2.0000     -10.291981      -280.0590
  12   2.0000     -10.289538      -279.9926
  13   2.0000     -10.286846      -279.9193
  14   2.0000     -10.285834      -279.8918
  15   2.0000     -10.275263      -279.6041
  16   2.0000      -8.083748      -219.9700
  17   2.0000      -8.082473      -219.9353
  18   2.0000      -6.042151      -164.4153
  19   2.0000      -6.040758      -164.3774
  20   2.0000      -6.038200      -164.3078
  21   2.0000      -6.036701      -164.2670
  22   2.0000      -6.034669      -164.2117
  23   2.0000      -6.033640      -164.1837
  24   2.0000      -1.010377       -27.4938
  25   2.0000      -0.986662       -26.8484
  26   2.0000      -0.913312       -24.8525
  27   2.0000      -0.902006       -24.5448
  28   2.0000      -0.868636       -23.6368
  29   2.0000      -0.852559       -23.1993
  30   2.0000      -0.843449       -22.9514
  31   2.0000      -0.816754       -22.2250
  32   2.0000      -0.782439       -21.2912
  33   2.0000      -0.769159       -20.9299
  34   2.0000      -0.709497       -19.3064
  35   2.0000      -0.697494       -18.9798
  36   2.0000      -0.683875       -18.6092
  37   2.0000      -0.654167       -17.8008
  38   2.0000      -0.644876       -17.5480
  39   2.0000      -0.613768       -16.7015
  40   2.0000      -0.591007       -16.0821
  41   2.0000      -0.577785       -15.7223
  42   2.0000      -0.565362       -15.3843
  43   2.0000      -0.564119       -15.3505
  44   2.0000      -0.534302       -14.5391
  45   2.0000      -0.520376       -14.1602
  46   2.0000      -0.516492       -14.0545
  47   2.0000      -0.506575       -13.7846
  48   2.0000      -0.502065       -13.6619
  49   2.0000      -0.490884       -13.3576
  50   2.0000      -0.486943       -13.2504
  51   2.0000      -0.476709       -12.9719
  52   2.0000      -0.468961       -12.7611
  53   2.0000      -0.466537       -12.6951
  54   2.0000      -0.465949       -12.6791
  55   2.0000      -0.449763       -12.2387
  56   2.0000      -0.444671       -12.1001
  57   2.0000      -0.435057       -11.8385
  58   2.0000      -0.425403       -11.5758
  59   2.0000      -0.420736       -11.4488
  60   2.0000      -0.419539       -11.4162
  61   2.0000      -0.418766       -11.3952
  62   2.0000      -0.413914       -11.2632
  63   2.0000      -0.338322        -9.2062
  64   2.0000      -0.335058        -9.1174
  65   2.0000      -0.321137        -8.7386
  66   2.0000      -0.306048        -8.3280
  67   0.0000       0.041948         1.1415
  68   0.0000       0.058618         1.5951
  69   0.0000       0.116801         3.1783
  70   0.0000       0.124319         3.3829
  71   0.0000       0.131228         3.5709

MULLIKEN ATOMIC CHARGES
-----------------------
   0 S :    0.129501
   1 C :   -0.080436
   2 C :   -0.086563
   3 C :    0.033821
   4 C :   -0.178253
   5 H :    0.016711
   6 C :    0.088635
   7 H :    0.037891
   8 H :   -0.002176
   9 C :   -0.100706
  10 H :    0.023105
  11 H :    0.027292
  12 C :   -0.020571
  13 H :    0.037160
  14 H :    0.034633
  15 H :    0.019361
  16 S :    0.126416
  17 C :   -0.097413
  18 C :   -0.030936
  19 C :   -0.032510
  20 C :   -0.193717
  21 H :    0.026313
  22 C :    0.079281
  23 H :    0.040326
  24 H :    0.036409
  25 C :   -0.135804
  26 H :    0.051827
  27 H :    0.031004
  28 C :   -0.062971
  29 H :    0.020408
  30 H :    0.028121
  31 H :    0.054172
  32 H :    0.023598
  33 H :    0.056070
Sum of atomic charges:    0.0000000

LOEWDIN ATOMIC CHARGES
----------------------
   0 S :    0.446415
   1 C :   -0.194703
   2 C :   -0.073240
   3 C :   -0.059771
   4 C :   -0.228497
   5 H :    0.035918
   6 C :   -0.030358
   7 H :    0.032586
   8 H :    0.026511
   9 C :   -0.039976
  10 H :    0.014286
  11 H :    0.026005
  12 C :   -0.055221
  13 H :    0.025435
  14 H :    0.032462
  15 H :    0.014828
  16 S :    0.427475
  17 C :   -0.193499
  18 C :   -0.072057
  19 C :   -0.049746
  20 C :   -0.216265
  21 H :    0.033768
  22 C :   -0.043534
  23 H :    0.037537
  24 H :    0.033930
  25 C :   -0.048006
  26 H :    0.034809
  27 H :    0.024645
  28 C :   -0.079690
  29 H :    0.021837
  30 H :    0.032145
  31 H :    0.029121
  32 H :    0.022666
  33 H :    0.032184

  Mayer bond orders larger than 0.100000
B(  0-S ,  1-C ) :   1.1762 B(  0-S ,  4-C ) :   1.1664 B(  1-C ,  2-C ) :   1.5630
B(  1-C , 32-H ) :   0.9749 B(  2-C ,  3-C ) :   1.2806 B(  2-C ,  6-C ) :   1.0221
B(  3-C ,  4-C ) :   1.5555 B(  3-C ,  5-H ) :   0.9949 B(  4-C , 20-C ) :   0.9733
B(  6-C ,  7-H ) :   0.9359 B(  6-C ,  8-H ) :   0.9435 B(  6-C ,  9-C ) :   1.0384
B(  9-C , 10-H ) :   0.9556 B(  9-C , 11-H ) :   0.9610 B(  9-C , 12-C ) :   1.0902
B( 12-C , 13-H ) :   0.9749 B( 12-C , 14-H ) :   0.9715 B( 12-C , 15-H ) :   0.9763
B( 16-S , 17-C ) :   1.1630 B( 16-S , 20-C ) :   1.1526 B( 17-C , 18-C ) :   1.6219
B( 17-C , 33-H ) :   0.9625 B( 18-C , 19-C ) :   1.2354 B( 18-C , 21-H ) :   0.9864
B( 19-C , 20-C ) :   1.5947 B( 19-C , 22-C ) :   1.0453 B( 22-C , 23-H ) :   0.9330
B( 22-C , 24-H ) :   0.9352 B( 22-C , 25-C ) :   1.0679 B( 25-C , 26-H ) :   0.9551
B( 25-C , 27-H ) :   0.9521 B( 25-C , 28-C ) :   1.0703 B( 28-C , 29-H ) :   0.9758
B( 28-C , 30-H ) :   0.9694 B( 28-C , 31-H ) :   0.9770

Dispersion correction           -0.014131141
FINAL SINGLE POINT ENERGY     -1339.861570262304

DIPOLE MOMENT
-------------
                                X             Y             Z
Electronic contribution:     12.86487     -26.41877       7.34666
Nuclear contribution   :    -13.35583      27.02858      -7.38152
                        -----------------------------------------
Total Dipole Moment    :     -0.49096       0.60981      -0.03487
                        -----------------------------------------
Magnitude (a.u.)       :      0.78366
Magnitude (Debye)      :      1.99191

Rotational constants in cm-1:     0.017371     0.008465     0.006845
Rotational constants in MHz :   520.779492   253.771432   205.219197

                             ****ORCA TERMINATED NORMALLY****
TOTAL RUN TIME: 0 days 0 hours 0 minutes 34 seconds 230 msec
