                         Program Version 4.2.1 -  RELEASE  -
|  1> ! wB97X-D3 SP def2-SVP
|  2> %pal
|  3> nprocs 16
|  4> end
|  5>
|  6> * xyz 0 1
|  7> S 	 41.188 	 12.3327 	 49.8313
|  8> C 	 40.5961 	 13.9099 	 49.3466
|  9> C 	 41.5392 	 14.9414 	 49.5743
| 10> C 	 42.6351 	 14.3597 	 50.3388
| 11> C 	 42.6348 	 13.0154 	 50.5221
| 12> H 	 43.4282 	 14.9246 	 50.7098
| 13> C 	 41.3984 	 16.4446 	 49.4571
| 14> H 	 40.7565 	 16.6787 	 48.6239
| 15> H 	 42.347 	 17.0238 	 49.3702
| 16> C 	 40.6255 	 17.049 	 50.7138
| 17> H 	 39.5577 	 17.0026 	 50.5096
| 18> H 	 40.7614 	 16.5496 	 51.7085
| 19> C 	 40.83 	 18.5943 	 50.9167
| 20> H 	 41.8321 	 18.7659 	 51.2786
| 21> H 	 40.7606 	 19.1479 	 49.9505
| 22> H 	 40.0615 	 18.8583 	 51.653
| 23> S 	 43.2738 	 10.6734 	 51.9122
| 24> C 	 44.958 	 10.4182 	 52.4395
| 25> C 	 45.7939 	 11.3388 	 51.8595
| 26> C 	 45.1214 	 12.3504 	 51.1268
| 27> C 	 43.6997 	 12.2039 	 51.0708
| 28> H 	 46.8301 	 11.2898 	 52.0479
| 29> C 	 45.9335 	 13.4866 	 50.5868
| 30> H 	 46.8919 	 13.4865 	 51.0639
| 31> H 	 45.3481 	 14.3723 	 50.8146
| 32> C 	 46.1291 	 13.3985 	 49.0911
| 33> H 	 45.167 	 13.5048 	 48.6575
| 34> H 	 46.4387 	 12.3499 	 48.9701
| 35> C 	 47.0434 	 14.4859 	 48.5268
| 36> H 	 46.5093 	 15.4399 	 48.5364
| 37> H 	 47.361 	 14.3132 	 47.4248
| 38> H 	 47.864 	 14.5365 	 49.2748
| 39> H 	 39.5474 	 14.015 	 49.0034
| 40> H 	 45.2841 	 9.69901 	 53.1452
| 41> *
| 42>
| 43>                          ****END OF INPUT****

CARTESIAN COORDINATES (ANGSTROEM)
---------------------------------
  S     41.188000   12.332700   49.831300
  C     40.596100   13.909900   49.346600
  C     41.539200   14.941400   49.574300
  C     42.635100   14.359700   50.338800
  C     42.634800   13.015400   50.522100
  H     43.428200   14.924600   50.709800
  C     41.398400   16.444600   49.457100
  H     40.756500   16.678700   48.623900
  H     42.347000   17.023800   49.370200
  C     40.625500   17.049000   50.713800
  H     39.557700   17.002600   50.509600
  H     40.761400   16.549600   51.708500
  C     40.830000   18.594300   50.916700
  H     41.832100   18.765900   51.278600
  H     40.760600   19.147900   49.950500
  H     40.061500   18.858300   51.653000
  S     43.273800   10.673400   51.912200
  C     44.958000   10.418200   52.439500
  C     45.793900   11.338800   51.859500
  C     45.121400   12.350400   51.126800
  C     43.699700   12.203900   51.070800
  H     46.830100   11.289800   52.047900
  C     45.933500   13.486600   50.586800
  H     46.891900   13.486500   51.063900
  H     45.348100   14.372300   50.814600
  C     46.129100   13.398500   49.091100
  H     45.167000   13.504800   48.657500
  H     46.438700   12.349900   48.970100
  C     47.043400   14.485900   48.526800
  H     46.509300   15.439900   48.536400
  H     47.361000   14.313200   47.424800
  H     47.864000   14.536500   49.274800
  H     39.547400   14.015000   49.003400
  H     45.284100    9.699010   53.145200

 Total Charge           Charge          ....    0
 Multiplicity           Mult            ....    1
 Number of Electrons    NEL             ....  134
 Basis Dimension        Dim             ....  322

ORBITAL ENERGIES
----------------

  NO   OCC          E(Eh)            E(eV)
   0   2.0000     -88.966439     -2420.8999
   1   2.0000     -88.965994     -2420.8878
   2   2.0000     -10.335950      -281.2555
   3   2.0000     -10.328735      -281.0592
   4   2.0000     -10.323446      -280.9153
   5   2.0000     -10.319891      -280.8185
   6   2.0000     -10.312241      -280.6103
   7   2.0000     -10.307297      -280.4758
   8   2.0000     -10.303763      -280.3797
   9   2.0000     -10.293502      -280.1004
  10   2.0000     -10.291777      -280.0535
  11   2.0000     -10.288682      -279.9693
  12   2.0000     -10.287408      -279.9346
  13   2.0000     -10.284891      -279.8661
  14   2.0000     -10.283727      -279.8344
  15   2.0000     -10.276775      -279.6453
  16   2.0000      -8.080971      -219.8944
  17   2.0000      -8.079948      -219.8666
  18   2.0000      -6.039557      -164.3447
  19   2.0000      -6.038564      -164.3177
  20   2.0000      -6.035454      -164.2330
  21   2.0000      -6.034603      -164.2099
  22   2.0000      -6.031633      -164.1291
  23   2.0000      -6.030700      -164.1037
  24   2.0000      -1.004161       -27.3246
  25   2.0000      -0.979995       -26.6670
  26   2.0000      -0.916234       -24.9320
  27   2.0000      -0.905661       -24.6443
  28   2.0000      -0.869843       -23.6696
  29   2.0000      -0.851181       -23.1618
  30   2.0000      -0.844817       -22.9886
  31   2.0000      -0.816066       -22.2063
  32   2.0000      -0.780988       -21.2518
  33   2.0000      -0.767580       -20.8869
  34   2.0000      -0.706129       -19.2147
  35   2.0000      -0.695798       -18.9336
  36   2.0000      -0.689301       -18.7568
  37   2.0000      -0.669069       -18.2063
  38   2.0000      -0.645057       -17.5529
  39   2.0000      -0.626453       -17.0466
  40   2.0000      -0.594724       -16.1833
  41   2.0000      -0.578519       -15.7423
  42   2.0000      -0.568011       -15.4564
  43   2.0000      -0.557399       -15.1676
  44   2.0000      -0.528364       -14.3775
  45   2.0000      -0.521082       -14.1794
  46   2.0000      -0.517908       -14.0930
  47   2.0000      -0.515184       -14.0189
  48   2.0000      -0.506641       -13.7864
  49   2.0000      -0.498913       -13.5761
  50   2.0000      -0.493573       -13.4308
  51   2.0000      -0.490490       -13.3469
  52   2.0000      -0.466610       -12.6971
  53   2.0000      -0.462481       -12.5848
  54   2.0000      -0.457199       -12.4410
  55   2.0000      -0.448357       -12.2004
  56   2.0000      -0.440423       -11.9845
  57   2.0000      -0.439040       -11.9469
  58   2.0000      -0.428278       -11.6540
  59   2.0000      -0.426146       -11.5960
  60   2.0000      -0.420777       -11.4499
  61   2.0000      -0.417351       -11.3567
  62   2.0000      -0.414629       -11.2826
  63   2.0000      -0.356075        -9.6893
  64   2.0000      -0.333795        -9.0830
  65   2.0000      -0.326396        -8.8817
  66   2.0000      -0.283082        -7.7031
  67   0.0000       0.017664         0.4807
  68   0.0000       0.074068         2.0155
  69   0.0000       0.097839         2.6623
  70   0.0000       0.116463         3.1691
  71   0.0000       0.132921         3.6170

MULLIKEN ATOMIC CHARGES
-----------------------
   0 S :    0.104258
   1 C :   -0.147945
   2 C :   -0.050986
   3 C :   -0.016306
   4 C :   -0.078918
   5 H :   -0.022825
   6 C :    0.064726
   7 H :    0.028135
   8 H :    0.038950
   9 C :   -0.125720
  10 H :    0.027091
  11 H :    0.051257
  12 C :   -0.066498
  13 H :    0.032537
  14 H :    0.037268
  15 H :    0.047655
  16 S :    0.084064
  17 C :   -0.072058
  18 C :   -0.018157
  19 C :   -0.062267
  20 C :   -0.133118
  21 H :    0.006122
  22 C :    0.074674
  23 H :    0.007904
  24 H :    0.014561
  25 C :   -0.066888
  26 H :    0.026052
  27 H :    0.027200
  28 C :   -0.044287
  29 H :    0.029559
  30 H :    0.059046
  31 H :    0.028253
  32 H :    0.068531
  33 H :    0.048131
Sum of atomic charges:    0.0000000

LOEWDIN ATOMIC CHARGES
----------------------
   0 S :    0.402563
   1 C :   -0.198569
   2 C :   -0.055135
   3 C :   -0.062841
   4 C :   -0.194458
   5 H :    0.015781
   6 C :   -0.032783
   7 H :    0.032121
   8 H :    0.034854
   9 C :   -0.043397
  10 H :    0.020454
  11 H :    0.030031
  12 C :   -0.068355
  13 H :    0.018340
  14 H :    0.027235
  15 H :    0.031861
  16 S :    0.372562
  17 C :   -0.160368
  18 C :   -0.068743
  19 C :   -0.045835
  20 C :   -0.183789
  21 H :    0.027139
  22 C :   -0.029084
  23 H :    0.023293
  24 H :    0.025243
  25 C :   -0.041950
  26 H :    0.020143
  27 H :    0.025266
  28 C :   -0.071085
  29 H :    0.025352
  30 H :    0.040262
  31 H :    0.025221
  32 H :    0.033357
  33 H :    0.025313

  Mayer bond orders larger than 0.100000
B(  0-S ,  1-C ) :   1.1491 B(  0-S ,  4-C ) :   1.1285 B(  1-C ,  2-C ) :   1.5833
B(  1-C , 32-H ) :   0.9660 B(  2-C ,  3-C ) :   1.2283 B(  2-C ,  6-C ) :   1.0536
B(  3-C ,  4-C ) :   1.5864 B(  3-C ,  5-H ) :   1.0073 B(  4-C , 20-C ) :   1.0793
B(  6-C ,  7-H ) :   0.9346 B(  6-C ,  8-H ) :   0.9510 B(  6-C ,  9-C ) :   1.0334
B(  9-C , 10-H ) :   0.9627 B(  9-C , 11-H ) :   0.9657 B(  9-C , 12-C ) :   1.0714
B( 12-C , 13-H ) :   0.9791 B( 12-C , 14-H ) :   0.9747 B( 12-C , 15-H ) :   0.9761
B( 16-S , 17-C ) :   1.1520 B( 16-S , 20-C ) :   1.1205 B( 17-C , 18-C ) :   1.5995
B( 17-C , 20-C ) :   0.1079 B( 17-C , 33-H ) :   0.9709 B( 18-C , 19-C ) :   1.2603
B( 18-C , 21-H ) :   0.9951 B( 19-C , 20-C ) :   1.5533 B( 19-C , 22-C ) :   1.0485
B( 22-C , 23-H ) :   0.9246 B( 22-C , 24-H ) :   0.9294 B( 22-C , 25-C ) :   1.0671
B( 25-C , 26-H ) :   0.9534 B( 25-C , 27-H ) :   0.9542 B( 25-C , 28-C ) :   1.0733
B( 28-C , 29-H ) :   0.9717 B( 28-C , 30-H ) :   0.9728 B( 28-C , 31-H ) :   0.9744

Dispersion correction           -0.013960180
FINAL SINGLE POINT ENERGY     -1339.869770378867

DIPOLE MOMENT
-------------
                                X             Y             Z
Electronic contribution:     -8.56226     -27.65619       5.98070
Nuclear contribution   :      8.85338      28.27948      -5.91630
                        -----------------------------------------
Total Dipole Moment    :      0.29112       0.62329       0.06440
                        -----------------------------------------
Magnitude (a.u.)       :      0.69094
Magnitude (Debye)      :      1.75622

Rotational constants in cm-1:     0.017355     0.008542     0.006721
Rotational constants in MHz :   520.296109   256.085860   201.484816

                             ****ORCA TERMINATED NORMALLY****
TOTAL RUN TIME: 0 days 0 hours 0 minutes 34 seconds 651 msec
