                         Program Version 4.2.1 -  RELEASE  -
|  1> ! wB97X-D3 SP def2-SVP
|  2> %pal
|  3> nprocs 16
|  4> end
|  5>
|  6> * xyz 0 1
|  7> S 	 -15.7705 	 31.9805 	 38.3797
|  8> C 	 -17.0592 	 30.8267 	 38.2245
|  9> C 	 -17.8136 	 31.1592 	 37.1499
| 10> C 	 -17.5024 	 32.4542 	 36.6262
| 11> C 	 -16.4718 	 33.1522 	 37.2334
| 12> H 	 -18.0434 	 32.9565 	 35.8389
| 13> C 	 -18.9667 	 30.3038 	 36.6581
| 14> H 	 -19.5715 	 30.073 	 37.5123
| 15> H 	 -18.4269 	 29.374 	 36.2111
| 16> C 	 -19.9096 	 30.966 	 35.6466
| 17> H 	 -19.4427 	 31.4134 	 34.7511
| 18> H 	 -20.4652 	 30.2274 	 35.2954
| 19> C 	 -20.9435 	 31.9923 	 36.2339
| 20> H 	 -20.4218 	 32.8274 	 36.6405
| 21> H 	 -21.7735 	 32.2718 	 35.614
| 22> H 	 -21.4639 	 31.516 	 37.1044
| 23> S 	 -14.7491 	 34.1859 	 35.4405
| 24> C 	 -14.329 	 35.8983 	 35.5087
| 25> C 	 -15.1302 	 36.5082 	 36.4222
| 26> C 	 -15.9783 	 35.6776 	 37.2068
| 27> C 	 -15.8136 	 34.3525 	 36.8193
| 28> H 	 -15.0488 	 37.565 	 36.5626
| 29> C 	 -17.0151 	 36.2405 	 38.2401
| 30> H 	 -16.6337 	 37.2376 	 38.4293
| 31> H 	 -16.8513 	 35.7307 	 39.1563
| 32> C 	 -18.5238 	 36.1699 	 37.8416
| 33> H 	 -19.2046 	 36.2805 	 38.6553
| 34> H 	 -18.7474 	 35.2991 	 37.2464
| 35> C 	 -18.7637 	 37.3628 	 36.8728
| 36> H 	 -18.23 	 37.1925 	 35.9021
| 37> H 	 -18.4922 	 38.2841 	 37.4162
| 38> H 	 -19.8377 	 37.5337 	 36.6689
| 39> H 	 -17.0006 	 29.8398 	 38.5834
| 40> H 	 -13.5513 	 36.4425 	 34.9473
| 41> *
| 42>
| 43>                          ****END OF INPUT****

CARTESIAN COORDINATES (ANGSTROEM)
---------------------------------
  S    -15.770500   31.980500   38.379700
  C    -17.059200   30.826700   38.224500
  C    -17.813600   31.159200   37.149900
  C    -17.502400   32.454200   36.626200
  C    -16.471800   33.152200   37.233400
  H    -18.043400   32.956500   35.838900
  C    -18.966700   30.303800   36.658100
  H    -19.571500   30.073000   37.512300
  H    -18.426900   29.374000   36.211100
  C    -19.909600   30.966000   35.646600
  H    -19.442700   31.413400   34.751100
  H    -20.465200   30.227400   35.295400
  C    -20.943500   31.992300   36.233900
  H    -20.421800   32.827400   36.640500
  H    -21.773500   32.271800   35.614000
  H    -21.463900   31.516000   37.104400
  S    -14.749100   34.185900   35.440500
  C    -14.329000   35.898300   35.508700
  C    -15.130200   36.508200   36.422200
  C    -15.978300   35.677600   37.206800
  C    -15.813600   34.352500   36.819300
  H    -15.048800   37.565000   36.562600
  C    -17.015100   36.240500   38.240100
  H    -16.633700   37.237600   38.429300
  H    -16.851300   35.730700   39.156300
  C    -18.523800   36.169900   37.841600
  H    -19.204600   36.280500   38.655300
  H    -18.747400   35.299100   37.246400
  C    -18.763700   37.362800   36.872800
  H    -18.230000   37.192500   35.902100
  H    -18.492200   38.284100   37.416200
  H    -19.837700   37.533700   36.668900
  H    -17.000600   29.839800   38.583400
  H    -13.551300   36.442500   34.947300

 Total Charge           Charge          ....    0
 Multiplicity           Mult            ....    1
 Number of Electrons    NEL             ....  134
 Basis Dimension        Dim             ....  322

ORBITAL ENERGIES
----------------

  NO   OCC          E(Eh)            E(eV)
   0   2.0000     -88.966263     -2420.8951
   1   2.0000     -88.957911     -2420.6678
   2   2.0000     -10.327651      -281.0297
   3   2.0000     -10.325326      -280.9664
   4   2.0000     -10.318269      -280.7744
   5   2.0000     -10.307395      -280.4785
   6   2.0000     -10.304813      -280.4082
   7   2.0000     -10.299630      -280.2672
   8   2.0000     -10.295746      -280.1615
   9   2.0000     -10.294109      -280.1169
  10   2.0000     -10.292728      -280.0794
  11   2.0000     -10.289280      -279.9855
  12   2.0000     -10.286242      -279.9029
  13   2.0000     -10.280633      -279.7502
  14   2.0000     -10.279179      -279.7107
  15   2.0000     -10.278522      -279.6928
  16   2.0000      -8.080753      -219.8885
  17   2.0000      -8.072611      -219.6669
  18   2.0000      -6.039297      -164.3376
  19   2.0000      -6.035281      -164.2284
  20   2.0000      -6.031472      -164.1247
  21   2.0000      -6.031116      -164.1150
  22   2.0000      -6.027047      -164.0043
  23   2.0000      -6.023423      -163.9057
  24   2.0000      -1.007413       -27.4131
  25   2.0000      -0.985739       -26.8233
  26   2.0000      -0.911174       -24.7943
  27   2.0000      -0.903090       -24.5743
  28   2.0000      -0.876789       -23.8586
  29   2.0000      -0.845347       -23.0031
  30   2.0000      -0.838242       -22.8097
  31   2.0000      -0.817890       -22.2559
  32   2.0000      -0.781173       -21.2568
  33   2.0000      -0.770953       -20.9787
  34   2.0000      -0.717608       -19.5271
  35   2.0000      -0.701735       -19.0952
  36   2.0000      -0.692038       -18.8313
  37   2.0000      -0.660745       -17.9798
  38   2.0000      -0.641125       -17.4459
  39   2.0000      -0.620528       -16.8854
  40   2.0000      -0.593007       -16.1365
  41   2.0000      -0.570858       -15.5338
  42   2.0000      -0.556331       -15.1385
  43   2.0000      -0.553705       -15.0671
  44   2.0000      -0.543591       -14.7919
  45   2.0000      -0.534135       -14.5346
  46   2.0000      -0.519856       -14.1460
  47   2.0000      -0.512269       -13.9396
  48   2.0000      -0.507579       -13.8119
  49   2.0000      -0.490579       -13.3493
  50   2.0000      -0.488377       -13.2894
  51   2.0000      -0.475882       -12.9494
  52   2.0000      -0.472188       -12.8489
  53   2.0000      -0.462670       -12.5899
  54   2.0000      -0.460613       -12.5339
  55   2.0000      -0.446353       -12.1459
  56   2.0000      -0.441737       -12.0203
  57   2.0000      -0.432264       -11.7625
  58   2.0000      -0.429725       -11.6934
  59   2.0000      -0.428821       -11.6688
  60   2.0000      -0.425196       -11.5702
  61   2.0000      -0.418611       -11.3910
  62   2.0000      -0.404704       -11.0125
  63   2.0000      -0.336958        -9.1691
  64   2.0000      -0.326785        -8.8923
  65   2.0000      -0.320108        -8.7106
  66   2.0000      -0.311858        -8.4861
  67   0.0000       0.042875         1.1667
  68   0.0000       0.043141         1.1739
  69   0.0000       0.113538         3.0895
  70   0.0000       0.125696         3.4204
  71   0.0000       0.132870         3.6156

MULLIKEN ATOMIC CHARGES
-----------------------
   0 S :    0.091987
   1 C :   -0.093293
   2 C :   -0.114763
   3 C :    0.035691
   4 C :   -0.154678
   5 H :    0.007290
   6 C :    0.040362
   7 H :    0.035195
   8 H :    0.060383
   9 C :   -0.023354
  10 H :    0.031812
  11 H :   -0.009112
  12 C :   -0.063179
  13 H :    0.031035
  14 H :    0.039735
  15 H :    0.020061
  16 S :    0.125077
  17 C :   -0.094592
  18 C :   -0.037407
  19 C :   -0.035393
  20 C :   -0.208113
  21 H :    0.007261
  22 C :    0.114287
  23 H :    0.009217
  24 H :    0.025441
  25 C :   -0.026878
  26 H :    0.030849
  27 H :    0.039383
  28 C :   -0.103111
  29 H :    0.056190
  30 H :    0.025285
  31 H :    0.030105
  32 H :    0.041145
  33 H :    0.066082
Sum of atomic charges:    0.0000000

LOEWDIN ATOMIC CHARGES
----------------------
   0 S :    0.396557
   1 C :   -0.194100
   2 C :   -0.073228
   3 C :   -0.063553
   4 C :   -0.194164
   5 H :    0.026027
   6 C :   -0.028997
   7 H :    0.032185
   8 H :    0.049108
   9 C :   -0.036437
  10 H :    0.026935
  11 H :    0.007115
  12 C :   -0.062950
  13 H :    0.017745
  14 H :    0.025772
  15 H :    0.028039
  16 S :    0.410829
  17 C :   -0.186911
  18 C :   -0.075391
  19 C :   -0.047249
  20 C :   -0.205602
  21 H :    0.026158
  22 C :   -0.019333
  23 H :    0.027066
  24 H :    0.028573
  25 C :   -0.029295
  26 H :    0.022700
  27 H :    0.025339
  28 C :   -0.072707
  29 H :    0.032022
  30 H :    0.021607
  31 H :    0.022468
  32 H :    0.023511
  33 H :    0.040163

  Mayer bond orders larger than 0.100000
B(  0-S ,  1-C ) :   1.1481 B(  0-S ,  4-C ) :   1.1459 B(  1-C ,  2-C ) :   1.6139
B(  1-C ,  4-C ) :   0.1036 B(  1-C , 32-H ) :   0.9728 B(  2-C ,  3-C ) :   1.2587
B(  2-C ,  6-C ) :   0.9977 B(  3-C ,  4-C ) :   1.5614 B(  3-C ,  5-H ) :   0.9923
B(  4-C , 20-C ) :   1.0476 B(  6-C ,  7-H ) :   0.9449 B(  6-C ,  8-H ) :   0.9342
B(  6-C ,  9-C ) :   1.0927 B(  9-C , 10-H ) :   0.9489 B(  9-C , 11-H ) :   0.9424
B(  9-C , 12-C ) :   1.0689 B( 12-C , 13-H ) :   0.9808 B( 12-C , 14-H ) :   0.9764
B( 12-C , 15-H ) :   0.9706 B( 16-S , 17-C ) :   1.1381 B( 16-S , 20-C ) :   1.1608
B( 17-C , 18-C ) :   1.6228 B( 17-C , 20-C ) :   0.1000 B( 17-C , 33-H ) :   0.9639
B( 18-C , 19-C ) :   1.2530 B( 18-C , 21-H ) :   0.9848 B( 19-C , 20-C ) :   1.5844
B( 19-C , 22-C ) :   1.0270 B( 22-C , 23-H ) :   0.9376 B( 22-C , 24-H ) :   0.9285
B( 22-C , 25-C ) :   1.0544 B( 25-C , 26-H ) :   0.9570 B( 25-C , 27-H ) :   0.9607
B( 25-C , 28-C ) :   1.0705 B( 28-C , 29-H ) :   0.9783 B( 28-C , 30-H ) :   0.9773
B( 28-C , 31-H ) :   0.9752

Dispersion correction           -0.015090316
FINAL SINGLE POINT ENERGY     -1339.858999789128

DIPOLE MOMENT
-------------
                                X             Y             Z
Electronic contribution:     25.71557      -6.32451       1.39477
Nuclear contribution   :    -26.25987       6.43007      -1.56083
                        -----------------------------------------
Total Dipole Moment    :     -0.54430       0.10556      -0.16606
                        -----------------------------------------
Magnitude (a.u.)       :      0.57878
Magnitude (Debye)      :      1.47113

Rotational constants in cm-1:     0.017461     0.009714     0.007826
Rotational constants in MHz :   523.457876   291.229973   234.628560

                             ****ORCA TERMINATED NORMALLY****
TOTAL RUN TIME: 0 days 0 hours 0 minutes 32 seconds 777 msec
