                         Program Version 4.2.1 -  RELEASE  -
|  1> ! wB97X-D3 SP def2-SVP
|  2> %pal
|  3> nprocs 16
|  4> end
|  5>
|  6> * xyz 0 1
|  7> S 	 7.62415 	 -15.0699 	 87.4175
|  8> C 	 9.34566 	 -14.9474 	 87.3756
|  9> C 	 9.81701 	 -14.5534 	 88.6369
| 10> C 	 8.79965 	 -14.4084 	 89.6198
| 11> C 	 7.55779 	 -14.502 	 89.0825
| 12> H 	 8.91431 	 -14.0918 	 90.6589
| 13> C 	 11.2704 	 -14.2192 	 88.8537
| 14> H 	 11.9509 	 -14.9961 	 88.4861
| 15> H 	 11.5382 	 -14.2897 	 89.9635
| 16> C 	 11.7401 	 -12.8787 	 88.4238
| 17> H 	 11.7073 	 -12.8154 	 87.3139
| 18> H 	 11.0631 	 -12.0792 	 88.8044
| 19> C 	 13.2223 	 -12.5582 	 88.7767
| 20> H 	 13.2939 	 -12.4618 	 89.8996
| 21> H 	 13.8851 	 -13.2732 	 88.3949
| 22> H 	 13.4754 	 -11.6228 	 88.2973
| 23> S 	 5.46304 	 -15.8174 	 90.2014
| 24> C 	 4.27871 	 -14.894 	 91.1108
| 25> C 	 4.6486 	 -13.6058 	 91.3599
| 26> C 	 5.79241 	 -13.3205 	 90.5627
| 27> C 	 6.31616 	 -14.3863 	 89.815
| 28> H 	 4.14893 	 -12.897 	 92.0256
| 29> C 	 6.40357 	 -11.9317 	 90.7796
| 30> H 	 7.37257 	 -12.0036 	 90.4682
| 31> H 	 6.52323 	 -11.7327 	 91.8725
| 32> C 	 5.68068 	 -10.7821 	 90.107
| 33> H 	 4.70525 	 -10.7709 	 90.6238
| 34> H 	 5.56129 	 -10.9368 	 89.0691
| 35> C 	 6.4175 	 -9.45058 	 90.3161
| 36> H 	 6.41537 	 -9.35942 	 91.3733
| 37> H 	 5.86454 	 -8.60818 	 89.8606
| 38> H 	 7.4224 	 -9.41001 	 89.8769
| 39> H 	 9.9265 	 -15.0593 	 86.4036
| 40> H 	 3.4385 	 -15.3731 	 91.6425
| 41> *
| 42>
| 43>                          ****END OF INPUT****

CARTESIAN COORDINATES (ANGSTROEM)
---------------------------------
  S      7.624150  -15.069900   87.417500
  C      9.345660  -14.947400   87.375600
  C      9.817010  -14.553400   88.636900
  C      8.799650  -14.408400   89.619800
  C      7.557790  -14.502000   89.082500
  H      8.914310  -14.091800   90.658900
  C     11.270400  -14.219200   88.853700
  H     11.950900  -14.996100   88.486100
  H     11.538200  -14.289700   89.963500
  C     11.740100  -12.878700   88.423800
  H     11.707300  -12.815400   87.313900
  H     11.063100  -12.079200   88.804400
  C     13.222300  -12.558200   88.776700
  H     13.293900  -12.461800   89.899600
  H     13.885100  -13.273200   88.394900
  H     13.475400  -11.622800   88.297300
  S      5.463040  -15.817400   90.201400
  C      4.278710  -14.894000   91.110800
  C      4.648600  -13.605800   91.359900
  C      5.792410  -13.320500   90.562700
  C      6.316160  -14.386300   89.815000
  H      4.148930  -12.897000   92.025600
  C      6.403570  -11.931700   90.779600
  H      7.372570  -12.003600   90.468200
  H      6.523230  -11.732700   91.872500
  C      5.680680  -10.782100   90.107000
  H      4.705250  -10.770900   90.623800
  H      5.561290  -10.936800   89.069100
  C      6.417500   -9.450580   90.316100
  H      6.415370   -9.359420   91.373300
  H      5.864540   -8.608180   89.860600
  H      7.422400   -9.410010   89.876900
  H      9.926500  -15.059300   86.403600
  H      3.438500  -15.373100   91.642500

 Total Charge           Charge          ....    0
 Multiplicity           Mult            ....    1
 Number of Electrons    NEL             ....  134
 Basis Dimension        Dim             ....  322

ORBITAL ENERGIES
----------------

  NO   OCC          E(Eh)            E(eV)
   0   2.0000     -88.965584     -2420.8766
   1   2.0000     -88.965546     -2420.8756
   2   2.0000     -10.325625      -280.9745
   3   2.0000     -10.321785      -280.8700
   4   2.0000     -10.320923      -280.8466
   5   2.0000     -10.317006      -280.7400
   6   2.0000     -10.303683      -280.3775
   7   2.0000     -10.300723      -280.2969
   8   2.0000     -10.294740      -280.1341
   9   2.0000     -10.292758      -280.0802
  10   2.0000     -10.291113      -280.0354
  11   2.0000     -10.287754      -279.9440
  12   2.0000     -10.280305      -279.7413
  13   2.0000     -10.279477      -279.7188
  14   2.0000     -10.279188      -279.7109
  15   2.0000     -10.275381      -279.6073
  16   2.0000      -8.081001      -219.8952
  17   2.0000      -8.080698      -219.8870
  18   2.0000      -6.039456      -164.3419
  19   2.0000      -6.039080      -164.3317
  20   2.0000      -6.035480      -164.2337
  21   2.0000      -6.035092      -164.2232
  22   2.0000      -6.031700      -164.1309
  23   2.0000      -6.031626      -164.1289
  24   2.0000      -1.012017       -27.5384
  25   2.0000      -0.988836       -26.9076
  26   2.0000      -0.913756       -24.8646
  27   2.0000      -0.910728       -24.7822
  28   2.0000      -0.874018       -23.7832
  29   2.0000      -0.852812       -23.2062
  30   2.0000      -0.847627       -23.0651
  31   2.0000      -0.816704       -22.2236
  32   2.0000      -0.780901       -21.2494
  33   2.0000      -0.765620       -20.8336
  34   2.0000      -0.701694       -19.0941
  35   2.0000      -0.694085       -18.8870
  36   2.0000      -0.692507       -18.8441
  37   2.0000      -0.662979       -18.0406
  38   2.0000      -0.646002       -17.5786
  39   2.0000      -0.619721       -16.8635
  40   2.0000      -0.596514       -16.2320
  41   2.0000      -0.574387       -15.6299
  42   2.0000      -0.569661       -15.5013
  43   2.0000      -0.559872       -15.2349
  44   2.0000      -0.525217       -14.2919
  45   2.0000      -0.524318       -14.2674
  46   2.0000      -0.519153       -14.1269
  47   2.0000      -0.509457       -13.8630
  48   2.0000      -0.504425       -13.7261
  49   2.0000      -0.495380       -13.4800
  50   2.0000      -0.494217       -13.4483
  51   2.0000      -0.485696       -13.2164
  52   2.0000      -0.473057       -12.8725
  53   2.0000      -0.466181       -12.6854
  54   2.0000      -0.461876       -12.5683
  55   2.0000      -0.447273       -12.1709
  56   2.0000      -0.442498       -12.0410
  57   2.0000      -0.439578       -11.9615
  58   2.0000      -0.433265       -11.7897
  59   2.0000      -0.424807       -11.5596
  60   2.0000      -0.419319       -11.4102
  61   2.0000      -0.413993       -11.2653
  62   2.0000      -0.403175       -10.9710
  63   2.0000      -0.347947        -9.4681
  64   2.0000      -0.331903        -9.0315
  65   2.0000      -0.323758        -8.8099
  66   2.0000      -0.299410        -8.1474
  67   0.0000       0.037382         1.0172
  68   0.0000       0.061778         1.6811
  69   0.0000       0.106641         2.9018
  70   0.0000       0.122389         3.3304
  71   0.0000       0.131956         3.5907

MULLIKEN ATOMIC CHARGES
-----------------------
   0 S :    0.116321
   1 C :   -0.142315
   2 C :   -0.070739
   3 C :    0.063070
   4 C :   -0.195641
   5 H :    0.026325
   6 C :    0.034576
   7 H :    0.022968
   8 H :    0.014572
   9 C :   -0.091443
  10 H :    0.021169
  11 H :    0.034025
  12 C :   -0.032524
  13 H :    0.040053
  14 H :    0.023471
  15 H :    0.032462
  16 S :    0.117876
  17 C :   -0.092452
  18 C :   -0.025663
  19 C :   -0.065229
  20 C :   -0.137662
  21 H :    0.033206
  22 C :    0.082408
  23 H :   -0.028171
  24 H :    0.025005
  25 C :   -0.056894
  26 H :    0.021601
  27 H :    0.027014
  28 C :   -0.035105
  29 H :    0.017782
  30 H :    0.037255
  31 H :    0.038309
  32 H :    0.083555
  33 H :    0.060818
Sum of atomic charges:   -0.0000000

LOEWDIN ATOMIC CHARGES
----------------------
   0 S :    0.413601
   1 C :   -0.210512
   2 C :   -0.066180
   3 C :   -0.056184
   4 C :   -0.197261
   5 H :    0.039138
   6 C :   -0.049038
   7 H :    0.029968
   8 H :    0.031850
   9 C :   -0.046350
  10 H :    0.021338
  11 H :    0.027121
  12 C :   -0.058651
  13 H :    0.030097
  14 H :    0.016291
  15 H :    0.027237
  16 S :    0.425999
  17 C :   -0.181219
  18 C :   -0.070546
  19 C :   -0.049741
  20 C :   -0.224195
  21 H :    0.038379
  22 C :   -0.031158
  23 H :    0.007698
  24 H :    0.033388
  25 C :   -0.033262
  26 H :    0.024012
  27 H :    0.019160
  28 C :   -0.061943
  29 H :    0.018495
  30 H :    0.029007
  31 H :    0.027134
  32 H :    0.045898
  33 H :    0.030429

  Mayer bond orders larger than 0.100000
B(  0-S ,  1-C ) :   1.1516 B(  0-S ,  4-C ) :   1.1594 B(  1-C ,  2-C ) :   1.5810
B(  1-C ,  4-C ) :   0.1007 B(  1-C , 32-H ) :   0.9637 B(  2-C ,  3-C ) :   1.2495
B(  2-C ,  6-C ) :   1.0267 B(  3-C ,  4-C ) :   1.5760 B(  3-C ,  5-H ) :   0.9916
B(  4-C , 20-C ) :   1.0150 B(  6-C ,  7-H ) :   0.9353 B(  6-C ,  8-H ) :   0.9401
B(  6-C ,  9-C ) :   1.0723 B(  9-C , 10-H ) :   0.9516 B(  9-C , 11-H ) :   0.9535
B(  9-C , 12-C ) :   1.0816 B( 12-C , 13-H ) :   0.9757 B( 12-C , 14-H ) :   0.9747
B( 12-C , 15-H ) :   0.9742 B( 16-S , 17-C ) :   1.1667 B( 16-S , 20-C ) :   1.1537
B( 17-C , 18-C ) :   1.5950 B( 17-C , 33-H ) :   0.9614 B( 18-C , 19-C ) :   1.2534
B( 18-C , 21-H ) :   0.9905 B( 19-C , 20-C ) :   1.5937 B( 19-C , 22-C ) :   1.0391
B( 22-C , 23-H ) :   0.9199 B( 22-C , 24-H ) :   0.9403 B( 22-C , 25-C ) :   1.0654
B( 25-C , 26-H ) :   0.9558 B( 25-C , 27-H ) :   0.9548 B( 25-C , 28-C ) :   1.0851
B( 28-C , 29-H ) :   0.9747 B( 28-C , 30-H ) :   0.9742 B( 28-C , 31-H ) :   0.9752

Dispersion correction           -0.013635018
FINAL SINGLE POINT ENERGY     -1339.875978708511

DIPOLE MOMENT
-------------
                                X             Y             Z
Electronic contribution:    -18.05164     -24.43148      -4.74769
Nuclear contribution   :     18.42853      24.88997       5.05844
                        -----------------------------------------
Total Dipole Moment    :      0.37689       0.45849       0.31075
                        -----------------------------------------
Magnitude (a.u.)       :      0.66994
Magnitude (Debye)      :      1.70285

Rotational constants in cm-1:     0.017236     0.008588     0.006491
Rotational constants in MHz :   516.729715   257.448004   194.606088

                             ****ORCA TERMINATED NORMALLY****
TOTAL RUN TIME: 0 days 0 hours 0 minutes 33 seconds 90 msec
