                         Program Version 4.2.1 -  RELEASE  -
|  1> ! wB97X-D3 SP def2-SVP
|  2> %pal
|  3> nprocs 16
|  4> end
|  5>
|  6> * xyz 0 1
|  7> S 	 -75.2673 	 54.0085 	 138.04
|  8> C 	 -74.0684 	 53.2353 	 139.096
|  9> C 	 -73.4098 	 52.2016 	 138.49
| 10> C 	 -73.8024 	 52.0348 	 137.159
| 11> C 	 -74.85 	 52.8487 	 136.783
| 12> H 	 -73.4893 	 51.2444 	 136.447
| 13> C 	 -72.349 	 51.31 	 139.117
| 14> H 	 -71.6823 	 51.9075 	 139.804
| 15> H 	 -71.7888 	 50.9485 	 138.224
| 16> C 	 -72.8873 	 50.0196 	 139.836
| 17> H 	 -73.2462 	 49.2144 	 139.162
| 18> H 	 -72.0279 	 49.6196 	 140.374
| 19> C 	 -74.1052 	 50.2906 	 140.805
| 20> H 	 -74.5102 	 49.3234 	 141.247
| 21> H 	 -73.783 	 51.0295 	 141.505
| 22> H 	 -74.818 	 50.7804 	 140.162
| 23> S 	 -76.7387 	 51.8003 	 135.074
| 24> C 	 -76.6523 	 52.3172 	 133.364
| 25> C 	 -75.7886 	 53.3603 	 133.165
| 26> C 	 -75.0817 	 53.7796 	 134.331
| 27> C 	 -75.386 	 52.9316 	 135.401
| 28> H 	 -75.7106 	 53.7922 	 132.158
| 29> C 	 -74.2085 	 55.0068 	 134.322
| 30> H 	 -73.4509 	 55.0383 	 133.586
| 31> H 	 -73.5914 	 54.8124 	 135.147
| 32> C 	 -75.0659 	 56.2917 	 134.44
| 33> H 	 -75.7647 	 56.3731 	 135.351
| 34> H 	 -75.6141 	 56.358 	 133.455
| 35> C 	 -74.0993 	 57.5453 	 134.382
| 36> H 	 -73.5861 	 57.6928 	 133.409
| 37> H 	 -73.2299 	 57.435 	 135.139
| 38> H 	 -74.6241 	 58.493 	 134.601
| 39> H 	 -73.9419 	 53.4507 	 140.107
| 40> H 	 -77.2361 	 51.9359 	 132.609
| 41> *
| 42>
| 43>                          ****END OF INPUT****

CARTESIAN COORDINATES (ANGSTROEM)
---------------------------------
  S    -75.267300   54.008500  138.040000
  C    -74.068400   53.235300  139.096000
  C    -73.409800   52.201600  138.490000
  C    -73.802400   52.034800  137.159000
  C    -74.850000   52.848700  136.783000
  H    -73.489300   51.244400  136.447000
  C    -72.349000   51.310000  139.117000
  H    -71.682300   51.907500  139.804000
  H    -71.788800   50.948500  138.224000
  C    -72.887300   50.019600  139.836000
  H    -73.246200   49.214400  139.162000
  H    -72.027900   49.619600  140.374000
  C    -74.105200   50.290600  140.805000
  H    -74.510200   49.323400  141.247000
  H    -73.783000   51.029500  141.505000
  H    -74.818000   50.780400  140.162000
  S    -76.738700   51.800300  135.074000
  C    -76.652300   52.317200  133.364000
  C    -75.788600   53.360300  133.165000
  C    -75.081700   53.779600  134.331000
  C    -75.386000   52.931600  135.401000
  H    -75.710600   53.792200  132.158000
  C    -74.208500   55.006800  134.322000
  H    -73.450900   55.038300  133.586000
  H    -73.591400   54.812400  135.147000
  C    -75.065900   56.291700  134.440000
  H    -75.764700   56.373100  135.351000
  H    -75.614100   56.358000  133.455000
  C    -74.099300   57.545300  134.382000
  H    -73.586100   57.692800  133.409000
  H    -73.229900   57.435000  135.139000
  H    -74.624100   58.493000  134.601000
  H    -73.941900   53.450700  140.107000
  H    -77.236100   51.935900  132.609000

 Total Charge           Charge          ....    0
 Multiplicity           Mult            ....    1
 Number of Electrons    NEL             ....  134
 Basis Dimension        Dim             ....  322

ORBITAL ENERGIES
----------------

  NO   OCC          E(Eh)            E(eV)
   0   2.0000     -88.969259     -2420.9766
   1   2.0000     -88.965171     -2420.8654
   2   2.0000     -10.329554      -281.0814
   3   2.0000     -10.327824      -281.0344
   4   2.0000     -10.310969      -280.5757
   5   2.0000     -10.309982      -280.5489
   6   2.0000     -10.304622      -280.4030
   7   2.0000     -10.303422      -280.3704
   8   2.0000     -10.302438      -280.3436
   9   2.0000     -10.296872      -280.1921
  10   2.0000     -10.292931      -280.0849
  11   2.0000     -10.291476      -280.0453
  12   2.0000     -10.290987      -280.0320
  13   2.0000     -10.288319      -279.9594
  14   2.0000     -10.284974      -279.8684
  15   2.0000     -10.277637      -279.6687
  16   2.0000      -8.083166      -219.9541
  17   2.0000      -8.078709      -219.8329
  18   2.0000      -6.041642      -164.4014
  19   2.0000      -6.037821      -164.2975
  20   2.0000      -6.037239      -164.2816
  21   2.0000      -6.033992      -164.1933
  22   2.0000      -6.033620      -164.1831
  23   2.0000      -6.029299      -164.0656
  24   2.0000      -1.002008       -27.2660
  25   2.0000      -0.979697       -26.6589
  26   2.0000      -0.904525       -24.6134
  27   2.0000      -0.903907       -24.5966
  28   2.0000      -0.861841       -23.4519
  29   2.0000      -0.846760       -23.0415
  30   2.0000      -0.841528       -22.8991
  31   2.0000      -0.810396       -22.0520
  32   2.0000      -0.781033       -21.2530
  33   2.0000      -0.770784       -20.9741
  34   2.0000      -0.703178       -19.1345
  35   2.0000      -0.696870       -18.9628
  36   2.0000      -0.694256       -18.8917
  37   2.0000      -0.659758       -17.9529
  38   2.0000      -0.639333       -17.3971
  39   2.0000      -0.614029       -16.7086
  40   2.0000      -0.596573       -16.2336
  41   2.0000      -0.563222       -15.3260
  42   2.0000      -0.557119       -15.1600
  43   2.0000      -0.544063       -14.8047
  44   2.0000      -0.538902       -14.6643
  45   2.0000      -0.523922       -14.2566
  46   2.0000      -0.515917       -14.0388
  47   2.0000      -0.510120       -13.8811
  48   2.0000      -0.507931       -13.8215
  49   2.0000      -0.492053       -13.3895
  50   2.0000      -0.480764       -13.0823
  51   2.0000      -0.475262       -12.9325
  52   2.0000      -0.462752       -12.5921
  53   2.0000      -0.459730       -12.5099
  54   2.0000      -0.450982       -12.2718
  55   2.0000      -0.446560       -12.1515
  56   2.0000      -0.443108       -12.0576
  57   2.0000      -0.440935       -11.9985
  58   2.0000      -0.438048       -11.9199
  59   2.0000      -0.424128       -11.5411
  60   2.0000      -0.419782       -11.4229
  61   2.0000      -0.412875       -11.2349
  62   2.0000      -0.410778       -11.1778
  63   2.0000      -0.339053        -9.2261
  64   2.0000      -0.331520        -9.0211
  65   2.0000      -0.319273        -8.6879
  66   2.0000      -0.308642        -8.3986
  67   0.0000       0.042348         1.1523
  68   0.0000       0.051830         1.4104
  69   0.0000       0.104832         2.8526
  70   0.0000       0.110073         2.9952
  71   0.0000       0.130969         3.5639

MULLIKEN ATOMIC CHARGES
-----------------------
   0 S :    0.116699
   1 C :   -0.105858
   2 C :   -0.079118
   3 C :    0.030304
   4 C :   -0.177387
   5 H :    0.031105
   6 C :    0.040998
   7 H :    0.046380
   8 H :    0.037400
   9 C :   -0.090192
  10 H :    0.036305
  11 H :    0.034141
  12 C :   -0.069254
  13 H :    0.056266
  14 H :    0.022383
  15 H :    0.049927
  16 S :    0.098193
  17 C :   -0.053784
  18 C :   -0.044365
  19 C :   -0.013530
  20 C :   -0.215125
  21 H :    0.024548
  22 C :    0.131876
  23 H :    0.011879
  24 H :    0.002452
  25 C :   -0.096071
  26 H :    0.064631
  27 H :    0.043412
  28 C :   -0.091991
  29 H :    0.036376
  30 H :    0.039120
  31 H :    0.042585
  32 H :    0.019121
  33 H :    0.020576
Sum of atomic charges:    0.0000000

LOEWDIN ATOMIC CHARGES
----------------------
   0 S :    0.394222
   1 C :   -0.177931
   2 C :   -0.071794
   3 C :   -0.061970
   4 C :   -0.200542
   5 H :    0.041508
   6 C :   -0.033877
   7 H :    0.036889
   8 H :    0.038917
   9 C :   -0.041508
  10 H :    0.025554
  11 H :    0.021379
  12 C :   -0.068503
  13 H :    0.036474
  14 H :    0.016069
  15 H :    0.024998
  16 S :    0.371419
  17 C :   -0.159218
  18 C :   -0.070342
  19 C :   -0.047147
  20 C :   -0.187154
  21 H :    0.035448
  22 C :   -0.032016
  23 H :    0.028443
  24 H :    0.025758
  25 C :   -0.038326
  26 H :    0.039670
  27 H :    0.031602
  28 C :   -0.082296
  29 H :    0.024847
  30 H :    0.030140
  31 H :    0.025862
  32 H :    0.013008
  33 H :    0.010414

  Mayer bond orders larger than 0.100000
B(  0-S ,  1-C ) :   1.1353 B(  0-S ,  4-C ) :   1.1465 B(  1-C ,  2-C ) :   1.6114
B(  1-C , 32-H ) :   0.9739 B(  2-C ,  3-C ) :   1.2431 B(  2-C ,  6-C ) :   1.0138
B(  3-C ,  4-C ) :   1.6056 B(  3-C ,  5-H ) :   0.9828 B(  4-C , 20-C ) :   0.9927
B(  6-C ,  7-H ) :   0.9459 B(  6-C ,  8-H ) :   0.9406 B(  6-C ,  9-C ) :   1.0592
B(  9-C , 10-H ) :   0.9602 B(  9-C , 11-H ) :   0.9598 B(  9-C , 12-C ) :   1.0709
B( 12-C , 13-H ) :   0.9744 B( 12-C , 14-H ) :   0.9773 B( 12-C , 15-H ) :   0.9708
B( 16-S , 17-C ) :   1.1275 B( 16-S , 20-C ) :   1.1406 B( 17-C , 18-C ) :   1.6536
B( 17-C , 33-H ) :   0.9745 B( 18-C , 19-C ) :   1.2014 B( 18-C , 21-H ) :   0.9838
B( 19-C , 20-C ) :   1.6282 B( 19-C , 22-C ) :   1.0401 B( 22-C , 23-H ) :   0.9357
B( 22-C , 24-H ) :   0.9125 B( 22-C , 25-C ) :   1.0454 B( 25-C , 26-H ) :   0.9559
B( 25-C , 27-H ) :   0.9589 B( 25-C , 28-C ) :   1.0651 B( 28-C , 29-H ) :   0.9766
B( 28-C , 30-H ) :   0.9760 B( 28-C , 31-H ) :   0.9767

Dispersion correction           -0.014810063
FINAL SINGLE POINT ENERGY     -1339.866139880771

DIPOLE MOMENT
-------------
                                X             Y             Z
Electronic contribution:    -12.88773      -4.16552      -4.93596
Nuclear contribution   :     13.30904       4.21365       4.77657
                        -----------------------------------------
Total Dipole Moment    :      0.42131       0.04813      -0.15939
                        -----------------------------------------
Magnitude (a.u.)       :      0.45301
Magnitude (Debye)      :      1.15147

Rotational constants in cm-1:     0.021055     0.008060     0.006624
Rotational constants in MHz :   631.208419   241.628081   198.583179

                             ****ORCA TERMINATED NORMALLY****
TOTAL RUN TIME: 0 days 0 hours 0 minutes 36 seconds 143 msec
