                         Program Version 4.2.1 -  RELEASE  -
|  1> ! wB97X-D3 SP def2-SVP
|  2> %pal
|  3> nprocs 16
|  4> end
|  5>
|  6> * xyz 0 1
|  7> S 	 38.3503 	 10.8837 	 78.3755
|  8> C 	 38.5333 	 9.19387 	 78.6305
|  9> C 	 37.4544 	 8.4566 	 78.2277
| 10> C 	 36.4241 	 9.29106 	 77.6817
| 11> C 	 36.7617 	 10.653 	 77.7032
| 12> H 	 35.4218 	 8.99615 	 77.3405
| 13> C 	 37.3635 	 6.99787 	 78.53
| 14> H 	 38.3245 	 6.60229 	 78.889
| 15> H 	 37.1445 	 6.56906 	 77.5167
| 16> C 	 36.3855 	 6.55034 	 79.5662
| 17> H 	 35.3531 	 6.67853 	 79.1961
| 18> H 	 36.466 	 5.47471 	 79.6436
| 19> C 	 36.516 	 7.26616 	 80.987
| 20> H 	 35.7847 	 6.66343 	 81.5754
| 21> H 	 37.5474 	 7.20676 	 81.3489
| 22> H 	 36.224 	 8.26523 	 80.939
| 23> S 	 34.8583 	 12.4945 	 78.2995
| 24> C 	 34.2451 	 13.5892 	 77.085
| 25> C 	 34.756 	 13.3164 	 75.7917
| 26> C 	 35.7715 	 12.2245 	 75.8449
| 27> C 	 35.974 	 11.7767 	 77.1593
| 28> H 	 34.2716 	 13.7532 	 74.9403
| 29> C 	 36.4954 	 11.7409 	 74.632
| 30> H 	 37.4678 	 11.4055 	 74.866
| 31> H 	 36.7682 	 12.5991 	 73.9718
| 32> C 	 35.6954 	 10.6756 	 73.9264
| 33> H 	 35.4599 	 9.87454 	 74.6127
| 34> H 	 36.3325 	 10.0997 	 73.2293
| 35> C 	 34.3755 	 11.1154 	 73.2194
| 36> H 	 33.6791 	 11.673 	 73.8104
| 37> H 	 33.9761 	 10.1211 	 72.852
| 38> H 	 34.3597 	 11.7664 	 72.3796
| 39> H 	 39.2237 	 8.7085 	 79.2407
| 40> H 	 33.4991 	 14.3715 	 77.2077
| 41> *
| 42>
| 43>                          ****END OF INPUT****

CARTESIAN COORDINATES (ANGSTROEM)
---------------------------------
  S     38.350300   10.883700   78.375500
  C     38.533300    9.193870   78.630500
  C     37.454400    8.456600   78.227700
  C     36.424100    9.291060   77.681700
  C     36.761700   10.653000   77.703200
  H     35.421800    8.996150   77.340500
  C     37.363500    6.997870   78.530000
  H     38.324500    6.602290   78.889000
  H     37.144500    6.569060   77.516700
  C     36.385500    6.550340   79.566200
  H     35.353100    6.678530   79.196100
  H     36.466000    5.474710   79.643600
  C     36.516000    7.266160   80.987000
  H     35.784700    6.663430   81.575400
  H     37.547400    7.206760   81.348900
  H     36.224000    8.265230   80.939000
  S     34.858300   12.494500   78.299500
  C     34.245100   13.589200   77.085000
  C     34.756000   13.316400   75.791700
  C     35.771500   12.224500   75.844900
  C     35.974000   11.776700   77.159300
  H     34.271600   13.753200   74.940300
  C     36.495400   11.740900   74.632000
  H     37.467800   11.405500   74.866000
  H     36.768200   12.599100   73.971800
  C     35.695400   10.675600   73.926400
  H     35.459900    9.874540   74.612700
  H     36.332500   10.099700   73.229300
  C     34.375500   11.115400   73.219400
  H     33.679100   11.673000   73.810400
  H     33.976100   10.121100   72.852000
  H     34.359700   11.766400   72.379600
  H     39.223700    8.708500   79.240700
  H     33.499100   14.371500   77.207700

 Total Charge           Charge          ....    0
 Multiplicity           Mult            ....    1
 Number of Electrons    NEL             ....  134
 Basis Dimension        Dim             ....  322

ORBITAL ENERGIES
----------------

  NO   OCC          E(Eh)            E(eV)
   0   2.0000     -88.967046     -2420.9164
   1   2.0000     -88.966792     -2420.9095
   2   2.0000     -10.330645      -281.1111
   3   2.0000     -10.326664      -281.0028
   4   2.0000     -10.321378      -280.8590
   5   2.0000     -10.311201      -280.5820
   6   2.0000     -10.303159      -280.3632
   7   2.0000     -10.300993      -280.3043
   8   2.0000     -10.300077      -280.2793
   9   2.0000     -10.296582      -280.1842
  10   2.0000     -10.291543      -280.0471
  11   2.0000     -10.287745      -279.9438
  12   2.0000     -10.287424      -279.9350
  13   2.0000     -10.285636      -279.8864
  14   2.0000     -10.279983      -279.7326
  15   2.0000     -10.277312      -279.6599
  16   2.0000      -8.082254      -219.9293
  17   2.0000      -8.081389      -219.9058
  18   2.0000      -6.040607      -164.3733
  19   2.0000      -6.039897      -164.3540
  20   2.0000      -6.036651      -164.2656
  21   2.0000      -6.035889      -164.2449
  22   2.0000      -6.033200      -164.1717
  23   2.0000      -6.032188      -164.1442
  24   2.0000      -1.005109       -27.3504
  25   2.0000      -0.980960       -26.6933
  26   2.0000      -0.914326       -24.8801
  27   2.0000      -0.910245       -24.7690
  28   2.0000      -0.864752       -23.5311
  29   2.0000      -0.845215       -22.9995
  30   2.0000      -0.841053       -22.8862
  31   2.0000      -0.814072       -22.1520
  32   2.0000      -0.787527       -21.4297
  33   2.0000      -0.776042       -21.1172
  34   2.0000      -0.712371       -19.3846
  35   2.0000      -0.700015       -19.0484
  36   2.0000      -0.689221       -18.7547
  37   2.0000      -0.659984       -17.9591
  38   2.0000      -0.640132       -17.4189
  39   2.0000      -0.618572       -16.8322
  40   2.0000      -0.594722       -16.1832
  41   2.0000      -0.568414       -15.4673
  42   2.0000      -0.552386       -15.0312
  43   2.0000      -0.548070       -14.9138
  44   2.0000      -0.544752       -14.8235
  45   2.0000      -0.537625       -14.6295
  46   2.0000      -0.518290       -14.1034
  47   2.0000      -0.510323       -13.8866
  48   2.0000      -0.501559       -13.6481
  49   2.0000      -0.493235       -13.4216
  50   2.0000      -0.489187       -13.3115
  51   2.0000      -0.479576       -13.0499
  52   2.0000      -0.476430       -12.9643
  53   2.0000      -0.466951       -12.7064
  54   2.0000      -0.463317       -12.6075
  55   2.0000      -0.448505       -12.2044
  56   2.0000      -0.441617       -12.0170
  57   2.0000      -0.434998       -11.8369
  58   2.0000      -0.432815       -11.7775
  59   2.0000      -0.420870       -11.4525
  60   2.0000      -0.417342       -11.3565
  61   2.0000      -0.412915       -11.2360
  62   2.0000      -0.410083       -11.1589
  63   2.0000      -0.334882        -9.1126
  64   2.0000      -0.325994        -8.8707
  65   2.0000      -0.317480        -8.6391
  66   2.0000      -0.314908        -8.5691
  67   0.0000       0.045490         1.2379
  68   0.0000       0.054102         1.4722
  69   0.0000       0.110825         3.0157
  70   0.0000       0.121760         3.3132
  71   0.0000       0.125812         3.4235

MULLIKEN ATOMIC CHARGES
-----------------------
   0 S :    0.130236
   1 C :   -0.081638
   2 C :   -0.104995
   3 C :    0.046862
   4 C :   -0.196921
   5 H :    0.022675
   6 C :    0.057243
   7 H :    0.015668
   8 H :    0.039558
   9 C :   -0.084702
  10 H :    0.022203
  11 H :    0.028827
  12 C :   -0.044186
  13 H :    0.044653
  14 H :    0.032685
  15 H :    0.041908
  16 S :    0.120033
  17 C :   -0.095634
  18 C :   -0.042805
  19 C :   -0.031909
  20 C :   -0.184542
  21 H :    0.024683
  22 C :    0.104979
  23 H :    0.009052
  24 H :    0.030002
  25 C :   -0.049895
  26 H :    0.017105
  27 H :    0.024131
  28 C :   -0.054212
  29 H :    0.024709
  30 H :    0.040150
  31 H :    0.016711
  32 H :    0.018399
  33 H :    0.058968
Sum of atomic charges:   -0.0000000

LOEWDIN ATOMIC CHARGES
----------------------
   0 S :    0.428098
   1 C :   -0.201898
   2 C :   -0.066900
   3 C :   -0.060147
   4 C :   -0.208602
   5 H :    0.034105
   6 C :   -0.039324
   7 H :    0.028812
   8 H :    0.039779
   9 C :   -0.043025
  10 H :    0.021318
  11 H :    0.023254
  12 C :   -0.055730
  13 H :    0.035366
  14 H :    0.023999
  15 H :    0.019124
  16 S :    0.414461
  17 C :   -0.189789
  18 C :   -0.071686
  19 C :   -0.038496
  20 C :   -0.213693
  21 H :    0.028144
  22 C :   -0.038246
  23 H :    0.027223
  24 H :    0.037338
  25 C :   -0.036596
  26 H :    0.025221
  27 H :    0.027391
  28 C :   -0.071727
  29 H :    0.020238
  30 H :    0.037657
  31 H :    0.018205
  32 H :    0.015544
  33 H :    0.030581

  Mayer bond orders larger than 0.100000
B(  0-S ,  1-C ) :   1.1446 B(  0-S ,  4-C ) :   1.1695 B(  1-C ,  2-C ) :   1.6175
B(  1-C , 32-H ) :   0.9654 B(  2-C ,  3-C ) :   1.2310 B(  2-C ,  6-C ) :   1.0285
B(  3-C ,  4-C ) :   1.5768 B(  3-C ,  5-H ) :   0.9921 B(  4-C , 20-C ) :   0.9899
B(  6-C ,  7-H ) :   0.9415 B(  6-C ,  8-H ) :   0.9295 B(  6-C ,  9-C ) :   1.0837
B(  9-C , 10-H ) :   0.9524 B(  9-C , 11-H ) :   0.9569 B(  9-C , 12-C ) :   1.0579
B( 12-C , 13-H ) :   0.9761 B( 12-C , 14-H ) :   0.9787 B( 12-C , 15-H ) :   0.9765
B( 16-S , 17-C ) :   1.1591 B( 16-S , 20-C ) :   1.1469 B( 17-C , 18-C ) :   1.6253
B( 17-C , 33-H ) :   0.9653 B( 18-C , 19-C ) :   1.2105 B( 18-C , 21-H ) :   0.9850
B( 19-C , 20-C ) :   1.6205 B( 19-C , 22-C ) :   1.0512 B( 22-C , 23-H ) :   0.9221
B( 22-C , 24-H ) :   0.9386 B( 22-C , 25-C ) :   1.0755 B( 25-C , 26-H ) :   0.9501
B( 25-C , 27-H ) :   0.9524 B( 25-C , 28-C ) :   1.0661 B( 28-C , 29-H ) :   0.9717
B( 28-C , 30-H ) :   0.9743 B( 28-C , 31-H ) :   0.9769

Dispersion correction           -0.015357329
FINAL SINGLE POINT ENERGY     -1339.870562164940

DIPOLE MOMENT
-------------
                                X             Y             Z
Electronic contribution:      5.22658      17.22834       8.49752
Nuclear contribution   :     -5.46602     -17.65800      -8.76016
                        -----------------------------------------
Total Dipole Moment    :     -0.23944      -0.42965      -0.26264
                        -----------------------------------------
Magnitude (a.u.)       :      0.55759
Magnitude (Debye)      :      1.41729

Rotational constants in cm-1:     0.020888     0.008186     0.007379
Rotational constants in MHz :   626.197008   245.398759   221.218810

                             ****ORCA TERMINATED NORMALLY****
TOTAL RUN TIME: 0 days 0 hours 0 minutes 30 seconds 473 msec
