                         Program Version 4.2.1 -  RELEASE  -
|  1> ! wB97X-D3 SP def2-SVP
|  2> %pal
|  3> nprocs 16
|  4> end
|  5>
|  6> * xyz 0 1
|  7> S 	 22.4796 	 32.1836 	 55.1897
|  8> C 	 21.3437 	 31.6219 	 56.419
|  9> C 	 21.6289 	 32.2508 	 57.6337
| 10> C 	 22.6534 	 33.1884 	 57.4769
| 11> C 	 23.1077 	 33.4594 	 56.1933
| 12> H 	 23.0703 	 33.8006 	 58.2068
| 13> C 	 21.0591 	 31.8853 	 58.9764
| 14> H 	 21.6487 	 31.0507 	 59.1967
| 15> H 	 20.038 	 31.6542 	 58.789
| 16> C 	 21.1929 	 32.9822 	 60.1339
| 17> H 	 22.2413 	 33.1128 	 60.2634
| 18> H 	 20.6812 	 33.8955 	 59.8202
| 19> C 	 20.5089 	 32.5841 	 61.429
| 20> H 	 19.4802 	 32.1141 	 61.3242
| 21> H 	 21.2338 	 31.9001 	 61.8885
| 22> H 	 20.4322 	 33.489 	 62.0742
| 23> S 	 24.95 	 34.0854 	 54.2868
| 24> C 	 25.5608 	 35.7146 	 54.1463
| 25> C 	 25.0313 	 36.4813 	 55.1529
| 26> C 	 24.0585 	 35.8359 	 55.9148
| 27> C 	 23.9716 	 34.4763 	 55.648
| 28> H 	 25.3995 	 37.5769 	 55.2726
| 29> C 	 23.1631 	 36.5632 	 56.8372
| 30> H 	 22.4109 	 35.9765 	 57.3638
| 31> H 	 22.556 	 37.2802 	 56.2747
| 32> C 	 23.9538 	 37.3408 	 57.9495
| 33> H 	 23.2442 	 38.05 	 58.2524
| 34> H 	 24.7073 	 37.9717 	 57.5051
| 35> C 	 24.5492 	 36.6694 	 59.2219
| 36> H 	 25.3008 	 35.8449 	 59.0897
| 37> H 	 23.654 	 36.1417 	 59.6505
| 38> H 	 24.8757 	 37.4053 	 59.8915
| 39> H 	 20.8648 	 30.6551 	 56.3079
| 40> H 	 26.3766 	 35.931 	 53.484
| 41> *
| 42>
| 43>                          ****END OF INPUT****

CARTESIAN COORDINATES (ANGSTROEM)
---------------------------------
  S     22.479600   32.183600   55.189700
  C     21.343700   31.621900   56.419000
  C     21.628900   32.250800   57.633700
  C     22.653400   33.188400   57.476900
  C     23.107700   33.459400   56.193300
  H     23.070300   33.800600   58.206800
  C     21.059100   31.885300   58.976400
  H     21.648700   31.050700   59.196700
  H     20.038000   31.654200   58.789000
  C     21.192900   32.982200   60.133900
  H     22.241300   33.112800   60.263400
  H     20.681200   33.895500   59.820200
  C     20.508900   32.584100   61.429000
  H     19.480200   32.114100   61.324200
  H     21.233800   31.900100   61.888500
  H     20.432200   33.489000   62.074200
  S     24.950000   34.085400   54.286800
  C     25.560800   35.714600   54.146300
  C     25.031300   36.481300   55.152900
  C     24.058500   35.835900   55.914800
  C     23.971600   34.476300   55.648000
  H     25.399500   37.576900   55.272600
  C     23.163100   36.563200   56.837200
  H     22.410900   35.976500   57.363800
  H     22.556000   37.280200   56.274700
  C     23.953800   37.340800   57.949500
  H     23.244200   38.050000   58.252400
  H     24.707300   37.971700   57.505100
  C     24.549200   36.669400   59.221900
  H     25.300800   35.844900   59.089700
  H     23.654000   36.141700   59.650500
  H     24.875700   37.405300   59.891500
  H     20.864800   30.655100   56.307900
  H     26.376600   35.931000   53.484000

 Total Charge           Charge          ....    0
 Multiplicity           Mult            ....    1
 Number of Electrons    NEL             ....  134
 Basis Dimension        Dim             ....  322

ORBITAL ENERGIES
----------------

  NO   OCC          E(Eh)            E(eV)
   0   2.0000     -88.963864     -2420.8298
   1   2.0000     -88.959351     -2420.7070
   2   2.0000     -10.327261      -281.0191
   3   2.0000     -10.324737      -280.9504
   4   2.0000     -10.317340      -280.7491
   5   2.0000     -10.311069      -280.5785
   6   2.0000     -10.300051      -280.2786
   7   2.0000     -10.299517      -280.2641
   8   2.0000     -10.299037      -280.2510
   9   2.0000     -10.291635      -280.0496
  10   2.0000     -10.290204      -280.0107
  11   2.0000     -10.288286      -279.9585
  12   2.0000     -10.287205      -279.9291
  13   2.0000     -10.284439      -279.8538
  14   2.0000     -10.283056      -279.8162
  15   2.0000     -10.282966      -279.8137
  16   2.0000      -8.079508      -219.8546
  17   2.0000      -8.074210      -219.7104
  18   2.0000      -6.037866      -164.2987
  19   2.0000      -6.033864      -164.1898
  20   2.0000      -6.032669      -164.1573
  21   2.0000      -6.030390      -164.0952
  22   2.0000      -6.028675      -164.0486
  23   2.0000      -6.025034      -163.9495
  24   2.0000      -1.014042       -27.5935
  25   2.0000      -0.988667       -26.9030
  26   2.0000      -0.912567       -24.8322
  27   2.0000      -0.908468       -24.7207
  28   2.0000      -0.874030       -23.7836
  29   2.0000      -0.852516       -23.1981
  30   2.0000      -0.845358       -23.0034
  31   2.0000      -0.818644       -22.2764
  32   2.0000      -0.785779       -21.3821
  33   2.0000      -0.773094       -21.0370
  34   2.0000      -0.712337       -19.3837
  35   2.0000      -0.702275       -19.1099
  36   2.0000      -0.692037       -18.8313
  37   2.0000      -0.654758       -17.8169
  38   2.0000      -0.642625       -17.4867
  39   2.0000      -0.622259       -16.9325
  40   2.0000      -0.607287       -16.5251
  41   2.0000      -0.582908       -15.8617
  42   2.0000      -0.559274       -15.2186
  43   2.0000      -0.552647       -15.0383
  44   2.0000      -0.530469       -14.4348
  45   2.0000      -0.525690       -14.3047
  46   2.0000      -0.525463       -14.2986
  47   2.0000      -0.516765       -14.0619
  48   2.0000      -0.502793       -13.6817
  49   2.0000      -0.500484       -13.6189
  50   2.0000      -0.495935       -13.4951
  51   2.0000      -0.484652       -13.1881
  52   2.0000      -0.475751       -12.9458
  53   2.0000      -0.474048       -12.8995
  54   2.0000      -0.460487       -12.5305
  55   2.0000      -0.448141       -12.1945
  56   2.0000      -0.446403       -12.1472
  57   2.0000      -0.441709       -12.0195
  58   2.0000      -0.431080       -11.7303
  59   2.0000      -0.419482       -11.4147
  60   2.0000      -0.417032       -11.3480
  61   2.0000      -0.413692       -11.2571
  62   2.0000      -0.405979       -11.0473
  63   2.0000      -0.353657        -9.6235
  64   2.0000      -0.333008        -9.0616
  65   2.0000      -0.325263        -8.8509
  66   2.0000      -0.283400        -7.7117
  67   0.0000       0.019959         0.5431
  68   0.0000       0.078927         2.1477
  69   0.0000       0.105444         2.8693
  70   0.0000       0.121366         3.3025
  71   0.0000       0.134025         3.6470

MULLIKEN ATOMIC CHARGES
-----------------------
   0 S :    0.085270
   1 C :   -0.123965
   2 C :   -0.104493
   3 C :    0.039902
   4 C :   -0.143429
   5 H :   -0.036629
   6 C :    0.096297
   7 H :    0.034738
   8 H :    0.024028
   9 C :   -0.105694
  10 H :    0.040344
  11 H :    0.034801
  12 C :   -0.058426
  13 H :    0.050823
  14 H :    0.032043
  15 H :    0.043153
  16 S :    0.095865
  17 C :   -0.093462
  18 C :   -0.065209
  19 C :   -0.023371
  20 C :   -0.124079
  21 H :    0.057531
  22 C :    0.068164
  23 H :    0.016876
  24 H :    0.035996
  25 C :   -0.088463
  26 H :    0.008745
  27 H :    0.013478
  28 C :   -0.039454
  29 H :    0.051435
  30 H :    0.025383
  31 H :    0.035885
  32 H :    0.055716
  33 H :    0.060202
Sum of atomic charges:    0.0000000

LOEWDIN ATOMIC CHARGES
----------------------
   0 S :    0.399558
   1 C :   -0.205059
   2 C :   -0.058925
   3 C :   -0.071916
   4 C :   -0.184657
   5 H :    0.013944
   6 C :   -0.021392
   7 H :    0.030746
   8 H :    0.028074
   9 C :   -0.037324
  10 H :    0.020331
  11 H :    0.024034
  12 C :   -0.071709
  13 H :    0.033874
  14 H :    0.026259
  15 H :    0.031379
  16 S :    0.417785
  17 C :   -0.180751
  18 C :   -0.079312
  19 C :   -0.064178
  20 C :   -0.206469
  21 H :    0.049342
  22 C :   -0.026640
  23 H :    0.028814
  24 H :    0.038613
  25 C :   -0.038844
  26 H :    0.018301
  27 H :    0.014584
  28 C :   -0.065234
  29 H :    0.031677
  30 H :    0.027360
  31 H :    0.022323
  32 H :    0.027652
  33 H :    0.027760

  Mayer bond orders larger than 0.100000
B(  0-S ,  1-C ) :   1.1429 B(  0-S ,  4-C ) :   1.1628 B(  1-C ,  2-C ) :   1.5705
B(  1-C ,  4-C ) :   0.1166 B(  1-C , 32-H ) :   0.9708 B(  2-C ,  3-C ) :   1.2802
B(  2-C ,  6-C ) :   0.9980 B(  3-C ,  4-C ) :   1.5308 B(  3-C ,  5-H ) :   1.0023
B(  4-C , 20-C ) :   1.0702 B(  6-C ,  7-H ) :   0.9338 B(  6-C ,  8-H ) :   0.9396
B(  6-C ,  9-C ) :   1.0753 B(  9-C , 10-H ) :   0.9479 B(  9-C , 11-H ) :   0.9644
B(  9-C , 12-C ) :   1.0842 B( 12-C , 13-H ) :   0.9734 B( 12-C , 14-H ) :   0.9763
B( 12-C , 15-H ) :   0.9739 B( 16-S , 17-C ) :   1.1653 B( 16-S , 20-C ) :   1.1485
B( 17-C , 18-C ) :   1.5878 B( 17-C , 20-C ) :   0.1025 B( 17-C , 33-H ) :   0.9718
B( 18-C , 19-C ) :   1.2642 B( 18-C , 21-H ) :   0.9715 B( 19-C , 20-C ) :   1.5520
B( 19-C , 22-C ) :   1.0558 B( 22-C , 23-H ) :   0.9337 B( 22-C , 24-H ) :   0.9289
B( 22-C , 25-C ) :   1.0694 B( 25-C , 26-H ) :   0.9515 B( 25-C , 27-H ) :   0.9568
B( 25-C , 28-C ) :   1.0700 B( 28-C , 29-H ) :   0.9766 B( 28-C , 30-H ) :   0.9711
B( 28-C , 31-H ) :   0.9714

Dispersion correction           -0.014365352
FINAL SINGLE POINT ENERGY     -1339.861538241708

DIPOLE MOMENT
-------------
                                X             Y             Z
Electronic contribution:      7.94935      -9.61408     -29.99508
Nuclear contribution   :     -7.98136      10.01535      30.67650
                        -----------------------------------------
Total Dipole Moment    :     -0.03201       0.40128       0.68142
                        -----------------------------------------
Magnitude (a.u.)       :      0.79144
Magnitude (Debye)      :      2.01168

Rotational constants in cm-1:     0.018002     0.009662     0.006595
Rotational constants in MHz :   539.690109   289.647641   197.724331

                             ****ORCA TERMINATED NORMALLY****
TOTAL RUN TIME: 0 days 0 hours 0 minutes 33 seconds 602 msec
