                         Program Version 4.2.1 -  RELEASE  -
|  1> ! wB97X-D3 SP def2-SVP
|  2> %pal
|  3> nprocs 16
|  4> end
|  5>
|  6> * xyz 0 1
|  7> S 	 40.5671 	 13.3278 	 68.7314
|  8> C 	 39.1877 	 12.3584 	 68.8267
|  9> C 	 38.0275 	 12.9236 	 68.3382
| 10> C 	 38.322 	 14.174 	 67.7191
| 11> C 	 39.6574 	 14.5682 	 67.8781
| 12> H 	 37.5304 	 14.7367 	 67.1839
| 13> C 	 36.6678 	 12.1951 	 68.1482
| 14> H 	 36.9323 	 11.1659 	 67.8024
| 15> H 	 36.1074 	 12.579 	 67.3436
| 16> C 	 35.8653 	 12.0454 	 69.5039
| 17> H 	 36.5728 	 11.9654 	 70.389
| 18> H 	 35.3213 	 12.9925 	 69.6694
| 19> C 	 35.0343 	 10.7159 	 69.4122
| 20> H 	 34.4925 	 10.7633 	 70.3205
| 21> H 	 34.2741 	 10.629 	 68.6627
| 22> H 	 35.6886 	 9.87239 	 69.2931
| 23> S 	 39.8929 	 16.7174 	 65.9955
| 24> C 	 40.7732 	 18.146 	 66.5268
| 25> C 	 41.2613 	 17.9987 	 67.8051
| 26> C 	 40.8504 	 16.7273 	 68.4256
| 27> C 	 40.1667 	 15.903 	 67.5893
| 28> H 	 41.9107 	 18.722 	 68.3338
| 29> C 	 41.3025 	 16.3652 	 69.8334
| 30> H 	 42.1994 	 15.7829 	 69.7632
| 31> H 	 40.6311 	 15.6702 	 70.2981
| 32> C 	 41.3142 	 17.4649 	 70.8628
| 33> H 	 40.5116 	 18.0872 	 70.8958
| 34> H 	 42.1938 	 18.0219 	 70.6734
| 35> C 	 41.4381 	 16.8308 	 72.2814
| 36> H 	 41.5498 	 17.5477 	 73.1137
| 37> H 	 42.2717 	 16.0817 	 72.3351
| 38> H 	 40.6111 	 16.1198 	 72.5446
| 39> H 	 39.2212 	 11.3484 	 69.2548
| 40> H 	 40.9771 	 19.0221 	 65.902
| 41> *
| 42>
| 43>                          ****END OF INPUT****

CARTESIAN COORDINATES (ANGSTROEM)
---------------------------------
  S     40.567100   13.327800   68.731400
  C     39.187700   12.358400   68.826700
  C     38.027500   12.923600   68.338200
  C     38.322000   14.174000   67.719100
  C     39.657400   14.568200   67.878100
  H     37.530400   14.736700   67.183900
  C     36.667800   12.195100   68.148200
  H     36.932300   11.165900   67.802400
  H     36.107400   12.579000   67.343600
  C     35.865300   12.045400   69.503900
  H     36.572800   11.965400   70.389000
  H     35.321300   12.992500   69.669400
  C     35.034300   10.715900   69.412200
  H     34.492500   10.763300   70.320500
  H     34.274100   10.629000   68.662700
  H     35.688600    9.872390   69.293100
  S     39.892900   16.717400   65.995500
  C     40.773200   18.146000   66.526800
  C     41.261300   17.998700   67.805100
  C     40.850400   16.727300   68.425600
  C     40.166700   15.903000   67.589300
  H     41.910700   18.722000   68.333800
  C     41.302500   16.365200   69.833400
  H     42.199400   15.782900   69.763200
  H     40.631100   15.670200   70.298100
  C     41.314200   17.464900   70.862800
  H     40.511600   18.087200   70.895800
  H     42.193800   18.021900   70.673400
  C     41.438100   16.830800   72.281400
  H     41.549800   17.547700   73.113700
  H     42.271700   16.081700   72.335100
  H     40.611100   16.119800   72.544600
  H     39.221200   11.348400   69.254800
  H     40.977100   19.022100   65.902000

 Total Charge           Charge          ....    0
 Multiplicity           Mult            ....    1
 Number of Electrons    NEL             ....  134
 Basis Dimension        Dim             ....  322

ORBITAL ENERGIES
----------------

  NO   OCC          E(Eh)            E(eV)
   0   2.0000     -88.972408     -2421.0623
   1   2.0000     -88.962315     -2420.7877
   2   2.0000     -10.328915      -281.0641
   3   2.0000     -10.324636      -280.9476
   4   2.0000     -10.319487      -280.8075
   5   2.0000     -10.311221      -280.5826
   6   2.0000     -10.298946      -280.2486
   7   2.0000     -10.298698      -280.2418
   8   2.0000     -10.298660      -280.2408
   9   2.0000     -10.297187      -280.2007
  10   2.0000     -10.296566      -280.1838
  11   2.0000     -10.294889      -280.1382
  12   2.0000     -10.284411      -279.8530
  13   2.0000     -10.281925      -279.7854
  14   2.0000     -10.276460      -279.6367
  15   2.0000     -10.276236      -279.6306
  16   2.0000      -8.087299      -220.0666
  17   2.0000      -8.076010      -219.7594
  18   2.0000      -6.045679      -164.5113
  19   2.0000      -6.041711      -164.4033
  20   2.0000      -6.038272      -164.3097
  21   2.0000      -6.034812      -164.2156
  22   2.0000      -6.030769      -164.1056
  23   2.0000      -6.026430      -163.9875
  24   2.0000      -1.005112       -27.3505
  25   2.0000      -0.979268       -26.6472
  26   2.0000      -0.912398       -24.8276
  27   2.0000      -0.902062       -24.5464
  28   2.0000      -0.867510       -23.6062
  29   2.0000      -0.852501       -23.1977
  30   2.0000      -0.840476       -22.8705
  31   2.0000      -0.807785       -21.9810
  32   2.0000      -0.778911       -21.1952
  33   2.0000      -0.768418       -20.9097
  34   2.0000      -0.711262       -19.3544
  35   2.0000      -0.702233       -19.1087
  36   2.0000      -0.695632       -18.9291
  37   2.0000      -0.656242       -17.8572
  38   2.0000      -0.638348       -17.3703
  39   2.0000      -0.612249       -16.6602
  40   2.0000      -0.598443       -16.2845
  41   2.0000      -0.571829       -15.5603
  42   2.0000      -0.567642       -15.4463
  43   2.0000      -0.553798       -15.0696
  44   2.0000      -0.527599       -14.3567
  45   2.0000      -0.523854       -14.2548
  46   2.0000      -0.512047       -13.9335
  47   2.0000      -0.508408       -13.8345
  48   2.0000      -0.503774       -13.7084
  49   2.0000      -0.498006       -13.5514
  50   2.0000      -0.483428       -13.1547
  51   2.0000      -0.473006       -12.8712
  52   2.0000      -0.470248       -12.7961
  53   2.0000      -0.468398       -12.7458
  54   2.0000      -0.459625       -12.5070
  55   2.0000      -0.452256       -12.3065
  56   2.0000      -0.446362       -12.1461
  57   2.0000      -0.444235       -12.0882
  58   2.0000      -0.435637       -11.8543
  59   2.0000      -0.425658       -11.5827
  60   2.0000      -0.416213       -11.3257
  61   2.0000      -0.410614       -11.1734
  62   2.0000      -0.408395       -11.1130
  63   2.0000      -0.351270        -9.5586
  64   2.0000      -0.330012        -8.9801
  65   2.0000      -0.325681        -8.8622
  66   2.0000      -0.288700        -7.8559
  67   0.0000       0.032970         0.8971
  68   0.0000       0.073265         1.9937
  69   0.0000       0.109251         2.9729
  70   0.0000       0.118081         3.2132
  71   0.0000       0.126356         3.4383

MULLIKEN ATOMIC CHARGES
-----------------------
   0 S :    0.130146
   1 C :   -0.129368
   2 C :   -0.077181
   3 C :    0.007975
   4 C :   -0.172513
   5 H :    0.027858
   6 C :    0.051460
   7 H :    0.028279
   8 H :    0.019088
   9 C :   -0.109457
  10 H :    0.045632
  11 H :    0.042132
  12 C :   -0.027014
  13 H :    0.026338
  14 H :    0.027632
  15 H :    0.036211
  16 S :    0.090325
  17 C :   -0.096168
  18 C :   -0.028016
  19 C :   -0.060919
  20 C :   -0.119026
  21 H :    0.031579
  22 C :    0.034140
  23 H :    0.037588
  24 H :    0.018042
  25 C :    0.007804
  26 H :    0.018330
  27 H :    0.020344
  28 C :   -0.103231
  29 H :    0.042818
  30 H :    0.024425
  31 H :    0.035629
  32 H :    0.052163
  33 H :    0.066955
Sum of atomic charges:    0.0000000

LOEWDIN ATOMIC CHARGES
----------------------
   0 S :    0.448881
   1 C :   -0.217075
   2 C :   -0.070405
   3 C :   -0.057757
   4 C :   -0.197384
   5 H :    0.036914
   6 C :   -0.027437
   7 H :    0.032751
   8 H :    0.021870
   9 C :   -0.037977
  10 H :    0.031190
  11 H :    0.026357
  12 C :   -0.061316
  13 H :    0.023798
  14 H :    0.021929
  15 H :    0.024229
  16 S :    0.366042
  17 C :   -0.182130
  18 C :   -0.074238
  19 C :   -0.057755
  20 C :   -0.180075
  21 H :    0.035358
  22 C :   -0.039765
  23 H :    0.030434
  24 H :    0.022214
  25 C :   -0.024811
  26 H :    0.015173
  27 H :    0.019074
  28 C :   -0.073894
  29 H :    0.026403
  30 H :    0.026394
  31 H :    0.028080
  32 H :    0.029367
  33 H :    0.035563

  Mayer bond orders larger than 0.100000
B(  0-S ,  1-C ) :   1.1714 B(  0-S ,  4-C ) :   1.1592 B(  1-C ,  2-C ) :   1.5857
B(  1-C , 32-H ) :   0.9592 B(  2-C ,  3-C ) :   1.2956 B(  2-C ,  6-C ) :   1.0040
B(  3-C ,  4-C ) :   1.5322 B(  3-C ,  5-H ) :   0.9862 B(  4-C , 20-C ) :   1.0433
B(  6-C ,  7-H ) :   0.9574 B(  6-C ,  8-H ) :   0.9515 B(  6-C ,  9-C ) :   1.0290
B(  9-C , 10-H ) :   0.9666 B(  9-C , 11-H ) :   0.9594 B(  9-C , 12-C ) :   1.0595
B( 12-C , 13-H ) :   0.9751 B( 12-C , 14-H ) :   0.9779 B( 12-C , 15-H ) :   0.9779
B( 16-S , 17-C ) :   1.1369 B( 16-S , 20-C ) :   1.0957 B( 17-C , 18-C ) :   1.6407
B( 17-C , 33-H ) :   0.9634 B( 18-C , 19-C ) :   1.2019 B( 18-C , 21-H ) :   0.9829
B( 19-C , 20-C ) :   1.6568 B( 19-C , 22-C ) :   1.0324 B( 22-C , 23-H ) :   0.9316
B( 22-C , 24-H ) :   0.9351 B( 22-C , 25-C ) :   1.0646 B( 25-C , 26-H ) :   0.9618
B( 25-C , 27-H ) :   0.9438 B( 25-C , 28-C ) :   1.0826 B( 28-C , 29-H ) :   0.9752
B( 28-C , 30-H ) :   0.9729 B( 28-C , 31-H ) :   0.9728

Dispersion correction           -0.013665130
FINAL SINGLE POINT ENERGY     -1339.868715669914

DIPOLE MOMENT
-------------
                                X             Y             Z
Electronic contribution:     10.87642       6.42576     -19.28625
Nuclear contribution   :    -11.10805      -6.56032      19.69972
                        -----------------------------------------
Total Dipole Moment    :     -0.23163      -0.13456       0.41347
                        -----------------------------------------
Magnitude (a.u.)       :      0.49266
Magnitude (Debye)      :      1.25225

Rotational constants in cm-1:     0.019370     0.007525     0.006182
Rotational constants in MHz :   580.694421   225.590440   185.326786

                             ****ORCA TERMINATED NORMALLY****
TOTAL RUN TIME: 0 days 0 hours 0 minutes 28 seconds 968 msec
