                         Program Version 4.2.1 -  RELEASE  -
|  1> ! wB97X-D3 SP def2-SVP
|  2> %pal
|  3> nprocs 16
|  4> end
|  5>
|  6> * xyz 0 1
|  7> S 	 -92.3142 	 57.5367 	 125.595
|  8> C 	 -90.8518 	 56.6879 	 126.04
|  9> C 	 -91.0283 	 56.1331 	 127.314
| 10> C 	 -92.2361 	 56.5123 	 127.911
| 11> C 	 -92.9844 	 57.391 	 127.181
| 12> H 	 -92.5878 	 56.2525 	 128.869
| 13> C 	 -90.0761 	 55.1481 	 128.01
| 14> H 	 -90.0283 	 55.2257 	 129.093
| 15> H 	 -89.0388 	 55.5121 	 127.765
| 16> C 	 -90.1598 	 53.6286 	 127.659
| 17> H 	 -91.1733 	 53.4106 	 127.405
| 18> H 	 -89.7224 	 53.6491 	 126.635
| 19> C 	 -89.4882 	 52.7426 	 128.658
| 20> H 	 -89.7193 	 51.7066 	 128.354
| 21> H 	 -88.3914 	 52.8515 	 128.599
| 22> H 	 -89.8767 	 52.8201 	 129.702
| 23> S 	 -95.6759 	 57.6716 	 126.525
| 24> C 	 -96.7539 	 58.3864 	 127.678
| 25> C 	 -96.0977 	 58.7298 	 128.821
| 26> C 	 -94.7092 	 58.411 	 128.839
| 27> C 	 -94.2712 	 57.9513 	 127.589
| 28> H 	 -96.6364 	 59.1328 	 129.688
| 29> C 	 -93.84 	 58.8944 	 130.02
| 30> H 	 -93.1995 	 58.0828 	 130.4
| 31> H 	 -94.4635 	 59.2957 	 130.736
| 32> C 	 -92.802 	 59.9069 	 129.672
| 33> H 	 -93.2115 	 60.69 	 128.974
| 34> H 	 -92.1028 	 59.3606 	 129.053
| 35> C 	 -91.9273 	 60.2984 	 130.911
| 36> H 	 -91.2472 	 61.2774 	 130.827
| 37> H 	 -91.3119 	 59.3949 	 131.132
| 38> H 	 -92.6388 	 60.3995 	 131.705
| 39> H 	 -90.0053 	 56.4628 	 125.422
| 40> H 	 -97.8018 	 58.3994 	 127.388
| 41> *
| 42>
| 43>                          ****END OF INPUT****

CARTESIAN COORDINATES (ANGSTROEM)
---------------------------------
  S    -92.314200   57.536700  125.595000
  C    -90.851800   56.687900  126.040000
  C    -91.028300   56.133100  127.314000
  C    -92.236100   56.512300  127.911000
  C    -92.984400   57.391000  127.181000
  H    -92.587800   56.252500  128.869000
  C    -90.076100   55.148100  128.010000
  H    -90.028300   55.225700  129.093000
  H    -89.038800   55.512100  127.765000
  C    -90.159800   53.628600  127.659000
  H    -91.173300   53.410600  127.405000
  H    -89.722400   53.649100  126.635000
  C    -89.488200   52.742600  128.658000
  H    -89.719300   51.706600  128.354000
  H    -88.391400   52.851500  128.599000
  H    -89.876700   52.820100  129.702000
  S    -95.675900   57.671600  126.525000
  C    -96.753900   58.386400  127.678000
  C    -96.097700   58.729800  128.821000
  C    -94.709200   58.411000  128.839000
  C    -94.271200   57.951300  127.589000
  H    -96.636400   59.132800  129.688000
  C    -93.840000   58.894400  130.020000
  H    -93.199500   58.082800  130.400000
  H    -94.463500   59.295700  130.736000
  C    -92.802000   59.906900  129.672000
  H    -93.211500   60.690000  128.974000
  H    -92.102800   59.360600  129.053000
  C    -91.927300   60.298400  130.911000
  H    -91.247200   61.277400  130.827000
  H    -91.311900   59.394900  131.132000
  H    -92.638800   60.399500  131.705000
  H    -90.005300   56.462800  125.422000
  H    -97.801800   58.399400  127.388000

 Total Charge           Charge          ....    0
 Multiplicity           Mult            ....    1
 Number of Electrons    NEL             ....  134
 Basis Dimension        Dim             ....  322

ORBITAL ENERGIES
----------------

  NO   OCC          E(Eh)            E(eV)
   0   2.0000     -88.968701     -2420.9614
   1   2.0000     -88.964103     -2420.8363
   2   2.0000     -10.332151      -281.1521
   3   2.0000     -10.326588      -281.0007
   4   2.0000     -10.318240      -280.7736
   5   2.0000     -10.316723      -280.7323
   6   2.0000     -10.307911      -280.4925
   7   2.0000     -10.303100      -280.3616
   8   2.0000     -10.295936      -280.1667
   9   2.0000     -10.293500      -280.1004
  10   2.0000     -10.291087      -280.0347
  11   2.0000     -10.287871      -279.9472
  12   2.0000     -10.286908      -279.9210
  13   2.0000     -10.285493      -279.8825
  14   2.0000     -10.285150      -279.8732
  15   2.0000     -10.280412      -279.7442
  16   2.0000      -8.083597      -219.9659
  17   2.0000      -8.079149      -219.8448
  18   2.0000      -6.042088      -164.4136
  19   2.0000      -6.038057      -164.3039
  20   2.0000      -6.037639      -164.2925
  21   2.0000      -6.034390      -164.2041
  22   2.0000      -6.033541      -164.1810
  23   2.0000      -6.029987      -164.0843
  24   2.0000      -1.010650       -27.5012
  25   2.0000      -0.987969       -26.8840
  26   2.0000      -0.915395       -24.9092
  27   2.0000      -0.909045       -24.7364
  28   2.0000      -0.871418       -23.7125
  29   2.0000      -0.853886       -23.2354
  30   2.0000      -0.846356       -23.0305
  31   2.0000      -0.813362       -22.1327
  32   2.0000      -0.780636       -21.2422
  33   2.0000      -0.771192       -20.9852
  34   2.0000      -0.706063       -19.2130
  35   2.0000      -0.701603       -19.0916
  36   2.0000      -0.687210       -18.6999
  37   2.0000      -0.664592       -18.0845
  38   2.0000      -0.644624       -17.5411
  39   2.0000      -0.621432       -16.9100
  40   2.0000      -0.602578       -16.3970
  41   2.0000      -0.574255       -15.6263
  42   2.0000      -0.568542       -15.4708
  43   2.0000      -0.555713       -15.1217
  44   2.0000      -0.526486       -14.3264
  45   2.0000      -0.520493       -14.1633
  46   2.0000      -0.517672       -14.0866
  47   2.0000      -0.510679       -13.8963
  48   2.0000      -0.504918       -13.7395
  49   2.0000      -0.496817       -13.5191
  50   2.0000      -0.493603       -13.4316
  51   2.0000      -0.487105       -13.2548
  52   2.0000      -0.472598       -12.8600
  53   2.0000      -0.466186       -12.6856
  54   2.0000      -0.459555       -12.5051
  55   2.0000      -0.450194       -12.2504
  56   2.0000      -0.446379       -12.1466
  57   2.0000      -0.435843       -11.8599
  58   2.0000      -0.431957       -11.7541
  59   2.0000      -0.423546       -11.5253
  60   2.0000      -0.418216       -11.3802
  61   2.0000      -0.409088       -11.1319
  62   2.0000      -0.404584       -11.0093
  63   2.0000      -0.351161        -9.5556
  64   2.0000      -0.333909        -9.0861
  65   2.0000      -0.332189        -9.0393
  66   2.0000      -0.290820        -7.9136
  67   0.0000       0.024608         0.6696
  68   0.0000       0.068370         1.8604
  69   0.0000       0.110658         3.0112
  70   0.0000       0.123343         3.3563
  71   0.0000       0.134643         3.6638

MULLIKEN ATOMIC CHARGES
-----------------------
   0 S :    0.115190
   1 C :   -0.105933
   2 C :   -0.072847
   3 C :    0.035404
   4 C :   -0.146834
   5 H :   -0.009751
   6 C :    0.016257
   7 H :    0.011729
   8 H :    0.020903
   9 C :   -0.052099
  10 H :    0.021958
  11 H :    0.021096
  12 C :   -0.047623
  13 H :    0.036351
  14 H :    0.043942
  15 H :    0.047028
  16 S :    0.090240
  17 C :   -0.095636
  18 C :   -0.031001
  19 C :   -0.039176
  20 C :   -0.139794
  21 H :    0.027977
  22 C :    0.096780
  23 H :    0.017064
  24 H :   -0.003410
  25 C :   -0.097839
  26 H :    0.042870
  27 H :    0.032250
  28 C :   -0.074410
  29 H :    0.068349
  30 H :    0.038600
  31 H :    0.022659
  32 H :    0.042629
  33 H :    0.067078
Sum of atomic charges:   -0.0000000

LOEWDIN ATOMIC CHARGES
----------------------
   0 S :    0.421666
   1 C :   -0.197923
   2 C :   -0.061940
   3 C :   -0.061016
   4 C :   -0.201973
   5 H :    0.024015
   6 C :   -0.040418
   7 H :    0.021315
   8 H :    0.030560
   9 C :   -0.046861
  10 H :    0.019524
  11 H :    0.029095
  12 C :   -0.069877
  13 H :    0.033180
  14 H :    0.031883
  15 H :    0.032674
  16 S :    0.397628
  17 C :   -0.183315
  18 C :   -0.077232
  19 C :   -0.051549
  20 C :   -0.185265
  21 H :    0.035910
  22 C :   -0.023417
  23 H :    0.032940
  24 H :    0.014118
  25 C :   -0.050977
  26 H :    0.027566
  27 H :    0.022253
  28 C :   -0.072605
  29 H :    0.046340
  30 H :    0.030197
  31 H :    0.014925
  32 H :    0.027850
  33 H :    0.030728

  Mayer bond orders larger than 0.100000
B(  0-S ,  1-C ) :   1.1454 B(  0-S ,  4-C ) :   1.1615 B(  1-C ,  2-C ) :   1.5760
B(  1-C ,  4-C ) :   0.1027 B(  1-C , 32-H ) :   0.9748 B(  2-C ,  3-C ) :   1.2680
B(  2-C ,  6-C ) :   1.0212 B(  3-C ,  4-C ) :   1.5423 B(  3-C ,  5-H ) :   1.0087
B(  4-C , 20-C ) :   1.0386 B(  6-C ,  7-H ) :   0.9521 B(  6-C ,  8-H ) :   0.9430
B(  6-C ,  9-C ) :   1.0371 B(  9-C , 10-H ) :   0.9614 B(  9-C , 11-H ) :   0.9514
B(  9-C , 12-C ) :   1.0813 B( 12-C , 13-H ) :   0.9702 B( 12-C , 14-H ) :   0.9734
B( 12-C , 15-H ) :   0.9718 B( 16-S , 17-C ) :   1.1656 B( 16-S , 20-C ) :   1.1467
B( 17-C , 18-C ) :   1.5789 B( 17-C , 20-C ) :   0.1019 B( 17-C , 33-H ) :   0.9712
B( 18-C , 19-C ) :   1.2582 B( 18-C , 21-H ) :   0.9871 B( 19-C , 20-C ) :   1.5766
B( 19-C , 22-C ) :   1.0478 B( 22-C , 23-H ) :   0.9267 B( 22-C , 24-H ) :   0.9370
B( 22-C , 25-C ) :   1.0647 B( 25-C , 26-H ) :   0.9575 B( 25-C , 27-H ) :   0.9565
B( 25-C , 28-C ) :   1.0534 B( 28-C , 29-H ) :   0.9728 B( 28-C , 30-H ) :   0.9736
B( 28-C , 31-H ) :   0.9798

Dispersion correction           -0.014088743
FINAL SINGLE POINT ENERGY     -1339.865625621275

DIPOLE MOMENT
-------------
                                X             Y             Z
Electronic contribution:    -18.47271       6.43740     -19.93873
Nuclear contribution   :     18.63461      -6.72304      20.44634
                        -----------------------------------------
Total Dipole Moment    :      0.16190      -0.28564       0.50760
                        -----------------------------------------
Magnitude (a.u.)       :      0.60454
Magnitude (Debye)      :      1.53661

Rotational constants in cm-1:     0.017588     0.008259     0.006895
Rotational constants in MHz :   527.281281   247.593260   206.695263

                             ****ORCA TERMINATED NORMALLY****
TOTAL RUN TIME: 0 days 0 hours 0 minutes 34 seconds 643 msec
