                         Program Version 4.2.1 -  RELEASE  -
|  1> ! wB97X-D3 SP def2-SVP
|  2> %pal
|  3> nprocs 16
|  4> end
|  5>
|  6> * xyz 0 1
|  7> S 	 -53.992 	 37.5241 	 83.0885
|  8> C 	 -55.7251 	 38.0212 	 83.1731
|  9> C 	 -56.1723 	 37.7822 	 84.4585
| 10> C 	 -55.2093 	 37.1687 	 85.3215
| 11> C 	 -53.9645 	 36.8664 	 84.791
| 12> H 	 -55.2412 	 36.9365 	 86.3963
| 13> C 	 -57.548 	 38.0624 	 84.9296
| 14> H 	 -57.6062 	 37.6297 	 85.9025
| 15> H 	 -58.2905 	 37.5217 	 84.3406
| 16> C 	 -57.8602 	 39.5173 	 84.874
| 17> H 	 -57.7426 	 39.8957 	 83.8605
| 18> H 	 -58.9772 	 39.6228 	 84.9318
| 19> C 	 -57.2642 	 40.486 	 85.8549
| 20> H 	 -56.1758 	 40.509 	 85.7219
| 21> H 	 -57.6119 	 41.488 	 85.6101
| 22> H 	 -57.6422 	 40.2402 	 86.8692
| 23> S 	 -51.3209 	 37.4975 	 85.3334
| 24> C 	 -50.4529 	 36.3407 	 86.3036
| 25> C 	 -51.2136 	 35.3097 	 86.7751
| 26> C 	 -52.5542 	 35.4227 	 86.3596
| 27> C 	 -52.746 	 36.4443 	 85.4631
| 28> H 	 -50.8064 	 34.5242 	 87.3846
| 29> C 	 -53.6207 	 34.4748 	 86.8121
| 30> H 	 -53.1506 	 33.532 	 86.8135
| 31> H 	 -54.5141 	 34.4882 	 86.1583
| 32> C 	 -54.1653 	 34.7151 	 88.1724
| 33> H 	 -54.6528 	 35.6683 	 88.1647
| 34> H 	 -53.2633 	 34.827 	 88.8354
| 35> C 	 -55.1929 	 33.5889 	 88.5077
| 36> H 	 -55.5055 	 33.6858 	 89.5534
| 37> H 	 -54.6531 	 32.6622 	 88.3805
| 38> H 	 -56.116 	 33.5775 	 87.8491
| 39> H 	 -56.265 	 38.4302 	 82.3709
| 40> H 	 -49.3635 	 36.3756 	 86.3369
| 41> *
| 42>
| 43>                          ****END OF INPUT****

CARTESIAN COORDINATES (ANGSTROEM)
---------------------------------
  S    -53.992000   37.524100   83.088500
  C    -55.725100   38.021200   83.173100
  C    -56.172300   37.782200   84.458500
  C    -55.209300   37.168700   85.321500
  C    -53.964500   36.866400   84.791000
  H    -55.241200   36.936500   86.396300
  C    -57.548000   38.062400   84.929600
  H    -57.606200   37.629700   85.902500
  H    -58.290500   37.521700   84.340600
  C    -57.860200   39.517300   84.874000
  H    -57.742600   39.895700   83.860500
  H    -58.977200   39.622800   84.931800
  C    -57.264200   40.486000   85.854900
  H    -56.175800   40.509000   85.721900
  H    -57.611900   41.488000   85.610100
  H    -57.642200   40.240200   86.869200
  S    -51.320900   37.497500   85.333400
  C    -50.452900   36.340700   86.303600
  C    -51.213600   35.309700   86.775100
  C    -52.554200   35.422700   86.359600
  C    -52.746000   36.444300   85.463100
  H    -50.806400   34.524200   87.384600
  C    -53.620700   34.474800   86.812100
  H    -53.150600   33.532000   86.813500
  H    -54.514100   34.488200   86.158300
  C    -54.165300   34.715100   88.172400
  H    -54.652800   35.668300   88.164700
  H    -53.263300   34.827000   88.835400
  C    -55.192900   33.588900   88.507700
  H    -55.505500   33.685800   89.553400
  H    -54.653100   32.662200   88.380500
  H    -56.116000   33.577500   87.849100
  H    -56.265000   38.430200   82.370900
  H    -49.363500   36.375600   86.336900

 Total Charge           Charge          ....    0
 Multiplicity           Mult            ....    1
 Number of Electrons    NEL             ....  134
 Basis Dimension        Dim             ....  322

ORBITAL ENERGIES
----------------

  NO   OCC          E(Eh)            E(eV)
   0   2.0000     -88.966791     -2420.9095
   1   2.0000     -88.961144     -2420.7558
   2   2.0000     -10.334307      -281.2108
   3   2.0000     -10.326643      -281.0022
   4   2.0000     -10.318102      -280.7698
   5   2.0000     -10.317528      -280.7542
   6   2.0000     -10.300956      -280.3033
   7   2.0000     -10.299847      -280.2731
   8   2.0000     -10.296934      -280.1938
   9   2.0000     -10.293092      -280.0893
  10   2.0000     -10.287781      -279.9447
  11   2.0000     -10.287506      -279.9373
  12   2.0000     -10.283987      -279.8415
  13   2.0000     -10.282598      -279.8037
  14   2.0000     -10.282288      -279.7953
  15   2.0000     -10.277280      -279.6590
  16   2.0000      -8.081532      -219.9097
  17   2.0000      -8.074047      -219.7060
  18   2.0000      -6.039969      -164.3559
  19   2.0000      -6.036239      -164.2544
  20   2.0000      -6.032769      -164.1600
  21   2.0000      -6.032156      -164.1433
  22   2.0000      -6.028760      -164.0509
  23   2.0000      -6.024722      -163.9410
  24   2.0000      -1.006194       -27.3799
  25   2.0000      -0.980076       -26.6692
  26   2.0000      -0.921396       -25.0725
  27   2.0000      -0.918501       -24.9937
  28   2.0000      -0.870396       -23.6847
  29   2.0000      -0.854450       -23.2508
  30   2.0000      -0.841718       -22.9043
  31   2.0000      -0.816166       -22.2090
  32   2.0000      -0.784860       -21.3571
  33   2.0000      -0.773717       -21.0539
  34   2.0000      -0.710218       -19.3260
  35   2.0000      -0.700751       -19.0684
  36   2.0000      -0.692637       -18.8476
  37   2.0000      -0.667895       -18.1744
  38   2.0000      -0.644841       -17.5470
  39   2.0000      -0.611336       -16.6353
  40   2.0000      -0.600159       -16.3312
  41   2.0000      -0.577704       -15.7201
  42   2.0000      -0.575054       -15.6480
  43   2.0000      -0.555577       -15.1180
  44   2.0000      -0.541396       -14.7321
  45   2.0000      -0.524427       -14.2704
  46   2.0000      -0.519466       -14.1354
  47   2.0000      -0.517573       -14.0839
  48   2.0000      -0.510446       -13.8899
  49   2.0000      -0.501105       -13.6358
  50   2.0000      -0.486186       -13.2298
  51   2.0000      -0.477917       -13.0048
  52   2.0000      -0.476887       -12.9768
  53   2.0000      -0.466573       -12.6961
  54   2.0000      -0.456630       -12.4255
  55   2.0000      -0.454482       -12.3671
  56   2.0000      -0.443291       -12.0626
  57   2.0000      -0.439104       -11.9486
  58   2.0000      -0.430299       -11.7090
  59   2.0000      -0.426939       -11.6176
  60   2.0000      -0.418440       -11.3863
  61   2.0000      -0.415090       -11.2952
  62   2.0000      -0.401454       -10.9241
  63   2.0000      -0.348656        -9.4874
  64   2.0000      -0.335086        -9.1182
  65   2.0000      -0.325687        -8.8624
  66   2.0000      -0.292544        -7.9605
  67   0.0000       0.022676         0.6170
  68   0.0000       0.066081         1.7982
  69   0.0000       0.107590         2.9277
  70   0.0000       0.122908         3.3445
  71   0.0000       0.127838         3.4787

MULLIKEN ATOMIC CHARGES
-----------------------
   0 S :    0.070136
   1 C :   -0.106780
   2 C :   -0.088451
   3 C :    0.026040
   4 C :   -0.158169
   5 H :    0.008725
   6 C :    0.140888
   7 H :    0.001165
   8 H :    0.032373
   9 C :   -0.120825
  10 H :    0.013169
  11 H :    0.015587
  12 C :   -0.018744
  13 H :    0.045191
  14 H :    0.027960
  15 H :    0.035587
  16 S :    0.111918
  17 C :   -0.090897
  18 C :   -0.022101
  19 C :   -0.020431
  20 C :   -0.153289
  21 H :    0.014611
  22 C :    0.055121
  23 H :    0.006168
  24 H :    0.030084
  25 C :   -0.083221
  26 H :    0.018332
  27 H :    0.031081
  28 C :   -0.039440
  29 H :    0.041824
  30 H :    0.026580
  31 H :    0.049320
  32 H :    0.038841
  33 H :    0.061650
Sum of atomic charges:   -0.0000000

LOEWDIN ATOMIC CHARGES
----------------------
   0 S :    0.346640
   1 C :   -0.163736
   2 C :   -0.065391
   3 C :   -0.070621
   4 C :   -0.167796
   5 H :    0.033281
   6 C :   -0.031835
   7 H :    0.024921
   8 H :    0.038670
   9 C :   -0.051567
  10 H :    0.019916
  11 H :    0.024306
  12 C :   -0.062226
  13 H :    0.029449
  14 H :    0.028290
  15 H :    0.028491
  16 S :    0.398688
  17 C :   -0.177311
  18 C :   -0.069914
  19 C :   -0.050734
  20 C :   -0.191471
  21 H :    0.032772
  22 C :   -0.034016
  23 H :    0.022587
  24 H :    0.033017
  25 C :   -0.039934
  26 H :    0.014014
  27 H :    0.027904
  28 C :   -0.063262
  29 H :    0.027941
  30 H :    0.022935
  31 H :    0.035820
  32 H :    0.021469
  33 H :    0.028705

  Mayer bond orders larger than 0.100000
B(  0-S ,  1-C ) :   1.1256 B(  0-S ,  4-C ) :   1.1241 B(  1-C ,  2-C ) :   1.5951
B(  1-C ,  4-C ) :   0.1030 B(  1-C , 32-H ) :   0.9807 B(  2-C ,  3-C ) :   1.2255
B(  2-C ,  6-C ) :   1.0222 B(  3-C ,  4-C ) :   1.5863 B(  3-C ,  5-H ) :   0.9827
B(  4-C , 20-C ) :   1.0583 B(  6-C ,  7-H ) :   0.9382 B(  6-C ,  8-H ) :   0.9277
B(  6-C ,  9-C ) :   1.0769 B(  9-C , 10-H ) :   0.9535 B(  9-C , 11-H ) :   0.9485
B(  9-C , 12-C ) :   1.0873 B( 12-C , 13-H ) :   0.9730 B( 12-C , 14-H ) :   0.9684
B( 12-C , 15-H ) :   0.9731 B( 16-S , 17-C ) :   1.1555 B( 16-S , 20-C ) :   1.1265
B( 17-C , 18-C ) :   1.6148 B( 17-C , 33-H ) :   0.9618 B( 18-C , 19-C ) :   1.2274
B( 18-C , 21-H ) :   0.9948 B( 19-C , 20-C ) :   1.6131 B( 19-C , 22-C ) :   1.0513
B( 22-C , 23-H ) :   0.9241 B( 22-C , 24-H ) :   0.9305 B( 22-C , 25-C ) :   1.0713
B( 25-C , 26-H ) :   0.9470 B( 25-C , 27-H ) :   0.9511 B( 25-C , 28-C ) :   1.0716
B( 28-C , 29-H ) :   0.9746 B( 28-C , 30-H ) :   0.9749 B( 28-C , 31-H ) :   0.9723

Dispersion correction           -0.014310659
FINAL SINGLE POINT ENERGY     -1339.876611521082

DIPOLE MOMENT
-------------
                                X             Y             Z
Electronic contribution:     21.50366       2.77933     -15.62344
Nuclear contribution   :    -21.92455      -2.98088      16.10282
                        -----------------------------------------
Total Dipole Moment    :     -0.42090      -0.20155       0.47938
                        -----------------------------------------
Magnitude (a.u.)       :      0.66901
Magnitude (Debye)      :      1.70050

Rotational constants in cm-1:     0.017463     0.009092     0.006989
Rotational constants in MHz :   523.530532   272.564865   209.530401

                             ****ORCA TERMINATED NORMALLY****
TOTAL RUN TIME: 0 days 0 hours 0 minutes 30 seconds 278 msec
