                         Program Version 4.2.1 -  RELEASE  -
|  1> ! wB97X-D3 SP def2-SVP
|  2> %pal
|  3> nprocs 16
|  4> end
|  5>
|  6> * xyz 0 1
|  7> S 	 2.37299 	 16.5125 	 85.9011
|  8> C 	 0.979714 	 16.6188 	 84.8876
|  9> C 	 -0.113238 	 16.2991 	 85.6264
| 10> C 	 0.149247 	 15.9112 	 86.9806
| 11> C 	 1.52165 	 15.8998 	 87.276
| 12> H 	 -0.639 	 15.6285 	 87.7087
| 13> C 	 -1.57072 	 16.267 	 85.0981
| 14> H 	 -2.22073 	 15.8643 	 85.9021
| 15> H 	 -1.60026 	 15.6317 	 84.2652
| 16> C 	 -2.08544 	 17.6343 	 84.6072
| 17> H 	 -1.40113 	 18.0515 	 83.8995
| 18> H 	 -3.02592 	 17.5869 	 84.0857
| 19> C 	 -2.12179 	 18.6714 	 85.6657
| 20> H 	 -2.28517 	 19.544 	 85.0716
| 21> H 	 -2.98044 	 18.6496 	 86.3112
| 22> H 	 -1.20491 	 18.74 	 86.2805
| 23> S 	 2.66602 	 16.8586 	 89.5854
| 24> C 	 3.05594 	 15.7742 	 90.9305
| 25> C 	 2.41224 	 14.5503 	 90.6843
| 26> C 	 1.91648 	 14.434 	 89.3627
| 27> C 	 2.09937 	 15.5931 	 88.5589
| 28> H 	 2.42357 	 13.6964 	 91.4093
| 29> C 	 1.10924 	 13.2078 	 88.9133
| 30> H 	 0.117054 	 13.4828 	 88.6798
| 31> H 	 1.04436 	 12.5062 	 89.8269
| 32> C 	 1.75785 	 12.3394 	 87.8219
| 33> H 	 1.89195 	 12.9348 	 86.9695
| 34> H 	 0.987996 	 11.6844 	 87.6037
| 35> C 	 3.0632 	 11.6137 	 88.2457
| 36> H 	 3.08774 	 10.6255 	 87.7211
| 37> H 	 3.03385 	 11.3711 	 89.3012
| 38> H 	 4.01224 	 12.1391 	 88.0002
| 39> H 	 1.04487 	 16.8776 	 83.8881
| 40> H 	 3.67798 	 15.9056 	 91.7288
| 41> *
| 42>
| 43>                          ****END OF INPUT****

CARTESIAN COORDINATES (ANGSTROEM)
---------------------------------
  S      2.372990   16.512500   85.901100
  C      0.979714   16.618800   84.887600
  C     -0.113238   16.299100   85.626400
  C      0.149247   15.911200   86.980600
  C      1.521650   15.899800   87.276000
  H     -0.639000   15.628500   87.708700
  C     -1.570720   16.267000   85.098100
  H     -2.220730   15.864300   85.902100
  H     -1.600260   15.631700   84.265200
  C     -2.085440   17.634300   84.607200
  H     -1.401130   18.051500   83.899500
  H     -3.025920   17.586900   84.085700
  C     -2.121790   18.671400   85.665700
  H     -2.285170   19.544000   85.071600
  H     -2.980440   18.649600   86.311200
  H     -1.204910   18.740000   86.280500
  S      2.666020   16.858600   89.585400
  C      3.055940   15.774200   90.930500
  C      2.412240   14.550300   90.684300
  C      1.916480   14.434000   89.362700
  C      2.099370   15.593100   88.558900
  H      2.423570   13.696400   91.409300
  C      1.109240   13.207800   88.913300
  H      0.117054   13.482800   88.679800
  H      1.044360   12.506200   89.826900
  C      1.757850   12.339400   87.821900
  H      1.891950   12.934800   86.969500
  H      0.987996   11.684400   87.603700
  C      3.063200   11.613700   88.245700
  H      3.087740   10.625500   87.721100
  H      3.033850   11.371100   89.301200
  H      4.012240   12.139100   88.000200
  H      1.044870   16.877600   83.888100
  H      3.677980   15.905600   91.728800

 Total Charge           Charge          ....    0
 Multiplicity           Mult            ....    1
 Number of Electrons    NEL             ....  134
 Basis Dimension        Dim             ....  322

ORBITAL ENERGIES
----------------

  NO   OCC          E(Eh)            E(eV)
   0   2.0000     -88.966860     -2420.9113
   1   2.0000     -88.966353     -2420.8975
   2   2.0000     -10.330986      -281.1204
   3   2.0000     -10.325549      -280.9725
   4   2.0000     -10.315449      -280.6976
   5   2.0000     -10.310789      -280.5708
   6   2.0000     -10.302444      -280.3437
   7   2.0000     -10.301683      -280.3230
   8   2.0000     -10.300447      -280.2894
   9   2.0000     -10.298082      -280.2251
  10   2.0000     -10.290891      -280.0294
  11   2.0000     -10.289300      -279.9861
  12   2.0000     -10.278652      -279.6963
  13   2.0000     -10.278438      -279.6905
  14   2.0000     -10.272330      -279.5243
  15   2.0000     -10.265514      -279.3388
  16   2.0000      -8.082359      -219.9322
  17   2.0000      -8.080808      -219.8900
  18   2.0000      -6.040749      -164.3771
  19   2.0000      -6.039393      -164.3402
  20   2.0000      -6.036547      -164.2628
  21   2.0000      -6.035234      -164.2271
  22   2.0000      -6.033385      -164.1768
  23   2.0000      -6.031602      -164.1282
  24   2.0000      -1.010670       -27.5017
  25   2.0000      -0.986415       -26.8417
  26   2.0000      -0.915338       -24.9076
  27   2.0000      -0.903655       -24.5897
  28   2.0000      -0.874971       -23.8092
  29   2.0000      -0.850284       -23.1374
  30   2.0000      -0.841217       -22.8907
  31   2.0000      -0.814020       -22.1506
  32   2.0000      -0.783448       -21.3187
  33   2.0000      -0.772121       -21.0105
  34   2.0000      -0.714315       -19.4375
  35   2.0000      -0.698360       -19.0033
  36   2.0000      -0.690942       -18.8015
  37   2.0000      -0.661215       -17.9926
  38   2.0000      -0.649213       -17.6660
  39   2.0000      -0.612476       -16.6663
  40   2.0000      -0.589326       -16.0364
  41   2.0000      -0.577498       -15.7145
  42   2.0000      -0.557702       -15.1758
  43   2.0000      -0.554713       -15.0945
  44   2.0000      -0.547794       -14.9062
  45   2.0000      -0.538206       -14.6453
  46   2.0000      -0.522090       -14.2068
  47   2.0000      -0.517197       -14.0736
  48   2.0000      -0.508326       -13.8322
  49   2.0000      -0.491296       -13.3689
  50   2.0000      -0.488198       -13.2845
  51   2.0000      -0.478759       -13.0277
  52   2.0000      -0.476049       -12.9540
  53   2.0000      -0.465823       -12.6757
  54   2.0000      -0.462439       -12.5836
  55   2.0000      -0.443115       -12.0578
  56   2.0000      -0.437596       -11.9076
  57   2.0000      -0.433870       -11.8062
  58   2.0000      -0.432745       -11.7756
  59   2.0000      -0.422605       -11.4997
  60   2.0000      -0.415825       -11.3152
  61   2.0000      -0.411332       -11.1929
  62   2.0000      -0.410472       -11.1695
  63   2.0000      -0.341615        -9.2958
  64   2.0000      -0.330297        -8.9879
  65   2.0000      -0.325341        -8.8530
  66   2.0000      -0.299411        -8.1474
  67   0.0000       0.024263         0.6602
  68   0.0000       0.062232         1.6934
  69   0.0000       0.110813         3.0154
  70   0.0000       0.128339         3.4923
  71   0.0000       0.131542         3.5794

MULLIKEN ATOMIC CHARGES
-----------------------
   0 S :    0.119895
   1 C :   -0.104422
   2 C :   -0.102804
   3 C :    0.023628
   4 C :   -0.181847
   5 H :    0.034637
   6 C :    0.113631
   7 H :    0.021529
   8 H :    0.019007
   9 C :   -0.073437
  10 H :    0.012133
  11 H :    0.023491
  12 C :   -0.040049
  13 H :    0.015678
  14 H :    0.018270
  15 H :    0.052177
  16 S :    0.116014
  17 C :   -0.064034
  18 C :   -0.053280
  19 C :   -0.043664
  20 C :   -0.130577
  21 H :    0.037435
  22 C :    0.023477
  23 H :    0.017782
  24 H :    0.019636
  25 C :   -0.004275
  26 H :    0.024689
  27 H :    0.008010
  28 C :   -0.064535
  29 H :    0.035288
  30 H :    0.019677
  31 H :    0.053245
  32 H :    0.027564
  33 H :    0.026029
Sum of atomic charges:    0.0000000

LOEWDIN ATOMIC CHARGES
----------------------
   0 S :    0.434625
   1 C :   -0.190207
   2 C :   -0.065463
   3 C :   -0.062237
   4 C :   -0.212827
   5 H :    0.037831
   6 C :   -0.023620
   7 H :    0.029709
   8 H :    0.023176
   9 C :   -0.041071
  10 H :    0.019514
  11 H :    0.023731
  12 C :   -0.064249
  13 H :    0.025194
  14 H :    0.017883
  15 H :    0.032013
  16 S :    0.422510
  17 C :   -0.171731
  18 C :   -0.073124
  19 C :   -0.058281
  20 C :   -0.217850
  21 H :    0.037884
  22 C :   -0.027714
  23 H :    0.019574
  24 H :    0.031907
  25 C :   -0.030269
  26 H :    0.018806
  27 H :    0.016400
  28 C :   -0.068033
  29 H :    0.032470
  30 H :    0.019696
  31 H :    0.033589
  32 H :    0.017147
  33 H :    0.013018

  Mayer bond orders larger than 0.100000
B(  0-S ,  1-C ) :   1.1516 B(  0-S ,  4-C ) :   1.1735 B(  1-C ,  2-C ) :   1.5759
B(  1-C ,  4-C ) :   0.1002 B(  1-C , 32-H ) :   0.9884 B(  2-C ,  3-C ) :   1.2727
B(  2-C ,  6-C ) :   1.0064 B(  3-C ,  4-C ) :   1.5256 B(  3-C ,  5-H ) :   0.9874
B(  4-C , 20-C ) :   1.0430 B(  6-C ,  7-H ) :   0.9473 B(  6-C ,  8-H ) :   0.9373
B(  6-C ,  9-C ) :   1.0757 B(  9-C , 10-H ) :   0.9598 B(  9-C , 11-H ) :   0.9533
B(  9-C , 12-C ) :   1.0798 B( 12-C , 13-H ) :   0.9728 B( 12-C , 14-H ) :   0.9746
B( 12-C , 15-H ) :   0.9730 B( 16-S , 17-C ) :   1.1705 B( 16-S , 20-C ) :   1.1662
B( 17-C , 18-C ) :   1.5489 B( 17-C , 20-C ) :   0.1193 B( 17-C , 33-H ) :   0.9825
B( 18-C , 19-C ) :   1.3149 B( 18-C , 21-H ) :   0.9756 B( 19-C , 20-C ) :   1.5233
B( 19-C , 22-C ) :   1.0305 B( 22-C , 23-H ) :   0.9350 B( 22-C , 24-H ) :   0.9423
B( 22-C , 25-C ) :   1.0837 B( 25-C , 26-H ) :   0.9562 B( 25-C , 27-H ) :   0.9539
B( 25-C , 28-C ) :   1.0621 B( 28-C , 29-H ) :   0.9767 B( 28-C , 30-H ) :   0.9783
B( 28-C , 31-H ) :   0.9763

Dispersion correction           -0.014991695
FINAL SINGLE POINT ENERGY     -1339.862498150820

DIPOLE MOMENT
-------------
                                X             Y             Z
Electronic contribution:     15.09309      10.12008       6.15154
Nuclear contribution   :    -15.63813     -10.44603      -6.31151
                        -----------------------------------------
Total Dipole Moment    :     -0.54504      -0.32595      -0.15997
                        -----------------------------------------
Magnitude (a.u.)       :      0.65491
Magnitude (Debye)      :      1.66465

Rotational constants in cm-1:     0.020985     0.008312     0.007304
Rotational constants in MHz :   629.117146   249.189028   218.978300

                             ****ORCA TERMINATED NORMALLY****
TOTAL RUN TIME: 0 days 0 hours 0 minutes 37 seconds 216 msec
