                         Program Version 4.2.1 -  RELEASE  -
|  1> ! wB97X-D3 SP def2-SVP
|  2> %pal
|  3> nprocs 16
|  4> end
|  5>
|  6> * xyz 0 1
|  7> S 	 44.722 	 9.09787 	 87.2301
|  8> C 	 45.6925 	 8.38921 	 88.4622
|  9> C 	 46.4854 	 9.3083 	 89.1151
| 10> C 	 46.292 	 10.6255 	 88.6516
| 11> C 	 45.3172 	 10.7088 	 87.6428
| 12> H 	 46.6878 	 11.4795 	 89.1483
| 13> C 	 47.4488 	 8.9961 	 90.2279
| 14> H 	 48.3877 	 9.04319 	 89.868
| 15> H 	 47.2837 	 7.89944 	 90.4621
| 16> C 	 47.2896 	 9.91808 	 91.4746
| 17> H 	 47.9635 	 9.55051 	 92.2325
| 18> H 	 47.6716 	 10.956 	 91.4388
| 19> C 	 45.8602 	 9.89686 	 91.9109
| 20> H 	 45.7486 	 10.2658 	 93.0246
| 21> H 	 45.2971 	 10.4303 	 91.1192
| 22> H 	 45.4781 	 8.89334 	 92.0248
| 23> S 	 45.1871 	 11.6648 	 85.0893
| 24> C 	 44.7755 	 13.3168 	 84.7178
| 25> C 	 44.755 	 14.0589 	 85.8981
| 26> C 	 44.9284 	 13.2248 	 87.0725
| 27> C 	 45.0974 	 11.8595 	 86.7953
| 28> H 	 44.388 	 15.0674 	 85.8602
| 29> C 	 44.6418 	 13.6862 	 88.4394
| 30> H 	 45.2126 	 14.6099 	 88.5145
| 31> H 	 45.1028 	 13.1038 	 89.2019
| 32> C 	 43.1801 	 13.8837 	 88.9174
| 33> H 	 42.7396 	 14.7498 	 88.3925
| 34> H 	 43.1137 	 14.1126 	 90.004
| 35> C 	 42.3776 	 12.5493 	 88.6552
| 36> H 	 41.325 	 12.6647 	 89.0362
| 37> H 	 42.9624 	 11.7082 	 89.0913
| 38> H 	 42.3085 	 12.4683 	 87.5526
| 39> H 	 45.6023 	 7.35754 	 88.8286
| 40> H 	 44.5906 	 13.7521 	 83.7425
| 41> *
| 42>
| 43>                          ****END OF INPUT****

CARTESIAN COORDINATES (ANGSTROEM)
---------------------------------
  S     44.722000    9.097870   87.230100
  C     45.692500    8.389210   88.462200
  C     46.485400    9.308300   89.115100
  C     46.292000   10.625500   88.651600
  C     45.317200   10.708800   87.642800
  H     46.687800   11.479500   89.148300
  C     47.448800    8.996100   90.227900
  H     48.387700    9.043190   89.868000
  H     47.283700    7.899440   90.462100
  C     47.289600    9.918080   91.474600
  H     47.963500    9.550510   92.232500
  H     47.671600   10.956000   91.438800
  C     45.860200    9.896860   91.910900
  H     45.748600   10.265800   93.024600
  H     45.297100   10.430300   91.119200
  H     45.478100    8.893340   92.024800
  S     45.187100   11.664800   85.089300
  C     44.775500   13.316800   84.717800
  C     44.755000   14.058900   85.898100
  C     44.928400   13.224800   87.072500
  C     45.097400   11.859500   86.795300
  H     44.388000   15.067400   85.860200
  C     44.641800   13.686200   88.439400
  H     45.212600   14.609900   88.514500
  H     45.102800   13.103800   89.201900
  C     43.180100   13.883700   88.917400
  H     42.739600   14.749800   88.392500
  H     43.113700   14.112600   90.004000
  C     42.377600   12.549300   88.655200
  H     41.325000   12.664700   89.036200
  H     42.962400   11.708200   89.091300
  H     42.308500   12.468300   87.552600
  H     45.602300    7.357540   88.828600
  H     44.590600   13.752100   83.742500

 Total Charge           Charge          ....    0
 Multiplicity           Mult            ....    1
 Number of Electrons    NEL             ....  134
 Basis Dimension        Dim             ....  322

ORBITAL ENERGIES
----------------

  NO   OCC          E(Eh)            E(eV)
   0   2.0000     -88.973137     -2421.0821
   1   2.0000     -88.963530     -2420.8207
   2   2.0000     -10.335542      -281.2444
   3   2.0000     -10.325355      -280.9672
   4   2.0000     -10.318378      -280.7773
   5   2.0000     -10.314935      -280.6837
   6   2.0000     -10.301217      -280.3104
   7   2.0000     -10.298209      -280.2285
   8   2.0000     -10.296375      -280.1786
   9   2.0000     -10.295057      -280.1428
  10   2.0000     -10.291323      -280.0411
  11   2.0000     -10.288843      -279.9737
  12   2.0000     -10.288803      -279.9726
  13   2.0000     -10.282628      -279.8045
  14   2.0000     -10.280441      -279.7450
  15   2.0000     -10.278959      -279.7047
  16   2.0000      -8.087680      -220.0770
  17   2.0000      -8.078843      -219.8365
  18   2.0000      -6.046154      -164.5242
  19   2.0000      -6.042125      -164.4146
  20   2.0000      -6.038576      -164.3180
  21   2.0000      -6.037316      -164.2837
  22   2.0000      -6.033063      -164.1680
  23   2.0000      -6.029783      -164.0787
  24   2.0000      -1.011184       -27.5157
  25   2.0000      -0.987954       -26.8836
  26   2.0000      -0.918737       -25.0001
  27   2.0000      -0.905384       -24.6367
  28   2.0000      -0.873002       -23.7556
  29   2.0000      -0.852115       -23.1872
  30   2.0000      -0.838144       -22.8070
  31   2.0000      -0.816726       -22.2242
  32   2.0000      -0.782244       -21.2859
  33   2.0000      -0.768100       -20.9011
  34   2.0000      -0.711549       -19.3622
  35   2.0000      -0.697802       -18.9881
  36   2.0000      -0.691160       -18.8074
  37   2.0000      -0.659255       -17.9392
  38   2.0000      -0.638876       -17.3847
  39   2.0000      -0.627988       -17.0884
  40   2.0000      -0.594333       -16.1726
  41   2.0000      -0.573643       -15.6096
  42   2.0000      -0.557649       -15.1744
  43   2.0000      -0.548479       -14.9249
  44   2.0000      -0.545605       -14.8467
  45   2.0000      -0.539344       -14.6763
  46   2.0000      -0.517836       -14.0910
  47   2.0000      -0.510983       -13.9045
  48   2.0000      -0.505316       -13.7503
  49   2.0000      -0.497940       -13.5496
  50   2.0000      -0.486594       -13.2409
  51   2.0000      -0.475367       -12.9354
  52   2.0000      -0.471309       -12.8250
  53   2.0000      -0.461196       -12.5498
  54   2.0000      -0.458265       -12.4700
  55   2.0000      -0.454002       -12.3540
  56   2.0000      -0.439735       -11.9658
  57   2.0000      -0.435290       -11.8448
  58   2.0000      -0.428910       -11.6712
  59   2.0000      -0.423529       -11.5248
  60   2.0000      -0.418625       -11.3914
  61   2.0000      -0.414308       -11.2739
  62   2.0000      -0.403720       -10.9858
  63   2.0000      -0.355161        -9.6644
  64   2.0000      -0.334227        -9.0948
  65   2.0000      -0.327062        -8.8998
  66   2.0000      -0.286605        -7.7989
  67   0.0000       0.022996         0.6258
  68   0.0000       0.073424         1.9980
  69   0.0000       0.111773         3.0415
  70   0.0000       0.116876         3.1804
  71   0.0000       0.130042         3.5386

MULLIKEN ATOMIC CHARGES
-----------------------
   0 S :    0.127908
   1 C :   -0.123598
   2 C :   -0.140359
   3 C :    0.050836
   4 C :   -0.167030
   5 H :    0.013387
   6 C :    0.133485
   7 H :    0.012823
   8 H :    0.021502
   9 C :   -0.097158
  10 H :    0.020132
  11 H :    0.035041
  12 C :   -0.062307
  13 H :    0.043774
  14 H :    0.056099
  15 H :    0.022217
  16 S :    0.108120
  17 C :   -0.104595
  18 C :   -0.025685
  19 C :   -0.067235
  20 C :   -0.125209
  21 H :    0.022358
  22 C :    0.064251
  23 H :    0.017810
  24 H :   -0.001889
  25 C :   -0.070071
  26 H :    0.025630
  27 H :    0.035315
  28 C :   -0.091389
  29 H :    0.044763
  30 H :    0.053437
  31 H :    0.051606
  32 H :    0.054467
  33 H :    0.061561
Sum of atomic charges:    0.0000000

LOEWDIN ATOMIC CHARGES
----------------------
   0 S :    0.422543
   1 C :   -0.211321
   2 C :   -0.067639
   3 C :   -0.050477
   4 C :   -0.189859
   5 H :    0.026496
   6 C :   -0.018291
   7 H :    0.017147
   8 H :    0.037568
   9 C :   -0.051970
  10 H :    0.023298
  11 H :    0.027551
  12 C :   -0.073673
  13 H :    0.037715
  14 H :    0.031559
  15 H :    0.020680
  16 S :    0.422627
  17 C :   -0.191481
  18 C :   -0.068662
  19 C :   -0.066951
  20 C :   -0.206274
  21 H :    0.031048
  22 C :   -0.044665
  23 H :    0.031914
  24 H :    0.021926
  25 C :   -0.037535
  26 H :    0.018898
  27 H :    0.025815
  28 C :   -0.072469
  29 H :    0.029490
  30 H :    0.029236
  31 H :    0.029125
  32 H :    0.033648
  33 H :    0.032982

  Mayer bond orders larger than 0.100000
B(  0-S ,  1-C ) :   1.1478 B(  0-S ,  4-C ) :   1.1613 B(  1-C ,  2-C ) :   1.5976
B(  1-C , 32-H ) :   0.9559 B(  2-C ,  3-C ) :   1.2832 B(  2-C ,  6-C ) :   1.0151
B(  3-C ,  4-C ) :   1.5240 B(  3-C ,  5-H ) :   0.9865 B(  4-C , 20-C ) :   1.0599
B(  6-C ,  7-H ) :   0.9293 B(  6-C ,  8-H ) :   0.9401 B(  6-C ,  9-C ) :   1.0668
B(  9-C , 10-H ) :   0.9511 B(  9-C , 11-H ) :   0.9503 B(  9-C , 12-C ) :   1.0785
B( 12-C , 13-H ) :   0.9696 B( 12-C , 14-H ) :   0.9636 B( 12-C , 15-H ) :   0.9739
B( 16-S , 17-C ) :   1.1618 B( 16-S , 20-C ) :   1.1528 B( 17-C , 18-C ) :   1.5913
B( 17-C , 33-H ) :   0.9692 B( 18-C , 19-C ) :   1.2489 B( 18-C , 21-H ) :   0.9921
B( 19-C , 20-C ) :   1.5541 B( 19-C , 22-C ) :   1.0751 B( 22-C , 23-H ) :   0.9198
B( 22-C , 24-H ) :   0.9303 B( 22-C , 25-C ) :   1.0650 B( 25-C , 26-H ) :   0.9578
B( 25-C , 27-H ) :   0.9572 B( 25-C , 28-C ) :   1.0651 B( 28-C , 29-H ) :   0.9742
B( 28-C , 30-H ) :   0.9725 B( 28-C , 31-H ) :   0.9732

Dispersion correction           -0.016311087
FINAL SINGLE POINT ENERGY     -1339.871601496613

DIPOLE MOMENT
-------------
                                X             Y             Z
Electronic contribution:      1.68392      -6.15608     -24.90150
Nuclear contribution   :     -1.52238       6.32009      25.44218
                        -----------------------------------------
Total Dipole Moment    :      0.16154       0.16401       0.54068
                        -----------------------------------------
Magnitude (a.u.)       :      0.58765
Magnitude (Debye)      :      1.49368

Rotational constants in cm-1:     0.020620     0.009779     0.007990
Rotational constants in MHz :   618.183114   293.172103   239.542688

                             ****ORCA TERMINATED NORMALLY****
TOTAL RUN TIME: 0 days 0 hours 0 minutes 33 seconds 334 msec
