                         Program Version 4.2.1 -  RELEASE  -
|  1> ! wB97X-D3 SP def2-SVP
|  2> %pal
|  3> nprocs 16
|  4> end
|  5>
|  6> * xyz 0 1
|  7> S 	 -60.5407 	 51.0143 	 135.879
|  8> C 	 -58.9384 	 50.2653 	 135.702
|  9> C 	 -58.3136 	 50.1943 	 136.951
| 10> C 	 -59.2273 	 50.6314 	 137.993
| 11> C 	 -60.4863 	 50.9914 	 137.585
| 12> H 	 -59.0297 	 50.583 	 139.042
| 13> C 	 -56.828 	 49.7239 	 137.201
| 14> H 	 -56.4575 	 49.2221 	 136.227
| 15> H 	 -56.8146 	 48.8487 	 137.91
| 16> C 	 -55.7949 	 50.7893 	 137.544
| 17> H 	 -56.2103 	 51.4737 	 138.235
| 18> H 	 -54.9816 	 50.3221 	 138.028
| 19> C 	 -55.2846 	 51.5065 	 136.329
| 20> H 	 -54.6883 	 52.3524 	 136.663
| 21> H 	 -54.5278 	 50.9544 	 135.817
| 22> H 	 -55.9145 	 51.8317 	 135.561
| 23> S 	 -62.1815 	 50.1164 	 139.51
| 24> C 	 -63.4404 	 51.1868 	 140.124
| 25> C 	 -63.5146 	 52.3493 	 139.405
| 26> C 	 -62.4439 	 52.5252 	 138.516
| 27> C 	 -61.6915 	 51.3792 	 138.401
| 28> H 	 -64.3659 	 53.1242 	 139.503
| 29> C 	 -62.1315 	 53.8981 	 137.945
| 30> H 	 -61.0427 	 53.9178 	 137.707
| 31> H 	 -62.3423 	 54.5615 	 138.743
| 32> C 	 -63.0311 	 54.1374 	 136.724
| 33> H 	 -64.1033 	 54.2427 	 137.019
| 34> H 	 -62.9939 	 53.322 	 135.97
| 35> C 	 -62.6576 	 55.4191 	 136.036
| 36> H 	 -61.6926 	 55.592 	 135.832
| 37> H 	 -62.9015 	 56.25 	 136.669
| 38> H 	 -63.2632 	 55.5562 	 135.152
| 39> H 	 -58.4398 	 50.1739 	 134.791
| 40> H 	 -64.1198 	 50.9233 	 140.915
| 41> *
| 42>
| 43>                          ****END OF INPUT****

CARTESIAN COORDINATES (ANGSTROEM)
---------------------------------
  S    -60.540700   51.014300  135.879000
  C    -58.938400   50.265300  135.702000
  C    -58.313600   50.194300  136.951000
  C    -59.227300   50.631400  137.993000
  C    -60.486300   50.991400  137.585000
  H    -59.029700   50.583000  139.042000
  C    -56.828000   49.723900  137.201000
  H    -56.457500   49.222100  136.227000
  H    -56.814600   48.848700  137.910000
  C    -55.794900   50.789300  137.544000
  H    -56.210300   51.473700  138.235000
  H    -54.981600   50.322100  138.028000
  C    -55.284600   51.506500  136.329000
  H    -54.688300   52.352400  136.663000
  H    -54.527800   50.954400  135.817000
  H    -55.914500   51.831700  135.561000
  S    -62.181500   50.116400  139.510000
  C    -63.440400   51.186800  140.124000
  C    -63.514600   52.349300  139.405000
  C    -62.443900   52.525200  138.516000
  C    -61.691500   51.379200  138.401000
  H    -64.365900   53.124200  139.503000
  C    -62.131500   53.898100  137.945000
  H    -61.042700   53.917800  137.707000
  H    -62.342300   54.561500  138.743000
  C    -63.031100   54.137400  136.724000
  H    -64.103300   54.242700  137.019000
  H    -62.993900   53.322000  135.970000
  C    -62.657600   55.419100  136.036000
  H    -61.692600   55.592000  135.832000
  H    -62.901500   56.250000  136.669000
  H    -63.263200   55.556200  135.152000
  H    -58.439800   50.173900  134.791000
  H    -64.119800   50.923300  140.915000

 Total Charge           Charge          ....    0
 Multiplicity           Mult            ....    1
 Number of Electrons    NEL             ....  134
 Basis Dimension        Dim             ....  322

ORBITAL ENERGIES
----------------

  NO   OCC          E(Eh)            E(eV)
   0   2.0000     -88.965486     -2420.8739
   1   2.0000     -88.962703     -2420.7982
   2   2.0000     -10.328471      -281.0520
   3   2.0000     -10.326853      -281.0079
   4   2.0000     -10.315956      -280.7114
   5   2.0000     -10.313706      -280.6502
   6   2.0000     -10.310220      -280.5553
   7   2.0000     -10.305436      -280.4252
   8   2.0000     -10.298094      -280.2254
   9   2.0000     -10.296774      -280.1895
  10   2.0000     -10.291857      -280.0557
  11   2.0000     -10.291611      -280.0490
  12   2.0000     -10.288138      -279.9545
  13   2.0000     -10.279752      -279.7263
  14   2.0000     -10.266604      -279.3685
  15   2.0000     -10.259100      -279.1643
  16   2.0000      -8.080063      -219.8697
  17   2.0000      -8.077737      -219.8064
  18   2.0000      -6.038533      -164.3168
  19   2.0000      -6.036215      -164.2538
  20   2.0000      -6.034686      -164.2122
  21   2.0000      -6.032145      -164.1430
  22   2.0000      -6.030772      -164.1057
  23   2.0000      -6.028567      -164.0457
  24   2.0000      -1.006633       -27.3919
  25   2.0000      -0.984751       -26.7964
  26   2.0000      -0.913289       -24.8519
  27   2.0000      -0.911664       -24.8076
  28   2.0000      -0.866465       -23.5777
  29   2.0000      -0.855795       -23.2874
  30   2.0000      -0.841497       -22.8983
  31   2.0000      -0.812636       -22.1129
  32   2.0000      -0.785687       -21.3796
  33   2.0000      -0.775448       -21.1010
  34   2.0000      -0.707699       -19.2575
  35   2.0000      -0.700924       -19.0731
  36   2.0000      -0.690173       -18.7806
  37   2.0000      -0.665995       -18.1227
  38   2.0000      -0.639894       -17.4124
  39   2.0000      -0.613673       -16.6989
  40   2.0000      -0.596577       -16.2337
  41   2.0000      -0.571057       -15.5392
  42   2.0000      -0.566350       -15.4112
  43   2.0000      -0.550998       -14.9934
  44   2.0000      -0.538304       -14.6480
  45   2.0000      -0.535238       -14.5646
  46   2.0000      -0.517414       -14.0795
  47   2.0000      -0.511888       -13.9292
  48   2.0000      -0.503064       -13.6891
  49   2.0000      -0.496481       -13.5099
  50   2.0000      -0.488693       -13.2980
  51   2.0000      -0.475861       -12.9488
  52   2.0000      -0.474041       -12.8993
  53   2.0000      -0.469568       -12.7776
  54   2.0000      -0.458291       -12.4707
  55   2.0000      -0.448378       -12.2010
  56   2.0000      -0.443529       -12.0690
  57   2.0000      -0.440653       -11.9908
  58   2.0000      -0.429316       -11.6823
  59   2.0000      -0.422543       -11.4980
  60   2.0000      -0.421213       -11.4618
  61   2.0000      -0.416396       -11.3307
  62   2.0000      -0.413206       -11.2439
  63   2.0000      -0.337387        -9.1808
  64   2.0000      -0.332953        -9.0601
  65   2.0000      -0.327182        -8.9031
  66   2.0000      -0.301078        -8.1928
  67   0.0000       0.038760         1.0547
  68   0.0000       0.068287         1.8582
  69   0.0000       0.104000         2.8300
  70   0.0000       0.121438         3.3045
  71   0.0000       0.129466         3.5230

MULLIKEN ATOMIC CHARGES
-----------------------
   0 S :    0.101637
   1 C :   -0.096336
   2 C :   -0.085037
   3 C :    0.042776
   4 C :   -0.155840
   5 H :   -0.001365
   6 C :   -0.007663
   7 H :    0.025498
   8 H :    0.045742
   9 C :    0.008276
  10 H :    0.021939
  11 H :    0.018235
  12 C :   -0.034990
  13 H :    0.020634
  14 H :    0.010825
  15 H :    0.025027
  16 S :    0.111484
  17 C :   -0.088206
  18 C :   -0.057451
  19 C :   -0.037348
  20 C :   -0.177886
  21 H :    0.048115
  22 C :    0.093765
  23 H :    0.041697
  24 H :    0.021304
  25 C :   -0.118151
  26 H :    0.032543
  27 H :    0.039038
  28 C :    0.041781
  29 H :   -0.001043
  30 H :    0.002420
  31 H :    0.024763
  32 H :    0.031882
  33 H :    0.051935
Sum of atomic charges:    0.0000000

LOEWDIN ATOMIC CHARGES
----------------------
   0 S :    0.412142
   1 C :   -0.182932
   2 C :   -0.057082
   3 C :   -0.071729
   4 C :   -0.210763
   5 H :    0.024265
   6 C :   -0.036077
   7 H :    0.034880
   8 H :    0.034696
   9 C :   -0.034836
  10 H :    0.020490
  11 H :    0.025589
  12 C :   -0.062932
  13 H :    0.029545
  14 H :    0.022165
  15 H :    0.017869
  16 S :    0.405678
  17 C :   -0.177976
  18 C :   -0.079325
  19 C :   -0.060288
  20 C :   -0.199108
  21 H :    0.045714
  22 C :   -0.020977
  23 H :    0.037700
  24 H :    0.027776
  25 C :   -0.039233
  26 H :    0.028833
  27 H :    0.025436
  28 C :   -0.057041
  29 H :    0.006642
  30 H :    0.022714
  31 H :    0.027064
  32 H :    0.015090
  33 H :    0.026016

  Mayer bond orders larger than 0.100000
B(  0-S ,  1-C ) :   1.1394 B(  0-S ,  4-C ) :   1.1635 B(  1-C ,  2-C ) :   1.6130
B(  1-C , 32-H ) :   0.9744 B(  2-C ,  3-C ) :   1.2307 B(  2-C ,  6-C ) :   1.0114
B(  3-C ,  4-C ) :   1.5935 B(  3-C ,  5-H ) :   0.9982 B(  4-C , 20-C ) :   0.9748
B(  6-C ,  7-H ) :   0.9488 B(  6-C ,  8-H ) :   0.9480 B(  6-C ,  9-C ) :   1.0619
B(  9-C , 10-H ) :   0.9601 B(  9-C , 11-H ) :   0.9470 B(  9-C , 12-C ) :   1.0845
B( 12-C , 13-H ) :   0.9686 B( 12-C , 14-H ) :   0.9693 B( 12-C , 15-H ) :   0.9805
B( 16-S , 17-C ) :   1.1472 B( 16-S , 20-C ) :   1.1459 B( 17-C , 18-C ) :   1.6255
B( 17-C , 33-H ) :   0.9696 B( 18-C , 19-C ) :   1.2448 B( 18-C , 21-H ) :   0.9668
B( 19-C , 20-C ) :   1.6272 B( 19-C , 22-C ) :   1.0278 B( 22-C , 23-H ) :   0.9392
B( 22-C , 24-H ) :   0.9318 B( 22-C , 25-C ) :   1.0607 B( 25-C , 26-H ) :   0.9535
B( 25-C , 27-H ) :   0.9588 B( 25-C , 28-C ) :   1.0947 B( 28-C , 29-H ) :   0.9710
B( 28-C , 30-H ) :   0.9631 B( 28-C , 31-H ) :   0.9698

Dispersion correction           -0.014163394
FINAL SINGLE POINT ENERGY     -1339.866125568868

DIPOLE MOMENT
-------------
                                X             Y             Z
Electronic contribution:    -14.01731     -14.59010       6.70658
Nuclear contribution   :     14.31716      15.00119      -6.56486
                        -----------------------------------------
Total Dipole Moment    :      0.29986       0.41109       0.14172
                        -----------------------------------------
Magnitude (a.u.)       :      0.52820
Magnitude (Debye)      :      1.34258

Rotational constants in cm-1:     0.019467     0.008040     0.006549
Rotational constants in MHz :   583.613219   241.032101   196.321038

                             ****ORCA TERMINATED NORMALLY****
TOTAL RUN TIME: 0 days 0 hours 0 minutes 33 seconds 847 msec
