                         Program Version 4.2.1 -  RELEASE  -
|  1> ! wB97X-D3 SP def2-SVP
|  2> %pal
|  3> nprocs 16
|  4> end
|  5>
|  6> * xyz 0 1
|  7> S 	 -31.6475 	 72.2429 	 153.55
|  8> C 	 -30.0707 	 72.6251 	 152.831
|  9> C 	 -30.0391 	 71.9912 	 151.562
| 10> C 	 -31.2542 	 71.3485 	 151.164
| 11> C 	 -32.2073 	 71.4019 	 152.161
| 12> H 	 -31.5798 	 70.962 	 150.242
| 13> C 	 -28.8134 	 72.0923 	 150.606
| 14> H 	 -28.6385 	 71.1499 	 150.029
| 15> H 	 -27.8464 	 72.1793 	 151.205
| 16> C 	 -28.9093 	 73.2763 	 149.585
| 17> H 	 -29.841 	 73.4482 	 149.202
| 18> H 	 -28.7632 	 74.0995 	 150.309
| 19> C 	 -27.8579 	 73.4281 	 148.51
| 20> H 	 -27.9561 	 74.373 	 147.876
| 21> H 	 -26.8852 	 73.5182 	 148.907
| 22> H 	 -27.6995 	 72.5528 	 147.881
| 23> S 	 -34.7701 	 71.4784 	 151.09
| 24> C 	 -35.9255 	 70.3047 	 151.585
| 25> C 	 -35.449 	 69.5431 	 152.659
| 26> C 	 -34.0806 	 69.8628 	 153.018
| 27> C 	 -33.5661 	 70.8653 	 152.2
| 28> H 	 -36.0876 	 68.9008 	 153.212
| 29> C 	 -33.3831 	 69.0717 	 154.105
| 30> H 	 -32.395 	 69.404 	 154.478
| 31> H 	 -33.1464 	 68.1124 	 153.583
| 32> C 	 -34.3097 	 68.8339 	 155.286
| 33> H 	 -35.0447 	 68.0652 	 155.076
| 34> H 	 -34.7236 	 69.8474 	 155.524
| 35> C 	 -33.5292 	 68.3061 	 156.554
| 36> H 	 -34.2095 	 68.2638 	 157.419
| 37> H 	 -32.6948 	 68.9674 	 156.801
| 38> H 	 -33.1922 	 67.3062 	 156.235
| 39> H 	 -29.3949 	 73.4084 	 153.142
| 40> H 	 -36.8828 	 70.2212 	 151.125
| 41> *
| 42>
| 43>                          ****END OF INPUT****

CARTESIAN COORDINATES (ANGSTROEM)
---------------------------------
  S    -31.647500   72.242900  153.550000
  C    -30.070700   72.625100  152.831000
  C    -30.039100   71.991200  151.562000
  C    -31.254200   71.348500  151.164000
  C    -32.207300   71.401900  152.161000
  H    -31.579800   70.962000  150.242000
  C    -28.813400   72.092300  150.606000
  H    -28.638500   71.149900  150.029000
  H    -27.846400   72.179300  151.205000
  C    -28.909300   73.276300  149.585000
  H    -29.841000   73.448200  149.202000
  H    -28.763200   74.099500  150.309000
  C    -27.857900   73.428100  148.510000
  H    -27.956100   74.373000  147.876000
  H    -26.885200   73.518200  148.907000
  H    -27.699500   72.552800  147.881000
  S    -34.770100   71.478400  151.090000
  C    -35.925500   70.304700  151.585000
  C    -35.449000   69.543100  152.659000
  C    -34.080600   69.862800  153.018000
  C    -33.566100   70.865300  152.200000
  H    -36.087600   68.900800  153.212000
  C    -33.383100   69.071700  154.105000
  H    -32.395000   69.404000  154.478000
  H    -33.146400   68.112400  153.583000
  C    -34.309700   68.833900  155.286000
  H    -35.044700   68.065200  155.076000
  H    -34.723600   69.847400  155.524000
  C    -33.529200   68.306100  156.554000
  H    -34.209500   68.263800  157.419000
  H    -32.694800   68.967400  156.801000
  H    -33.192200   67.306200  156.235000
  H    -29.394900   73.408400  153.142000
  H    -36.882800   70.221200  151.125000

 Total Charge           Charge          ....    0
 Multiplicity           Mult            ....    1
 Number of Electrons    NEL             ....  134
 Basis Dimension        Dim             ....  322

ORBITAL ENERGIES
----------------

  NO   OCC          E(Eh)            E(eV)
   0   2.0000     -88.966945     -2420.9137
   1   2.0000     -88.965977     -2420.8873
   2   2.0000     -10.327157      -281.0162
   3   2.0000     -10.324702      -280.9494
   4   2.0000     -10.319345      -280.8036
   5   2.0000     -10.317511      -280.7537
   6   2.0000     -10.312289      -280.6117
   7   2.0000     -10.306740      -280.4606
   8   2.0000     -10.303073      -280.3609
   9   2.0000     -10.294990      -280.1409
  10   2.0000     -10.293565      -280.1022
  11   2.0000     -10.292896      -280.0839
  12   2.0000     -10.288996      -279.9778
  13   2.0000     -10.282309      -279.7958
  14   2.0000     -10.280209      -279.7387
  15   2.0000     -10.277498      -279.6649
  16   2.0000      -8.082132      -219.9260
  17   2.0000      -8.080491      -219.8813
  18   2.0000      -6.040575      -164.3724
  19   2.0000      -6.038935      -164.3278
  20   2.0000      -6.036529      -164.2623
  21   2.0000      -6.034797      -164.2152
  22   2.0000      -6.033003      -164.1664
  23   2.0000      -6.031552      -164.1269
  24   2.0000      -1.007008       -27.4021
  25   2.0000      -0.983007       -26.7490
  26   2.0000      -0.910738       -24.7824
  27   2.0000      -0.904188       -24.6042
  28   2.0000      -0.867207       -23.5979
  29   2.0000      -0.848477       -23.0882
  30   2.0000      -0.844916       -22.9913
  31   2.0000      -0.813382       -22.1332
  32   2.0000      -0.781112       -21.2551
  33   2.0000      -0.768536       -20.9129
  34   2.0000      -0.703857       -19.1529
  35   2.0000      -0.698788       -19.0150
  36   2.0000      -0.693772       -18.8785
  37   2.0000      -0.659561       -17.9476
  38   2.0000      -0.643994       -17.5240
  39   2.0000      -0.615546       -16.7498
  40   2.0000      -0.601793       -16.3756
  41   2.0000      -0.574350       -15.6289
  42   2.0000      -0.565231       -15.3807
  43   2.0000      -0.554609       -15.0917
  44   2.0000      -0.525956       -14.3120
  45   2.0000      -0.524764       -14.2795
  46   2.0000      -0.520362       -14.1598
  47   2.0000      -0.511357       -13.9147
  48   2.0000      -0.507177       -13.8010
  49   2.0000      -0.499701       -13.5975
  50   2.0000      -0.489801       -13.3282
  51   2.0000      -0.473824       -12.8934
  52   2.0000      -0.471372       -12.8267
  53   2.0000      -0.465299       -12.6614
  54   2.0000      -0.457324       -12.4444
  55   2.0000      -0.450219       -12.2511
  56   2.0000      -0.446305       -12.1446
  57   2.0000      -0.435373       -11.8471
  58   2.0000      -0.429652       -11.6914
  59   2.0000      -0.428339       -11.6557
  60   2.0000      -0.418988       -11.4012
  61   2.0000      -0.413318       -11.2470
  62   2.0000      -0.402899       -10.9634
  63   2.0000      -0.336914        -9.1679
  64   2.0000      -0.332162        -9.0386
  65   2.0000      -0.328270        -8.9327
  66   2.0000      -0.298059        -8.1106
  67   0.0000       0.036359         0.9894
  68   0.0000       0.062879         1.7110
  69   0.0000       0.111366         3.0304
  70   0.0000       0.115706         3.1485
  71   0.0000       0.128110         3.4860

MULLIKEN ATOMIC CHARGES
-----------------------
   0 S :    0.112436
   1 C :   -0.119506
   2 C :   -0.088108
   3 C :    0.075720
   4 C :   -0.182545
   5 H :   -0.004721
   6 C :    0.007508
   7 H :    0.030374
   8 H :    0.035635
   9 C :   -0.035291
  10 H :    0.013433
  11 H :    0.014940
  12 C :   -0.035146
  13 H :    0.047086
  14 H :    0.005435
  15 H :    0.024724
  16 S :    0.121999
  17 C :   -0.089177
  18 C :   -0.026005
  19 C :   -0.019106
  20 C :   -0.176923
  21 H :    0.012196
  22 C :    0.071702
  23 H :    0.025967
  24 H :    0.040955
  25 C :   -0.138597
  26 H :    0.042313
  27 H :    0.048210
  28 C :   -0.047353
  29 H :    0.042569
  30 H :    0.039924
  31 H :    0.032549
  32 H :    0.062330
  33 H :    0.054475
Sum of atomic charges:   -0.0000000

LOEWDIN ATOMIC CHARGES
----------------------
   0 S :    0.421408
   1 C :   -0.203302
   2 C :   -0.052692
   3 C :   -0.060584
   4 C :   -0.196637
   5 H :    0.027442
   6 C :   -0.036820
   7 H :    0.027243
   8 H :    0.034147
   9 C :   -0.041432
  10 H :    0.011348
  11 H :    0.028634
  12 C :   -0.072499
  13 H :    0.039961
  14 H :    0.017199
  15 H :    0.023320
  16 S :    0.422503
  17 C :   -0.187353
  18 C :   -0.066417
  19 C :   -0.050255
  20 C :   -0.217871
  21 H :    0.024521
  22 C :   -0.040606
  23 H :    0.027650
  24 H :    0.040418
  25 C :   -0.043614
  26 H :    0.022194
  27 H :    0.029974
  28 C :   -0.063462
  29 H :    0.027710
  30 H :    0.024254
  31 H :    0.026149
  32 H :    0.032538
  33 H :    0.024932

  Mayer bond orders larger than 0.100000
B(  0-S ,  1-C ) :   1.1381 B(  0-S ,  4-C ) :   1.1816 B(  1-C ,  2-C ) :   1.5878
B(  1-C ,  4-C ) :   0.1043 B(  1-C , 32-H ) :   0.9723 B(  2-C ,  3-C ) :   1.2327
B(  2-C ,  6-C ) :   1.0256 B(  3-C ,  4-C ) :   1.5772 B(  3-C ,  5-H ) :   1.0043
B(  4-C , 20-C ) :   0.9989 B(  6-C ,  7-H ) :   0.9489 B(  6-C ,  8-H ) :   0.9516
B(  6-C ,  9-C ) :   1.0364 B(  9-C , 10-H ) :   0.9653 B(  9-C , 11-H ) :   0.9529
B(  9-C , 12-C ) :   1.0825 B( 12-C , 13-H ) :   0.9722 B( 12-C , 14-H ) :   0.9699
B( 12-C , 15-H ) :   0.9730 B( 16-S , 17-C ) :   1.1717 B( 16-S , 20-C ) :   1.1473
B( 17-C , 18-C ) :   1.5854 B( 17-C , 33-H ) :   0.9722 B( 18-C , 19-C ) :   1.2434
B( 18-C , 21-H ) :   0.9931 B( 19-C , 20-C ) :   1.5896 B( 19-C , 22-C ) :   1.0410
B( 22-C , 23-H ) :   0.9419 B( 22-C , 24-H ) :   0.9229 B( 22-C , 25-C ) :   1.0513
B( 25-C , 26-H ) :   0.9469 B( 25-C , 27-H ) :   0.9653 B( 25-C , 28-C ) :   1.0830
B( 28-C , 29-H ) :   0.9761 B( 28-C , 30-H ) :   0.9771 B( 28-C , 31-H ) :   0.9744

Dispersion correction           -0.013695446
FINAL SINGLE POINT ENERGY     -1339.871443655880

DIPOLE MOMENT
-------------
                                X             Y             Z
Electronic contribution:    -14.17198       5.51060      -0.99146
Nuclear contribution   :     14.25530      -5.71483       0.95094
                        -----------------------------------------
Total Dipole Moment    :      0.08332      -0.20423      -0.04052
                        -----------------------------------------
Magnitude (a.u.)       :      0.22426
Magnitude (Debye)      :      0.57002

Rotational constants in cm-1:     0.022602     0.007086     0.005858
Rotational constants in MHz :   677.584669   212.439882   175.618345

                             ****ORCA TERMINATED NORMALLY****
TOTAL RUN TIME: 0 days 0 hours 0 minutes 30 seconds 865 msec
