                         Program Version 4.2.1 -  RELEASE  -
|  1> ! wB97X-D3 SP def2-SVP
|  2> %pal
|  3> nprocs 16
|  4> end
|  5>
|  6> * xyz 0 1
|  7> S 	 7.73051 	 -24.8095 	 85.1214
|  8> C 	 6.05156 	 -24.402 	 85.4598
|  9> C 	 5.39759 	 -24.2287 	 84.2456
| 10> C 	 6.26838 	 -24.3352 	 83.081
| 11> C 	 7.57305 	 -24.5435 	 83.418
| 12> H 	 5.91255 	 -24.1514 	 82.1008
| 13> C 	 3.89036 	 -23.8593 	 84.1063
| 14> H 	 3.40999 	 -24.3183 	 84.9652
| 15> H 	 3.47303 	 -24.4652 	 83.2925
| 16> C 	 3.62219 	 -22.3345 	 83.8203
| 17> H 	 4.27936 	 -21.7143 	 84.5004
| 18> H 	 3.96216 	 -22.2266 	 82.8027
| 19> C 	 2.12359 	 -22.0685 	 84.0093
| 20> H 	 1.82796 	 -21.0456 	 84.1226
| 21> H 	 1.52962 	 -22.3526 	 83.1422
| 22> H 	 1.63815 	 -22.6102 	 84.8598
| 23> S 	 9.83709 	 -26.1612 	 82.8376
| 24> C 	 10.7804 	 -25.8436 	 81.4543
| 25> C 	 10.2794 	 -24.7457 	 80.7643
| 26> C 	 9.11763 	 -24.1099 	 81.3308
| 27> C 	 8.72124 	 -24.7884 	 82.53
| 28> H 	 10.7485 	 -24.4882 	 79.8202
| 29> C 	 8.45986 	 -22.9864 	 80.5878
| 30> H 	 9.11932 	 -22.1852 	 80.4095
| 31> H 	 7.71504 	 -22.5494 	 81.1762
| 32> C 	 7.72996 	 -23.4625 	 79.2821
| 33> H 	 7.00637 	 -24.2967 	 79.533
| 34> H 	 8.37588 	 -24.0301 	 78.6473
| 35> C 	 7.05758 	 -22.3088 	 78.5004
| 36> H 	 7.73379 	 -21.4917 	 78.1607
| 37> H 	 6.32353 	 -21.7737 	 79.0855
| 38> H 	 6.5988 	 -22.7321 	 77.5902
| 39> H 	 5.62798 	 -24.31 	 86.4307
| 40> H 	 11.7206 	 -26.4061 	 81.17
| 41> *
| 42>
| 43>                          ****END OF INPUT****

CARTESIAN COORDINATES (ANGSTROEM)
---------------------------------
  S      7.730510  -24.809500   85.121400
  C      6.051560  -24.402000   85.459800
  C      5.397590  -24.228700   84.245600
  C      6.268380  -24.335200   83.081000
  C      7.573050  -24.543500   83.418000
  H      5.912550  -24.151400   82.100800
  C      3.890360  -23.859300   84.106300
  H      3.409990  -24.318300   84.965200
  H      3.473030  -24.465200   83.292500
  C      3.622190  -22.334500   83.820300
  H      4.279360  -21.714300   84.500400
  H      3.962160  -22.226600   82.802700
  C      2.123590  -22.068500   84.009300
  H      1.827960  -21.045600   84.122600
  H      1.529620  -22.352600   83.142200
  H      1.638150  -22.610200   84.859800
  S      9.837090  -26.161200   82.837600
  C     10.780400  -25.843600   81.454300
  C     10.279400  -24.745700   80.764300
  C      9.117630  -24.109900   81.330800
  C      8.721240  -24.788400   82.530000
  H     10.748500  -24.488200   79.820200
  C      8.459860  -22.986400   80.587800
  H      9.119320  -22.185200   80.409500
  H      7.715040  -22.549400   81.176200
  C      7.729960  -23.462500   79.282100
  H      7.006370  -24.296700   79.533000
  H      8.375880  -24.030100   78.647300
  C      7.057580  -22.308800   78.500400
  H      7.733790  -21.491700   78.160700
  H      6.323530  -21.773700   79.085500
  H      6.598800  -22.732100   77.590200
  H      5.627980  -24.310000   86.430700
  H     11.720600  -26.406100   81.170000

 Total Charge           Charge          ....    0
 Multiplicity           Mult            ....    1
 Number of Electrons    NEL             ....  134
 Basis Dimension        Dim             ....  322

ORBITAL ENERGIES
----------------

  NO   OCC          E(Eh)            E(eV)
   0   2.0000     -88.967713     -2420.9345
   1   2.0000     -88.962486     -2420.7923
   2   2.0000     -10.336204      -281.2624
   3   2.0000     -10.330319      -281.1023
   4   2.0000     -10.320124      -280.8249
   5   2.0000     -10.314607      -280.6747
   6   2.0000     -10.309951      -280.5480
   7   2.0000     -10.304534      -280.4006
   8   2.0000     -10.297266      -280.2029
   9   2.0000     -10.294496      -280.1275
  10   2.0000     -10.294225      -280.1201
  11   2.0000     -10.292891      -280.0838
  12   2.0000     -10.292200      -280.0650
  13   2.0000     -10.286785      -279.9176
  14   2.0000     -10.285469      -279.8818
  15   2.0000     -10.280558      -279.7482
  16   2.0000      -8.082249      -219.9292
  17   2.0000      -8.077624      -219.8033
  18   2.0000      -6.040728      -164.3766
  19   2.0000      -6.036663      -164.2660
  20   2.0000      -6.036241      -164.2545
  21   2.0000      -6.033162      -164.1707
  22   2.0000      -6.032022      -164.1397
  23   2.0000      -6.028285      -164.0380
  24   2.0000      -1.003400       -27.3039
  25   2.0000      -0.981213       -26.7002
  26   2.0000      -0.909035       -24.7361
  27   2.0000      -0.904323       -24.6079
  28   2.0000      -0.866223       -23.5711
  29   2.0000      -0.850270       -23.1370
  30   2.0000      -0.841742       -22.9050
  31   2.0000      -0.812175       -22.1004
  32   2.0000      -0.784050       -21.3351
  33   2.0000      -0.770250       -20.9596
  34   2.0000      -0.710639       -19.3375
  35   2.0000      -0.705450       -19.1963
  36   2.0000      -0.695443       -18.9240
  37   2.0000      -0.655590       -17.8395
  38   2.0000      -0.639922       -17.4132
  39   2.0000      -0.623940       -16.9783
  40   2.0000      -0.599021       -16.3002
  41   2.0000      -0.565369       -15.3845
  42   2.0000      -0.559458       -15.2236
  43   2.0000      -0.551568       -15.0089
  44   2.0000      -0.527531       -14.3548
  45   2.0000      -0.520492       -14.1633
  46   2.0000      -0.516300       -14.0492
  47   2.0000      -0.512093       -13.9348
  48   2.0000      -0.508734       -13.8434
  49   2.0000      -0.497970       -13.5505
  50   2.0000      -0.493856       -13.4385
  51   2.0000      -0.482086       -13.1182
  52   2.0000      -0.471200       -12.8220
  53   2.0000      -0.465856       -12.6766
  54   2.0000      -0.459308       -12.4984
  55   2.0000      -0.450724       -12.2648
  56   2.0000      -0.447388       -12.1741
  57   2.0000      -0.439916       -11.9707
  58   2.0000      -0.435808       -11.8589
  59   2.0000      -0.423804       -11.5323
  60   2.0000      -0.419542       -11.4163
  61   2.0000      -0.416489       -11.3333
  62   2.0000      -0.411852       -11.2071
  63   2.0000      -0.352334        -9.5875
  64   2.0000      -0.329506        -8.9663
  65   2.0000      -0.327127        -8.9016
  66   2.0000      -0.289402        -7.8750
  67   0.0000       0.027955         0.7607
  68   0.0000       0.075348         2.0503
  69   0.0000       0.113498         3.0884
  70   0.0000       0.123958         3.3731
  71   0.0000       0.126570         3.4442

MULLIKEN ATOMIC CHARGES
-----------------------
   0 S :    0.092185
   1 C :   -0.106829
   2 C :   -0.114173
   3 C :    0.045252
   4 C :   -0.126485
   5 H :   -0.006072
   6 C :    0.028619
   7 H :    0.017888
   8 H :    0.026700
   9 C :   -0.044870
  10 H :    0.048996
  11 H :    0.029455
  12 C :   -0.047218
  13 H :    0.026737
  14 H :    0.025581
  15 H :    0.035615
  16 S :    0.114397
  17 C :   -0.116826
  18 C :   -0.046566
  19 C :   -0.040033
  20 C :   -0.146358
  21 H :    0.018862
  22 C :    0.133108
  23 H :    0.018248
  24 H :   -0.005426
  25 C :   -0.097080
  26 H :    0.033641
  27 H :    0.016942
  28 C :   -0.045768
  29 H :    0.034545
  30 H :    0.027672
  31 H :    0.042043
  32 H :    0.041646
  33 H :    0.085572
Sum of atomic charges:    0.0000000

LOEWDIN ATOMIC CHARGES
----------------------
   0 S :    0.403645
   1 C :   -0.191898
   2 C :   -0.057762
   3 C :   -0.064058
   4 C :   -0.191398
   5 H :    0.023338
   6 C :   -0.034679
   7 H :    0.024400
   8 H :    0.030030
   9 C :   -0.034869
  10 H :    0.032281
  11 H :    0.024264
  12 C :   -0.074463
  13 H :    0.022326
  14 H :    0.027232
  15 H :    0.031066
  16 S :    0.411389
  17 C :   -0.213268
  18 C :   -0.077789
  19 C :   -0.047259
  20 C :   -0.190257
  21 H :    0.028930
  22 C :   -0.025636
  23 H :    0.028061
  24 H :    0.021084
  25 C :   -0.038555
  26 H :    0.031373
  27 H :    0.016592
  28 C :   -0.069930
  29 H :    0.029467
  30 H :    0.021558
  31 H :    0.031764
  32 H :    0.025453
  33 H :    0.047567

  Mayer bond orders larger than 0.100000
B(  0-S ,  1-C ) :   1.1257 B(  0-S ,  4-C ) :   1.1551 B(  1-C ,  2-C ) :   1.6132
B(  1-C , 32-H ) :   0.9802 B(  2-C ,  3-C ) :   1.2329 B(  2-C ,  6-C ) :   1.0216
B(  3-C ,  4-C ) :   1.5619 B(  3-C ,  5-H ) :   1.0017 B(  4-C , 20-C ) :   1.0444
B(  6-C ,  7-H ) :   0.9503 B(  6-C ,  8-H ) :   0.9441 B(  6-C ,  9-C ) :   1.0366
B(  9-C , 10-H ) :   0.9638 B(  9-C , 11-H ) :   0.9563 B(  9-C , 12-C ) :   1.0698
B( 12-C , 13-H ) :   0.9757 B( 12-C , 14-H ) :   0.9728 B( 12-C , 15-H ) :   0.9783
B( 16-S , 17-C ) :   1.1669 B( 16-S , 20-C ) :   1.1483 B( 17-C , 18-C ) :   1.5908
B( 17-C , 20-C ) :   0.1002 B( 17-C , 33-H ) :   0.9581 B( 18-C , 19-C ) :   1.2552
B( 18-C , 21-H ) :   0.9888 B( 19-C , 20-C ) :   1.5508 B( 19-C , 22-C ) :   1.0687
B( 22-C , 23-H ) :   0.9291 B( 22-C , 24-H ) :   0.9213 B( 22-C , 25-C ) :   1.0472
B( 25-C , 26-H ) :   0.9513 B( 25-C , 27-H ) :   0.9585 B( 25-C , 28-C ) :   1.0755
B( 28-C , 29-H ) :   0.9742 B( 28-C , 30-H ) :   0.9761 B( 28-C , 31-H ) :   0.9739

Dispersion correction           -0.013816808
FINAL SINGLE POINT ENERGY     -1339.884604884320

DIPOLE MOMENT
-------------
                                X             Y             Z
Electronic contribution:     23.12701     -17.45419      15.45582
Nuclear contribution   :    -23.57749      17.81416     -15.99719
                        -----------------------------------------
Total Dipole Moment    :     -0.45048       0.35997      -0.54137
                        -----------------------------------------
Magnitude (a.u.)       :      0.79095
Magnitude (Debye)      :      2.01043

Rotational constants in cm-1:     0.017073     0.008850     0.006064
Rotational constants in MHz :   511.834751   265.316763   181.794756

                             ****ORCA TERMINATED NORMALLY****
TOTAL RUN TIME: 0 days 0 hours 0 minutes 32 seconds 977 msec
