                         Program Version 4.2.1 -  RELEASE  -
|  1> ! wB97X-D3 SP def2-SVP
|  2> %pal
|  3> nprocs 16
|  4> end
|  5>
|  6> * xyz 0 1
|  7> S 	 8.46426 	 22.3184 	 60.2701
|  8> C 	 8.89816 	 20.5803 	 60.3314
|  9> C 	 8.35111 	 19.9996 	 61.455
| 10> C 	 7.57333 	 20.9089 	 62.2686
| 11> C 	 7.46948 	 22.166 	 61.7405
| 12> H 	 7.05114 	 20.6421 	 63.1819
| 13> C 	 8.46774 	 18.5054 	 61.7629
| 14> H 	 8.31952 	 17.8805 	 60.7939
| 15> H 	 7.60462 	 18.183 	 62.2551
| 16> C 	 9.7223 	 18.0524 	 62.4638
| 17> H 	 9.72635 	 16.993 	 62.5114
| 18> H 	 10.5472 	 18.4019 	 61.833
| 19> C 	 9.76378 	 18.5939 	 63.8678
| 20> H 	 8.73879 	 18.7263 	 64.1429
| 21> H 	 10.1808 	 17.889 	 64.6276
| 22> H 	 10.2885 	 19.5329 	 63.8393
| 23> S 	 7.32861 	 24.7142 	 62.9159
| 24> C 	 5.77188 	 25.3312 	 63.4131
| 25> C 	 4.78887 	 24.3938 	 63.1206
| 26> C 	 5.23307 	 23.2299 	 62.4029
| 27> C 	 6.60705 	 23.221 	 62.2601
| 28> H 	 3.82527 	 24.6318 	 63.6141
| 29> C 	 4.24516 	 22.0603 	 61.9868
| 30> H 	 4.20003 	 21.4903 	 62.8721
| 31> H 	 4.60929 	 21.3338 	 61.2768
| 32> C 	 2.86778 	 22.363 	 61.4924
| 33> H 	 2.8672 	 23.0467 	 60.6358
| 34> H 	 2.48477 	 22.9517 	 62.3058
| 35> C 	 2.03668 	 21.0097 	 61.42
| 36> H 	 1.03644 	 21.1906 	 61.0582
| 37> H 	 1.99014 	 20.519 	 62.4066
| 38> H 	 2.55982 	 20.4847 	 60.6225
| 39> H 	 9.39015 	 20.0273 	 59.566
| 40> H 	 5.52101 	 26.2605 	 63.9567
| 41> *
| 42>
| 43>                          ****END OF INPUT****

CARTESIAN COORDINATES (ANGSTROEM)
---------------------------------
  S      8.464260   22.318400   60.270100
  C      8.898160   20.580300   60.331400
  C      8.351110   19.999600   61.455000
  C      7.573330   20.908900   62.268600
  C      7.469480   22.166000   61.740500
  H      7.051140   20.642100   63.181900
  C      8.467740   18.505400   61.762900
  H      8.319520   17.880500   60.793900
  H      7.604620   18.183000   62.255100
  C      9.722300   18.052400   62.463800
  H      9.726350   16.993000   62.511400
  H     10.547200   18.401900   61.833000
  C      9.763780   18.593900   63.867800
  H      8.738790   18.726300   64.142900
  H     10.180800   17.889000   64.627600
  H     10.288500   19.532900   63.839300
  S      7.328610   24.714200   62.915900
  C      5.771880   25.331200   63.413100
  C      4.788870   24.393800   63.120600
  C      5.233070   23.229900   62.402900
  C      6.607050   23.221000   62.260100
  H      3.825270   24.631800   63.614100
  C      4.245160   22.060300   61.986800
  H      4.200030   21.490300   62.872100
  H      4.609290   21.333800   61.276800
  C      2.867780   22.363000   61.492400
  H      2.867200   23.046700   60.635800
  H      2.484770   22.951700   62.305800
  C      2.036680   21.009700   61.420000
  H      1.036440   21.190600   61.058200
  H      1.990140   20.519000   62.406600
  H      2.559820   20.484700   60.622500
  H      9.390150   20.027300   59.566000
  H      5.521010   26.260500   63.956700

 Total Charge           Charge          ....    0
 Multiplicity           Mult            ....    1
 Number of Electrons    NEL             ....  134
 Basis Dimension        Dim             ....  322

ORBITAL ENERGIES
----------------

  NO   OCC          E(Eh)            E(eV)
   0   2.0000     -88.965575     -2420.8764
   1   2.0000     -88.965313     -2420.8692
   2   2.0000     -10.330893      -281.1179
   3   2.0000     -10.329086      -281.0687
   4   2.0000     -10.321313      -280.8572
   5   2.0000     -10.316987      -280.7395
   6   2.0000     -10.313115      -280.6341
   7   2.0000     -10.303631      -280.3761
   8   2.0000     -10.297638      -280.2130
   9   2.0000     -10.296685      -280.1870
  10   2.0000     -10.291035      -280.0333
  11   2.0000     -10.287553      -279.9386
  12   2.0000     -10.286358      -279.9060
  13   2.0000     -10.284322      -279.8506
  14   2.0000     -10.278230      -279.6849
  15   2.0000     -10.271128      -279.4916
  16   2.0000      -8.079554      -219.8558
  17   2.0000      -8.079202      -219.8463
  18   2.0000      -6.038110      -164.3053
  19   2.0000      -6.037867      -164.2987
  20   2.0000      -6.034095      -164.1961
  21   2.0000      -6.033905      -164.1909
  22   2.0000      -6.030307      -164.0930
  23   2.0000      -6.029804      -164.0793
  24   2.0000      -1.000658       -27.2293
  25   2.0000      -0.978695       -26.6317
  26   2.0000      -0.917425       -24.9644
  27   2.0000      -0.910536       -24.7770
  28   2.0000      -0.869983       -23.6734
  29   2.0000      -0.845706       -23.0128
  30   2.0000      -0.840022       -22.8582
  31   2.0000      -0.814108       -22.1530
  32   2.0000      -0.782437       -21.2912
  33   2.0000      -0.773524       -21.0487
  34   2.0000      -0.706619       -19.2281
  35   2.0000      -0.702682       -19.1209
  36   2.0000      -0.697487       -18.9796
  37   2.0000      -0.648981       -17.6597
  38   2.0000      -0.642075       -17.4718
  39   2.0000      -0.614746       -16.7281
  40   2.0000      -0.597542       -16.2600
  41   2.0000      -0.580160       -15.7870
  42   2.0000      -0.569611       -15.4999
  43   2.0000      -0.549147       -14.9430
  44   2.0000      -0.544025       -14.8037
  45   2.0000      -0.520554       -14.1650
  46   2.0000      -0.517332       -14.0773
  47   2.0000      -0.509603       -13.8670
  48   2.0000      -0.506124       -13.7723
  49   2.0000      -0.502705       -13.6793
  50   2.0000      -0.487282       -13.2596
  51   2.0000      -0.478012       -13.0074
  52   2.0000      -0.468131       -12.7385
  53   2.0000      -0.466475       -12.6934
  54   2.0000      -0.462598       -12.5879
  55   2.0000      -0.449540       -12.2326
  56   2.0000      -0.442316       -12.0360
  57   2.0000      -0.437240       -11.8979
  58   2.0000      -0.430340       -11.7102
  59   2.0000      -0.419707       -11.4208
  60   2.0000      -0.415965       -11.3190
  61   2.0000      -0.412502       -11.2247
  62   2.0000      -0.409738       -11.1495
  63   2.0000      -0.338288        -9.2053
  64   2.0000      -0.332814        -9.0563
  65   2.0000      -0.328334        -8.9344
  66   2.0000      -0.302857        -8.2412
  67   0.0000       0.035367         0.9624
  68   0.0000       0.058163         1.5827
  69   0.0000       0.115410         3.1405
  70   0.0000       0.120860         3.2888
  71   0.0000       0.131568         3.5801

MULLIKEN ATOMIC CHARGES
-----------------------
   0 S :    0.103144
   1 C :   -0.106101
   2 C :   -0.087140
   3 C :    0.048404
   4 C :   -0.152657
   5 H :    0.018393
   6 C :    0.010421
   7 H :    0.031987
   8 H :    0.004174
   9 C :   -0.026043
  10 H :    0.019292
  11 H :    0.027378
  12 C :   -0.040589
  13 H :    0.009981
  14 H :    0.039550
  15 H :    0.047592
  16 S :    0.108428
  17 C :   -0.108746
  18 C :   -0.081719
  19 C :    0.029049
  20 C :   -0.186567
  21 H :    0.037962
  22 C :    0.063325
  23 H :    0.016100
  24 H :    0.017905
  25 C :   -0.085043
  26 H :    0.043328
  27 H :    0.013207
  28 C :   -0.048788
  29 H :    0.035372
  30 H :    0.048310
  31 H :    0.037266
  32 H :    0.042215
  33 H :    0.070609
Sum of atomic charges:    0.0000000

LOEWDIN ATOMIC CHARGES
----------------------
   0 S :    0.374099
   1 C :   -0.174972
   2 C :   -0.062427
   3 C :   -0.055500
   4 C :   -0.183634
   5 H :    0.033476
   6 C :   -0.037638
   7 H :    0.039044
   8 H :    0.015651
   9 C :   -0.038756
  10 H :    0.019625
  11 H :    0.024780
  12 C :   -0.062862
  13 H :    0.018363
  14 H :    0.031577
  15 H :    0.030235
  16 S :    0.393328
  17 C :   -0.193147
  18 C :   -0.086242
  19 C :   -0.044685
  20 C :   -0.194684
  21 H :    0.037330
  22 C :   -0.030955
  23 H :    0.025868
  24 H :    0.026292
  25 C :   -0.042659
  26 H :    0.028276
  27 H :    0.015183
  28 C :   -0.056918
  29 H :    0.024937
  30 H :    0.032568
  31 H :    0.027234
  32 H :    0.025942
  33 H :    0.041270

  Mayer bond orders larger than 0.100000
B(  0-S ,  1-C ) :   1.1198 B(  0-S ,  4-C ) :   1.1330 B(  1-C ,  2-C ) :   1.6437
B(  1-C , 32-H ) :   0.9712 B(  2-C ,  3-C ) :   1.2105 B(  2-C ,  6-C ) :   1.0143
B(  3-C ,  4-C ) :   1.6056 B(  3-C ,  5-H ) :   0.9941 B(  4-C , 20-C ) :   1.0337
B(  6-C ,  7-H ) :   0.9428 B(  6-C ,  8-H ) :   0.9408 B(  6-C ,  9-C ) :   1.0867
B(  9-C , 10-H ) :   0.9505 B(  9-C , 11-H ) :   0.9580 B(  9-C , 12-C ) :   1.0708
B( 12-C , 13-H ) :   0.9772 B( 12-C , 14-H ) :   0.9744 B( 12-C , 15-H ) :   0.9734
B( 16-S , 17-C ) :   1.1502 B( 16-S , 20-C ) :   1.1329 B( 17-C , 18-C ) :   1.6402
B( 17-C , 33-H ) :   0.9614 B( 18-C , 19-C ) :   1.2122 B( 18-C , 21-H ) :   0.9797
B( 19-C , 20-C ) :   1.6238 B( 19-C , 22-C ) :   1.0045 B( 22-C , 23-H ) :   0.9369
B( 22-C , 24-H ) :   0.9420 B( 22-C , 25-C ) :   1.0590 B( 25-C , 26-H ) :   0.9626
B( 25-C , 27-H ) :   0.9505 B( 25-C , 28-C ) :   1.0658 B( 28-C , 29-H ) :   0.9752
B( 28-C , 30-H ) :   0.9745 B( 28-C , 31-H ) :   0.9796

Dispersion correction           -0.014044090
FINAL SINGLE POINT ENERGY     -1339.863410663471

DIPOLE MOMENT
-------------
                                X             Y             Z
Electronic contribution:     11.46763      22.36246      -4.69010
Nuclear contribution   :    -12.01509     -22.96969       4.96151
                        -----------------------------------------
Total Dipole Moment    :     -0.54746      -0.60723       0.27141
                        -----------------------------------------
Magnitude (a.u.)       :      0.86146
Magnitude (Debye)      :      2.18966

Rotational constants in cm-1:     0.016857     0.008369     0.006854
Rotational constants in MHz :   505.351881   250.897408   205.472912

                             ****ORCA TERMINATED NORMALLY****
TOTAL RUN TIME: 0 days 0 hours 0 minutes 34 seconds 68 msec
