                         Program Version 4.2.1 -  RELEASE  -
|  1> ! wB97X-D3 SP def2-SVP
|  2> %pal
|  3> nprocs 16
|  4> end
|  5>
|  6> * xyz 0 1
|  7> S 	 11.0445 	 -7.97919 	 97.4935
|  8> C 	 12.0392 	 -7.69835 	 98.8979
|  9> C 	 12.7983 	 -6.57071 	 98.6959
| 10> C 	 12.2014 	 -5.7594 	 97.7078
| 11> C 	 11.1734 	 -6.33634 	 97.0452
| 12> H 	 12.471 	 -4.72545 	 97.6774
| 13> C 	 13.7613 	 -6.08302 	 99.7832
| 14> H 	 14.4885 	 -5.56248 	 99.1722
| 15> H 	 14.3421 	 -6.88532 	 100.175
| 16> C 	 13.2854 	 -5.20172 	 100.894
| 17> H 	 14.1609 	 -4.91549 	 101.43
| 18> H 	 12.8672 	 -4.31315 	 100.432
| 19> C 	 12.269 	 -5.83553 	 101.829
| 20> H 	 11.3754 	 -6.00039 	 101.156
| 21> H 	 12.5734 	 -6.76105 	 102.262
| 22> H 	 11.9451 	 -5.10407 	 102.543
| 23> S 	 10.4909 	 -6.49998 	 94.4023
| 24> C 	 9.44141 	 -5.28936 	 93.6248
| 25> C 	 8.90398 	 -4.45652 	 94.5758
| 26> C 	 9.407 	 -4.7278 	 95.8926
| 27> C 	 10.3315 	 -5.79433 	 95.9792
| 28> H 	 8.2668 	 -3.68157 	 94.2947
| 29> C 	 9.14332 	 -3.76355 	 97.0246
| 30> H 	 9.04731 	 -2.69233 	 96.7085
| 31> H 	 9.98092 	 -3.87575 	 97.7172
| 32> C 	 8.017 	 -3.93902 	 97.9947
| 33> H 	 7.0787 	 -3.69245 	 97.4441
| 34> H 	 8.10507 	 -3.33397 	 98.9346
| 35> C 	 7.81866 	 -5.4177 	 98.4618
| 36> H 	 6.84735 	 -5.51279 	 98.9948
| 37> H 	 8.71139 	 -5.73891 	 99.0063
| 38> H 	 7.81827 	 -6.0351 	 97.5572
| 39> H 	 12.2813 	 -8.55244 	 99.5992
| 40> H 	 9.15499 	 -5.34833 	 92.5722
| 41> *
| 42>
| 43>                          ****END OF INPUT****

CARTESIAN COORDINATES (ANGSTROEM)
---------------------------------
  S     11.044500   -7.979190   97.493500
  C     12.039200   -7.698350   98.897900
  C     12.798300   -6.570710   98.695900
  C     12.201400   -5.759400   97.707800
  C     11.173400   -6.336340   97.045200
  H     12.471000   -4.725450   97.677400
  C     13.761300   -6.083020   99.783200
  H     14.488500   -5.562480   99.172200
  H     14.342100   -6.885320  100.175000
  C     13.285400   -5.201720  100.894000
  H     14.160900   -4.915490  101.430000
  H     12.867200   -4.313150  100.432000
  C     12.269000   -5.835530  101.829000
  H     11.375400   -6.000390  101.156000
  H     12.573400   -6.761050  102.262000
  H     11.945100   -5.104070  102.543000
  S     10.490900   -6.499980   94.402300
  C      9.441410   -5.289360   93.624800
  C      8.903980   -4.456520   94.575800
  C      9.407000   -4.727800   95.892600
  C     10.331500   -5.794330   95.979200
  H      8.266800   -3.681570   94.294700
  C      9.143320   -3.763550   97.024600
  H      9.047310   -2.692330   96.708500
  H      9.980920   -3.875750   97.717200
  C      8.017000   -3.939020   97.994700
  H      7.078700   -3.692450   97.444100
  H      8.105070   -3.333970   98.934600
  C      7.818660   -5.417700   98.461800
  H      6.847350   -5.512790   98.994800
  H      8.711390   -5.738910   99.006300
  H      7.818270   -6.035100   97.557200
  H     12.281300   -8.552440   99.599200
  H      9.154990   -5.348330   92.572200

 Total Charge           Charge          ....    0
 Multiplicity           Mult            ....    1
 Number of Electrons    NEL             ....  134
 Basis Dimension        Dim             ....  322

ORBITAL ENERGIES
----------------

  NO   OCC          E(Eh)            E(eV)
   0   2.0000     -88.964691     -2420.8523
   1   2.0000     -88.964660     -2420.8515
   2   2.0000     -10.331564      -281.1362
   3   2.0000     -10.328413      -281.0504
   4   2.0000     -10.321629      -280.8658
   5   2.0000     -10.318008      -280.7673
   6   2.0000     -10.308566      -280.5104
   7   2.0000     -10.299639      -280.2674
   8   2.0000     -10.293643      -280.1043
   9   2.0000     -10.292562      -280.0749
  10   2.0000     -10.287125      -279.9269
  11   2.0000     -10.286790      -279.9178
  12   2.0000     -10.283786      -279.8361
  13   2.0000     -10.282318      -279.7961
  14   2.0000     -10.275748      -279.6173
  15   2.0000     -10.269951      -279.4596
  16   2.0000      -8.080795      -219.8896
  17   2.0000      -8.079360      -219.8506
  18   2.0000      -6.039140      -164.3334
  19   2.0000      -6.037912      -164.2999
  20   2.0000      -6.035211      -164.2264
  21   2.0000      -6.033711      -164.1856
  22   2.0000      -6.031505      -164.1256
  23   2.0000      -6.030234      -164.0910
  24   2.0000      -1.017629       -27.6911
  25   2.0000      -0.988636       -26.9022
  26   2.0000      -0.920587       -25.0505
  27   2.0000      -0.907598       -24.6970
  28   2.0000      -0.874504       -23.7965
  29   2.0000      -0.852161       -23.1885
  30   2.0000      -0.840398       -22.8684
  31   2.0000      -0.818302       -22.2671
  32   2.0000      -0.788904       -21.4672
  33   2.0000      -0.771279       -20.9876
  34   2.0000      -0.710411       -19.3313
  35   2.0000      -0.694193       -18.8899
  36   2.0000      -0.683248       -18.5921
  37   2.0000      -0.659986       -17.9591
  38   2.0000      -0.642338       -17.4789
  39   2.0000      -0.632153       -17.2018
  40   2.0000      -0.593312       -16.1448
  41   2.0000      -0.575744       -15.6668
  42   2.0000      -0.557652       -15.1745
  43   2.0000      -0.555113       -15.1054
  44   2.0000      -0.544447       -14.8152
  45   2.0000      -0.543212       -14.7815
  46   2.0000      -0.520160       -14.1543
  47   2.0000      -0.513574       -13.9751
  48   2.0000      -0.507679       -13.8146
  49   2.0000      -0.500807       -13.6277
  50   2.0000      -0.489424       -13.3179
  51   2.0000      -0.480575       -13.0771
  52   2.0000      -0.470612       -12.8060
  53   2.0000      -0.465399       -12.6642
  54   2.0000      -0.458480       -12.4759
  55   2.0000      -0.448731       -12.2106
  56   2.0000      -0.440495       -11.9865
  57   2.0000      -0.437471       -11.9042
  58   2.0000      -0.428902       -11.6710
  59   2.0000      -0.426518       -11.6061
  60   2.0000      -0.410117       -11.1598
  61   2.0000      -0.405157       -11.0249
  62   2.0000      -0.403865       -10.9897
  63   2.0000      -0.346252        -9.4220
  64   2.0000      -0.334739        -9.1087
  65   2.0000      -0.328032        -8.9262
  66   2.0000      -0.299858        -8.1596
  67   0.0000       0.034105         0.9280
  68   0.0000       0.053023         1.4428
  69   0.0000       0.106123         2.8877
  70   0.0000       0.113326         3.0838
  71   0.0000       0.128237         3.4895

MULLIKEN ATOMIC CHARGES
-----------------------
   0 S :    0.119453
   1 C :   -0.138702
   2 C :   -0.099140
   3 C :    0.051363
   4 C :   -0.157573
   5 H :    0.006940
   6 C :    0.045886
   7 H :    0.017835
   8 H :    0.010850
   9 C :   -0.022943
  10 H :    0.023035
  11 H :    0.015181
  12 C :   -0.046361
  13 H :    0.043769
  14 H :    0.028157
  15 H :    0.034440
  16 S :    0.095751
  17 C :   -0.102897
  18 C :   -0.002320
  19 C :   -0.029177
  20 C :   -0.148024
  21 H :    0.002563
  22 C :    0.058034
  23 H :    0.039279
  24 H :    0.009703
  25 C :   -0.102883
  26 H :    0.019756
  27 H :    0.043461
  28 C :   -0.074030
  29 H :    0.046152
  30 H :    0.033420
  31 H :    0.037451
  32 H :    0.072620
  33 H :    0.068953
Sum of atomic charges:   -0.0000000

LOEWDIN ATOMIC CHARGES
----------------------
   0 S :    0.424893
   1 C :   -0.195504
   2 C :   -0.069083
   3 C :   -0.057018
   4 C :   -0.208824
   5 H :    0.028801
   6 C :   -0.033294
   7 H :    0.031186
   8 H :    0.024539
   9 C :   -0.035669
  10 H :    0.021886
  11 H :    0.022908
  12 C :   -0.062738
  13 H :    0.035307
  14 H :    0.019052
  15 H :    0.025562
  16 S :    0.402457
  17 C :   -0.174763
  18 C :   -0.061500
  19 C :   -0.057542
  20 C :   -0.201913
  21 H :    0.024997
  22 C :   -0.046077
  23 H :    0.037791
  24 H :    0.029744
  25 C :   -0.047164
  26 H :    0.017902
  27 H :    0.029252
  28 C :   -0.071970
  29 H :    0.029802
  30 H :    0.021652
  31 H :    0.024040
  32 H :    0.037749
  33 H :    0.033536

  Mayer bond orders larger than 0.100000
B(  0-S ,  1-C ) :   1.1494 B(  0-S ,  4-C ) :   1.1621 B(  1-C ,  2-C ) :   1.5896
B(  1-C ,  4-C ) :   0.1043 B(  1-C , 32-H ) :   0.9622 B(  2-C ,  3-C ) :   1.2359
B(  2-C ,  6-C ) :   1.0370 B(  3-C ,  4-C ) :   1.5753 B(  3-C ,  5-H ) :   1.0048
B(  4-C , 20-C ) :   1.0076 B(  6-C ,  7-H ) :   0.9316 B(  6-C ,  8-H ) :   0.9380
B(  6-C ,  9-C ) :   1.0819 B(  9-C , 10-H ) :   0.9458 B(  9-C , 11-H ) :   0.9504
B(  9-C , 12-C ) :   1.0861 B( 12-C , 13-H ) :   0.9708 B( 12-C , 14-H ) :   0.9750
B( 12-C , 15-H ) :   0.9716 B( 16-S , 17-C ) :   1.1521 B( 16-S , 20-C ) :   1.1601
B( 17-C , 18-C ) :   1.5963 B( 17-C , 20-C ) :   0.1063 B( 17-C , 33-H ) :   0.9665
B( 18-C , 19-C ) :   1.2401 B( 18-C , 21-H ) :   1.0050 B( 19-C , 20-C ) :   1.5768
B( 19-C , 22-C ) :   1.0427 B( 22-C , 23-H ) :   0.9427 B( 22-C , 24-H ) :   0.9299
B( 22-C , 25-C ) :   1.0717 B( 25-C , 26-H ) :   0.9534 B( 25-C , 27-H ) :   0.9577
B( 25-C , 28-C ) :   1.0797 B( 28-C , 29-H ) :   0.9752 B( 28-C , 30-H ) :   0.9750
B( 28-C , 31-H ) :   0.9696

Dispersion correction           -0.015800361
FINAL SINGLE POINT ENERGY     -1339.865521100554

DIPOLE MOMENT
-------------
                                X             Y             Z
Electronic contribution:      2.03765     -12.49378     -23.41146
Nuclear contribution   :     -1.87785      12.95137      23.76672
                        -----------------------------------------
Total Dipole Moment    :      0.15980       0.45759       0.35526
                        -----------------------------------------
Magnitude (a.u.)       :      0.60094
Magnitude (Debye)      :      1.52748

Rotational constants in cm-1:     0.021269     0.009212     0.007646
Rotational constants in MHz :   637.624765   276.157379   229.232094

                             ****ORCA TERMINATED NORMALLY****
TOTAL RUN TIME: 0 days 0 hours 0 minutes 35 seconds 963 msec
