                         Program Version 4.2.1 -  RELEASE  -
|  1> ! wB97X-D3 SP def2-SVP
|  2> %pal
|  3> nprocs 16
|  4> end
|  5>
|  6> * xyz 0 1
|  7> S 	 47.2864 	 14.9721 	 78.5692
|  8> C 	 47.1089 	 14.6486 	 80.2752
|  9> C 	 48.3037 	 14.4953 	 80.8801
| 10> C 	 49.416 	 14.5027 	 79.9274
| 11> C 	 49.0089 	 14.7699 	 78.616
| 12> H 	 50.4324 	 14.3185 	 80.1399
| 13> C 	 48.5012 	 14.2183 	 82.4081
| 14> H 	 49.497 	 13.7047 	 82.544
| 15> H 	 47.7861 	 13.393 	 82.7086
| 16> C 	 48.4392 	 15.5105 	 83.2165
| 17> H 	 47.4444 	 15.9945 	 83.1126
| 18> H 	 48.3927 	 15.2525 	 84.2378
| 19> C 	 49.5928 	 16.5247 	 82.9676
| 20> H 	 50.5475 	 15.8594 	 82.9556
| 21> H 	 49.6351 	 16.9958 	 82.0019
| 22> H 	 49.6686 	 17.1688 	 83.7595
| 23> S 	 49.8485 	 13.4272 	 76.2955
| 24> C 	 50.8417 	 14.307 	 75.2087
| 25> C 	 51.2444 	 15.5171 	 75.6484
| 26> C 	 50.6151 	 15.8725 	 76.8874
| 27> C 	 49.8557 	 14.8359 	 77.4104
| 28> H 	 51.7608 	 16.2271 	 75.0682
| 29> C 	 50.8429 	 17.1688 	 77.6308
| 30> H 	 50.1479 	 17.3155 	 78.4699
| 31> H 	 50.4484 	 17.8456 	 76.891
| 32> C 	 52.29 	 17.4292 	 78.0106
| 33> H 	 52.3351 	 18.456 	 78.3965
| 34> H 	 53.0393 	 17.3532 	 77.2619
| 35> C 	 52.7326 	 16.4825 	 79.1799
| 36> H 	 52.7284 	 15.4126 	 78.8409
| 37> H 	 52.1045 	 16.5064 	 80.0353
| 38> H 	 53.7265 	 16.8666 	 79.4719
| 39> H 	 46.0232 	 14.5691 	 80.7644
| 40> H 	 51.392 	 13.9135 	 74.4216
| 41> *
| 42>
| 43>                          ****END OF INPUT****

CARTESIAN COORDINATES (ANGSTROEM)
---------------------------------
  S     47.286400   14.972100   78.569200
  C     47.108900   14.648600   80.275200
  C     48.303700   14.495300   80.880100
  C     49.416000   14.502700   79.927400
  C     49.008900   14.769900   78.616000
  H     50.432400   14.318500   80.139900
  C     48.501200   14.218300   82.408100
  H     49.497000   13.704700   82.544000
  H     47.786100   13.393000   82.708600
  C     48.439200   15.510500   83.216500
  H     47.444400   15.994500   83.112600
  H     48.392700   15.252500   84.237800
  C     49.592800   16.524700   82.967600
  H     50.547500   15.859400   82.955600
  H     49.635100   16.995800   82.001900
  H     49.668600   17.168800   83.759500
  S     49.848500   13.427200   76.295500
  C     50.841700   14.307000   75.208700
  C     51.244400   15.517100   75.648400
  C     50.615100   15.872500   76.887400
  C     49.855700   14.835900   77.410400
  H     51.760800   16.227100   75.068200
  C     50.842900   17.168800   77.630800
  H     50.147900   17.315500   78.469900
  H     50.448400   17.845600   76.891000
  C     52.290000   17.429200   78.010600
  H     52.335100   18.456000   78.396500
  H     53.039300   17.353200   77.261900
  C     52.732600   16.482500   79.179900
  H     52.728400   15.412600   78.840900
  H     52.104500   16.506400   80.035300
  H     53.726500   16.866600   79.471900
  H     46.023200   14.569100   80.764400
  H     51.392000   13.913500   74.421600

 Total Charge           Charge          ....    0
 Multiplicity           Mult            ....    1
 Number of Electrons    NEL             ....  134
 Basis Dimension        Dim             ....  322

ORBITAL ENERGIES
----------------

  NO   OCC          E(Eh)            E(eV)
   0   2.0000     -88.963231     -2420.8126
   1   2.0000     -88.961766     -2420.7727
   2   2.0000     -10.328108      -281.0421
   3   2.0000     -10.324989      -280.9572
   4   2.0000     -10.319854      -280.8175
   5   2.0000     -10.308037      -280.4960
   6   2.0000     -10.303204      -280.3644
   7   2.0000     -10.301975      -280.3310
   8   2.0000     -10.301975      -280.3310
   9   2.0000     -10.295081      -280.1434
  10   2.0000     -10.288391      -279.9614
  11   2.0000     -10.287264      -279.9307
  12   2.0000     -10.286915      -279.9212
  13   2.0000     -10.286637      -279.9136
  14   2.0000     -10.279556      -279.7210
  15   2.0000     -10.277616      -279.6682
  16   2.0000      -8.078137      -219.8173
  17   2.0000      -8.077045      -219.7876
  18   2.0000      -6.036648      -164.2656
  19   2.0000      -6.035529      -164.2351
  20   2.0000      -6.032645      -164.1566
  21   2.0000      -6.031438      -164.1238
  22   2.0000      -6.028864      -164.0537
  23   2.0000      -6.027828      -164.0255
  24   2.0000      -1.003831       -27.3156
  25   2.0000      -0.984894       -26.8003
  26   2.0000      -0.910424       -24.7739
  27   2.0000      -0.906070       -24.6554
  28   2.0000      -0.867212       -23.5980
  29   2.0000      -0.846956       -23.0468
  30   2.0000      -0.840024       -22.8582
  31   2.0000      -0.814232       -22.1564
  32   2.0000      -0.783631       -21.3237
  33   2.0000      -0.772990       -21.0341
  34   2.0000      -0.705037       -19.1850
  35   2.0000      -0.701649       -19.0928
  36   2.0000      -0.695978       -18.9385
  37   2.0000      -0.658175       -17.9098
  38   2.0000      -0.638510       -17.3747
  39   2.0000      -0.608800       -16.5663
  40   2.0000      -0.598252       -16.2793
  41   2.0000      -0.569766       -15.5041
  42   2.0000      -0.556765       -15.1504
  43   2.0000      -0.554218       -15.0810
  44   2.0000      -0.542748       -14.7689
  45   2.0000      -0.531808       -14.4712
  46   2.0000      -0.517810       -14.0903
  47   2.0000      -0.505137       -13.7455
  48   2.0000      -0.494276       -13.4499
  49   2.0000      -0.492215       -13.3939
  50   2.0000      -0.489449       -13.3186
  51   2.0000      -0.474798       -12.9199
  52   2.0000      -0.470479       -12.8024
  53   2.0000      -0.465032       -12.6542
  54   2.0000      -0.463206       -12.6045
  55   2.0000      -0.450441       -12.2571
  56   2.0000      -0.446273       -12.1437
  57   2.0000      -0.438419       -11.9300
  58   2.0000      -0.433149       -11.7866
  59   2.0000      -0.425168       -11.5694
  60   2.0000      -0.420934       -11.4542
  61   2.0000      -0.408807       -11.1242
  62   2.0000      -0.407695       -11.0939
  63   2.0000      -0.334147        -9.0926
  64   2.0000      -0.326939        -8.8965
  65   2.0000      -0.325310        -8.8521
  66   2.0000      -0.311238        -8.4692
  67   0.0000       0.046355         1.2614
  68   0.0000       0.058716         1.5978
  69   0.0000       0.120207         3.2710
  70   0.0000       0.125574         3.4170
  71   0.0000       0.126601         3.4450

MULLIKEN ATOMIC CHARGES
-----------------------
   0 S :    0.114365
   1 C :   -0.179271
   2 C :   -0.071982
   3 C :    0.060420
   4 C :   -0.178418
   5 H :   -0.007938
   6 C :    0.013050
   7 H :    0.029888
   8 H :    0.045789
   9 C :   -0.044614
  10 H :    0.025639
  11 H :    0.014418
  12 C :   -0.034649
  13 H :    0.021337
  14 H :    0.049846
  15 H :    0.025229
  16 S :    0.110289
  17 C :   -0.029763
  18 C :   -0.035827
  19 C :   -0.048030
  20 C :   -0.199421
  21 H :    0.005124
  22 C :    0.086002
  23 H :    0.034048
  24 H :    0.023647
  25 C :   -0.052411
  26 H :    0.029370
  27 H :    0.026007
  28 C :   -0.070647
  29 H :    0.052060
  30 H :    0.021486
  31 H :    0.035274
  32 H :    0.094623
  33 H :    0.035064
Sum of atomic charges:    0.0000000

LOEWDIN ATOMIC CHARGES
----------------------
   0 S :    0.409003
   1 C :   -0.214785
   2 C :   -0.072949
   3 C :   -0.054998
   4 C :   -0.205830
   5 H :    0.022231
   6 C :   -0.035912
   7 H :    0.031075
   8 H :    0.038331
   9 C :   -0.043214
  10 H :    0.025842
  11 H :    0.018312
  12 C :   -0.055633
  13 H :    0.032550
  14 H :    0.025230
  15 H :    0.014532
  16 S :    0.398025
  17 C :   -0.176627
  18 C :   -0.070207
  19 C :   -0.043534
  20 C :   -0.199503
  21 H :    0.025149
  22 C :   -0.033904
  23 H :    0.035848
  24 H :    0.032291
  25 C :   -0.033300
  26 H :    0.027447
  27 H :    0.018960
  28 C :   -0.064110
  29 H :    0.030883
  30 H :    0.014506
  31 H :    0.028176
  32 H :    0.056204
  33 H :    0.019912

  Mayer bond orders larger than 0.100000
B(  0-S ,  1-C ) :   1.1389 B(  0-S ,  4-C ) :   1.1596 B(  1-C ,  2-C ) :   1.6431
B(  1-C , 32-H ) :   0.9485 B(  2-C ,  3-C ) :   1.2233 B(  2-C ,  6-C ) :   0.9993
B(  3-C ,  4-C ) :   1.5883 B(  3-C ,  5-H ) :   1.0013 B(  4-C , 20-C ) :   1.0135
B(  6-C ,  7-H ) :   0.9474 B(  6-C ,  8-H ) :   0.9496 B(  6-C ,  9-C ) :   1.0725
B(  9-C , 10-H ) :   0.9525 B(  9-C , 11-H ) :   0.9536 B(  9-C , 12-C ) :   1.0657
B( 12-C , 13-H ) :   0.9743 B( 12-C , 14-H ) :   0.9762 B( 12-C , 15-H ) :   0.9745
B( 16-S , 17-C ) :   1.1599 B( 16-S , 20-C ) :   1.1244 B( 17-C , 18-C ) :   1.6371
B( 17-C , 33-H ) :   0.9591 B( 18-C , 19-C ) :   1.2311 B( 18-C , 21-H ) :   0.9899
B( 19-C , 20-C ) :   1.6246 B( 19-C , 22-C ) :   1.0318 B( 22-C , 23-H ) :   0.9359
B( 22-C , 24-H ) :   0.9215 B( 22-C , 25-C ) :   1.0761 B( 25-C , 26-H ) :   0.9535
B( 25-C , 27-H ) :   0.9603 B( 25-C , 28-C ) :   1.0658 B( 28-C , 29-H ) :   0.9756
B( 28-C , 30-H ) :   0.9760 B( 28-C , 31-H ) :   0.9732

Dispersion correction           -0.015999537
FINAL SINGLE POINT ENERGY     -1339.872176166520

DIPOLE MOMENT
-------------
                                X             Y             Z
Electronic contribution:    -13.07876     -13.00823     -21.22038
Nuclear contribution   :     13.41895      13.35395      21.62522
                        -----------------------------------------
Total Dipole Moment    :      0.34018       0.34572       0.40484
                        -----------------------------------------
Magnitude (a.u.)       :      0.63178
Magnitude (Debye)      :      1.60586

Rotational constants in cm-1:     0.019880     0.009520     0.007298
Rotational constants in MHz :   595.999236   285.408459   218.797746

                             ****ORCA TERMINATED NORMALLY****
TOTAL RUN TIME: 0 days 0 hours 0 minutes 32 seconds 194 msec
