                         Program Version 4.2.1 -  RELEASE  -
|  1> ! wB97X-D3 SP def2-SVP
|  2> %pal
|  3> nprocs 16
|  4> end
|  5>
|  6> * xyz 0 1
|  7> S 	 41.1383 	 11.6379 	 88.8552
|  8> C 	 41.9283 	 13.0234 	 88.3926
|  9> C 	 41.7272 	 13.3814 	 87.117
| 10> C 	 41.0148 	 12.3399 	 86.4067
| 11> C 	 40.4998 	 11.3568 	 87.215
| 12> H 	 40.7784 	 12.3245 	 85.4063
| 13> C 	 42.3632 	 14.6059 	 86.4699
| 14> H 	 43.0806 	 14.2236 	 85.6955
| 15> H 	 42.9335 	 15.1594 	 87.1574
| 16> C 	 41.4137 	 15.6664 	 85.8901
| 17> H 	 40.6962 	 16.0472 	 86.6151
| 18> H 	 41.9121 	 16.5235 	 85.6149
| 19> C 	 40.6743 	 15.1698 	 84.6621
| 20> H 	 40.2785 	 16.0248 	 84.0384
| 21> H 	 41.3665 	 14.5451 	 84.0849
| 22> H 	 39.7526 	 14.6341 	 84.8891
| 23> S 	 40.1345 	 9.28931 	 85.3657
| 24> C 	 38.7376 	 8.18414 	 85.442
| 25> C 	 37.9557 	 8.49643 	 86.5855
| 26> C 	 38.4529 	 9.60324 	 87.2632
| 27> C 	 39.5897 	 10.2854 	 86.7494
| 28> H 	 37.0388 	 7.92263 	 86.7707
| 29> C 	 37.7181 	 10.2598 	 88.4145
| 30> H 	 38.4023 	 10.6967 	 89.0897
| 31> H 	 37.1724 	 9.61187 	 89.0011
| 32> C 	 36.6503 	 11.2621 	 87.9602
| 33> H 	 37.1952 	 12.0367 	 87.5059
| 34> H 	 36.0717 	 11.6498 	 88.787
| 35> C 	 35.7057 	 10.7378 	 86.7685
| 36> H 	 35.0368 	 9.91268 	 87.0461
| 37> H 	 36.1654 	 10.4111 	 85.8638
| 38> H 	 35.0277 	 11.4204 	 86.4055
| 39> H 	 42.4445 	 13.7416 	 89.0315
| 40> H 	 38.5383 	 7.44786 	 84.6687
| 41> *
| 42>
| 43>                          ****END OF INPUT****

CARTESIAN COORDINATES (ANGSTROEM)
---------------------------------
  S     41.138300   11.637900   88.855200
  C     41.928300   13.023400   88.392600
  C     41.727200   13.381400   87.117000
  C     41.014800   12.339900   86.406700
  C     40.499800   11.356800   87.215000
  H     40.778400   12.324500   85.406300
  C     42.363200   14.605900   86.469900
  H     43.080600   14.223600   85.695500
  H     42.933500   15.159400   87.157400
  C     41.413700   15.666400   85.890100
  H     40.696200   16.047200   86.615100
  H     41.912100   16.523500   85.614900
  C     40.674300   15.169800   84.662100
  H     40.278500   16.024800   84.038400
  H     41.366500   14.545100   84.084900
  H     39.752600   14.634100   84.889100
  S     40.134500    9.289310   85.365700
  C     38.737600    8.184140   85.442000
  C     37.955700    8.496430   86.585500
  C     38.452900    9.603240   87.263200
  C     39.589700   10.285400   86.749400
  H     37.038800    7.922630   86.770700
  C     37.718100   10.259800   88.414500
  H     38.402300   10.696700   89.089700
  H     37.172400    9.611870   89.001100
  C     36.650300   11.262100   87.960200
  H     37.195200   12.036700   87.505900
  H     36.071700   11.649800   88.787000
  C     35.705700   10.737800   86.768500
  H     35.036800    9.912680   87.046100
  H     36.165400   10.411100   85.863800
  H     35.027700   11.420400   86.405500
  H     42.444500   13.741600   89.031500
  H     38.538300    7.447860   84.668700

 Total Charge           Charge          ....    0
 Multiplicity           Mult            ....    1
 Number of Electrons    NEL             ....  134
 Basis Dimension        Dim             ....  322

ORBITAL ENERGIES
----------------

  NO   OCC          E(Eh)            E(eV)
   0   2.0000     -88.967620     -2420.9320
   1   2.0000     -88.965403     -2420.8717
   2   2.0000     -10.335714      -281.2491
   3   2.0000     -10.335227      -281.2358
   4   2.0000     -10.327243      -281.0186
   5   2.0000     -10.306399      -280.4514
   6   2.0000     -10.304910      -280.4109
   7   2.0000     -10.300699      -280.2963
   8   2.0000     -10.297265      -280.2028
   9   2.0000     -10.293465      -280.0994
  10   2.0000     -10.290466      -280.0178
  11   2.0000     -10.282122      -279.7908
  12   2.0000     -10.278256      -279.6856
  13   2.0000     -10.277813      -279.6735
  14   2.0000     -10.274367      -279.5797
  15   2.0000     -10.266697      -279.3710
  16   2.0000      -8.083224      -219.9557
  17   2.0000      -8.078781      -219.8348
  18   2.0000      -6.041767      -164.4048
  19   2.0000      -6.037550      -164.2901
  20   2.0000      -6.037247      -164.2818
  21   2.0000      -6.033924      -164.1914
  22   2.0000      -6.033254      -164.1732
  23   2.0000      -6.029882      -164.0814
  24   2.0000      -1.010701       -27.5026
  25   2.0000      -0.984190       -26.7812
  26   2.0000      -0.913525       -24.8583
  27   2.0000      -0.903267       -24.5791
  28   2.0000      -0.875388       -23.8205
  29   2.0000      -0.850093       -23.1322
  30   2.0000      -0.835599       -22.7378
  31   2.0000      -0.818635       -22.2762
  32   2.0000      -0.786661       -21.4061
  33   2.0000      -0.774523       -21.0758
  34   2.0000      -0.709460       -19.3054
  35   2.0000      -0.702159       -19.1067
  36   2.0000      -0.693936       -18.8830
  37   2.0000      -0.667488       -18.1633
  38   2.0000      -0.647605       -17.6222
  39   2.0000      -0.616178       -16.7670
  40   2.0000      -0.593700       -16.1554
  41   2.0000      -0.578857       -15.7515
  42   2.0000      -0.557985       -15.1835
  43   2.0000      -0.551286       -15.0013
  44   2.0000      -0.546566       -14.8728
  45   2.0000      -0.536928       -14.6105
  46   2.0000      -0.516985       -14.0679
  47   2.0000      -0.511202       -13.9105
  48   2.0000      -0.503045       -13.6885
  49   2.0000      -0.494571       -13.4580
  50   2.0000      -0.488122       -13.2825
  51   2.0000      -0.480498       -13.0750
  52   2.0000      -0.472585       -12.8597
  53   2.0000      -0.462927       -12.5969
  54   2.0000      -0.461420       -12.5559
  55   2.0000      -0.443145       -12.0586
  56   2.0000      -0.441478       -12.0132
  57   2.0000      -0.439842       -11.9687
  58   2.0000      -0.433446       -11.7947
  59   2.0000      -0.428968       -11.6728
  60   2.0000      -0.414876       -11.2893
  61   2.0000      -0.414373       -11.2757
  62   2.0000      -0.407473       -11.0879
  63   2.0000      -0.352764        -9.5992
  64   2.0000      -0.332841        -9.0571
  65   2.0000      -0.328225        -8.9315
  66   2.0000      -0.291766        -7.9394
  67   0.0000       0.023699         0.6449
  68   0.0000       0.071194         1.9373
  69   0.0000       0.107365         2.9216
  70   0.0000       0.119060         3.2398
  71   0.0000       0.133639         3.6365

MULLIKEN ATOMIC CHARGES
-----------------------
   0 S :    0.127465
   1 C :   -0.103684
   2 C :   -0.079423
   3 C :    0.033585
   4 C :   -0.107315
   5 H :   -0.020333
   6 C :    0.057446
   7 H :    0.049261
   8 H :   -0.002522
   9 C :   -0.025619
  10 H :    0.022984
  11 H :    0.008490
  12 C :   -0.086799
  13 H :    0.034917
  14 H :    0.033126
  15 H :    0.041482
  16 S :    0.087645
  17 C :   -0.117492
  18 C :   -0.028336
  19 C :   -0.071190
  20 C :   -0.149737
  21 H :    0.035981
  22 C :    0.126336
  23 H :    0.004530
  24 H :   -0.009760
  25 C :   -0.029430
  26 H :    0.017414
  27 H :    0.034824
  28 C :   -0.055844
  29 H :    0.013766
  30 H :    0.034829
  31 H :    0.007106
  32 H :    0.047178
  33 H :    0.069122
Sum of atomic charges:   -0.0000000

LOEWDIN ATOMIC CHARGES
----------------------
   0 S :    0.429481
   1 C :   -0.217998
   2 C :   -0.068750
   3 C :   -0.044938
   4 C :   -0.188690
   5 H :    0.014572
   6 C :   -0.025380
   7 H :    0.039468
   8 H :    0.021319
   9 C :   -0.037752
  10 H :    0.027298
  11 H :    0.014562
  12 C :   -0.071820
  13 H :    0.031636
  14 H :    0.022259
  15 H :    0.024486
  16 S :    0.388611
  17 C :   -0.174838
  18 C :   -0.070094
  19 C :   -0.055955
  20 C :   -0.186511
  21 H :    0.040681
  22 C :   -0.026308
  23 H :    0.017078
  24 H :    0.015939
  25 C :   -0.018456
  26 H :    0.017397
  27 H :    0.024794
  28 C :   -0.070097
  29 H :    0.021295
  30 H :    0.025048
  31 H :    0.015308
  32 H :    0.035659
  33 H :    0.030696

  Mayer bond orders larger than 0.100000
B(  0-S ,  1-C ) :   1.1554 B(  0-S ,  4-C ) :   1.1186 B(  1-C ,  2-C ) :   1.6492
B(  1-C , 32-H ) :   0.9517 B(  2-C ,  3-C ) :   1.2172 B(  2-C ,  6-C ) :   1.0219
B(  3-C ,  4-C ) :   1.5714 B(  3-C ,  5-H ) :   1.0080 B(  4-C , 20-C ) :   1.0586
B(  6-C ,  7-H ) :   0.9449 B(  6-C ,  8-H ) :   0.9349 B(  6-C ,  9-C ) :   1.0811
B(  9-C , 10-H ) :   0.9487 B(  9-C , 11-H ) :   0.9545 B(  9-C , 12-C ) :   1.0830
B( 12-C , 13-H ) :   0.9709 B( 12-C , 14-H ) :   0.9739 B( 12-C , 15-H ) :   0.9730
B( 16-S , 17-C ) :   1.1857 B( 16-S , 20-C ) :   1.1330 B( 17-C , 18-C ) :   1.5302
B( 17-C , 20-C ) :   0.1246 B( 17-C , 33-H ) :   0.9687 B( 18-C , 19-C ) :   1.2929
B( 18-C , 21-H ) :   0.9920 B( 19-C , 20-C ) :   1.5297 B( 19-C , 22-C ) :   1.0576
B( 22-C , 23-H ) :   0.9310 B( 22-C , 24-H ) :   0.9283 B( 22-C , 25-C ) :   1.0658
B( 25-C , 26-H ) :   0.9560 B( 25-C , 27-H ) :   0.9607 B( 25-C , 28-C ) :   1.0690
B( 28-C , 29-H ) :   0.9751 B( 28-C , 30-H ) :   0.9689 B( 28-C , 31-H ) :   0.9728

Dispersion correction           -0.015124117
FINAL SINGLE POINT ENERGY     -1339.853982329776

DIPOLE MOMENT
-------------
                                X             Y             Z
Electronic contribution:     12.06135     -16.44817       5.48867
Nuclear contribution   :    -12.30555      16.89143      -5.58186
                        -----------------------------------------
Total Dipole Moment    :     -0.24421       0.44327      -0.09319
                        -----------------------------------------
Magnitude (a.u.)       :      0.51459
Magnitude (Debye)      :      1.30799

Rotational constants in cm-1:     0.019708     0.008123     0.008060
Rotational constants in MHz :   590.817054   243.526696   241.626767

                             ****ORCA TERMINATED NORMALLY****
TOTAL RUN TIME: 0 days 0 hours 0 minutes 31 seconds 411 msec
