                         Program Version 4.2.1 -  RELEASE  -
|  1> ! wB97X-D3 SP def2-SVP
|  2> %pal
|  3> nprocs 16
|  4> end
|  5>
|  6> * xyz 0 1
|  7> S 	 -41.8952 	 -2.83804 	 97.5554
|  8> C 	 -41.2248 	 -4.29275 	 96.9824
|  9> C 	 -41.6614 	 -4.66823 	 95.7547
| 10> C 	 -42.8023 	 -3.90319 	 95.4314
| 11> C 	 -42.9585 	 -2.78853 	 96.2092
| 12> H 	 -43.3783 	 -3.92067 	 94.5574
| 13> C 	 -41.1617 	 -5.79203 	 94.9307
| 14> H 	 -40.325 	 -6.1438 	 95.5847
| 15> H 	 -40.6492 	 -5.33107 	 94.0366
| 16> C 	 -42.1964 	 -6.89129 	 94.7187
| 17> H 	 -41.6858 	 -7.85634 	 94.8231
| 18> H 	 -42.7357 	 -6.83423 	 95.6572
| 19> C 	 -42.9888 	 -6.7587 	 93.4157
| 20> H 	 -43.6403 	 -7.5326 	 93.2125
| 21> H 	 -43.54 	 -5.83908 	 93.3024
| 22> H 	 -42.2453 	 -6.69725 	 92.6041
| 23> S 	 -43.0572 	 -0.0483973 	 96.1428
| 24> C 	 -44.5486 	 0.797406 	 95.6888
| 25> C 	 -45.5736 	 -0.0741755 	 95.3796
| 26> C 	 -45.1236 	 -1.45582 	 95.3903
| 27> C 	 -43.811 	 -1.67789 	 95.841
| 28> H 	 -46.5572 	 0.332052 	 95.0821
| 29> C 	 -46.1461 	 -2.59022 	 95.4103
| 30> H 	 -46.4965 	 -2.62291 	 96.3812
| 31> H 	 -45.5633 	 -3.4546 	 95.3013
| 32> C 	 -47.0997 	 -2.44795 	 94.1965
| 33> H 	 -46.4196 	 -2.3528 	 93.3359
| 34> H 	 -47.7354 	 -1.53023 	 94.2656
| 35> C 	 -47.969 	 -3.69253 	 94.117
| 36> H 	 -47.3825 	 -4.63386 	 94.2659
| 37> H 	 -48.5306 	 -3.84326 	 93.1258
| 38> H 	 -48.677 	 -3.61189 	 94.8582
| 39> H 	 -40.3171 	 -4.81083 	 97.3827
| 40> H 	 -44.687 	 1.82058 	 95.8595
| 41> *
| 42>
| 43>                          ****END OF INPUT****

CARTESIAN COORDINATES (ANGSTROEM)
---------------------------------
  S    -41.895200   -2.838040   97.555400
  C    -41.224800   -4.292750   96.982400
  C    -41.661400   -4.668230   95.754700
  C    -42.802300   -3.903190   95.431400
  C    -42.958500   -2.788530   96.209200
  H    -43.378300   -3.920670   94.557400
  C    -41.161700   -5.792030   94.930700
  H    -40.325000   -6.143800   95.584700
  H    -40.649200   -5.331070   94.036600
  C    -42.196400   -6.891290   94.718700
  H    -41.685800   -7.856340   94.823100
  H    -42.735700   -6.834230   95.657200
  C    -42.988800   -6.758700   93.415700
  H    -43.640300   -7.532600   93.212500
  H    -43.540000   -5.839080   93.302400
  H    -42.245300   -6.697250   92.604100
  S    -43.057200   -0.048397   96.142800
  C    -44.548600    0.797406   95.688800
  C    -45.573600   -0.074176   95.379600
  C    -45.123600   -1.455820   95.390300
  C    -43.811000   -1.677890   95.841000
  H    -46.557200    0.332052   95.082100
  C    -46.146100   -2.590220   95.410300
  H    -46.496500   -2.622910   96.381200
  H    -45.563300   -3.454600   95.301300
  C    -47.099700   -2.447950   94.196500
  H    -46.419600   -2.352800   93.335900
  H    -47.735400   -1.530230   94.265600
  C    -47.969000   -3.692530   94.117000
  H    -47.382500   -4.633860   94.265900
  H    -48.530600   -3.843260   93.125800
  H    -48.677000   -3.611890   94.858200
  H    -40.317100   -4.810830   97.382700
  H    -44.687000    1.820580   95.859500

 Total Charge           Charge          ....    0
 Multiplicity           Mult            ....    1
 Number of Electrons    NEL             ....  134
 Basis Dimension        Dim             ....  322

ORBITAL ENERGIES
----------------

  NO   OCC          E(Eh)            E(eV)
   0   2.0000     -88.969342     -2420.9789
   1   2.0000     -88.959368     -2420.7075
   2   2.0000     -10.332704      -281.1672
   3   2.0000     -10.325324      -280.9663
   4   2.0000     -10.315438      -280.6973
   5   2.0000     -10.308899      -280.5194
   6   2.0000     -10.305514      -280.4273
   7   2.0000     -10.299268      -280.2573
   8   2.0000     -10.295404      -280.1522
   9   2.0000     -10.292680      -280.0781
  10   2.0000     -10.291463      -280.0449
  11   2.0000     -10.290028      -280.0059
  12   2.0000     -10.283250      -279.8215
  13   2.0000     -10.279083      -279.7081
  14   2.0000     -10.278254      -279.6855
  15   2.0000     -10.278161      -279.6830
  16   2.0000      -8.085350      -220.0136
  17   2.0000      -8.073140      -219.6813
  18   2.0000      -6.043769      -164.4593
  19   2.0000      -6.039715      -164.3490
  20   2.0000      -6.036077      -164.2500
  21   2.0000      -6.031800      -164.1336
  22   2.0000      -6.027774      -164.0241
  23   2.0000      -6.023817      -163.9164
  24   2.0000      -1.017190       -27.6791
  25   2.0000      -0.978998       -26.6399
  26   2.0000      -0.921325       -25.0705
  27   2.0000      -0.909238       -24.7416
  28   2.0000      -0.874275       -23.7902
  29   2.0000      -0.855822       -23.2881
  30   2.0000      -0.842894       -22.9363
  31   2.0000      -0.819710       -22.3054
  32   2.0000      -0.786345       -21.3975
  33   2.0000      -0.768773       -20.9194
  34   2.0000      -0.713752       -19.4222
  35   2.0000      -0.703938       -19.1551
  36   2.0000      -0.700134       -19.0516
  37   2.0000      -0.658494       -17.9185
  38   2.0000      -0.641786       -17.4639
  39   2.0000      -0.621726       -16.9180
  40   2.0000      -0.590808       -16.0767
  41   2.0000      -0.575655       -15.6644
  42   2.0000      -0.573134       -15.5958
  43   2.0000      -0.550612       -14.9829
  44   2.0000      -0.541269       -14.7287
  45   2.0000      -0.524732       -14.2787
  46   2.0000      -0.518142       -14.0994
  47   2.0000      -0.511670       -13.9232
  48   2.0000      -0.504649       -13.7322
  49   2.0000      -0.502034       -13.6611
  50   2.0000      -0.490136       -13.3373
  51   2.0000      -0.484718       -13.1898
  52   2.0000      -0.473149       -12.8750
  53   2.0000      -0.466337       -12.6897
  54   2.0000      -0.458722       -12.4825
  55   2.0000      -0.448233       -12.1971
  56   2.0000      -0.446299       -12.1444
  57   2.0000      -0.439339       -11.9550
  58   2.0000      -0.432883       -11.7794
  59   2.0000      -0.430604       -11.7173
  60   2.0000      -0.427828       -11.6418
  61   2.0000      -0.415427       -11.3043
  62   2.0000      -0.401810       -10.9338
  63   2.0000      -0.355111        -9.6631
  64   2.0000      -0.332860        -9.0576
  65   2.0000      -0.327387        -8.9087
  66   2.0000      -0.286012        -7.7828
  67   0.0000       0.026415         0.7188
  68   0.0000       0.072614         1.9759
  69   0.0000       0.115398         3.1401
  70   0.0000       0.123414         3.3583
  71   0.0000       0.123914         3.3719

MULLIKEN ATOMIC CHARGES
-----------------------
   0 S :    0.140671
   1 C :   -0.116994
   2 C :   -0.136788
   3 C :    0.044236
   4 C :   -0.142373
   5 H :   -0.011300
   6 C :    0.049316
   7 H :    0.009835
   8 H :    0.050629
   9 C :   -0.045208
  10 H :    0.029988
  11 H :    0.028645
  12 C :    0.000798
  13 H :    0.024890
  14 H :    0.022522
  15 H :    0.025059
  16 S :    0.060975
  17 C :   -0.067840
  18 C :   -0.041880
  19 C :   -0.073163
  20 C :   -0.146351
  21 H :    0.038797
  22 C :    0.109475
  23 H :    0.029662
  24 H :   -0.015634
  25 C :   -0.105733
  26 H :    0.036108
  27 H :    0.042100
  28 C :   -0.026578
  29 H :    0.032377
  30 H :    0.040800
  31 H :    0.014569
  32 H :    0.054642
  33 H :    0.043750
Sum of atomic charges:   -0.0000000

LOEWDIN ATOMIC CHARGES
----------------------
   0 S :    0.440158
   1 C :   -0.223498
   2 C :   -0.068824
   3 C :   -0.058125
   4 C :   -0.207657
   5 H :    0.018026
   6 C :   -0.037153
   7 H :    0.034045
   8 H :    0.039433
   9 C :   -0.039919
  10 H :    0.029258
  11 H :    0.027863
  12 C :   -0.055653
  13 H :    0.017431
  14 H :    0.023522
  15 H :    0.031252
  16 S :    0.354495
  17 C :   -0.164366
  18 C :   -0.073505
  19 C :   -0.059183
  20 C :   -0.167561
  21 H :    0.038386
  22 C :   -0.018239
  23 H :    0.024717
  24 H :    0.019592
  25 C :   -0.039346
  26 H :    0.027679
  27 H :    0.026412
  28 C :   -0.067276
  29 H :    0.028376
  30 H :    0.032302
  31 H :    0.012954
  32 H :    0.036092
  33 H :    0.018312

  Mayer bond orders larger than 0.100000
B(  0-S ,  1-C ) :   1.1360 B(  0-S ,  4-C ) :   1.1519 B(  1-C ,  2-C ) :   1.6340
B(  1-C , 32-H ) :   0.9463 B(  2-C ,  3-C ) :   1.2330 B(  2-C ,  6-C ) :   1.0389
B(  3-C ,  4-C ) :   1.5753 B(  3-C ,  5-H ) :   0.9877 B(  4-C , 20-C ) :   1.0696
B(  6-C ,  7-H ) :   0.9290 B(  6-C ,  8-H ) :   0.9315 B(  6-C ,  9-C ) :   1.0492
B(  9-C , 10-H ) :   0.9556 B(  9-C , 11-H ) :   0.9575 B(  9-C , 12-C ) :   1.0630
B( 12-C , 13-H ) :   0.9720 B( 12-C , 14-H ) :   0.9756 B( 12-C , 15-H ) :   0.9730
B( 16-S , 17-C ) :   1.1445 B( 16-S , 20-C ) :   1.1069 B( 17-C , 18-C ) :   1.6427
B( 17-C , 33-H ) :   0.9692 B( 18-C , 19-C ) :   1.2029 B( 18-C , 21-H ) :   0.9832
B( 19-C , 20-C ) :   1.6075 B( 19-C , 22-C ) :   1.0394 B( 22-C , 23-H ) :   0.9409
B( 22-C , 24-H ) :   0.9302 B( 22-C , 25-C ) :   1.0440 B( 25-C , 26-H ) :   0.9615
B( 25-C , 27-H ) :   0.9562 B( 25-C , 28-C ) :   1.0800 B( 28-C , 29-H ) :   0.9744
B( 28-C , 30-H ) :   0.9737 B( 28-C , 31-H ) :   0.9724

Dispersion correction           -0.014108062
FINAL SINGLE POINT ENERGY     -1339.852545073689

DIPOLE MOMENT
-------------
                                X             Y             Z
Electronic contribution:     14.42177      21.07640      16.13192
Nuclear contribution   :    -14.70339     -21.53905     -16.41239
                        -----------------------------------------
Total Dipole Moment    :     -0.28161      -0.46265      -0.28048
                        -----------------------------------------
Magnitude (a.u.)       :      0.60993
Magnitude (Debye)      :      1.55032

Rotational constants in cm-1:     0.015929     0.010167     0.006728
Rotational constants in MHz :   477.548792   304.811252   201.693747

                             ****ORCA TERMINATED NORMALLY****
TOTAL RUN TIME: 0 days 0 hours 0 minutes 30 seconds 391 msec
