                         Program Version 4.2.1 -  RELEASE  -
|  1> ! wB97X-D3 SP def2-SVP
|  2> %pal
|  3> nprocs 16
|  4> end
|  5>
|  6> * xyz 0 1
|  7> S 	 19.549 	 32.7142 	 56.2355
|  8> C 	 17.966 	 33.04 	 56.8862
|  9> C 	 18.0449 	 33.9394 	 57.9593
| 10> C 	 19.353 	 34.4308 	 58.1355
| 11> C 	 20.3121 	 33.8409 	 57.309
| 12> H 	 19.6761 	 35.1811 	 58.8605
| 13> C 	 16.783 	 34.5396 	 58.5892
| 14> H 	 16.0699 	 33.7453 	 58.9202
| 15> H 	 16.1949 	 35.2013 	 57.9785
| 16> C 	 17.0087 	 35.2602 	 59.9476
| 17> H 	 17.4314 	 34.5044 	 60.6433
| 18> H 	 17.6955 	 36.0581 	 59.8321
| 19> C 	 15.7101 	 35.7345 	 60.5782
| 20> H 	 15.8812 	 36.1487 	 61.6088
| 21> H 	 15.1915 	 36.5215 	 59.9875
| 22> H 	 15.0268 	 34.8714 	 60.732
| 23> S 	 22.7622 	 32.7834 	 57.4308
| 24> C 	 24.1279 	 33.7625 	 57.1002
| 25> C 	 23.8579 	 35.0642 	 56.9462
| 26> C 	 22.4487 	 35.372 	 57.0112
| 27> C 	 21.7207 	 34.1943 	 57.1926
| 28> H 	 24.7106 	 35.7569 	 56.7866
| 29> C 	 21.8812 	 36.8128 	 56.9005
| 30> H 	 22.6702 	 37.5669 	 57.133
| 31> H 	 20.9899 	 36.9925 	 57.5678
| 32> C 	 21.5927 	 37.1281 	 55.3585
| 33> H 	 20.8761 	 36.4493 	 55.0071
| 34> H 	 22.4715 	 37.0376 	 54.7675
| 35> C 	 21.0401 	 38.5667 	 55.0896
| 36> H 	 20.2165 	 38.9056 	 55.812
| 37> H 	 20.5554 	 38.5775 	 54.0683
| 38> H 	 21.8898 	 39.2546 	 55.1387
| 39> H 	 17.0582 	 32.6171 	 56.5386
| 40> H 	 25.1619 	 33.428 	 56.9732
| 41> *
| 42>
| 43>                          ****END OF INPUT****

CARTESIAN COORDINATES (ANGSTROEM)
---------------------------------
  S     19.549000   32.714200   56.235500
  C     17.966000   33.040000   56.886200
  C     18.044900   33.939400   57.959300
  C     19.353000   34.430800   58.135500
  C     20.312100   33.840900   57.309000
  H     19.676100   35.181100   58.860500
  C     16.783000   34.539600   58.589200
  H     16.069900   33.745300   58.920200
  H     16.194900   35.201300   57.978500
  C     17.008700   35.260200   59.947600
  H     17.431400   34.504400   60.643300
  H     17.695500   36.058100   59.832100
  C     15.710100   35.734500   60.578200
  H     15.881200   36.148700   61.608800
  H     15.191500   36.521500   59.987500
  H     15.026800   34.871400   60.732000
  S     22.762200   32.783400   57.430800
  C     24.127900   33.762500   57.100200
  C     23.857900   35.064200   56.946200
  C     22.448700   35.372000   57.011200
  C     21.720700   34.194300   57.192600
  H     24.710600   35.756900   56.786600
  C     21.881200   36.812800   56.900500
  H     22.670200   37.566900   57.133000
  H     20.989900   36.992500   57.567800
  C     21.592700   37.128100   55.358500
  H     20.876100   36.449300   55.007100
  H     22.471500   37.037600   54.767500
  C     21.040100   38.566700   55.089600
  H     20.216500   38.905600   55.812000
  H     20.555400   38.577500   54.068300
  H     21.889800   39.254600   55.138700
  H     17.058200   32.617100   56.538600
  H     25.161900   33.428000   56.973200

 Total Charge           Charge          ....    0
 Multiplicity           Mult            ....    1
 Number of Electrons    NEL             ....  134
 Basis Dimension        Dim             ....  322

ORBITAL ENERGIES
----------------

  NO   OCC          E(Eh)            E(eV)
   0   2.0000     -88.969428     -2420.9812
   1   2.0000     -88.963333     -2420.8154
   2   2.0000     -10.327595      -281.0281
   3   2.0000     -10.327344      -281.0213
   4   2.0000     -10.313428      -280.6426
   5   2.0000     -10.311684      -280.5952
   6   2.0000     -10.308398      -280.5058
   7   2.0000     -10.306668      -280.4587
   8   2.0000     -10.303436      -280.3708
   9   2.0000     -10.294666      -280.1321
  10   2.0000     -10.294431      -280.1257
  11   2.0000     -10.291551      -280.0473
  12   2.0000     -10.287530      -279.9379
  13   2.0000     -10.286347      -279.9057
  14   2.0000     -10.284928      -279.8671
  15   2.0000     -10.282223      -279.7935
  16   2.0000      -8.084188      -219.9819
  17   2.0000      -8.078776      -219.8347
  18   2.0000      -6.042530      -164.4256
  19   2.0000      -6.038511      -164.3162
  20   2.0000      -6.037254      -164.2820
  21   2.0000      -6.035299      -164.2288
  22   2.0000      -6.033309      -164.1747
  23   2.0000      -6.029390      -164.0681
  24   2.0000      -1.008590       -27.4451
  25   2.0000      -0.986491       -26.8438
  26   2.0000      -0.910923       -24.7875
  27   2.0000      -0.897454       -24.4210
  28   2.0000      -0.871175       -23.7059
  29   2.0000      -0.849063       -23.1042
  30   2.0000      -0.844449       -22.9786
  31   2.0000      -0.813770       -22.1438
  32   2.0000      -0.778416       -21.1818
  33   2.0000      -0.766861       -20.8673
  34   2.0000      -0.708871       -19.2894
  35   2.0000      -0.692930       -18.8556
  36   2.0000      -0.686711       -18.6864
  37   2.0000      -0.656176       -17.8555
  38   2.0000      -0.642875       -17.4935
  39   2.0000      -0.620459       -16.8835
  40   2.0000      -0.592350       -16.1187
  41   2.0000      -0.574616       -15.6361
  42   2.0000      -0.568699       -15.4751
  43   2.0000      -0.562198       -15.2982
  44   2.0000      -0.521986       -14.2040
  45   2.0000      -0.513758       -13.9801
  46   2.0000      -0.506336       -13.7781
  47   2.0000      -0.503890       -13.7115
  48   2.0000      -0.500271       -13.6131
  49   2.0000      -0.499058       -13.5801
  50   2.0000      -0.494386       -13.4529
  51   2.0000      -0.481483       -13.1018
  52   2.0000      -0.470796       -12.8110
  53   2.0000      -0.469356       -12.7718
  54   2.0000      -0.456515       -12.4224
  55   2.0000      -0.453069       -12.3286
  56   2.0000      -0.443810       -12.0767
  57   2.0000      -0.435851       -11.8601
  58   2.0000      -0.428111       -11.6495
  59   2.0000      -0.427561       -11.6345
  60   2.0000      -0.422405       -11.4942
  61   2.0000      -0.418853       -11.3976
  62   2.0000      -0.412812       -11.2332
  63   2.0000      -0.342248        -9.3130
  64   2.0000      -0.334661        -9.1066
  65   2.0000      -0.329765        -8.9734
  66   2.0000      -0.293866        -7.9965
  67   0.0000       0.033112         0.9010
  68   0.0000       0.066731         1.8158
  69   0.0000       0.110461         3.0058
  70   0.0000       0.123507         3.3608
  71   0.0000       0.135222         3.6796

MULLIKEN ATOMIC CHARGES
-----------------------
   0 S :    0.132833
   1 C :   -0.109652
   2 C :   -0.043192
   3 C :    0.011054
   4 C :   -0.145086
   5 H :    0.021121
   6 C :    0.031242
   7 H :    0.025147
   8 H :    0.037384
   9 C :   -0.102676
  10 H :    0.038289
  11 H :    0.027389
  12 C :   -0.069778
  13 H :    0.042005
  14 H :    0.038807
  15 H :    0.032763
  16 S :    0.107494
  17 C :   -0.069764
  18 C :   -0.068387
  19 C :    0.004684
  20 C :   -0.199178
  21 H :    0.028814
  22 C :    0.040309
  23 H :    0.027330
  24 H :    0.043894
  25 C :   -0.060599
  26 H :    0.027428
  27 H :    0.026231
  28 C :   -0.088820
  29 H :    0.041711
  30 H :    0.047219
  31 H :    0.036893
  32 H :    0.035646
  33 H :    0.051443
Sum of atomic charges:    0.0000000

LOEWDIN ATOMIC CHARGES
----------------------
   0 S :    0.430915
   1 C :   -0.190941
   2 C :   -0.066634
   3 C :   -0.065087
   4 C :   -0.214615
   5 H :    0.033351
   6 C :   -0.033329
   7 H :    0.034364
   8 H :    0.026639
   9 C :   -0.045119
  10 H :    0.030035
  11 H :    0.012329
  12 C :   -0.071857
  13 H :    0.032622
  14 H :    0.025877
  15 H :    0.026525
  16 S :    0.409434
  17 C :   -0.198038
  18 C :   -0.081641
  19 C :   -0.049401
  20 C :   -0.192387
  21 H :    0.038739
  22 C :   -0.030140
  23 H :    0.033101
  24 H :    0.034724
  25 C :   -0.031279
  26 H :    0.016208
  27 H :    0.021466
  28 C :   -0.076931
  29 H :    0.029955
  30 H :    0.033933
  31 H :    0.021613
  32 H :    0.022226
  33 H :    0.033344

  Mayer bond orders larger than 0.100000
B(  0-S ,  1-C ) :   1.1647 B(  0-S ,  4-C ) :   1.1707 B(  1-C ,  2-C ) :   1.5654
B(  1-C ,  4-C ) :   0.1126 B(  1-C , 32-H ) :   0.9791 B(  2-C ,  3-C ) :   1.2799
B(  2-C ,  6-C ) :   1.0105 B(  3-C ,  4-C ) :   1.5418 B(  3-C ,  5-H ) :   0.9931
B(  4-C , 20-C ) :   1.0199 B(  6-C ,  7-H ) :   0.9431 B(  6-C ,  8-H ) :   0.9503
B(  6-C ,  9-C ) :   1.0652 B(  9-C , 10-H ) :   0.9595 B(  9-C , 11-H ) :   0.9486
B(  9-C , 12-C ) :   1.0917 B( 12-C , 13-H ) :   0.9717 B( 12-C , 14-H ) :   0.9736
B( 12-C , 15-H ) :   0.9723 B( 16-S , 17-C ) :   1.1376 B( 16-S , 20-C ) :   1.1482
B( 17-C , 18-C ) :   1.6715 B( 17-C , 33-H ) :   0.9582 B( 18-C , 19-C ) :   1.2059
B( 18-C , 21-H ) :   0.9813 B( 19-C , 20-C ) :   1.6181 B( 19-C , 22-C ) :   1.0395
B( 22-C , 23-H ) :   0.9394 B( 22-C , 24-H ) :   0.9441 B( 22-C , 25-C ) :   1.0512
B( 25-C , 26-H ) :   0.9636 B( 25-C , 27-H ) :   0.9590 B( 25-C , 28-C ) :   1.0755
B( 28-C , 29-H ) :   0.9757 B( 28-C , 30-H ) :   0.9751 B( 28-C , 31-H ) :   0.9783

Dispersion correction           -0.013560167
FINAL SINGLE POINT ENERGY     -1339.883869537003

DIPOLE MOMENT
-------------
                                X             Y             Z
Electronic contribution:     15.28062     -24.28374      -5.78015
Nuclear contribution   :    -15.44428      24.84986       5.83003
                        -----------------------------------------
Total Dipole Moment    :     -0.16366       0.56612       0.04988
                        -----------------------------------------
Magnitude (a.u.)       :      0.59141
Magnitude (Debye)      :      1.50325

Rotational constants in cm-1:     0.016726     0.008375     0.006813
Rotational constants in MHz :   501.432598   251.078353   204.242116

                             ****ORCA TERMINATED NORMALLY****
TOTAL RUN TIME: 0 days 0 hours 0 minutes 33 seconds 764 msec
