                         Program Version 4.2.1 -  RELEASE  -
|  1> ! wB97X-D3 SP def2-SVP
|  2> %pal
|  3> nprocs 16
|  4> end
|  5>
|  6> * xyz 0 1
|  7> S 	 11.8675 	 -15.0163 	 78.7313
|  8> C 	 11.3011 	 -16.7035 	 78.806
|  9> C 	 10.3259 	 -16.806 	 77.8289
| 10> C 	 10.1218 	 -15.6105 	 77.0713
| 11> C 	 10.9696 	 -14.6113 	 77.3486
| 12> H 	 9.31881 	 -15.5586 	 76.352
| 13> C 	 9.35666 	 -18.0095 	 77.6573
| 14> H 	 9.78651 	 -18.8929 	 77.1547
| 15> H 	 8.53292 	 -17.6646 	 77.0841
| 16> C 	 8.76261 	 -18.588 	 78.9103
| 17> H 	 9.59794 	 -19.1347 	 79.3983
| 18> H 	 8.57684 	 -17.6989 	 79.4317
| 19> C 	 7.54323 	 -19.5674 	 78.7628
| 20> H 	 7.71139 	 -20.3312 	 77.9707
| 21> H 	 7.35578 	 -20.1936 	 79.6028
| 22> H 	 6.67255 	 -18.9757 	 78.4604
| 23> S 	 10.9374 	 -11.8921 	 77.5914
| 24> C 	 11.3022 	 -10.8939 	 76.1698
| 25> C 	 11.3296 	 -11.6862 	 75.0503
| 26> C 	 11.3536 	 -13.0687 	 75.3436
| 27> C 	 11.0532 	 -13.3177 	 76.6677
| 28> H 	 11.449 	 -11.253 	 74.0614
| 29> C 	 11.5969 	 -14.1275 	 74.2193
| 30> H 	 10.688 	 -14.0606 	 73.4611
| 31> H 	 11.4515 	 -15.0316 	 74.7073
| 32> C 	 12.8456 	 -13.9719 	 73.304
| 33> H 	 13.7969 	 -13.9973 	 73.8862
| 34> H 	 12.7542 	 -12.9193 	 72.8356
| 35> C 	 12.7798 	 -15.1202 	 72.321
| 36> H 	 12.4849 	 -16.0984 	 72.7052
| 37> H 	 13.6802 	 -15.2843 	 71.7891
| 38> H 	 12.1205 	 -14.7166 	 71.4871
| 39> H 	 11.5127 	 -17.4842 	 79.5389
| 40> H 	 11.5351 	 -9.80979 	 76.1973
| 41> *
| 42>
| 43>                          ****END OF INPUT****

CARTESIAN COORDINATES (ANGSTROEM)
---------------------------------
  S     11.867500  -15.016300   78.731300
  C     11.301100  -16.703500   78.806000
  C     10.325900  -16.806000   77.828900
  C     10.121800  -15.610500   77.071300
  C     10.969600  -14.611300   77.348600
  H      9.318810  -15.558600   76.352000
  C      9.356660  -18.009500   77.657300
  H      9.786510  -18.892900   77.154700
  H      8.532920  -17.664600   77.084100
  C      8.762610  -18.588000   78.910300
  H      9.597940  -19.134700   79.398300
  H      8.576840  -17.698900   79.431700
  C      7.543230  -19.567400   78.762800
  H      7.711390  -20.331200   77.970700
  H      7.355780  -20.193600   79.602800
  H      6.672550  -18.975700   78.460400
  S     10.937400  -11.892100   77.591400
  C     11.302200  -10.893900   76.169800
  C     11.329600  -11.686200   75.050300
  C     11.353600  -13.068700   75.343600
  C     11.053200  -13.317700   76.667700
  H     11.449000  -11.253000   74.061400
  C     11.596900  -14.127500   74.219300
  H     10.688000  -14.060600   73.461100
  H     11.451500  -15.031600   74.707300
  C     12.845600  -13.971900   73.304000
  H     13.796900  -13.997300   73.886200
  H     12.754200  -12.919300   72.835600
  C     12.779800  -15.120200   72.321000
  H     12.484900  -16.098400   72.705200
  H     13.680200  -15.284300   71.789100
  H     12.120500  -14.716600   71.487100
  H     11.512700  -17.484200   79.538900
  H     11.535100   -9.809790   76.197300

 Total Charge           Charge          ....    0
 Multiplicity           Mult            ....    1
 Number of Electrons    NEL             ....  134
 Basis Dimension        Dim             ....  322

ORBITAL ENERGIES
----------------

  NO   OCC          E(Eh)            E(eV)
   0   2.0000     -88.966062     -2420.8896
   1   2.0000     -88.964791     -2420.8550
   2   2.0000     -10.324097      -280.9330
   3   2.0000     -10.323449      -280.9153
   4   2.0000     -10.320674      -280.8398
   5   2.0000     -10.319230      -280.8005
   6   2.0000     -10.302733      -280.3516
   7   2.0000     -10.301681      -280.3230
   8   2.0000     -10.298353      -280.2324
   9   2.0000     -10.296927      -280.1936
  10   2.0000     -10.292376      -280.0698
  11   2.0000     -10.288085      -279.9530
  12   2.0000     -10.287142      -279.9274
  13   2.0000     -10.284566      -279.8573
  14   2.0000     -10.282254      -279.7943
  15   2.0000     -10.279253      -279.7127
  16   2.0000      -8.081349      -219.9047
  17   2.0000      -8.079959      -219.8669
  18   2.0000      -6.039835      -164.3523
  19   2.0000      -6.038558      -164.3175
  20   2.0000      -6.035796      -164.2424
  21   2.0000      -6.034316      -164.2021
  22   2.0000      -6.032079      -164.1412
  23   2.0000      -6.030636      -164.1020
  24   2.0000      -1.015813       -27.6417
  25   2.0000      -0.990809       -26.9613
  26   2.0000      -0.913971       -24.8704
  27   2.0000      -0.905182       -24.6312
  28   2.0000      -0.870952       -23.6998
  29   2.0000      -0.852363       -23.1940
  30   2.0000      -0.842897       -22.9364
  31   2.0000      -0.817348       -22.2412
  32   2.0000      -0.783832       -21.3292
  33   2.0000      -0.770300       -20.9609
  34   2.0000      -0.707446       -19.2506
  35   2.0000      -0.698908       -19.0182
  36   2.0000      -0.692913       -18.8551
  37   2.0000      -0.658642       -17.9226
  38   2.0000      -0.640029       -17.4161
  39   2.0000      -0.620824       -16.8935
  40   2.0000      -0.595041       -16.1919
  41   2.0000      -0.574406       -15.6304
  42   2.0000      -0.570826       -15.5330
  43   2.0000      -0.563104       -15.3229
  44   2.0000      -0.528733       -14.3876
  45   2.0000      -0.523055       -14.2330
  46   2.0000      -0.516832       -14.0637
  47   2.0000      -0.514429       -13.9983
  48   2.0000      -0.505626       -13.7588
  49   2.0000      -0.495114       -13.4727
  50   2.0000      -0.494094       -13.4450
  51   2.0000      -0.484082       -13.1726
  52   2.0000      -0.472422       -12.8552
  53   2.0000      -0.471156       -12.8208
  54   2.0000      -0.455012       -12.3815
  55   2.0000      -0.451060       -12.2740
  56   2.0000      -0.445123       -12.1124
  57   2.0000      -0.438008       -11.9188
  58   2.0000      -0.425234       -11.5712
  59   2.0000      -0.420782       -11.4501
  60   2.0000      -0.418339       -11.3836
  61   2.0000      -0.412751       -11.2315
  62   2.0000      -0.408237       -11.1087
  63   2.0000      -0.344836        -9.3835
  64   2.0000      -0.332081        -9.0364
  65   2.0000      -0.328918        -8.9503
  66   2.0000      -0.300420        -8.1748
  67   0.0000       0.033654         0.9158
  68   0.0000       0.072059         1.9608
  69   0.0000       0.109201         2.9715
  70   0.0000       0.119456         3.2506
  71   0.0000       0.137219         3.7339

MULLIKEN ATOMIC CHARGES
-----------------------
   0 S :    0.107923
   1 C :   -0.123524
   2 C :   -0.107262
   3 C :    0.029060
   4 C :   -0.134227
   5 H :    0.009983
   6 C :    0.082438
   7 H :    0.033935
   8 H :    0.002556
   9 C :   -0.107684
  10 H :    0.026842
  11 H :    0.025688
  12 C :   -0.036251
  13 H :    0.025234
  14 H :    0.034962
  15 H :    0.040474
  16 S :    0.110194
  17 C :   -0.121133
  18 C :   -0.021238
  19 C :   -0.023214
  20 C :   -0.156287
  21 H :    0.022006
  22 C :    0.038937
  23 H :    0.041266
  24 H :    0.005324
  25 C :   -0.095887
  26 H :    0.045484
  27 H :    0.044716
  28 C :   -0.033575
  29 H :    0.044709
  30 H :    0.019558
  31 H :    0.035530
  32 H :    0.058971
  33 H :    0.074491
Sum of atomic charges:    0.0000000

LOEWDIN ATOMIC CHARGES
----------------------
   0 S :    0.418584
   1 C :   -0.192255
   2 C :   -0.062957
   3 C :   -0.070088
   4 C :   -0.208430
   5 H :    0.030172
   6 C :   -0.031446
   7 H :    0.031189
   8 H :    0.019654
   9 C :   -0.044158
  10 H :    0.021392
  11 H :    0.016322
  12 C :   -0.063928
  13 H :    0.028879
  14 H :    0.025122
  15 H :    0.028644
  16 S :    0.414969
  17 C :   -0.182583
  18 C :   -0.069588
  19 C :   -0.056621
  20 C :   -0.215523
  21 H :    0.031591
  22 C :   -0.030429
  23 H :    0.042331
  24 H :    0.013696
  25 C :   -0.045953
  26 H :    0.026508
  27 H :    0.032866
  28 C :   -0.069573
  29 H :    0.029877
  30 H :    0.019018
  31 H :    0.037029
  32 H :    0.036955
  33 H :    0.038733

  Mayer bond orders larger than 0.100000
B(  0-S ,  1-C ) :   1.1286 B(  0-S ,  4-C ) :   1.1644 B(  1-C ,  2-C ) :   1.5985
B(  1-C , 32-H ) :   0.9735 B(  2-C ,  3-C ) :   1.2629 B(  2-C ,  6-C ) :   1.0142
B(  3-C ,  4-C ) :   1.5613 B(  3-C ,  5-H ) :   0.9991 B(  4-C , 20-C ) :   1.0061
B(  6-C ,  7-H ) :   0.9335 B(  6-C ,  8-H ) :   0.9482 B(  6-C ,  9-C ) :   1.0614
B(  9-C , 10-H ) :   0.9522 B(  9-C , 11-H ) :   0.9663 B(  9-C , 12-C ) :   1.0765
B( 12-C , 13-H ) :   0.9737 B( 12-C , 14-H ) :   0.9763 B( 12-C , 15-H ) :   0.9759
B( 16-S , 17-C ) :   1.1483 B( 16-S , 20-C ) :   1.1527 B( 17-C , 18-C ) :   1.6068
B( 17-C , 33-H ) :   0.9648 B( 18-C , 19-C ) :   1.2472 B( 18-C , 21-H ) :   0.9862
B( 19-C , 20-C ) :   1.6023 B( 19-C , 22-C ) :   1.0221 B( 22-C , 23-H ) :   0.9441
B( 22-C , 24-H ) :   0.9347 B( 22-C , 25-C ) :   1.0439 B( 25-C , 26-H ) :   0.9576
B( 25-C , 27-H ) :   0.9554 B( 25-C , 28-C ) :   1.0746 B( 28-C , 29-H ) :   0.9748
B( 28-C , 30-H ) :   0.9727 B( 28-C , 31-H ) :   0.9720

Dispersion correction           -0.013317810
FINAL SINGLE POINT ENERGY     -1339.857773299375

DIPOLE MOMENT
-------------
                                X             Y             Z
Electronic contribution:      6.70328      21.37107      14.97624
Nuclear contribution   :     -6.85830     -21.69968     -15.47980
                        -----------------------------------------
Total Dipole Moment    :     -0.15502      -0.32861      -0.50355
                        -----------------------------------------
Magnitude (a.u.)       :      0.62095
Magnitude (Debye)      :      1.57834

Rotational constants in cm-1:     0.018903     0.007513     0.006106
Rotational constants in MHz :   566.701488   225.239437   183.064260

                             ****ORCA TERMINATED NORMALLY****
TOTAL RUN TIME: 0 days 0 hours 0 minutes 27 seconds 502 msec
