                         Program Version 4.2.1 -  RELEASE  -
|  1> ! wB97X-D3 SP def2-SVP
|  2> %pal
|  3> nprocs 16
|  4> end
|  5>
|  6> * xyz 0 1
|  7> S 	 -85.5481 	 48.6757 	 130.563
|  8> C 	 -87.2883 	 48.7255 	 130.748
|  9> C 	 -87.9039 	 49.6147 	 129.867
| 10> C 	 -86.8739 	 50.5583 	 129.385
| 11> C 	 -85.571 	 50.1152 	 129.516
| 12> H 	 -87.0517 	 51.4342 	 128.791
| 13> C 	 -89.3935 	 49.8191 	 129.727
| 14> H 	 -89.8218 	 48.8601 	 129.678
| 15> H 	 -89.608 	 50.3527 	 128.85
| 16> C 	 -90.058 	 50.719 	 130.809
| 17> H 	 -91.1355 	 50.7026 	 130.535
| 18> H 	 -90.0477 	 50.2739 	 131.766
| 19> C 	 -89.5065 	 52.1698 	 130.796
| 20> H 	 -89.9199 	 52.6799 	 131.611
| 21> H 	 -88.4759 	 52.0435 	 131.112
| 22> H 	 -89.5737 	 52.8154 	 129.883
| 23> S 	 -83.3794 	 49.8843 	 127.784
| 24> C 	 -82.2309 	 51.2136 	 127.631
| 25> C 	 -82.5887 	 52.1925 	 128.52
| 26> C 	 -83.8333 	 52.0203 	 129.253
| 27> C 	 -84.3818 	 50.7848 	 128.975
| 28> H 	 -82.0404 	 53.0754 	 128.714
| 29> C 	 -84.427 	 53.0853 	 130.119
| 30> H 	 -85.3159 	 52.7042 	 130.533
| 31> H 	 -84.7138 	 53.9057 	 129.49
| 32> C 	 -83.5407 	 53.718 	 131.282
| 33> H 	 -83.9972 	 54.4587 	 131.913
| 34> H 	 -82.7495 	 54.2226 	 130.72
| 35> C 	 -82.7769 	 52.6866 	 132.166
| 36> H 	 -82.1915 	 53.0627 	 132.957
| 37> H 	 -82.0496 	 52.1263 	 131.607
| 38> H 	 -83.4869 	 51.8962 	 132.401
| 39> H 	 -87.9284 	 47.9331 	 131.304
| 40> H 	 -81.5448 	 51.3306 	 126.873
| 41> *
| 42>
| 43>                          ****END OF INPUT****

CARTESIAN COORDINATES (ANGSTROEM)
---------------------------------
  S    -85.548100   48.675700  130.563000
  C    -87.288300   48.725500  130.748000
  C    -87.903900   49.614700  129.867000
  C    -86.873900   50.558300  129.385000
  C    -85.571000   50.115200  129.516000
  H    -87.051700   51.434200  128.791000
  C    -89.393500   49.819100  129.727000
  H    -89.821800   48.860100  129.678000
  H    -89.608000   50.352700  128.850000
  C    -90.058000   50.719000  130.809000
  H    -91.135500   50.702600  130.535000
  H    -90.047700   50.273900  131.766000
  C    -89.506500   52.169800  130.796000
  H    -89.919900   52.679900  131.611000
  H    -88.475900   52.043500  131.112000
  H    -89.573700   52.815400  129.883000
  S    -83.379400   49.884300  127.784000
  C    -82.230900   51.213600  127.631000
  C    -82.588700   52.192500  128.520000
  C    -83.833300   52.020300  129.253000
  C    -84.381800   50.784800  128.975000
  H    -82.040400   53.075400  128.714000
  C    -84.427000   53.085300  130.119000
  H    -85.315900   52.704200  130.533000
  H    -84.713800   53.905700  129.490000
  C    -83.540700   53.718000  131.282000
  H    -83.997200   54.458700  131.913000
  H    -82.749500   54.222600  130.720000
  C    -82.776900   52.686600  132.166000
  H    -82.191500   53.062700  132.957000
  H    -82.049600   52.126300  131.607000
  H    -83.486900   51.896200  132.401000
  H    -87.928400   47.933100  131.304000
  H    -81.544800   51.330600  126.873000

 Total Charge           Charge          ....    0
 Multiplicity           Mult            ....    1
 Number of Electrons    NEL             ....  134
 Basis Dimension        Dim             ....  322

ORBITAL ENERGIES
----------------

  NO   OCC          E(Eh)            E(eV)
   0   2.0000     -88.967541     -2420.9299
   1   2.0000     -88.962659     -2420.7970
   2   2.0000     -10.331877      -281.1447
   3   2.0000     -10.331508      -281.1346
   4   2.0000     -10.323092      -280.9056
   5   2.0000     -10.316410      -280.7238
   6   2.0000     -10.306471      -280.4533
   7   2.0000     -10.305709      -280.4326
   8   2.0000     -10.297780      -280.2168
   9   2.0000     -10.292631      -280.0767
  10   2.0000     -10.290636      -280.0225
  11   2.0000     -10.290608      -280.0217
  12   2.0000     -10.290284      -280.0129
  13   2.0000     -10.286535      -279.9108
  14   2.0000     -10.277837      -279.6742
  15   2.0000     -10.266971      -279.3785
  16   2.0000      -8.081572      -219.9108
  17   2.0000      -8.076728      -219.7789
  18   2.0000      -6.040261      -164.3639
  19   2.0000      -6.036191      -164.2531
  20   2.0000      -6.035451      -164.2330
  21   2.0000      -6.032149      -164.1431
  22   2.0000      -6.031272      -164.1193
  23   2.0000      -6.027343      -164.0124
  24   2.0000      -0.999450       -27.1964
  25   2.0000      -0.978555       -26.6278
  26   2.0000      -0.912079       -24.8189
  27   2.0000      -0.903749       -24.5923
  28   2.0000      -0.868136       -23.6232
  29   2.0000      -0.845264       -23.0008
  30   2.0000      -0.840289       -22.8654
  31   2.0000      -0.814991       -22.1770
  32   2.0000      -0.787575       -21.4310
  33   2.0000      -0.776834       -21.1387
  34   2.0000      -0.708004       -19.2658
  35   2.0000      -0.704677       -19.1752
  36   2.0000      -0.699028       -19.0215
  37   2.0000      -0.661571       -18.0023
  38   2.0000      -0.636664       -17.3245
  39   2.0000      -0.610640       -16.6164
  40   2.0000      -0.599057       -16.3012
  41   2.0000      -0.577815       -15.7231
  42   2.0000      -0.556309       -15.1379
  43   2.0000      -0.553116       -15.0511
  44   2.0000      -0.544574       -14.8186
  45   2.0000      -0.531919       -14.4743
  46   2.0000      -0.521254       -14.1840
  47   2.0000      -0.513039       -13.9605
  48   2.0000      -0.499234       -13.5849
  49   2.0000      -0.492634       -13.4053
  50   2.0000      -0.491115       -13.3639
  51   2.0000      -0.476682       -12.9712
  52   2.0000      -0.471813       -12.8387
  53   2.0000      -0.464785       -12.6474
  54   2.0000      -0.459677       -12.5084
  55   2.0000      -0.444252       -12.0887
  56   2.0000      -0.442354       -12.0371
  57   2.0000      -0.439526       -11.9601
  58   2.0000      -0.436233       -11.8705
  59   2.0000      -0.429079       -11.6758
  60   2.0000      -0.420390       -11.4394
  61   2.0000      -0.415518       -11.3068
  62   2.0000      -0.406221       -11.0538
  63   2.0000      -0.343261        -9.3406
  64   2.0000      -0.328981        -8.9520
  65   2.0000      -0.325487        -8.8570
  66   2.0000      -0.298105        -8.1119
  67   0.0000       0.038345         1.0434
  68   0.0000       0.055652         1.5144
  69   0.0000       0.108181         2.9437
  70   0.0000       0.119688         3.2569
  71   0.0000       0.123273         3.3544

MULLIKEN ATOMIC CHARGES
-----------------------
   0 S :    0.120614
   1 C :   -0.149354
   2 C :   -0.116778
   3 C :    0.025521
   4 C :   -0.148002
   5 H :    0.011041
   6 C :    0.114513
   7 H :    0.018361
   8 H :    0.007261
   9 C :   -0.071698
  10 H :    0.030043
  11 H :    0.019576
  12 C :   -0.050135
  13 H :    0.019539
  14 H :    0.038044
  15 H :    0.048958
  16 S :    0.089610
  17 C :   -0.047577
  18 C :   -0.012624
  19 C :   -0.044146
  20 C :   -0.190335
  21 H :    0.000381
  22 C :    0.107009
  23 H :    0.013129
  24 H :    0.036707
  25 C :   -0.094090
  26 H :    0.037463
  27 H :    0.019585
  28 C :   -0.026517
  29 H :    0.031275
  30 H :    0.016219
  31 H :    0.028861
  32 H :    0.080415
  33 H :    0.037132
Sum of atomic charges:   -0.0000000

LOEWDIN ATOMIC CHARGES
----------------------
   0 S :    0.392802
   1 C :   -0.211281
   2 C :   -0.061234
   3 C :   -0.056344
   4 C :   -0.193691
   5 H :    0.026657
   6 C :   -0.026738
   7 H :    0.026515
   8 H :    0.025833
   9 C :   -0.027832
  10 H :    0.025380
  11 H :    0.016780
  12 C :   -0.069184
  13 H :    0.020728
  14 H :    0.029352
  15 H :    0.032737
  16 S :    0.375333
  17 C :   -0.164499
  18 C :   -0.061353
  19 C :   -0.051795
  20 C :   -0.181211
  21 H :    0.020895
  22 C :   -0.023971
  23 H :    0.022323
  24 H :    0.035882
  25 C :   -0.034288
  26 H :    0.024109
  27 H :    0.018485
  28 C :   -0.068491
  29 H :    0.021207
  30 H :    0.024084
  31 H :    0.027785
  32 H :    0.046833
  33 H :    0.018193

  Mayer bond orders larger than 0.100000
B(  0-S ,  1-C ) :   1.1401 B(  0-S ,  4-C ) :   1.1208 B(  1-C ,  2-C ) :   1.6235
B(  1-C , 32-H ) :   0.9510 B(  2-C ,  3-C ) :   1.1943 B(  2-C ,  6-C ) :   1.0502
B(  3-C ,  4-C ) :   1.6185 B(  3-C ,  5-H ) :   0.9876 B(  4-C , 20-C ) :   1.0333
B(  6-C ,  7-H ) :   0.9334 B(  6-C ,  8-H ) :   0.9349 B(  6-C ,  9-C ) :   1.0673
B(  9-C , 10-H ) :   0.9560 B(  9-C , 11-H ) :   0.9578 B(  9-C , 12-C ) :   1.0745
B( 12-C , 13-H ) :   0.9685 B( 12-C , 14-H ) :   0.9692 B( 12-C , 15-H ) :   0.9755
B( 16-S , 17-C ) :   1.1306 B( 16-S , 20-C ) :   1.1300 B( 17-C , 18-C ) :   1.6196
B( 17-C , 33-H ) :   0.9803 B( 18-C , 19-C ) :   1.2194 B( 18-C , 21-H ) :   0.9881
B( 19-C , 20-C ) :   1.6173 B( 19-C , 22-C ) :   1.0490 B( 22-C , 23-H ) :   0.9259
B( 22-C , 24-H ) :   0.9346 B( 22-C , 25-C ) :   1.0540 B( 25-C , 26-H ) :   0.9637
B( 25-C , 27-H ) :   0.9582 B( 25-C , 28-C ) :   1.0745 B( 28-C , 29-H ) :   0.9764
B( 28-C , 30-H ) :   0.9665 B( 28-C , 31-H ) :   0.9773

Dispersion correction           -0.015224390
FINAL SINGLE POINT ENERGY     -1339.858148196430

DIPOLE MOMENT
-------------
                                X             Y             Z
Electronic contribution:     12.37975     -17.97188     -12.09626
Nuclear contribution   :    -12.81448      18.56914      12.18871
                        -----------------------------------------
Total Dipole Moment    :     -0.43472       0.59726       0.09246
                        -----------------------------------------
Magnitude (a.u.)       :      0.74448
Magnitude (Debye)      :      1.89231

Rotational constants in cm-1:     0.019104     0.008738     0.007307
Rotational constants in MHz :   572.724732   261.962856   219.058329

                             ****ORCA TERMINATED NORMALLY****
TOTAL RUN TIME: 0 days 0 hours 0 minutes 34 seconds 980 msec
