                         Program Version 4.2.1 -  RELEASE  -
|  1> ! wB97X-D3 SP def2-SVP
|  2> %pal
|  3> nprocs 16
|  4> end
|  5>
|  6> * xyz 0 1
|  7> S 	 46.3131 	 8.95412 	 99.84
|  8> C 	 47.8571 	 8.75747 	 100.627
|  9> C 	 48.4758 	 7.59718 	 100.22
| 10> C 	 47.6988 	 6.90861 	 99.2543
| 11> C 	 46.557 	 7.63574 	 98.7853
| 12> H 	 47.9348 	 5.9156 	 98.8447
| 13> C 	 49.76 	 7.06337 	 100.733
| 14> H 	 50.5991 	 7.3523 	 99.9986
| 15> H 	 49.714 	 5.98378 	 100.773
| 16> C 	 50.2964 	 7.48491 	 102.042
| 17> H 	 50.6138 	 8.51341 	 101.92
| 18> H 	 49.4835 	 7.45597 	 102.738
| 19> C 	 51.4997 	 6.56846 	 102.487
| 20> H 	 52.3906 	 6.62969 	 101.85
| 21> H 	 51.8089 	 6.84923 	 103.479
| 22> H 	 51.1951 	 5.48758 	 102.584
| 23> S 	 44.2193 	 6.2329 	 97.94
| 24> C 	 43.7075 	 6.28763 	 96.2592
| 25> C 	 44.64 	 7.00527 	 95.5673
| 26> C 	 45.6951 	 7.56769 	 96.3922
| 27> C 	 45.6487 	 7.28524 	 97.7493
| 28> H 	 44.6264 	 7.13107 	 94.5205
| 29> C 	 46.7359 	 8.52897 	 95.782
| 30> H 	 47.3782 	 8.01248 	 95.0855
| 31> H 	 47.3754 	 8.8009 	 96.578
| 32> C 	 46.1818 	 9.79712 	 95.1073
| 33> H 	 45.7475 	 9.43473 	 94.1843
| 34> H 	 46.9302 	 10.5419 	 94.8657
| 35> C 	 45.0273 	 10.5477 	 96.0164
| 36> H 	 44.138 	 9.82477 	 96.1787
| 37> H 	 44.553 	 11.3735 	 95.45
| 38> H 	 45.436 	 10.8345 	 96.9466
| 39> H 	 48.3571 	 9.42037 	 101.242
| 40> H 	 42.9412 	 5.80589 	 95.8121
| 41> *
| 42>
| 43>                          ****END OF INPUT****

CARTESIAN COORDINATES (ANGSTROEM)
---------------------------------
  S     46.313100    8.954120   99.840000
  C     47.857100    8.757470  100.627000
  C     48.475800    7.597180  100.220000
  C     47.698800    6.908610   99.254300
  C     46.557000    7.635740   98.785300
  H     47.934800    5.915600   98.844700
  C     49.760000    7.063370  100.733000
  H     50.599100    7.352300   99.998600
  H     49.714000    5.983780  100.773000
  C     50.296400    7.484910  102.042000
  H     50.613800    8.513410  101.920000
  H     49.483500    7.455970  102.738000
  C     51.499700    6.568460  102.487000
  H     52.390600    6.629690  101.850000
  H     51.808900    6.849230  103.479000
  H     51.195100    5.487580  102.584000
  S     44.219300    6.232900   97.940000
  C     43.707500    6.287630   96.259200
  C     44.640000    7.005270   95.567300
  C     45.695100    7.567690   96.392200
  C     45.648700    7.285240   97.749300
  H     44.626400    7.131070   94.520500
  C     46.735900    8.528970   95.782000
  H     47.378200    8.012480   95.085500
  H     47.375400    8.800900   96.578000
  C     46.181800    9.797120   95.107300
  H     45.747500    9.434730   94.184300
  H     46.930200   10.541900   94.865700
  C     45.027300   10.547700   96.016400
  H     44.138000    9.824770   96.178700
  H     44.553000   11.373500   95.450000
  H     45.436000   10.834500   96.946600
  H     48.357100    9.420370  101.242000
  H     42.941200    5.805890   95.812100

 Total Charge           Charge          ....    0
 Multiplicity           Mult            ....    1
 Number of Electrons    NEL             ....  134
 Basis Dimension        Dim             ....  322

ORBITAL ENERGIES
----------------

  NO   OCC          E(Eh)            E(eV)
   0   2.0000     -88.970468     -2421.0095
   1   2.0000     -88.960874     -2420.7484
   2   2.0000     -10.330960      -281.1197
   3   2.0000     -10.327399      -281.0228
   4   2.0000     -10.315198      -280.6908
   5   2.0000     -10.309737      -280.5422
   6   2.0000     -10.304564      -280.4015
   7   2.0000     -10.300566      -280.2926
   8   2.0000     -10.299674      -280.2684
   9   2.0000     -10.290935      -280.0306
  10   2.0000     -10.290896      -280.0295
  11   2.0000     -10.288445      -279.9628
  12   2.0000     -10.288437      -279.9626
  13   2.0000     -10.286510      -279.9102
  14   2.0000     -10.282062      -279.7891
  15   2.0000     -10.280222      -279.7391
  16   2.0000      -8.085514      -220.0180
  17   2.0000      -8.075068      -219.7338
  18   2.0000      -6.043852      -164.4616
  19   2.0000      -6.039837      -164.3523
  20   2.0000      -6.036552      -164.2629
  21   2.0000      -6.033773      -164.1873
  22   2.0000      -6.029501      -164.0711
  23   2.0000      -6.025745      -163.9689
  24   2.0000      -1.009336       -27.4654
  25   2.0000      -0.985466       -26.8159
  26   2.0000      -0.924156       -25.1476
  27   2.0000      -0.896140       -24.3852
  28   2.0000      -0.876030       -23.8380
  29   2.0000      -0.850589       -23.1457
  30   2.0000      -0.827417       -22.5152
  31   2.0000      -0.814551       -22.1651
  32   2.0000      -0.783974       -21.3330
  33   2.0000      -0.771096       -20.9826
  34   2.0000      -0.719219       -19.5709
  35   2.0000      -0.706202       -19.2167
  36   2.0000      -0.697538       -18.9810
  37   2.0000      -0.657462       -17.8905
  38   2.0000      -0.643044       -17.4981
  39   2.0000      -0.611665       -16.6442
  40   2.0000      -0.594978       -16.1902
  41   2.0000      -0.585179       -15.9235
  42   2.0000      -0.579931       -15.7807
  43   2.0000      -0.547212       -14.8904
  44   2.0000      -0.537596       -14.6287
  45   2.0000      -0.526996       -14.3403
  46   2.0000      -0.517873       -14.0921
  47   2.0000      -0.517131       -14.0718
  48   2.0000      -0.511115       -13.9081
  49   2.0000      -0.497834       -13.5468
  50   2.0000      -0.487870       -13.2756
  51   2.0000      -0.477897       -13.0042
  52   2.0000      -0.471305       -12.8248
  53   2.0000      -0.464379       -12.6364
  54   2.0000      -0.459566       -12.5054
  55   2.0000      -0.447562       -12.1788
  56   2.0000      -0.436373       -11.8743
  57   2.0000      -0.434753       -11.8302
  58   2.0000      -0.429761       -11.6944
  59   2.0000      -0.423724       -11.5301
  60   2.0000      -0.422319       -11.4919
  61   2.0000      -0.416886       -11.3440
  62   2.0000      -0.403015       -10.9666
  63   2.0000      -0.332102        -9.0370
  64   2.0000      -0.328431        -8.9371
  65   2.0000      -0.319570        -8.6959
  66   2.0000      -0.315241        -8.5781
  67   0.0000       0.037777         1.0280
  68   0.0000       0.049378         1.3436
  69   0.0000       0.116762         3.1773
  70   0.0000       0.126852         3.4518
  71   0.0000       0.129156         3.5145

MULLIKEN ATOMIC CHARGES
-----------------------
   0 S :    0.142375
   1 C :   -0.088384
   2 C :   -0.077043
   3 C :    0.040779
   4 C :   -0.216990
   5 H :    0.021891
   6 C :    0.036822
   7 H :    0.046976
   8 H :    0.020226
   9 C :   -0.075685
  10 H :    0.028380
  11 H :    0.025582
  12 C :   -0.056730
  13 H :    0.039804
  14 H :    0.028886
  15 H :    0.041005
  16 S :    0.093653
  17 C :   -0.030948
  18 C :   -0.012453
  19 C :   -0.063011
  20 C :   -0.144116
  21 H :    0.004677
  22 C :    0.106005
  23 H :    0.026707
  24 H :    0.014556
  25 C :   -0.084524
  26 H :    0.021824
  27 H :    0.039166
  28 C :   -0.086436
  29 H :    0.050669
  30 H :    0.039755
  31 H :    0.034302
  32 H :    0.014384
  33 H :    0.017894
Sum of atomic charges:    0.0000000

LOEWDIN ATOMIC CHARGES
----------------------
   0 S :    0.446312
   1 C :   -0.193254
   2 C :   -0.066754
   3 C :   -0.048625
   4 C :   -0.218568
   5 H :    0.034357
   6 C :   -0.042850
   7 H :    0.044724
   8 H :    0.028706
   9 C :   -0.040684
  10 H :    0.021809
  11 H :    0.020172
  12 C :   -0.062989
  13 H :    0.027454
  14 H :    0.024046
  15 H :    0.032045
  16 S :    0.384436
  17 C :   -0.154778
  18 C :   -0.069169
  19 C :   -0.043107
  20 C :   -0.205994
  21 H :    0.023276
  22 C :   -0.030930
  23 H :    0.029744
  24 H :    0.021542
  25 C :   -0.034045
  26 H :    0.016125
  27 H :    0.024446
  28 C :   -0.070521
  29 H :    0.036023
  30 H :    0.026399
  31 H :    0.013827
  32 H :    0.014221
  33 H :    0.012603

  Mayer bond orders larger than 0.100000
B(  0-S ,  1-C ) :   1.1519 B(  0-S ,  4-C ) :   1.1812 B(  1-C ,  2-C ) :   1.5800
B(  1-C ,  4-C ) :   0.1075 B(  1-C , 32-H ) :   0.9719 B(  2-C ,  3-C ) :   1.2846
B(  2-C ,  6-C ) :   1.0228 B(  3-C ,  4-C ) :   1.5224 B(  3-C ,  5-H ) :   0.9937
B(  4-C , 20-C ) :   1.0558 B(  6-C ,  7-H ) :   0.9217 B(  6-C ,  8-H ) :   0.9464
B(  6-C ,  9-C ) :   1.0849 B(  9-C , 10-H ) :   0.9437 B(  9-C , 11-H ) :   0.9567
B(  9-C , 12-C ) :   1.0837 B( 12-C , 13-H ) :   0.9760 B( 12-C , 14-H ) :   0.9741
B( 12-C , 15-H ) :   0.9742 B( 16-S , 17-C ) :   1.1551 B( 16-S , 20-C ) :   1.1080
B( 17-C , 18-C ) :   1.5958 B( 17-C , 33-H ) :   0.9827 B( 18-C , 19-C ) :   1.2411
B( 18-C , 21-H ) :   0.9970 B( 19-C , 20-C ) :   1.6105 B( 19-C , 22-C ) :   1.0415
B( 22-C , 23-H ) :   0.9374 B( 22-C , 24-H ) :   0.9297 B( 22-C , 25-C ) :   1.0622
B( 25-C , 26-H ) :   0.9583 B( 25-C , 27-H ) :   0.9612 B( 25-C , 28-C ) :   1.0626
B( 28-C , 29-H ) :   0.9721 B( 28-C , 30-H ) :   0.9778 B( 28-C , 31-H ) :   0.9799

Dispersion correction           -0.014797511
FINAL SINGLE POINT ENERGY     -1339.863404694140

DIPOLE MOMENT
-------------
                                X             Y             Z
Electronic contribution:    -18.76796      -5.40478      -0.11608
Nuclear contribution   :     19.38437       5.35868      -0.06263
                        -----------------------------------------
Total Dipole Moment    :      0.61640      -0.04610      -0.17872
                        -----------------------------------------
Magnitude (a.u.)       :      0.64344
Magnitude (Debye)      :      1.63550

Rotational constants in cm-1:     0.024969     0.006922     0.006322
Rotational constants in MHz :   748.541025   207.527992   189.530422

                             ****ORCA TERMINATED NORMALLY****
TOTAL RUN TIME: 0 days 0 hours 0 minutes 29 seconds 953 msec
