                         Program Version 4.2.1 -  RELEASE  -
|  1> ! wB97X-D3 SP def2-SVP
|  2> %pal
|  3> nprocs 16
|  4> end
|  5>
|  6> * xyz 0 1
|  7> S 	 7.92276 	 -10.7399 	 69.6349
|  8> C 	 6.28827 	 -10.0721 	 69.3775
|  9> C 	 5.7517 	 -10.7513 	 68.301
| 10> C 	 6.58539 	 -11.7765 	 67.7639
| 11> C 	 7.85359 	 -11.9077 	 68.3405
| 12> H 	 6.44876 	 -12.4247 	 66.9564
| 13> C 	 4.37451 	 -10.4003 	 67.7166
| 14> H 	 3.92391 	 -9.55236 	 68.2683
| 15> H 	 3.66889 	 -11.2376 	 67.8561
| 16> C 	 4.52775 	 -9.99686 	 66.2785
| 17> H 	 4.78288 	 -10.9454 	 65.7412
| 18> H 	 3.57821 	 -9.79084 	 65.9102
| 19> C 	 5.41739 	 -8.77893 	 65.9435
| 20> H 	 6.40466 	 -8.87966 	 66.3935
| 21> H 	 5.51644 	 -8.64239 	 64.8617
| 22> H 	 4.94667 	 -7.87882 	 66.3808
| 23> S 	 10.3963 	 -11.9313 	 67.5282
| 24> C 	 11.1884 	 -13.404 	 67.0228
| 25> C 	 10.3973 	 -14.5147 	 67.2559
| 26> C 	 9.09462 	 -14.1576 	 67.7443
| 27> C 	 8.99614 	 -12.8054 	 67.9955
| 28> H 	 10.828 	 -15.4501 	 66.9524
| 29> C 	 7.96264 	 -15.1293 	 67.9252
| 30> H 	 7.08817 	 -14.5108 	 68.155
| 31> H 	 8.10694 	 -15.8018 	 68.8245
| 32> C 	 7.39621 	 -15.8989 	 66.6808
| 33> H 	 7.14086 	 -15.2675 	 65.8018
| 34> H 	 6.53405 	 -16.3337 	 67.1089
| 35> C 	 8.36024 	 -16.8776 	 66.0703
| 36> H 	 9.31161 	 -16.496 	 65.7042
| 37> H 	 8.11738 	 -17.4499 	 65.1436
| 38> H 	 8.42976 	 -17.6547 	 66.8442
| 39> H 	 5.89201 	 -9.3084 	 70.0053
| 40> H 	 12.1626 	 -13.5044 	 66.5128
| 41> *
| 42>
| 43>                          ****END OF INPUT****

CARTESIAN COORDINATES (ANGSTROEM)
---------------------------------
  S      7.922760  -10.739900   69.634900
  C      6.288270  -10.072100   69.377500
  C      5.751700  -10.751300   68.301000
  C      6.585390  -11.776500   67.763900
  C      7.853590  -11.907700   68.340500
  H      6.448760  -12.424700   66.956400
  C      4.374510  -10.400300   67.716600
  H      3.923910   -9.552360   68.268300
  H      3.668890  -11.237600   67.856100
  C      4.527750   -9.996860   66.278500
  H      4.782880  -10.945400   65.741200
  H      3.578210   -9.790840   65.910200
  C      5.417390   -8.778930   65.943500
  H      6.404660   -8.879660   66.393500
  H      5.516440   -8.642390   64.861700
  H      4.946670   -7.878820   66.380800
  S     10.396300  -11.931300   67.528200
  C     11.188400  -13.404000   67.022800
  C     10.397300  -14.514700   67.255900
  C      9.094620  -14.157600   67.744300
  C      8.996140  -12.805400   67.995500
  H     10.828000  -15.450100   66.952400
  C      7.962640  -15.129300   67.925200
  H      7.088170  -14.510800   68.155000
  H      8.106940  -15.801800   68.824500
  C      7.396210  -15.898900   66.680800
  H      7.140860  -15.267500   65.801800
  H      6.534050  -16.333700   67.108900
  C      8.360240  -16.877600   66.070300
  H      9.311610  -16.496000   65.704200
  H      8.117380  -17.449900   65.143600
  H      8.429760  -17.654700   66.844200
  H      5.892010   -9.308400   70.005300
  H     12.162600  -13.504400   66.512800

 Total Charge           Charge          ....    0
 Multiplicity           Mult            ....    1
 Number of Electrons    NEL             ....  134
 Basis Dimension        Dim             ....  322

ORBITAL ENERGIES
----------------

  NO   OCC          E(Eh)            E(eV)
   0   2.0000     -88.967395     -2420.9259
   1   2.0000     -88.959891     -2420.7217
   2   2.0000     -10.335087      -281.2320
   3   2.0000     -10.328876      -281.0630
   4   2.0000     -10.319057      -280.7958
   5   2.0000     -10.316964      -280.7389
   6   2.0000     -10.307484      -280.4809
   7   2.0000     -10.304733      -280.4061
   8   2.0000     -10.296855      -280.1917
   9   2.0000     -10.294951      -280.1399
  10   2.0000     -10.293439      -280.0987
  11   2.0000     -10.291651      -280.0501
  12   2.0000     -10.290047      -280.0064
  13   2.0000     -10.279732      -279.7257
  14   2.0000     -10.277621      -279.6683
  15   2.0000     -10.277466      -279.6641
  16   2.0000      -8.082814      -219.9446
  17   2.0000      -8.074430      -219.7164
  18   2.0000      -6.041268      -164.3913
  19   2.0000      -6.037159      -164.2794
  20   2.0000      -6.033631      -164.1835
  21   2.0000      -6.032912      -164.1639
  22   2.0000      -6.028722      -164.0499
  23   2.0000      -6.025455      -163.9610
  24   2.0000      -1.009349       -27.4658
  25   2.0000      -0.984814       -26.7982
  26   2.0000      -0.912753       -24.8373
  27   2.0000      -0.910263       -24.7695
  28   2.0000      -0.868939       -23.6450
  29   2.0000      -0.853270       -23.2186
  30   2.0000      -0.836159       -22.7530
  31   2.0000      -0.819762       -22.3069
  32   2.0000      -0.784706       -21.3529
  33   2.0000      -0.775832       -21.1115
  34   2.0000      -0.708923       -19.2908
  35   2.0000      -0.695129       -18.9154
  36   2.0000      -0.689766       -18.7695
  37   2.0000      -0.661099       -17.9894
  38   2.0000      -0.647970       -17.6322
  39   2.0000      -0.620274       -16.8785
  40   2.0000      -0.596194       -16.2233
  41   2.0000      -0.571887       -15.5618
  42   2.0000      -0.558152       -15.1881
  43   2.0000      -0.552198       -15.0261
  44   2.0000      -0.539342       -14.6763
  45   2.0000      -0.536153       -14.5895
  46   2.0000      -0.524060       -14.2604
  47   2.0000      -0.510756       -13.8984
  48   2.0000      -0.507006       -13.7963
  49   2.0000      -0.502671       -13.6784
  50   2.0000      -0.493850       -13.4383
  51   2.0000      -0.483107       -13.1460
  52   2.0000      -0.473846       -12.8940
  53   2.0000      -0.467232       -12.7140
  54   2.0000      -0.459803       -12.5119
  55   2.0000      -0.446179       -12.1412
  56   2.0000      -0.440075       -11.9750
  57   2.0000      -0.434974       -11.8362
  58   2.0000      -0.431463       -11.7407
  59   2.0000      -0.414614       -11.2822
  60   2.0000      -0.413733       -11.2582
  61   2.0000      -0.408723       -11.1219
  62   2.0000      -0.401713       -10.9312
  63   2.0000      -0.347549        -9.4573
  64   2.0000      -0.331942        -9.0326
  65   2.0000      -0.326940        -8.8965
  66   2.0000      -0.299461        -8.1488
  67   0.0000       0.035792         0.9739
  68   0.0000       0.066170         1.8006
  69   0.0000       0.120366         3.2753
  70   0.0000       0.121959         3.3187
  71   0.0000       0.129702         3.5294

MULLIKEN ATOMIC CHARGES
-----------------------
   0 S :    0.083522
   1 C :   -0.123126
   2 C :   -0.078501
   3 C :    0.062496
   4 C :   -0.173906
   5 H :   -0.014462
   6 C :    0.073485
   7 H :    0.012442
   8 H :    0.041566
   9 C :   -0.077893
  10 H :    0.027658
  11 H :    0.006654
  12 C :   -0.042767
  13 H :    0.048374
  14 H :    0.041546
  15 H :    0.028360
  16 S :    0.122550
  17 C :   -0.110513
  18 C :   -0.037650
  19 C :   -0.016433
  20 C :   -0.141413
  21 H :    0.019749
  22 C :    0.024552
  23 H :    0.020663
  24 H :    0.054747
  25 C :   -0.043906
  26 H :    0.036537
  27 H :    0.029965
  28 C :   -0.074164
  29 H :    0.031555
  30 H :    0.028947
  31 H :    0.023537
  32 H :    0.050023
  33 H :    0.065804
Sum of atomic charges:    0.0000000

LOEWDIN ATOMIC CHARGES
----------------------
   0 S :    0.389284
   1 C :   -0.182981
   2 C :   -0.062738
   3 C :   -0.070035
   4 C :   -0.192100
   5 H :    0.019875
   6 C :   -0.029191
   7 H :    0.026641
   8 H :    0.035105
   9 C :   -0.046329
  10 H :    0.025176
  11 H :    0.013510
  12 C :   -0.061203
  13 H :    0.027618
  14 H :    0.030146
  15 H :    0.027561
  16 S :    0.431097
  17 C :   -0.191511
  18 C :   -0.069801
  19 C :   -0.057269
  20 C :   -0.208751
  21 H :    0.030532
  22 C :   -0.036874
  23 H :    0.033873
  24 H :    0.041593
  25 C :   -0.034796
  26 H :    0.029138
  27 H :    0.023288
  28 C :   -0.083240
  29 H :    0.024048
  30 H :    0.029458
  31 H :    0.024675
  32 H :    0.027164
  33 H :    0.037036

  Mayer bond orders larger than 0.100000
B(  0-S ,  1-C ) :   1.1330 B(  0-S ,  4-C ) :   1.1728 B(  1-C ,  2-C ) :   1.5810
B(  1-C ,  4-C ) :   0.1066 B(  1-C , 32-H ) :   0.9842 B(  2-C ,  3-C ) :   1.2279
B(  2-C ,  6-C ) :   1.0179 B(  3-C ,  4-C ) :   1.5661 B(  3-C ,  5-H ) :   1.0057
B(  4-C , 20-C ) :   0.9821 B(  6-C ,  7-H ) :   0.9428 B(  6-C ,  8-H ) :   0.9408
B(  6-C ,  9-C ) :   1.0814 B(  9-C , 10-H ) :   0.9523 B(  9-C , 11-H ) :   0.9515
B(  9-C , 12-C ) :   1.0679 B( 12-C , 13-H ) :   0.9759 B( 12-C , 14-H ) :   0.9739
B( 12-C , 15-H ) :   0.9725 B( 16-S , 17-C ) :   1.1585 B( 16-S , 20-C ) :   1.1620
B( 17-C , 18-C ) :   1.6233 B( 17-C , 33-H ) :   0.9617 B( 18-C , 19-C ) :   1.2102
B( 18-C , 21-H ) :   0.9923 B( 19-C , 20-C ) :   1.6153 B( 19-C , 22-C ) :   1.0459
B( 22-C , 23-H ) :   0.9288 B( 22-C , 24-H ) :   0.9349 B( 22-C , 25-C ) :   1.0613
B( 25-C , 26-H ) :   0.9557 B( 25-C , 27-H ) :   0.9592 B( 25-C , 28-C ) :   1.0747
B( 28-C , 29-H ) :   0.9681 B( 28-C , 30-H ) :   0.9704 B( 28-C , 31-H ) :   0.9763

Dispersion correction           -0.014640442
FINAL SINGLE POINT ENERGY     -1339.868900007693

DIPOLE MOMENT
-------------
                                X             Y             Z
Electronic contribution:     16.72768       8.89649      13.87523
Nuclear contribution   :    -17.14489      -9.23242     -14.33088
                        -----------------------------------------
Total Dipole Moment    :     -0.41721      -0.33594      -0.45565
                        -----------------------------------------
Magnitude (a.u.)       :      0.70324
Magnitude (Debye)      :      1.78748

Rotational constants in cm-1:     0.019401     0.008524     0.007156
Rotational constants in MHz :   581.640531   255.553724   214.544755

                             ****ORCA TERMINATED NORMALLY****
TOTAL RUN TIME: 0 days 0 hours 0 minutes 30 seconds 434 msec
