                         Program Version 4.2.1 -  RELEASE  -
|  1> ! wB97X-D3 SP def2-SVP
|  2> %pal
|  3> nprocs 16
|  4> end
|  5>
|  6> * xyz 0 1
|  7> S 	 2.22801 	 -1.57076 	 84.6662
|  8> C 	 2.29091 	 -1.70529 	 86.3578
|  9> C 	 2.26101 	 -3.03094 	 86.7027
| 10> C 	 2.04035 	 -3.90065 	 85.5898
| 11> C 	 2.0513 	 -3.33393 	 84.3831
| 12> H 	 1.90468 	 -4.96126 	 85.7021
| 13> C 	 2.20947 	 -3.44209 	 88.2215
| 14> H 	 1.13061 	 -3.64822 	 88.4803
| 15> H 	 2.46735 	 -2.65425 	 88.8176
| 16> C 	 3.11753 	 -4.645 	 88.6104
| 17> H 	 3.19545 	 -4.82544 	 89.6943
| 18> H 	 2.59903 	 -5.47297 	 88.1402
| 19> C 	 4.54082 	 -4.4653 	 88.049
| 20> H 	 5.24177 	 -5.1754 	 88.3605
| 21> H 	 4.35508 	 -4.55638 	 87.0048
| 22> H 	 4.96565 	 -3.49626 	 88.2706
| 23> S 	 0.264996 	 -3.38972 	 82.1472
| 24> C 	 0.67564 	 -4.54868 	 80.9686
| 25> C 	 1.60459 	 -5.47913 	 81.3661
| 26> C 	 2.25587 	 -5.07194 	 82.5383
| 27> C 	 1.72736 	 -3.88739 	 83.0694
| 28> H 	 1.87879 	 -6.34716 	 80.7433
| 29> C 	 3.3847 	 -5.88894 	 83.0991
| 30> H 	 4.03429 	 -5.3676 	 83.9072
| 31> H 	 4.12616 	 -6.11017 	 82.2728
| 32> C 	 3.01348 	 -7.1913 	 83.895
| 33> H 	 2.41638 	 -6.92166 	 84.7562
| 34> H 	 3.9981 	 -7.57654 	 84.3187
| 35> C 	 2.20474 	 -8.25386 	 83.0068
| 36> H 	 1.23353 	 -7.96074 	 82.6652
| 37> H 	 1.99371 	 -9.06408 	 83.6902
| 38> H 	 2.86743 	 -8.618 	 82.1783
| 39> H 	 2.30029 	 -0.917382 	 87.1133
| 40> H 	 0.0928708 	 -4.49383 	 80.0202
| 41> *
| 42>
| 43>                          ****END OF INPUT****

CARTESIAN COORDINATES (ANGSTROEM)
---------------------------------
  S      2.228010   -1.570760   84.666200
  C      2.290910   -1.705290   86.357800
  C      2.261010   -3.030940   86.702700
  C      2.040350   -3.900650   85.589800
  C      2.051300   -3.333930   84.383100
  H      1.904680   -4.961260   85.702100
  C      2.209470   -3.442090   88.221500
  H      1.130610   -3.648220   88.480300
  H      2.467350   -2.654250   88.817600
  C      3.117530   -4.645000   88.610400
  H      3.195450   -4.825440   89.694300
  H      2.599030   -5.472970   88.140200
  C      4.540820   -4.465300   88.049000
  H      5.241770   -5.175400   88.360500
  H      4.355080   -4.556380   87.004800
  H      4.965650   -3.496260   88.270600
  S      0.264996   -3.389720   82.147200
  C      0.675640   -4.548680   80.968600
  C      1.604590   -5.479130   81.366100
  C      2.255870   -5.071940   82.538300
  C      1.727360   -3.887390   83.069400
  H      1.878790   -6.347160   80.743300
  C      3.384700   -5.888940   83.099100
  H      4.034290   -5.367600   83.907200
  H      4.126160   -6.110170   82.272800
  C      3.013480   -7.191300   83.895000
  H      2.416380   -6.921660   84.756200
  H      3.998100   -7.576540   84.318700
  C      2.204740   -8.253860   83.006800
  H      1.233530   -7.960740   82.665200
  H      1.993710   -9.064080   83.690200
  H      2.867430   -8.618000   82.178300
  H      2.300290   -0.917382   87.113300
  H      0.092871   -4.493830   80.020200

 Total Charge           Charge          ....    0
 Multiplicity           Mult            ....    1
 Number of Electrons    NEL             ....  134
 Basis Dimension        Dim             ....  322

ORBITAL ENERGIES
----------------

  NO   OCC          E(Eh)            E(eV)
   0   2.0000     -88.968553     -2420.9574
   1   2.0000     -88.958182     -2420.6752
   2   2.0000     -10.329350      -281.0759
   3   2.0000     -10.326925      -281.0099
   4   2.0000     -10.320335      -280.8306
   5   2.0000     -10.311261      -280.5837
   6   2.0000     -10.305040      -280.4144
   7   2.0000     -10.302345      -280.3411
   8   2.0000     -10.302212      -280.3374
   9   2.0000     -10.299109      -280.2530
  10   2.0000     -10.294914      -280.1388
  11   2.0000     -10.291269      -280.0397
  12   2.0000     -10.290885      -280.0292
  13   2.0000     -10.286522      -279.9105
  14   2.0000     -10.283954      -279.8406
  15   2.0000     -10.265668      -279.3430
  16   2.0000      -8.083654      -219.9674
  17   2.0000      -8.073595      -219.6937
  18   2.0000      -6.041952      -164.4099
  19   2.0000      -6.038372      -164.3124
  20   2.0000      -6.034345      -164.2029
  21   2.0000      -6.032088      -164.1415
  22   2.0000      -6.027953      -164.0290
  23   2.0000      -6.024345      -163.9308
  24   2.0000      -1.009598       -27.4726
  25   2.0000      -0.991179       -26.9714
  26   2.0000      -0.906119       -24.6568
  27   2.0000      -0.903044       -24.5731
  28   2.0000      -0.872659       -23.7463
  29   2.0000      -0.848914       -23.1001
  30   2.0000      -0.839796       -22.8520
  31   2.0000      -0.815985       -22.2041
  32   2.0000      -0.786118       -21.3914
  33   2.0000      -0.771696       -20.9989
  34   2.0000      -0.710968       -19.3464
  35   2.0000      -0.695194       -18.9172
  36   2.0000      -0.685597       -18.6560
  37   2.0000      -0.657883       -17.9019
  38   2.0000      -0.643724       -17.5166
  39   2.0000      -0.624471       -16.9927
  40   2.0000      -0.598707       -16.2917
  41   2.0000      -0.566829       -15.4242
  42   2.0000      -0.551176       -14.9983
  43   2.0000      -0.548078       -14.9140
  44   2.0000      -0.546619       -14.8743
  45   2.0000      -0.531818       -14.4715
  46   2.0000      -0.515379       -14.0242
  47   2.0000      -0.506988       -13.7958
  48   2.0000      -0.500762       -13.6264
  49   2.0000      -0.495311       -13.4781
  50   2.0000      -0.493104       -13.4181
  51   2.0000      -0.481260       -13.0958
  52   2.0000      -0.477269       -12.9871
  53   2.0000      -0.468519       -12.7491
  54   2.0000      -0.462672       -12.5900
  55   2.0000      -0.450756       -12.2657
  56   2.0000      -0.444686       -12.1005
  57   2.0000      -0.438846       -11.9416
  58   2.0000      -0.431640       -11.7455
  59   2.0000      -0.429099       -11.6764
  60   2.0000      -0.416786       -11.3413
  61   2.0000      -0.406419       -11.0592
  62   2.0000      -0.403585       -10.9821
  63   2.0000      -0.349415        -9.5081
  64   2.0000      -0.335410        -9.1270
  65   2.0000      -0.323103        -8.7921
  66   2.0000      -0.297221        -8.0878
  67   0.0000       0.027317         0.7433
  68   0.0000       0.072397         1.9700
  69   0.0000       0.104946         2.8557
  70   0.0000       0.122831         3.3424
  71   0.0000       0.129513         3.5242

MULLIKEN ATOMIC CHARGES
-----------------------
   0 S :    0.094107
   1 C :   -0.103822
   2 C :   -0.138891
   3 C :    0.052868
   4 C :   -0.159929
   5 H :   -0.011209
   6 C :    0.088754
   7 H :    0.048676
   8 H :   -0.009961
   9 C :   -0.103469
  10 H :    0.036614
  11 H :    0.025314
  12 C :   -0.012773
  13 H :    0.022929
  14 H :    0.026924
  15 H :    0.026757
  16 S :    0.120073
  17 C :   -0.111547
  18 C :   -0.032743
  19 C :   -0.001483
  20 C :   -0.130979
  21 H :    0.033980
  22 C :   -0.021695
  23 H :    0.048572
  24 H :    0.044007
  25 C :   -0.087707
  26 H :    0.027424
  27 H :    0.046493
  28 C :   -0.064677
  29 H :    0.045870
  30 H :    0.030645
  31 H :    0.042958
  32 H :    0.053619
  33 H :    0.074302
Sum of atomic charges:   -0.0000000

LOEWDIN ATOMIC CHARGES
----------------------
   0 S :    0.398098
   1 C :   -0.204395
   2 C :   -0.073122
   3 C :   -0.061512
   4 C :   -0.179377
   5 H :    0.025700
   6 C :   -0.022274
   7 H :    0.037941
   8 H :    0.009866
   9 C :   -0.040304
  10 H :    0.024254
  11 H :    0.018585
  12 C :   -0.057857
  13 H :    0.017040
  14 H :    0.023395
  15 H :    0.024977
  16 S :    0.410630
  17 C :   -0.189917
  18 C :   -0.077906
  19 C :   -0.050241
  20 C :   -0.193848
  21 H :    0.039607
  22 C :   -0.049299
  23 H :    0.041490
  24 H :    0.035848
  25 C :   -0.035165
  26 H :    0.016224
  27 H :    0.034132
  28 C :   -0.072200
  29 H :    0.023545
  30 H :    0.025710
  31 H :    0.030148
  32 H :    0.036402
  33 H :    0.033823

  Mayer bond orders larger than 0.100000
B(  0-S ,  1-C ) :   1.1544 B(  0-S ,  4-C ) :   1.1280 B(  1-C ,  2-C ) :   1.6189
B(  1-C , 32-H ) :   0.9642 B(  2-C ,  3-C ) :   1.2334 B(  2-C ,  6-C ) :   1.0120
B(  3-C ,  4-C ) :   1.6009 B(  3-C ,  5-H ) :   0.9959 B(  4-C , 20-C ) :   1.0420
B(  6-C ,  7-H ) :   0.9494 B(  6-C ,  8-H ) :   0.9407 B(  6-C ,  9-C ) :   1.0582
B(  9-C , 10-H ) :   0.9617 B(  9-C , 11-H ) :   0.9614 B(  9-C , 12-C ) :   1.0714
B( 12-C , 13-H ) :   0.9746 B( 12-C , 14-H ) :   0.9694 B( 12-C , 15-H ) :   0.9765
B( 16-S , 17-C ) :   1.1855 B( 16-S , 20-C ) :   1.1331 B( 17-C , 18-C ) :   1.5674
B( 17-C , 33-H ) :   0.9617 B( 18-C , 19-C ) :   1.2608 B( 18-C , 21-H ) :   0.9880
B( 19-C , 20-C ) :   1.5764 B( 19-C , 22-C ) :   1.0439 B( 22-C , 23-H ) :   0.9368
B( 22-C , 24-H ) :   0.9407 B( 22-C , 25-C ) :   1.0637 B( 25-C , 26-H ) :   0.9523
B( 25-C , 27-H ) :   0.9567 B( 25-C , 28-C ) :   1.0715 B( 28-C , 29-H ) :   0.9709
B( 28-C , 30-H ) :   0.9737 B( 28-C , 31-H ) :   0.9768

Dispersion correction           -0.015542741
FINAL SINGLE POINT ENERGY     -1339.867280295754

DIPOLE MOMENT
-------------
                                X             Y             Z
Electronic contribution:    -11.80261      21.64795     -15.37026
Nuclear contribution   :     11.83310     -22.27464      15.64259
                        -----------------------------------------
Total Dipole Moment    :      0.03049      -0.62669       0.27232
                        -----------------------------------------
Magnitude (a.u.)       :      0.68398
Magnitude (Debye)      :      1.73855

Rotational constants in cm-1:     0.018420     0.009965     0.007062
Rotational constants in MHz :   552.211800   298.735639   211.703863

                             ****ORCA TERMINATED NORMALLY****
TOTAL RUN TIME: 0 days 0 hours 0 minutes 37 seconds 314 msec
