                         Program Version 4.2.1 -  RELEASE  -
|  1> ! wB97X-D3 SP def2-SVP
|  2> %pal
|  3> nprocs 16
|  4> end
|  5>
|  6> * xyz 0 1
|  7> S 	 -39.2448 	 29.0118 	 75.373
|  8> C 	 -39.0109 	 30.4788 	 74.4967
|  9> C 	 -38.4838 	 31.4947 	 75.2823
| 10> C 	 -38.2358 	 31.0574 	 76.6728
| 11> C 	 -38.5717 	 29.7158 	 76.8263
| 12> H 	 -37.6766 	 31.5413 	 77.4568
| 13> C 	 -38.1271 	 32.8873 	 74.882
| 14> H 	 -37.2335 	 32.7928 	 74.2043
| 15> H 	 -37.6514 	 33.4843 	 75.6831
| 16> C 	 -39.301 	 33.6105 	 74.1305
| 17> H 	 -39.5498 	 32.9584 	 73.2984
| 18> H 	 -40.2333 	 33.4871 	 74.6851
| 19> C 	 -38.9003 	 35.0445 	 73.8951
| 20> H 	 -37.8515 	 35.1994 	 73.6529
| 21> H 	 -39.5479 	 35.3856 	 73.1078
| 22> H 	 -39.1041 	 35.7412 	 74.7218
| 23> S 	 -36.9804 	 27.7525 	 77.8264
| 24> C 	 -37.001 	 27.2812 	 79.5031
| 25> C 	 -37.8145 	 28.1789 	 80.1804
| 26> C 	 -38.5455 	 29.1221 	 79.3542
| 27> C 	 -38.2934 	 28.9131 	 78.0132
| 28> H 	 -37.9017 	 28.1149 	 81.2741
| 29> C 	 -39.5888 	 30.1827 	 79.8964
| 30> H 	 -40.4904 	 29.712 	 80.2606
| 31> H 	 -39.9396 	 30.7493 	 79.0485
| 32> C 	 -39.159 	 31.1268 	 81.0562
| 33> H 	 -38.9983 	 30.4997 	 81.965
| 34> H 	 -39.98 	 31.838 	 81.3236
| 35> C 	 -37.9179 	 31.9521 	 80.8064
| 36> H 	 -37.0699 	 31.4163 	 80.5062
| 37> H 	 -37.7575 	 32.465 	 81.7671
| 38> H 	 -38.0777 	 32.7685 	 80.1186
| 39> H 	 -39.226 	 30.569 	 73.4942
| 40> H 	 -36.3629 	 26.4843 	 79.8883
| 41> *
| 42>
| 43>                          ****END OF INPUT****

CARTESIAN COORDINATES (ANGSTROEM)
---------------------------------
  S    -39.244800   29.011800   75.373000
  C    -39.010900   30.478800   74.496700
  C    -38.483800   31.494700   75.282300
  C    -38.235800   31.057400   76.672800
  C    -38.571700   29.715800   76.826300
  H    -37.676600   31.541300   77.456800
  C    -38.127100   32.887300   74.882000
  H    -37.233500   32.792800   74.204300
  H    -37.651400   33.484300   75.683100
  C    -39.301000   33.610500   74.130500
  H    -39.549800   32.958400   73.298400
  H    -40.233300   33.487100   74.685100
  C    -38.900300   35.044500   73.895100
  H    -37.851500   35.199400   73.652900
  H    -39.547900   35.385600   73.107800
  H    -39.104100   35.741200   74.721800
  S    -36.980400   27.752500   77.826400
  C    -37.001000   27.281200   79.503100
  C    -37.814500   28.178900   80.180400
  C    -38.545500   29.122100   79.354200
  C    -38.293400   28.913100   78.013200
  H    -37.901700   28.114900   81.274100
  C    -39.588800   30.182700   79.896400
  H    -40.490400   29.712000   80.260600
  H    -39.939600   30.749300   79.048500
  C    -39.159000   31.126800   81.056200
  H    -38.998300   30.499700   81.965000
  H    -39.980000   31.838000   81.323600
  C    -37.917900   31.952100   80.806400
  H    -37.069900   31.416300   80.506200
  H    -37.757500   32.465000   81.767100
  H    -38.077700   32.768500   80.118600
  H    -39.226000   30.569000   73.494200
  H    -36.362900   26.484300   79.888300

 Total Charge           Charge          ....    0
 Multiplicity           Mult            ....    1
 Number of Electrons    NEL             ....  134
 Basis Dimension        Dim             ....  322

ORBITAL ENERGIES
----------------

  NO   OCC          E(Eh)            E(eV)
   0   2.0000     -88.966049     -2420.8893
   1   2.0000     -88.959174     -2420.7022
   2   2.0000     -10.327947      -281.0377
   3   2.0000     -10.325122      -280.9609
   4   2.0000     -10.320248      -280.8282
   5   2.0000     -10.310229      -280.5556
   6   2.0000     -10.307790      -280.4892
   7   2.0000     -10.304461      -280.3986
   8   2.0000     -10.298800      -280.2446
   9   2.0000     -10.296853      -280.1916
  10   2.0000     -10.294235      -280.1204
  11   2.0000     -10.292031      -280.0604
  12   2.0000     -10.291993      -280.0594
  13   2.0000     -10.288828      -279.9732
  14   2.0000     -10.278285      -279.6863
  15   2.0000     -10.269431      -279.4454
  16   2.0000      -8.081196      -219.9005
  17   2.0000      -8.074331      -219.7137
  18   2.0000      -6.039663      -164.3476
  19   2.0000      -6.035631      -164.2379
  20   2.0000      -6.032829      -164.1616
  21   2.0000      -6.031997      -164.1390
  22   2.0000      -6.028735      -164.0502
  23   2.0000      -6.025088      -163.9510
  24   2.0000      -1.004072       -27.3222
  25   2.0000      -0.980892       -26.6914
  26   2.0000      -0.911057       -24.7911
  27   2.0000      -0.901662       -24.5355
  28   2.0000      -0.869605       -23.6632
  29   2.0000      -0.851278       -23.1645
  30   2.0000      -0.842739       -22.9321
  31   2.0000      -0.811626       -22.0855
  32   2.0000      -0.783673       -21.3248
  33   2.0000      -0.770980       -20.9794
  34   2.0000      -0.713828       -19.4243
  35   2.0000      -0.698361       -19.0034
  36   2.0000      -0.690684       -18.7945
  37   2.0000      -0.656366       -17.8606
  38   2.0000      -0.647869       -17.6294
  39   2.0000      -0.609438       -16.5837
  40   2.0000      -0.594401       -16.1745
  41   2.0000      -0.567629       -15.4460
  42   2.0000      -0.550768       -14.9872
  43   2.0000      -0.549478       -14.9521
  44   2.0000      -0.542470       -14.7614
  45   2.0000      -0.528548       -14.3825
  46   2.0000      -0.522187       -14.2094
  47   2.0000      -0.513840       -13.9823
  48   2.0000      -0.508091       -13.8259
  49   2.0000      -0.496195       -13.5022
  50   2.0000      -0.492940       -13.4136
  51   2.0000      -0.479258       -13.0413
  52   2.0000      -0.472758       -12.8644
  53   2.0000      -0.468478       -12.7479
  54   2.0000      -0.463551       -12.6139
  55   2.0000      -0.451740       -12.2925
  56   2.0000      -0.441696       -12.0192
  57   2.0000      -0.437436       -11.9032
  58   2.0000      -0.429799       -11.6954
  59   2.0000      -0.424490       -11.5510
  60   2.0000      -0.416332       -11.3290
  61   2.0000      -0.412653       -11.2289
  62   2.0000      -0.401233       -10.9181
  63   2.0000      -0.341648        -9.2967
  64   2.0000      -0.327063        -8.8998
  65   2.0000      -0.321959        -8.7610
  66   2.0000      -0.300694        -8.1823
  67   0.0000       0.034352         0.9348
  68   0.0000       0.068092         1.8529
  69   0.0000       0.116196         3.1619
  70   0.0000       0.122285         3.3275
  71   0.0000       0.124228         3.3804

MULLIKEN ATOMIC CHARGES
-----------------------
   0 S :    0.122885
   1 C :   -0.098766
   2 C :   -0.086503
   3 C :    0.047799
   4 C :   -0.186904
   5 H :    0.019681
   6 C :    0.029301
   7 H :    0.042069
   8 H :    0.022283
   9 C :   -0.081666
  10 H :    0.022758
  11 H :    0.032389
  12 C :   -0.016688
  13 H :    0.032373
  14 H :    0.026850
  15 H :    0.037445
  16 S :    0.093059
  17 C :   -0.098700
  18 C :   -0.045225
  19 C :   -0.032304
  20 C :   -0.152751
  21 H :    0.026229
  22 C :    0.093913
  23 H :    0.032620
  24 H :    0.018741
  25 C :   -0.118188
  26 H :    0.032244
  27 H :    0.037861
  28 C :   -0.030736
  29 H :    0.036767
  30 H :    0.027954
  31 H :    0.023156
  32 H :    0.019485
  33 H :    0.070568
Sum of atomic charges:    0.0000000

LOEWDIN ATOMIC CHARGES
----------------------
   0 S :    0.420052
   1 C :   -0.200309
   2 C :   -0.055297
   3 C :   -0.054738
   4 C :   -0.200860
   5 H :    0.033213
   6 C :   -0.043447
   7 H :    0.038444
   8 H :    0.029223
   9 C :   -0.040186
  10 H :    0.022155
  11 H :    0.028078
  12 C :   -0.066251
  13 H :    0.026157
  14 H :    0.027047
  15 H :    0.031784
  16 S :    0.402014
  17 C :   -0.187449
  18 C :   -0.077879
  19 C :   -0.055620
  20 C :   -0.198723
  21 H :    0.031307
  22 C :   -0.029393
  23 H :    0.032110
  24 H :    0.026627
  25 C :   -0.045227
  26 H :    0.023667
  27 H :    0.032517
  28 C :   -0.065317
  29 H :    0.017692
  30 H :    0.031982
  31 H :    0.021469
  32 H :    0.010151
  33 H :    0.035005

  Mayer bond orders larger than 0.100000
B(  0-S ,  1-C ) :   1.1351 B(  0-S ,  4-C ) :   1.1613 B(  1-C ,  2-C ) :   1.6135
B(  1-C , 32-H ) :   0.9805 B(  2-C ,  3-C ) :   1.2176 B(  2-C ,  6-C ) :   1.0278
B(  3-C ,  4-C ) :   1.5867 B(  3-C ,  5-H ) :   0.9912 B(  4-C , 20-C ) :   1.0045
B(  6-C ,  7-H ) :   0.9304 B(  6-C ,  8-H ) :   0.9509 B(  6-C ,  9-C ) :   1.0435
B(  9-C , 10-H ) :   0.9578 B(  9-C , 11-H ) :   0.9591 B(  9-C , 12-C ) :   1.0712
B( 12-C , 13-H ) :   0.9744 B( 12-C , 14-H ) :   0.9707 B( 12-C , 15-H ) :   0.9732
B( 16-S , 17-C ) :   1.1563 B( 16-S , 20-C ) :   1.1555 B( 17-C , 18-C ) :   1.5928
B( 17-C , 33-H ) :   0.9723 B( 18-C , 19-C ) :   1.2305 B( 18-C , 21-H ) :   0.9895
B( 19-C , 20-C ) :   1.6061 B( 19-C , 22-C ) :   1.0232 B( 22-C , 23-H ) :   0.9409
B( 22-C , 24-H ) :   0.9371 B( 22-C , 25-C ) :   1.0708 B( 25-C , 26-H ) :   0.9568
B( 25-C , 27-H ) :   0.9541 B( 25-C , 28-C ) :   1.0841 B( 28-C , 29-H ) :   0.9744
B( 28-C , 30-H ) :   0.9704 B( 28-C , 31-H ) :   0.9730

Dispersion correction           -0.014332830
FINAL SINGLE POINT ENERGY     -1339.878214328934

DIPOLE MOMENT
-------------
                                X             Y             Z
Electronic contribution:      3.19779     -28.14780      -4.97743
Nuclear contribution   :     -3.16964      28.79451       5.20292
                        -----------------------------------------
Total Dipole Moment    :      0.02815       0.64670       0.22550
                        -----------------------------------------
Magnitude (a.u.)       :      0.68547
Magnitude (Debye)      :      1.74232

Rotational constants in cm-1:     0.019555     0.008212     0.006400
Rotational constants in MHz :   586.253308   246.183635   191.876773

                             ****ORCA TERMINATED NORMALLY****
TOTAL RUN TIME: 0 days 0 hours 0 minutes 29 seconds 870 msec
