                         Program Version 4.2.1 -  RELEASE  -
|  1> ! wB97X-D3 SP def2-SVP
|  2> %pal
|  3> nprocs 16
|  4> end
|  5>
|  6> * xyz 0 1
|  7> S 	 -18.5631 	 51.9648 	 66.7849
|  8> C 	 -18.5393 	 50.5107 	 67.8272
|  9> C 	 -19.7863 	 49.9798 	 68.1363
| 10> C 	 -20.8187 	 50.8497 	 67.6375
| 11> C 	 -20.3914 	 52.0131 	 67.0064
| 12> H 	 -21.886 	 50.6948 	 67.7054
| 13> C 	 -20.0771 	 48.816 	 69.0701
| 14> H 	 -20.8422 	 49.0702 	 69.7861
| 15> H 	 -19.1363 	 48.6163 	 69.6427
| 16> C 	 -20.4478 	 47.5362 	 68.2937
| 17> H 	 -20.8925 	 46.8253 	 69.0444
| 18> H 	 -21.1675 	 47.9068 	 67.5076
| 19> C 	 -19.2023 	 46.8146 	 67.8159
| 20> H 	 -19.3989 	 45.8589 	 67.2695
| 21> H 	 -18.7905 	 47.4296 	 66.9677
| 22> H 	 -18.4163 	 46.5808 	 68.527
| 23> S 	 -20.8775 	 53.6673 	 64.7929
| 24> C 	 -22.3911 	 54.4601 	 64.6264
| 25> C 	 -22.9862 	 54.5962 	 65.9435
| 26> C 	 -22.3747 	 53.7065 	 66.8989
| 27> C 	 -21.2186 	 53.1183 	 66.4457
| 28> H 	 -23.9246 	 55.0165 	 66.0462
| 29> C 	 -23.0995 	 53.4654 	 68.2153
| 30> H 	 -22.6174 	 52.6881 	 68.8283
| 31> H 	 -24.1051 	 53.1117 	 68.0153
| 32> C 	 -23.151 	 54.6545 	 69.151
| 33> H 	 -23.3322 	 55.509 	 68.5025
| 34> H 	 -22.1905 	 54.8541 	 69.5122
| 35> C 	 -24.0375 	 54.5586 	 70.4413
| 36> H 	 -24.0501 	 55.5353 	 70.9254
| 37> H 	 -23.4842 	 53.9729 	 71.1835
| 38> H 	 -25.0157 	 54.1266 	 70.3535
| 39> H 	 -17.5947 	 50.1319 	 68.1855
| 40> H 	 -22.8327 	 54.8969 	 63.766
| 41> *
| 42>
| 43>                          ****END OF INPUT****

CARTESIAN COORDINATES (ANGSTROEM)
---------------------------------
  S    -18.563100   51.964800   66.784900
  C    -18.539300   50.510700   67.827200
  C    -19.786300   49.979800   68.136300
  C    -20.818700   50.849700   67.637500
  C    -20.391400   52.013100   67.006400
  H    -21.886000   50.694800   67.705400
  C    -20.077100   48.816000   69.070100
  H    -20.842200   49.070200   69.786100
  H    -19.136300   48.616300   69.642700
  C    -20.447800   47.536200   68.293700
  H    -20.892500   46.825300   69.044400
  H    -21.167500   47.906800   67.507600
  C    -19.202300   46.814600   67.815900
  H    -19.398900   45.858900   67.269500
  H    -18.790500   47.429600   66.967700
  H    -18.416300   46.580800   68.527000
  S    -20.877500   53.667300   64.792900
  C    -22.391100   54.460100   64.626400
  C    -22.986200   54.596200   65.943500
  C    -22.374700   53.706500   66.898900
  C    -21.218600   53.118300   66.445700
  H    -23.924600   55.016500   66.046200
  C    -23.099500   53.465400   68.215300
  H    -22.617400   52.688100   68.828300
  H    -24.105100   53.111700   68.015300
  C    -23.151000   54.654500   69.151000
  H    -23.332200   55.509000   68.502500
  H    -22.190500   54.854100   69.512200
  C    -24.037500   54.558600   70.441300
  H    -24.050100   55.535300   70.925400
  H    -23.484200   53.972900   71.183500
  H    -25.015700   54.126600   70.353500
  H    -17.594700   50.131900   68.185500
  H    -22.832700   54.896900   63.766000

 Total Charge           Charge          ....    0
 Multiplicity           Mult            ....    1
 Number of Electrons    NEL             ....  134
 Basis Dimension        Dim             ....  322

ORBITAL ENERGIES
----------------

  NO   OCC          E(Eh)            E(eV)
   0   2.0000     -88.968477     -2420.9553
   1   2.0000     -88.966898     -2420.9124
   2   2.0000     -10.341487      -281.4062
   3   2.0000     -10.332038      -281.1491
   4   2.0000     -10.325279      -280.9651
   5   2.0000     -10.320031      -280.8223
   6   2.0000     -10.308040      -280.4960
   7   2.0000     -10.306297      -280.4486
   8   2.0000     -10.298681      -280.2414
   9   2.0000     -10.296967      -280.1947
  10   2.0000     -10.295990      -280.1681
  11   2.0000     -10.295897      -280.1656
  12   2.0000     -10.290575      -280.0208
  13   2.0000     -10.281248      -279.7670
  14   2.0000     -10.281014      -279.7606
  15   2.0000     -10.280118      -279.7362
  16   2.0000      -8.083319      -219.9583
  17   2.0000      -8.079856      -219.8641
  18   2.0000      -6.041872      -164.4077
  19   2.0000      -6.038519      -164.3164
  20   2.0000      -6.037692      -164.2940
  21   2.0000      -6.034895      -164.2178
  22   2.0000      -6.034122      -164.1968
  23   2.0000      -6.030291      -164.0926
  24   2.0000      -0.999821       -27.2065
  25   2.0000      -0.975683       -26.5497
  26   2.0000      -0.911141       -24.7934
  27   2.0000      -0.910316       -24.7709
  28   2.0000      -0.863105       -23.4863
  29   2.0000      -0.850862       -23.1531
  30   2.0000      -0.841736       -22.9048
  31   2.0000      -0.809549       -22.0289
  32   2.0000      -0.785189       -21.3661
  33   2.0000      -0.773708       -21.0537
  34   2.0000      -0.705887       -19.2082
  35   2.0000      -0.698186       -18.9986
  36   2.0000      -0.690177       -18.7807
  37   2.0000      -0.667442       -18.1620
  38   2.0000      -0.642142       -17.4736
  39   2.0000      -0.620291       -16.8790
  40   2.0000      -0.598845       -16.2954
  41   2.0000      -0.573426       -15.6037
  42   2.0000      -0.562857       -15.3161
  43   2.0000      -0.549095       -14.9416
  44   2.0000      -0.538271       -14.6471
  45   2.0000      -0.525386       -14.2965
  46   2.0000      -0.517058       -14.0699
  47   2.0000      -0.511070       -13.9069
  48   2.0000      -0.503577       -13.7030
  49   2.0000      -0.498086       -13.5536
  50   2.0000      -0.488363       -13.2890
  51   2.0000      -0.482166       -13.1204
  52   2.0000      -0.470003       -12.7894
  53   2.0000      -0.460314       -12.5258
  54   2.0000      -0.458662       -12.4808
  55   2.0000      -0.452755       -12.3201
  56   2.0000      -0.442913       -12.0523
  57   2.0000      -0.437515       -11.9054
  58   2.0000      -0.433530       -11.7969
  59   2.0000      -0.427796       -11.6409
  60   2.0000      -0.419652       -11.4193
  61   2.0000      -0.407974       -11.1015
  62   2.0000      -0.407004       -11.0751
  63   2.0000      -0.351767        -9.5721
  64   2.0000      -0.331632        -9.0242
  65   2.0000      -0.330789        -9.0012
  66   2.0000      -0.285677        -7.7737
  67   0.0000       0.025546         0.6952
  68   0.0000       0.055963         1.5228
  69   0.0000       0.098202         2.6722
  70   0.0000       0.107230         2.9179
  71   0.0000       0.132685         3.6106

MULLIKEN ATOMIC CHARGES
-----------------------
   0 S :    0.080724
   1 C :   -0.114694
   2 C :   -0.078985
   3 C :    0.016179
   4 C :   -0.134751
   5 H :    0.018152
   6 C :    0.055769
   7 H :    0.034386
   8 H :    0.023742
   9 C :   -0.077830
  10 H :    0.039210
  11 H :    0.050865
  12 C :   -0.082014
  13 H :    0.036825
  14 H :    0.035972
  15 H :    0.038513
  16 S :    0.112974
  17 C :   -0.093345
  18 C :   -0.012774
  19 C :   -0.067573
  20 C :   -0.126038
  21 H :    0.005880
  22 C :    0.069289
  23 H :    0.017120
  24 H :    0.027025
  25 C :   -0.067436
  26 H :    0.015443
  27 H :    0.014005
  28 C :   -0.036368
  29 H :    0.036119
  30 H :    0.025193
  31 H :    0.035429
  32 H :    0.045299
  33 H :    0.057696
Sum of atomic charges:   -0.0000000

LOEWDIN ATOMIC CHARGES
----------------------
   0 S :    0.340747
   1 C :   -0.171594
   2 C :   -0.065471
   3 C :   -0.061799
   4 C :   -0.155032
   5 H :    0.030365
   6 C :   -0.029889
   7 H :    0.029144
   8 H :    0.032982
   9 C :   -0.045895
  10 H :    0.028598
  11 H :    0.035187
  12 C :   -0.080436
  13 H :    0.029783
  14 H :    0.031435
  15 H :    0.024735
  16 S :    0.414837
  17 C :   -0.182436
  18 C :   -0.063546
  19 C :   -0.051980
  20 C :   -0.196849
  21 H :    0.016087
  22 C :   -0.032978
  23 H :    0.028577
  24 H :    0.028212
  25 C :   -0.037780
  26 H :    0.018500
  27 H :    0.020644
  28 C :   -0.063530
  29 H :    0.032469
  30 H :    0.027396
  31 H :    0.020467
  32 H :    0.022520
  33 H :    0.026530

  Mayer bond orders larger than 0.100000
B(  0-S ,  1-C ) :   1.1256 B(  0-S ,  4-C ) :   1.1084 B(  1-C ,  2-C ) :   1.6439
B(  1-C , 32-H ) :   0.9647 B(  2-C ,  3-C ) :   1.1966 B(  2-C ,  6-C ) :   1.0180
B(  3-C ,  4-C ) :   1.6326 B(  3-C ,  5-H ) :   0.9846 B(  4-C , 20-C ) :   1.0350
B(  6-C ,  7-H ) :   0.9474 B(  6-C ,  8-H ) :   0.9441 B(  6-C ,  9-C ) :   1.0531
B(  9-C , 10-H ) :   0.9550 B(  9-C , 11-H ) :   0.9576 B(  9-C , 12-C ) :   1.0774
B( 12-C , 13-H ) :   0.9730 B( 12-C , 14-H ) :   0.9722 B( 12-C , 15-H ) :   0.9743
B( 16-S , 17-C ) :   1.1872 B( 16-S , 20-C ) :   1.1212 B( 17-C , 18-C ) :   1.5725
B( 17-C , 33-H ) :   0.9739 B( 18-C , 19-C ) :   1.2488 B( 18-C , 21-H ) :   0.9878
B( 19-C , 20-C ) :   1.6160 B( 19-C , 22-C ) :   1.0433 B( 22-C , 23-H ) :   0.9351
B( 22-C , 24-H ) :   0.9347 B( 22-C , 25-C ) :   1.0626 B( 25-C , 26-H ) :   0.9620
B( 25-C , 27-H ) :   0.9500 B( 25-C , 28-C ) :   1.0733 B( 28-C , 29-H ) :   0.9723
B( 28-C , 30-H ) :   0.9749 B( 28-C , 31-H ) :   0.9796

Dispersion correction           -0.013649001
FINAL SINGLE POINT ENERGY     -1339.860921110951

DIPOLE MOMENT
-------------
                                X             Y             Z
Electronic contribution:     11.56611      12.40484     -19.59987
Nuclear contribution   :    -12.10320     -12.67385      20.04321
                        -----------------------------------------
Total Dipole Moment    :     -0.53709      -0.26901       0.44334
                        -----------------------------------------
Magnitude (a.u.)       :      0.74658
Magnitude (Debye)      :      1.89765

Rotational constants in cm-1:     0.017809     0.007984     0.006313
Rotational constants in MHz :   533.907306   239.348882   189.246589

                             ****ORCA TERMINATED NORMALLY****
TOTAL RUN TIME: 0 days 0 hours 0 minutes 32 seconds 6 msec
