                         Program Version 4.2.1 -  RELEASE  -
|  1> ! wB97X-D3 SP def2-SVP
|  2> %pal
|  3> nprocs 16
|  4> end
|  5>
|  6> * xyz 0 1
|  7> S 	 -4.70284 	 -12.7987 	 69.9478
|  8> C 	 -4.24401 	 -13.6338 	 68.4363
|  9> C 	 -4.80191 	 -13.0775 	 67.2972
| 10> C 	 -5.37031 	 -11.8163 	 67.6633
| 11> C 	 -5.4979 	 -11.5933 	 68.9929
| 12> H 	 -5.85067 	 -11.1234 	 66.9591
| 13> C 	 -4.76436 	 -13.4328 	 65.848
| 14> H 	 -3.89887 	 -14.0619 	 65.7425
| 15> H 	 -4.43191 	 -12.5337 	 65.334
| 16> C 	 -6.09282 	 -14.0268 	 65.2278
| 17> H 	 -5.89422 	 -14.2699 	 64.1971
| 18> H 	 -6.28707 	 -14.942 	 65.7445
| 19> C 	 -7.41563 	 -13.237 	 65.3375
| 20> H 	 -8.34996 	 -13.7043 	 64.9533
| 21> H 	 -7.5531 	 -13.0583 	 66.3975
| 22> H 	 -7.28384 	 -12.3031 	 64.758
| 23> S 	 -7.24299 	 -10.8119 	 70.9839
| 24> C 	 -7.40418 	 -9.08731 	 71.2442
| 25> C 	 -6.66301 	 -8.27881 	 70.4424
| 26> C 	 -5.89295 	 -9.07896 	 69.5311
| 27> C 	 -6.15948 	 -10.4386 	 69.6503
| 28> H 	 -6.66834 	 -7.21249 	 70.4876
| 29> C 	 -4.82773 	 -8.44167 	 68.635
| 30> H 	 -4.18579 	 -9.26258 	 68.3195
| 31> H 	 -4.19278 	 -7.73579 	 69.2959
| 32> C 	 -5.39084 	 -7.70797 	 67.4732
| 33> H 	 -5.76452 	 -6.76583 	 67.8737
| 34> H 	 -6.32973 	 -8.15394 	 67.0182
| 35> C 	 -4.35957 	 -7.26056 	 66.4582
| 36> H 	 -3.58794 	 -6.69814 	 67.0096
| 37> H 	 -4.80524 	 -6.6553 	 65.7005
| 38> H 	 -3.90996 	 -8.14009 	 66.0233
| 39> H 	 -3.66658 	 -14.5673 	 68.3538
| 40> H 	 -7.89141 	 -8.67828 	 72.0232
| 41> *
| 42>
| 43>                          ****END OF INPUT****

CARTESIAN COORDINATES (ANGSTROEM)
---------------------------------
  S     -4.702840  -12.798700   69.947800
  C     -4.244010  -13.633800   68.436300
  C     -4.801910  -13.077500   67.297200
  C     -5.370310  -11.816300   67.663300
  C     -5.497900  -11.593300   68.992900
  H     -5.850670  -11.123400   66.959100
  C     -4.764360  -13.432800   65.848000
  H     -3.898870  -14.061900   65.742500
  H     -4.431910  -12.533700   65.334000
  C     -6.092820  -14.026800   65.227800
  H     -5.894220  -14.269900   64.197100
  H     -6.287070  -14.942000   65.744500
  C     -7.415630  -13.237000   65.337500
  H     -8.349960  -13.704300   64.953300
  H     -7.553100  -13.058300   66.397500
  H     -7.283840  -12.303100   64.758000
  S     -7.242990  -10.811900   70.983900
  C     -7.404180   -9.087310   71.244200
  C     -6.663010   -8.278810   70.442400
  C     -5.892950   -9.078960   69.531100
  C     -6.159480  -10.438600   69.650300
  H     -6.668340   -7.212490   70.487600
  C     -4.827730   -8.441670   68.635000
  H     -4.185790   -9.262580   68.319500
  H     -4.192780   -7.735790   69.295900
  C     -5.390840   -7.707970   67.473200
  H     -5.764520   -6.765830   67.873700
  H     -6.329730   -8.153940   67.018200
  C     -4.359570   -7.260560   66.458200
  H     -3.587940   -6.698140   67.009600
  H     -4.805240   -6.655300   65.700500
  H     -3.909960   -8.140090   66.023300
  H     -3.666580  -14.567300   68.353800
  H     -7.891410   -8.678280   72.023200

 Total Charge           Charge          ....    0
 Multiplicity           Mult            ....    1
 Number of Electrons    NEL             ....  134
 Basis Dimension        Dim             ....  322

ORBITAL ENERGIES
----------------

  NO   OCC          E(Eh)            E(eV)
   0   2.0000     -88.967908     -2420.9398
   1   2.0000     -88.967241     -2420.9217
   2   2.0000     -10.325293      -280.9655
   3   2.0000     -10.323402      -280.9141
   4   2.0000     -10.317475      -280.7528
   5   2.0000     -10.306546      -280.4554
   6   2.0000     -10.301797      -280.3261
   7   2.0000     -10.299547      -280.2649
   8   2.0000     -10.296252      -280.1753
   9   2.0000     -10.293526      -280.1011
  10   2.0000     -10.290345      -280.0145
  11   2.0000     -10.289171      -279.9826
  12   2.0000     -10.286709      -279.9156
  13   2.0000     -10.283374      -279.8248
  14   2.0000     -10.281212      -279.7660
  15   2.0000     -10.274675      -279.5881
  16   2.0000      -8.082286      -219.9302
  17   2.0000      -8.081950      -219.9210
  18   2.0000      -6.040882      -164.3807
  19   2.0000      -6.040351      -164.3663
  20   2.0000      -6.036980      -164.2746
  21   2.0000      -6.036735      -164.2679
  22   2.0000      -6.032840      -164.1619
  23   2.0000      -6.032562      -164.1544
  24   2.0000      -1.006364       -27.3846
  25   2.0000      -0.984117       -26.7792
  26   2.0000      -0.914781       -24.8925
  27   2.0000      -0.909778       -24.7563
  28   2.0000      -0.866497       -23.5786
  29   2.0000      -0.853012       -23.2116
  30   2.0000      -0.845833       -23.0163
  31   2.0000      -0.816097       -22.2071
  32   2.0000      -0.786464       -21.4008
  33   2.0000      -0.772212       -21.0129
  34   2.0000      -0.705159       -19.1883
  35   2.0000      -0.698396       -19.0043
  36   2.0000      -0.692530       -18.8447
  37   2.0000      -0.662401       -18.0248
  38   2.0000      -0.636774       -17.3275
  39   2.0000      -0.616128       -16.7657
  40   2.0000      -0.598194       -16.2777
  41   2.0000      -0.574054       -15.6208
  42   2.0000      -0.566511       -15.4155
  43   2.0000      -0.545948       -14.8560
  44   2.0000      -0.539682       -14.6855
  45   2.0000      -0.529621       -14.4117
  46   2.0000      -0.518158       -14.0998
  47   2.0000      -0.509446       -13.8627
  48   2.0000      -0.502359       -13.6699
  49   2.0000      -0.490502       -13.3472
  50   2.0000      -0.486326       -13.2336
  51   2.0000      -0.476532       -12.9671
  52   2.0000      -0.473472       -12.8838
  53   2.0000      -0.468029       -12.7357
  54   2.0000      -0.457443       -12.4477
  55   2.0000      -0.452895       -12.3239
  56   2.0000      -0.445347       -12.1185
  57   2.0000      -0.443530       -12.0691
  58   2.0000      -0.439209       -11.9515
  59   2.0000      -0.426741       -11.6122
  60   2.0000      -0.420354       -11.4384
  61   2.0000      -0.411826       -11.2063
  62   2.0000      -0.406566       -11.0632
  63   2.0000      -0.343413        -9.3447
  64   2.0000      -0.334004        -9.0887
  65   2.0000      -0.331089        -9.0094
  66   2.0000      -0.292819        -7.9680
  67   0.0000       0.037980         1.0335
  68   0.0000       0.068247         1.8571
  69   0.0000       0.105284         2.8649
  70   0.0000       0.115809         3.1513
  71   0.0000       0.128037         3.4841

MULLIKEN ATOMIC CHARGES
-----------------------
   0 S :    0.117934
   1 C :   -0.132386
   2 C :   -0.101519
   3 C :   -0.004070
   4 C :   -0.139778
   5 H :    0.017251
   6 C :    0.080557
   7 H :    0.011718
   8 H :    0.027383
   9 C :   -0.040941
  10 H :    0.029819
  11 H :    0.023637
  12 C :   -0.081109
  13 H :    0.046923
  14 H :    0.050173
  15 H :    0.032183
  16 S :    0.104126
  17 C :   -0.026958
  18 C :   -0.018425
  19 C :   -0.045285
  20 C :   -0.166051
  21 H :    0.012517
  22 C :    0.054387
  23 H :    0.026589
  24 H :    0.042718
  25 C :   -0.109428
  26 H :    0.012177
  27 H :    0.042612
  28 C :   -0.003807
  29 H :    0.026809
  30 H :    0.033256
  31 H :    0.025035
  32 H :    0.046703
  33 H :    0.005251
Sum of atomic charges:   -0.0000000

LOEWDIN ATOMIC CHARGES
----------------------
   0 S :    0.396151
   1 C :   -0.192180
   2 C :   -0.063913
   3 C :   -0.069273
   4 C :   -0.200036
   5 H :    0.032612
   6 C :   -0.030136
   7 H :    0.030633
   8 H :    0.033434
   9 C :   -0.031730
  10 H :    0.021554
  11 H :    0.022223
  12 C :   -0.070838
  13 H :    0.033801
  14 H :    0.027600
  15 H :    0.024193
  16 S :    0.396176
  17 C :   -0.159426
  18 C :   -0.060220
  19 C :   -0.049036
  20 C :   -0.198945
  21 H :    0.030475
  22 C :   -0.034738
  23 H :    0.026409
  24 H :    0.040885
  25 C :   -0.055008
  26 H :    0.020716
  27 H :    0.029595
  28 C :   -0.056488
  29 H :    0.028382
  30 H :    0.023631
  31 H :    0.020655
  32 H :    0.029650
  33 H :    0.003193

  Mayer bond orders larger than 0.100000
B(  0-S ,  1-C ) :   1.1213 B(  0-S ,  4-C ) :   1.1370 B(  1-C ,  2-C ) :   1.6487
B(  1-C , 32-H ) :   0.9594 B(  2-C ,  3-C ) :   1.2057 B(  2-C ,  6-C ) :   1.0142
B(  3-C ,  4-C ) :   1.6231 B(  3-C ,  5-H ) :   0.9869 B(  4-C , 20-C ) :   1.0117
B(  6-C ,  7-H ) :   0.9350 B(  6-C ,  8-H ) :   0.9409 B(  6-C ,  9-C ) :   1.0550
B(  9-C , 10-H ) :   0.9587 B(  9-C , 11-H ) :   0.9557 B(  9-C , 12-C ) :   1.0797
B( 12-C , 13-H ) :   0.9729 B( 12-C , 14-H ) :   0.9705 B( 12-C , 15-H ) :   0.9755
B( 16-S , 17-C ) :   1.1423 B( 16-S , 20-C ) :   1.1258 B( 17-C , 18-C ) :   1.6419
B( 17-C , 33-H ) :   0.9728 B( 18-C , 19-C ) :   1.2167 B( 18-C , 21-H ) :   0.9942
B( 19-C , 20-C ) :   1.6306 B( 19-C , 22-C ) :   1.0374 B( 22-C , 23-H ) :   0.9347
B( 22-C , 24-H ) :   0.9334 B( 22-C , 25-C ) :   1.0575 B( 25-C , 26-H ) :   0.9462
B( 25-C , 27-H ) :   0.9561 B( 25-C , 28-C ) :   1.0891 B( 28-C , 29-H ) :   0.9685
B( 28-C , 30-H ) :   0.9733 B( 28-C , 31-H ) :   0.9759

Dispersion correction           -0.014624316
FINAL SINGLE POINT ENERGY     -1339.874630187830

DIPOLE MOMENT
-------------
                                X             Y             Z
Electronic contribution:     -2.14439      -7.95425      25.95462
Nuclear contribution   :      2.23572       8.26493     -26.46146
                        -----------------------------------------
Total Dipole Moment    :      0.09134       0.31068      -0.50684
                        -----------------------------------------
Magnitude (a.u.)       :      0.60146
Magnitude (Debye)      :      1.52879

Rotational constants in cm-1:     0.016192     0.009708     0.007560
Rotational constants in MHz :   485.430736   291.035506   226.654681

                             ****ORCA TERMINATED NORMALLY****
TOTAL RUN TIME: 0 days 0 hours 0 minutes 35 seconds 516 msec
