                         Program Version 4.2.1 -  RELEASE  -
|  1> ! wB97X-D3 SP def2-SVP
|  2> %pal
|  3> nprocs 16
|  4> end
|  5>
|  6> * xyz 0 1
|  7> S 	 -33.5159 	 31.7014 	 40.9986
|  8> C 	 -31.7729 	 31.9875 	 40.7851
|  9> C 	 -31.039 	 31.6978 	 41.9224
| 10> C 	 -31.9496 	 31.3873 	 43.0249
| 11> C 	 -33.2828 	 31.3272 	 42.6777
| 12> H 	 -31.5561 	 31.06 	 43.9928
| 13> C 	 -29.4362 	 31.9128 	 42.0394
| 14> H 	 -29.2114 	 31.6605 	 43.0698
| 15> H 	 -29.2375 	 32.9361 	 41.8726
| 16> C 	 -28.5147 	 31.215 	 41.104
| 17> H 	 -28.8119 	 31.4749 	 40.1273
| 18> H 	 -27.541 	 31.7252 	 41.2076
| 19> C 	 -28.451 	 29.6097 	 41.2396
| 20> H 	 -29.3964 	 29.2311 	 40.8061
| 21> H 	 -27.6992 	 29.1675 	 40.5562
| 22> H 	 -28.3624 	 29.2411 	 42.2305
| 23> S 	 -35.5667 	 29.864 	 42.5961
| 24> C 	 -36.5016 	 29.4968 	 44.1106
| 25> C 	 -35.995 	 30.2824 	 45.1408
| 26> C 	 -34.9069 	 31.0861 	 44.721
| 27> C 	 -34.42 	 30.8605 	 43.476
| 28> H 	 -36.4591 	 30.2334 	 46.0936
| 29> C 	 -34.1939 	 32.0638 	 45.746
| 30> H 	 -34.8494 	 32.9121 	 45.9379
| 31> H 	 -33.2439 	 32.3838 	 45.3398
| 32> C 	 -33.829 	 31.4012 	 47.0937
| 33> H 	 -34.7439 	 31.0069 	 47.6128
| 34> H 	 -33.431 	 32.2147 	 47.6843
| 35> C 	 -32.8594 	 30.2544 	 47.0069
| 36> H 	 -32.1021 	 30.563 	 46.3427
| 37> H 	 -33.3982 	 29.3722 	 46.5845
| 38> H 	 -32.3916 	 30.2133 	 48.0392
| 39> H 	 -31.3617 	 32.3763 	 39.872
| 40> H 	 -37.2338 	 28.7571 	 44.2838
| 41> *
| 42>
| 43>                          ****END OF INPUT****

CARTESIAN COORDINATES (ANGSTROEM)
---------------------------------
  S    -33.515900   31.701400   40.998600
  C    -31.772900   31.987500   40.785100
  C    -31.039000   31.697800   41.922400
  C    -31.949600   31.387300   43.024900
  C    -33.282800   31.327200   42.677700
  H    -31.556100   31.060000   43.992800
  C    -29.436200   31.912800   42.039400
  H    -29.211400   31.660500   43.069800
  H    -29.237500   32.936100   41.872600
  C    -28.514700   31.215000   41.104000
  H    -28.811900   31.474900   40.127300
  H    -27.541000   31.725200   41.207600
  C    -28.451000   29.609700   41.239600
  H    -29.396400   29.231100   40.806100
  H    -27.699200   29.167500   40.556200
  H    -28.362400   29.241100   42.230500
  S    -35.566700   29.864000   42.596100
  C    -36.501600   29.496800   44.110600
  C    -35.995000   30.282400   45.140800
  C    -34.906900   31.086100   44.721000
  C    -34.420000   30.860500   43.476000
  H    -36.459100   30.233400   46.093600
  C    -34.193900   32.063800   45.746000
  H    -34.849400   32.912100   45.937900
  H    -33.243900   32.383800   45.339800
  C    -33.829000   31.401200   47.093700
  H    -34.743900   31.006900   47.612800
  H    -33.431000   32.214700   47.684300
  C    -32.859400   30.254400   47.006900
  H    -32.102100   30.563000   46.342700
  H    -33.398200   29.372200   46.584500
  H    -32.391600   30.213300   48.039200
  H    -31.361700   32.376300   39.872000
  H    -37.233800   28.757100   44.283800

 Total Charge           Charge          ....    0
 Multiplicity           Mult            ....    1
 Number of Electrons    NEL             ....  134
 Basis Dimension        Dim             ....  322

ORBITAL ENERGIES
----------------

  NO   OCC          E(Eh)            E(eV)
   0   2.0000     -88.968451     -2420.9546
   1   2.0000     -88.963166     -2420.8108
   2   2.0000     -10.334597      -281.2187
   3   2.0000     -10.328351      -281.0487
   4   2.0000     -10.322205      -280.8815
   5   2.0000     -10.316976      -280.7392
   6   2.0000     -10.311593      -280.5927
   7   2.0000     -10.302836      -280.3544
   8   2.0000     -10.301133      -280.3081
   9   2.0000     -10.297001      -280.1956
  10   2.0000     -10.295499      -280.1548
  11   2.0000     -10.290958      -280.0312
  12   2.0000     -10.289776      -279.9990
  13   2.0000     -10.283198      -279.8200
  14   2.0000     -10.282196      -279.7928
  15   2.0000     -10.277501      -279.6650
  16   2.0000      -8.083073      -219.9516
  17   2.0000      -8.077104      -219.7892
  18   2.0000      -6.041688      -164.4027
  19   2.0000      -6.037658      -164.2930
  20   2.0000      -6.035873      -164.2444
  21   2.0000      -6.033654      -164.1841
  22   2.0000      -6.031733      -164.1318
  23   2.0000      -6.027598      -164.0193
  24   2.0000      -1.006519       -27.3888
  25   2.0000      -0.979945       -26.6657
  26   2.0000      -0.910106       -24.7652
  27   2.0000      -0.906077       -24.6556
  28   2.0000      -0.869790       -23.6682
  29   2.0000      -0.846132       -23.0244
  30   2.0000      -0.836863       -22.7722
  31   2.0000      -0.814831       -22.1727
  32   2.0000      -0.786864       -21.4117
  33   2.0000      -0.775330       -21.0978
  34   2.0000      -0.706279       -19.2188
  35   2.0000      -0.703661       -19.1476
  36   2.0000      -0.688464       -18.7340
  37   2.0000      -0.662283       -18.0216
  38   2.0000      -0.639664       -17.4061
  39   2.0000      -0.616532       -16.7767
  40   2.0000      -0.594722       -16.1832
  41   2.0000      -0.572230       -15.5712
  42   2.0000      -0.554511       -15.0890
  43   2.0000      -0.550821       -14.9886
  44   2.0000      -0.546279       -14.8650
  45   2.0000      -0.537082       -14.6147
  46   2.0000      -0.522511       -14.2182
  47   2.0000      -0.514683       -14.0052
  48   2.0000      -0.507326       -13.8051
  49   2.0000      -0.494178       -13.4473
  50   2.0000      -0.487173       -13.2567
  51   2.0000      -0.478401       -13.0180
  52   2.0000      -0.470108       -12.7923
  53   2.0000      -0.462465       -12.5843
  54   2.0000      -0.458668       -12.4810
  55   2.0000      -0.448844       -12.2137
  56   2.0000      -0.444602       -12.0982
  57   2.0000      -0.437225       -11.8975
  58   2.0000      -0.430213       -11.7067
  59   2.0000      -0.428481       -11.6596
  60   2.0000      -0.417694       -11.3660
  61   2.0000      -0.410785       -11.1780
  62   2.0000      -0.405120       -11.0239
  63   2.0000      -0.355248        -9.6668
  64   2.0000      -0.334421        -9.1001
  65   2.0000      -0.329553        -8.9676
  66   2.0000      -0.291314        -7.9271
  67   0.0000       0.026972         0.7339
  68   0.0000       0.065714         1.7882
  69   0.0000       0.096197         2.6177
  70   0.0000       0.118571         3.2265
  71   0.0000       0.132689         3.6107

MULLIKEN ATOMIC CHARGES
-----------------------
   0 S :    0.105274
   1 C :   -0.133772
   2 C :   -0.092339
   3 C :    0.010786
   4 C :   -0.114031
   5 H :    0.011484
   6 C :    0.087683
   7 H :    0.014061
   8 H :    0.032942
   9 C :   -0.060539
  10 H :    0.008587
  11 H :    0.030818
  12 C :   -0.059691
  13 H :    0.040417
  14 H :    0.039363
  15 H :    0.034258
  16 S :    0.072149
  17 C :   -0.069990
  18 C :   -0.033850
  19 C :   -0.053480
  20 C :   -0.128007
  21 H :    0.015876
  22 C :    0.086173
  23 H :    0.038608
  24 H :    0.013774
  25 C :   -0.129977
  26 H :    0.030367
  27 H :    0.027448
  28 C :   -0.022359
  29 H :    0.003859
  30 H :    0.057463
  31 H :    0.045891
  32 H :    0.046170
  33 H :    0.044585
Sum of atomic charges:    0.0000000

LOEWDIN ATOMIC CHARGES
----------------------
   0 S :    0.398877
   1 C :   -0.186301
   2 C :   -0.058086
   3 C :   -0.070481
   4 C :   -0.191139
   5 H :    0.028776
   6 C :   -0.019484
   7 H :    0.024928
   8 H :    0.031408
   9 C :   -0.038306
  10 H :    0.015897
  11 H :    0.028932
  12 C :   -0.066125
  13 H :    0.032530
  14 H :    0.030203
  15 H :    0.018517
  16 S :    0.368489
  17 C :   -0.153674
  18 C :   -0.065106
  19 C :   -0.064969
  20 C :   -0.187290
  21 H :    0.029089
  22 C :   -0.022135
  23 H :    0.032582
  24 H :    0.023043
  25 C :   -0.049789
  26 H :    0.020742
  27 H :    0.021337
  28 C :   -0.066704
  29 H :    0.011261
  30 H :    0.036881
  31 H :    0.039656
  32 H :    0.022608
  33 H :    0.023835

  Mayer bond orders larger than 0.100000
B(  0-S ,  1-C ) :   1.1262 B(  0-S ,  4-C ) :   1.1449 B(  1-C ,  2-C ) :   1.6327
B(  1-C , 32-H ) :   0.9722 B(  2-C ,  3-C ) :   1.2409 B(  2-C ,  6-C ) :   0.9862
B(  3-C ,  4-C ) :   1.5882 B(  3-C ,  5-H ) :   0.9872 B(  4-C , 20-C ) :   1.0324
B(  6-C ,  7-H ) :   0.9452 B(  6-C ,  8-H ) :   0.9432 B(  6-C ,  9-C ) :   1.0882
B(  9-C , 10-H ) :   0.9536 B(  9-C , 11-H ) :   0.9541 B(  9-C , 12-C ) :   1.0583
B( 12-C , 13-H ) :   0.9757 B( 12-C , 14-H ) :   0.9777 B( 12-C , 15-H ) :   0.9825
B( 16-S , 17-C ) :   1.1328 B( 16-S , 20-C ) :   1.1123 B( 17-C , 18-C ) :   1.6306
B( 17-C , 20-C ) :   0.1028 B( 17-C , 33-H ) :   0.9727 B( 18-C , 19-C ) :   1.2119
B( 18-C , 21-H ) :   0.9959 B( 19-C , 20-C ) :   1.6374 B( 19-C , 22-C ) :   1.0238
B( 22-C , 23-H ) :   0.9361 B( 22-C , 24-H ) :   0.9423 B( 22-C , 25-C ) :   1.0774
B( 25-C , 26-H ) :   0.9519 B( 25-C , 27-H ) :   0.9561 B( 25-C , 28-C ) :   1.0727
B( 28-C , 29-H ) :   0.9749 B( 28-C , 30-H ) :   0.9701 B( 28-C , 31-H ) :   0.9695

Dispersion correction           -0.014441106
FINAL SINGLE POINT ENERGY     -1339.863341855804

DIPOLE MOMENT
-------------
                                X             Y             Z
Electronic contribution:    -22.32296       0.93085     -13.65620
Nuclear contribution   :     22.81102      -0.80146      14.08958
                        -----------------------------------------
Total Dipole Moment    :      0.48806       0.12939       0.43338
                        -----------------------------------------
Magnitude (a.u.)       :      0.66540
Magnitude (Debye)      :      1.69133

Rotational constants in cm-1:     0.019987     0.008233     0.006659
Rotational constants in MHz :   599.201448   246.805205   199.642811

                             ****ORCA TERMINATED NORMALLY****
TOTAL RUN TIME: 0 days 0 hours 0 minutes 33 seconds 892 msec
