                         Program Version 4.2.1 -  RELEASE  -
|  1> ! wB97X-D3 SP def2-SVP
|  2> %pal
|  3> nprocs 16
|  4> end
|  5>
|  6> * xyz 0 1
|  7> S 	 -13.5811 	 69.0528 	 50.1454
|  8> C 	 -14.3618 	 67.7446 	 49.2743
|  9> C 	 -15.241 	 68.2678 	 48.3912
| 10> C 	 -15.3834 	 69.7067 	 48.5025
| 11> C 	 -14.5609 	 70.2589 	 49.4452
| 12> H 	 -16.1085 	 70.273 	 47.9677
| 13> C 	 -16.0305 	 67.4473 	 47.3215
| 14> H 	 -16.9436 	 68.0331 	 47.0987
| 15> H 	 -16.3183 	 66.4532 	 47.71
| 16> C 	 -15.2606 	 67.296 	 46.0782
| 17> H 	 -14.8549 	 68.2849 	 45.7703
| 18> H 	 -14.3386 	 66.7771 	 46.3349
| 19> C 	 -15.9732 	 66.4944 	 44.9255
| 20> H 	 -15.3345 	 66.2131 	 44.0555
| 21> H 	 -16.5097 	 65.6416 	 45.3941
| 22> H 	 -16.8084 	 67.1554 	 44.5883
| 23> S 	 -14.6031 	 72.1201 	 51.5876
| 24> C 	 -14.0638 	 73.7766 	 51.294
| 25> C 	 -13.8129 	 73.9825 	 49.9027
| 26> C 	 -13.9759 	 72.746 	 49.0771
| 27> C 	 -14.3861 	 71.6621 	 49.8624
| 28> H 	 -13.3956 	 74.8952 	 49.6451
| 29> C 	 -13.5601 	 72.6188 	 47.6017
| 30> H 	 -14.2931 	 71.9483 	 47.1434
| 31> H 	 -12.692 	 72.0211 	 47.5685
| 32> C 	 -13.2919 	 73.909 	 46.8575
| 33> H 	 -12.5428 	 74.5172 	 47.4204
| 34> H 	 -14.2021 	 74.4708 	 46.9486
| 35> C 	 -12.9131 	 73.6926 	 45.328
| 36> H 	 -13.5872 	 72.9885 	 44.8255
| 37> H 	 -11.9151 	 73.3725 	 45.1813
| 38> H 	 -12.9877 	 74.5709 	 44.7277
| 39> H 	 -14.1595 	 66.7064 	 49.3821
| 40> H 	 -14.0354 	 74.6003 	 51.9393
| 41> *
| 42>
| 43>                          ****END OF INPUT****

CARTESIAN COORDINATES (ANGSTROEM)
---------------------------------
  S    -13.581100   69.052800   50.145400
  C    -14.361800   67.744600   49.274300
  C    -15.241000   68.267800   48.391200
  C    -15.383400   69.706700   48.502500
  C    -14.560900   70.258900   49.445200
  H    -16.108500   70.273000   47.967700
  C    -16.030500   67.447300   47.321500
  H    -16.943600   68.033100   47.098700
  H    -16.318300   66.453200   47.710000
  C    -15.260600   67.296000   46.078200
  H    -14.854900   68.284900   45.770300
  H    -14.338600   66.777100   46.334900
  C    -15.973200   66.494400   44.925500
  H    -15.334500   66.213100   44.055500
  H    -16.509700   65.641600   45.394100
  H    -16.808400   67.155400   44.588300
  S    -14.603100   72.120100   51.587600
  C    -14.063800   73.776600   51.294000
  C    -13.812900   73.982500   49.902700
  C    -13.975900   72.746000   49.077100
  C    -14.386100   71.662100   49.862400
  H    -13.395600   74.895200   49.645100
  C    -13.560100   72.618800   47.601700
  H    -14.293100   71.948300   47.143400
  H    -12.692000   72.021100   47.568500
  C    -13.291900   73.909000   46.857500
  H    -12.542800   74.517200   47.420400
  H    -14.202100   74.470800   46.948600
  C    -12.913100   73.692600   45.328000
  H    -13.587200   72.988500   44.825500
  H    -11.915100   73.372500   45.181300
  H    -12.987700   74.570900   44.727700
  H    -14.159500   66.706400   49.382100
  H    -14.035400   74.600300   51.939300

 Total Charge           Charge          ....    0
 Multiplicity           Mult            ....    1
 Number of Electrons    NEL             ....  134
 Basis Dimension        Dim             ....  322

ORBITAL ENERGIES
----------------

  NO   OCC          E(Eh)            E(eV)
   0   2.0000     -88.969681     -2420.9881
   1   2.0000     -88.962885     -2420.8032
   2   2.0000     -10.332513      -281.1620
   3   2.0000     -10.328258      -281.0462
   4   2.0000     -10.322977      -280.9025
   5   2.0000     -10.316133      -280.7162
   6   2.0000     -10.310415      -280.5607
   7   2.0000     -10.302325      -280.3405
   8   2.0000     -10.300913      -280.3021
   9   2.0000     -10.295892      -280.1655
  10   2.0000     -10.293266      -280.0940
  11   2.0000     -10.293142      -280.0906
  12   2.0000     -10.290181      -280.0101
  13   2.0000     -10.288826      -279.9732
  14   2.0000     -10.285278      -279.8766
  15   2.0000     -10.279676      -279.7242
  16   2.0000      -8.082894      -219.9467
  17   2.0000      -8.078628      -219.8307
  18   2.0000      -6.041641      -164.4014
  19   2.0000      -6.037496      -164.2886
  20   2.0000      -6.037224      -164.2812
  21   2.0000      -6.033605      -164.1827
  22   2.0000      -6.032847      -164.1621
  23   2.0000      -6.029364      -164.0673
  24   2.0000      -1.008003       -27.4292
  25   2.0000      -0.974862       -26.5274
  26   2.0000      -0.915130       -24.9020
  27   2.0000      -0.906494       -24.6670
  28   2.0000      -0.868474       -23.6324
  29   2.0000      -0.845081       -22.9958
  30   2.0000      -0.838154       -22.8073
  31   2.0000      -0.815909       -22.2020
  32   2.0000      -0.784611       -21.3504
  33   2.0000      -0.775612       -21.1055
  34   2.0000      -0.712626       -19.3915
  35   2.0000      -0.701787       -19.0966
  36   2.0000      -0.695298       -18.9200
  37   2.0000      -0.654284       -17.8040
  38   2.0000      -0.647027       -17.6065
  39   2.0000      -0.622455       -16.9379
  40   2.0000      -0.592451       -16.1214
  41   2.0000      -0.571827       -15.5602
  42   2.0000      -0.565613       -15.3911
  43   2.0000      -0.560386       -15.2489
  44   2.0000      -0.530503       -14.4357
  45   2.0000      -0.524564       -14.2741
  46   2.0000      -0.514555       -14.0017
  47   2.0000      -0.512172       -13.9369
  48   2.0000      -0.503270       -13.6947
  49   2.0000      -0.497998       -13.5512
  50   2.0000      -0.494917       -13.4674
  51   2.0000      -0.479453       -13.0466
  52   2.0000      -0.473580       -12.8868
  53   2.0000      -0.463021       -12.5994
  54   2.0000      -0.458856       -12.4861
  55   2.0000      -0.450622       -12.2621
  56   2.0000      -0.449555       -12.2330
  57   2.0000      -0.440623       -11.9900
  58   2.0000      -0.435563       -11.8523
  59   2.0000      -0.426467       -11.6048
  60   2.0000      -0.420138       -11.4325
  61   2.0000      -0.417917       -11.3721
  62   2.0000      -0.406261       -11.0549
  63   2.0000      -0.342583        -9.3222
  64   2.0000      -0.332015        -9.0346
  65   2.0000      -0.326380        -8.8812
  66   2.0000      -0.301152        -8.1948
  67   0.0000       0.031637         0.8609
  68   0.0000       0.067612         1.8398
  69   0.0000       0.117854         3.2070
  70   0.0000       0.119105         3.2410
  71   0.0000       0.128777         3.5042

MULLIKEN ATOMIC CHARGES
-----------------------
   0 S :    0.109173
   1 C :   -0.109935
   2 C :   -0.103588
   3 C :    0.045980
   4 C :   -0.163359
   5 H :    0.004078
   6 C :    0.065699
   7 H :    0.020720
   8 H :    0.026464
   9 C :   -0.078048
  10 H :    0.023576
  11 H :    0.014728
  12 C :   -0.051258
  13 H :    0.058822
  14 H :    0.031947
  15 H :    0.030948
  16 S :    0.115365
  17 C :   -0.068134
  18 C :   -0.045176
  19 C :   -0.038329
  20 C :   -0.158149
  21 H :    0.000237
  22 C :    0.108813
  23 H :    0.013671
  24 H :    0.024305
  25 C :   -0.090759
  26 H :    0.040353
  27 H :    0.026322
  28 C :   -0.013725
  29 H :    0.028576
  30 H :    0.027410
  31 H :    0.023396
  32 H :    0.037068
  33 H :    0.042811
Sum of atomic charges:   -0.0000000

LOEWDIN ATOMIC CHARGES
----------------------
   0 S :    0.422996
   1 C :   -0.190596
   2 C :   -0.058621
   3 C :   -0.065875
   4 C :   -0.203974
   5 H :    0.026160
   6 C :   -0.029585
   7 H :    0.028592
   8 H :    0.029363
   9 C :   -0.052674
  10 H :    0.024972
  11 H :    0.019548
  12 C :   -0.072041
  13 H :    0.034227
  14 H :    0.027857
  15 H :    0.027571
  16 S :    0.387518
  17 C :   -0.172240
  18 C :   -0.065760
  19 C :   -0.037803
  20 C :   -0.198245
  21 H :    0.016015
  22 C :   -0.033890
  23 H :    0.032220
  24 H :    0.030198
  25 C :   -0.039014
  26 H :    0.028683
  27 H :    0.021654
  28 C :   -0.059422
  29 H :    0.028487
  30 H :    0.021302
  31 H :    0.024389
  32 H :    0.025991
  33 H :    0.021997

  Mayer bond orders larger than 0.100000
B(  0-S ,  1-C ) :   1.1249 B(  0-S ,  4-C ) :   1.1750 B(  1-C ,  2-C ) :   1.6339
B(  1-C , 32-H ) :   0.9765 B(  2-C ,  3-C ) :   1.2337 B(  2-C ,  6-C ) :   1.0173
B(  3-C ,  4-C ) :   1.5820 B(  3-C ,  5-H ) :   0.9994 B(  4-C , 20-C ) :   1.0139
B(  6-C ,  7-H ) :   0.9397 B(  6-C ,  8-H ) :   0.9392 B(  6-C ,  9-C ) :   1.0723
B(  9-C , 10-H ) :   0.9516 B(  9-C , 11-H ) :   0.9520 B(  9-C , 12-C ) :   1.0639
B( 12-C , 13-H ) :   0.9755 B( 12-C , 14-H ) :   0.9725 B( 12-C , 15-H ) :   0.9754
B( 16-S , 17-C ) :   1.1485 B( 16-S , 20-C ) :   1.1265 B( 17-C , 18-C ) :   1.6315
B( 17-C , 33-H ) :   0.9684 B( 18-C , 19-C ) :   1.2092 B( 18-C , 21-H ) :   0.9922
B( 19-C , 20-C ) :   1.6141 B( 19-C , 22-C ) :   1.0349 B( 22-C , 23-H ) :   0.9221
B( 22-C , 24-H ) :   0.9221 B( 22-C , 25-C ) :   1.0722 B( 25-C , 26-H ) :   0.9494
B( 25-C , 27-H ) :   0.9595 B( 25-C , 28-C ) :   1.0716 B( 28-C , 29-H ) :   0.9760
B( 28-C , 30-H ) :   0.9769 B( 28-C , 31-H ) :   0.9751

Dispersion correction           -0.013596610
FINAL SINGLE POINT ENERGY     -1339.875998069091

DIPOLE MOMENT
-------------
                                X             Y             Z
Electronic contribution:      1.96866       2.63821      31.01309
Nuclear contribution   :     -1.95400      -2.54628     -31.68963
                        -----------------------------------------
Total Dipole Moment    :      0.01466       0.09193      -0.67653
                        -----------------------------------------
Magnitude (a.u.)       :      0.68291
Magnitude (Debye)      :      1.73581

Rotational constants in cm-1:     0.017076     0.008379     0.006064
Rotational constants in MHz :   511.910841   251.197575   181.783714

                             ****ORCA TERMINATED NORMALLY****
TOTAL RUN TIME: 0 days 0 hours 0 minutes 32 seconds 896 msec
