                         Program Version 4.2.1 -  RELEASE  -
|  1> ! wB97X-D3 SP def2-SVP
|  2> %pal
|  3> nprocs 16
|  4> end
|  5>
|  6> * xyz 0 1
|  7> S 	 41.2017 	 13.7303 	 87.6622
|  8> C 	 42.5638 	 14.7276 	 87.2347
|  9> C 	 43.1632 	 14.2775 	 86.051
| 10> C 	 42.7099 	 12.9508 	 85.6497
| 11> C 	 41.619 	 12.5401 	 86.4343
| 12> H 	 43.0797 	 12.3559 	 84.8511
| 13> C 	 44.2629 	 14.997 	 85.309
| 14> H 	 44.7745 	 14.3395 	 84.6512
| 15> H 	 45.1555 	 15.2445 	 86.0154
| 16> C 	 43.7408 	 16.1829 	 84.4218
| 17> H 	 44.5876 	 16.5417 	 83.9378
| 18> H 	 43.0273 	 15.9917 	 83.6273
| 19> C 	 43.3349 	 17.3681 	 85.3164
| 20> H 	 42.4228 	 17.1049 	 85.9235
| 21> H 	 44.0304 	 17.7596 	 86.1577
| 22> H 	 42.9838 	 18.2039 	 84.7193
| 23> S 	 39.3746 	 11.3469 	 85.552
| 24> C 	 39.0199 	 9.6433 	 85.9825
| 25> C 	 40.1023 	 9.06237 	 86.63
| 26> C 	 41.165 	 9.98213 	 86.9313
| 27> C 	 40.888 	 11.2663 	 86.3805
| 28> H 	 39.9244 	 8.07128 	 87.0546
| 29> C 	 42.3542 	 9.56395 	 87.8403
| 30> H 	 42.9071 	 10.536 	 87.7698
| 31> H 	 42.9353 	 8.75942 	 87.375
| 32> C 	 41.8749 	 9.41518 	 89.263
| 33> H 	 41.1192 	 8.60608 	 89.329
| 34> H 	 41.4098 	 10.3502 	 89.4866
| 35> C 	 43.0472 	 9.16833 	 90.1846
| 36> H 	 43.7169 	 9.92368 	 89.9467
| 37> H 	 43.6157 	 8.24347 	 89.9356
| 38> H 	 42.7083 	 9.21409 	 91.1652
| 39> H 	 42.9168 	 15.5482 	 87.8152
| 40> H 	 38.1689 	 9.05524 	 85.7802
| 41> *
| 42>
| 43>                          ****END OF INPUT****

CARTESIAN COORDINATES (ANGSTROEM)
---------------------------------
  S     41.201700   13.730300   87.662200
  C     42.563800   14.727600   87.234700
  C     43.163200   14.277500   86.051000
  C     42.709900   12.950800   85.649700
  C     41.619000   12.540100   86.434300
  H     43.079700   12.355900   84.851100
  C     44.262900   14.997000   85.309000
  H     44.774500   14.339500   84.651200
  H     45.155500   15.244500   86.015400
  C     43.740800   16.182900   84.421800
  H     44.587600   16.541700   83.937800
  H     43.027300   15.991700   83.627300
  C     43.334900   17.368100   85.316400
  H     42.422800   17.104900   85.923500
  H     44.030400   17.759600   86.157700
  H     42.983800   18.203900   84.719300
  S     39.374600   11.346900   85.552000
  C     39.019900    9.643300   85.982500
  C     40.102300    9.062370   86.630000
  C     41.165000    9.982130   86.931300
  C     40.888000   11.266300   86.380500
  H     39.924400    8.071280   87.054600
  C     42.354200    9.563950   87.840300
  H     42.907100   10.536000   87.769800
  H     42.935300    8.759420   87.375000
  C     41.874900    9.415180   89.263000
  H     41.119200    8.606080   89.329000
  H     41.409800   10.350200   89.486600
  C     43.047200    9.168330   90.184600
  H     43.716900    9.923680   89.946700
  H     43.615700    8.243470   89.935600
  H     42.708300    9.214090   91.165200
  H     42.916800   15.548200   87.815200
  H     38.168900    9.055240   85.780200

 Total Charge           Charge          ....    0
 Multiplicity           Mult            ....    1
 Number of Electrons    NEL             ....  134
 Basis Dimension        Dim             ....  322

ORBITAL ENERGIES
----------------

  NO   OCC          E(Eh)            E(eV)
   0   2.0000     -88.967713     -2420.9345
   1   2.0000     -88.966018     -2420.8884
   2   2.0000     -10.331551      -281.1358
   3   2.0000     -10.326910      -281.0095
   4   2.0000     -10.314816      -280.6804
   5   2.0000     -10.314460      -280.6707
   6   2.0000     -10.307066      -280.4695
   7   2.0000     -10.305617      -280.4301
   8   2.0000     -10.300051      -280.2786
   9   2.0000     -10.298660      -280.2408
  10   2.0000     -10.292044      -280.0608
  11   2.0000     -10.291600      -280.0487
  12   2.0000     -10.287111      -279.9265
  13   2.0000     -10.282789      -279.8089
  14   2.0000     -10.279299      -279.7139
  15   2.0000     -10.264621      -279.3145
  16   2.0000      -8.082252      -219.9293
  17   2.0000      -8.080262      -219.8751
  18   2.0000      -6.040682      -164.3753
  19   2.0000      -6.038806      -164.3243
  20   2.0000      -6.036753      -164.2684
  21   2.0000      -6.034787      -164.2149
  22   2.0000      -6.033139      -164.1701
  23   2.0000      -6.031059      -164.1135
  24   2.0000      -0.999916       -27.2091
  25   2.0000      -0.976523       -26.5726
  26   2.0000      -0.913461       -24.8565
  27   2.0000      -0.906746       -24.6738
  28   2.0000      -0.864754       -23.5312
  29   2.0000      -0.846874       -23.0446
  30   2.0000      -0.845787       -23.0150
  31   2.0000      -0.811387       -22.0790
  32   2.0000      -0.778561       -21.1857
  33   2.0000      -0.767376       -20.8814
  34   2.0000      -0.706003       -19.2113
  35   2.0000      -0.697170       -18.9710
  36   2.0000      -0.692765       -18.8511
  37   2.0000      -0.654302       -17.8045
  38   2.0000      -0.647609       -17.6223
  39   2.0000      -0.612544       -16.6682
  40   2.0000      -0.586983       -15.9726
  41   2.0000      -0.571307       -15.5461
  42   2.0000      -0.567718       -15.4484
  43   2.0000      -0.544752       -14.8235
  44   2.0000      -0.540380       -14.7045
  45   2.0000      -0.534554       -14.5459
  46   2.0000      -0.515064       -14.0156
  47   2.0000      -0.512694       -13.9511
  48   2.0000      -0.501718       -13.6525
  49   2.0000      -0.496327       -13.5058
  50   2.0000      -0.488235       -13.2855
  51   2.0000      -0.478387       -13.0176
  52   2.0000      -0.464948       -12.6519
  53   2.0000      -0.461165       -12.5489
  54   2.0000      -0.456018       -12.4089
  55   2.0000      -0.448149       -12.1948
  56   2.0000      -0.440088       -11.9754
  57   2.0000      -0.437096       -11.8940
  58   2.0000      -0.435437       -11.8488
  59   2.0000      -0.423038       -11.5115
  60   2.0000      -0.415999       -11.3199
  61   2.0000      -0.410441       -11.1687
  62   2.0000      -0.407485       -11.0882
  63   2.0000      -0.337662        -9.1882
  64   2.0000      -0.329346        -8.9620
  65   2.0000      -0.319263        -8.6876
  66   2.0000      -0.302031        -8.2187
  67   0.0000       0.043423         1.1816
  68   0.0000       0.049726         1.3531
  69   0.0000       0.116074         3.1585
  70   0.0000       0.121104         3.2954
  71   0.0000       0.122237         3.3262

MULLIKEN ATOMIC CHARGES
-----------------------
   0 S :    0.123348
   1 C :   -0.111065
   2 C :   -0.088541
   3 C :    0.076346
   4 C :   -0.187590
   5 H :    0.009603
   6 C :    0.023741
   7 H :    0.004293
   8 H :    0.049854
   9 C :   -0.002262
  10 H :    0.014884
  11 H :    0.042375
  12 C :   -0.116340
  13 H :    0.033678
  14 H :    0.042118
  15 H :    0.032526
  16 S :    0.114991
  17 C :   -0.083637
  18 C :   -0.047085
  19 C :   -0.034448
  20 C :   -0.196573
  21 H :    0.029635
  22 C :    0.049656
  23 H :    0.033922
  24 H :    0.043234
  25 C :   -0.091278
  26 H :    0.029252
  27 H :    0.024970
  28 C :    0.039916
  29 H :    0.003302
  30 H :    0.025613
  31 H :    0.026836
  32 H :    0.046823
  33 H :    0.037900
Sum of atomic charges:    0.0000000

LOEWDIN ATOMIC CHARGES
----------------------
   0 S :    0.410126
   1 C :   -0.195806
   2 C :   -0.061658
   3 C :   -0.047311
   4 C :   -0.204582
   5 H :    0.030551
   6 C :   -0.038060
   7 H :    0.020922
   8 H :    0.045645
   9 C :   -0.030199
  10 H :    0.017909
  11 H :    0.032889
  12 C :   -0.084828
  13 H :    0.024855
  14 H :    0.033170
  15 H :    0.022472
  16 S :    0.406355
  17 C :   -0.173745
  18 C :   -0.074329
  19 C :   -0.050717
  20 C :   -0.221412
  21 H :    0.033969
  22 C :   -0.032766
  23 H :    0.037015
  24 H :    0.030787
  25 C :   -0.036114
  26 H :    0.020486
  27 H :    0.025587
  28 C :   -0.052696
  29 H :    0.017493
  30 H :    0.030049
  31 H :    0.018564
  32 H :    0.023983
  33 H :    0.021396

  Mayer bond orders larger than 0.100000
B(  0-S ,  1-C ) :   1.1443 B(  0-S ,  4-C ) :   1.1572 B(  1-C ,  2-C ) :   1.5978
B(  1-C , 32-H ) :   0.9708 B(  2-C ,  3-C ) :   1.2358 B(  2-C ,  6-C ) :   1.0300
B(  3-C ,  4-C ) :   1.5784 B(  3-C ,  5-H ) :   0.9991 B(  4-C , 20-C ) :   0.9984
B(  6-C ,  7-H ) :   0.9392 B(  6-C ,  8-H ) :   0.9466 B(  6-C ,  9-C ) :   1.0627
B(  9-C , 10-H ) :   0.9518 B(  9-C , 11-H ) :   0.9556 B(  9-C , 12-C ) :   1.0713
B( 12-C , 13-H ) :   0.9693 B( 12-C , 14-H ) :   0.9756 B( 12-C , 15-H ) :   0.9725
B( 16-S , 17-C ) :   1.1378 B( 16-S , 20-C ) :   1.1648 B( 17-C , 18-C ) :   1.6430
B( 17-C , 20-C ) :   0.1033 B( 17-C , 33-H ) :   0.9697 B( 18-C , 19-C ) :   1.2309
B( 18-C , 21-H ) :   0.9774 B( 19-C , 20-C ) :   1.5930 B( 19-C , 22-C ) :   1.0242
B( 22-C , 23-H ) :   0.9299 B( 22-C , 24-H ) :   0.9415 B( 22-C , 25-C ) :   1.0679
B( 25-C , 26-H ) :   0.9583 B( 25-C , 27-H ) :   0.9462 B( 25-C , 28-C ) :   1.0903
B( 28-C , 29-H ) :   0.9678 B( 28-C , 30-H ) :   0.9702 B( 28-C , 31-H ) :   0.9722

Dispersion correction           -0.014401699
FINAL SINGLE POINT ENERGY     -1339.856184315971

DIPOLE MOMENT
-------------
                                X             Y             Z
Electronic contribution:    -17.24726      -3.75245      -4.85301
Nuclear contribution   :     17.72261       3.68203       4.84464
                        -----------------------------------------
Total Dipole Moment    :      0.47535      -0.07041      -0.00837
                        -----------------------------------------
Magnitude (a.u.)       :      0.48061
Magnitude (Debye)      :      1.22162

Rotational constants in cm-1:     0.021696     0.007690     0.006477
Rotational constants in MHz :   650.429260   230.539402   194.176862

                             ****ORCA TERMINATED NORMALLY****
TOTAL RUN TIME: 0 days 0 hours 0 minutes 29 seconds 205 msec
