                         Program Version 4.2.1 -  RELEASE  -
|  1> ! wB97X-D3 SP def2-SVP
|  2> %pal
|  3> nprocs 16
|  4> end
|  5>
|  6> * xyz 0 1
|  7> S 	 -36.7084 	 70.8757 	 167.322
|  8> C 	 -35.2789 	 70.7468 	 166.326
|  9> C 	 -35.126 	 71.8916 	 165.509
| 10> C 	 -36.2231 	 72.7874 	 165.674
| 11> C 	 -37.1172 	 72.4253 	 166.7
| 12> H 	 -36.3025 	 73.7095 	 165.102
| 13> C 	 -33.9349 	 72.1478 	 164.489
| 14> H 	 -34.4548 	 72.4749 	 163.552
| 15> H 	 -33.5541 	 71.111 	 164.12
| 16> C 	 -32.8536 	 73.1607 	 164.894
| 17> H 	 -33.3056 	 74.1465 	 164.903
| 18> H 	 -32.6931 	 72.9581 	 165.985
| 19> C 	 -31.6099 	 73.1369 	 164.019
| 20> H 	 -30.9975 	 72.3108 	 164.274
| 21> H 	 -31.7827 	 73.1924 	 162.919
| 22> H 	 -30.9997 	 74.0294 	 164.271
| 23> S 	 -39.8292 	 72.4009 	 167.505
| 24> C 	 -40.603 	 73.8658 	 167.967
| 25> C 	 -39.6899 	 74.9222 	 168.104
| 26> C 	 -38.425 	 74.5489 	 167.502
| 27> C 	 -38.3252 	 73.1944 	 167.159
| 28> H 	 -39.9385 	 75.8644 	 168.519
| 29> C 	 -37.2769 	 75.5924 	 167.311
| 30> H 	 -36.5633 	 75.3467 	 166.597
| 31> H 	 -36.7257 	 75.5545 	 168.263
| 32> C 	 -37.814 	 76.9731 	 167.09
| 33> H 	 -36.9183 	 77.5361 	 166.969
| 34> H 	 -38.1981 	 77.4747 	 168.042
| 35> C 	 -38.6476 	 77.1764 	 165.787
| 36> H 	 -39.0701 	 78.1627 	 165.629
| 37> H 	 -39.4449 	 76.4012 	 165.595
| 38> H 	 -37.857 	 77.1815 	 165.023
| 39> H 	 -34.6502 	 69.8567 	 166.255
| 40> H 	 -41.6078 	 73.909 	 168.252
| 41> *
| 42>
| 43>                          ****END OF INPUT****

CARTESIAN COORDINATES (ANGSTROEM)
---------------------------------
  S    -36.708400   70.875700  167.322000
  C    -35.278900   70.746800  166.326000
  C    -35.126000   71.891600  165.509000
  C    -36.223100   72.787400  165.674000
  C    -37.117200   72.425300  166.700000
  H    -36.302500   73.709500  165.102000
  C    -33.934900   72.147800  164.489000
  H    -34.454800   72.474900  163.552000
  H    -33.554100   71.111000  164.120000
  C    -32.853600   73.160700  164.894000
  H    -33.305600   74.146500  164.903000
  H    -32.693100   72.958100  165.985000
  C    -31.609900   73.136900  164.019000
  H    -30.997500   72.310800  164.274000
  H    -31.782700   73.192400  162.919000
  H    -30.999700   74.029400  164.271000
  S    -39.829200   72.400900  167.505000
  C    -40.603000   73.865800  167.967000
  C    -39.689900   74.922200  168.104000
  C    -38.425000   74.548900  167.502000
  C    -38.325200   73.194400  167.159000
  H    -39.938500   75.864400  168.519000
  C    -37.276900   75.592400  167.311000
  H    -36.563300   75.346700  166.597000
  H    -36.725700   75.554500  168.263000
  C    -37.814000   76.973100  167.090000
  H    -36.918300   77.536100  166.969000
  H    -38.198100   77.474700  168.042000
  C    -38.647600   77.176400  165.787000
  H    -39.070100   78.162700  165.629000
  H    -39.444900   76.401200  165.595000
  H    -37.857000   77.181500  165.023000
  H    -34.650200   69.856700  166.255000
  H    -41.607800   73.909000  168.252000

 Total Charge           Charge          ....    0
 Multiplicity           Mult            ....    1
 Number of Electrons    NEL             ....  134
 Basis Dimension        Dim             ....  322

ORBITAL ENERGIES
----------------

  NO   OCC          E(Eh)            E(eV)
   0   2.0000     -88.969836     -2420.9923
   1   2.0000     -88.965909     -2420.8854
   2   2.0000     -10.334528      -281.2168
   3   2.0000     -10.327761      -281.0327
   4   2.0000     -10.316630      -280.7298
   5   2.0000     -10.315820      -280.7077
   6   2.0000     -10.307836      -280.4905
   7   2.0000     -10.306940      -280.4661
   8   2.0000     -10.306579      -280.4563
   9   2.0000     -10.297225      -280.2017
  10   2.0000     -10.294892      -280.1383
  11   2.0000     -10.291941      -280.0580
  12   2.0000     -10.288905      -279.9754
  13   2.0000     -10.288368      -279.9607
  14   2.0000     -10.283248      -279.8214
  15   2.0000     -10.283211      -279.8204
  16   2.0000      -8.084702      -219.9959
  17   2.0000      -8.081285      -219.9030
  18   2.0000      -6.043092      -164.4409
  19   2.0000      -6.039731      -164.3494
  20   2.0000      -6.039043      -164.3307
  21   2.0000      -6.035744      -164.2409
  22   2.0000      -6.035626      -164.2377
  23   2.0000      -6.032177      -164.1439
  24   2.0000      -1.004154       -27.3244
  25   2.0000      -0.983662       -26.7668
  26   2.0000      -0.911828       -24.8121
  27   2.0000      -0.904399       -24.6099
  28   2.0000      -0.863640       -23.5008
  29   2.0000      -0.848409       -23.0864
  30   2.0000      -0.840136       -22.8612
  31   2.0000      -0.809751       -22.0344
  32   2.0000      -0.785569       -21.3764
  33   2.0000      -0.774194       -21.0669
  34   2.0000      -0.703032       -19.1305
  35   2.0000      -0.696470       -18.9519
  36   2.0000      -0.692670       -18.8485
  37   2.0000      -0.656185       -17.8557
  38   2.0000      -0.636837       -17.3292
  39   2.0000      -0.620113       -16.8741
  40   2.0000      -0.600949       -16.3527
  41   2.0000      -0.566963       -15.4278
  42   2.0000      -0.558187       -15.1890
  43   2.0000      -0.555444       -15.1144
  44   2.0000      -0.538115       -14.6429
  45   2.0000      -0.519907       -14.1474
  46   2.0000      -0.516839       -14.0639
  47   2.0000      -0.505777       -13.7629
  48   2.0000      -0.498403       -13.5622
  49   2.0000      -0.497316       -13.5327
  50   2.0000      -0.489946       -13.3321
  51   2.0000      -0.479152       -13.0384
  52   2.0000      -0.473606       -12.8875
  53   2.0000      -0.467623       -12.7247
  54   2.0000      -0.459037       -12.4910
  55   2.0000      -0.451619       -12.2892
  56   2.0000      -0.446117       -12.1394
  57   2.0000      -0.443533       -12.0691
  58   2.0000      -0.436570       -11.8797
  59   2.0000      -0.423246       -11.5171
  60   2.0000      -0.417326       -11.3560
  61   2.0000      -0.409494       -11.1429
  62   2.0000      -0.404958       -11.0195
  63   2.0000      -0.346691        -9.4340
  64   2.0000      -0.333216        -9.0673
  65   2.0000      -0.327727        -8.9179
  66   2.0000      -0.287307        -7.8180
  67   0.0000       0.030697         0.8353
  68   0.0000       0.072540         1.9739
  69   0.0000       0.115418         3.1407
  70   0.0000       0.119553         3.2532
  71   0.0000       0.133488         3.6324

MULLIKEN ATOMIC CHARGES
-----------------------
   0 S :    0.121474
   1 C :   -0.137027
   2 C :   -0.094433
   3 C :    0.015425
   4 C :   -0.144004
   5 H :    0.019337
   6 C :   -0.001044
   7 H :    0.031279
   8 H :    0.033812
   9 C :   -0.057278
  10 H :    0.022946
  11 H :    0.040206
  12 C :   -0.040670
  13 H :    0.032567
  14 H :    0.043729
  15 H :    0.035153
  16 S :    0.113470
  17 C :   -0.075516
  18 C :   -0.010185
  19 C :   -0.097923
  20 C :   -0.137346
  21 H :    0.012523
  22 C :    0.131723
  23 H :   -0.006820
  24 H :    0.039203
  25 C :   -0.103317
  26 H :    0.013756
  27 H :    0.034076
  28 C :   -0.051870
  29 H :    0.031461
  30 H :    0.065515
  31 H :    0.021055
  32 H :    0.056224
  33 H :    0.042498
Sum of atomic charges:    0.0000000

LOEWDIN ATOMIC CHARGES
----------------------
   0 S :    0.429197
   1 C :   -0.211773
   2 C :   -0.063209
   3 C :   -0.073140
   4 C :   -0.199610
   5 H :    0.029518
   6 C :   -0.042583
   7 H :    0.030663
   8 H :    0.035011
   9 C :   -0.049038
  10 H :    0.022417
  11 H :    0.033011
  12 C :   -0.066297
  13 H :    0.022369
  14 H :    0.032475
  15 H :    0.032991
  16 S :    0.424863
  17 C :   -0.182170
  18 C :   -0.061829
  19 C :   -0.048859
  20 C :   -0.217539
  21 H :    0.026657
  22 C :   -0.023836
  23 H :    0.016491
  24 H :    0.044049
  25 C :   -0.053952
  26 H :    0.022615
  27 H :    0.025863
  28 C :   -0.072241
  29 H :    0.026064
  30 H :    0.035031
  31 H :    0.028018
  32 H :    0.031059
  33 H :    0.017715

  Mayer bond orders larger than 0.100000
B(  0-S ,  1-C ) :   1.1540 B(  0-S ,  4-C ) :   1.1816 B(  1-C ,  2-C ) :   1.5714
B(  1-C ,  4-C ) :   0.1052 B(  1-C , 32-H ) :   0.9693 B(  2-C ,  3-C ) :   1.2947
B(  2-C ,  6-C ) :   1.0093 B(  3-C ,  4-C ) :   1.5265 B(  3-C ,  5-H ) :   0.9869
B(  4-C , 20-C ) :   1.0291 B(  6-C ,  7-H ) :   0.9418 B(  6-C ,  8-H ) :   0.9534
B(  6-C ,  9-C ) :   1.0426 B(  9-C , 10-H ) :   0.9534 B(  9-C , 11-H ) :   0.9574
B(  9-C , 12-C ) :   1.0813 B( 12-C , 13-H ) :   0.9755 B( 12-C , 14-H ) :   0.9738
B( 12-C , 15-H ) :   0.9725 B( 16-S , 17-C ) :   1.1855 B( 16-S , 20-C ) :   1.1425
B( 17-C , 18-C ) :   1.5628 B( 17-C , 33-H ) :   0.9751 B( 18-C , 19-C ) :   1.2657
B( 18-C , 21-H ) :   0.9950 B( 19-C , 20-C ) :   1.5839 B( 19-C , 22-C ) :   1.0207
B( 22-C , 23-H ) :   0.9410 B( 22-C , 24-H ) :   0.9180 B( 22-C , 25-C ) :   1.0944
B( 25-C , 26-H ) :   0.9521 B( 25-C , 27-H ) :   0.9461 B( 25-C , 28-C ) :   1.0535
B( 28-C , 29-H ) :   0.9749 B( 28-C , 30-H ) :   0.9766 B( 28-C , 31-H ) :   0.9741

Dispersion correction           -0.014042492
FINAL SINGLE POINT ENERGY     -1339.870937432428

DIPOLE MOMENT
-------------
                                X             Y             Z
Electronic contribution:    -19.25623     -20.49453      12.89456
Nuclear contribution   :     19.66807      21.10811     -13.07697
                        -----------------------------------------
Total Dipole Moment    :      0.41184       0.61358      -0.18241
                        -----------------------------------------
Magnitude (a.u.)       :      0.76117
Magnitude (Debye)      :      1.93473

Rotational constants in cm-1:     0.018854     0.008313     0.006082
Rotational constants in MHz :   565.223093   249.217393   182.328317

                             ****ORCA TERMINATED NORMALLY****
TOTAL RUN TIME: 0 days 0 hours 0 minutes 33 seconds 415 msec
