                         Program Version 4.2.1 -  RELEASE  -
|  1> ! wB97X-D3 SP def2-SVP
|  2> %pal
|  3> nprocs 16
|  4> end
|  5>
|  6> * xyz 0 1
|  7> S 	 -44.7854 	 28.0955 	 82.146
|  8> C 	 -44.9014 	 26.4221 	 82.6865
|  9> C 	 -46.0389 	 25.8397 	 82.1893
| 10> C 	 -46.6902 	 26.6837 	 81.1975
| 11> C 	 -46.0757 	 27.8978 	 80.9661
| 12> H 	 -47.5551 	 26.4919 	 80.546
| 13> C 	 -46.453 	 24.4233 	 82.5628
| 14> H 	 -47.4965 	 24.2098 	 82.3043
| 15> H 	 -46.268 	 24.3515 	 83.6342
| 16> C 	 -45.8105 	 23.1715 	 81.9553
| 17> H 	 -46.197 	 22.2692 	 82.4804
| 18> H 	 -45.9319 	 23.1641 	 80.8599
| 19> C 	 -44.3146 	 23.0177 	 82.1573
| 20> H 	 -43.9507 	 23.1131 	 83.1692
| 21> H 	 -43.9597 	 22.036 	 81.8444
| 22> H 	 -43.766 	 23.7404 	 81.5155
| 23> S 	 -46.8941 	 30.4409 	 80.8437
| 24> C 	 -47.3663 	 31.1905 	 79.3829
| 25> C 	 -47.1224 	 30.3193 	 78.3457
| 26> C 	 -46.653 	 29.0634 	 78.7274
| 27> C 	 -46.5833 	 28.9445 	 80.0742
| 28> H 	 -47.2575 	 30.7687 	 77.3647
| 29> C 	 -46.2108 	 27.9956 	 77.6824
| 30> H 	 -45.9188 	 27.1352 	 78.1986
| 31> H 	 -45.3008 	 28.3006 	 77.0857
| 32> C 	 -47.3716 	 27.7189 	 76.7204
| 33> H 	 -47.6065 	 28.6246 	 76.1662
| 34> H 	 -48.3557 	 27.5809 	 77.2006
| 35> C 	 -47.1568 	 26.6611 	 75.7598
| 36> H 	 -48.0232 	 26.5916 	 75.1087
| 37> H 	 -47.2344 	 25.7144 	 76.3534
| 38> H 	 -46.2144 	 26.8587 	 75.2232
| 39> H 	 -44.345 	 26.0533 	 83.5137
| 40> H 	 -47.7161 	 32.2343 	 79.347
| 41> *
| 42>
| 43>                          ****END OF INPUT****

CARTESIAN COORDINATES (ANGSTROEM)
---------------------------------
  S    -44.785400   28.095500   82.146000
  C    -44.901400   26.422100   82.686500
  C    -46.038900   25.839700   82.189300
  C    -46.690200   26.683700   81.197500
  C    -46.075700   27.897800   80.966100
  H    -47.555100   26.491900   80.546000
  C    -46.453000   24.423300   82.562800
  H    -47.496500   24.209800   82.304300
  H    -46.268000   24.351500   83.634200
  C    -45.810500   23.171500   81.955300
  H    -46.197000   22.269200   82.480400
  H    -45.931900   23.164100   80.859900
  C    -44.314600   23.017700   82.157300
  H    -43.950700   23.113100   83.169200
  H    -43.959700   22.036000   81.844400
  H    -43.766000   23.740400   81.515500
  S    -46.894100   30.440900   80.843700
  C    -47.366300   31.190500   79.382900
  C    -47.122400   30.319300   78.345700
  C    -46.653000   29.063400   78.727400
  C    -46.583300   28.944500   80.074200
  H    -47.257500   30.768700   77.364700
  C    -46.210800   27.995600   77.682400
  H    -45.918800   27.135200   78.198600
  H    -45.300800   28.300600   77.085700
  C    -47.371600   27.718900   76.720400
  H    -47.606500   28.624600   76.166200
  H    -48.355700   27.580900   77.200600
  C    -47.156800   26.661100   75.759800
  H    -48.023200   26.591600   75.108700
  H    -47.234400   25.714400   76.353400
  H    -46.214400   26.858700   75.223200
  H    -44.345000   26.053300   83.513700
  H    -47.716100   32.234300   79.347000

 Total Charge           Charge          ....    0
 Multiplicity           Mult            ....    1
 Number of Electrons    NEL             ....  134
 Basis Dimension        Dim             ....  322

ORBITAL ENERGIES
----------------

  NO   OCC          E(Eh)            E(eV)
   0   2.0000     -88.963822     -2420.8287
   1   2.0000     -88.961347     -2420.7613
   2   2.0000     -10.329669      -281.0846
   3   2.0000     -10.321241      -280.8552
   4   2.0000     -10.315012      -280.6857
   5   2.0000     -10.313427      -280.6426
   6   2.0000     -10.306380      -280.4508
   7   2.0000     -10.301416      -280.3158
   8   2.0000     -10.297061      -280.1973
   9   2.0000     -10.293775      -280.1079
  10   2.0000     -10.293044      -280.0880
  11   2.0000     -10.289735      -279.9979
  12   2.0000     -10.289668      -279.9961
  13   2.0000     -10.276973      -279.6507
  14   2.0000     -10.275528      -279.6113
  15   2.0000     -10.272527      -279.5297
  16   2.0000      -8.078323      -219.8224
  17   2.0000      -8.078007      -219.8137
  18   2.0000      -6.036922      -164.2730
  19   2.0000      -6.036295      -164.2559
  20   2.0000      -6.032867      -164.1626
  21   2.0000      -6.032172      -164.1438
  22   2.0000      -6.028979      -164.0569
  23   2.0000      -6.028949      -164.0560
  24   2.0000      -1.017379       -27.6843
  25   2.0000      -0.988009       -26.8851
  26   2.0000      -0.917993       -24.9799
  27   2.0000      -0.911695       -24.8085
  28   2.0000      -0.873208       -23.7612
  29   2.0000      -0.859781       -23.3958
  30   2.0000      -0.842654       -22.9298
  31   2.0000      -0.817389       -22.2423
  32   2.0000      -0.784627       -21.3508
  33   2.0000      -0.778289       -21.1783
  34   2.0000      -0.702990       -19.1293
  35   2.0000      -0.694951       -18.9106
  36   2.0000      -0.689958       -18.7747
  37   2.0000      -0.659302       -17.9405
  38   2.0000      -0.643367       -17.5069
  39   2.0000      -0.615737       -16.7550
  40   2.0000      -0.600615       -16.3436
  41   2.0000      -0.573728       -15.6119
  42   2.0000      -0.570461       -15.5230
  43   2.0000      -0.554345       -15.0845
  44   2.0000      -0.539819       -14.6892
  45   2.0000      -0.535313       -14.5666
  46   2.0000      -0.520058       -14.1515
  47   2.0000      -0.516081       -14.0433
  48   2.0000      -0.510904       -13.9024
  49   2.0000      -0.503146       -13.6913
  50   2.0000      -0.485123       -13.2009
  51   2.0000      -0.483925       -13.1683
  52   2.0000      -0.475401       -12.9363
  53   2.0000      -0.467946       -12.7335
  54   2.0000      -0.460570       -12.5328
  55   2.0000      -0.445103       -12.1119
  56   2.0000      -0.434024       -11.8104
  57   2.0000      -0.433329       -11.7915
  58   2.0000      -0.429775       -11.6948
  59   2.0000      -0.426903       -11.6166
  60   2.0000      -0.422651       -11.5009
  61   2.0000      -0.407585       -11.0910
  62   2.0000      -0.405392       -11.0313
  63   2.0000      -0.346007        -9.4153
  64   2.0000      -0.333329        -9.0704
  65   2.0000      -0.326513        -8.8849
  66   2.0000      -0.300851        -8.1866
  67   0.0000       0.037493         1.0202
  68   0.0000       0.064208         1.7472
  69   0.0000       0.111930         3.0458
  70   0.0000       0.122756         3.3404
  71   0.0000       0.135232         3.6798

MULLIKEN ATOMIC CHARGES
-----------------------
   0 S :    0.103241
   1 C :   -0.106281
   2 C :   -0.075822
   3 C :    0.026775
   4 C :   -0.155188
   5 H :    0.020277
   6 C :    0.066441
   7 H :    0.031515
   8 H :    0.025149
   9 C :   -0.066247
  10 H :    0.038667
  11 H :    0.033790
  12 C :   -0.074883
  13 H :    0.017291
  14 H :    0.025669
  15 H :    0.037912
  16 S :    0.107378
  17 C :   -0.114729
  18 C :   -0.051699
  19 C :   -0.006827
  20 C :   -0.186805
  21 H :    0.021586
  22 C :    0.132543
  23 H :    0.000866
  24 H :    0.042465
  25 C :   -0.132915
  26 H :    0.013611
  27 H :    0.022502
  28 C :   -0.006611
  29 H :    0.027250
  30 H :    0.029704
  31 H :    0.037926
  32 H :    0.045043
  33 H :    0.070407
Sum of atomic charges:    0.0000000

LOEWDIN ATOMIC CHARGES
----------------------
   0 S :    0.390467
   1 C :   -0.183477
   2 C :   -0.063729
   3 C :   -0.066394
   4 C :   -0.194060
   5 H :    0.035165
   6 C :   -0.036632
   7 H :    0.035981
   8 H :    0.031987
   9 C :   -0.041159
  10 H :    0.032544
  11 H :    0.027819
  12 C :   -0.075956
  13 H :    0.016199
  14 H :    0.024831
  15 H :    0.026775
  16 S :    0.439218
  17 C :   -0.198921
  18 C :   -0.077303
  19 C :   -0.055966
  20 C :   -0.210141
  21 H :    0.033127
  22 C :   -0.016257
  23 H :    0.017287
  24 H :    0.040421
  25 C :   -0.057680
  26 H :    0.018099
  27 H :    0.025929
  28 C :   -0.065006
  29 H :    0.027354
  30 H :    0.030340
  31 H :    0.028739
  32 H :    0.024109
  33 H :    0.036288

  Mayer bond orders larger than 0.100000
B(  0-S ,  1-C ) :   1.1309 B(  0-S ,  4-C ) :   1.1397 B(  1-C ,  2-C ) :   1.6182
B(  1-C , 32-H ) :   0.9722 B(  2-C ,  3-C ) :   1.2098 B(  2-C ,  6-C ) :   1.0274
B(  3-C ,  4-C ) :   1.5997 B(  3-C ,  5-H ) :   0.9925 B(  4-C , 20-C ) :   1.0218
B(  6-C ,  7-H ) :   0.9432 B(  6-C ,  8-H ) :   0.9357 B(  6-C ,  9-C ) :   1.0783
B(  9-C , 10-H ) :   0.9536 B(  9-C , 11-H ) :   0.9532 B(  9-C , 12-C ) :   1.0865
B( 12-C , 13-H ) :   0.9746 B( 12-C , 14-H ) :   0.9724 B( 12-C , 15-H ) :   0.9720
B( 16-S , 17-C ) :   1.1779 B( 16-S , 20-C ) :   1.1660 B( 17-C , 18-C ) :   1.5811
B( 17-C , 20-C ) :   0.1003 B( 17-C , 33-H ) :   0.9682 B( 18-C , 19-C ) :   1.2451
B( 18-C , 21-H ) :   0.9969 B( 19-C , 20-C ) :   1.6005 B( 19-C , 22-C ) :   1.0323
B( 22-C , 23-H ) :   0.9313 B( 22-C , 24-H ) :   0.9333 B( 22-C , 25-C ) :   1.0518
B( 25-C , 26-H ) :   0.9464 B( 25-C , 27-H ) :   0.9522 B( 25-C , 28-C ) :   1.1120
B( 28-C , 29-H ) :   0.9668 B( 28-C , 30-H ) :   0.9711 B( 28-C , 31-H ) :   0.9662

Dispersion correction           -0.013713226
FINAL SINGLE POINT ENERGY     -1339.872261838234

DIPOLE MOMENT
-------------
                                X             Y             Z
Electronic contribution:      1.10172      25.24889      13.53880
Nuclear contribution   :     -1.30371     -25.58432     -13.89397
                        -----------------------------------------
Total Dipole Moment    :     -0.20199      -0.33543      -0.35518
                        -----------------------------------------
Magnitude (a.u.)       :      0.52864
Magnitude (Debye)      :      1.34370

Rotational constants in cm-1:     0.018287     0.008552     0.006310
Rotational constants in MHz :   548.218817   256.396368   189.176425

                             ****ORCA TERMINATED NORMALLY****
TOTAL RUN TIME: 0 days 0 hours 0 minutes 29 seconds 400 msec
