                         Program Version 4.2.1 -  RELEASE  -
|  1> ! wB97X-D3 SP def2-SVP
|  2> %pal
|  3> nprocs 16
|  4> end
|  5>
|  6> * xyz 0 1
|  7> S 	 49.1532 	 23.4809 	 43.8827
|  8> C 	 48.2714 	 24.1941 	 42.6182
|  9> C 	 47.4476 	 25.2164 	 43.0328
| 10> C 	 47.4811 	 25.3336 	 44.4612
| 11> C 	 48.2584 	 24.4162 	 45.1111
| 12> H 	 46.9644 	 26.0409 	 45.0177
| 13> C 	 46.6071 	 25.996 	 42.0952
| 14> H 	 47.1601 	 26.1589 	 41.2067
| 15> H 	 46.6353 	 26.9476 	 42.6259
| 16> C 	 45.1573 	 25.4471 	 41.9729
| 17> H 	 44.6639 	 25.7199 	 42.885
| 18> H 	 44.7329 	 26.0237 	 41.1613
| 19> C 	 44.9873 	 23.9559 	 41.7901
| 20> H 	 43.9986 	 23.5288 	 42.1182
| 21> H 	 45.0589 	 23.756 	 40.7345
| 22> H 	 45.6059 	 23.3107 	 42.4856
| 23> S 	 49.9213 	 25.0143 	 47.1627
| 24> C 	 49.2501 	 25.0885 	 48.7838
| 25> C 	 48.008 	 24.4515 	 48.7866
| 26> C 	 47.5401 	 24.0426 	 47.509
| 27> C 	 48.4337 	 24.3241 	 46.5446
| 28> H 	 47.2913 	 24.4408 	 49.6553
| 29> C 	 46.1067 	 23.5568 	 47.2745
| 30> H 	 45.8118 	 23.8881 	 46.302
| 31> H 	 45.4139 	 24.1129 	 47.8413
| 32> C 	 45.8439 	 21.9866 	 47.4238
| 33> H 	 46.5341 	 21.3291 	 46.8908
| 34> H 	 44.8883 	 21.791 	 46.9577
| 35> C 	 45.8732 	 21.5449 	 48.8865
| 36> H 	 46.9007 	 21.6791 	 49.3459
| 37> H 	 45.6112 	 20.506 	 48.9857
| 38> H 	 45.1357 	 22.1143 	 49.4011
| 39> H 	 48.5631 	 23.972 	 41.647
| 40> H 	 49.7198 	 25.6309 	 49.6319
| 41> *
| 42>
| 43>                          ****END OF INPUT****

CARTESIAN COORDINATES (ANGSTROEM)
---------------------------------
  S     49.153200   23.480900   43.882700
  C     48.271400   24.194100   42.618200
  C     47.447600   25.216400   43.032800
  C     47.481100   25.333600   44.461200
  C     48.258400   24.416200   45.111100
  H     46.964400   26.040900   45.017700
  C     46.607100   25.996000   42.095200
  H     47.160100   26.158900   41.206700
  H     46.635300   26.947600   42.625900
  C     45.157300   25.447100   41.972900
  H     44.663900   25.719900   42.885000
  H     44.732900   26.023700   41.161300
  C     44.987300   23.955900   41.790100
  H     43.998600   23.528800   42.118200
  H     45.058900   23.756000   40.734500
  H     45.605900   23.310700   42.485600
  S     49.921300   25.014300   47.162700
  C     49.250100   25.088500   48.783800
  C     48.008000   24.451500   48.786600
  C     47.540100   24.042600   47.509000
  C     48.433700   24.324100   46.544600
  H     47.291300   24.440800   49.655300
  C     46.106700   23.556800   47.274500
  H     45.811800   23.888100   46.302000
  H     45.413900   24.112900   47.841300
  C     45.843900   21.986600   47.423800
  H     46.534100   21.329100   46.890800
  H     44.888300   21.791000   46.957700
  C     45.873200   21.544900   48.886500
  H     46.900700   21.679100   49.345900
  H     45.611200   20.506000   48.985700
  H     45.135700   22.114300   49.401100
  H     48.563100   23.972000   41.647000
  H     49.719800   25.630900   49.631900

 Total Charge           Charge          ....    0
 Multiplicity           Mult            ....    1
 Number of Electrons    NEL             ....  134
 Basis Dimension        Dim             ....  322

ORBITAL ENERGIES
----------------

  NO   OCC          E(Eh)            E(eV)
   0   2.0000     -88.963292     -2420.8142
   1   2.0000     -88.959507     -2420.7112
   2   2.0000     -10.324412      -280.9415
   3   2.0000     -10.324125      -280.9337
   4   2.0000     -10.319817      -280.8165
   5   2.0000     -10.301411      -280.3156
   6   2.0000     -10.299027      -280.2508
   7   2.0000     -10.298112      -280.2259
   8   2.0000     -10.293163      -280.0912
   9   2.0000     -10.290149      -280.0092
  10   2.0000     -10.287656      -279.9414
  11   2.0000     -10.287447      -279.9357
  12   2.0000     -10.286028      -279.8971
  13   2.0000     -10.285827      -279.8916
  14   2.0000     -10.279576      -279.7215
  15   2.0000     -10.274480      -279.5828
  16   2.0000      -8.078321      -219.8223
  17   2.0000      -8.075053      -219.7334
  18   2.0000      -6.036856      -164.2712
  19   2.0000      -6.033481      -164.1794
  20   2.0000      -6.032777      -164.1602
  21   2.0000      -6.029388      -164.0680
  22   2.0000      -6.029017      -164.0579
  23   2.0000      -6.025939      -163.9741
  24   2.0000      -1.009293       -27.4643
  25   2.0000      -0.987058       -26.8592
  26   2.0000      -0.913432       -24.8557
  27   2.0000      -0.901744       -24.5377
  28   2.0000      -0.871002       -23.7012
  29   2.0000      -0.850841       -23.1526
  30   2.0000      -0.847535       -23.0626
  31   2.0000      -0.814297       -22.1581
  32   2.0000      -0.784462       -21.3463
  33   2.0000      -0.773233       -21.0407
  34   2.0000      -0.707201       -19.2439
  35   2.0000      -0.698714       -19.0130
  36   2.0000      -0.692718       -18.8498
  37   2.0000      -0.663442       -18.0532
  38   2.0000      -0.651776       -17.7357
  39   2.0000      -0.618177       -16.8214
  40   2.0000      -0.597619       -16.2620
  41   2.0000      -0.567547       -15.4438
  42   2.0000      -0.553527       -15.0622
  43   2.0000      -0.547257       -14.8916
  44   2.0000      -0.542948       -14.7744
  45   2.0000      -0.533874       -14.5274
  46   2.0000      -0.519405       -14.1337
  47   2.0000      -0.515150       -14.0179
  48   2.0000      -0.503722       -13.7070
  49   2.0000      -0.497370       -13.5341
  50   2.0000      -0.485668       -13.2157
  51   2.0000      -0.478327       -13.0159
  52   2.0000      -0.473804       -12.8929
  53   2.0000      -0.468014       -12.7353
  54   2.0000      -0.457335       -12.4447
  55   2.0000      -0.450049       -12.2464
  56   2.0000      -0.436646       -11.8817
  57   2.0000      -0.434622       -11.8267
  58   2.0000      -0.428127       -11.6499
  59   2.0000      -0.425857       -11.5881
  60   2.0000      -0.424733       -11.5576
  61   2.0000      -0.415742       -11.3129
  62   2.0000      -0.405509       -11.0345
  63   2.0000      -0.341014        -9.2795
  64   2.0000      -0.331250        -9.0138
  65   2.0000      -0.323396        -8.8000
  66   2.0000      -0.300058        -8.1650
  67   0.0000       0.042286         1.1507
  68   0.0000       0.057254         1.5580
  69   0.0000       0.118438         3.2229
  70   0.0000       0.125223         3.4075
  71   0.0000       0.127490         3.4692

MULLIKEN ATOMIC CHARGES
-----------------------
   0 S :    0.101548
   1 C :   -0.092577
   2 C :   -0.134290
   3 C :    0.072884
   4 C :   -0.178972
   5 H :   -0.018262
   6 C :    0.102920
   7 H :    0.015686
   8 H :    0.020987
   9 C :   -0.029221
  10 H :    0.018526
  11 H :    0.033592
  12 C :   -0.074873
  13 H :    0.028620
  14 H :    0.032888
  15 H :    0.057116
  16 S :    0.108846
  17 C :   -0.115914
  18 C :   -0.045152
  19 C :   -0.031965
  20 C :   -0.166369
  21 H :    0.035891
  22 C :    0.102983
  23 H :    0.002155
  24 H :    0.006662
  25 C :   -0.055575
  26 H :    0.033014
  27 H :    0.023415
  28 C :   -0.054502
  29 H :    0.051332
  30 H :    0.031163
  31 H :    0.016502
  32 H :    0.022739
  33 H :    0.078203
Sum of atomic charges:   -0.0000000

LOEWDIN ATOMIC CHARGES
----------------------
   0 S :    0.404560
   1 C :   -0.194394
   2 C :   -0.068077
   3 C :   -0.050782
   4 C :   -0.190091
   5 H :    0.019234
   6 C :   -0.030238
   7 H :    0.024116
   8 H :    0.036459
   9 C :   -0.035427
  10 H :    0.022056
  11 H :    0.026763
  12 C :   -0.078767
  13 H :    0.031534
  14 H :    0.023065
  15 H :    0.037906
  16 S :    0.403366
  17 C :   -0.188453
  18 C :   -0.079073
  19 C :   -0.057208
  20 C :   -0.196694
  21 H :    0.037453
  22 C :   -0.021254
  23 H :    0.026168
  24 H :    0.023380
  25 C :   -0.031297
  26 H :    0.025983
  27 H :    0.021549
  28 C :   -0.067840
  29 H :    0.034782
  30 H :    0.023737
  31 H :    0.016142
  32 H :    0.011471
  33 H :    0.039870

  Mayer bond orders larger than 0.100000
B(  0-S ,  1-C ) :   1.1621 B(  0-S ,  4-C ) :   1.1380 B(  1-C ,  2-C ) :   1.5819
B(  1-C , 32-H ) :   0.9784 B(  2-C ,  3-C ) :   1.2415 B(  2-C ,  6-C ) :   1.0187
B(  3-C ,  4-C ) :   1.5843 B(  3-C ,  5-H ) :   1.0062 B(  4-C , 20-C ) :   1.0094
B(  6-C ,  7-H ) :   0.9386 B(  6-C ,  8-H ) :   0.9356 B(  6-C ,  9-C ) :   1.0514
B(  9-C , 10-H ) :   0.9543 B(  9-C , 11-H ) :   0.9596 B(  9-C , 12-C ) :   1.0874
B( 12-C , 13-H ) :   0.9726 B( 12-C , 14-H ) :   0.9779 B( 12-C , 15-H ) :   0.9634
B( 16-S , 17-C ) :   1.1545 B( 16-S , 20-C ) :   1.1445 B( 17-C , 18-C ) :   1.5991
B( 17-C , 33-H ) :   0.9668 B( 18-C , 19-C ) :   1.2402 B( 18-C , 21-H ) :   0.9756
B( 19-C , 20-C ) :   1.6428 B( 19-C , 22-C ) :   1.0312 B( 22-C , 23-H ) :   0.9251
B( 22-C , 24-H ) :   0.9376 B( 22-C , 25-C ) :   1.0624 B( 25-C , 26-H ) :   0.9603
B( 25-C , 27-H ) :   0.9564 B( 25-C , 28-C ) :   1.0802 B( 28-C , 29-H ) :   0.9730
B( 28-C , 30-H ) :   0.9726 B( 28-C , 31-H ) :   0.9761

Dispersion correction           -0.015061975
FINAL SINGLE POINT ENERGY     -1339.870431503766

DIPOLE MOMENT
-------------
                                X             Y             Z
Electronic contribution:     24.73710       5.14902       3.07175
Nuclear contribution   :    -25.42860      -4.86365      -3.10062
                        -----------------------------------------
Total Dipole Moment    :     -0.69151       0.28537      -0.02887
                        -----------------------------------------
Magnitude (a.u.)       :      0.74863
Magnitude (Debye)      :      1.90288

Rotational constants in cm-1:     0.019099     0.008992     0.007237
Rotational constants in MHz :   572.585376   269.571815   216.947868

                             ****ORCA TERMINATED NORMALLY****
TOTAL RUN TIME: 0 days 0 hours 0 minutes 34 seconds 976 msec
