                         Program Version 4.2.1 -  RELEASE  -
|  1> ! wB97X-D3 SP def2-SVP
|  2> %pal
|  3> nprocs 16
|  4> end
|  5>
|  6> * xyz 0 1
|  7> S 	 -75.8281 	 34.1677 	 121.634
|  8> C 	 -75.3067 	 34.0152 	 119.966
|  9> C 	 -74.3996 	 35.0165 	 119.649
| 10> C 	 -74.1339 	 35.892 	 120.731
| 11> C 	 -74.7494 	 35.4769 	 121.922
| 12> H 	 -73.8196 	 36.9197 	 120.736
| 13> C 	 -74.0086 	 35.4056 	 118.206
| 14> H 	 -74.5397 	 36.3825 	 118.041
| 15> H 	 -74.2369 	 34.6355 	 117.54
| 16> C 	 -72.5198 	 35.7494 	 118.105
| 17> H 	 -72.3637 	 36.0342 	 117.1
| 18> H 	 -72.2711 	 36.6634 	 118.599
| 19> C 	 -71.5808 	 34.6531 	 118.636
| 20> H 	 -71.5718 	 34.4621 	 119.705
| 21> H 	 -71.9198 	 33.7374 	 118.278
| 22> H 	 -70.5069 	 34.8197 	 118.285
| 23> S 	 -76.1552 	 37.3016 	 123.516
| 24> C 	 -75.3706 	 37.9977 	 124.916
| 25> C 	 -74.1159 	 37.4337 	 125.159
| 26> C 	 -73.7523 	 36.4713 	 124.126
| 27> C 	 -74.7781 	 36.1897 	 123.208
| 28> H 	 -73.6464 	 37.8268 	 126.019
| 29> C 	 -72.4033 	 35.7652 	 124.005
| 30> H 	 -71.6314 	 36.4428 	 124.507
| 31> H 	 -72.066 	 35.7422 	 122.968
| 32> C 	 -72.3132 	 34.3876 	 124.564
| 33> H 	 -72.9956 	 33.7327 	 124.076
| 34> H 	 -72.5956 	 34.5247 	 125.64
| 35> C 	 -70.9137 	 33.7694 	 124.467
| 36> H 	 -70.6322 	 33.6647 	 123.421
| 37> H 	 -70.8221 	 32.7475 	 124.869
| 38> H 	 -70.2032 	 34.3581 	 125.062
| 39> H 	 -75.7688 	 33.3932 	 119.215
| 40> H 	 -75.6837 	 38.7439 	 125.623
| 41> *
| 42>
| 43>                          ****END OF INPUT****

CARTESIAN COORDINATES (ANGSTROEM)
---------------------------------
  S    -75.828100   34.167700  121.634000
  C    -75.306700   34.015200  119.966000
  C    -74.399600   35.016500  119.649000
  C    -74.133900   35.892000  120.731000
  C    -74.749400   35.476900  121.922000
  H    -73.819600   36.919700  120.736000
  C    -74.008600   35.405600  118.206000
  H    -74.539700   36.382500  118.041000
  H    -74.236900   34.635500  117.540000
  C    -72.519800   35.749400  118.105000
  H    -72.363700   36.034200  117.100000
  H    -72.271100   36.663400  118.599000
  C    -71.580800   34.653100  118.636000
  H    -71.571800   34.462100  119.705000
  H    -71.919800   33.737400  118.278000
  H    -70.506900   34.819700  118.285000
  S    -76.155200   37.301600  123.516000
  C    -75.370600   37.997700  124.916000
  C    -74.115900   37.433700  125.159000
  C    -73.752300   36.471300  124.126000
  C    -74.778100   36.189700  123.208000
  H    -73.646400   37.826800  126.019000
  C    -72.403300   35.765200  124.005000
  H    -71.631400   36.442800  124.507000
  H    -72.066000   35.742200  122.968000
  C    -72.313200   34.387600  124.564000
  H    -72.995600   33.732700  124.076000
  H    -72.595600   34.524700  125.640000
  C    -70.913700   33.769400  124.467000
  H    -70.632200   33.664700  123.421000
  H    -70.822100   32.747500  124.869000
  H    -70.203200   34.358100  125.062000
  H    -75.768800   33.393200  119.215000
  H    -75.683700   38.743900  125.623000

 Total Charge           Charge          ....    0
 Multiplicity           Mult            ....    1
 Number of Electrons    NEL             ....  134
 Basis Dimension        Dim             ....  322

ORBITAL ENERGIES
----------------

  NO   OCC          E(Eh)            E(eV)
   0   2.0000     -88.968528     -2420.9567
   1   2.0000     -88.967140     -2420.9190
   2   2.0000     -10.330807      -281.1156
   3   2.0000     -10.330369      -281.1036
   4   2.0000     -10.319778      -280.8154
   5   2.0000     -10.315090      -280.6879
   6   2.0000     -10.313078      -280.6331
   7   2.0000     -10.303048      -280.3602
   8   2.0000     -10.297028      -280.1964
   9   2.0000     -10.294525      -280.1283
  10   2.0000     -10.294287      -280.1218
  11   2.0000     -10.289375      -279.9881
  12   2.0000     -10.279335      -279.7149
  13   2.0000     -10.278644      -279.6961
  14   2.0000     -10.276182      -279.6291
  15   2.0000     -10.273970      -279.5689
  16   2.0000      -8.083445      -219.9617
  17   2.0000      -8.080935      -219.8934
  18   2.0000      -6.041794      -164.4056
  19   2.0000      -6.039518      -164.3437
  20   2.0000      -6.037849      -164.2982
  21   2.0000      -6.035492      -164.2341
  22   2.0000      -6.034435      -164.2053
  23   2.0000      -6.031728      -164.1317
  24   2.0000      -1.004866       -27.3438
  25   2.0000      -0.979639       -26.6573
  26   2.0000      -0.914085       -24.8735
  27   2.0000      -0.909068       -24.7370
  28   2.0000      -0.867765       -23.6131
  29   2.0000      -0.846311       -23.0293
  30   2.0000      -0.842968       -22.9383
  31   2.0000      -0.815224       -22.1834
  32   2.0000      -0.784861       -21.3572
  33   2.0000      -0.769951       -20.9514
  34   2.0000      -0.713096       -19.4043
  35   2.0000      -0.697718       -18.9859
  36   2.0000      -0.687203       -18.6997
  37   2.0000      -0.655877       -17.8473
  38   2.0000      -0.644673       -17.5425
  39   2.0000      -0.621984       -16.9250
  40   2.0000      -0.589576       -16.0432
  41   2.0000      -0.574044       -15.6205
  42   2.0000      -0.565762       -15.3952
  43   2.0000      -0.553137       -15.0516
  44   2.0000      -0.537330       -14.6215
  45   2.0000      -0.518528       -14.1099
  46   2.0000      -0.516393       -14.0518
  47   2.0000      -0.510730       -13.8977
  48   2.0000      -0.502662       -13.6781
  49   2.0000      -0.499099       -13.5812
  50   2.0000      -0.488409       -13.2903
  51   2.0000      -0.487138       -13.2557
  52   2.0000      -0.468546       -12.7498
  53   2.0000      -0.465061       -12.6549
  54   2.0000      -0.461729       -12.5643
  55   2.0000      -0.448105       -12.1935
  56   2.0000      -0.442959       -12.0535
  57   2.0000      -0.434366       -11.8197
  58   2.0000      -0.430384       -11.7113
  59   2.0000      -0.425098       -11.5675
  60   2.0000      -0.416100       -11.3226
  61   2.0000      -0.412526       -11.2254
  62   2.0000      -0.409934       -11.1549
  63   2.0000      -0.336338        -9.1522
  64   2.0000      -0.328699        -8.9444
  65   2.0000      -0.326841        -8.8938
  66   2.0000      -0.304586        -8.2882
  67   0.0000       0.034051         0.9266
  68   0.0000       0.054388         1.4800
  69   0.0000       0.106215         2.8903
  70   0.0000       0.117093         3.1863
  71   0.0000       0.128234         3.4894

MULLIKEN ATOMIC CHARGES
-----------------------
   0 S :    0.119951
   1 C :   -0.114590
   2 C :   -0.112482
   3 C :    0.051105
   4 C :   -0.201572
   5 H :    0.029236
   6 C :    0.078531
   7 H :    0.053451
   8 H :    0.012399
   9 C :   -0.051485
  10 H :    0.013583
  11 H :    0.014839
  12 C :   -0.038609
  13 H :    0.038665
  14 H :    0.003261
  15 H :    0.043598
  16 S :    0.106159
  17 C :   -0.087124
  18 C :   -0.033624
  19 C :   -0.018367
  20 C :   -0.143437
  21 H :    0.007826
  22 C :    0.039920
  23 H :    0.021169
  24 H :    0.019544
  25 C :   -0.049040
  26 H :    0.026306
  27 H :    0.027377
  28 C :   -0.048048
  29 H :    0.030791
  30 H :    0.034492
  31 H :    0.028134
  32 H :    0.047367
  33 H :    0.050675
Sum of atomic charges:   -0.0000000

LOEWDIN ATOMIC CHARGES
----------------------
   0 S :    0.426640
   1 C :   -0.202579
   2 C :   -0.064347
   3 C :   -0.061212
   4 C :   -0.208414
   5 H :    0.035677
   6 C :   -0.018569
   7 H :    0.046206
   8 H :    0.018447
   9 C :   -0.041975
  10 H :    0.020099
  11 H :    0.018126
  12 C :   -0.066060
  13 H :    0.027941
  14 H :    0.013232
  15 H :    0.035469
  16 S :    0.390002
  17 C :   -0.181879
  18 C :   -0.072061
  19 C :   -0.041196
  20 C :   -0.199746
  21 H :    0.027810
  22 C :   -0.040322
  23 H :    0.032802
  24 H :    0.026723
  25 C :   -0.040791
  26 H :    0.020259
  27 H :    0.028050
  28 C :   -0.066134
  29 H :    0.024594
  30 H :    0.029025
  31 H :    0.024156
  32 H :    0.028293
  33 H :    0.031732

  Mayer bond orders larger than 0.100000
B(  0-S ,  1-C ) :   1.1447 B(  0-S ,  4-C ) :   1.1792 B(  1-C ,  2-C ) :   1.6014
B(  1-C ,  4-C ) :   0.1004 B(  1-C , 32-H ) :   0.9692 B(  2-C ,  3-C ) :   1.2428
B(  2-C ,  6-C ) :   1.0242 B(  3-C ,  4-C ) :   1.5645 B(  3-C ,  5-H ) :   0.9895
B(  4-C , 20-C ) :   1.0057 B(  6-C ,  7-H ) :   0.9403 B(  6-C ,  8-H ) :   0.9435
B(  6-C ,  9-C ) :   1.0807 B(  9-C , 10-H ) :   0.9544 B(  9-C , 11-H ) :   0.9493
B(  9-C , 12-C ) :   1.0707 B( 12-C , 13-H ) :   0.9682 B( 12-C , 14-H ) :   0.9756
B( 12-C , 15-H ) :   0.9747 B( 16-S , 17-C ) :   1.1595 B( 16-S , 20-C ) :   1.1191
B( 17-C , 18-C ) :   1.6371 B( 17-C , 33-H ) :   0.9627 B( 18-C , 19-C ) :   1.2102
B( 18-C , 21-H ) :   0.9993 B( 19-C , 20-C ) :   1.6114 B( 19-C , 22-C ) :   1.0451
B( 22-C , 23-H ) :   0.9347 B( 22-C , 24-H ) :   0.9265 B( 22-C , 25-C ) :   1.0755
B( 25-C , 26-H ) :   0.9519 B( 25-C , 27-H ) :   0.9518 B( 25-C , 28-C ) :   1.0875
B( 28-C , 29-H ) :   0.9732 B( 28-C , 30-H ) :   0.9733 B( 28-C , 31-H ) :   0.9746

Dispersion correction           -0.014747715
FINAL SINGLE POINT ENERGY     -1339.868103228564

DIPOLE MOMENT
-------------
                                X             Y             Z
Electronic contribution:    -25.28466       5.90951       7.48393
Nuclear contribution   :     25.65562      -5.64093      -7.73428
                        -----------------------------------------
Total Dipole Moment    :      0.37096       0.26858      -0.25035
                        -----------------------------------------
Magnitude (a.u.)       :      0.52194
Magnitude (Debye)      :      1.32666

Rotational constants in cm-1:     0.016855     0.009541     0.007615
Rotational constants in MHz :   505.298849   286.018111   228.294997

                             ****ORCA TERMINATED NORMALLY****
TOTAL RUN TIME: 0 days 0 hours 0 minutes 34 seconds 935 msec
