                         Program Version 4.2.1 -  RELEASE  -
|  1> ! wB97X-D3 SP def2-SVP
|  2> %pal
|  3> nprocs 16
|  4> end
|  5>
|  6> * xyz 0 1
|  7> S 	 -88.5601 	 49.1527 	 127.588
|  8> C 	 -89.8354 	 49.0292 	 126.437
|  9> C 	 -89.3384 	 48.6926 	 125.179
| 10> C 	 -87.8743 	 48.6665 	 125.152
| 11> C 	 -87.3002 	 48.8973 	 126.396
| 12> H 	 -87.2622 	 48.4294 	 124.289
| 13> C 	 -90.2095 	 48.4516 	 123.932
| 14> H 	 -90.473 	 49.4636 	 123.56
| 15> H 	 -91.1831 	 48.0858 	 124.126
| 16> C 	 -89.5982 	 47.5303 	 122.901
| 17> H 	 -90.1125 	 47.6441 	 121.957
| 18> H 	 -88.5262 	 47.8627 	 122.72
| 19> C 	 -89.4944 	 46.0465 	 123.336
| 20> H 	 -89.021 	 45.4824 	 122.498
| 21> H 	 -88.9118 	 46.0442 	 124.221
| 22> H 	 -90.4662 	 45.5375 	 123.425
| 23> S 	 -85.3176 	 47.5267 	 127.689
| 24> C 	 -83.6973 	 47.981 	 127.53
| 25> C 	 -83.5255 	 48.9072 	 126.52
| 26> C 	 -84.7625 	 49.3968 	 126.003
| 27> C 	 -85.882 	 48.8603 	 126.666
| 28> H 	 -82.551 	 49.3205 	 126.294
| 29> C 	 -84.8234 	 50.4371 	 124.94
| 30> H 	 -85.7091 	 50.2746 	 124.389
| 31> H 	 -84.0916 	 50.2581 	 124.223
| 32> C 	 -84.6549 	 51.8822 	 125.507
| 33> H 	 -84.7475 	 52.5531 	 124.634
| 34> H 	 -83.712 	 52.2241 	 125.876
| 35> C 	 -85.6997 	 52.2312 	 126.558
| 36> H 	 -85.855 	 53.3202 	 126.699
| 37> H 	 -85.5356 	 51.7568 	 127.467
| 38> H 	 -86.6443 	 51.7932 	 126.231
| 39> H 	 -90.8869 	 49.1315 	 126.715
| 40> H 	 -82.7713 	 47.5602 	 127.992
| 41> *
| 42>
| 43>                          ****END OF INPUT****

CARTESIAN COORDINATES (ANGSTROEM)
---------------------------------
  S    -88.560100   49.152700  127.588000
  C    -89.835400   49.029200  126.437000
  C    -89.338400   48.692600  125.179000
  C    -87.874300   48.666500  125.152000
  C    -87.300200   48.897300  126.396000
  H    -87.262200   48.429400  124.289000
  C    -90.209500   48.451600  123.932000
  H    -90.473000   49.463600  123.560000
  H    -91.183100   48.085800  124.126000
  C    -89.598200   47.530300  122.901000
  H    -90.112500   47.644100  121.957000
  H    -88.526200   47.862700  122.720000
  C    -89.494400   46.046500  123.336000
  H    -89.021000   45.482400  122.498000
  H    -88.911800   46.044200  124.221000
  H    -90.466200   45.537500  123.425000
  S    -85.317600   47.526700  127.689000
  C    -83.697300   47.981000  127.530000
  C    -83.525500   48.907200  126.520000
  C    -84.762500   49.396800  126.003000
  C    -85.882000   48.860300  126.666000
  H    -82.551000   49.320500  126.294000
  C    -84.823400   50.437100  124.940000
  H    -85.709100   50.274600  124.389000
  H    -84.091600   50.258100  124.223000
  C    -84.654900   51.882200  125.507000
  H    -84.747500   52.553100  124.634000
  H    -83.712000   52.224100  125.876000
  C    -85.699700   52.231200  126.558000
  H    -85.855000   53.320200  126.699000
  H    -85.535600   51.756800  127.467000
  H    -86.644300   51.793200  126.231000
  H    -90.886900   49.131500  126.715000
  H    -82.771300   47.560200  127.992000

 Total Charge           Charge          ....    0
 Multiplicity           Mult            ....    1
 Number of Electrons    NEL             ....  134
 Basis Dimension        Dim             ....  322

ORBITAL ENERGIES
----------------

  NO   OCC          E(Eh)            E(eV)
   0   2.0000     -88.966824     -2420.9104
   1   2.0000     -88.963819     -2420.8286
   2   2.0000     -10.330810      -281.1156
   3   2.0000     -10.325643      -280.9750
   4   2.0000     -10.316387      -280.7232
   5   2.0000     -10.315395      -280.6962
   6   2.0000     -10.308684      -280.5136
   7   2.0000     -10.302741      -280.3518
   8   2.0000     -10.299810      -280.2721
   9   2.0000     -10.291435      -280.0442
  10   2.0000     -10.289819      -280.0002
  11   2.0000     -10.289145      -279.9819
  12   2.0000     -10.282992      -279.8144
  13   2.0000     -10.282612      -279.8041
  14   2.0000     -10.277802      -279.6732
  15   2.0000     -10.262585      -279.2591
  16   2.0000      -8.081831      -219.9178
  17   2.0000      -8.079263      -219.8479
  18   2.0000      -6.040382      -164.3672
  19   2.0000      -6.037726      -164.2949
  20   2.0000      -6.036085      -164.2502
  21   2.0000      -6.033648      -164.1839
  22   2.0000      -6.032744      -164.1593
  23   2.0000      -6.030038      -164.0857
  24   2.0000      -1.007833       -27.4245
  25   2.0000      -0.985981       -26.8299
  26   2.0000      -0.911758       -24.8102
  27   2.0000      -0.910908       -24.7871
  28   2.0000      -0.872114       -23.7314
  29   2.0000      -0.847652       -23.0658
  30   2.0000      -0.840510       -22.8714
  31   2.0000      -0.813154       -22.1270
  32   2.0000      -0.786911       -21.4129
  33   2.0000      -0.774114       -21.0647
  34   2.0000      -0.709901       -19.3174
  35   2.0000      -0.698659       -19.0115
  36   2.0000      -0.688587       -18.7374
  37   2.0000      -0.655381       -17.8338
  38   2.0000      -0.642242       -17.4763
  39   2.0000      -0.626947       -17.0601
  40   2.0000      -0.595744       -16.2110
  41   2.0000      -0.568788       -15.4775
  42   2.0000      -0.555326       -15.1112
  43   2.0000      -0.552061       -15.0224
  44   2.0000      -0.539345       -14.6763
  45   2.0000      -0.531635       -14.4665
  46   2.0000      -0.515887       -14.0380
  47   2.0000      -0.509569       -13.8661
  48   2.0000      -0.505833       -13.7644
  49   2.0000      -0.501361       -13.6427
  50   2.0000      -0.492136       -13.3917
  51   2.0000      -0.477883       -13.0039
  52   2.0000      -0.469766       -12.7830
  53   2.0000      -0.465826       -12.6758
  54   2.0000      -0.460786       -12.5386
  55   2.0000      -0.451595       -12.2885
  56   2.0000      -0.445447       -12.1212
  57   2.0000      -0.436041       -11.8653
  58   2.0000      -0.432202       -11.7608
  59   2.0000      -0.420948       -11.4546
  60   2.0000      -0.416769       -11.3409
  61   2.0000      -0.415048       -11.2940
  62   2.0000      -0.406743       -11.0680
  63   2.0000      -0.345297        -9.3960
  64   2.0000      -0.327927        -8.9233
  65   2.0000      -0.325556        -8.8588
  66   2.0000      -0.295092        -8.0299
  67   0.0000       0.030260         0.8234
  68   0.0000       0.067942         1.8488
  69   0.0000       0.112547         3.0626
  70   0.0000       0.122147         3.3238
  71   0.0000       0.131006         3.5649

MULLIKEN ATOMIC CHARGES
-----------------------
   0 S :    0.123248
   1 C :   -0.127408
   2 C :   -0.106737
   3 C :    0.027119
   4 C :   -0.176384
   5 H :    0.024910
   6 C :    0.100661
   7 H :    0.041035
   8 H :    0.004045
   9 C :   -0.108223
  10 H :    0.026131
  11 H :    0.028861
  12 C :   -0.045932
  13 H :    0.038059
  14 H :    0.044143
  15 H :    0.033384
  16 S :    0.115722
  17 C :   -0.084260
  18 C :   -0.050412
  19 C :   -0.072217
  20 C :   -0.159095
  21 H :    0.016212
  22 C :    0.149080
  23 H :   -0.001116
  24 H :    0.000343
  25 C :   -0.059631
  26 H :    0.020232
  27 H :    0.017255
  28 C :   -0.032476
  29 H :    0.037899
  30 H :    0.029423
  31 H :    0.018319
  32 H :    0.058073
  33 H :    0.069736
Sum of atomic charges:   -0.0000000

LOEWDIN ATOMIC CHARGES
----------------------
   0 S :    0.420891
   1 C :   -0.207601
   2 C :   -0.061084
   3 C :   -0.062544
   4 C :   -0.205642
   5 H :    0.029954
   6 C :   -0.036167
   7 H :    0.039476
   8 H :    0.022921
   9 C :   -0.045303
  10 H :    0.022393
  11 H :    0.025311
  12 C :   -0.062392
  13 H :    0.032369
  14 H :    0.022846
  15 H :    0.025461
  16 S :    0.426038
  17 C :   -0.209322
  18 C :   -0.078628
  19 C :   -0.047191
  20 C :   -0.203110
  21 H :    0.030090
  22 C :   -0.023894
  23 H :    0.025478
  24 H :    0.025049
  25 C :   -0.034265
  26 H :    0.025145
  27 H :    0.018221
  28 C :   -0.062565
  29 H :    0.030506
  30 H :    0.016109
  31 H :    0.024500
  32 H :    0.033362
  33 H :    0.043587

  Mayer bond orders larger than 0.100000
B(  0-S ,  1-C ) :   1.1491 B(  0-S ,  4-C ) :   1.1563 B(  1-C ,  2-C ) :   1.5993
B(  1-C , 32-H ) :   0.9718 B(  2-C ,  3-C ) :   1.2404 B(  2-C ,  6-C ) :   1.0086
B(  3-C ,  4-C ) :   1.5659 B(  3-C ,  5-H ) :   0.9831 B(  4-C , 20-C ) :   1.0443
B(  6-C ,  7-H ) :   0.9349 B(  6-C ,  8-H ) :   0.9403 B(  6-C ,  9-C ) :   1.0756
B(  9-C , 10-H ) :   0.9522 B(  9-C , 11-H ) :   0.9537 B(  9-C , 12-C ) :   1.0743
B( 12-C , 13-H ) :   0.9737 B( 12-C , 14-H ) :   0.9756 B( 12-C , 15-H ) :   0.9748
B( 16-S , 17-C ) :   1.1764 B( 16-S , 20-C ) :   1.1435 B( 17-C , 18-C ) :   1.5914
B( 17-C , 20-C ) :   0.1020 B( 17-C , 33-H ) :   0.9582 B( 18-C , 19-C ) :   1.2591
B( 18-C , 21-H ) :   0.9910 B( 19-C , 20-C ) :   1.5578 B( 19-C , 22-C ) :   1.0625
B( 22-C , 23-H ) :   0.9238 B( 22-C , 24-H ) :   0.9190 B( 22-C , 25-C ) :   1.0673
B( 25-C , 26-H ) :   0.9539 B( 25-C , 27-H ) :   0.9599 B( 25-C , 28-C ) :   1.0746
B( 28-C , 29-H ) :   0.9725 B( 28-C , 30-H ) :   0.9711 B( 28-C , 31-H ) :   0.9738

Dispersion correction           -0.015590373
FINAL SINGLE POINT ENERGY     -1339.878812682144

DIPOLE MOMENT
-------------
                                X             Y             Z
Electronic contribution:      3.45929      -6.09115      18.90530
Nuclear contribution   :     -3.46140       6.19607     -19.55513
                        -----------------------------------------
Total Dipole Moment    :     -0.00212       0.10492      -0.64983
                        -----------------------------------------
Magnitude (a.u.)       :      0.65825
Magnitude (Debye)      :      1.67314

Rotational constants in cm-1:     0.019186     0.008785     0.008349
Rotational constants in MHz :   575.171369   263.360073   250.302450

                             ****ORCA TERMINATED NORMALLY****
TOTAL RUN TIME: 0 days 0 hours 0 minutes 35 seconds 829 msec
