                         Program Version 4.2.1 -  RELEASE  -
|  1> ! wB97X-D3 SP def2-SVP
|  2> %pal
|  3> nprocs 16
|  4> end
|  5>
|  6> * xyz 0 1
|  7> S 	 -100.285 	 44.1187 	 120.174
|  8> C 	 -99.4828 	 42.8651 	 119.27
|  9> C 	 -98.7995 	 41.9697 	 120.161
| 10> C 	 -98.9683 	 42.3443 	 121.527
| 11> C 	 -99.7602 	 43.5155 	 121.727
| 12> H 	 -98.5167 	 41.8031 	 122.314
| 13> C 	 -97.9769 	 40.7368 	 119.75
| 14> H 	 -98.1714 	 39.9801 	 120.553
| 15> H 	 -96.9358 	 40.9781 	 119.748
| 16> C 	 -98.2945 	 40.1467 	 118.393
| 17> H 	 -99.4237 	 40.0686 	 118.391
| 18> H 	 -97.9058 	 40.8246 	 117.629
| 19> C 	 -97.6725 	 38.7617 	 118.31
| 20> H 	 -98.0311 	 38.2868 	 117.365
| 21> H 	 -96.5648 	 38.6453 	 118.4
| 22> H 	 -98.117 	 38.2281 	 119.104
| 23> S 	 -99.405 	 45.8367 	 123.167
| 24> C 	 -99.5621 	 45.6769 	 124.975
| 25> C 	 -100.088 	 44.4235 	 125.296
| 26> C 	 -100.377 	 43.6427 	 124.146
| 27> C 	 -100.014 	 44.2055 	 122.983
| 28> H 	 -100.269 	 44.2219 	 126.305
| 29> C 	 -100.915 	 42.2045 	 124.272
| 30> H 	 -101.309 	 41.8141 	 123.361
| 31> H 	 -101.773 	 42.2444 	 124.925
| 32> C 	 -99.8669 	 41.1631 	 124.76
| 33> H 	 -99.8224 	 41.1539 	 125.842
| 34> H 	 -98.8982 	 41.5044 	 124.432
| 35> C 	 -100.123 	 39.6454 	 124.375
| 36> H 	 -100.616 	 39.6877 	 123.376
| 37> H 	 -100.808 	 39.024 	 125.03
| 38> H 	 -99.1196 	 39.1321 	 124.422
| 39> H 	 -99.3714 	 42.7772 	 118.154
| 40> H 	 -99.3771 	 46.4855 	 125.716
| 41> *
| 42>
| 43>                          ****END OF INPUT****

CARTESIAN COORDINATES (ANGSTROEM)
---------------------------------
  S    -100.285000   44.118700  120.174000
  C    -99.482800   42.865100  119.270000
  C    -98.799500   41.969700  120.161000
  C    -98.968300   42.344300  121.527000
  C    -99.760200   43.515500  121.727000
  H    -98.516700   41.803100  122.314000
  C    -97.976900   40.736800  119.750000
  H    -98.171400   39.980100  120.553000
  H    -96.935800   40.978100  119.748000
  C    -98.294500   40.146700  118.393000
  H    -99.423700   40.068600  118.391000
  H    -97.905800   40.824600  117.629000
  C    -97.672500   38.761700  118.310000
  H    -98.031100   38.286800  117.365000
  H    -96.564800   38.645300  118.400000
  H    -98.117000   38.228100  119.104000
  S    -99.405000   45.836700  123.167000
  C    -99.562100   45.676900  124.975000
  C    -100.088000   44.423500  125.296000
  C    -100.377000   43.642700  124.146000
  C    -100.014000   44.205500  122.983000
  H    -100.269000   44.221900  126.305000
  C    -100.915000   42.204500  124.272000
  H    -101.309000   41.814100  123.361000
  H    -101.773000   42.244400  124.925000
  C    -99.866900   41.163100  124.760000
  H    -99.822400   41.153900  125.842000
  H    -98.898200   41.504400  124.432000
  C    -100.123000   39.645400  124.375000
  H    -100.616000   39.687700  123.376000
  H    -100.808000   39.024000  125.030000
  H    -99.119600   39.132100  124.422000
  H    -99.371400   42.777200  118.154000
  H    -99.377100   46.485500  125.716000

 Total Charge           Charge          ....    0
 Multiplicity           Mult            ....    1
 Number of Electrons    NEL             ....  134
 Basis Dimension        Dim             ....  322

ORBITAL ENERGIES
----------------

  NO   OCC          E(Eh)            E(eV)
   0   2.0000     -88.970032     -2420.9977
   1   2.0000     -88.965773     -2420.8817
   2   2.0000     -10.333116      -281.1784
   3   2.0000     -10.328794      -281.0608
   4   2.0000     -10.322858      -280.8992
   5   2.0000     -10.320975      -280.8480
   6   2.0000     -10.304944      -280.4118
   7   2.0000     -10.300565      -280.2926
   8   2.0000     -10.295246      -280.1479
   9   2.0000     -10.295167      -280.1457
  10   2.0000     -10.293919      -280.1118
  11   2.0000     -10.291857      -280.0557
  12   2.0000     -10.290560      -280.0204
  13   2.0000     -10.289086      -279.9803
  14   2.0000     -10.288694      -279.9696
  15   2.0000     -10.281085      -279.7625
  16   2.0000      -8.084230      -219.9831
  17   2.0000      -8.079636      -219.8581
  18   2.0000      -6.042697      -164.4301
  19   2.0000      -6.038521      -164.3165
  20   2.0000      -6.038282      -164.3100
  21   2.0000      -6.035375      -164.2309
  22   2.0000      -6.034382      -164.2039
  23   2.0000      -6.030156      -164.0889
  24   2.0000      -1.004092       -27.3227
  25   2.0000      -0.978161       -26.6171
  26   2.0000      -0.916648       -24.9433
  27   2.0000      -0.900314       -24.4988
  28   2.0000      -0.867465       -23.6049
  29   2.0000      -0.849903       -23.1270
  30   2.0000      -0.843984       -22.9660
  31   2.0000      -0.809369       -22.0240
  32   2.0000      -0.779041       -21.1988
  33   2.0000      -0.768127       -20.9018
  34   2.0000      -0.706128       -19.2147
  35   2.0000      -0.698682       -19.0121
  36   2.0000      -0.690665       -18.7939
  37   2.0000      -0.667486       -18.1632
  38   2.0000      -0.635314       -17.2878
  39   2.0000      -0.613963       -16.7068
  40   2.0000      -0.594537       -16.1782
  41   2.0000      -0.581287       -15.8176
  42   2.0000      -0.568539       -15.4707
  43   2.0000      -0.559857       -15.2345
  44   2.0000      -0.525329       -14.2949
  45   2.0000      -0.522676       -14.2227
  46   2.0000      -0.516300       -14.0492
  47   2.0000      -0.511464       -13.9176
  48   2.0000      -0.503703       -13.7065
  49   2.0000      -0.496150       -13.5009
  50   2.0000      -0.490624       -13.3506
  51   2.0000      -0.478780       -13.0283
  52   2.0000      -0.469337       -12.7713
  53   2.0000      -0.461624       -12.5614
  54   2.0000      -0.459558       -12.5052
  55   2.0000      -0.447721       -12.1831
  56   2.0000      -0.444115       -12.0850
  57   2.0000      -0.435745       -11.8572
  58   2.0000      -0.432930       -11.7806
  59   2.0000      -0.425022       -11.5654
  60   2.0000      -0.419912       -11.4264
  61   2.0000      -0.419132       -11.4052
  62   2.0000      -0.410440       -11.1687
  63   2.0000      -0.344882        -9.3847
  64   2.0000      -0.331285        -9.0147
  65   2.0000      -0.328920        -8.9504
  66   2.0000      -0.293171        -7.9776
  67   0.0000       0.027778         0.7559
  68   0.0000       0.065234         1.7751
  69   0.0000       0.108211         2.9446
  70   0.0000       0.120828         3.2879
  71   0.0000       0.129895         3.5346

MULLIKEN ATOMIC CHARGES
-----------------------
   0 S :    0.126356
   1 C :   -0.141751
   2 C :   -0.110515
   3 C :    0.062872
   4 C :   -0.170240
   5 H :   -0.019540
   6 C :    0.035520
   7 H :    0.031432
   8 H :    0.038021
   9 C :   -0.110280
  10 H :    0.045899
  11 H :    0.039439
  12 C :   -0.035079
  13 H :    0.038402
  14 H :    0.044315
  15 H :    0.015961
  16 S :    0.097587
  17 C :   -0.121475
  18 C :   -0.008314
  19 C :   -0.051848
  20 C :   -0.117288
  21 H :    0.003496
  22 C :    0.106538
  23 H :    0.012947
  24 H :    0.023642
  25 C :   -0.083686
  26 H :    0.024805
  27 H :    0.035066
  28 C :   -0.101372
  29 H :    0.041129
  30 H :    0.048483
  31 H :    0.051071
  32 H :    0.072770
  33 H :    0.075638
Sum of atomic charges:   -0.0000000

LOEWDIN ATOMIC CHARGES
----------------------
   0 S :    0.425261
   1 C :   -0.226123
   2 C :   -0.062180
   3 C :   -0.055512
   4 C :   -0.198211
   5 H :    0.021346
   6 C :   -0.035788
   7 H :    0.033299
   8 H :    0.029912
   9 C :   -0.046993
  10 H :    0.034412
  11 H :    0.022817
  12 C :   -0.065679
  13 H :    0.031264
  14 H :    0.031072
  15 H :    0.018784
  16 S :    0.376045
  17 C :   -0.163874
  18 C :   -0.059039
  19 C :   -0.056345
  20 C :   -0.200602
  21 H :    0.024785
  22 C :   -0.024625
  23 H :    0.022990
  24 H :    0.029262
  25 C :   -0.040946
  26 H :    0.021877
  27 H :    0.018481
  28 C :   -0.078604
  29 H :    0.026571
  30 H :    0.030757
  31 H :    0.035548
  32 H :    0.041464
  33 H :    0.038576

  Mayer bond orders larger than 0.100000
B(  0-S ,  1-C ) :   1.1580 B(  0-S ,  4-C ) :   1.1722 B(  1-C ,  2-C ) :   1.5564
B(  1-C ,  4-C ) :   0.1098 B(  1-C , 32-H ) :   0.9579 B(  2-C ,  3-C ) :   1.3160
B(  2-C ,  6-C ) :   1.0074 B(  3-C ,  4-C ) :   1.5038 B(  3-C ,  5-H ) :   0.9951
B(  4-C , 20-C ) :   1.0259 B(  6-C ,  7-H ) :   0.9500 B(  6-C ,  8-H ) :   0.9293
B(  6-C ,  9-C ) :   1.0805 B(  9-C , 10-H ) :   0.9575 B(  9-C , 11-H ) :   0.9449
B(  9-C , 12-C ) :   1.0825 B( 12-C , 13-H ) :   0.9723 B( 12-C , 14-H ) :   0.9740
B( 12-C , 15-H ) :   0.9736 B( 16-S , 17-C ) :   1.1357 B( 16-S , 20-C ) :   1.1224
B( 17-C , 18-C ) :   1.6271 B( 17-C , 33-H ) :   0.9631 B( 18-C , 19-C ) :   1.2073
B( 18-C , 21-H ) :   1.0027 B( 19-C , 20-C ) :   1.6380 B( 19-C , 22-C ) :   1.0551
B( 22-C , 23-H ) :   0.9341 B( 22-C , 24-H ) :   0.9332 B( 22-C , 25-C ) :   1.0467
B( 25-C , 26-H ) :   0.9490 B( 25-C , 27-H ) :   0.9648 B( 25-C , 28-C ) :   1.0653
B( 28-C , 29-H ) :   0.9768 B( 28-C , 30-H ) :   0.9787 B( 28-C , 31-H ) :   0.9756

Dispersion correction           -0.014542498
FINAL SINGLE POINT ENERGY     -1339.871796868588

DIPOLE MOMENT
-------------
                                X             Y             Z
Electronic contribution:     -5.58761      31.67409       1.24727
Nuclear contribution   :      5.81578     -32.32889      -0.94316
                        -----------------------------------------
Total Dipole Moment    :      0.22817      -0.65479       0.30410
                        -----------------------------------------
Magnitude (a.u.)       :      0.75716
Magnitude (Debye)      :      1.92456

Rotational constants in cm-1:     0.019635     0.008514     0.006434
Rotational constants in MHz :   588.642024   255.245719   192.887364

                             ****ORCA TERMINATED NORMALLY****
TOTAL RUN TIME: 0 days 0 hours 0 minutes 32 seconds 300 msec
