                         Program Version 4.2.1 -  RELEASE  -
|  1> ! wB97X-D3 SP def2-SVP
|  2> %pal
|  3> nprocs 16
|  4> end
|  5>
|  6> * xyz 0 1
|  7> S 	 -23.7104 	 -5.50633 	 95.6488
|  8> C 	 -24.8008 	 -5.93204 	 96.963
|  9> C 	 -24.7195 	 -4.95704 	 97.9932
| 10> C 	 -23.6878 	 -4.0382 	 97.7291
| 11> C 	 -22.9828 	 -4.2409 	 96.5499
| 12> H 	 -23.3466 	 -3.37097 	 98.4867
| 13> C 	 -25.4058 	 -5.03507 	 99.369
| 14> H 	 -25.0848 	 -4.26913 	 100.019
| 15> H 	 -25.1439 	 -5.98829 	 99.8033
| 16> C 	 -26.9611 	 -5.103 	 99.2051
| 17> H 	 -27.2349 	 -5.89145 	 98.4873
| 18> H 	 -27.4235 	 -5.29942 	 100.122
| 19> C 	 -27.6276 	 -3.80588 	 98.6681
| 20> H 	 -27.3622 	 -2.90015 	 99.2058
| 21> H 	 -27.4609 	 -3.66908 	 97.5836
| 22> H 	 -28.688 	 -3.93906 	 98.8119
| 23> S 	 -20.2757 	 -4.63983 	 96.3761
| 24> C 	 -19.3173 	 -3.25321 	 95.8748
| 25> C 	 -20.0644 	 -2.08908 	 95.5892
| 26> C 	 -21.4682 	 -2.32666 	 95.749
| 27> C 	 -21.7391 	 -3.66026 	 96.1557
| 28> H 	 -19.5206 	 -1.17914 	 95.4257
| 29> C 	 -22.4669 	 -1.23489 	 95.5929
| 30> H 	 -23.389 	 -1.56809 	 95.7805
| 31> H 	 -22.5163 	 -0.989271 	 94.4879
| 32> C 	 -22.2721 	 -0.0646789 	 96.5351
| 33> H 	 -21.1868 	 0.137943 	 96.5269
| 34> H 	 -22.527 	 -0.338207 	 97.5668
| 35> C 	 -23.1512 	 1.2456 	 96.1952
| 36> H 	 -24.2025 	 0.968099 	 96.0905
| 37> H 	 -22.813 	 1.65012 	 95.2204
| 38> H 	 -22.9819 	 2.01605 	 96.8931
| 39> H 	 -25.2827 	 -6.97129 	 96.9885
| 40> H 	 -18.2278 	 -3.20647 	 95.9651
| 41> *
| 42>
| 43>                          ****END OF INPUT****

CARTESIAN COORDINATES (ANGSTROEM)
---------------------------------
  S    -23.710400   -5.506330   95.648800
  C    -24.800800   -5.932040   96.963000
  C    -24.719500   -4.957040   97.993200
  C    -23.687800   -4.038200   97.729100
  C    -22.982800   -4.240900   96.549900
  H    -23.346600   -3.370970   98.486700
  C    -25.405800   -5.035070   99.369000
  H    -25.084800   -4.269130  100.019000
  H    -25.143900   -5.988290   99.803300
  C    -26.961100   -5.103000   99.205100
  H    -27.234900   -5.891450   98.487300
  H    -27.423500   -5.299420  100.122000
  C    -27.627600   -3.805880   98.668100
  H    -27.362200   -2.900150   99.205800
  H    -27.460900   -3.669080   97.583600
  H    -28.688000   -3.939060   98.811900
  S    -20.275700   -4.639830   96.376100
  C    -19.317300   -3.253210   95.874800
  C    -20.064400   -2.089080   95.589200
  C    -21.468200   -2.326660   95.749000
  C    -21.739100   -3.660260   96.155700
  H    -19.520600   -1.179140   95.425700
  C    -22.466900   -1.234890   95.592900
  H    -23.389000   -1.568090   95.780500
  H    -22.516300   -0.989271   94.487900
  C    -22.272100   -0.064679   96.535100
  H    -21.186800    0.137943   96.526900
  H    -22.527000   -0.338207   97.566800
  C    -23.151200    1.245600   96.195200
  H    -24.202500    0.968099   96.090500
  H    -22.813000    1.650120   95.220400
  H    -22.981900    2.016050   96.893100
  H    -25.282700   -6.971290   96.988500
  H    -18.227800   -3.206470   95.965100

 Total Charge           Charge          ....    0
 Multiplicity           Mult            ....    1
 Number of Electrons    NEL             ....  134
 Basis Dimension        Dim             ....  322

ORBITAL ENERGIES
----------------

  NO   OCC          E(Eh)            E(eV)
   0   2.0000     -88.970227     -2421.0030
   1   2.0000     -88.964245     -2420.8402
   2   2.0000     -10.325484      -280.9707
   3   2.0000     -10.321545      -280.8635
   4   2.0000     -10.321066      -280.8505
   5   2.0000     -10.320912      -280.8463
   6   2.0000     -10.307289      -280.4756
   7   2.0000     -10.304038      -280.3871
   8   2.0000     -10.296571      -280.1839
   9   2.0000     -10.291767      -280.0532
  10   2.0000     -10.291598      -280.0486
  11   2.0000     -10.288422      -279.9622
  12   2.0000     -10.284166      -279.8464
  13   2.0000     -10.282369      -279.7975
  14   2.0000     -10.280582      -279.7489
  15   2.0000     -10.272521      -279.5295
  16   2.0000      -8.084166      -219.9813
  17   2.0000      -8.079405      -219.8518
  18   2.0000      -6.042604      -164.4276
  19   2.0000      -6.038867      -164.3259
  20   2.0000      -6.037689      -164.2939
  21   2.0000      -6.034970      -164.2199
  22   2.0000      -6.033679      -164.1847
  23   2.0000      -6.030549      -164.0996
  24   2.0000      -1.004586       -27.3362
  25   2.0000      -0.978086       -26.6151
  26   2.0000      -0.909761       -24.7559
  27   2.0000      -0.906402       -24.6645
  28   2.0000      -0.863372       -23.4936
  29   2.0000      -0.846810       -23.0429
  30   2.0000      -0.844692       -22.9852
  31   2.0000      -0.807771       -21.9806
  32   2.0000      -0.786572       -21.4037
  33   2.0000      -0.768622       -20.9153
  34   2.0000      -0.704780       -19.1780
  35   2.0000      -0.700420       -19.0594
  36   2.0000      -0.693403       -18.8685
  37   2.0000      -0.656062       -17.8524
  38   2.0000      -0.639042       -17.3892
  39   2.0000      -0.617067       -16.7913
  40   2.0000      -0.599243       -16.3062
  41   2.0000      -0.573398       -15.6029
  42   2.0000      -0.559063       -15.2129
  43   2.0000      -0.543553       -14.7908
  44   2.0000      -0.538131       -14.6433
  45   2.0000      -0.524807       -14.2807
  46   2.0000      -0.514804       -14.0085
  47   2.0000      -0.512192       -13.9374
  48   2.0000      -0.506472       -13.7818
  49   2.0000      -0.493254       -13.4221
  50   2.0000      -0.484637       -13.1877
  51   2.0000      -0.473687       -12.8897
  52   2.0000      -0.470269       -12.7967
  53   2.0000      -0.466002       -12.6806
  54   2.0000      -0.460069       -12.5191
  55   2.0000      -0.451096       -12.2750
  56   2.0000      -0.440513       -11.9870
  57   2.0000      -0.438005       -11.9187
  58   2.0000      -0.430307       -11.7092
  59   2.0000      -0.427228       -11.6255
  60   2.0000      -0.425448       -11.5770
  61   2.0000      -0.419700       -11.4206
  62   2.0000      -0.412252       -11.2179
  63   2.0000      -0.338557        -9.2126
  64   2.0000      -0.328557        -8.9405
  65   2.0000      -0.319490        -8.6938
  66   2.0000      -0.297187        -8.0869
  67   0.0000       0.031359         0.8533
  68   0.0000       0.054514         1.4834
  69   0.0000       0.111685         3.0391
  70   0.0000       0.125365         3.4114
  71   0.0000       0.126560         3.4439

MULLIKEN ATOMIC CHARGES
-----------------------
   0 S :    0.121593
   1 C :   -0.183713
   2 C :   -0.086131
   3 C :    0.056952
   4 C :   -0.197792
   5 H :   -0.000291
   6 C :    0.102578
   7 H :    0.013432
   8 H :    0.034654
   9 C :   -0.077502
  10 H :    0.031634
  11 H :    0.015787
  12 C :   -0.064213
  13 H :    0.027110
  14 H :    0.046565
  15 H :    0.026394
  16 S :    0.128621
  17 C :   -0.105330
  18 C :   -0.045301
  19 C :   -0.027174
  20 C :   -0.170625
  21 H :    0.024165
  22 C :    0.152936
  23 H :   -0.024531
  24 H :    0.041492
  25 C :   -0.113875
  26 H :    0.026397
  27 H :    0.032007
  28 C :   -0.038296
  29 H :    0.040233
  30 H :    0.028157
  31 H :    0.033864
  32 H :    0.088243
  33 H :    0.061959
Sum of atomic charges:   -0.0000000

LOEWDIN ATOMIC CHARGES
----------------------
   0 S :    0.425098
   1 C :   -0.218820
   2 C :   -0.059200
   3 C :   -0.061787
   4 C :   -0.218228
   5 H :    0.026478
   6 C :   -0.020075
   7 H :    0.021668
   8 H :    0.034524
   9 C :   -0.033012
  10 H :    0.027061
  11 H :    0.013065
  12 C :   -0.068355
  13 H :    0.020629
  14 H :    0.029107
  15 H :    0.023982
  16 S :    0.405095
  17 C :   -0.182711
  18 C :   -0.070226
  19 C :   -0.038657
  20 C :   -0.206401
  21 H :    0.031184
  22 C :   -0.032402
  23 H :    0.009731
  24 H :    0.043965
  25 C :   -0.033509
  26 H :    0.020110
  27 H :    0.024889
  28 C :   -0.059733
  29 H :    0.027262
  30 H :    0.026461
  31 H :    0.019904
  32 H :    0.043649
  33 H :    0.029254

  Mayer bond orders larger than 0.100000
B(  0-S ,  1-C ) :   1.1640 B(  0-S ,  4-C ) :   1.1780 B(  1-C ,  2-C ) :   1.5465
B(  1-C ,  4-C ) :   0.1088 B(  1-C , 32-H ) :   0.9585 B(  2-C ,  3-C ) :   1.2936
B(  2-C ,  6-C ) :   1.0153 B(  3-C ,  4-C ) :   1.5333 B(  3-C ,  5-H ) :   0.9992
B(  4-C , 20-C ) :   1.0412 B(  6-C ,  7-H ) :   0.9485 B(  6-C ,  8-H ) :   0.9406
B(  6-C ,  9-C ) :   1.0700 B(  9-C , 10-H ) :   0.9579 B(  9-C , 11-H ) :   0.9604
B(  9-C , 12-C ) :   1.0753 B( 12-C , 13-H ) :   0.9777 B( 12-C , 14-H ) :   0.9760
B( 12-C , 15-H ) :   0.9757 B( 16-S , 17-C ) :   1.1638 B( 16-S , 20-C ) :   1.1397
B( 17-C , 18-C ) :   1.6155 B( 17-C , 20-C ) :   0.1040 B( 17-C , 33-H ) :   0.9617
B( 18-C , 19-C ) :   1.2266 B( 18-C , 21-H ) :   0.9884 B( 19-C , 20-C ) :   1.5815
B( 19-C , 22-C ) :   1.0592 B( 22-C , 23-H ) :   0.9068 B( 22-C , 24-H ) :   0.9295
B( 22-C , 25-C ) :   1.0489 B( 25-C , 26-H ) :   0.9666 B( 25-C , 27-H ) :   0.9544
B( 25-C , 28-C ) :   1.0685 B( 28-C , 29-H ) :   0.9773 B( 28-C , 30-H ) :   0.9783
B( 28-C , 31-H ) :   0.9780

Dispersion correction           -0.014093589
FINAL SINGLE POINT ENERGY     -1339.867166946330

DIPOLE MOMENT
-------------
                                X             Y             Z
Electronic contribution:     18.28279     -18.72652     -10.17265
Nuclear contribution   :    -18.38241      19.06868      10.67383
                        -----------------------------------------
Total Dipole Moment    :     -0.09962       0.34216       0.50118
                        -----------------------------------------
Magnitude (a.u.)       :      0.61496
Magnitude (Debye)      :      1.56312

Rotational constants in cm-1:     0.017560     0.008771     0.006548
Rotational constants in MHz :   526.449895   262.949956   196.311152

                             ****ORCA TERMINATED NORMALLY****
TOTAL RUN TIME: 0 days 0 hours 0 minutes 28 seconds 152 msec
