                         Program Version 4.2.1 -  RELEASE  -
|  1> ! wB97X-D3 SP def2-SVP
|  2> %pal
|  3> nprocs 16
|  4> end
|  5>
|  6> * xyz 0 1
|  7> S 	 0.987628 	 1.35574 	 81.3431
|  8> C 	 0.113827 	 -0.0392786 	 81.9678
|  9> C 	 -0.800197 	 0.321937 	 82.9452
| 10> C 	 -0.724852 	 1.74218 	 83.2708
| 11> C 	 0.209715 	 2.45792 	 82.5389
| 12> H 	 -1.24703 	 2.26052 	 84.0158
| 13> C 	 -1.80329 	 -0.645292 	 83.5928
| 14> H 	 -2.19742 	 -1.33618 	 82.812
| 15> H 	 -2.50363 	 0.0477531 	 84.0272
| 16> C 	 -1.2238 	 -1.39954 	 84.7318
| 17> H 	 -0.205789 	 -1.67975 	 84.544
| 18> H 	 -1.14631 	 -0.803592 	 85.622
| 19> C 	 -2.03877 	 -2.67983 	 85.1582
| 20> H 	 -1.43987 	 -3.27213 	 85.9141
| 21> H 	 -3.03825 	 -2.38813 	 85.5725
| 22> H 	 -2.33661 	 -3.20355 	 84.2715
| 23> S 	 0.921761 	 4.67526 	 80.9785
| 24> C 	 0.949337 	 6.22952 	 81.7105
| 25> C 	 0.703657 	 6.07644 	 83.0468
| 26> C 	 0.523371 	 4.76054 	 83.521
| 27> C 	 0.576818 	 3.84305 	 82.532
| 28> H 	 0.632853 	 6.96661 	 83.631
| 29> C 	 0.0406115 	 4.59543 	 84.9919
| 30> H 	 -0.851977 	 4.10526 	 85.0343
| 31> H 	 -0.10309 	 5.54511 	 85.5242
| 32> C 	 0.984283 	 3.72766 	 85.8781
| 33> H 	 0.837651 	 2.63709 	 85.6464
| 34> H 	 0.546869 	 3.86426 	 86.8468
| 35> C 	 2.46817 	 4.16977 	 86.009
| 36> H 	 3.05026 	 3.65308 	 85.1822
| 37> H 	 2.90011 	 3.82776 	 86.9869
| 38> H 	 2.63172 	 5.20581 	 86.0149
| 39> H 	 0.189468 	 -1.06426 	 81.5956
| 40> H 	 0.857228 	 7.18898 	 81.2192
| 41> *
| 42>
| 43>                          ****END OF INPUT****

CARTESIAN COORDINATES (ANGSTROEM)
---------------------------------
  S      0.987628    1.355740   81.343100
  C      0.113827   -0.039279   81.967800
  C     -0.800197    0.321937   82.945200
  C     -0.724852    1.742180   83.270800
  C      0.209715    2.457920   82.538900
  H     -1.247030    2.260520   84.015800
  C     -1.803290   -0.645292   83.592800
  H     -2.197420   -1.336180   82.812000
  H     -2.503630    0.047753   84.027200
  C     -1.223800   -1.399540   84.731800
  H     -0.205789   -1.679750   84.544000
  H     -1.146310   -0.803592   85.622000
  C     -2.038770   -2.679830   85.158200
  H     -1.439870   -3.272130   85.914100
  H     -3.038250   -2.388130   85.572500
  H     -2.336610   -3.203550   84.271500
  S      0.921761    4.675260   80.978500
  C      0.949337    6.229520   81.710500
  C      0.703657    6.076440   83.046800
  C      0.523371    4.760540   83.521000
  C      0.576818    3.843050   82.532000
  H      0.632853    6.966610   83.631000
  C      0.040611    4.595430   84.991900
  H     -0.851977    4.105260   85.034300
  H     -0.103090    5.545110   85.524200
  C      0.984283    3.727660   85.878100
  H      0.837651    2.637090   85.646400
  H      0.546869    3.864260   86.846800
  C      2.468170    4.169770   86.009000
  H      3.050260    3.653080   85.182200
  H      2.900110    3.827760   86.986900
  H      2.631720    5.205810   86.014900
  H      0.189468   -1.064260   81.595600
  H      0.857228    7.188980   81.219200

 Total Charge           Charge          ....    0
 Multiplicity           Mult            ....    1
 Number of Electrons    NEL             ....  134
 Basis Dimension        Dim             ....  322

ORBITAL ENERGIES
----------------

  NO   OCC          E(Eh)            E(eV)
   0   2.0000     -88.965306     -2420.8691
   1   2.0000     -88.964516     -2420.8476
   2   2.0000     -10.335648      -281.2473
   3   2.0000     -10.328703      -281.0583
   4   2.0000     -10.316390      -280.7232
   5   2.0000     -10.314763      -280.6790
   6   2.0000     -10.306055      -280.4420
   7   2.0000     -10.301683      -280.3230
   8   2.0000     -10.297823      -280.2180
   9   2.0000     -10.294290      -280.1219
  10   2.0000     -10.293133      -280.0904
  11   2.0000     -10.287242      -279.9301
  12   2.0000     -10.287210      -279.9292
  13   2.0000     -10.286403      -279.9072
  14   2.0000     -10.280411      -279.7442
  15   2.0000     -10.278899      -279.7031
  16   2.0000      -8.080085      -219.8703
  17   2.0000      -8.078353      -219.8232
  18   2.0000      -6.038769      -164.3232
  19   2.0000      -6.037072      -164.2771
  20   2.0000      -6.034557      -164.2087
  21   2.0000      -6.032977      -164.1656
  22   2.0000      -6.030654      -164.1024
  23   2.0000      -6.028966      -164.0565
  24   2.0000      -1.008941       -27.4547
  25   2.0000      -0.981232       -26.7007
  26   2.0000      -0.915564       -24.9138
  27   2.0000      -0.905893       -24.6506
  28   2.0000      -0.872683       -23.7469
  29   2.0000      -0.848754       -23.0958
  30   2.0000      -0.840315       -22.8661
  31   2.0000      -0.815349       -22.1868
  32   2.0000      -0.789046       -21.4710
  33   2.0000      -0.774340       -21.0709
  34   2.0000      -0.712131       -19.3781
  35   2.0000      -0.700686       -19.0666
  36   2.0000      -0.688849       -18.7445
  37   2.0000      -0.666978       -18.1494
  38   2.0000      -0.641984       -17.4693
  39   2.0000      -0.620893       -16.8953
  40   2.0000      -0.595982       -16.2175
  41   2.0000      -0.573183       -15.5971
  42   2.0000      -0.562766       -15.3136
  43   2.0000      -0.556088       -15.1319
  44   2.0000      -0.539433       -14.6787
  45   2.0000      -0.526945       -14.3389
  46   2.0000      -0.517400       -14.0792
  47   2.0000      -0.510370       -13.8879
  48   2.0000      -0.507667       -13.8143
  49   2.0000      -0.498071       -13.5532
  50   2.0000      -0.495668       -13.4878
  51   2.0000      -0.483264       -13.1503
  52   2.0000      -0.473057       -12.8725
  53   2.0000      -0.467046       -12.7090
  54   2.0000      -0.462172       -12.5763
  55   2.0000      -0.448491       -12.2041
  56   2.0000      -0.441334       -12.0093
  57   2.0000      -0.436559       -11.8794
  58   2.0000      -0.429628       -11.6908
  59   2.0000      -0.423492       -11.5238
  60   2.0000      -0.419243       -11.4082
  61   2.0000      -0.409826       -11.1519
  62   2.0000      -0.406709       -11.0671
  63   2.0000      -0.361349        -9.8328
  64   2.0000      -0.333798        -9.0831
  65   2.0000      -0.329707        -8.9718
  66   2.0000      -0.286320        -7.7912
  67   0.0000       0.020699         0.5632
  68   0.0000       0.071045         1.9332
  69   0.0000       0.103873         2.8265
  70   0.0000       0.120444         3.2774
  71   0.0000       0.125783         3.4227

MULLIKEN ATOMIC CHARGES
-----------------------
   0 S :    0.088325
   1 C :   -0.113315
   2 C :   -0.118723
   3 C :    0.052318
   4 C :   -0.152191
   5 H :   -0.026398
   6 C :    0.095147
   7 H :    0.040586
   8 H :    0.020147
   9 C :   -0.067327
  10 H :    0.020894
  11 H :    0.018177
  12 C :   -0.062468
  13 H :    0.056088
  14 H :    0.028494
  15 H :    0.022032
  16 S :    0.098834
  17 C :   -0.076027
  18 C :   -0.060666
  19 C :   -0.012441
  20 C :   -0.113883
  21 H :    0.006501
  22 C :    0.095830
  23 H :    0.007259
  24 H :    0.021340
  25 C :   -0.109649
  26 H :    0.046795
  27 H :    0.017046
  28 C :   -0.052840
  29 H :    0.056246
  30 H :    0.034784
  31 H :    0.021245
  32 H :    0.052560
  33 H :    0.065280
Sum of atomic charges:    0.0000000

LOEWDIN ATOMIC CHARGES
----------------------
   0 S :    0.374204
   1 C :   -0.195446
   2 C :   -0.058166
   3 C :   -0.061725
   4 C :   -0.162424
   5 H :    0.018357
   6 C :   -0.029403
   7 H :    0.037071
   8 H :    0.032602
   9 C :   -0.043925
  10 H :    0.018457
  11 H :    0.021767
  12 C :   -0.068497
  13 H :    0.036238
  14 H :    0.026617
  15 H :    0.016850
  16 S :    0.398759
  17 C :   -0.193022
  18 C :   -0.071955
  19 C :   -0.055386
  20 C :   -0.186273
  21 H :    0.024728
  22 C :   -0.015710
  23 H :    0.014658
  24 H :    0.033036
  25 C :   -0.044363
  26 H :    0.028849
  27 H :    0.018299
  28 C :   -0.070093
  29 H :    0.038157
  30 H :    0.031497
  31 H :    0.015825
  32 H :    0.032723
  33 H :    0.037695

  Mayer bond orders larger than 0.100000
B(  0-S ,  1-C ) :   1.1270 B(  0-S ,  4-C ) :   1.1265 B(  1-C ,  2-C ) :   1.6338
B(  1-C , 32-H ) :   0.9660 B(  2-C ,  3-C ) :   1.2188 B(  2-C ,  6-C ) :   1.0177
B(  3-C ,  4-C ) :   1.5923 B(  3-C ,  5-H ) :   0.9945 B(  4-C , 20-C ) :   1.0765
B(  6-C ,  7-H ) :   0.9445 B(  6-C ,  8-H ) :   0.9317 B(  6-C ,  9-C ) :   1.0722
B(  9-C , 10-H ) :   0.9608 B(  9-C , 11-H ) :   0.9505 B(  9-C , 12-C ) :   1.0719
B( 12-C , 13-H ) :   0.9752 B( 12-C , 14-H ) :   0.9746 B( 12-C , 15-H ) :   0.9776
B( 16-S , 17-C ) :   1.1516 B( 16-S , 20-C ) :   1.1219 B( 17-C , 18-C ) :   1.6143
B( 17-C , 33-H ) :   0.9647 B( 18-C , 19-C ) :   1.2426 B( 18-C , 21-H ) :   0.9943
B( 19-C , 20-C ) :   1.6060 B( 19-C , 22-C ) :   1.0267 B( 22-C , 23-H ) :   0.9350
B( 22-C , 24-H ) :   0.9389 B( 22-C , 25-C ) :   1.0812 B( 25-C , 26-H ) :   0.9558
B( 25-C , 27-H ) :   0.9582 B( 25-C , 28-C ) :   1.0671 B( 28-C , 29-H ) :   0.9755
B( 28-C , 30-H ) :   0.9770 B( 28-C , 31-H ) :   0.9778

Dispersion correction           -0.014272490
FINAL SINGLE POINT ENERGY     -1339.867528934543

DIPOLE MOMENT
-------------
                                X             Y             Z
Electronic contribution:      6.64724      12.55392     -25.88696
Nuclear contribution   :     -7.13237     -12.46969      26.55881
                        -----------------------------------------
Total Dipole Moment    :     -0.48513       0.08423       0.67185
                        -----------------------------------------
Magnitude (a.u.)       :      0.83296
Magnitude (Debye)      :      2.11722

Rotational constants in cm-1:     0.020885     0.008176     0.006523
Rotational constants in MHz :   626.126254   245.099850   195.569596

                             ****ORCA TERMINATED NORMALLY****
TOTAL RUN TIME: 0 days 0 hours 0 minutes 32 seconds 929 msec
