                         Program Version 4.2.1 -  RELEASE  -
|  1> ! wB97X-D3 SP def2-SVP
|  2> %pal
|  3> nprocs 16
|  4> end
|  5>
|  6> * xyz 0 1
|  7> S 	 5.91771 	 -10.6849 	 64.8748
|  8> C 	 6.30087 	 -10.0025 	 66.38
|  9> C 	 5.18252 	 -9.4152 	 67.0211
| 10> C 	 4.00488 	 -9.44703 	 66.1017
| 11> C 	 4.32911 	 -9.97578 	 64.8781
| 12> H 	 3.04745 	 -9.15517 	 66.4348
| 13> C 	 5.20967 	 -8.89199 	 68.5165
| 14> H 	 4.24986 	 -8.45984 	 68.7231
| 15> H 	 5.87291 	 -8.03747 	 68.6211
| 16> C 	 5.59788 	 -10.0289 	 69.4753
| 17> H 	 5.0419 	 -10.9199 	 69.2713
| 18> H 	 6.6595 	 -10.3886 	 69.3816
| 19> C 	 5.37402 	 -9.48069 	 70.8762
| 20> H 	 5.89942 	 -8.58171 	 70.9255
| 21> H 	 4.41937 	 -9.1113 	 71.1174
| 22> H 	 5.77003 	 -10.1223 	 71.7292
| 23> S 	 2.40905 	 -8.9127 	 63.2503
| 24> C 	 1.49469 	 -9.85345 	 62.1747
| 25> C 	 1.97451 	 -11.112 	 62.1141
| 26> C 	 3.02284 	 -11.3821 	 63.0695
| 27> C 	 3.3767 	 -10.2615 	 63.762
| 28> H 	 1.56688 	 -11.8845 	 61.4854
| 29> C 	 3.63653 	 -12.77 	 63.0862
| 30> H 	 2.92543 	 -13.6387 	 62.9584
| 31> H 	 4.12585 	 -12.8794 	 64.0406
| 32> C 	 4.85209 	 -12.8577 	 62.0975
| 33> H 	 5.59605 	 -12.0695 	 62.2411
| 34> H 	 4.45466 	 -12.7928 	 61.0735
| 35> C 	 5.58284 	 -14.2086 	 62.0348
| 36> H 	 6.25452 	 -14.3129 	 61.1929
| 37> H 	 4.97078 	 -15.1256 	 62.0252
| 38> H 	 6.21936 	 -14.2257 	 62.9409
| 39> H 	 7.20941 	 -10.0872 	 66.8779
| 40> H 	 0.60626 	 -9.38587 	 61.7038
| 41> *
| 42>
| 43>                          ****END OF INPUT****

CARTESIAN COORDINATES (ANGSTROEM)
---------------------------------
  S      5.917710  -10.684900   64.874800
  C      6.300870  -10.002500   66.380000
  C      5.182520   -9.415200   67.021100
  C      4.004880   -9.447030   66.101700
  C      4.329110   -9.975780   64.878100
  H      3.047450   -9.155170   66.434800
  C      5.209670   -8.891990   68.516500
  H      4.249860   -8.459840   68.723100
  H      5.872910   -8.037470   68.621100
  C      5.597880  -10.028900   69.475300
  H      5.041900  -10.919900   69.271300
  H      6.659500  -10.388600   69.381600
  C      5.374020   -9.480690   70.876200
  H      5.899420   -8.581710   70.925500
  H      4.419370   -9.111300   71.117400
  H      5.770030  -10.122300   71.729200
  S      2.409050   -8.912700   63.250300
  C      1.494690   -9.853450   62.174700
  C      1.974510  -11.112000   62.114100
  C      3.022840  -11.382100   63.069500
  C      3.376700  -10.261500   63.762000
  H      1.566880  -11.884500   61.485400
  C      3.636530  -12.770000   63.086200
  H      2.925430  -13.638700   62.958400
  H      4.125850  -12.879400   64.040600
  C      4.852090  -12.857700   62.097500
  H      5.596050  -12.069500   62.241100
  H      4.454660  -12.792800   61.073500
  C      5.582840  -14.208600   62.034800
  H      6.254520  -14.312900   61.192900
  H      4.970780  -15.125600   62.025200
  H      6.219360  -14.225700   62.940900
  H      7.209410  -10.087200   66.877900
  H      0.606260   -9.385870   61.703800

 Total Charge           Charge          ....    0
 Multiplicity           Mult            ....    1
 Number of Electrons    NEL             ....  134
 Basis Dimension        Dim             ....  322

ORBITAL ENERGIES
----------------

  NO   OCC          E(Eh)            E(eV)
   0   2.0000     -88.969789     -2420.9910
   1   2.0000     -88.958154     -2420.6744
   2   2.0000     -10.331775      -281.1419
   3   2.0000     -10.324561      -280.9456
   4   2.0000     -10.311986      -280.6034
   5   2.0000     -10.310983      -280.5761
   6   2.0000     -10.309163      -280.5266
   7   2.0000     -10.299946      -280.2758
   8   2.0000     -10.299440      -280.2620
   9   2.0000     -10.299287      -280.2579
  10   2.0000     -10.295297      -280.1493
  11   2.0000     -10.290708      -280.0244
  12   2.0000     -10.287604      -279.9399
  13   2.0000     -10.285813      -279.8912
  14   2.0000     -10.275931      -279.6223
  15   2.0000     -10.272796      -279.5370
  16   2.0000      -8.084976      -220.0034
  17   2.0000      -8.074674      -219.7230
  18   2.0000      -6.043414      -164.4497
  19   2.0000      -6.039449      -164.3418
  20   2.0000      -6.035787      -164.2421
  21   2.0000      -6.033092      -164.1688
  22   2.0000      -6.028828      -164.0528
  23   2.0000      -6.025531      -163.9630
  24   2.0000      -1.011311       -27.5192
  25   2.0000      -0.989104       -26.9149
  26   2.0000      -0.912993       -24.8438
  27   2.0000      -0.903706       -24.5911
  28   2.0000      -0.869221       -23.6527
  29   2.0000      -0.850533       -23.1442
  30   2.0000      -0.845556       -23.0087
  31   2.0000      -0.814394       -22.1608
  32   2.0000      -0.780402       -21.2358
  33   2.0000      -0.770323       -20.9616
  34   2.0000      -0.712616       -19.3913
  35   2.0000      -0.695400       -18.9228
  36   2.0000      -0.686690       -18.6858
  37   2.0000      -0.667153       -18.1542
  38   2.0000      -0.645168       -17.5559
  39   2.0000      -0.616831       -16.7848
  40   2.0000      -0.601306       -16.3624
  41   2.0000      -0.568156       -15.4603
  42   2.0000      -0.563655       -15.3378
  43   2.0000      -0.560070       -15.2403
  44   2.0000      -0.528751       -14.3880
  45   2.0000      -0.522924       -14.2295
  46   2.0000      -0.517192       -14.0735
  47   2.0000      -0.510186       -13.8829
  48   2.0000      -0.508589       -13.8394
  49   2.0000      -0.496910       -13.5216
  50   2.0000      -0.491785       -13.3822
  51   2.0000      -0.477504       -12.9935
  52   2.0000      -0.469717       -12.7816
  53   2.0000      -0.461791       -12.5660
  54   2.0000      -0.459228       -12.4962
  55   2.0000      -0.454490       -12.3673
  56   2.0000      -0.450608       -12.2617
  57   2.0000      -0.441295       -12.0082
  58   2.0000      -0.436208       -11.8698
  59   2.0000      -0.422219       -11.4892
  60   2.0000      -0.421681       -11.4745
  61   2.0000      -0.416377       -11.3302
  62   2.0000      -0.401069       -10.9136
  63   2.0000      -0.352242        -9.5850
  64   2.0000      -0.329400        -8.9634
  65   2.0000      -0.324345        -8.8259
  66   2.0000      -0.296609        -8.0711
  67   0.0000       0.037238         1.0133
  68   0.0000       0.078345         2.1319
  69   0.0000       0.105262         2.8643
  70   0.0000       0.128073         3.4851
  71   0.0000       0.132394         3.6026

MULLIKEN ATOMIC CHARGES
-----------------------
   0 S :    0.113845
   1 C :   -0.076480
   2 C :   -0.133973
   3 C :    0.048340
   4 C :   -0.121436
   5 H :    0.003007
   6 C :    0.064336
   7 H :    0.013090
   8 H :    0.038726
   9 C :   -0.073529
  10 H :    0.034077
  11 H :    0.037289
  12 C :   -0.012786
  13 H :   -0.002450
  14 H :    0.012960
  15 H :    0.043115
  16 S :    0.098547
  17 C :   -0.097062
  18 C :   -0.014314
  19 C :   -0.040953
  20 C :   -0.165688
  21 H :    0.011143
  22 C :    0.063155
  23 H :    0.041361
  24 H :    0.010740
  25 C :   -0.089483
  26 H :    0.039009
  27 H :    0.022305
  28 C :   -0.053882
  29 H :    0.033010
  30 H :    0.031454
  31 H :    0.026022
  32 H :    0.022774
  33 H :    0.073732
Sum of atomic charges:   -0.0000000

LOEWDIN ATOMIC CHARGES
----------------------
   0 S :    0.441740
   1 C :   -0.207636
   2 C :   -0.051976
   3 C :   -0.054572
   4 C :   -0.199090
   5 H :    0.024181
   6 C :   -0.025483
   7 H :    0.026466
   8 H :    0.032662
   9 C :   -0.038042
  10 H :    0.021603
  11 H :    0.030861
  12 C :   -0.067995
  13 H :    0.017440
  14 H :    0.018349
  15 H :    0.033645
  16 S :    0.427599
  17 C :   -0.201266
  18 C :   -0.072065
  19 C :   -0.060953
  20 C :   -0.200980
  21 H :    0.028723
  22 C :   -0.034111
  23 H :    0.038372
  24 H :    0.019636
  25 C :   -0.041838
  26 H :    0.020982
  27 H :    0.020636
  28 C :   -0.071875
  29 H :    0.025093
  30 H :    0.024705
  31 H :    0.024139
  32 H :    0.013802
  33 H :    0.037247

  Mayer bond orders larger than 0.100000
B(  0-S ,  1-C ) :   1.1565 B(  0-S ,  4-C ) :   1.1564 B(  1-C ,  2-C ) :   1.6005
B(  1-C , 32-H ) :   0.9774 B(  2-C ,  3-C ) :   1.2487 B(  2-C ,  6-C ) :   1.0094
B(  3-C ,  4-C ) :   1.5697 B(  3-C ,  5-H ) :   1.0003 B(  4-C , 20-C ) :   0.9899
B(  6-C ,  7-H ) :   0.9491 B(  6-C ,  8-H ) :   0.9415 B(  6-C ,  9-C ) :   1.0512
B(  9-C , 10-H ) :   0.9629 B(  9-C , 11-H ) :   0.9522 B(  9-C , 12-C ) :   1.0781
B( 12-C , 13-H ) :   0.9629 B( 12-C , 14-H ) :   0.9736 B( 12-C , 15-H ) :   0.9721
B( 16-S , 17-C ) :   1.1655 B( 16-S , 20-C ) :   1.1558 B( 17-C , 18-C ) :   1.5855
B( 17-C , 33-H ) :   0.9663 B( 18-C , 19-C ) :   1.2377 B( 18-C , 21-H ) :   0.9964
B( 19-C , 20-C ) :   1.6144 B( 19-C , 22-C ) :   1.0562 B( 22-C , 23-H ) :   0.9390
B( 22-C , 24-H ) :   0.9258 B( 22-C , 25-C ) :   1.0546 B( 25-C , 26-H ) :   0.9548
B( 25-C , 27-H ) :   0.9602 B( 25-C , 28-C ) :   1.0771 B( 28-C , 29-H ) :   0.9753
B( 28-C , 30-H ) :   0.9750 B( 28-C , 31-H ) :   0.9762

Dispersion correction           -0.014007279
FINAL SINGLE POINT ENERGY     -1339.875062780289

DIPOLE MOMENT
-------------
                                X             Y             Z
Electronic contribution:     -7.38929      11.28981     -13.52243
Nuclear contribution   :      7.32642     -11.49344      13.90487
                        -----------------------------------------
Total Dipole Moment    :     -0.06287      -0.20363       0.38244
                        -----------------------------------------
Magnitude (a.u.)       :      0.43781
Magnitude (Debye)      :      1.11283

Rotational constants in cm-1:     0.021022     0.007549     0.006050
Rotational constants in MHz :   630.230779   226.323828   181.386790

                             ****ORCA TERMINATED NORMALLY****
TOTAL RUN TIME: 0 days 0 hours 0 minutes 28 seconds 648 msec
