                         Program Version 4.2.1 -  RELEASE  -
|  1> ! wB97X-D3 SP def2-SVP
|  2> %pal
|  3> nprocs 16
|  4> end
|  5>
|  6> * xyz 0 1
|  7> S 	 -31.8775 	 29.6621 	 42.5282
|  8> C 	 -30.8437 	 28.5539 	 43.4885
|  9> C 	 -31.2721 	 28.6442 	 44.7516
| 10> C 	 -32.3639 	 29.4912 	 44.9919
| 11> C 	 -32.789 	 30.2122 	 43.9386
| 12> H 	 -32.8021 	 29.7424 	 45.8916
| 13> C 	 -30.6432 	 27.8631 	 45.9461
| 14> H 	 -29.8385 	 27.2938 	 45.4884
| 15> H 	 -31.3689 	 27.041 	 46.2025
| 16> C 	 -30.2185 	 28.607 	 47.2079
| 17> H 	 -31.1957 	 28.9753 	 47.6665
| 18> H 	 -29.5904 	 27.9963 	 47.9114
| 19> C 	 -29.6013 	 29.9029 	 46.8188
| 20> H 	 -28.5416 	 29.7933 	 46.4983
| 21> H 	 -30.0567 	 30.4652 	 45.9932
| 22> H 	 -29.4987 	 30.5462 	 47.646
| 23> S 	 -33.0982 	 32.8768 	 44.2867
| 24> C 	 -34.6699 	 33.5166 	 44.3589
| 25> C 	 -35.577 	 32.7344 	 43.7234
| 26> C 	 -35.081 	 31.4301 	 43.4141
| 27> C 	 -33.7486 	 31.316 	 43.8497
| 28> H 	 -36.5412 	 33.123 	 43.5957
| 29> C 	 -35.9817 	 30.3292 	 42.9409
| 30> H 	 -37.0157 	 30.5343 	 43.2858
| 31> H 	 -35.7917 	 29.4228 	 43.5374
| 32> C 	 -36.222 	 30.1016 	 41.4611
| 33> H 	 -35.2272 	 29.9591 	 40.9116
| 34> H 	 -36.6324 	 31.1068 	 41.1075
| 35> C 	 -37.0972 	 28.8706 	 41.1684
| 36> H 	 -37.2099 	 28.7684 	 40.0985
| 37> H 	 -38.0594 	 29.0066 	 41.607
| 38> H 	 -36.605 	 28.0474 	 41.6769
| 39> H 	 -30.2214 	 27.7449 	 43.0936
| 40> H 	 -34.8173 	 34.5917 	 44.5107
| 41> *
| 42>
| 43>                          ****END OF INPUT****

CARTESIAN COORDINATES (ANGSTROEM)
---------------------------------
  S    -31.877500   29.662100   42.528200
  C    -30.843700   28.553900   43.488500
  C    -31.272100   28.644200   44.751600
  C    -32.363900   29.491200   44.991900
  C    -32.789000   30.212200   43.938600
  H    -32.802100   29.742400   45.891600
  C    -30.643200   27.863100   45.946100
  H    -29.838500   27.293800   45.488400
  H    -31.368900   27.041000   46.202500
  C    -30.218500   28.607000   47.207900
  H    -31.195700   28.975300   47.666500
  H    -29.590400   27.996300   47.911400
  C    -29.601300   29.902900   46.818800
  H    -28.541600   29.793300   46.498300
  H    -30.056700   30.465200   45.993200
  H    -29.498700   30.546200   47.646000
  S    -33.098200   32.876800   44.286700
  C    -34.669900   33.516600   44.358900
  C    -35.577000   32.734400   43.723400
  C    -35.081000   31.430100   43.414100
  C    -33.748600   31.316000   43.849700
  H    -36.541200   33.123000   43.595700
  C    -35.981700   30.329200   42.940900
  H    -37.015700   30.534300   43.285800
  H    -35.791700   29.422800   43.537400
  C    -36.222000   30.101600   41.461100
  H    -35.227200   29.959100   40.911600
  H    -36.632400   31.106800   41.107500
  C    -37.097200   28.870600   41.168400
  H    -37.209900   28.768400   40.098500
  H    -38.059400   29.006600   41.607000
  H    -36.605000   28.047400   41.676900
  H    -30.221400   27.744900   43.093600
  H    -34.817300   34.591700   44.510700

 Total Charge           Charge          ....    0
 Multiplicity           Mult            ....    1
 Number of Electrons    NEL             ....  134
 Basis Dimension        Dim             ....  322

ORBITAL ENERGIES
----------------

  NO   OCC          E(Eh)            E(eV)
   0   2.0000     -88.965398     -2420.8715
   1   2.0000     -88.957568     -2420.6585
   2   2.0000     -10.329874      -281.0902
   3   2.0000     -10.328231      -281.0454
   4   2.0000     -10.314885      -280.6823
   5   2.0000     -10.311654      -280.5944
   6   2.0000     -10.310556      -280.5645
   7   2.0000     -10.297335      -280.2047
   8   2.0000     -10.293780      -280.1080
   9   2.0000     -10.293651      -280.1045
  10   2.0000     -10.291955      -280.0583
  11   2.0000     -10.290837      -280.0279
  12   2.0000     -10.289143      -279.9818
  13   2.0000     -10.282696      -279.8064
  14   2.0000     -10.276511      -279.6381
  15   2.0000     -10.265212      -279.3306
  16   2.0000      -8.081526      -219.9095
  17   2.0000      -8.071861      -219.6465
  18   2.0000      -6.039774      -164.3506
  19   2.0000      -6.036011      -164.2482
  20   2.0000      -6.032289      -164.1469
  21   2.0000      -6.030524      -164.0989
  22   2.0000      -6.026337      -163.9850
  23   2.0000      -6.022534      -163.8815
  24   2.0000      -1.013126       -27.5685
  25   2.0000      -0.992264       -27.0009
  26   2.0000      -0.911968       -24.8159
  27   2.0000      -0.911777       -24.8107
  28   2.0000      -0.875258       -23.8170
  29   2.0000      -0.855398       -23.2766
  30   2.0000      -0.839145       -22.8343
  31   2.0000      -0.822609       -22.3843
  32   2.0000      -0.785075       -21.3630
  33   2.0000      -0.772990       -21.0341
  34   2.0000      -0.708944       -19.2914
  35   2.0000      -0.689960       -18.7748
  36   2.0000      -0.688177       -18.7263
  37   2.0000      -0.662459       -18.0264
  38   2.0000      -0.644533       -17.5386
  39   2.0000      -0.624188       -16.9850
  40   2.0000      -0.603240       -16.4150
  41   2.0000      -0.567713       -15.4482
  42   2.0000      -0.558490       -15.1973
  43   2.0000      -0.552093       -15.0232
  44   2.0000      -0.544479       -14.8160
  45   2.0000      -0.531241       -14.4558
  46   2.0000      -0.522400       -14.2152
  47   2.0000      -0.515177       -14.0187
  48   2.0000      -0.509908       -13.8753
  49   2.0000      -0.501912       -13.6577
  50   2.0000      -0.491083       -13.3630
  51   2.0000      -0.477942       -13.0055
  52   2.0000      -0.468303       -12.7432
  53   2.0000      -0.464344       -12.6355
  54   2.0000      -0.454449       -12.3662
  55   2.0000      -0.448710       -12.2100
  56   2.0000      -0.444256       -12.0888
  57   2.0000      -0.436438       -11.8761
  58   2.0000      -0.431616       -11.7449
  59   2.0000      -0.427949       -11.6451
  60   2.0000      -0.407605       -11.0915
  61   2.0000      -0.404728       -11.0132
  62   2.0000      -0.401841       -10.9347
  63   2.0000      -0.336613        -9.1597
  64   2.0000      -0.327314        -8.9067
  65   2.0000      -0.324722        -8.8361
  66   2.0000      -0.318144        -8.6571
  67   0.0000       0.036506         0.9934
  68   0.0000       0.057417         1.5624
  69   0.0000       0.110600         3.0096
  70   0.0000       0.120996         3.2925
  71   0.0000       0.130325         3.5463

MULLIKEN ATOMIC CHARGES
-----------------------
   0 S :    0.078179
   1 C :   -0.123310
   2 C :   -0.116444
   3 C :    0.086237
   4 C :   -0.158877
   5 H :   -0.026864
   6 C :    0.078795
   7 H :    0.002024
   8 H :    0.039429
   9 C :   -0.074458
  10 H :    0.036786
  11 H :    0.054660
  12 C :   -0.055340
  13 H :    0.017249
  14 H :    0.054765
  15 H :    0.016436
  16 S :    0.126935
  17 C :   -0.085721
  18 C :   -0.035085
  19 C :    0.052191
  20 C :   -0.207853
  21 H :    0.001076
  22 C :    0.021703
  23 H :    0.009169
  24 H :    0.028937
  25 C :   -0.113461
  26 H :    0.039349
  27 H :    0.030660
  28 C :   -0.001588
  29 H :    0.043412
  30 H :    0.018907
  31 H :    0.036099
  32 H :    0.063401
  33 H :    0.062602
Sum of atomic charges:   -0.0000000

LOEWDIN ATOMIC CHARGES
----------------------
   0 S :    0.367933
   1 C :   -0.182924
   2 C :   -0.070078
   3 C :   -0.059923
   4 C :   -0.183473
   5 H :    0.020225
   6 C :   -0.035415
   7 H :    0.021327
   8 H :    0.034985
   9 C :   -0.047825
  10 H :    0.032085
  11 H :    0.038095
  12 C :   -0.073048
  13 H :    0.024461
  14 H :    0.032923
  15 H :    0.016576
  16 S :    0.434886
  17 C :   -0.199152
  18 C :   -0.066836
  19 C :   -0.043653
  20 C :   -0.201729
  21 H :    0.024239
  22 C :   -0.047788
  23 H :    0.031913
  24 H :    0.032581
  25 C :   -0.047051
  26 H :    0.026033
  27 H :    0.026214
  28 C :   -0.055858
  29 H :    0.029753
  30 H :    0.019234
  31 H :    0.030304
  32 H :    0.039686
  33 H :    0.031302

  Mayer bond orders larger than 0.100000
B(  0-S ,  1-C ) :   1.1127 B(  0-S ,  4-C ) :   1.1387 B(  1-C ,  2-C ) :   1.6606
B(  1-C , 32-H ) :   0.9617 B(  2-C ,  3-C ) :   1.1987 B(  2-C ,  6-C ) :   1.0043
B(  3-C ,  4-C ) :   1.6294 B(  3-C ,  5-H ) :   1.0124 B(  4-C , 20-C ) :   1.0045
B(  6-C ,  7-H ) :   0.9399 B(  6-C ,  8-H ) :   0.9411 B(  6-C ,  9-C ) :   1.0652
B(  9-C , 10-H ) :   0.9496 B(  9-C , 11-H ) :   0.9544 B(  9-C , 12-C ) :   1.0879
B( 12-C , 13-H ) :   0.9698 B( 12-C , 14-H ) :   0.9645 B( 12-C , 15-H ) :   0.9732
B( 16-S , 17-C ) :   1.1665 B( 16-S , 20-C ) :   1.1735 B( 17-C , 18-C ) :   1.6162
B( 17-C , 33-H ) :   0.9600 B( 18-C , 19-C ) :   1.2349 B( 18-C , 21-H ) :   0.9996
B( 19-C , 20-C ) :   1.5698 B( 19-C , 22-C ) :   1.0463 B( 22-C , 23-H ) :   0.9351
B( 22-C , 24-H ) :   0.9349 B( 22-C , 25-C ) :   1.0510 B( 25-C , 26-H ) :   0.9551
B( 25-C , 27-H ) :   0.9519 B( 25-C , 28-C ) :   1.0763 B( 28-C , 29-H ) :   0.9735
B( 28-C , 30-H ) :   0.9735 B( 28-C , 31-H ) :   0.9729

Dispersion correction           -0.014483459
FINAL SINGLE POINT ENERGY     -1339.858174483656

DIPOLE MOMENT
-------------
                                X             Y             Z
Electronic contribution:      4.68165      11.74318      -4.76631
Nuclear contribution   :     -5.02479     -11.89813       5.03567
                        -----------------------------------------
Total Dipole Moment    :     -0.34314      -0.15495       0.26936
                        -----------------------------------------
Magnitude (a.u.)       :      0.46294
Magnitude (Debye)      :      1.17670

Rotational constants in cm-1:     0.019801     0.008617     0.006917
Rotational constants in MHz :   593.620617   258.326462   207.365590

                             ****ORCA TERMINATED NORMALLY****
TOTAL RUN TIME: 0 days 0 hours 0 minutes 33 seconds 421 msec
