                         Program Version 4.2.1 -  RELEASE  -
|  1> ! wB97X-D3 SP def2-SVP
|  2> %pal
|  3> nprocs 16
|  4> end
|  5>
|  6> * xyz 0 1
|  7> S 	 54.4716 	 12.8936 	 77.3103
|  8> C 	 56.146 	 13.3719 	 77.4227
|  9> C 	 56.8091 	 13.1388 	 76.2136
| 10> C 	 56.0463 	 12.3798 	 75.2864
| 11> C 	 54.7348 	 12.3182 	 75.7089
| 12> H 	 56.323 	 11.9689 	 74.3266
| 13> C 	 58.2326 	 13.4372 	 76.0123
| 14> H 	 58.4729 	 14.4633 	 76.2952
| 15> H 	 58.3736 	 13.2709 	 74.9776
| 16> C 	 59.2034 	 12.4272 	 76.8081
| 17> H 	 58.9398 	 12.4999 	 77.869
| 18> H 	 59.0672 	 11.3067 	 76.5808
| 19> C 	 60.684 	 12.9708 	 76.7699
| 20> H 	 60.9637 	 12.9462 	 75.7474
| 21> H 	 60.8563 	 14.0279 	 77.0533
| 22> H 	 61.3253 	 12.3162 	 77.398
| 23> S 	 52.4592 	 10.6302 	 75.921
| 24> C 	 51.8039 	 9.79799 	 74.5149
| 25> C 	 52.4127 	 10.3789 	 73.3933
| 26> C 	 53.4107 	 11.3469 	 73.6302
| 27> C 	 53.6748 	 11.5464 	 75.011
| 28> H 	 52.1732 	 10.1994 	 72.4133
| 29> C 	 54.2531 	 11.8939 	 72.422
| 30> H 	 54.9366 	 12.7277 	 72.7391
| 31> H 	 53.5695 	 12.2506 	 71.7041
| 32> C 	 55.055 	 10.8334 	 71.7361
| 33> H 	 54.4007 	 10.0315 	 71.41
| 34> H 	 55.7117 	 10.3294 	 72.3773
| 35> C 	 55.8145 	 11.3393 	 70.5122
| 36> H 	 56.7687 	 10.8146 	 70.446
| 37> H 	 55.8979 	 12.4783 	 70.6219
| 38> H 	 55.3365 	 11.1532 	 69.5771
| 39> H 	 56.5531 	 13.7725 	 78.325
| 40> H 	 50.9419 	 9.14043 	 74.5422
| 41> *
| 42>
| 43>                          ****END OF INPUT****

CARTESIAN COORDINATES (ANGSTROEM)
---------------------------------
  S     54.471600   12.893600   77.310300
  C     56.146000   13.371900   77.422700
  C     56.809100   13.138800   76.213600
  C     56.046300   12.379800   75.286400
  C     54.734800   12.318200   75.708900
  H     56.323000   11.968900   74.326600
  C     58.232600   13.437200   76.012300
  H     58.472900   14.463300   76.295200
  H     58.373600   13.270900   74.977600
  C     59.203400   12.427200   76.808100
  H     58.939800   12.499900   77.869000
  H     59.067200   11.306700   76.580800
  C     60.684000   12.970800   76.769900
  H     60.963700   12.946200   75.747400
  H     60.856300   14.027900   77.053300
  H     61.325300   12.316200   77.398000
  S     52.459200   10.630200   75.921000
  C     51.803900    9.797990   74.514900
  C     52.412700   10.378900   73.393300
  C     53.410700   11.346900   73.630200
  C     53.674800   11.546400   75.011000
  H     52.173200   10.199400   72.413300
  C     54.253100   11.893900   72.422000
  H     54.936600   12.727700   72.739100
  H     53.569500   12.250600   71.704100
  C     55.055000   10.833400   71.736100
  H     54.400700   10.031500   71.410000
  H     55.711700   10.329400   72.377300
  C     55.814500   11.339300   70.512200
  H     56.768700   10.814600   70.446000
  H     55.897900   12.478300   70.621900
  H     55.336500   11.153200   69.577100
  H     56.553100   13.772500   78.325000
  H     50.941900    9.140430   74.542200

 Total Charge           Charge          ....    0
 Multiplicity           Mult            ....    1
 Number of Electrons    NEL             ....  134
 Basis Dimension        Dim             ....  322

ORBITAL ENERGIES
----------------

  NO   OCC          E(Eh)            E(eV)
   0   2.0000     -88.968408     -2420.9535
   1   2.0000     -88.964541     -2420.8482
   2   2.0000     -10.333578      -281.1910
   3   2.0000     -10.329927      -281.0916
   4   2.0000     -10.323122      -280.9064
   5   2.0000     -10.311916      -280.6015
   6   2.0000     -10.304230      -280.3924
   7   2.0000     -10.300206      -280.2828
   8   2.0000     -10.299871      -280.2737
   9   2.0000     -10.294907      -280.1387
  10   2.0000     -10.294265      -280.1212
  11   2.0000     -10.289916      -280.0028
  12   2.0000     -10.289232      -279.9842
  13   2.0000     -10.282268      -279.7947
  14   2.0000     -10.281352      -279.7698
  15   2.0000     -10.277753      -279.6719
  16   2.0000      -8.083704      -219.9688
  17   2.0000      -8.078573      -219.8292
  18   2.0000      -6.042070      -164.4131
  19   2.0000      -6.038166      -164.3068
  20   2.0000      -6.037176      -164.2799
  21   2.0000      -6.034572      -164.2090
  22   2.0000      -6.032976      -164.1656
  23   2.0000      -6.029479      -164.0705
  24   2.0000      -1.007365       -27.4118
  25   2.0000      -0.982590       -26.7376
  26   2.0000      -0.915703       -24.9176
  27   2.0000      -0.907761       -24.7014
  28   2.0000      -0.862578       -23.4719
  29   2.0000      -0.854187       -23.2436
  30   2.0000      -0.845825       -23.0161
  31   2.0000      -0.812900       -22.1201
  32   2.0000      -0.780860       -21.2483
  33   2.0000      -0.769060       -20.9272
  34   2.0000      -0.704613       -19.1735
  35   2.0000      -0.702220       -19.1084
  36   2.0000      -0.695941       -18.9375
  37   2.0000      -0.667137       -18.1537
  38   2.0000      -0.645892       -17.5756
  39   2.0000      -0.619029       -16.8446
  40   2.0000      -0.600352       -16.3364
  41   2.0000      -0.571524       -15.5520
  42   2.0000      -0.565325       -15.3833
  43   2.0000      -0.552671       -15.0390
  44   2.0000      -0.529120       -14.3981
  45   2.0000      -0.525460       -14.2985
  46   2.0000      -0.519137       -14.1264
  47   2.0000      -0.514478       -13.9997
  48   2.0000      -0.504875       -13.7383
  49   2.0000      -0.502668       -13.6783
  50   2.0000      -0.494314       -13.4510
  51   2.0000      -0.481565       -13.1041
  52   2.0000      -0.471244       -12.8232
  53   2.0000      -0.464245       -12.6327
  54   2.0000      -0.456949       -12.4342
  55   2.0000      -0.450330       -12.2541
  56   2.0000      -0.448303       -12.1989
  57   2.0000      -0.443149       -12.0587
  58   2.0000      -0.436352       -11.8737
  59   2.0000      -0.430093       -11.7034
  60   2.0000      -0.416006       -11.3201
  61   2.0000      -0.413985       -11.2651
  62   2.0000      -0.409877       -11.1533
  63   2.0000      -0.351685        -9.5698
  64   2.0000      -0.333164        -9.0658
  65   2.0000      -0.327197        -8.9035
  66   2.0000      -0.283749        -7.7212
  67   0.0000       0.021271         0.5788
  68   0.0000       0.077380         2.1056
  69   0.0000       0.102468         2.7883
  70   0.0000       0.121547         3.3075
  71   0.0000       0.131752         3.5852

MULLIKEN ATOMIC CHARGES
-----------------------
   0 S :    0.115151
   1 C :   -0.130044
   2 C :   -0.070218
   3 C :    0.000251
   4 C :   -0.115547
   5 H :    0.013054
   6 C :    0.094340
   7 H :    0.032498
   8 H :    0.009628
   9 C :   -0.120067
  10 H :    0.025989
  11 H :    0.054704
  12 C :   -0.046219
  13 H :    0.020640
  14 H :    0.036116
  15 H :    0.044139
  16 S :    0.087692
  17 C :   -0.087988
  18 C :    0.002587
  19 C :   -0.046474
  20 C :   -0.147616
  21 H :   -0.018343
  22 C :    0.052900
  23 H :    0.037943
  24 H :    0.016494
  25 C :   -0.062440
  26 H :    0.016249
  27 H :    0.014043
  28 C :   -0.047457
  29 H :    0.035764
  30 H :    0.038207
  31 H :    0.029691
  32 H :    0.044701
  33 H :    0.069632
Sum of atomic charges:   -0.0000000

LOEWDIN ATOMIC CHARGES
----------------------
   0 S :    0.423321
   1 C :   -0.196632
   2 C :   -0.060334
   3 C :   -0.060803
   4 C :   -0.192245
   5 H :    0.033456
   6 C :   -0.029185
   7 H :    0.034389
   8 H :    0.023138
   9 C :   -0.040576
  10 H :    0.018348
  11 H :    0.037476
  12 C :   -0.070710
  13 H :    0.016845
  14 H :    0.028642
  15 H :    0.030042
  16 S :    0.392148
  17 C :   -0.184573
  18 C :   -0.062355
  19 C :   -0.058604
  20 C :   -0.190055
  21 H :    0.013140
  22 C :   -0.028388
  23 H :    0.031870
  24 H :    0.025136
  25 C :   -0.045995
  26 H :    0.023935
  27 H :    0.014217
  28 C :   -0.065365
  29 H :    0.029731
  30 H :    0.033542
  31 H :    0.020667
  32 H :    0.021725
  33 H :    0.034053

  Mayer bond orders larger than 0.100000
B(  0-S ,  1-C ) :   1.1424 B(  0-S ,  4-C ) :   1.1714 B(  1-C ,  2-C ) :   1.5642
B(  1-C , 32-H ) :   0.9782 B(  2-C ,  3-C ) :   1.2508 B(  2-C ,  6-C ) :   1.0485
B(  3-C ,  4-C ) :   1.5518 B(  3-C ,  5-H ) :   0.9878 B(  4-C , 20-C ) :   1.0463
B(  6-C ,  7-H ) :   0.9380 B(  6-C ,  8-H ) :   0.9337 B(  6-C ,  9-C ) :   1.0468
B(  9-C , 10-H ) :   0.9630 B(  9-C , 11-H ) :   0.9581 B(  9-C , 12-C ) :   1.0611
B( 12-C , 13-H ) :   0.9779 B( 12-C , 14-H ) :   0.9760 B( 12-C , 15-H ) :   0.9754
B( 16-S , 17-C ) :   1.1580 B( 16-S , 20-C ) :   1.1515 B( 17-C , 18-C ) :   1.5368
B( 17-C , 20-C ) :   0.1118 B( 17-C , 33-H ) :   0.9744 B( 18-C , 19-C ) :   1.3041
B( 18-C , 21-H ) :   0.9961 B( 19-C , 20-C ) :   1.5445 B( 19-C , 22-C ) :   1.0411
B( 22-C , 23-H ) :   0.9353 B( 22-C , 24-H ) :   0.9272 B( 22-C , 25-C ) :   1.0810
B( 25-C , 26-H ) :   0.9455 B( 25-C , 27-H ) :   0.9578 B( 25-C , 28-C ) :   1.0669
B( 28-C , 29-H ) :   0.9758 B( 28-C , 30-H ) :   0.9767 B( 28-C , 31-H ) :   0.9764

Dispersion correction           -0.013721083
FINAL SINGLE POINT ENERGY     -1339.864555126012

DIPOLE MOMENT
-------------
                                X             Y             Z
Electronic contribution:    -26.18054      -1.50105      16.47397
Nuclear contribution   :     26.66277       1.43795     -16.95150
                        -----------------------------------------
Total Dipole Moment    :      0.48222      -0.06310      -0.47753
                        -----------------------------------------
Magnitude (a.u.)       :      0.68159
Magnitude (Debye)      :      1.73246

Rotational constants in cm-1:     0.017483     0.008573     0.006175
Rotational constants in MHz :   524.137138   257.012360   185.128878

                             ****ORCA TERMINATED NORMALLY****
TOTAL RUN TIME: 0 days 0 hours 0 minutes 29 seconds 281 msec
