                         Program Version 4.2.1 -  RELEASE  -
|  1> ! wB97X-D3 SP def2-SVP
|  2> %pal
|  3> nprocs 16
|  4> end
|  5>
|  6> * xyz 0 1
|  7> S 	 6.93807 	 25.1101 	 43.3106
|  8> C 	 5.30627 	 25.479 	 43.4143
|  9> C 	 4.91481 	 26.5021 	 42.5614
| 10> C 	 5.98933 	 26.9387 	 41.7231
| 11> C 	 7.10633 	 26.1537 	 41.8741
| 12> H 	 6.03084 	 27.7513 	 40.9858
| 13> C 	 3.53367 	 27.1239 	 42.5525
| 14> H 	 2.87886 	 26.2255 	 42.3889
| 15> H 	 3.44247 	 27.7194 	 41.6649
| 16> C 	 3.02675 	 27.8007 	 43.8836
| 17> H 	 1.98949 	 28.0789 	 43.8038
| 18> H 	 3.04375 	 27.0458 	 44.7299
| 19> C 	 3.81149 	 29.0108 	 44.4107
| 20> H 	 3.44033 	 29.4355 	 45.2957
| 21> H 	 4.88803 	 28.8922 	 44.5141
| 22> H 	 3.6729 	 29.7623 	 43.6194
| 23> S 	 9.67366 	 26.912 	 42.1938
| 24> C 	 10.6708 	 27.2953 	 40.863
| 25> C 	 9.97636 	 27.233 	 39.7071
| 26> C 	 8.62901 	 26.7393 	 39.8488
| 27> C 	 8.35841 	 26.407 	 41.1676
| 28> H 	 10.4809 	 27.4865 	 38.7815
| 29> C 	 7.66901 	 26.6797 	 38.6524
| 30> H 	 8.10267 	 27.3471 	 38.0084
| 31> H 	 6.62631 	 26.855 	 39.0175
| 32> C 	 7.58124 	 25.2569 	 37.929
| 33> H 	 7.30005 	 24.5262 	 38.6804
| 34> H 	 8.60918 	 24.9398 	 37.6687
| 35> C 	 6.60066 	 25.209 	 36.7066
| 36> H 	 5.56351 	 25.2648 	 37.1015
| 37> H 	 6.59708 	 24.1797 	 36.2163
| 38> H 	 6.79361 	 25.8741 	 35.9419
| 39> H 	 4.58245 	 25.0163 	 44.0883
| 40> H 	 11.7581 	 27.4164 	 40.9585
| 41> *
| 42>
| 43>                          ****END OF INPUT****

CARTESIAN COORDINATES (ANGSTROEM)
---------------------------------
  S      6.938070   25.110100   43.310600
  C      5.306270   25.479000   43.414300
  C      4.914810   26.502100   42.561400
  C      5.989330   26.938700   41.723100
  C      7.106330   26.153700   41.874100
  H      6.030840   27.751300   40.985800
  C      3.533670   27.123900   42.552500
  H      2.878860   26.225500   42.388900
  H      3.442470   27.719400   41.664900
  C      3.026750   27.800700   43.883600
  H      1.989490   28.078900   43.803800
  H      3.043750   27.045800   44.729900
  C      3.811490   29.010800   44.410700
  H      3.440330   29.435500   45.295700
  H      4.888030   28.892200   44.514100
  H      3.672900   29.762300   43.619400
  S      9.673660   26.912000   42.193800
  C     10.670800   27.295300   40.863000
  C      9.976360   27.233000   39.707100
  C      8.629010   26.739300   39.848800
  C      8.358410   26.407000   41.167600
  H     10.480900   27.486500   38.781500
  C      7.669010   26.679700   38.652400
  H      8.102670   27.347100   38.008400
  H      6.626310   26.855000   39.017500
  C      7.581240   25.256900   37.929000
  H      7.300050   24.526200   38.680400
  H      8.609180   24.939800   37.668700
  C      6.600660   25.209000   36.706600
  H      5.563510   25.264800   37.101500
  H      6.597080   24.179700   36.216300
  H      6.793610   25.874100   35.941900
  H      4.582450   25.016300   44.088300
  H     11.758100   27.416400   40.958500

 Total Charge           Charge          ....    0
 Multiplicity           Mult            ....    1
 Number of Electrons    NEL             ....  134
 Basis Dimension        Dim             ....  322

ORBITAL ENERGIES
----------------

  NO   OCC          E(Eh)            E(eV)
   0   2.0000     -88.969316     -2420.9782
   1   2.0000     -88.958111     -2420.6733
   2   2.0000     -10.327133      -281.0156
   3   2.0000     -10.322759      -280.8966
   4   2.0000     -10.310294      -280.5574
   5   2.0000     -10.310284      -280.5571
   6   2.0000     -10.304202      -280.3916
   7   2.0000     -10.300315      -280.2858
   8   2.0000     -10.297632      -280.2128
   9   2.0000     -10.295769      -280.1621
  10   2.0000     -10.294872      -280.1377
  11   2.0000     -10.292821      -280.0819
  12   2.0000     -10.290220      -280.0111
  13   2.0000     -10.290159      -280.0095
  14   2.0000     -10.281889      -279.7844
  15   2.0000     -10.271265      -279.4953
  16   2.0000      -8.084638      -219.9942
  17   2.0000      -8.074390      -219.7153
  18   2.0000      -6.042992      -164.4382
  19   2.0000      -6.039166      -164.3341
  20   2.0000      -6.035424      -164.2322
  21   2.0000      -6.032869      -164.1627
  22   2.0000      -6.028662      -164.0482
  23   2.0000      -6.025095      -163.9512
  24   2.0000      -1.012037       -27.5389
  25   2.0000      -0.990862       -26.9627
  26   2.0000      -0.904525       -24.6134
  27   2.0000      -0.898966       -24.4621
  28   2.0000      -0.873350       -23.7651
  29   2.0000      -0.853016       -23.2118
  30   2.0000      -0.844690       -22.9852
  31   2.0000      -0.815658       -22.1952
  32   2.0000      -0.781789       -21.2736
  33   2.0000      -0.770399       -20.9636
  34   2.0000      -0.705381       -19.1944
  35   2.0000      -0.703310       -19.1380
  36   2.0000      -0.690538       -18.7905
  37   2.0000      -0.664390       -18.0790
  38   2.0000      -0.640432       -17.4270
  39   2.0000      -0.610043       -16.6001
  40   2.0000      -0.589635       -16.0448
  41   2.0000      -0.570936       -15.5360
  42   2.0000      -0.564645       -15.3648
  43   2.0000      -0.547099       -14.8873
  44   2.0000      -0.539444       -14.6790
  45   2.0000      -0.520131       -14.1535
  46   2.0000      -0.515647       -14.0315
  47   2.0000      -0.511632       -13.9222
  48   2.0000      -0.502682       -13.6787
  49   2.0000      -0.496166       -13.5014
  50   2.0000      -0.491985       -13.3876
  51   2.0000      -0.480504       -13.0752
  52   2.0000      -0.475303       -12.9336
  53   2.0000      -0.468376       -12.7452
  54   2.0000      -0.462421       -12.5831
  55   2.0000      -0.447570       -12.1790
  56   2.0000      -0.444438       -12.0938
  57   2.0000      -0.438115       -11.9217
  58   2.0000      -0.430623       -11.7179
  59   2.0000      -0.426043       -11.5932
  60   2.0000      -0.419409       -11.4127
  61   2.0000      -0.417507       -11.3609
  62   2.0000      -0.409969       -11.1558
  63   2.0000      -0.352060        -9.5800
  64   2.0000      -0.329007        -8.9527
  65   2.0000      -0.324469        -8.8293
  66   2.0000      -0.291150        -7.9226
  67   0.0000       0.029713         0.8085
  68   0.0000       0.071109         1.9350
  69   0.0000       0.109848         2.9891
  70   0.0000       0.125736         3.4215
  71   0.0000       0.133972         3.6456

MULLIKEN ATOMIC CHARGES
-----------------------
   0 S :    0.130416
   1 C :   -0.109712
   2 C :   -0.105395
   3 C :    0.019187
   4 C :   -0.174814
   5 H :    0.033971
   6 C :    0.069355
   7 H :    0.041680
   8 H :    0.016502
   9 C :   -0.078015
  10 H :    0.030579
  11 H :    0.025725
  12 C :   -0.034810
  13 H :    0.025213
  14 H :    0.042376
  15 H :    0.017553
  16 S :    0.092103
  17 C :   -0.095504
  18 C :   -0.039560
  19 C :   -0.080512
  20 C :   -0.133047
  21 H :    0.016391
  22 C :    0.117710
  23 H :    0.001344
  24 H :    0.027199
  25 C :   -0.087466
  26 H :    0.032801
  27 H :    0.022991
  28 C :   -0.044772
  29 H :    0.037257
  30 H :    0.038151
  31 H :    0.027037
  32 H :    0.051028
  33 H :    0.067037
Sum of atomic charges:    0.0000000

LOEWDIN ATOMIC CHARGES
----------------------
   0 S :    0.427236
   1 C :   -0.218720
   2 C :   -0.070087
   3 C :   -0.056961
   4 C :   -0.196308
   5 H :    0.037557
   6 C :   -0.033834
   7 H :    0.043971
   8 H :    0.024422
   9 C :   -0.039995
  10 H :    0.023117
  11 H :    0.023986
  12 C :   -0.065847
  13 H :    0.019441
  14 H :    0.027723
  15 H :    0.024777
  16 S :    0.417507
  17 C :   -0.199960
  18 C :   -0.077646
  19 C :   -0.058040
  20 C :   -0.199820
  21 H :    0.030998
  22 C :   -0.020777
  23 H :    0.016572
  24 H :    0.033779
  25 C :   -0.037667
  26 H :    0.024859
  27 H :    0.020681
  28 C :   -0.067782
  29 H :    0.030468
  30 H :    0.036766
  31 H :    0.011987
  32 H :    0.031987
  33 H :    0.035613

  Mayer bond orders larger than 0.100000
B(  0-S ,  1-C ) :   1.1595 B(  0-S ,  4-C ) :   1.1509 B(  1-C ,  2-C ) :   1.5920
B(  1-C , 32-H ) :   0.9646 B(  2-C ,  3-C ) :   1.2486 B(  2-C ,  6-C ) :   1.0165
B(  3-C ,  4-C ) :   1.5676 B(  3-C ,  5-H ) :   0.9845 B(  4-C , 20-C ) :   1.0279
B(  6-C ,  7-H ) :   0.9352 B(  6-C ,  8-H ) :   0.9470 B(  6-C ,  9-C ) :   1.0654
B(  9-C , 10-H ) :   0.9571 B(  9-C , 11-H ) :   0.9565 B(  9-C , 12-C ) :   1.0717
B( 12-C , 13-H ) :   0.9744 B( 12-C , 14-H ) :   0.9767 B( 12-C , 15-H ) :   0.9754
B( 16-S , 17-C ) :   1.1607 B( 16-S , 20-C ) :   1.1546 B( 17-C , 18-C ) :   1.6146
B( 17-C , 33-H ) :   0.9629 B( 18-C , 19-C ) :   1.2398 B( 18-C , 21-H ) :   0.9910
B( 19-C , 20-C ) :   1.5988 B( 19-C , 22-C ) :   1.0414 B( 22-C , 23-H ) :   0.9257
B( 22-C , 24-H ) :   0.9340 B( 22-C , 25-C ) :   1.0622 B( 25-C , 26-H ) :   0.9599
B( 25-C , 27-H ) :   0.9583 B( 25-C , 28-C ) :   1.0726 B( 28-C , 29-H ) :   0.9754
B( 28-C , 30-H ) :   0.9734 B( 28-C , 31-H ) :   0.9800

Dispersion correction           -0.014005982
FINAL SINGLE POINT ENERGY     -1339.871634992357

DIPOLE MOMENT
-------------
                                X             Y             Z
Electronic contribution:     18.99406      -5.54302      12.29929
Nuclear contribution   :    -19.38969       5.78521     -12.64363
                        -----------------------------------------
Total Dipole Moment    :     -0.39563       0.24219      -0.34435
                        -----------------------------------------
Magnitude (a.u.)       :      0.57771
Magnitude (Debye)      :      1.46843

Rotational constants in cm-1:     0.017661     0.008448     0.006877
Rotational constants in MHz :   529.454797   253.263026   206.167543

                             ****ORCA TERMINATED NORMALLY****
TOTAL RUN TIME: 0 days 0 hours 0 minutes 33 seconds 971 msec
