                         Program Version 4.2.1 -  RELEASE  -
|  1> ! wB97X-D3 SP def2-SVP
|  2> %pal
|  3> nprocs 16
|  4> end
|  5>
|  6> * xyz 0 1
|  7> S 	 49.394 	 7.56453 	 91.4577
|  8> C 	 50.106 	 9.13749 	 90.9563
|  9> C 	 50.7323 	 9.02917 	 89.7473
| 10> C 	 50.3965 	 7.77468 	 89.1107
| 11> C 	 49.6156 	 6.90058 	 89.8604
| 12> H 	 50.5721 	 7.52693 	 88.1039
| 13> C 	 51.3871 	 10.2 	 89.0578
| 14> H 	 50.7728 	 11.0671 	 89.2893
| 15> H 	 51.3153 	 10.1479 	 87.9859
| 16> C 	 52.7556 	 10.594 	 89.5262
| 17> H 	 53.1767 	 11.5135 	 89.0229
| 18> H 	 52.6164 	 10.9522 	 90.5355
| 19> C 	 53.7297 	 9.41879 	 89.4968
| 20> H 	 53.3273 	 8.68088 	 90.1405
| 21> H 	 53.871 	 8.81964 	 88.5695
| 22> H 	 54.7285 	 9.56451 	 89.92
| 23> S 	 49.4392 	 4.04941 	 90.0824
| 24> C 	 48.4053 	 3.19646 	 88.9769
| 25> C 	 47.7369 	 4.0682 	 88.2075
| 26> C 	 48.0745 	 5.49495 	 88.3271
| 27> C 	 48.9787 	 5.68356 	 89.4147
| 28> H 	 47.1035 	 3.60899 	 87.5164
| 29> C 	 47.6778 	 6.52257 	 87.2354
| 30> H 	 47.5425 	 7.50318 	 87.5678
| 31> H 	 46.6709 	 6.23216 	 86.8702
| 32> C 	 48.5203 	 6.58076 	 85.9759
| 33> H 	 48.5704 	 5.70441 	 85.3784
| 34> H 	 49.516 	 6.74756 	 86.3829
| 35> C 	 48.1334 	 7.72174 	 85.033
| 36> H 	 47.0844 	 7.74512 	 84.7856
| 37> H 	 48.6619 	 7.61181 	 84.1443
| 38> H 	 48.3582 	 8.64108 	 85.3852
| 39> H 	 50.4421 	 9.95883 	 91.627
| 40> H 	 48.4167 	 2.0845 	 88.7565
| 41> *
| 42>
| 43>                          ****END OF INPUT****

CARTESIAN COORDINATES (ANGSTROEM)
---------------------------------
  S     49.394000    7.564530   91.457700
  C     50.106000    9.137490   90.956300
  C     50.732300    9.029170   89.747300
  C     50.396500    7.774680   89.110700
  C     49.615600    6.900580   89.860400
  H     50.572100    7.526930   88.103900
  C     51.387100   10.200000   89.057800
  H     50.772800   11.067100   89.289300
  H     51.315300   10.147900   87.985900
  C     52.755600   10.594000   89.526200
  H     53.176700   11.513500   89.022900
  H     52.616400   10.952200   90.535500
  C     53.729700    9.418790   89.496800
  H     53.327300    8.680880   90.140500
  H     53.871000    8.819640   88.569500
  H     54.728500    9.564510   89.920000
  S     49.439200    4.049410   90.082400
  C     48.405300    3.196460   88.976900
  C     47.736900    4.068200   88.207500
  C     48.074500    5.494950   88.327100
  C     48.978700    5.683560   89.414700
  H     47.103500    3.608990   87.516400
  C     47.677800    6.522570   87.235400
  H     47.542500    7.503180   87.567800
  H     46.670900    6.232160   86.870200
  C     48.520300    6.580760   85.975900
  H     48.570400    5.704410   85.378400
  H     49.516000    6.747560   86.382900
  C     48.133400    7.721740   85.033000
  H     47.084400    7.745120   84.785600
  H     48.661900    7.611810   84.144300
  H     48.358200    8.641080   85.385200
  H     50.442100    9.958830   91.627000
  H     48.416700    2.084500   88.756500

 Total Charge           Charge          ....    0
 Multiplicity           Mult            ....    1
 Number of Electrons    NEL             ....  134
 Basis Dimension        Dim             ....  322

ORBITAL ENERGIES
----------------

  NO   OCC          E(Eh)            E(eV)
   0   2.0000     -88.966265     -2420.8951
   1   2.0000     -88.963925     -2420.8315
   2   2.0000     -10.337926      -281.3093
   3   2.0000     -10.331958      -281.1469
   4   2.0000     -10.320420      -280.8329
   5   2.0000     -10.319479      -280.8073
   6   2.0000     -10.318475      -280.7800
   7   2.0000     -10.304576      -280.4018
   8   2.0000     -10.295298      -280.1493
   9   2.0000     -10.292842      -280.0825
  10   2.0000     -10.290978      -280.0317
  11   2.0000     -10.290396      -280.0159
  12   2.0000     -10.289954      -280.0039
  13   2.0000     -10.283235      -279.8211
  14   2.0000     -10.272250      -279.5221
  15   2.0000     -10.265344      -279.3342
  16   2.0000      -8.080438      -219.8799
  17   2.0000      -8.078001      -219.8136
  18   2.0000      -6.039154      -164.3337
  19   2.0000      -6.036692      -164.2667
  20   2.0000      -6.035017      -164.2212
  21   2.0000      -6.032578      -164.1548
  22   2.0000      -6.030994      -164.1117
  23   2.0000      -6.028598      -164.0465
  24   2.0000      -1.001304       -27.2469
  25   2.0000      -0.980100       -26.6699
  26   2.0000      -0.920796       -25.0561
  27   2.0000      -0.914221       -24.8772
  28   2.0000      -0.872358       -23.7381
  29   2.0000      -0.849177       -23.1073
  30   2.0000      -0.841292       -22.8927
  31   2.0000      -0.816731       -22.2244
  32   2.0000      -0.791650       -21.5419
  33   2.0000      -0.779933       -21.2231
  34   2.0000      -0.713121       -19.4050
  35   2.0000      -0.706446       -19.2234
  36   2.0000      -0.699105       -19.0236
  37   2.0000      -0.652584       -17.7577
  38   2.0000      -0.636339       -17.3157
  39   2.0000      -0.617402       -16.8004
  40   2.0000      -0.598384       -16.2829
  41   2.0000      -0.579637       -15.7727
  42   2.0000      -0.571983       -15.5644
  43   2.0000      -0.554432       -15.0869
  44   2.0000      -0.544237       -14.8094
  45   2.0000      -0.529201       -14.4003
  46   2.0000      -0.518226       -14.1016
  47   2.0000      -0.510037       -13.8788
  48   2.0000      -0.505149       -13.7458
  49   2.0000      -0.500373       -13.6158
  50   2.0000      -0.491994       -13.3878
  51   2.0000      -0.479826       -13.0567
  52   2.0000      -0.476436       -12.9645
  53   2.0000      -0.466344       -12.6899
  54   2.0000      -0.456056       -12.4099
  55   2.0000      -0.451405       -12.2834
  56   2.0000      -0.443858       -12.0780
  57   2.0000      -0.442041       -12.0285
  58   2.0000      -0.431579       -11.7439
  59   2.0000      -0.428549       -11.6614
  60   2.0000      -0.419520       -11.4157
  61   2.0000      -0.412934       -11.2365
  62   2.0000      -0.411791       -11.2054
  63   2.0000      -0.342458        -9.3188
  64   2.0000      -0.331942        -9.0326
  65   2.0000      -0.326383        -8.8813
  66   2.0000      -0.302247        -8.2246
  67   0.0000       0.030140         0.8201
  68   0.0000       0.053210         1.4479
  69   0.0000       0.112721         3.0673
  70   0.0000       0.117496         3.1972
  71   0.0000       0.121437         3.3045

MULLIKEN ATOMIC CHARGES
-----------------------
   0 S :    0.109511
   1 C :   -0.121550
   2 C :   -0.102381
   3 C :    0.056495
   4 C :   -0.150415
   5 H :   -0.021964
   6 C :    0.066670
   7 H :    0.029376
   8 H :    0.021846
   9 C :   -0.056372
  10 H :    0.036868
  11 H :    0.013826
  12 C :   -0.055815
  13 H :    0.024349
  14 H :    0.032394
  15 H :    0.031579
  16 S :    0.092379
  17 C :   -0.111669
  18 C :   -0.018097
  19 C :   -0.001354
  20 C :   -0.166602
  21 H :   -0.004118
  22 C :    0.077436
  23 H :    0.015874
  24 H :    0.014633
  25 C :   -0.054493
  26 H :    0.019967
  27 H :    0.008977
  28 C :    0.020514
  29 H :    0.021194
  30 H :    0.015952
  31 H :    0.001813
  32 H :    0.065158
  33 H :    0.088018
Sum of atomic charges:    0.0000000

LOEWDIN ATOMIC CHARGES
----------------------
   0 S :    0.392647
   1 C :   -0.188721
   2 C :   -0.062257
   3 C :   -0.053369
   4 C :   -0.194603
   5 H :    0.017951
   6 C :   -0.032871
   7 H :    0.037743
   8 H :    0.027197
   9 C :   -0.041180
  10 H :    0.030132
  11 H :    0.020911
  12 C :   -0.077970
  13 H :    0.023239
  14 H :    0.029728
  15 H :    0.026779
  16 S :    0.374144
  17 C :   -0.194018
  18 C :   -0.073810
  19 C :   -0.035727
  20 C :   -0.184680
  21 H :    0.021168
  22 C :   -0.028304
  23 H :    0.023986
  24 H :    0.031948
  25 C :   -0.031037
  26 H :    0.019343
  27 H :    0.018849
  28 C :   -0.046755
  29 H :    0.025874
  30 H :    0.022949
  31 H :    0.010439
  32 H :    0.037499
  33 H :    0.052772

  Mayer bond orders larger than 0.100000
B(  0-S ,  1-C ) :   1.1268 B(  0-S ,  4-C ) :   1.1431 B(  1-C ,  2-C ) :   1.6460
B(  1-C , 32-H ) :   0.9512 B(  2-C ,  3-C ) :   1.2115 B(  2-C ,  6-C ) :   1.0061
B(  3-C ,  4-C ) :   1.5836 B(  3-C ,  5-H ) :   1.0067 B(  4-C , 20-C ) :   1.0541
B(  6-C ,  7-H ) :   0.9445 B(  6-C ,  8-H ) :   0.9459 B(  6-C ,  9-C ) :   1.0739
B(  9-C , 10-H ) :   0.9551 B(  9-C , 11-H ) :   0.9531 B(  9-C , 12-C ) :   1.0701
B( 12-C , 13-H ) :   0.9650 B( 12-C , 14-H ) :   0.9772 B( 12-C , 15-H ) :   0.9748
B( 16-S , 17-C ) :   1.1348 B( 16-S , 20-C ) :   1.1230 B( 17-C , 18-C ) :   1.6664
B( 17-C , 33-H ) :   0.9529 B( 18-C , 19-C ) :   1.1985 B( 18-C , 21-H ) :   0.9935
B( 19-C , 20-C ) :   1.5951 B( 19-C , 22-C ) :   1.0537 B( 22-C , 23-H ) :   0.9364
B( 22-C , 24-H ) :   0.9281 B( 22-C , 25-C ) :   1.0625 B( 25-C , 26-H ) :   0.9546
B( 25-C , 27-H ) :   0.9506 B( 25-C , 28-C ) :   1.0891 B( 28-C , 29-H ) :   0.9724
B( 28-C , 30-H ) :   0.9697 B( 28-C , 31-H ) :   0.9709

Dispersion correction           -0.014667670
FINAL SINGLE POINT ENERGY     -1339.851074425186

DIPOLE MOMENT
-------------
                                X             Y             Z
Electronic contribution:     -7.89012     -17.18817      20.26066
Nuclear contribution   :      7.96580      17.48439     -21.05874
                        -----------------------------------------
Total Dipole Moment    :      0.07567       0.29622      -0.79807
                        -----------------------------------------
Magnitude (a.u.)       :      0.85463
Magnitude (Debye)      :      2.17230

Rotational constants in cm-1:     0.017662     0.008920     0.006927
Rotational constants in MHz :   529.485304   267.428545   207.676971

                             ****ORCA TERMINATED NORMALLY****
TOTAL RUN TIME: 0 days 0 hours 0 minutes 30 seconds 697 msec
