                         Program Version 4.2.1 -  RELEASE  -
|  1> ! wB97X-D3 SP def2-SVP
|  2> %pal
|  3> nprocs 16
|  4> end
|  5>
|  6> * xyz 0 1
|  7> S 	 5.33997 	 -8.34416 	 75.4329
|  8> C 	 3.90728 	 -8.82004 	 76.2419
|  9> C 	 3.27644 	 -9.90217 	 75.6434
| 10> C 	 4.08623 	 -10.3609 	 74.5146
| 11> C 	 5.31013 	 -9.67951 	 74.3969
| 12> H 	 3.87047 	 -11.086 	 73.7561
| 13> C 	 1.88854 	 -10.374 	 75.9667
| 14> H 	 1.29354 	 -10.3061 	 75.0652
| 15> H 	 1.48018 	 -9.67447 	 76.6969
| 16> C 	 1.77329 	 -11.8861 	 76.3058
| 17> H 	 2.37177 	 -12.4858 	 75.6037
| 18> H 	 2.19911 	 -12.0817 	 77.2724
| 19> C 	 0.293322 	 -12.4595 	 76.345
| 20> H 	 0.304365 	 -13.5557 	 76.433
| 21> H 	 -0.206261 	 -12.1586 	 77.2748
| 22> H 	 -0.216485 	 -12.1851 	 75.4293
| 23> S 	 6.31756 	 -8.51832 	 72.0988
| 24> C 	 7.18518 	 -9.53598 	 70.9675
| 25> C 	 7.25745 	 -10.878 	 71.4073
| 26> C 	 6.72402 	 -10.9952 	 72.7407
| 27> C 	 6.23485 	 -9.79956 	 73.2656
| 28> H 	 7.73519 	 -11.6366 	 70.8588
| 29> C 	 6.73046 	 -12.4472 	 73.3926
| 30> H 	 5.95716 	 -13.012 	 73.0671
| 31> H 	 6.58122 	 -12.2369 	 74.4467
| 32> C 	 8.03093 	 -13.2467 	 73.2437
| 33> H 	 8.97234 	 -12.6726 	 73.526
| 34> H 	 8.04887 	 -13.7034 	 72.248
| 35> C 	 8.01293 	 -14.4776 	 74.1759
| 36> H 	 7.69248 	 -15.3583 	 73.6596
| 37> H 	 7.33254 	 -14.3156 	 75.0341
| 38> H 	 8.98976 	 -14.7752 	 74.6499
| 39> H 	 3.43137 	 -8.25734 	 76.9592
| 40> H 	 7.57104 	 -9.21823 	 70.0396
| 41> *
| 42>
| 43>                          ****END OF INPUT****

CARTESIAN COORDINATES (ANGSTROEM)
---------------------------------
  S      5.339970   -8.344160   75.432900
  C      3.907280   -8.820040   76.241900
  C      3.276440   -9.902170   75.643400
  C      4.086230  -10.360900   74.514600
  C      5.310130   -9.679510   74.396900
  H      3.870470  -11.086000   73.756100
  C      1.888540  -10.374000   75.966700
  H      1.293540  -10.306100   75.065200
  H      1.480180   -9.674470   76.696900
  C      1.773290  -11.886100   76.305800
  H      2.371770  -12.485800   75.603700
  H      2.199110  -12.081700   77.272400
  C      0.293322  -12.459500   76.345000
  H      0.304365  -13.555700   76.433000
  H     -0.206261  -12.158600   77.274800
  H     -0.216485  -12.185100   75.429300
  S      6.317560   -8.518320   72.098800
  C      7.185180   -9.535980   70.967500
  C      7.257450  -10.878000   71.407300
  C      6.724020  -10.995200   72.740700
  C      6.234850   -9.799560   73.265600
  H      7.735190  -11.636600   70.858800
  C      6.730460  -12.447200   73.392600
  H      5.957160  -13.012000   73.067100
  H      6.581220  -12.236900   74.446700
  C      8.030930  -13.246700   73.243700
  H      8.972340  -12.672600   73.526000
  H      8.048870  -13.703400   72.248000
  C      8.012930  -14.477600   74.175900
  H      7.692480  -15.358300   73.659600
  H      7.332540  -14.315600   75.034100
  H      8.989760  -14.775200   74.649900
  H      3.431370   -8.257340   76.959200
  H      7.571040   -9.218230   70.039600

 Total Charge           Charge          ....    0
 Multiplicity           Mult            ....    1
 Number of Electrons    NEL             ....  134
 Basis Dimension        Dim             ....  322

ORBITAL ENERGIES
----------------

  NO   OCC          E(Eh)            E(eV)
   0   2.0000     -88.968019     -2420.9429
   1   2.0000     -88.964770     -2420.8545
   2   2.0000     -10.324780      -280.9516
   3   2.0000     -10.324613      -280.9470
   4   2.0000     -10.318572      -280.7826
   5   2.0000     -10.305881      -280.4373
   6   2.0000     -10.305616      -280.4301
   7   2.0000     -10.304536      -280.4007
   8   2.0000     -10.296016      -280.1688
   9   2.0000     -10.294427      -280.1256
  10   2.0000     -10.293613      -280.1035
  11   2.0000     -10.292342      -280.0689
  12   2.0000     -10.290157      -280.0094
  13   2.0000     -10.287208      -279.9292
  14   2.0000     -10.283961      -279.8408
  15   2.0000     -10.278134      -279.6822
  16   2.0000      -8.082792      -219.9440
  17   2.0000      -8.081243      -219.9018
  18   2.0000      -6.041309      -164.3924
  19   2.0000      -6.039513      -164.3435
  20   2.0000      -6.037225      -164.2812
  21   2.0000      -6.035444      -164.2328
  22   2.0000      -6.033621      -164.1832
  23   2.0000      -6.032230      -164.1453
  24   2.0000      -1.010155       -27.4877
  25   2.0000      -0.983802       -26.7706
  26   2.0000      -0.909523       -24.7494
  27   2.0000      -0.905763       -24.6471
  28   2.0000      -0.867668       -23.6105
  29   2.0000      -0.848676       -23.0936
  30   2.0000      -0.843323       -22.9480
  31   2.0000      -0.811441       -22.0804
  32   2.0000      -0.782679       -21.2978
  33   2.0000      -0.772976       -21.0337
  34   2.0000      -0.706495       -19.2247
  35   2.0000      -0.696482       -18.9522
  36   2.0000      -0.693628       -18.8746
  37   2.0000      -0.660139       -17.9633
  38   2.0000      -0.648398       -17.6438
  39   2.0000      -0.614887       -16.7319
  40   2.0000      -0.594055       -16.1651
  41   2.0000      -0.576373       -15.6839
  42   2.0000      -0.574012       -15.6197
  43   2.0000      -0.560740       -15.2585
  44   2.0000      -0.523140       -14.2354
  45   2.0000      -0.518795       -14.1171
  46   2.0000      -0.514743       -14.0069
  47   2.0000      -0.509761       -13.8713
  48   2.0000      -0.505816       -13.7639
  49   2.0000      -0.499516       -13.5925
  50   2.0000      -0.492572       -13.4036
  51   2.0000      -0.485027       -13.1983
  52   2.0000      -0.469848       -12.7852
  53   2.0000      -0.465389       -12.6639
  54   2.0000      -0.458407       -12.4739
  55   2.0000      -0.447948       -12.1893
  56   2.0000      -0.444205       -12.0874
  57   2.0000      -0.435204       -11.8425
  58   2.0000      -0.428604       -11.6629
  59   2.0000      -0.427118       -11.6225
  60   2.0000      -0.425869       -11.5885
  61   2.0000      -0.421569       -11.4715
  62   2.0000      -0.411857       -11.2072
  63   2.0000      -0.343993        -9.3605
  64   2.0000      -0.329742        -8.9727
  65   2.0000      -0.325419        -8.8551
  66   2.0000      -0.295635        -8.0446
  67   0.0000       0.033232         0.9043
  68   0.0000       0.070515         1.9188
  69   0.0000       0.109743         2.9863
  70   0.0000       0.121114         3.2957
  71   0.0000       0.131125         3.5681

MULLIKEN ATOMIC CHARGES
-----------------------
   0 S :    0.117271
   1 C :   -0.078196
   2 C :   -0.097548
   3 C :    0.028756
   4 C :   -0.183328
   5 H :    0.011502
   6 C :    0.103977
   7 H :    0.025263
   8 H :    0.020211
   9 C :   -0.100313
  10 H :    0.033119
  11 H :    0.023813
  12 C :   -0.059210
  13 H :    0.034696
  14 H :    0.038662
  15 H :    0.036796
  16 S :    0.115876
  17 C :   -0.082607
  18 C :   -0.013624
  19 C :   -0.078419
  20 C :   -0.116030
  21 H :    0.007974
  22 C :    0.099795
  23 H :    0.014256
  24 H :    0.029736
  25 C :   -0.103448
  26 H :    0.057161
  27 H :    0.037112
  28 C :   -0.070039
  29 H :    0.024821
  30 H :    0.028766
  31 H :    0.038753
  32 H :    0.012799
  33 H :    0.041648
Sum of atomic charges:   -0.0000000

LOEWDIN ATOMIC CHARGES
----------------------
   0 S :    0.446801
   1 C :   -0.199637
   2 C :   -0.056437
   3 C :   -0.055601
   4 C :   -0.220649
   5 H :    0.026485
   6 C :   -0.030843
   7 H :    0.033514
   8 H :    0.030590
   9 C :   -0.037773
  10 H :    0.024504
  11 H :    0.019383
  12 C :   -0.067328
  13 H :    0.028902
  14 H :    0.027393
  15 H :    0.021921
  16 S :    0.418085
  17 C :   -0.175532
  18 C :   -0.061841
  19 C :   -0.049194
  20 C :   -0.219360
  21 H :    0.023348
  22 C :   -0.019713
  23 H :    0.015099
  24 H :    0.030230
  25 C :   -0.046925
  26 H :    0.037951
  27 H :    0.025062
  28 C :   -0.072879
  29 H :    0.018924
  30 H :    0.025223
  31 H :    0.031769
  32 H :    0.010046
  33 H :    0.018481

  Mayer bond orders larger than 0.100000
B(  0-S ,  1-C ) :   1.1577 B(  0-S ,  4-C ) :   1.1759 B(  1-C ,  2-C ) :   1.5945
B(  1-C , 32-H ) :   0.9771 B(  2-C ,  3-C ) :   1.2362 B(  2-C ,  6-C ) :   1.0414
B(  3-C ,  4-C ) :   1.5509 B(  3-C ,  5-H ) :   0.9953 B(  4-C , 20-C ) :   1.0154
B(  6-C ,  7-H ) :   0.9347 B(  6-C ,  8-H ) :   0.9405 B(  6-C ,  9-C ) :   1.0434
B(  9-C , 10-H ) :   0.9620 B(  9-C , 11-H ) :   0.9574 B(  9-C , 12-C ) :   1.0781
B( 12-C , 13-H ) :   0.9758 B( 12-C , 14-H ) :   0.9777 B( 12-C , 15-H ) :   0.9769
B( 16-S , 17-C ) :   1.1723 B( 16-S , 20-C ) :   1.1418 B( 17-C , 18-C ) :   1.5786
B( 17-C , 33-H ) :   0.9738 B( 18-C , 19-C ) :   1.2597 B( 18-C , 21-H ) :   0.9976
B( 19-C , 20-C ) :   1.6086 B( 19-C , 22-C ) :   1.0153 B( 22-C , 23-H ) :   0.9374
B( 22-C , 24-H ) :   0.9387 B( 22-C , 25-C ) :   1.0766 B( 25-C , 26-H ) :   0.9633
B( 25-C , 27-H ) :   0.9533 B( 25-C , 28-C ) :   1.0668 B( 28-C , 29-H ) :   0.9789
B( 28-C , 30-H ) :   0.9767 B( 28-C , 31-H ) :   0.9780

Dispersion correction           -0.013348538
FINAL SINGLE POINT ENERGY     -1339.867117699398

DIPOLE MOMENT
-------------
                                X             Y             Z
Electronic contribution:      9.56636      27.96137      -7.75954
Nuclear contribution   :     -9.93056     -28.55685       7.63980
                        -----------------------------------------
Total Dipole Moment    :     -0.36420      -0.59548      -0.11974
                        -----------------------------------------
Magnitude (a.u.)       :      0.70822
Magnitude (Debye)      :      1.80015

Rotational constants in cm-1:     0.015766     0.008471     0.006380
Rotational constants in MHz :   472.653542   253.946553   191.253775

                             ****ORCA TERMINATED NORMALLY****
TOTAL RUN TIME: 0 days 0 hours 0 minutes 28 seconds 729 msec
