                         Program Version 4.2.1 -  RELEASE  -
|  1> ! wB97X-D3 SP def2-SVP
|  2> %pal
|  3> nprocs 16
|  4> end
|  5>
|  6> * xyz 0 1
|  7> S 	 35.9117 	 10.2955 	 90.2407
|  8> C 	 34.3552 	 10.6673 	 89.5489
|  9> C 	 34.0836 	 10.1113 	 88.3638
| 10> C 	 35.274 	 9.36977 	 87.9132
| 11> C 	 36.3855 	 9.57571 	 88.6912
| 12> H 	 35.3624 	 8.86112 	 86.9456
| 13> C 	 32.7626 	 10.183 	 87.603
| 14> H 	 32.0881 	 10.9317 	 88.0266
| 15> H 	 32.1281 	 9.31784 	 87.7954
| 16> C 	 32.8276 	 10.3711 	 86.0378
| 17> H 	 33.4103 	 9.60832 	 85.572
| 18> H 	 31.8328 	 10.3892 	 85.6262
| 19> C 	 33.6176 	 11.7058 	 85.5528
| 20> H 	 33.4259 	 11.9597 	 84.4955
| 21> H 	 33.3457 	 12.5832 	 86.1249
| 22> H 	 34.7069 	 11.5079 	 85.6469
| 23> S 	 38.4812 	 8.09273 	 89.6545
| 24> C 	 39.7345 	 7.6289 	 88.6021
| 25> C 	 39.6093 	 8.10605 	 87.3214
| 26> C 	 38.4781 	 8.9756 	 87.2266
| 27> C 	 37.7327 	 8.98891 	 88.3978
| 28> H 	 40.429 	 7.80432 	 86.6483
| 29> C 	 38.0703 	 9.6035 	 85.8877
| 30> H 	 37.3344 	 8.96529 	 85.4628
| 31> H 	 38.7806 	 9.42548 	 85.0596
| 32> C 	 37.7135 	 11.1237 	 85.9586
| 33> H 	 38.6395 	 11.6902 	 86.212
| 34> H 	 37.0058 	 11.2592 	 86.8257
| 35> C 	 37.1545 	 11.8308 	 84.7644
| 36> H 	 38.0353 	 11.8567 	 84.075
| 37> H 	 36.8704 	 12.9052 	 84.9754
| 38> H 	 36.313 	 11.2339 	 84.2963
| 39> H 	 33.561 	 10.9716 	 90.2158
| 40> H 	 40.535 	 7.02287 	 88.9454
| 41> *
| 42>
| 43>                          ****END OF INPUT****

CARTESIAN COORDINATES (ANGSTROEM)
---------------------------------
  S     35.911700   10.295500   90.240700
  C     34.355200   10.667300   89.548900
  C     34.083600   10.111300   88.363800
  C     35.274000    9.369770   87.913200
  C     36.385500    9.575710   88.691200
  H     35.362400    8.861120   86.945600
  C     32.762600   10.183000   87.603000
  H     32.088100   10.931700   88.026600
  H     32.128100    9.317840   87.795400
  C     32.827600   10.371100   86.037800
  H     33.410300    9.608320   85.572000
  H     31.832800   10.389200   85.626200
  C     33.617600   11.705800   85.552800
  H     33.425900   11.959700   84.495500
  H     33.345700   12.583200   86.124900
  H     34.706900   11.507900   85.646900
  S     38.481200    8.092730   89.654500
  C     39.734500    7.628900   88.602100
  C     39.609300    8.106050   87.321400
  C     38.478100    8.975600   87.226600
  C     37.732700    8.988910   88.397800
  H     40.429000    7.804320   86.648300
  C     38.070300    9.603500   85.887700
  H     37.334400    8.965290   85.462800
  H     38.780600    9.425480   85.059600
  C     37.713500   11.123700   85.958600
  H     38.639500   11.690200   86.212000
  H     37.005800   11.259200   86.825700
  C     37.154500   11.830800   84.764400
  H     38.035300   11.856700   84.075000
  H     36.870400   12.905200   84.975400
  H     36.313000   11.233900   84.296300
  H     33.561000   10.971600   90.215800
  H     40.535000    7.022870   88.945400

 Total Charge           Charge          ....    0
 Multiplicity           Mult            ....    1
 Number of Electrons    NEL             ....  134
 Basis Dimension        Dim             ....  322

ORBITAL ENERGIES
----------------

  NO   OCC          E(Eh)            E(eV)
   0   2.0000     -88.965835     -2420.8834
   1   2.0000     -88.964730     -2420.8534
   2   2.0000     -10.333015      -281.1756
   3   2.0000     -10.326016      -280.9852
   4   2.0000     -10.309200      -280.5276
   5   2.0000     -10.308785      -280.5163
   6   2.0000     -10.307748      -280.4881
   7   2.0000     -10.303938      -280.3844
   8   2.0000     -10.300216      -280.2831
   9   2.0000     -10.297098      -280.1983
  10   2.0000     -10.295231      -280.1475
  11   2.0000     -10.294528      -280.1284
  12   2.0000     -10.294039      -280.1150
  13   2.0000     -10.285654      -279.8869
  14   2.0000     -10.285500      -279.8827
  15   2.0000     -10.280754      -279.7535
  16   2.0000      -8.082372      -219.9325
  17   2.0000      -8.079525      -219.8551
  18   2.0000      -6.040593      -164.3729
  19   2.0000      -6.038094      -164.3049
  20   2.0000      -6.036644      -164.2654
  21   2.0000      -6.034348      -164.2030
  22   2.0000      -6.033316      -164.1749
  23   2.0000      -6.029912      -164.0822
  24   2.0000      -1.011779       -27.5319
  25   2.0000      -0.989173       -26.9168
  26   2.0000      -0.905063       -24.6280
  27   2.0000      -0.900527       -24.5046
  28   2.0000      -0.866918       -23.5900
  29   2.0000      -0.855524       -23.2800
  30   2.0000      -0.838086       -22.8055
  31   2.0000      -0.817325       -22.2405
  32   2.0000      -0.782609       -21.2959
  33   2.0000      -0.776029       -21.1168
  34   2.0000      -0.705678       -19.2025
  35   2.0000      -0.695892       -18.9362
  36   2.0000      -0.681491       -18.5443
  37   2.0000      -0.663293       -18.0491
  38   2.0000      -0.638003       -17.3609
  39   2.0000      -0.623715       -16.9721
  40   2.0000      -0.597630       -16.2623
  41   2.0000      -0.567397       -15.4396
  42   2.0000      -0.560846       -15.2614
  43   2.0000      -0.540366       -14.7041
  44   2.0000      -0.535336       -14.5672
  45   2.0000      -0.524499       -14.2723
  46   2.0000      -0.512578       -13.9480
  47   2.0000      -0.510645       -13.8954
  48   2.0000      -0.503212       -13.6931
  49   2.0000      -0.496358       -13.5066
  50   2.0000      -0.492705       -13.4072
  51   2.0000      -0.481526       -13.1030
  52   2.0000      -0.470876       -12.8132
  53   2.0000      -0.461781       -12.5657
  54   2.0000      -0.460399       -12.5281
  55   2.0000      -0.448720       -12.2103
  56   2.0000      -0.438519       -11.9327
  57   2.0000      -0.435461       -11.8495
  58   2.0000      -0.431832       -11.7507
  59   2.0000      -0.428463       -11.6591
  60   2.0000      -0.421896       -11.4804
  61   2.0000      -0.414919       -11.2905
  62   2.0000      -0.401704       -10.9309
  63   2.0000      -0.348303        -9.4778
  64   2.0000      -0.334000        -9.0886
  65   2.0000      -0.327791        -8.9196
  66   2.0000      -0.296065        -8.0563
  67   0.0000       0.031803         0.8654
  68   0.0000       0.076932         2.0934
  69   0.0000       0.104323         2.8388
  70   0.0000       0.121982         3.3193
  71   0.0000       0.128766         3.5039

MULLIKEN ATOMIC CHARGES
-----------------------
   0 S :    0.094280
   1 C :   -0.112112
   2 C :   -0.067153
   3 C :    0.011424
   4 C :   -0.145753
   5 H :    0.021356
   6 C :    0.068859
   7 H :    0.016255
   8 H :    0.038856
   9 C :   -0.074142
  10 H :    0.028171
  11 H :    0.034923
  12 C :   -0.088285
  13 H :    0.037433
  14 H :    0.033194
  15 H :    0.036314
  16 S :    0.122244
  17 C :   -0.093613
  18 C :   -0.046898
  19 C :   -0.020722
  20 C :   -0.154124
  21 H :    0.033420
  22 C :    0.074090
  23 H :    0.017360
  24 H :    0.005032
  25 C :   -0.116469
  26 H :    0.035592
  27 H :    0.059409
  28 C :   -0.070010
  29 H :    0.030195
  30 H :    0.056463
  31 H :    0.045000
  32 H :    0.046874
  33 H :    0.042538
Sum of atomic charges:    0.0000000

LOEWDIN ATOMIC CHARGES
----------------------
   0 S :    0.381639
   1 C :   -0.191770
   2 C :   -0.062268
   3 C :   -0.058989
   4 C :   -0.183854
   5 H :    0.030912
   6 C :   -0.034933
   7 H :    0.031784
   8 H :    0.036605
   9 C :   -0.030538
  10 H :    0.017563
  11 H :    0.023599
  12 C :   -0.072180
  13 H :    0.026810
  14 H :    0.021387
  15 H :    0.029113
  16 S :    0.441200
  17 C :   -0.192372
  18 C :   -0.076729
  19 C :   -0.051354
  20 C :   -0.208490
  21 H :    0.042257
  22 C :   -0.037331
  23 H :    0.024677
  24 H :    0.031110
  25 C :   -0.054682
  26 H :    0.030402
  27 H :    0.027633
  28 C :   -0.078822
  29 H :    0.026690
  30 H :    0.038395
  31 H :    0.026596
  32 H :    0.026073
  33 H :    0.019865

  Mayer bond orders larger than 0.100000
B(  0-S ,  1-C ) :   1.1218 B(  0-S ,  4-C ) :   1.1252 B(  1-C ,  2-C ) :   1.6881
B(  1-C , 32-H ) :   0.9538 B(  2-C ,  3-C ) :   1.1918 B(  2-C ,  6-C ) :   1.0183
B(  3-C ,  4-C ) :   1.6237 B(  3-C ,  5-H ) :   0.9839 B(  4-C , 20-C ) :   1.0251
B(  6-C ,  7-H ) :   0.9414 B(  6-C ,  8-H ) :   0.9351 B(  6-C ,  9-C ) :   1.0678
B(  9-C , 10-H ) :   0.9612 B(  9-C , 11-H ) :   0.9599 B(  9-C , 12-C ) :   1.0607
B( 12-C , 13-H ) :   0.9768 B( 12-C , 14-H ) :   0.9767 B( 12-C , 15-H ) :   0.9727
B( 16-S , 17-C ) :   1.1788 B( 16-S , 20-C ) :   1.1613 B( 17-C , 18-C ) :   1.6082
B( 17-C , 33-H ) :   0.9697 B( 18-C , 19-C ) :   1.2328 B( 18-C , 21-H ) :   0.9928
B( 19-C , 20-C ) :   1.5953 B( 19-C , 22-C ) :   1.0333 B( 22-C , 23-H ) :   0.9312
B( 22-C , 24-H ) :   0.9312 B( 22-C , 25-C ) :   1.0360 B( 25-C , 26-H ) :   0.9539
B( 25-C , 27-H ) :   0.9558 B( 25-C , 28-C ) :   1.0895 B( 28-C , 29-H ) :   0.9700
B( 28-C , 30-H ) :   0.9683 B( 28-C , 31-H ) :   0.9632

Dispersion correction           -0.016371344
FINAL SINGLE POINT ENERGY     -1339.871272728429

DIPOLE MOMENT
-------------
                                X             Y             Z
Electronic contribution:     11.72633     -12.30613      26.79290
Nuclear contribution   :    -11.94368      12.15801     -27.35534
                        -----------------------------------------
Total Dipole Moment    :     -0.21735      -0.14812      -0.56243
                        -----------------------------------------
Magnitude (a.u.)       :      0.62090
Magnitude (Debye)      :      1.57820

Rotational constants in cm-1:     0.018737     0.010496     0.007589
Rotational constants in MHz :   561.725241   314.647561   227.498198

                             ****ORCA TERMINATED NORMALLY****
TOTAL RUN TIME: 0 days 0 hours 0 minutes 33 seconds 510 msec
