                         Program Version 4.2.1 -  RELEASE  -
|  1> ! wB97X-D3 SP def2-SVP
|  2> %pal
|  3> nprocs 16
|  4> end
|  5>
|  6> * xyz 0 1
|  7> S 	 -4.8096 	 46.7859 	 34.0569
|  8> C 	 -4.83609 	 45.3971 	 35.1072
|  9> C 	 -3.64328 	 44.7431 	 35.1719
| 10> C 	 -2.74119 	 45.2472 	 34.2003
| 11> C 	 -3.17401 	 46.3961 	 33.5637
| 12> H 	 -1.78824 	 44.8439 	 34.0151
| 13> C 	 -3.30183 	 43.6664 	 36.0817
| 14> H 	 -2.66593 	 42.831 	 35.7208
| 15> H 	 -4.2118 	 43.1198 	 36.2685
| 16> C 	 -2.78329 	 44.1823 	 37.4226
| 17> H 	 -2.47533 	 43.253 	 37.8913
| 18> H 	 -1.87688 	 44.7973 	 37.2848
| 19> C 	 -3.63363 	 45.0079 	 38.3841
| 20> H 	 -3.76425 	 46.011 	 37.9862
| 21> H 	 -4.67303 	 44.6354 	 38.4613
| 22> H 	 -3.43681 	 45.0304 	 39.4184
| 23> S 	 -3.39388 	 47.2457 	 31.0215
| 24> C 	 -2.09991 	 48.0695 	 30.2689
| 25> C 	 -1.01253 	 48.1801 	 31.0554
| 26> C 	 -1.2119 	 47.5198 	 32.3255
| 27> C 	 -2.51966 	 47.0362 	 32.4637
| 28> H 	 -0.163263 	 48.7736 	 30.6684
| 29> C 	 -0.0850184 	 47.5528 	 33.3727
| 30> H 	 0.30489 	 46.6229 	 33.756
| 31> H 	 -0.560282 	 47.8416 	 34.3027
| 32> C 	 1.00036 	 48.6222 	 33.1516
| 33> H 	 1.57507 	 48.4605 	 32.3007
| 34> H 	 1.75923 	 48.2223 	 33.8539
| 35> C 	 0.562799 	 50.0301 	 33.464
| 36> H 	 -0.217359 	 49.998 	 34.2328
| 37> H 	 0.148968 	 50.4892 	 32.5622
| 38> H 	 1.40678 	 50.647 	 33.8909
| 39> H 	 -5.68139 	 45.1008 	 35.6812
| 40> H 	 -2.33811 	 48.606 	 29.3315
| 41> *
| 42>
| 43>                          ****END OF INPUT****

CARTESIAN COORDINATES (ANGSTROEM)
---------------------------------
  S     -4.809600   46.785900   34.056900
  C     -4.836090   45.397100   35.107200
  C     -3.643280   44.743100   35.171900
  C     -2.741190   45.247200   34.200300
  C     -3.174010   46.396100   33.563700
  H     -1.788240   44.843900   34.015100
  C     -3.301830   43.666400   36.081700
  H     -2.665930   42.831000   35.720800
  H     -4.211800   43.119800   36.268500
  C     -2.783290   44.182300   37.422600
  H     -2.475330   43.253000   37.891300
  H     -1.876880   44.797300   37.284800
  C     -3.633630   45.007900   38.384100
  H     -3.764250   46.011000   37.986200
  H     -4.673030   44.635400   38.461300
  H     -3.436810   45.030400   39.418400
  S     -3.393880   47.245700   31.021500
  C     -2.099910   48.069500   30.268900
  C     -1.012530   48.180100   31.055400
  C     -1.211900   47.519800   32.325500
  C     -2.519660   47.036200   32.463700
  H     -0.163263   48.773600   30.668400
  C     -0.085018   47.552800   33.372700
  H      0.304890   46.622900   33.756000
  H     -0.560282   47.841600   34.302700
  C      1.000360   48.622200   33.151600
  H      1.575070   48.460500   32.300700
  H      1.759230   48.222300   33.853900
  C      0.562799   50.030100   33.464000
  H     -0.217359   49.998000   34.232800
  H      0.148968   50.489200   32.562200
  H      1.406780   50.647000   33.890900
  H     -5.681390   45.100800   35.681200
  H     -2.338110   48.606000   29.331500

 Total Charge           Charge          ....    0
 Multiplicity           Mult            ....    1
 Number of Electrons    NEL             ....  134
 Basis Dimension        Dim             ....  322

ORBITAL ENERGIES
----------------

  NO   OCC          E(Eh)            E(eV)
   0   2.0000     -88.966686     -2420.9066
   1   2.0000     -88.959060     -2420.6991
   2   2.0000     -10.324175      -280.9351
   3   2.0000     -10.318146      -280.7710
   4   2.0000     -10.308309      -280.5034
   5   2.0000     -10.308251      -280.5018
   6   2.0000     -10.304986      -280.4129
   7   2.0000     -10.292296      -280.0676
   8   2.0000     -10.291647      -280.0499
   9   2.0000     -10.290270      -280.0125
  10   2.0000     -10.288465      -279.9634
  11   2.0000     -10.287726      -279.9433
  12   2.0000     -10.286649      -279.9139
  13   2.0000     -10.281078      -279.7624
  14   2.0000     -10.280315      -279.7416
  15   2.0000     -10.274404      -279.5807
  16   2.0000      -8.081507      -219.9090
  17   2.0000      -8.075980      -219.7586
  18   2.0000      -6.039978      -164.3562
  19   2.0000      -6.036006      -164.2481
  20   2.0000      -6.034295      -164.2015
  21   2.0000      -6.032311      -164.1475
  22   2.0000      -6.030097      -164.0873
  23   2.0000      -6.026891      -164.0000
  24   2.0000      -1.013877       -27.5890
  25   2.0000      -0.991085       -26.9688
  26   2.0000      -0.919743       -25.0275
  27   2.0000      -0.911574       -24.8052
  28   2.0000      -0.872853       -23.7515
  29   2.0000      -0.852210       -23.1898
  30   2.0000      -0.844058       -22.9680
  31   2.0000      -0.816480       -22.2176
  32   2.0000      -0.790079       -21.4991
  33   2.0000      -0.776719       -21.1356
  34   2.0000      -0.713349       -19.4112
  35   2.0000      -0.702133       -19.1060
  36   2.0000      -0.697146       -18.9703
  37   2.0000      -0.655630       -17.8406
  38   2.0000      -0.640818       -17.4375
  39   2.0000      -0.626773       -17.0554
  40   2.0000      -0.608412       -16.5557
  41   2.0000      -0.578742       -15.7484
  42   2.0000      -0.553855       -15.0712
  43   2.0000      -0.543709       -14.7951
  44   2.0000      -0.540205       -14.6997
  45   2.0000      -0.526773       -14.3342
  46   2.0000      -0.517704       -14.0874
  47   2.0000      -0.512668       -13.9504
  48   2.0000      -0.505594       -13.7579
  49   2.0000      -0.498124       -13.5546
  50   2.0000      -0.493565       -13.4306
  51   2.0000      -0.483370       -13.1532
  52   2.0000      -0.475149       -12.9295
  53   2.0000      -0.469034       -12.7631
  54   2.0000      -0.461476       -12.5574
  55   2.0000      -0.445832       -12.1317
  56   2.0000      -0.440259       -11.9801
  57   2.0000      -0.436449       -11.8764
  58   2.0000      -0.436199       -11.8696
  59   2.0000      -0.429370       -11.6838
  60   2.0000      -0.419424       -11.4131
  61   2.0000      -0.412929       -11.2364
  62   2.0000      -0.402717       -10.9585
  63   2.0000      -0.348187        -9.4746
  64   2.0000      -0.330008        -8.9800
  65   2.0000      -0.326176        -8.8757
  66   2.0000      -0.291051        -7.9199
  67   0.0000       0.031025         0.8442
  68   0.0000       0.079903         2.1743
  69   0.0000       0.120361         3.2752
  70   0.0000       0.127184         3.4609
  71   0.0000       0.131759         3.5853

MULLIKEN ATOMIC CHARGES
-----------------------
   0 S :    0.116208
   1 C :   -0.115443
   2 C :   -0.060727
   3 C :    0.044439
   4 C :   -0.158806
   5 H :   -0.010616
   6 C :    0.067605
   7 H :    0.034242
   8 H :    0.008353
   9 C :   -0.065261
  10 H :    0.022714
  11 H :    0.029186
  12 C :   -0.037327
  13 H :    0.040028
  14 H :    0.005323
  15 H :    0.030534
  16 S :    0.113399
  17 C :   -0.108194
  18 C :   -0.052086
  19 C :   -0.019446
  20 C :   -0.154657
  21 H :    0.038177
  22 C :    0.059474
  23 H :    0.021964
  24 H :    0.009516
  25 C :   -0.070605
  26 H :    0.012280
  27 H :    0.012610
  28 C :   -0.029907
  29 H :    0.031571
  30 H :    0.039139
  31 H :    0.047234
  32 H :    0.031937
  33 H :    0.067139
Sum of atomic charges:   -0.0000000

LOEWDIN ATOMIC CHARGES
----------------------
   0 S :    0.406617
   1 C :   -0.189437
   2 C :   -0.067479
   3 C :   -0.046584
   4 C :   -0.196664
   5 H :    0.022468
   6 C :   -0.037237
   7 H :    0.039665
   8 H :    0.030295
   9 C :   -0.037793
  10 H :    0.023298
  11 H :    0.026393
  12 C :   -0.072246
  13 H :    0.028106
  14 H :    0.023636
  15 H :    0.025152
  16 S :    0.440045
  17 C :   -0.202605
  18 C :   -0.081112
  19 C :   -0.053692
  20 C :   -0.221829
  21 H :    0.041320
  22 C :   -0.036652
  23 H :    0.028191
  24 H :    0.032476
  25 C :   -0.049947
  26 H :    0.012971
  27 H :    0.032122
  28 C :   -0.064334
  29 H :    0.028688
  30 H :    0.026735
  31 H :    0.035888
  32 H :    0.021100
  33 H :    0.032444

  Mayer bond orders larger than 0.100000
B(  0-S ,  1-C ) :   1.1363 B(  0-S ,  4-C ) :   1.1446 B(  1-C ,  2-C ) :   1.6090
B(  1-C , 32-H ) :   0.9661 B(  2-C ,  3-C ) :   1.2452 B(  2-C ,  6-C ) :   1.0401
B(  3-C ,  4-C ) :   1.5615 B(  3-C ,  5-H ) :   1.0029 B(  4-C , 20-C ) :   1.0586
B(  6-C ,  7-H ) :   0.9411 B(  6-C ,  8-H ) :   0.9242 B(  6-C ,  9-C ) :   1.0710
B(  9-C , 10-H ) :   0.9548 B(  9-C , 11-H ) :   0.9564 B(  9-C , 12-C ) :   1.0766
B( 12-C , 13-H ) :   0.9717 B( 12-C , 14-H ) :   0.9683 B( 12-C , 15-H ) :   0.9741
B( 16-S , 17-C ) :   1.1703 B( 16-S , 20-C ) :   1.1671 B( 17-C , 18-C ) :   1.6039
B( 17-C , 33-H ) :   0.9586 B( 18-C , 19-C ) :   1.2479 B( 18-C , 21-H ) :   0.9831
B( 19-C , 20-C ) :   1.5738 B( 19-C , 22-C ) :   1.0197 B( 22-C , 23-H ) :   0.9339
B( 22-C , 24-H ) :   0.9227 B( 22-C , 25-C ) :   1.0953 B( 25-C , 26-H ) :   0.9455
B( 25-C , 27-H ) :   0.9437 B( 25-C , 28-C ) :   1.0660 B( 28-C , 29-H ) :   0.9738
B( 28-C , 30-H ) :   0.9735 B( 28-C , 31-H ) :   0.9749

Dispersion correction           -0.014517673
FINAL SINGLE POINT ENERGY     -1339.866551603140

DIPOLE MOMENT
-------------
                                X             Y             Z
Electronic contribution:    -16.32784       0.61790     -19.54403
Nuclear contribution   :     16.76338      -0.79005      19.95454
                        -----------------------------------------
Total Dipole Moment    :      0.43554      -0.17214       0.41052
                        -----------------------------------------
Magnitude (a.u.)       :      0.62278
Magnitude (Debye)      :      1.58297

Rotational constants in cm-1:     0.020568     0.008385     0.006679
Rotational constants in MHz :   616.598899   251.362806   200.238805

                             ****ORCA TERMINATED NORMALLY****
TOTAL RUN TIME: 0 days 0 hours 0 minutes 34 seconds 291 msec
