                         Program Version 4.2.1 -  RELEASE  -
|  1> ! wB97X-D3 SP def2-SVP
|  2> %pal
|  3> nprocs 16
|  4> end
|  5>
|  6> * xyz 0 1
|  7> S 	 -53.5559 	 14.093 	 89.2074
|  8> C 	 -52.3257 	 15.3901 	 89.199
|  9> C 	 -51.4034 	 15.2286 	 88.1874
| 10> C 	 -51.8356 	 14.2294 	 87.2451
| 11> C 	 -52.8855 	 13.5055 	 87.6576
| 12> H 	 -51.3274 	 13.8588 	 86.3705
| 13> C 	 -50.2053 	 16.1176 	 87.9946
| 14> H 	 -49.7521 	 15.7837 	 87.0213
| 15> H 	 -49.4814 	 15.8491 	 88.6631
| 16> C 	 -50.6117 	 17.637 	 87.9773
| 17> H 	 -51.5083 	 17.7663 	 87.4171
| 18> H 	 -50.6651 	 17.9532 	 89.0309
| 19> C 	 -49.5281 	 18.4124 	 87.2506
| 20> H 	 -48.6604 	 18.383 	 87.8607
| 21> H 	 -49.3237 	 18.1118 	 86.2219
| 22> H 	 -49.836 	 19.4533 	 87.153
| 23> S 	 -53.2109 	 10.788 	 87.6971
| 24> C 	 -54.0257 	 10.0398 	 86.4106
| 25> C 	 -54.4262 	 10.9479 	 85.4374
| 26> C 	 -54.1883 	 12.3048 	 85.7654
| 27> C 	 -53.4828 	 12.3817 	 86.9706
| 28> H 	 -54.9021 	 10.5417 	 84.557
| 29> C 	 -54.5824 	 13.4794 	 84.8678
| 30> H 	 -54.3478 	 14.4609 	 85.3535
| 31> H 	 -55.6856 	 13.2868 	 84.8942
| 32> C 	 -54.0893 	 13.3273 	 83.4426
| 33> H 	 -54.3994 	 14.1642 	 82.8407
| 34> H 	 -54.5342 	 12.5052 	 82.8996
| 35> C 	 -52.5973 	 13.5278 	 83.3117
| 36> H 	 -52.0356 	 12.8001 	 83.9805
| 37> H 	 -52.2978 	 14.5851 	 83.5966
| 38> H 	 -52.3055 	 13.2107 	 82.3427
| 39> H 	 -52.2509 	 16.1307 	 89.9793
| 40> H 	 -54.1722 	 8.92086 	 86.2471
| 41> *
| 42>
| 43>                          ****END OF INPUT****

CARTESIAN COORDINATES (ANGSTROEM)
---------------------------------
  S    -53.555900   14.093000   89.207400
  C    -52.325700   15.390100   89.199000
  C    -51.403400   15.228600   88.187400
  C    -51.835600   14.229400   87.245100
  C    -52.885500   13.505500   87.657600
  H    -51.327400   13.858800   86.370500
  C    -50.205300   16.117600   87.994600
  H    -49.752100   15.783700   87.021300
  H    -49.481400   15.849100   88.663100
  C    -50.611700   17.637000   87.977300
  H    -51.508300   17.766300   87.417100
  H    -50.665100   17.953200   89.030900
  C    -49.528100   18.412400   87.250600
  H    -48.660400   18.383000   87.860700
  H    -49.323700   18.111800   86.221900
  H    -49.836000   19.453300   87.153000
  S    -53.210900   10.788000   87.697100
  C    -54.025700   10.039800   86.410600
  C    -54.426200   10.947900   85.437400
  C    -54.188300   12.304800   85.765400
  C    -53.482800   12.381700   86.970600
  H    -54.902100   10.541700   84.557000
  C    -54.582400   13.479400   84.867800
  H    -54.347800   14.460900   85.353500
  H    -55.685600   13.286800   84.894200
  C    -54.089300   13.327300   83.442600
  H    -54.399400   14.164200   82.840700
  H    -54.534200   12.505200   82.899600
  C    -52.597300   13.527800   83.311700
  H    -52.035600   12.800100   83.980500
  H    -52.297800   14.585100   83.596600
  H    -52.305500   13.210700   82.342700
  H    -52.250900   16.130700   89.979300
  H    -54.172200    8.920860   86.247100

 Total Charge           Charge          ....    0
 Multiplicity           Mult            ....    1
 Number of Electrons    NEL             ....  134
 Basis Dimension        Dim             ....  322

ORBITAL ENERGIES
----------------

  NO   OCC          E(Eh)            E(eV)
   0   2.0000     -88.964040     -2420.8346
   1   2.0000     -88.960155     -2420.7289
   2   2.0000     -10.321097      -280.8513
   3   2.0000     -10.320188      -280.8266
   4   2.0000     -10.316491      -280.7260
   5   2.0000     -10.311157      -280.5809
   6   2.0000     -10.304136      -280.3898
   7   2.0000     -10.298069      -280.2247
   8   2.0000     -10.297829      -280.2182
   9   2.0000     -10.289036      -279.9789
  10   2.0000     -10.288664      -279.9688
  11   2.0000     -10.287718      -279.9430
  12   2.0000     -10.287182      -279.9284
  13   2.0000     -10.282973      -279.8139
  14   2.0000     -10.281257      -279.7672
  15   2.0000     -10.273374      -279.5527
  16   2.0000      -8.079340      -219.8500
  17   2.0000      -8.074026      -219.7054
  18   2.0000      -6.037692      -164.2939
  19   2.0000      -6.033733      -164.1862
  20   2.0000      -6.032579      -164.1548
  21   2.0000      -6.030273      -164.0921
  22   2.0000      -6.028811      -164.0523
  23   2.0000      -6.024645      -163.9389
  24   2.0000      -1.003672       -27.3113
  25   2.0000      -0.980189       -26.6723
  26   2.0000      -0.914771       -24.8922
  27   2.0000      -0.911876       -24.8134
  28   2.0000      -0.866841       -23.5879
  29   2.0000      -0.852659       -23.2020
  30   2.0000      -0.845607       -23.0101
  31   2.0000      -0.812496       -22.1091
  32   2.0000      -0.783207       -21.3122
  33   2.0000      -0.766823       -20.8663
  34   2.0000      -0.708798       -19.2874
  35   2.0000      -0.702176       -19.1072
  36   2.0000      -0.688410       -18.7326
  37   2.0000      -0.650911       -17.7122
  38   2.0000      -0.643476       -17.5099
  39   2.0000      -0.613859       -16.7040
  40   2.0000      -0.593196       -16.1417
  41   2.0000      -0.571718       -15.5572
  42   2.0000      -0.559555       -15.2263
  43   2.0000      -0.557001       -15.1568
  44   2.0000      -0.544480       -14.8160
  45   2.0000      -0.529161       -14.3992
  46   2.0000      -0.520936       -14.1754
  47   2.0000      -0.512046       -13.9335
  48   2.0000      -0.495575       -13.4853
  49   2.0000      -0.492858       -13.4114
  50   2.0000      -0.489887       -13.3305
  51   2.0000      -0.471941       -12.8422
  52   2.0000      -0.469173       -12.7668
  53   2.0000      -0.466457       -12.6929
  54   2.0000      -0.456910       -12.4331
  55   2.0000      -0.446783       -12.1576
  56   2.0000      -0.441189       -12.0054
  57   2.0000      -0.439624       -11.9628
  58   2.0000      -0.435687       -11.8557
  59   2.0000      -0.432349       -11.7648
  60   2.0000      -0.423369       -11.5205
  61   2.0000      -0.416466       -11.3326
  62   2.0000      -0.403145       -10.9701
  63   2.0000      -0.336301        -9.1512
  64   2.0000      -0.328891        -8.9496
  65   2.0000      -0.323142        -8.7931
  66   2.0000      -0.297419        -8.0932
  67   0.0000       0.044279         1.2049
  68   0.0000       0.060537         1.6473
  69   0.0000       0.116001         3.1566
  70   0.0000       0.126644         3.4461
  71   0.0000       0.129976         3.5368

MULLIKEN ATOMIC CHARGES
-----------------------
   0 S :    0.098127
   1 C :   -0.130336
   2 C :   -0.089785
   3 C :    0.043422
   4 C :   -0.164272
   5 H :    0.007921
   6 C :    0.090675
   7 H :    0.013488
   8 H :    0.018177
   9 C :   -0.069850
  10 H :    0.036862
  11 H :    0.042483
  12 C :   -0.038176
  13 H :    0.023221
  14 H :    0.033578
  15 H :    0.026180
  16 S :    0.126548
  17 C :   -0.109070
  18 C :   -0.070027
  19 C :   -0.000373
  20 C :   -0.215991
  21 H :    0.011360
  22 C :    0.071082
  23 H :    0.045732
  24 H :    0.044340
  25 C :   -0.062970
  26 H :    0.022236
  27 H :    0.028141
  28 C :   -0.061176
  29 H :    0.038774
  30 H :    0.045570
  31 H :    0.024667
  32 H :    0.041349
  33 H :    0.078093
Sum of atomic charges:   -0.0000000

LOEWDIN ATOMIC CHARGES
----------------------
   0 S :    0.363913
   1 C :   -0.181432
   2 C :   -0.059541
   3 C :   -0.061673
   4 C :   -0.184504
   5 H :    0.033044
   6 C :   -0.027552
   7 H :    0.032295
   8 H :    0.019943
   9 C :   -0.027767
  10 H :    0.023645
  11 H :    0.029465
  12 C :   -0.063397
  13 H :    0.020092
  14 H :    0.025138
  15 H :    0.024987
  16 S :    0.422694
  17 C :   -0.213335
  18 C :   -0.084114
  19 C :   -0.049062
  20 C :   -0.206280
  21 H :    0.027819
  22 C :   -0.030355
  23 H :    0.038896
  24 H :    0.044123
  25 C :   -0.050361
  26 H :    0.028089
  27 H :    0.024150
  28 C :   -0.066248
  29 H :    0.025365
  30 H :    0.033170
  31 H :    0.020960
  32 H :    0.022130
  33 H :    0.045702

  Mayer bond orders larger than 0.100000
B(  0-S ,  1-C ) :   1.1205 B(  0-S ,  4-C ) :   1.1210 B(  1-C ,  2-C ) :   1.6409
B(  1-C , 32-H ) :   0.9727 B(  2-C ,  3-C ) :   1.1949 B(  2-C ,  6-C ) :   1.0202
B(  3-C ,  4-C ) :   1.6499 B(  3-C ,  5-H ) :   0.9884 B(  4-C , 20-C ) :   1.0201
B(  6-C ,  7-H ) :   0.9471 B(  6-C ,  8-H ) :   0.9242 B(  6-C ,  9-C ) :   1.0539
B(  9-C , 10-H ) :   0.9646 B(  9-C , 11-H ) :   0.9494 B(  9-C , 12-C ) :   1.0961
B( 12-C , 13-H ) :   0.9735 B( 12-C , 14-H ) :   0.9760 B( 12-C , 15-H ) :   0.9728
B( 16-S , 17-C ) :   1.1706 B( 16-S , 20-C ) :   1.1539 B( 17-C , 18-C ) :   1.6098
B( 17-C , 20-C ) :   0.1006 B( 17-C , 33-H ) :   0.9553 B( 18-C , 19-C ) :   1.2324
B( 18-C , 21-H ) :   0.9912 B( 19-C , 20-C ) :   1.5806 B( 19-C , 22-C ) :   1.0206
B( 22-C , 23-H ) :   0.9405 B( 22-C , 24-H ) :   0.9265 B( 22-C , 25-C ) :   1.0860
B( 25-C , 26-H ) :   0.9491 B( 25-C , 27-H ) :   0.9521 B( 25-C , 28-C ) :   1.0679
B( 28-C , 29-H ) :   0.9728 B( 28-C , 30-H ) :   0.9733 B( 28-C , 31-H ) :   0.9690

Dispersion correction           -0.014773132
FINAL SINGLE POINT ENERGY     -1339.872325814538

DIPOLE MOMENT
-------------
                                X             Y             Z
Electronic contribution:    -11.10101     -19.78192      17.70275
Nuclear contribution   :     11.35713      20.10598     -18.30568
                        -----------------------------------------
Total Dipole Moment    :      0.25612       0.32406      -0.60293
                        -----------------------------------------
Magnitude (a.u.)       :      0.73084
Magnitude (Debye)      :      1.85766

Rotational constants in cm-1:     0.020047     0.008416     0.006644
Rotational constants in MHz :   601.007073   252.293459   199.181368

                             ****ORCA TERMINATED NORMALLY****
TOTAL RUN TIME: 0 days 0 hours 0 minutes 28 seconds 963 msec
