                         Program Version 4.2.1 -  RELEASE  -
|  1> ! wB97X-D3 SP def2-SVP
|  2> %pal
|  3> nprocs 16
|  4> end
|  5>
|  6> * xyz 0 1
|  7> S 	 -2.63937 	 79.7921 	 49.8573
|  8> C 	 -1.20324 	 80.619 	 49.2085
|  9> C 	 -0.0343112 	 79.9325 	 49.4057
| 10> C 	 -0.255821 	 78.8002 	 50.1843
| 11> C 	 -1.61713 	 78.4811 	 50.2706
| 12> H 	 0.502272 	 78.186 	 50.5486
| 13> C 	 1.32899 	 80.4205 	 48.9133
| 14> H 	 1.9899 	 80.6026 	 49.7618
| 15> H 	 1.26693 	 81.3818 	 48.4143
| 16> C 	 2.01217 	 79.3962 	 48.002
| 17> H 	 3.02297 	 79.7971 	 47.7089
| 18> H 	 2.22243 	 78.4529 	 48.6147
| 19> C 	 1.24988 	 79.0446 	 46.6958
| 20> H 	 0.296922 	 78.5775 	 47.0011
| 21> H 	 0.912915 	 80.0289 	 46.2736
| 22> H 	 1.74079 	 78.4214 	 45.9504
| 23> S 	 -2.49437 	 77.2502 	 52.6276
| 24> C 	 -2.69074 	 75.5192 	 52.5236
| 25> C 	 -2.44069 	 74.9935 	 51.286
| 26> C 	 -2.13465 	 76.0087 	 50.3492
| 27> C 	 -2.04142 	 77.2498 	 50.9278
| 28> H 	 -2.50719 	 73.8665 	 51.0899
| 29> C 	 -2.17503 	 75.7429 	 48.8859
| 30> H 	 -2.23063 	 76.6161 	 48.2163
| 31> H 	 -3.21332 	 75.3124 	 48.7306
| 32> C 	 -1.12637 	 74.7695 	 48.306
| 33> H 	 -1.48376 	 74.3462 	 47.3959
| 34> H 	 -0.967599 	 73.9574 	 49.0015
| 35> C 	 0.246476 	 75.4055 	 48.1563
| 36> H 	 0.620754 	 75.4618 	 49.1874
| 37> H 	 0.200456 	 76.3779 	 47.7507
| 38> H 	 0.917782 	 74.7259 	 47.533
| 39> H 	 -1.35552 	 81.5095 	 48.5903
| 40> H 	 -2.91644 	 74.8166 	 53.3583
| 41> *
| 42>
| 43>                          ****END OF INPUT****

CARTESIAN COORDINATES (ANGSTROEM)
---------------------------------
  S     -2.639370   79.792100   49.857300
  C     -1.203240   80.619000   49.208500
  C     -0.034311   79.932500   49.405700
  C     -0.255821   78.800200   50.184300
  C     -1.617130   78.481100   50.270600
  H      0.502272   78.186000   50.548600
  C      1.328990   80.420500   48.913300
  H      1.989900   80.602600   49.761800
  H      1.266930   81.381800   48.414300
  C      2.012170   79.396200   48.002000
  H      3.022970   79.797100   47.708900
  H      2.222430   78.452900   48.614700
  C      1.249880   79.044600   46.695800
  H      0.296922   78.577500   47.001100
  H      0.912915   80.028900   46.273600
  H      1.740790   78.421400   45.950400
  S     -2.494370   77.250200   52.627600
  C     -2.690740   75.519200   52.523600
  C     -2.440690   74.993500   51.286000
  C     -2.134650   76.008700   50.349200
  C     -2.041420   77.249800   50.927800
  H     -2.507190   73.866500   51.089900
  C     -2.175030   75.742900   48.885900
  H     -2.230630   76.616100   48.216300
  H     -3.213320   75.312400   48.730600
  C     -1.126370   74.769500   48.306000
  H     -1.483760   74.346200   47.395900
  H     -0.967599   73.957400   49.001500
  C      0.246476   75.405500   48.156300
  H      0.620754   75.461800   49.187400
  H      0.200456   76.377900   47.750700
  H      0.917782   74.725900   47.533000
  H     -1.355520   81.509500   48.590300
  H     -2.916440   74.816600   53.358300

 Total Charge           Charge          ....    0
 Multiplicity           Mult            ....    1
 Number of Electrons    NEL             ....  134
 Basis Dimension        Dim             ....  322

ORBITAL ENERGIES
----------------

  NO   OCC          E(Eh)            E(eV)
   0   2.0000     -88.968734     -2420.9623
   1   2.0000     -88.966497     -2420.9015
   2   2.0000     -10.324436      -280.9422
   3   2.0000     -10.318924      -280.7922
   4   2.0000     -10.316980      -280.7393
   5   2.0000     -10.313253      -280.6379
   6   2.0000     -10.298380      -280.2332
   7   2.0000     -10.297375      -280.2058
   8   2.0000     -10.296789      -280.1899
   9   2.0000     -10.296035      -280.1694
  10   2.0000     -10.294905      -280.1386
  11   2.0000     -10.291577      -280.0480
  12   2.0000     -10.287499      -279.9371
  13   2.0000     -10.282276      -279.7949
  14   2.0000     -10.278868      -279.7022
  15   2.0000     -10.273852      -279.5657
  16   2.0000      -8.083706      -219.9688
  17   2.0000      -8.081200      -219.9006
  18   2.0000      -6.042009      -164.4114
  19   2.0000      -6.039687      -164.3482
  20   2.0000      -6.038324      -164.3112
  21   2.0000      -6.035901      -164.2452
  22   2.0000      -6.034535      -164.2080
  23   2.0000      -6.031811      -164.1339
  24   2.0000      -1.009877       -27.4802
  25   2.0000      -0.987959       -26.8837
  26   2.0000      -0.911503       -24.8033
  27   2.0000      -0.909077       -24.7372
  28   2.0000      -0.864555       -23.5257
  29   2.0000      -0.851674       -23.1752
  30   2.0000      -0.848386       -23.0857
  31   2.0000      -0.810181       -22.0461
  32   2.0000      -0.784406       -21.3448
  33   2.0000      -0.770555       -20.9679
  34   2.0000      -0.704731       -19.1767
  35   2.0000      -0.692800       -18.8520
  36   2.0000      -0.686377       -18.6773
  37   2.0000      -0.651869       -17.7383
  38   2.0000      -0.643129       -17.5004
  39   2.0000      -0.622221       -16.9315
  40   2.0000      -0.601531       -16.3685
  41   2.0000      -0.564656       -15.3651
  42   2.0000      -0.552259       -15.0277
  43   2.0000      -0.548995       -14.9389
  44   2.0000      -0.544387       -14.8135
  45   2.0000      -0.534019       -14.5314
  46   2.0000      -0.515740       -14.0340
  47   2.0000      -0.507565       -13.8116
  48   2.0000      -0.492921       -13.4131
  49   2.0000      -0.488591       -13.2952
  50   2.0000      -0.487214       -13.2578
  51   2.0000      -0.478134       -13.0107
  52   2.0000      -0.469204       -12.7677
  53   2.0000      -0.464559       -12.6413
  54   2.0000      -0.460661       -12.5352
  55   2.0000      -0.451379       -12.2826
  56   2.0000      -0.447904       -12.1881
  57   2.0000      -0.443753       -12.0751
  58   2.0000      -0.431831       -11.7507
  59   2.0000      -0.423019       -11.5109
  60   2.0000      -0.417720       -11.3668
  61   2.0000      -0.414779       -11.2867
  62   2.0000      -0.412958       -11.2371
  63   2.0000      -0.338811        -9.2195
  64   2.0000      -0.331387        -9.0175
  65   2.0000      -0.318301        -8.6614
  66   2.0000      -0.305953        -8.3254
  67   0.0000       0.042262         1.1500
  68   0.0000       0.057606         1.5675
  69   0.0000       0.114692         3.1209
  70   0.0000       0.118624         3.2279
  71   0.0000       0.127724         3.4756

MULLIKEN ATOMIC CHARGES
-----------------------
   0 S :    0.119523
   1 C :   -0.146934
   2 C :   -0.063413
   3 C :    0.054331
   4 C :   -0.182780
   5 H :   -0.005773
   6 C :    0.097711
   7 H :    0.038762
   8 H :    0.016644
   9 C :   -0.128893
  10 H :    0.035984
  11 H :    0.040290
  12 C :   -0.058638
  13 H :    0.048615
  14 H :    0.022815
  15 H :    0.051455
  16 S :    0.123369
  17 C :   -0.101781
  18 C :   -0.065210
  19 C :    0.010045
  20 C :   -0.190313
  21 H :    0.050412
  22 C :    0.012667
  23 H :    0.029786
  24 H :    0.042958
  25 C :   -0.047885
  26 H :    0.018886
  27 H :    0.015024
  28 C :   -0.044734
  29 H :    0.034183
  30 H :    0.014434
  31 H :    0.042727
  32 H :    0.052410
  33 H :    0.063326
Sum of atomic charges:   -0.0000000

LOEWDIN ATOMIC CHARGES
----------------------
   0 S :    0.410850
   1 C :   -0.189086
   2 C :   -0.064293
   3 C :   -0.044253
   4 C :   -0.205679
   5 H :    0.021575
   6 C :   -0.026665
   7 H :    0.037214
   8 H :    0.027704
   9 C :   -0.049109
  10 H :    0.025927
  11 H :    0.026264
  12 C :   -0.072495
  13 H :    0.025453
  14 H :    0.028394
  15 H :    0.027956
  16 S :    0.399760
  17 C :   -0.191628
  18 C :   -0.082215
  19 C :   -0.060694
  20 C :   -0.203253
  21 H :    0.046943
  22 C :   -0.035572
  23 H :    0.030425
  24 H :    0.043222
  25 C :   -0.037769
  26 H :    0.017060
  27 H :    0.019498
  28 C :   -0.062625
  29 H :    0.027989
  30 H :    0.012941
  31 H :    0.033805
  32 H :    0.025064
  33 H :    0.037290

  Mayer bond orders larger than 0.100000
B(  0-S ,  1-C ) :   1.1377 B(  0-S ,  4-C ) :   1.1712 B(  1-C ,  2-C ) :   1.6008
B(  1-C , 32-H ) :   0.9637 B(  2-C ,  3-C ) :   1.2530 B(  2-C ,  6-C ) :   1.0199
B(  3-C ,  4-C ) :   1.5563 B(  3-C ,  5-H ) :   1.0018 B(  4-C , 20-C ) :   1.0170
B(  6-C ,  7-H ) :   0.9373 B(  6-C ,  8-H ) :   0.9409 B(  6-C ,  9-C ) :   1.0712
B(  9-C , 10-H ) :   0.9563 B(  9-C , 11-H ) :   0.9555 B(  9-C , 12-C ) :   1.0619
B( 12-C , 13-H ) :   0.9645 B( 12-C , 14-H ) :   0.9686 B( 12-C , 15-H ) :   0.9776
B( 16-S , 17-C ) :   1.1445 B( 16-S , 20-C ) :   1.1282 B( 17-C , 18-C ) :   1.6554
B( 17-C , 33-H ) :   0.9559 B( 18-C , 19-C ) :   1.2251 B( 18-C , 21-H ) :   0.9719
B( 19-C , 20-C ) :   1.6270 B( 19-C , 22-C ) :   1.0389 B( 22-C , 23-H ) :   0.9381
B( 22-C , 24-H ) :   0.9369 B( 22-C , 25-C ) :   1.0697 B( 25-C , 26-H ) :   0.9540
B( 25-C , 27-H ) :   0.9615 B( 25-C , 28-C ) :   1.0704 B( 28-C , 29-H ) :   0.9753
B( 28-C , 30-H ) :   0.9744 B( 28-C , 31-H ) :   0.9707

Dispersion correction           -0.016773495
FINAL SINGLE POINT ENERGY     -1339.883098303952

DIPOLE MOMENT
-------------
                                X             Y             Z
Electronic contribution:    -18.79096       7.58076      21.16092
Nuclear contribution   :     19.14019      -7.80556     -21.51836
                        -----------------------------------------
Total Dipole Moment    :      0.34923      -0.22480      -0.35744
                        -----------------------------------------
Magnitude (a.u.)       :      0.54795
Magnitude (Debye)      :      1.39279

Rotational constants in cm-1:     0.018800     0.010595     0.007932
Rotational constants in MHz :   563.617246   317.623444   237.781115

                             ****ORCA TERMINATED NORMALLY****
TOTAL RUN TIME: 0 days 0 hours 0 minutes 37 seconds 372 msec
