                         Program Version 4.2.1 -  RELEASE  -
|  1> ! wB97X-D3 SP def2-SVP
|  2> %pal
|  3> nprocs 16
|  4> end
|  5>
|  6> * xyz 0 1
|  7> S 	 -46.4193 	 -1.61073 	 98.8358
|  8> C 	 -45.4792 	 -2.75562 	 97.87
|  9> C 	 -45.1047 	 -2.29503 	 96.6442
| 10> C 	 -45.4406 	 -0.938124 	 96.5315
| 11> C 	 -46.1604 	 -0.430371 	 97.569
| 12> H 	 -45.3893 	 -0.351703 	 95.5878
| 13> C 	 -44.4281 	 -3.068 	 95.4939
| 14> H 	 -43.8242 	 -3.82595 	 96.1025
| 15> H 	 -43.707 	 -2.33987 	 95.1077
| 16> C 	 -45.3126 	 -3.70658 	 94.3875
| 17> H 	 -44.7981 	 -4.36759 	 93.751
| 18> H 	 -46.0976 	 -4.21054 	 94.8993
| 19> C 	 -45.9083 	 -2.66627 	 93.4761
| 20> H 	 -46.3139 	 -3.05518 	 92.5072
| 21> H 	 -46.7621 	 -2.21858 	 94.0507
| 22> H 	 -45.1172 	 -1.8804 	 93.1689
| 23> S 	 -45.5891 	 1.96507 	 98.9505
| 24> C 	 -46.3364 	 3.36504 	 98.4357
| 25> C 	 -47.1495 	 3.18236 	 97.3036
| 26> C 	 -47.1977 	 1.82138 	 96.8506
| 27> C 	 -46.421 	 0.997761 	 97.6919
| 28> H 	 -47.641 	 3.99721 	 96.8132
| 29> C 	 -48.0489 	 1.39182 	 95.6423
| 30> H 	 -48.8109 	 2.20404 	 95.4586
| 31> H 	 -48.6178 	 0.493048 	 95.9138
| 32> C 	 -47.2955 	 1.14877 	 94.3142
| 33> H 	 -46.8448 	 0.178751 	 94.4243
| 34> H 	 -46.4388 	 1.89684 	 94.142
| 35> C 	 -48.1007 	 1.27999 	 93.0256
| 36> H 	 -48.1015 	 2.2923 	 92.645
| 37> H 	 -49.1324 	 1.05921 	 93.2078
| 38> H 	 -47.6893 	 0.600333 	 92.2796
| 39> H 	 -45.4978 	 -3.76773 	 98.2545
| 40> H 	 -45.9777 	 4.25616 	 98.8757
| 41> *
| 42>
| 43>                          ****END OF INPUT****

CARTESIAN COORDINATES (ANGSTROEM)
---------------------------------
  S    -46.419300   -1.610730   98.835800
  C    -45.479200   -2.755620   97.870000
  C    -45.104700   -2.295030   96.644200
  C    -45.440600   -0.938124   96.531500
  C    -46.160400   -0.430371   97.569000
  H    -45.389300   -0.351703   95.587800
  C    -44.428100   -3.068000   95.493900
  H    -43.824200   -3.825950   96.102500
  H    -43.707000   -2.339870   95.107700
  C    -45.312600   -3.706580   94.387500
  H    -44.798100   -4.367590   93.751000
  H    -46.097600   -4.210540   94.899300
  C    -45.908300   -2.666270   93.476100
  H    -46.313900   -3.055180   92.507200
  H    -46.762100   -2.218580   94.050700
  H    -45.117200   -1.880400   93.168900
  S    -45.589100    1.965070   98.950500
  C    -46.336400    3.365040   98.435700
  C    -47.149500    3.182360   97.303600
  C    -47.197700    1.821380   96.850600
  C    -46.421000    0.997761   97.691900
  H    -47.641000    3.997210   96.813200
  C    -48.048900    1.391820   95.642300
  H    -48.810900    2.204040   95.458600
  H    -48.617800    0.493048   95.913800
  C    -47.295500    1.148770   94.314200
  H    -46.844800    0.178751   94.424300
  H    -46.438800    1.896840   94.142000
  C    -48.100700    1.279990   93.025600
  H    -48.101500    2.292300   92.645000
  H    -49.132400    1.059210   93.207800
  H    -47.689300    0.600333   92.279600
  H    -45.497800   -3.767730   98.254500
  H    -45.977700    4.256160   98.875700

 Total Charge           Charge          ....    0
 Multiplicity           Mult            ....    1
 Number of Electrons    NEL             ....  134
 Basis Dimension        Dim             ....  322

ORBITAL ENERGIES
----------------

  NO   OCC          E(Eh)            E(eV)
   0   2.0000     -88.966179     -2420.8928
   1   2.0000     -88.963705     -2420.8255
   2   2.0000     -10.324751      -280.9508
   3   2.0000     -10.322522      -280.8901
   4   2.0000     -10.314061      -280.6599
   5   2.0000     -10.309512      -280.5361
   6   2.0000     -10.305745      -280.4336
   7   2.0000     -10.302721      -280.3513
   8   2.0000     -10.299492      -280.2634
   9   2.0000     -10.299483      -280.2632
  10   2.0000     -10.291998      -280.0595
  11   2.0000     -10.290723      -280.0248
  12   2.0000     -10.288762      -279.9714
  13   2.0000     -10.287511      -279.9374
  14   2.0000     -10.285571      -279.8846
  15   2.0000     -10.275041      -279.5981
  16   2.0000      -8.080993      -219.8950
  17   2.0000      -8.079485      -219.8540
  18   2.0000      -6.039372      -164.3397
  19   2.0000      -6.037707      -164.2944
  20   2.0000      -6.035622      -164.2376
  21   2.0000      -6.033738      -164.1864
  22   2.0000      -6.031759      -164.1325
  23   2.0000      -6.030598      -164.1009
  24   2.0000      -1.006439       -27.3866
  25   2.0000      -0.985026       -26.8039
  26   2.0000      -0.912767       -24.8376
  27   2.0000      -0.906356       -24.6632
  28   2.0000      -0.868705       -23.6387
  29   2.0000      -0.855366       -23.2757
  30   2.0000      -0.848810       -23.0973
  31   2.0000      -0.805995       -21.9322
  32   2.0000      -0.785001       -21.3610
  33   2.0000      -0.769847       -20.9486
  34   2.0000      -0.703881       -19.1536
  35   2.0000      -0.700256       -19.0549
  36   2.0000      -0.688501       -18.7351
  37   2.0000      -0.660888       -17.9837
  38   2.0000      -0.642335       -17.4788
  39   2.0000      -0.611554       -16.6412
  40   2.0000      -0.597419       -16.2566
  41   2.0000      -0.577593       -15.7171
  42   2.0000      -0.562817       -15.3150
  43   2.0000      -0.551861       -15.0169
  44   2.0000      -0.537539       -14.6272
  45   2.0000      -0.524691       -14.2776
  46   2.0000      -0.517595       -14.0845
  47   2.0000      -0.508585       -13.8393
  48   2.0000      -0.507485       -13.8094
  49   2.0000      -0.489840       -13.3292
  50   2.0000      -0.485772       -13.2185
  51   2.0000      -0.481337       -13.0978
  52   2.0000      -0.471116       -12.8197
  53   2.0000      -0.464037       -12.6271
  54   2.0000      -0.457963       -12.4618
  55   2.0000      -0.452078       -12.3017
  56   2.0000      -0.444205       -12.0874
  57   2.0000      -0.435470       -11.8497
  58   2.0000      -0.432959       -11.7814
  59   2.0000      -0.430294       -11.7089
  60   2.0000      -0.421698       -11.4750
  61   2.0000      -0.416759       -11.3406
  62   2.0000      -0.408495       -11.1157
  63   2.0000      -0.340427        -9.2635
  64   2.0000      -0.334445        -9.1007
  65   2.0000      -0.328051        -8.9267
  66   2.0000      -0.293063        -7.9746
  67   0.0000       0.036518         0.9937
  68   0.0000       0.062303         1.6953
  69   0.0000       0.112703         3.0668
  70   0.0000       0.123268         3.3543
  71   0.0000       0.128396         3.4938

MULLIKEN ATOMIC CHARGES
-----------------------
   0 S :    0.107385
   1 C :   -0.156558
   2 C :   -0.064728
   3 C :    0.010601
   4 C :   -0.173697
   5 H :    0.027054
   6 C :    0.030488
   7 H :    0.038586
   8 H :    0.033083
   9 C :    0.029324
  10 H :    0.025194
  11 H :    0.023337
  12 C :   -0.140219
  13 H :    0.043506
  14 H :    0.062627
  15 H :    0.043648
  16 S :    0.122123
  17 C :   -0.085254
  18 C :   -0.028749
  19 C :   -0.028458
  20 C :   -0.173998
  21 H :    0.009235
  22 C :    0.058220
  23 H :    0.024958
  24 H :    0.043430
  25 C :   -0.119233
  26 H :    0.025050
  27 H :    0.041717
  28 C :   -0.016930
  29 H :    0.032863
  30 H :    0.020360
  31 H :    0.036474
  32 H :    0.049133
  33 H :    0.049427
Sum of atomic charges:   -0.0000000

LOEWDIN ATOMIC CHARGES
----------------------
   0 S :    0.394550
   1 C :   -0.182284
   2 C :   -0.071601
   3 C :   -0.064954
   4 C :   -0.201123
   5 H :    0.037487
   6 C :   -0.029343
   7 H :    0.040362
   8 H :    0.030231
   9 C :   -0.034070
  10 H :    0.020744
  11 H :    0.024883
  12 C :   -0.078422
  13 H :    0.029210
  14 H :    0.031011
  15 H :    0.031106
  16 S :    0.431708
  17 C :   -0.205250
  18 C :   -0.073522
  19 C :   -0.050300
  20 C :   -0.195272
  21 H :    0.025843
  22 C :   -0.032475
  23 H :    0.032891
  24 H :    0.036220
  25 C :   -0.050071
  26 H :    0.014396
  27 H :    0.033447
  28 C :   -0.062245
  29 H :    0.025456
  30 H :    0.019722
  31 H :    0.031232
  32 H :    0.021503
  33 H :    0.018931

  Mayer bond orders larger than 0.100000
B(  0-S ,  1-C ) :   1.1454 B(  0-S ,  4-C ) :   1.1444 B(  1-C ,  2-C ) :   1.6132
B(  1-C , 32-H ) :   0.9680 B(  2-C ,  3-C ) :   1.2517 B(  2-C ,  6-C ) :   0.9913
B(  3-C ,  4-C ) :   1.5999 B(  3-C ,  5-H ) :   0.9720 B(  4-C , 20-C ) :   1.0313
B(  6-C ,  7-H ) :   0.9434 B(  6-C ,  8-H ) :   0.9469 B(  6-C ,  9-C ) :   1.0568
B(  9-C , 10-H ) :   0.9560 B(  9-C , 11-H ) :   0.9536 B(  9-C , 12-C ) :   1.0762
B( 12-C , 13-H ) :   0.9711 B( 12-C , 14-H ) :   0.9697 B( 12-C , 15-H ) :   0.9729
B( 16-S , 17-C ) :   1.1972 B( 16-S , 20-C ) :   1.1568 B( 17-C , 18-C ) :   1.5464
B( 17-C , 20-C ) :   0.1008 B( 17-C , 33-H ) :   0.9735 B( 18-C , 19-C ) :   1.2807
B( 18-C , 21-H ) :   0.9944 B( 19-C , 20-C ) :   1.5717 B( 19-C , 22-C ) :   1.0378
B( 22-C , 23-H ) :   0.9443 B( 22-C , 24-H ) :   0.9288 B( 22-C , 25-C ) :   1.0549
B( 25-C , 26-H ) :   0.9424 B( 25-C , 27-H ) :   0.9625 B( 25-C , 28-C ) :   1.0806
B( 28-C , 29-H ) :   0.9771 B( 28-C , 30-H ) :   0.9735 B( 28-C , 31-H ) :   0.9723

Dispersion correction           -0.015702577
FINAL SINGLE POINT ENERGY     -1339.875929576580

DIPOLE MOMENT
-------------
                                X             Y             Z
Electronic contribution:      4.03259       6.31490      31.02014
Nuclear contribution   :     -4.06945      -6.48460     -31.74643
                        -----------------------------------------
Total Dipole Moment    :     -0.03687      -0.16970      -0.72630
                        -----------------------------------------
Magnitude (a.u.)       :      0.74677
Magnitude (Debye)      :      1.89814

Rotational constants in cm-1:     0.016690     0.010747     0.007195
Rotational constants in MHz :   500.356988   322.188537   215.702729

                             ****ORCA TERMINATED NORMALLY****
TOTAL RUN TIME: 0 days 0 hours 0 minutes 30 seconds 889 msec
