                         Program Version 4.2.1 -  RELEASE  -
|  1> ! wB97X-D3 SP def2-SVP
|  2> %pal
|  3> nprocs 16
|  4> end
|  5>
|  6> * xyz 0 1
|  7> S 	 -33.3576 	 77.1649 	 163.699
|  8> C 	 -32.0333 	 76.8274 	 162.599
|  9> C 	 -32.5299 	 76.5827 	 161.323
| 10> C 	 -33.939 	 76.6449 	 161.244
| 11> C 	 -34.5247 	 76.8999 	 162.481
| 12> H 	 -34.5375 	 76.558 	 160.307
| 13> C 	 -31.7387 	 76.1489 	 160.134
| 14> H 	 -32.042 	 75.0331 	 159.984
| 15> H 	 -30.697 	 76.2426 	 160.409
| 16> C 	 -31.9194 	 76.816 	 158.72
| 17> H 	 -32.8865 	 76.5196 	 158.265
| 18> H 	 -31.7661 	 77.8833 	 158.815
| 19> C 	 -30.809 	 76.3825 	 157.724
| 20> H 	 -30.7916 	 75.2812 	 157.607
| 21> H 	 -30.9889 	 76.6771 	 156.722
| 22> H 	 -29.8015 	 76.6713 	 157.991
| 23> S 	 -36.4219 	 78.1236 	 164.063
| 24> C 	 -38.0579 	 77.6434 	 164.023
| 25> C 	 -38.2677 	 76.6568 	 163.076
| 26> C 	 -37.063 	 76.3087 	 162.32
| 27> C 	 -35.9472 	 76.8969 	 162.872
| 28> H 	 -39.2706 	 76.2609 	 162.859
| 29> C 	 -37.0837 	 75.3534 	 161.221
| 30> H 	 -36.0761 	 75.2836 	 160.89
| 31> H 	 -37.7541 	 75.8195 	 160.566
| 32> C 	 -37.5267 	 73.9726 	 161.568
| 33> H 	 -37.5915 	 73.4198 	 160.637
| 34> H 	 -38.4943 	 74.0538 	 161.951
| 35> C 	 -36.666 	 73.218 	 162.499
| 36> H 	 -36.8828 	 72.1548 	 162.459
| 37> H 	 -36.8886 	 73.5231 	 163.475
| 38> H 	 -35.586 	 73.3225 	 162.386
| 39> H 	 -31.0196 	 77.0253 	 162.745
| 40> H 	 -38.7257 	 78.1056 	 164.727
| 41> *
| 42>
| 43>                          ****END OF INPUT****

CARTESIAN COORDINATES (ANGSTROEM)
---------------------------------
  S    -33.357600   77.164900  163.699000
  C    -32.033300   76.827400  162.599000
  C    -32.529900   76.582700  161.323000
  C    -33.939000   76.644900  161.244000
  C    -34.524700   76.899900  162.481000
  H    -34.537500   76.558000  160.307000
  C    -31.738700   76.148900  160.134000
  H    -32.042000   75.033100  159.984000
  H    -30.697000   76.242600  160.409000
  C    -31.919400   76.816000  158.720000
  H    -32.886500   76.519600  158.265000
  H    -31.766100   77.883300  158.815000
  C    -30.809000   76.382500  157.724000
  H    -30.791600   75.281200  157.607000
  H    -30.988900   76.677100  156.722000
  H    -29.801500   76.671300  157.991000
  S    -36.421900   78.123600  164.063000
  C    -38.057900   77.643400  164.023000
  C    -38.267700   76.656800  163.076000
  C    -37.063000   76.308700  162.320000
  C    -35.947200   76.896900  162.872000
  H    -39.270600   76.260900  162.859000
  C    -37.083700   75.353400  161.221000
  H    -36.076100   75.283600  160.890000
  H    -37.754100   75.819500  160.566000
  C    -37.526700   73.972600  161.568000
  H    -37.591500   73.419800  160.637000
  H    -38.494300   74.053800  161.951000
  C    -36.666000   73.218000  162.499000
  H    -36.882800   72.154800  162.459000
  H    -36.888600   73.523100  163.475000
  H    -35.586000   73.322500  162.386000
  H    -31.019600   77.025300  162.745000
  H    -38.725700   78.105600  164.727000

 Total Charge           Charge          ....    0
 Multiplicity           Mult            ....    1
 Number of Electrons    NEL             ....  134
 Basis Dimension        Dim             ....  322

ORBITAL ENERGIES
----------------

  NO   OCC          E(Eh)            E(eV)
   0   2.0000     -88.966381     -2420.8983
   1   2.0000     -88.960051     -2420.7260
   2   2.0000     -10.330075      -281.0956
   3   2.0000     -10.325658      -280.9754
   4   2.0000     -10.317320      -280.7486
   5   2.0000     -10.307968      -280.4941
   6   2.0000     -10.301436      -280.3163
   7   2.0000     -10.299282      -280.2577
   8   2.0000     -10.298913      -280.2477
   9   2.0000     -10.298903      -280.2474
  10   2.0000     -10.295964      -280.1674
  11   2.0000     -10.293025      -280.0874
  12   2.0000     -10.278331      -279.6876
  13   2.0000     -10.276221      -279.6302
  14   2.0000     -10.272692      -279.5342
  15   2.0000     -10.263489      -279.2837
  16   2.0000      -8.081687      -219.9139
  17   2.0000      -8.075829      -219.7545
  18   2.0000      -6.040221      -164.3628
  19   2.0000      -6.036015      -164.2483
  20   2.0000      -6.034345      -164.2029
  21   2.0000      -6.032476      -164.1520
  22   2.0000      -6.030186      -164.0897
  23   2.0000      -6.026526      -163.9901
  24   2.0000      -1.010691       -27.5023
  25   2.0000      -0.987769       -26.8786
  26   2.0000      -0.929105       -25.2822
  27   2.0000      -0.908684       -24.7265
  28   2.0000      -0.869485       -23.6599
  29   2.0000      -0.858675       -23.3657
  30   2.0000      -0.844870       -22.9901
  31   2.0000      -0.813402       -22.1338
  32   2.0000      -0.789721       -21.4894
  33   2.0000      -0.774617       -21.0784
  34   2.0000      -0.712396       -19.3853
  35   2.0000      -0.701906       -19.0998
  36   2.0000      -0.695989       -18.9388
  37   2.0000      -0.659284       -17.9400
  38   2.0000      -0.635939       -17.3048
  39   2.0000      -0.623755       -16.9732
  40   2.0000      -0.604438       -16.4476
  41   2.0000      -0.572169       -15.5695
  42   2.0000      -0.570149       -15.5145
  43   2.0000      -0.560526       -15.2527
  44   2.0000      -0.549657       -14.9569
  45   2.0000      -0.527783       -14.3617
  46   2.0000      -0.515799       -14.0356
  47   2.0000      -0.512114       -13.9353
  48   2.0000      -0.505802       -13.7636
  49   2.0000      -0.498766       -13.5721
  50   2.0000      -0.489671       -13.3246
  51   2.0000      -0.480014       -13.0618
  52   2.0000      -0.474282       -12.9059
  53   2.0000      -0.466710       -12.6998
  54   2.0000      -0.459578       -12.5058
  55   2.0000      -0.454467       -12.3667
  56   2.0000      -0.447129       -12.1670
  57   2.0000      -0.440622       -11.9899
  58   2.0000      -0.435154       -11.8411
  59   2.0000      -0.426217       -11.5979
  60   2.0000      -0.422082       -11.4854
  61   2.0000      -0.417309       -11.3555
  62   2.0000      -0.408757       -11.1228
  63   2.0000      -0.352878        -9.6023
  64   2.0000      -0.330093        -8.9823
  65   2.0000      -0.325830        -8.8663
  66   2.0000      -0.287419        -7.8211
  67   0.0000       0.027759         0.7554
  68   0.0000       0.081184         2.2091
  69   0.0000       0.105189         2.8623
  70   0.0000       0.110753         3.0137
  71   0.0000       0.135759         3.6942

MULLIKEN ATOMIC CHARGES
-----------------------
   0 S :    0.109073
   1 C :   -0.089833
   2 C :   -0.080689
   3 C :   -0.019241
   4 C :   -0.130048
   5 H :    0.041974
   6 C :    0.014454
   7 H :    0.057534
   8 H :    0.012500
   9 C :   -0.069612
  10 H :    0.040338
  11 H :    0.039893
  12 C :   -0.048343
  13 H :    0.018771
  14 H :    0.024817
  15 H :    0.030308
  16 S :    0.083809
  17 C :   -0.078642
  18 C :   -0.042026
  19 C :   -0.109144
  20 C :   -0.112317
  21 H :    0.026580
  22 C :    0.136300
  23 H :   -0.006319
  24 H :    0.019079
  25 C :   -0.038829
  26 H :    0.020510
  27 H :    0.002511
  28 C :   -0.020382
  29 H :    0.026939
  30 H :    0.020844
  31 H :    0.031913
  32 H :    0.026373
  33 H :    0.060908
Sum of atomic charges:   -0.0000000

LOEWDIN ATOMIC CHARGES
----------------------
   0 S :    0.427046
   1 C :   -0.201900
   2 C :   -0.063071
   3 C :   -0.082170
   4 C :   -0.195955
   5 H :    0.038613
   6 C :   -0.038427
   7 H :    0.047837
   8 H :    0.025013
   9 C :   -0.037385
  10 H :    0.026833
  11 H :    0.025827
  12 C :   -0.066203
  13 H :    0.025080
  14 H :    0.021813
  15 H :    0.022125
  16 S :    0.401154
  17 C :   -0.186515
  18 C :   -0.078413
  19 C :   -0.049176
  20 C :   -0.195267
  21 H :    0.032137
  22 C :   -0.027232
  23 H :    0.025575
  24 H :    0.032765
  25 C :   -0.032996
  26 H :    0.024342
  27 H :    0.014755
  28 C :   -0.059026
  29 H :    0.028877
  30 H :    0.021262
  31 H :    0.028259
  32 H :    0.017319
  33 H :    0.027102

  Mayer bond orders larger than 0.100000
B(  0-S ,  1-C ) :   1.1250 B(  0-S ,  4-C ) :   1.1840 B(  1-C ,  2-C ) :   1.5967
B(  1-C ,  4-C ) :   0.1021 B(  1-C , 32-H ) :   0.9707 B(  2-C ,  3-C ) :   1.2555
B(  2-C ,  6-C ) :   1.0367 B(  3-C ,  4-C ) :   1.5505 B(  3-C ,  5-H ) :   0.9786
B(  4-C , 20-C ) :   1.0176 B(  6-C ,  7-H ) :   0.9334 B(  6-C ,  8-H ) :   0.9438
B(  6-C ,  9-C ) :   1.0595 B(  9-C , 10-H ) :   0.9512 B(  9-C , 11-H ) :   0.9595
B(  9-C , 12-C ) :   1.0870 B( 12-C , 13-H ) :   0.9727 B( 12-C , 14-H ) :   0.9741
B( 12-C , 15-H ) :   0.9764 B( 16-S , 17-C ) :   1.1703 B( 16-S , 20-C ) :   1.1255
B( 17-C , 18-C ) :   1.5931 B( 17-C , 33-H ) :   0.9727 B( 18-C , 19-C ) :   1.2072
B( 18-C , 21-H ) :   0.9886 B( 19-C , 20-C ) :   1.6208 B( 19-C , 22-C ) :   1.0508
B( 22-C , 23-H ) :   0.9214 B( 22-C , 24-H ) :   0.9077 B( 22-C , 25-C ) :   1.1042
B( 25-C , 26-H ) :   0.9506 B( 25-C , 27-H ) :   0.9477 B( 25-C , 28-C ) :   1.0810
B( 28-C , 29-H ) :   0.9693 B( 28-C , 30-H ) :   0.9698 B( 28-C , 31-H ) :   0.9745

Dispersion correction           -0.014169003
FINAL SINGLE POINT ENERGY     -1339.876101536226

DIPOLE MOMENT
-------------
                                X             Y             Z
Electronic contribution:     -5.28246      15.91506      22.78983
Nuclear contribution   :      5.12707     -16.18616     -23.41149
                        -----------------------------------------
Total Dipole Moment    :     -0.15539      -0.27110      -0.62166
                        -----------------------------------------
Magnitude (a.u.)       :      0.69577
Magnitude (Debye)      :      1.76852

Rotational constants in cm-1:     0.019885     0.008259     0.006753
Rotational constants in MHz :   596.150606   247.607523   202.442549

                             ****ORCA TERMINATED NORMALLY****
TOTAL RUN TIME: 0 days 0 hours 0 minutes 34 seconds 893 msec
