                         Program Version 4.2.1 -  RELEASE  -
|  1> ! wB97X-D3 SP def2-SVP
|  2> %pal
|  3> nprocs 16
|  4> end
|  5>
|  6> * xyz 0 1
|  7> S 	 15.1497 	 8.90638 	 87.8275
|  8> C 	 16.4728 	 9.2402 	 86.776
|  9> C 	 15.9802 	 9.65659 	 85.5369
| 10> C 	 14.5629 	 9.68563 	 85.429
| 11> C 	 13.9605 	 9.12941 	 86.5505
| 12> H 	 14.0108 	 10.1059 	 84.6194
| 13> C 	 16.9656 	 9.95686 	 84.4435
| 14> H 	 16.6094 	 9.65301 	 83.4982
| 15> H 	 17.7661 	 9.21514 	 84.6157
| 16> C 	 17.5746 	 11.3856 	 84.3607
| 17> H 	 18.0317 	 11.7616 	 85.2765
| 18> H 	 18.5052 	 11.2307 	 83.7981
| 19> C 	 16.6941 	 12.4051 	 83.6914
| 20> H 	 16.3657 	 12.0991 	 82.702
| 21> H 	 15.812 	 12.4943 	 84.2725
| 22> H 	 17.158 	 13.3568 	 83.6387
| 23> S 	 11.9674 	 9.73896 	 88.4463
| 24> C 	 10.3429 	 9.62068 	 88.0004
| 25> C 	 10.2431 	 9.19288 	 86.6897
| 26> C 	 11.4336 	 8.86235 	 85.9816
| 27> C 	 12.4978 	 9.14958 	 86.8414
| 28> H 	 9.26697 	 9.08189 	 86.3251
| 29> C 	 11.328 	 8.3485 	 84.537
| 30> H 	 10.8613 	 7.36842 	 84.5913
| 31> H 	 12.2084 	 8.06771 	 83.9715
| 32> C 	 10.592 	 9.47891 	 83.6721
| 33> H 	 9.49197 	 9.55506 	 83.8106
| 34> H 	 10.7859 	 9.08298 	 82.6542
| 35> C 	 11.1971 	 10.8878 	 83.8801
| 36> H 	 10.7036 	 11.6371 	 83.2252
| 37> H 	 12.1869 	 10.7969 	 83.5368
| 38> H 	 11.1348 	 11.3581 	 84.8782
| 39> H 	 17.5152 	 9.05912 	 87.0441
| 40> H 	 9.42788 	 9.95162 	 88.5005
| 41> *
| 42>
| 43>                          ****END OF INPUT****

CARTESIAN COORDINATES (ANGSTROEM)
---------------------------------
  S     15.149700    8.906380   87.827500
  C     16.472800    9.240200   86.776000
  C     15.980200    9.656590   85.536900
  C     14.562900    9.685630   85.429000
  C     13.960500    9.129410   86.550500
  H     14.010800   10.105900   84.619400
  C     16.965600    9.956860   84.443500
  H     16.609400    9.653010   83.498200
  H     17.766100    9.215140   84.615700
  C     17.574600   11.385600   84.360700
  H     18.031700   11.761600   85.276500
  H     18.505200   11.230700   83.798100
  C     16.694100   12.405100   83.691400
  H     16.365700   12.099100   82.702000
  H     15.812000   12.494300   84.272500
  H     17.158000   13.356800   83.638700
  S     11.967400    9.738960   88.446300
  C     10.342900    9.620680   88.000400
  C     10.243100    9.192880   86.689700
  C     11.433600    8.862350   85.981600
  C     12.497800    9.149580   86.841400
  H      9.266970    9.081890   86.325100
  C     11.328000    8.348500   84.537000
  H     10.861300    7.368420   84.591300
  H     12.208400    8.067710   83.971500
  C     10.592000    9.478910   83.672100
  H      9.491970    9.555060   83.810600
  H     10.785900    9.082980   82.654200
  C     11.197100   10.887800   83.880100
  H     10.703600   11.637100   83.225200
  H     12.186900   10.796900   83.536800
  H     11.134800   11.358100   84.878200
  H     17.515200    9.059120   87.044100
  H      9.427880    9.951620   88.500500

 Total Charge           Charge          ....    0
 Multiplicity           Mult            ....    1
 Number of Electrons    NEL             ....  134
 Basis Dimension        Dim             ....  322

ORBITAL ENERGIES
----------------

  NO   OCC          E(Eh)            E(eV)
   0   2.0000     -88.966637     -2420.9053
   1   2.0000     -88.963805     -2420.8282
   2   2.0000     -10.331306      -281.1291
   3   2.0000     -10.330427      -281.1052
   4   2.0000     -10.310987      -280.5762
   5   2.0000     -10.310737      -280.5694
   6   2.0000     -10.306519      -280.4546
   7   2.0000     -10.302528      -280.3460
   8   2.0000     -10.300337      -280.2864
   9   2.0000     -10.297316      -280.2042
  10   2.0000     -10.291874      -280.0561
  11   2.0000     -10.286269      -279.9036
  12   2.0000     -10.283786      -279.8361
  13   2.0000     -10.283240      -279.8212
  14   2.0000     -10.279729      -279.7257
  15   2.0000     -10.268301      -279.4147
  16   2.0000      -8.081558      -219.9104
  17   2.0000      -8.078778      -219.8347
  18   2.0000      -6.040064      -164.3585
  19   2.0000      -6.037293      -164.2831
  20   2.0000      -6.036053      -164.2493
  21   2.0000      -6.033166      -164.1708
  22   2.0000      -6.032285      -164.1468
  23   2.0000      -6.029625      -164.0744
  24   2.0000      -1.004886       -27.3443
  25   2.0000      -0.985605       -26.8197
  26   2.0000      -0.909010       -24.7354
  27   2.0000      -0.906504       -24.6672
  28   2.0000      -0.864750       -23.5310
  29   2.0000      -0.851237       -23.1633
  30   2.0000      -0.844393       -22.9771
  31   2.0000      -0.814379       -22.1604
  32   2.0000      -0.789156       -21.4740
  33   2.0000      -0.771470       -20.9928
  34   2.0000      -0.705936       -19.2095
  35   2.0000      -0.701149       -19.0792
  36   2.0000      -0.691985       -18.8299
  37   2.0000      -0.655874       -17.8472
  38   2.0000      -0.638656       -17.3787
  39   2.0000      -0.620672       -16.8893
  40   2.0000      -0.600976       -16.3534
  41   2.0000      -0.570057       -15.5120
  42   2.0000      -0.556809       -15.1515
  43   2.0000      -0.550465       -14.9789
  44   2.0000      -0.535991       -14.5851
  45   2.0000      -0.531416       -14.4606
  46   2.0000      -0.519993       -14.1497
  47   2.0000      -0.509810       -13.8726
  48   2.0000      -0.501291       -13.6408
  49   2.0000      -0.496433       -13.5086
  50   2.0000      -0.487015       -13.2524
  51   2.0000      -0.480217       -13.0674
  52   2.0000      -0.473114       -12.8741
  53   2.0000      -0.467526       -12.7220
  54   2.0000      -0.457990       -12.4625
  55   2.0000      -0.455817       -12.4034
  56   2.0000      -0.444137       -12.0856
  57   2.0000      -0.438378       -11.9289
  58   2.0000      -0.435871       -11.8607
  59   2.0000      -0.423214       -11.5162
  60   2.0000      -0.419365       -11.4115
  61   2.0000      -0.410918       -11.1817
  62   2.0000      -0.405567       -11.0360
  63   2.0000      -0.353376        -9.6159
  64   2.0000      -0.330343        -8.9891
  65   2.0000      -0.326441        -8.8829
  66   2.0000      -0.283261        -7.7079
  67   0.0000       0.028859         0.7853
  68   0.0000       0.075850         2.0640
  69   0.0000       0.110591         3.0093
  70   0.0000       0.120516         3.2794
  71   0.0000       0.134859         3.6697

MULLIKEN ATOMIC CHARGES
-----------------------
   0 S :    0.096740
   1 C :   -0.123234
   2 C :   -0.088663
   3 C :    0.049960
   4 C :   -0.122340
   5 H :   -0.022379
   6 C :    0.055922
   7 H :    0.002856
   8 H :    0.020531
   9 C :   -0.057788
  10 H :    0.018469
  11 H :    0.016312
  12 C :    0.001914
  13 H :    0.017607
  14 H :    0.021341
  15 H :    0.028913
  16 S :    0.118297
  17 C :   -0.081954
  18 C :   -0.052157
  19 C :   -0.022963
  20 C :   -0.169621
  21 H :   -0.008888
  22 C :    0.079066
  23 H :    0.042042
  24 H :    0.022038
  25 C :   -0.125338
  26 H :    0.047768
  27 H :    0.037965
  28 C :   -0.047829
  29 H :    0.033996
  30 H :    0.027688
  31 H :    0.064490
  32 H :    0.058273
  33 H :    0.060966
Sum of atomic charges:    0.0000000

LOEWDIN ATOMIC CHARGES
----------------------
   0 S :    0.410405
   1 C :   -0.208476
   2 C :   -0.065337
   3 C :   -0.062591
   4 C :   -0.184408
   5 H :    0.024621
   6 C :   -0.032217
   7 H :    0.020577
   8 H :    0.036562
   9 C :   -0.041279
  10 H :    0.023805
  11 H :    0.023319
  12 C :   -0.057979
  13 H :    0.023156
  14 H :    0.022137
  15 H :    0.024179
  16 S :    0.413779
  17 C :   -0.215570
  18 C :   -0.069731
  19 C :   -0.054869
  20 C :   -0.185818
  21 H :    0.017185
  22 C :   -0.030400
  23 H :    0.038511
  24 H :    0.029256
  25 C :   -0.037973
  26 H :    0.023508
  27 H :    0.028044
  28 C :   -0.068135
  29 H :    0.031992
  30 H :    0.015310
  31 H :    0.036664
  32 H :    0.032245
  33 H :    0.039529

  Mayer bond orders larger than 0.100000
B(  0-S ,  1-C ) :   1.1467 B(  0-S ,  4-C ) :   1.1688 B(  1-C ,  2-C ) :   1.5721
B(  1-C , 32-H ) :   0.9710 B(  2-C ,  3-C ) :   1.2705 B(  2-C ,  6-C ) :   1.0230
B(  3-C ,  4-C ) :   1.5268 B(  3-C ,  5-H ) :   0.9990 B(  4-C , 20-C ) :   1.0354
B(  6-C ,  7-H ) :   0.9418 B(  6-C ,  8-H ) :   0.9403 B(  6-C ,  9-C ) :   1.0680
B(  9-C , 10-H ) :   0.9546 B(  9-C , 11-H ) :   0.9508 B(  9-C , 12-C ) :   1.0833
B( 12-C , 13-H ) :   0.9723 B( 12-C , 14-H ) :   0.9750 B( 12-C , 15-H ) :   0.9705
B( 16-S , 17-C ) :   1.1470 B( 16-S , 20-C ) :   1.1494 B( 17-C , 18-C ) :   1.6241
B( 17-C , 33-H ) :   0.9629 B( 18-C , 19-C ) :   1.2331 B( 18-C , 21-H ) :   0.9931
B( 19-C , 20-C ) :   1.5885 B( 19-C , 22-C ) :   1.0359 B( 22-C , 23-H ) :   0.9371
B( 22-C , 24-H ) :   0.9456 B( 22-C , 25-C ) :   1.0416 B( 25-C , 26-H ) :   0.9602
B( 25-C , 27-H ) :   0.9634 B( 25-C , 28-C ) :   1.0722 B( 28-C , 29-H ) :   0.9679
B( 28-C , 30-H ) :   0.9720 B( 28-C , 31-H ) :   0.9692

Dispersion correction           -0.015181119
FINAL SINGLE POINT ENERGY     -1339.869024261885

DIPOLE MOMENT
-------------
                                X             Y             Z
Electronic contribution:     -3.36307     -10.32286      25.99957
Nuclear contribution   :      3.27655      10.49365     -26.72722
                        -----------------------------------------
Total Dipole Moment    :     -0.08651       0.17079      -0.72764
                        -----------------------------------------
Magnitude (a.u.)       :      0.75241
Magnitude (Debye)      :      1.91247

Rotational constants in cm-1:     0.019120     0.009261     0.007095
Rotational constants in MHz :   573.196765   277.628841   212.689893

                             ****ORCA TERMINATED NORMALLY****
TOTAL RUN TIME: 0 days 0 hours 0 minutes 34 seconds 915 msec
