                         Program Version 4.2.1 -  RELEASE  -
|  1> ! wB97X-D3 SP def2-SVP
|  2> %pal
|  3> nprocs 16
|  4> end
|  5>
|  6> * xyz 0 1
|  7> S 	 39.2534 	 10.8885 	 83.0909
|  8> C 	 39.7356 	 9.64238 	 81.9707
|  9> C 	 40.6871 	 10.1226 	 81.0859
| 10> C 	 41.1746 	 11.4368 	 81.3845
| 11> C 	 40.5514 	 11.935 	 82.4761
| 12> H 	 41.9417 	 11.9454 	 80.8134
| 13> C 	 41.2108 	 9.29804 	 79.9916
| 14> H 	 40.9454 	 8.28123 	 80.1335
| 15> H 	 42.2287 	 9.38846 	 79.9315
| 16> C 	 40.6465 	 9.62799 	 78.5038
| 17> H 	 39.5999 	 9.39881 	 78.638
| 18> H 	 40.6019 	 10.6571 	 78.2588
| 19> C 	 41.4654 	 8.87918 	 77.4069
| 20> H 	 42.3962 	 9.44342 	 77.3817
| 21> H 	 41.6515 	 7.82837 	 77.6781
| 22> H 	 41.0054 	 8.91109 	 76.4813
| 23> S 	 39.4022 	 14.1156 	 83.6071
| 24> C 	 40.4679 	 15.412 	 84.2323
| 25> C 	 41.785 	 15.1408 	 84.0311
| 26> C 	 41.9633 	 13.8872 	 83.3347
| 27> C 	 40.7774 	 13.2719 	 83.0355
| 28> H 	 42.5975 	 15.7107 	 84.4591
| 29> C 	 43.4078 	 13.3633 	 83.2186
| 30> H 	 44.1885 	 14.0606 	 83.5524
| 31> H 	 43.5546 	 13.1621 	 82.1307
| 32> C 	 43.8084 	 12.1625 	 84.1791
| 33> H 	 43.2071 	 11.3042 	 83.7775
| 34> H 	 43.3421 	 12.3573 	 85.194
| 35> C 	 45.2125 	 11.5015 	 84.1272
| 36> H 	 45.2105 	 10.614 	 84.8341
| 37> H 	 45.933 	 12.1733 	 84.5154
| 38> H 	 45.4324 	 11.2453 	 83.1189
| 39> H 	 39.2836 	 8.6504 	 81.9082
| 40> H 	 40.1526 	 16.3172 	 84.6941
| 41> *
| 42>
| 43>                          ****END OF INPUT****

CARTESIAN COORDINATES (ANGSTROEM)
---------------------------------
  S     39.253400   10.888500   83.090900
  C     39.735600    9.642380   81.970700
  C     40.687100   10.122600   81.085900
  C     41.174600   11.436800   81.384500
  C     40.551400   11.935000   82.476100
  H     41.941700   11.945400   80.813400
  C     41.210800    9.298040   79.991600
  H     40.945400    8.281230   80.133500
  H     42.228700    9.388460   79.931500
  C     40.646500    9.627990   78.503800
  H     39.599900    9.398810   78.638000
  H     40.601900   10.657100   78.258800
  C     41.465400    8.879180   77.406900
  H     42.396200    9.443420   77.381700
  H     41.651500    7.828370   77.678100
  H     41.005400    8.911090   76.481300
  S     39.402200   14.115600   83.607100
  C     40.467900   15.412000   84.232300
  C     41.785000   15.140800   84.031100
  C     41.963300   13.887200   83.334700
  C     40.777400   13.271900   83.035500
  H     42.597500   15.710700   84.459100
  C     43.407800   13.363300   83.218600
  H     44.188500   14.060600   83.552400
  H     43.554600   13.162100   82.130700
  C     43.808400   12.162500   84.179100
  H     43.207100   11.304200   83.777500
  H     43.342100   12.357300   85.194000
  C     45.212500   11.501500   84.127200
  H     45.210500   10.614000   84.834100
  H     45.933000   12.173300   84.515400
  H     45.432400   11.245300   83.118900
  H     39.283600    8.650400   81.908200
  H     40.152600   16.317200   84.694100

 Total Charge           Charge          ....    0
 Multiplicity           Mult            ....    1
 Number of Electrons    NEL             ....  134
 Basis Dimension        Dim             ....  322

ORBITAL ENERGIES
----------------

  NO   OCC          E(Eh)            E(eV)
   0   2.0000     -88.967496     -2420.9286
   1   2.0000     -88.966746     -2420.9082
   2   2.0000     -10.329787      -281.0878
   3   2.0000     -10.323989      -280.9300
   4   2.0000     -10.315061      -280.6871
   5   2.0000     -10.312726      -280.6235
   6   2.0000     -10.302392      -280.3423
   7   2.0000     -10.299235      -280.2564
   8   2.0000     -10.297153      -280.1998
   9   2.0000     -10.292582      -280.0754
  10   2.0000     -10.292415      -280.0709
  11   2.0000     -10.290375      -280.0153
  12   2.0000     -10.285439      -279.8810
  13   2.0000     -10.280827      -279.7555
  14   2.0000     -10.280796      -279.7547
  15   2.0000     -10.278287      -279.6864
  16   2.0000      -8.082396      -219.9332
  17   2.0000      -8.081216      -219.9011
  18   2.0000      -6.041030      -164.3848
  19   2.0000      -6.039833      -164.3522
  20   2.0000      -6.036972      -164.2744
  21   2.0000      -6.035921      -164.2458
  22   2.0000      -6.032924      -164.1642
  23   2.0000      -6.031727      -164.1316
  24   2.0000      -1.010095       -27.4861
  25   2.0000      -0.985280       -26.8108
  26   2.0000      -0.907338       -24.6899
  27   2.0000      -0.895375       -24.3644
  28   2.0000      -0.870676       -23.6923
  29   2.0000      -0.853723       -23.2310
  30   2.0000      -0.846488       -23.0341
  31   2.0000      -0.821266       -22.3478
  32   2.0000      -0.780142       -21.2287
  33   2.0000      -0.768774       -20.9194
  34   2.0000      -0.709167       -19.2974
  35   2.0000      -0.702505       -19.1161
  36   2.0000      -0.683301       -18.5936
  37   2.0000      -0.668228       -18.1834
  38   2.0000      -0.641090       -17.4450
  39   2.0000      -0.624642       -16.9974
  40   2.0000      -0.591847       -16.1050
  41   2.0000      -0.570899       -15.5350
  42   2.0000      -0.561162       -15.2700
  43   2.0000      -0.556128       -15.1330
  44   2.0000      -0.525447       -14.2981
  45   2.0000      -0.523209       -14.2373
  46   2.0000      -0.517255       -14.0752
  47   2.0000      -0.514699       -14.0057
  48   2.0000      -0.504862       -13.7380
  49   2.0000      -0.498485       -13.5645
  50   2.0000      -0.494807       -13.4644
  51   2.0000      -0.486945       -13.2504
  52   2.0000      -0.470378       -12.7996
  53   2.0000      -0.464558       -12.6413
  54   2.0000      -0.462672       -12.5899
  55   2.0000      -0.454077       -12.3561
  56   2.0000      -0.446144       -12.1402
  57   2.0000      -0.435662       -11.8550
  58   2.0000      -0.433068       -11.7844
  59   2.0000      -0.426178       -11.5969
  60   2.0000      -0.420957       -11.4548
  61   2.0000      -0.418172       -11.3790
  62   2.0000      -0.390330       -10.6214
  63   2.0000      -0.356885        -9.7113
  64   2.0000      -0.335249        -9.1226
  65   2.0000      -0.325635        -8.8610
  66   2.0000      -0.288131        -7.8404
  67   0.0000       0.030102         0.8191
  68   0.0000       0.072543         1.9740
  69   0.0000       0.101806         2.7703
  70   0.0000       0.121344         3.3019
  71   0.0000       0.131863         3.5882

MULLIKEN ATOMIC CHARGES
-----------------------
   0 S :    0.102263
   1 C :   -0.126101
   2 C :   -0.081273
   3 C :    0.018305
   4 C :   -0.109157
   5 H :    0.015778
   6 C :    0.092876
   7 H :    0.008165
   8 H :   -0.002263
   9 C :   -0.092622
  10 H :    0.018160
  11 H :    0.020014
  12 C :   -0.018791
  13 H :    0.034488
  14 H :    0.034793
  15 H :    0.028725
  16 S :    0.102861
  17 C :   -0.078720
  18 C :   -0.018409
  19 C :   -0.051141
  20 C :   -0.140676
  21 H :    0.023932
  22 C :    0.044410
  23 H :    0.021774
  24 H :    0.031546
  25 C :   -0.143205
  26 H :    0.038006
  27 H :    0.044677
  28 C :   -0.016175
  29 H :    0.049712
  30 H :    0.021602
  31 H :    0.030879
  32 H :    0.052850
  33 H :    0.042718
Sum of atomic charges:   -0.0000000

LOEWDIN ATOMIC CHARGES
----------------------
   0 S :    0.387688
   1 C :   -0.203627
   2 C :   -0.059188
   3 C :   -0.059661
   4 C :   -0.171074
   5 H :    0.035099
   6 C :   -0.021269
   7 H :    0.025954
   8 H :    0.013455
   9 C :   -0.032298
  10 H :    0.017687
  11 H :    0.015189
  12 C :   -0.056157
  13 H :    0.029864
  14 H :    0.027439
  15 H :    0.017578
  16 S :    0.401892
  17 C :   -0.168671
  18 C :   -0.061582
  19 C :   -0.062258
  20 C :   -0.203427
  21 H :    0.034546
  22 C :   -0.038465
  23 H :    0.027968
  24 H :    0.028904
  25 C :   -0.058051
  26 H :    0.027019
  27 H :    0.030774
  28 C :   -0.058475
  29 H :    0.041349
  30 H :    0.013583
  31 H :    0.022876
  32 H :    0.032019
  33 H :    0.023320

  Mayer bond orders larger than 0.100000
B(  0-S ,  1-C ) :   1.1141 B(  0-S ,  4-C ) :   1.1384 B(  1-C ,  2-C ) :   1.6206
B(  1-C , 32-H ) :   0.9667 B(  2-C ,  3-C ) :   1.2116 B(  2-C ,  6-C ) :   1.0588
B(  3-C ,  4-C ) :   1.5886 B(  3-C ,  5-H ) :   1.0007 B(  4-C , 20-C ) :   1.0356
B(  6-C ,  7-H ) :   0.9384 B(  6-C ,  8-H ) :   0.9380 B(  6-C ,  9-C ) :   1.0337
B(  9-C , 10-H ) :   0.9599 B(  9-C , 11-H ) :   0.9656 B(  9-C , 12-C ) :   1.0640
B( 12-C , 13-H ) :   0.9760 B( 12-C , 14-H ) :   0.9777 B( 12-C , 15-H ) :   0.9758
B( 16-S , 17-C ) :   1.1260 B( 16-S , 20-C ) :   1.1350 B( 17-C , 18-C ) :   1.6419
B( 17-C , 33-H ) :   0.9695 B( 18-C , 19-C ) :   1.2333 B( 18-C , 21-H ) :   0.9867
B( 19-C , 20-C ) :   1.6225 B( 19-C , 22-C ) :   1.0391 B( 22-C , 23-H ) :   0.9462
B( 22-C , 24-H ) :   0.9345 B( 22-C , 25-C ) :   1.0403 B( 25-C , 26-H ) :   0.9580
B( 25-C , 27-H ) :   0.9579 B( 25-C , 28-C ) :   1.0702 B( 28-C , 29-H ) :   0.9724
B( 28-C , 30-H ) :   0.9778 B( 28-C , 31-H ) :   0.9738

Dispersion correction           -0.014139776
FINAL SINGLE POINT ENERGY     -1339.861385997415

DIPOLE MOMENT
-------------
                                X             Y             Z
Electronic contribution:    -21.56815      12.85162      13.82511
Nuclear contribution   :     22.12178     -12.98645     -14.07869
                        -----------------------------------------
Total Dipole Moment    :      0.55363      -0.13484      -0.25358
                        -----------------------------------------
Magnitude (a.u.)       :      0.62369
Magnitude (Debye)      :      1.58529

Rotational constants in cm-1:     0.017799     0.008383     0.006813
Rotational constants in MHz :   533.612889   251.307377   204.246277

                             ****ORCA TERMINATED NORMALLY****
TOTAL RUN TIME: 0 days 0 hours 0 minutes 27 seconds 949 msec
