                         Program Version 4.2.1 -  RELEASE  -
|  1> ! wB97X-D3 SP def2-SVP
|  2> %pal
|  3> nprocs 16
|  4> end
|  5>
|  6> * xyz 0 1
|  7> S 	 -67.6887 	 55.3125 	 133.087
|  8> C 	 -67.2143 	 55.4817 	 134.731
|  9> C 	 -67.3796 	 54.3572 	 135.51
| 10> C 	 -67.9754 	 53.336 	 134.717
| 11> C 	 -68.1829 	 53.6601 	 133.382
| 12> H 	 -68.3874 	 52.4053 	 135.069
| 13> C 	 -67.1388 	 54.272 	 137.004
| 14> H 	 -66.6783 	 55.1515 	 137.379
| 15> H 	 -66.4514 	 53.5124 	 137.225
| 16> C 	 -68.4613 	 53.9928 	 137.849
| 17> H 	 -69.3294 	 54.6358 	 137.494
| 18> H 	 -68.833 	 52.9794 	 137.738
| 19> C 	 -68.2854 	 54.0074 	 139.338
| 20> H 	 -69.2127 	 53.8845 	 139.928
| 21> H 	 -67.6212 	 53.2232 	 139.713
| 22> H 	 -67.9594 	 55.0018 	 139.697
| 23> S 	 -67.6217 	 51.7649 	 131.437
| 24> C 	 -69.005 	 50.784 	 130.827
| 25> C 	 -70.2024 	 51.0923 	 131.399
| 26> C 	 -70.0936 	 52.2037 	 132.309
| 27> C 	 -68.7878 	 52.6837 	 132.419
| 28> H 	 -71.1167 	 50.5917 	 131.048
| 29> C 	 -71.305 	 52.7488 	 133.051
| 30> H 	 -72.0507 	 52.4933 	 132.3
| 31> H 	 -71.1316 	 53.8039 	 133.139
| 32> C 	 -71.6279 	 52.1821 	 134.442
| 33> H 	 -72.617 	 52.4822 	 134.823
| 34> H 	 -70.8964 	 52.4682 	 135.233
| 35> C 	 -71.7834 	 50.6905 	 134.688
| 36> H 	 -72.4722 	 50.2609 	 133.892
| 37> H 	 -71.8475 	 50.3927 	 135.774
| 38> H 	 -70.781 	 50.2401 	 134.484
| 39> H 	 -66.7371 	 56.3693 	 135.071
| 40> H 	 -68.8486 	 49.9923 	 130.128
| 41> *
| 42>
| 43>                          ****END OF INPUT****

CARTESIAN COORDINATES (ANGSTROEM)
---------------------------------
  S    -67.688700   55.312500  133.087000
  C    -67.214300   55.481700  134.731000
  C    -67.379600   54.357200  135.510000
  C    -67.975400   53.336000  134.717000
  C    -68.182900   53.660100  133.382000
  H    -68.387400   52.405300  135.069000
  C    -67.138800   54.272000  137.004000
  H    -66.678300   55.151500  137.379000
  H    -66.451400   53.512400  137.225000
  C    -68.461300   53.992800  137.849000
  H    -69.329400   54.635800  137.494000
  H    -68.833000   52.979400  137.738000
  C    -68.285400   54.007400  139.338000
  H    -69.212700   53.884500  139.928000
  H    -67.621200   53.223200  139.713000
  H    -67.959400   55.001800  139.697000
  S    -67.621700   51.764900  131.437000
  C    -69.005000   50.784000  130.827000
  C    -70.202400   51.092300  131.399000
  C    -70.093600   52.203700  132.309000
  C    -68.787800   52.683700  132.419000
  H    -71.116700   50.591700  131.048000
  C    -71.305000   52.748800  133.051000
  H    -72.050700   52.493300  132.300000
  H    -71.131600   53.803900  133.139000
  C    -71.627900   52.182100  134.442000
  H    -72.617000   52.482200  134.823000
  H    -70.896400   52.468200  135.233000
  C    -71.783400   50.690500  134.688000
  H    -72.472200   50.260900  133.892000
  H    -71.847500   50.392700  135.774000
  H    -70.781000   50.240100  134.484000
  H    -66.737100   56.369300  135.071000
  H    -68.848600   49.992300  130.128000

 Total Charge           Charge          ....    0
 Multiplicity           Mult            ....    1
 Number of Electrons    NEL             ....  134
 Basis Dimension        Dim             ....  322

ORBITAL ENERGIES
----------------

  NO   OCC          E(Eh)            E(eV)
   0   2.0000     -88.969100     -2420.9723
   1   2.0000     -88.964125     -2420.8369
   2   2.0000     -10.329759      -281.0870
   3   2.0000     -10.328579      -281.0549
   4   2.0000     -10.318535      -280.7816
   5   2.0000     -10.310489      -280.5627
   6   2.0000     -10.306214      -280.4463
   7   2.0000     -10.301234      -280.3108
   8   2.0000     -10.297218      -280.2015
   9   2.0000     -10.293806      -280.1087
  10   2.0000     -10.293777      -280.1079
  11   2.0000     -10.293428      -280.0984
  12   2.0000     -10.292081      -280.0618
  13   2.0000     -10.288285      -279.9585
  14   2.0000     -10.285161      -279.8735
  15   2.0000     -10.281680      -279.7787
  16   2.0000      -8.084125      -219.9802
  17   2.0000      -8.077880      -219.8103
  18   2.0000      -6.042485      -164.4244
  19   2.0000      -6.038583      -164.3182
  20   2.0000      -6.036349      -164.2574
  21   2.0000      -6.035050      -164.2221
  22   2.0000      -6.032721      -164.1587
  23   2.0000      -6.028541      -164.0449
  24   2.0000      -1.003111       -27.2961
  25   2.0000      -0.980813       -26.6893
  26   2.0000      -0.908790       -24.7294
  27   2.0000      -0.905942       -24.6519
  28   2.0000      -0.867519       -23.6064
  29   2.0000      -0.853671       -23.2296
  30   2.0000      -0.848417       -23.0866
  31   2.0000      -0.816369       -22.2145
  32   2.0000      -0.784897       -21.3581
  33   2.0000      -0.771274       -20.9874
  34   2.0000      -0.704854       -19.1800
  35   2.0000      -0.696614       -18.9558
  36   2.0000      -0.682336       -18.5673
  37   2.0000      -0.661339       -17.9960
  38   2.0000      -0.648118       -17.6362
  39   2.0000      -0.616950       -16.7881
  40   2.0000      -0.583935       -15.8897
  41   2.0000      -0.571862       -15.5612
  42   2.0000      -0.566569       -15.4171
  43   2.0000      -0.558487       -15.1972
  44   2.0000      -0.544015       -14.8034
  45   2.0000      -0.523856       -14.2549
  46   2.0000      -0.519336       -14.1318
  47   2.0000      -0.510589       -13.8938
  48   2.0000      -0.505979       -13.7684
  49   2.0000      -0.490650       -13.3513
  50   2.0000      -0.487064       -13.2537
  51   2.0000      -0.479060       -13.0359
  52   2.0000      -0.471264       -12.8238
  53   2.0000      -0.464158       -12.6304
  54   2.0000      -0.459494       -12.5035
  55   2.0000      -0.452779       -12.3208
  56   2.0000      -0.444571       -12.0974
  57   2.0000      -0.434766       -11.8306
  58   2.0000      -0.433842       -11.8054
  59   2.0000      -0.427375       -11.6295
  60   2.0000      -0.417982       -11.3739
  61   2.0000      -0.415560       -11.3080
  62   2.0000      -0.397967       -10.8292
  63   2.0000      -0.340351        -9.2614
  64   2.0000      -0.331234        -9.0133
  65   2.0000      -0.318864        -8.6767
  66   2.0000      -0.310298        -8.4436
  67   0.0000       0.043831         1.1927
  68   0.0000       0.055897         1.5210
  69   0.0000       0.108059         2.9404
  70   0.0000       0.118363         3.2208
  71   0.0000       0.130054         3.5390

MULLIKEN ATOMIC CHARGES
-----------------------
   0 S :    0.128233
   1 C :   -0.124223
   2 C :   -0.064175
   3 C :    0.045049
   4 C :   -0.189645
   5 H :    0.007933
   6 C :    0.142576
   7 H :    0.003468
   8 H :    0.017424
   9 C :   -0.108864
  10 H :    0.048027
  11 H :    0.025966
  12 C :   -0.064246
  13 H :    0.033971
  14 H :    0.035737
  15 H :    0.023461
  16 S :    0.095310
  17 C :   -0.088642
  18 C :   -0.032309
  19 C :   -0.066553
  20 C :   -0.175953
  21 H :    0.032386
  22 C :    0.139264
  23 H :    0.022259
  24 H :    0.036831
  25 C :   -0.080261
  26 H :    0.030991
  27 H :    0.028903
  28 C :   -0.100116
  29 H :    0.040975
  30 H :    0.049718
  31 H :    0.023429
  32 H :    0.035175
  33 H :    0.047902
Sum of atomic charges:   -0.0000000

LOEWDIN ATOMIC CHARGES
----------------------
   0 S :    0.421709
   1 C :   -0.195641
   2 C :   -0.064567
   3 C :   -0.050623
   4 C :   -0.212304
   5 H :    0.027053
   6 C :   -0.017351
   7 H :    0.024800
   8 H :    0.026807
   9 C :   -0.047174
  10 H :    0.032884
  11 H :    0.022221
  12 C :   -0.074084
  13 H :    0.031567
  14 H :    0.026334
  15 H :    0.021243
  16 S :    0.370926
  17 C :   -0.156331
  18 C :   -0.076616
  19 C :   -0.054176
  20 C :   -0.189511
  21 H :    0.038965
  22 C :   -0.025117
  23 H :    0.034228
  24 H :    0.037621
  25 C :   -0.051565
  26 H :    0.026906
  27 H :    0.027588
  28 C :   -0.085256
  29 H :    0.028944
  30 H :    0.037893
  31 H :    0.021256
  32 H :    0.019686
  33 H :    0.021686

  Mayer bond orders larger than 0.100000
B(  0-S ,  1-C ) :   1.1626 B(  0-S ,  4-C ) :   1.1489 B(  1-C ,  2-C ) :   1.5988
B(  1-C , 32-H ) :   0.9663 B(  2-C ,  3-C ) :   1.2416 B(  2-C ,  6-C ) :   1.0399
B(  3-C ,  4-C ) :   1.5865 B(  3-C ,  5-H ) :   0.9924 B(  4-C , 20-C ) :   1.0019
B(  6-C ,  7-H ) :   0.9414 B(  6-C ,  8-H ) :   0.9276 B(  6-C ,  9-C ) :   1.0449
B(  9-C , 10-H ) :   0.9600 B(  9-C , 11-H ) :   0.9520 B(  9-C , 12-C ) :   1.0905
B( 12-C , 13-H ) :   0.9712 B( 12-C , 14-H ) :   0.9730 B( 12-C , 15-H ) :   0.9731
B( 16-S , 17-C ) :   1.1401 B( 16-S , 20-C ) :   1.1339 B( 17-C , 18-C ) :   1.6550
B( 17-C , 33-H ) :   0.9680 B( 18-C , 19-C ) :   1.2046 B( 18-C , 21-H ) :   0.9817
B( 19-C , 20-C ) :   1.6446 B( 19-C , 22-C ) :   1.0163 B( 22-C , 23-H ) :   0.9332
B( 22-C , 24-H ) :   0.9275 B( 22-C , 25-C ) :   1.0712 B( 25-C , 26-H ) :   0.9571
B( 25-C , 27-H ) :   0.9517 B( 25-C , 28-C ) :   1.0799 B( 28-C , 29-H ) :   0.9717
B( 28-C , 30-H ) :   0.9698 B( 28-C , 31-H ) :   0.9690

Dispersion correction           -0.015211001
FINAL SINGLE POINT ENERGY     -1339.870621176974

DIPOLE MOMENT
-------------
                                X             Y             Z
Electronic contribution:     13.94544       5.33856     -26.95393
Nuclear contribution   :    -14.25826      -5.52151      27.50605
                        -----------------------------------------
Total Dipole Moment    :     -0.31282      -0.18295       0.55212
                        -----------------------------------------
Magnitude (a.u.)       :      0.66043
Magnitude (Debye)      :      1.67868

Rotational constants in cm-1:     0.017764     0.009206     0.007041
Rotational constants in MHz :   532.545246   275.989253   211.076428

                             ****ORCA TERMINATED NORMALLY****
TOTAL RUN TIME: 0 days 0 hours 0 minutes 37 seconds 110 msec
