                         Program Version 4.2.1 -  RELEASE  -
|  1> ! wB97X-D3 SP def2-SVP
|  2> %pal
|  3> nprocs 16
|  4> end
|  5>
|  6> * xyz 0 1
|  7> S 	 7.14271 	 -25.7759 	 83.8338
|  8> C 	 5.5583 	 -25.1713 	 83.6989
|  9> C 	 5.44052 	 -24.3676 	 82.516
| 10> C 	 6.74165 	 -24.2025 	 81.8686
| 11> C 	 7.71445 	 -25.0165 	 82.3514
| 12> H 	 7.00421 	 -23.616 	 81.0015
| 13> C 	 4.22735 	 -23.6301 	 82.0596
| 14> H 	 3.35782 	 -24.3103 	 82.3809
| 15> H 	 4.2716 	 -23.5956 	 80.9487
| 16> C 	 4.09051 	 -22.2074 	 82.5563
| 17> H 	 4.09244 	 -22.2357 	 83.606
| 18> H 	 5.00222 	 -21.6467 	 82.2006
| 19> C 	 2.79033 	 -21.5032 	 82.0944
| 20> H 	 2.87876 	 -20.405 	 82.358
| 21> H 	 2.5532 	 -21.6611 	 81.0543
| 22> H 	 1.9128 	 -21.7624 	 82.6534
| 23> S 	 9.66032 	 -26.866 	 82.1301
| 24> C 	 11.0348 	 -26.6553 	 81.1401
| 25> C 	 11.017 	 -25.4464 	 80.507
| 26> C 	 9.82819 	 -24.6941 	 80.845
| 27> C 	 8.96207 	 -25.4039 	 81.6471
| 28> H 	 11.7764 	 -25.0124 	 79.8811
| 29> C 	 9.70451 	 -23.2475 	 80.3966
| 30> H 	 10.5619 	 -22.9137 	 80.8445
| 31> H 	 8.86157 	 -22.8226 	 80.8949
| 32> C 	 9.64235 	 -23.0315 	 78.9144
| 33> H 	 8.74388 	 -23.565 	 78.5334
| 34> H 	 10.4599 	 -23.5261 	 78.3267
| 35> C 	 9.66558 	 -21.5333 	 78.6619
| 36> H 	 10.7563 	 -21.2384 	 78.7941
| 37> H 	 8.94638 	 -20.8976 	 79.2056
| 38> H 	 9.43449 	 -21.3503 	 77.6146
| 39> H 	 4.65089 	 -25.1725 	 84.3044
| 40> H 	 11.9263 	 -27.279 	 81.1134
| 41> *
| 42>
| 43>                          ****END OF INPUT****

CARTESIAN COORDINATES (ANGSTROEM)
---------------------------------
  S      7.142710  -25.775900   83.833800
  C      5.558300  -25.171300   83.698900
  C      5.440520  -24.367600   82.516000
  C      6.741650  -24.202500   81.868600
  C      7.714450  -25.016500   82.351400
  H      7.004210  -23.616000   81.001500
  C      4.227350  -23.630100   82.059600
  H      3.357820  -24.310300   82.380900
  H      4.271600  -23.595600   80.948700
  C      4.090510  -22.207400   82.556300
  H      4.092440  -22.235700   83.606000
  H      5.002220  -21.646700   82.200600
  C      2.790330  -21.503200   82.094400
  H      2.878760  -20.405000   82.358000
  H      2.553200  -21.661100   81.054300
  H      1.912800  -21.762400   82.653400
  S      9.660320  -26.866000   82.130100
  C     11.034800  -26.655300   81.140100
  C     11.017000  -25.446400   80.507000
  C      9.828190  -24.694100   80.845000
  C      8.962070  -25.403900   81.647100
  H     11.776400  -25.012400   79.881100
  C      9.704510  -23.247500   80.396600
  H     10.561900  -22.913700   80.844500
  H      8.861570  -22.822600   80.894900
  C      9.642350  -23.031500   78.914400
  H      8.743880  -23.565000   78.533400
  H     10.459900  -23.526100   78.326700
  C      9.665580  -21.533300   78.661900
  H     10.756300  -21.238400   78.794100
  H      8.946380  -20.897600   79.205600
  H      9.434490  -21.350300   77.614600
  H      4.650890  -25.172500   84.304400
  H     11.926300  -27.279000   81.113400

 Total Charge           Charge          ....    0
 Multiplicity           Mult            ....    1
 Number of Electrons    NEL             ....  134
 Basis Dimension        Dim             ....  322

ORBITAL ENERGIES
----------------

  NO   OCC          E(Eh)            E(eV)
   0   2.0000     -88.969659     -2420.9875
   1   2.0000     -88.963129     -2420.8098
   2   2.0000     -10.329701      -281.0854
   3   2.0000     -10.323115      -280.9062
   4   2.0000     -10.316277      -280.7202
   5   2.0000     -10.312872      -280.6275
   6   2.0000     -10.304881      -280.4101
   7   2.0000     -10.297936      -280.2211
   8   2.0000     -10.296217      -280.1743
   9   2.0000     -10.292147      -280.0636
  10   2.0000     -10.291209      -280.0380
  11   2.0000     -10.291154      -280.0365
  12   2.0000     -10.288123      -279.9541
  13   2.0000     -10.285501      -279.8827
  14   2.0000     -10.281366      -279.7702
  15   2.0000     -10.280759      -279.7537
  16   2.0000      -8.084315      -219.9854
  17   2.0000      -8.079907      -219.8654
  18   2.0000      -6.042997      -164.4383
  19   2.0000      -6.038681      -164.3209
  20   2.0000      -6.038407      -164.3134
  21   2.0000      -6.035032      -164.2216
  22   2.0000      -6.034032      -164.1944
  23   2.0000      -6.030644      -164.1022
  24   2.0000      -1.015871       -27.6433
  25   2.0000      -0.989516       -26.9261
  26   2.0000      -0.921378       -25.0720
  27   2.0000      -0.913227       -24.8502
  28   2.0000      -0.871968       -23.7275
  29   2.0000      -0.856210       -23.2987
  30   2.0000      -0.845737       -23.0137
  31   2.0000      -0.820351       -22.3229
  32   2.0000      -0.780889       -21.2491
  33   2.0000      -0.770067       -20.9546
  34   2.0000      -0.706559       -19.2264
  35   2.0000      -0.701162       -19.0796
  36   2.0000      -0.695462       -18.9245
  37   2.0000      -0.668835       -18.1999
  38   2.0000      -0.637058       -17.3352
  39   2.0000      -0.619458       -16.8563
  40   2.0000      -0.598066       -16.2742
  41   2.0000      -0.577709       -15.7203
  42   2.0000      -0.572008       -15.5651
  43   2.0000      -0.557955       -15.1827
  44   2.0000      -0.531606       -14.4657
  45   2.0000      -0.524203       -14.2643
  46   2.0000      -0.520723       -14.1696
  47   2.0000      -0.512036       -13.9332
  48   2.0000      -0.507952       -13.8221
  49   2.0000      -0.500865       -13.6292
  50   2.0000      -0.493791       -13.4367
  51   2.0000      -0.485403       -13.2085
  52   2.0000      -0.474317       -12.9068
  53   2.0000      -0.467768       -12.7286
  54   2.0000      -0.459942       -12.5157
  55   2.0000      -0.453497       -12.3403
  56   2.0000      -0.441920       -12.0253
  57   2.0000      -0.439045       -11.9470
  58   2.0000      -0.436435       -11.8760
  59   2.0000      -0.422989       -11.5101
  60   2.0000      -0.420451       -11.4411
  61   2.0000      -0.418428       -11.3860
  62   2.0000      -0.408623       -11.1192
  63   2.0000      -0.364095        -9.9075
  64   2.0000      -0.331348        -9.0164
  65   2.0000      -0.322010        -8.7623
  66   2.0000      -0.284793        -7.7496
  67   0.0000       0.030128         0.8198
  68   0.0000       0.083294         2.2665
  69   0.0000       0.111739         3.0406
  70   0.0000       0.118550         3.2259
  71   0.0000       0.129521         3.5244

MULLIKEN ATOMIC CHARGES
-----------------------
   0 S :    0.120329
   1 C :   -0.080574
   2 C :   -0.135724
   3 C :    0.005753
   4 C :   -0.119098
   5 H :    0.006283
   6 C :    0.011834
   7 H :    0.035940
   8 H :    0.031368
   9 C :   -0.043863
  10 H :    0.013879
  11 H :    0.035738
  12 C :   -0.047621
  13 H :    0.040413
  14 H :    0.032778
  15 H :    0.024751
  16 S :    0.102074
  17 C :   -0.075238
  18 C :   -0.024716
  19 C :   -0.108699
  20 C :   -0.112814
  21 H :    0.011466
  22 C :    0.117759
  23 H :    0.009324
  24 H :    0.005779
  25 C :   -0.096544
  26 H :    0.031972
  27 H :    0.035356
  28 C :   -0.045838
  29 H :    0.042711
  30 H :    0.040794
  31 H :    0.028021
  32 H :    0.047607
  33 H :    0.058795
Sum of atomic charges:    0.0000000

LOEWDIN ATOMIC CHARGES
----------------------
   0 S :    0.420630
   1 C :   -0.227113
   2 C :   -0.060145
   3 C :   -0.071916
   4 C :   -0.187423
   5 H :    0.026736
   6 C :   -0.047164
   7 H :    0.037444
   8 H :    0.033190
   9 C :   -0.037937
  10 H :    0.017019
  11 H :    0.031307
  12 C :   -0.068844
  13 H :    0.036076
  14 H :    0.022282
  15 H :    0.022062
  16 S :    0.443572
  17 C :   -0.199737
  18 C :   -0.070398
  19 C :   -0.055882
  20 C :   -0.215882
  21 H :    0.028305
  22 C :   -0.024832
  23 H :    0.024018
  24 H :    0.024648
  25 C :   -0.046125
  26 H :    0.025953
  27 H :    0.029394
  28 C :   -0.069410
  29 H :    0.036344
  30 H :    0.027483
  31 H :    0.024076
  32 H :    0.038241
  33 H :    0.034025

  Mayer bond orders larger than 0.100000
B(  0-S ,  1-C ) :   1.1421 B(  0-S ,  4-C ) :   1.1343 B(  1-C ,  2-C ) :   1.5872
B(  1-C , 32-H ) :   0.9645 B(  2-C ,  3-C ) :   1.2430 B(  2-C ,  6-C ) :   1.0482
B(  3-C ,  4-C ) :   1.5873 B(  3-C ,  5-H ) :   0.9839 B(  4-C , 20-C ) :   1.0439
B(  6-C ,  7-H ) :   0.9385 B(  6-C ,  8-H ) :   0.9332 B(  6-C ,  9-C ) :   1.0695
B(  9-C , 10-H ) :   0.9529 B(  9-C , 11-H ) :   0.9535 B(  9-C , 12-C ) :   1.0777
B( 12-C , 13-H ) :   0.9734 B( 12-C , 14-H ) :   0.9765 B( 12-C , 15-H ) :   0.9750
B( 16-S , 17-C ) :   1.1693 B( 16-S , 20-C ) :   1.1386 B( 17-C , 18-C ) :   1.5860
B( 17-C , 33-H ) :   0.9664 B( 18-C , 19-C ) :   1.2697 B( 18-C , 21-H ) :   0.9913
B( 19-C , 20-C ) :   1.5888 B( 19-C , 22-C ) :   1.0119 B( 22-C , 23-H ) :   0.9254
B( 22-C , 24-H ) :   0.9328 B( 22-C , 25-C ) :   1.0665 B( 25-C , 26-H ) :   0.9529
B( 25-C , 27-H ) :   0.9533 B( 25-C , 28-C ) :   1.0778 B( 28-C , 29-H ) :   0.9745
B( 28-C , 30-H ) :   0.9743 B( 28-C , 31-H ) :   0.9729

Dispersion correction           -0.013543905
FINAL SINGLE POINT ENERGY     -1339.866773656817

DIPOLE MOMENT
-------------
                                X             Y             Z
Electronic contribution:     11.84001     -26.12852      14.51094
Nuclear contribution   :    -11.87843      26.75421     -14.88696
                        -----------------------------------------
Total Dipole Moment    :     -0.03842       0.62569      -0.37603
                        -----------------------------------------
Magnitude (a.u.)       :      0.73100
Magnitude (Debye)      :      1.85805

Rotational constants in cm-1:     0.017312     0.008832     0.006030
Rotational constants in MHz :   518.997580   264.767140   180.778453

                             ****ORCA TERMINATED NORMALLY****
TOTAL RUN TIME: 0 days 0 hours 0 minutes 31 seconds 429 msec
