                         Program Version 4.2.1 -  RELEASE  -
|  1> ! wB97X-D3 SP def2-SVP
|  2> %pal
|  3> nprocs 16
|  4> end
|  5>
|  6> * xyz 0 1
|  7> S 	 43.6719 	 11.5422 	 49.0776
|  8> C 	 43.7127 	 10.187 	 50.1846
|  9> C 	 44.2948 	 10.5377 	 51.3665
| 10> C 	 44.5845 	 11.9496 	 51.3852
| 11> C 	 44.2453 	 12.7073 	 50.2313
| 12> H 	 45.0379 	 12.3873 	 52.2842
| 13> C 	 44.5281 	 9.64093 	 52.6645
| 14> H 	 45.4656 	 9.99519 	 53.1185
| 15> H 	 44.6348 	 8.57863 	 52.3194
| 16> C 	 43.4353 	 9.82563 	 53.8104
| 17> H 	 43.3625 	 10.7416 	 54.2726
| 18> H 	 42.3952 	 9.73432 	 53.3387
| 19> C 	 43.4922 	 8.69439 	 54.8004
| 20> H 	 44.3826 	 8.5707 	 55.4115
| 21> H 	 42.6138 	 8.80384 	 55.4153
| 22> H 	 43.2576 	 7.77035 	 54.3513
| 23> S 	 45.3401 	 14.6768 	 48.7521
| 24> C 	 44.9993 	 16.3705 	 49.1977
| 25> C 	 44.1585 	 16.4465 	 50.2794
| 26> C 	 43.807 	 15.1522 	 50.8383
| 27> C 	 44.297 	 14.1223 	 50.0445
| 28> H 	 43.8357 	 17.3293 	 50.6884
| 29> C 	 42.7924 	 14.9862 	 51.9717
| 30> H 	 43.017 	 15.8166 	 52.6382
| 31> H 	 42.9919 	 14.2162 	 52.627
| 32> C 	 41.383 	 14.953 	 51.676
| 33> H 	 41.1003 	 15.9044 	 51.3119
| 34> H 	 40.8232 	 14.8783 	 52.5914
| 35> C 	 40.9007 	 13.9375 	 50.5649
| 36> H 	 41.293 	 14.2661 	 49.6928
| 37> H 	 39.8107 	 14.113 	 50.5404
| 38> H 	 41.1305 	 12.8277 	 50.7289
| 39> H 	 43.53 	 9.18026 	 49.9405
| 40> H 	 45.2352 	 17.2551 	 48.615
| 41> *
| 42>
| 43>                          ****END OF INPUT****

CARTESIAN COORDINATES (ANGSTROEM)
---------------------------------
  S     43.671900   11.542200   49.077600
  C     43.712700   10.187000   50.184600
  C     44.294800   10.537700   51.366500
  C     44.584500   11.949600   51.385200
  C     44.245300   12.707300   50.231300
  H     45.037900   12.387300   52.284200
  C     44.528100    9.640930   52.664500
  H     45.465600    9.995190   53.118500
  H     44.634800    8.578630   52.319400
  C     43.435300    9.825630   53.810400
  H     43.362500   10.741600   54.272600
  H     42.395200    9.734320   53.338700
  C     43.492200    8.694390   54.800400
  H     44.382600    8.570700   55.411500
  H     42.613800    8.803840   55.415300
  H     43.257600    7.770350   54.351300
  S     45.340100   14.676800   48.752100
  C     44.999300   16.370500   49.197700
  C     44.158500   16.446500   50.279400
  C     43.807000   15.152200   50.838300
  C     44.297000   14.122300   50.044500
  H     43.835700   17.329300   50.688400
  C     42.792400   14.986200   51.971700
  H     43.017000   15.816600   52.638200
  H     42.991900   14.216200   52.627000
  C     41.383000   14.953000   51.676000
  H     41.100300   15.904400   51.311900
  H     40.823200   14.878300   52.591400
  C     40.900700   13.937500   50.564900
  H     41.293000   14.266100   49.692800
  H     39.810700   14.113000   50.540400
  H     41.130500   12.827700   50.728900
  H     43.530000    9.180260   49.940500
  H     45.235200   17.255100   48.615000

 Total Charge           Charge          ....    0
 Multiplicity           Mult            ....    1
 Number of Electrons    NEL             ....  134
 Basis Dimension        Dim             ....  322

ORBITAL ENERGIES
----------------

  NO   OCC          E(Eh)            E(eV)
   0   2.0000     -88.966711     -2420.9073
   1   2.0000     -88.965462     -2420.8733
   2   2.0000     -10.330027      -281.0943
   3   2.0000     -10.326827      -281.0072
   4   2.0000     -10.320440      -280.8335
   5   2.0000     -10.310914      -280.5742
   6   2.0000     -10.309111      -280.5252
   7   2.0000     -10.306421      -280.4520
   8   2.0000     -10.302826      -280.3541
   9   2.0000     -10.296445      -280.1805
  10   2.0000     -10.292204      -280.0651
  11   2.0000     -10.290735      -280.0251
  12   2.0000     -10.277660      -279.6693
  13   2.0000     -10.273852      -279.5657
  14   2.0000     -10.272342      -279.5247
  15   2.0000     -10.269839      -279.4565
  16   2.0000      -8.081041      -219.8963
  17   2.0000      -8.080103      -219.8708
  18   2.0000      -6.039705      -164.3487
  19   2.0000      -6.038733      -164.3223
  20   2.0000      -6.035609      -164.2373
  21   2.0000      -6.034412      -164.2047
  22   2.0000      -6.031650      -164.1295
  23   2.0000      -6.030934      -164.1101
  24   2.0000      -1.005199       -27.3528
  25   2.0000      -0.981225       -26.7005
  26   2.0000      -0.916461       -24.9382
  27   2.0000      -0.904941       -24.6247
  28   2.0000      -0.876116       -23.8403
  29   2.0000      -0.844881       -22.9904
  30   2.0000      -0.842946       -22.9377
  31   2.0000      -0.810377       -22.0515
  32   2.0000      -0.786826       -21.4106
  33   2.0000      -0.777305       -21.1515
  34   2.0000      -0.712023       -19.3751
  35   2.0000      -0.703297       -19.1377
  36   2.0000      -0.692385       -18.8407
  37   2.0000      -0.666909       -18.1475
  38   2.0000      -0.637600       -17.3500
  39   2.0000      -0.617656       -16.8073
  40   2.0000      -0.600617       -16.3436
  41   2.0000      -0.568911       -15.4809
  42   2.0000      -0.561410       -15.2767
  43   2.0000      -0.552357       -15.0304
  44   2.0000      -0.547496       -14.8981
  45   2.0000      -0.524570       -14.2743
  46   2.0000      -0.513156       -13.9637
  47   2.0000      -0.507829       -13.8187
  48   2.0000      -0.503631       -13.7045
  49   2.0000      -0.500961       -13.6318
  50   2.0000      -0.493634       -13.4325
  51   2.0000      -0.480140       -13.0653
  52   2.0000      -0.472193       -12.8490
  53   2.0000      -0.465323       -12.6621
  54   2.0000      -0.462524       -12.5859
  55   2.0000      -0.450870       -12.2688
  56   2.0000      -0.448233       -12.1970
  57   2.0000      -0.436452       -11.8765
  58   2.0000      -0.431253       -11.7350
  59   2.0000      -0.419414       -11.4128
  60   2.0000      -0.415258       -11.2997
  61   2.0000      -0.411940       -11.2095
  62   2.0000      -0.404442       -11.0054
  63   2.0000      -0.344561        -9.3760
  64   2.0000      -0.332737        -9.0542
  65   2.0000      -0.326870        -8.8946
  66   2.0000      -0.297202        -8.0873
  67   0.0000       0.028528         0.7763
  68   0.0000       0.069153         1.8817
  69   0.0000       0.110223         2.9993
  70   0.0000       0.120844         3.2883
  71   0.0000       0.128373         3.4932

MULLIKEN ATOMIC CHARGES
-----------------------
   0 S :    0.110502
   1 C :   -0.110138
   2 C :   -0.086436
   3 C :    0.025265
   4 C :   -0.158780
   5 H :    0.012309
   6 C :    0.047768
   7 H :    0.035252
   8 H :    0.037542
   9 C :   -0.064246
  10 H :    0.015688
  11 H :    0.029905
  12 C :   -0.020403
  13 H :    0.038170
  14 H :    0.019634
  15 H :    0.011958
  16 S :    0.106948
  17 C :   -0.077467
  18 C :    0.000091
  19 C :   -0.059591
  20 C :   -0.155716
  21 H :   -0.015924
  22 C :    0.123863
  23 H :    0.003928
  24 H :   -0.009105
  25 C :   -0.030307
  26 H :   -0.004590
  27 H :    0.018078
  28 C :   -0.041109
  29 H :    0.019271
  30 H :    0.031297
  31 H :    0.056059
  32 H :    0.029627
  33 H :    0.060656
Sum of atomic charges:    0.0000000

LOEWDIN ATOMIC CHARGES
----------------------
   0 S :    0.416025
   1 C :   -0.193252
   2 C :   -0.068506
   3 C :   -0.062642
   4 C :   -0.211091
   5 H :    0.027387
   6 C :   -0.025083
   7 H :    0.031850
   8 H :    0.034674
   9 C :   -0.036293
  10 H :    0.011733
  11 H :    0.033925
  12 C :   -0.064879
  13 H :    0.023906
  14 H :    0.029004
  15 H :    0.019564
  16 S :    0.395243
  17 C :   -0.174242
  18 C :   -0.054023
  19 C :   -0.045012
  20 C :   -0.197255
  21 H :    0.016497
  22 C :   -0.035047
  23 H :    0.033753
  24 H :    0.019574
  25 C :   -0.034233
  26 H :    0.016019
  27 H :    0.023907
  28 C :   -0.056892
  29 H :    0.007664
  30 H :    0.029897
  31 H :    0.034227
  32 H :    0.020928
  33 H :    0.032672

  Mayer bond orders larger than 0.100000
B(  0-S ,  1-C ) :   1.1448 B(  0-S ,  4-C ) :   1.1504 B(  1-C ,  2-C ) :   1.6052
B(  1-C ,  4-C ) :   0.1021 B(  1-C , 32-H ) :   0.9721 B(  2-C ,  3-C ) :   1.2723
B(  2-C ,  6-C ) :   1.0132 B(  3-C ,  4-C ) :   1.5397 B(  3-C ,  5-H ) :   0.9905
B(  4-C , 20-C ) :   1.0490 B(  6-C ,  7-H ) :   0.9425 B(  6-C ,  8-H ) :   0.9511
B(  6-C ,  9-C ) :   1.0461 B(  9-C , 10-H ) :   0.9607 B(  9-C , 11-H ) :   0.9560
B(  9-C , 12-C ) :   1.0885 B( 12-C , 13-H ) :   0.9758 B( 12-C , 14-H ) :   0.9682
B( 12-C , 15-H ) :   0.9721 B( 16-S , 17-C ) :   1.1301 B( 16-S , 20-C ) :   1.1436
B( 17-C , 18-C ) :   1.6346 B( 17-C , 33-H ) :   0.9649 B( 18-C , 19-C ) :   1.2183
B( 18-C , 21-H ) :   0.9982 B( 19-C , 20-C ) :   1.6065 B( 19-C , 22-C ) :   1.0421
B( 22-C , 23-H ) :   0.9135 B( 22-C , 24-H ) :   0.9206 B( 22-C , 25-C ) :   1.1032
B( 25-C , 26-H ) :   0.9448 B( 25-C , 27-H ) :   0.9462 B( 25-C , 28-C ) :   1.0717
B( 28-C , 29-H ) :   0.9733 B( 28-C , 30-H ) :   0.9733 B( 28-C , 31-H ) :   0.9750

Dispersion correction           -0.015323149
FINAL SINGLE POINT ENERGY     -1339.852245180918

DIPOLE MOMENT
-------------
                                X             Y             Z
Electronic contribution:     13.35905       8.62469     -23.39488
Nuclear contribution   :    -13.61536      -8.59299      24.10790
                        -----------------------------------------
Total Dipole Moment    :     -0.25631       0.03170       0.71302
                        -----------------------------------------
Magnitude (a.u.)       :      0.75835
Magnitude (Debye)      :      1.92757

Rotational constants in cm-1:     0.021075     0.008337     0.007244
Rotational constants in MHz :   631.823486   249.923227   217.164521

                             ****ORCA TERMINATED NORMALLY****
TOTAL RUN TIME: 0 days 0 hours 0 minutes 36 seconds 851 msec
