                         Program Version 4.2.1 -  RELEASE  -
|  1> ! wB97X-D3 SP def2-SVP
|  2> %pal
|  3> nprocs 16
|  4> end
|  5>
|  6> * xyz 0 1
|  7> S 	 -13.6278 	 41.0023 	 33.2158
|  8> C 	 -14.9589 	 41.4846 	 34.2478
|  9> C 	 -15.2335 	 40.4686 	 35.1251
| 10> C 	 -14.4081 	 39.3006 	 35.0889
| 11> C 	 -13.4297 	 39.4718 	 34.1461
| 12> H 	 -14.3304 	 38.3964 	 35.7235
| 13> C 	 -16.2445 	 40.669 	 36.2058
| 14> H 	 -16.677 	 39.7277 	 36.546
| 15> H 	 -17.069 	 40.9852 	 35.6153
| 16> C 	 -15.9178 	 41.7424 	 37.2463
| 17> H 	 -15.8568 	 42.7319 	 36.7418
| 18> H 	 -16.6921 	 41.8527 	 37.9705
| 19> C 	 -14.6316 	 41.4465 	 38.1037
| 20> H 	 -14.7817 	 40.5887 	 38.7647
| 21> H 	 -13.7948 	 41.1674 	 37.498
| 22> H 	 -14.2854 	 42.3588 	 38.6491
| 23> S 	 -10.6435 	 39.2813 	 33.7288
| 24> C 	 -10.0264 	 37.7342 	 33.1214
| 25> C 	 -11.0707 	 36.8004 	 32.9113
| 26> C 	 -12.2318 	 37.2052 	 33.5197
| 27> C 	 -12.292 	 38.581 	 33.8099
| 28> H 	 -10.8786 	 35.8314 	 32.3777
| 29> C 	 -13.3503 	 36.1657 	 33.5315
| 30> H 	 -13.2392 	 35.4203 	 32.6761
| 31> H 	 -14.2276 	 36.7058 	 33.3151
| 32> C 	 -13.3784 	 35.484 	 34.918
| 33> H 	 -14.1783 	 34.7276 	 35.0026
| 34> H 	 -13.6389 	 36.2165 	 35.6765
| 35> C 	 -12.0914 	 34.6854 	 35.3461
| 36> H 	 -12.2273 	 34.2007 	 36.3373
| 37> H 	 -11.11 	 35.1668 	 35.3054
| 38> H 	 -11.9603 	 33.8508 	 34.5827
| 39> H 	 -15.5077 	 42.4988 	 34.2288
| 40> H 	 -8.99969 	 37.4873 	 32.9236
| 41> *
| 42>
| 43>                          ****END OF INPUT****

CARTESIAN COORDINATES (ANGSTROEM)
---------------------------------
  S    -13.627800   41.002300   33.215800
  C    -14.958900   41.484600   34.247800
  C    -15.233500   40.468600   35.125100
  C    -14.408100   39.300600   35.088900
  C    -13.429700   39.471800   34.146100
  H    -14.330400   38.396400   35.723500
  C    -16.244500   40.669000   36.205800
  H    -16.677000   39.727700   36.546000
  H    -17.069000   40.985200   35.615300
  C    -15.917800   41.742400   37.246300
  H    -15.856800   42.731900   36.741800
  H    -16.692100   41.852700   37.970500
  C    -14.631600   41.446500   38.103700
  H    -14.781700   40.588700   38.764700
  H    -13.794800   41.167400   37.498000
  H    -14.285400   42.358800   38.649100
  S    -10.643500   39.281300   33.728800
  C    -10.026400   37.734200   33.121400
  C    -11.070700   36.800400   32.911300
  C    -12.231800   37.205200   33.519700
  C    -12.292000   38.581000   33.809900
  H    -10.878600   35.831400   32.377700
  C    -13.350300   36.165700   33.531500
  H    -13.239200   35.420300   32.676100
  H    -14.227600   36.705800   33.315100
  C    -13.378400   35.484000   34.918000
  H    -14.178300   34.727600   35.002600
  H    -13.638900   36.216500   35.676500
  C    -12.091400   34.685400   35.346100
  H    -12.227300   34.200700   36.337300
  H    -11.110000   35.166800   35.305400
  H    -11.960300   33.850800   34.582700
  H    -15.507700   42.498800   34.228800
  H     -8.999690   37.487300   32.923600

 Total Charge           Charge          ....    0
 Multiplicity           Mult            ....    1
 Number of Electrons    NEL             ....  134
 Basis Dimension        Dim             ....  322

ORBITAL ENERGIES
----------------

  NO   OCC          E(Eh)            E(eV)
   0   2.0000     -88.971768     -2421.0449
   1   2.0000     -88.964877     -2420.8574
   2   2.0000     -10.335006      -281.2298
   3   2.0000     -10.333461      -281.1878
   4   2.0000     -10.321895      -280.8731
   5   2.0000     -10.317383      -280.7503
   6   2.0000     -10.302719      -280.3512
   7   2.0000     -10.298422      -280.2343
   8   2.0000     -10.297790      -280.2171
   9   2.0000     -10.296731      -280.1883
  10   2.0000     -10.296209      -280.1741
  11   2.0000     -10.295619      -280.1580
  12   2.0000     -10.289039      -279.9790
  13   2.0000     -10.286807      -279.9183
  14   2.0000     -10.281731      -279.7801
  15   2.0000     -10.275188      -279.6021
  16   2.0000      -8.084977      -220.0034
  17   2.0000      -8.078819      -219.8358
  18   2.0000      -6.043494      -164.4518
  19   2.0000      -6.039681      -164.3481
  20   2.0000      -6.037477      -164.2881
  21   2.0000      -6.035830      -164.2433
  22   2.0000      -6.033461      -164.1788
  23   2.0000      -6.029433      -164.0692
  24   2.0000      -1.001944       -27.2643
  25   2.0000      -0.982865       -26.7451
  26   2.0000      -0.908621       -24.7248
  27   2.0000      -0.904767       -24.6200
  28   2.0000      -0.862094       -23.4588
  29   2.0000      -0.847533       -23.0626
  30   2.0000      -0.841980       -22.9114
  31   2.0000      -0.813422       -22.1343
  32   2.0000      -0.782791       -21.3008
  33   2.0000      -0.766925       -20.8691
  34   2.0000      -0.706253       -19.2181
  35   2.0000      -0.704102       -19.1596
  36   2.0000      -0.690061       -18.7775
  37   2.0000      -0.661553       -18.0018
  38   2.0000      -0.637486       -17.3469
  39   2.0000      -0.607931       -16.5426
  40   2.0000      -0.588938       -16.0258
  41   2.0000      -0.570705       -15.5297
  42   2.0000      -0.553128       -15.0514
  43   2.0000      -0.549340       -14.9483
  44   2.0000      -0.545494       -14.8436
  45   2.0000      -0.536355       -14.5950
  46   2.0000      -0.515353       -14.0235
  47   2.0000      -0.508489       -13.8367
  48   2.0000      -0.496208       -13.5025
  49   2.0000      -0.487938       -13.2775
  50   2.0000      -0.479990       -13.0612
  51   2.0000      -0.478860       -13.0304
  52   2.0000      -0.470568       -12.8048
  53   2.0000      -0.466909       -12.7052
  54   2.0000      -0.455103       -12.3840
  55   2.0000      -0.446877       -12.1601
  56   2.0000      -0.441201       -12.0057
  57   2.0000      -0.439544       -11.9606
  58   2.0000      -0.434076       -11.8118
  59   2.0000      -0.420054       -11.4302
  60   2.0000      -0.417376       -11.3574
  61   2.0000      -0.415480       -11.3058
  62   2.0000      -0.409456       -11.1419
  63   2.0000      -0.348187        -9.4747
  64   2.0000      -0.336631        -9.1602
  65   2.0000      -0.327784        -8.9195
  66   2.0000      -0.285386        -7.7657
  67   0.0000       0.023736         0.6459
  68   0.0000       0.063634         1.7316
  69   0.0000       0.112266         3.0549
  70   0.0000       0.116491         3.1699
  71   0.0000       0.122775         3.3409

MULLIKEN ATOMIC CHARGES
-----------------------
   0 S :    0.100173
   1 C :   -0.156583
   2 C :   -0.104431
   3 C :    0.032578
   4 C :   -0.152000
   5 H :    0.026462
   6 C :    0.080095
   7 H :    0.011043
   8 H :    0.012319
   9 C :   -0.036488
  10 H :    0.025443
  11 H :    0.023580
  12 C :   -0.070473
  13 H :    0.031368
  14 H :    0.033267
  15 H :    0.041396
  16 S :    0.119408
  17 C :   -0.099053
  18 C :   -0.061562
  19 C :   -0.033338
  20 C :   -0.165903
  21 H :    0.045995
  22 C :    0.078257
  23 H :    0.039386
  24 H :    0.019970
  25 C :   -0.064949
  26 H :    0.032526
  27 H :    0.027460
  28 C :   -0.096961
  29 H :    0.046296
  30 H :    0.050840
  31 H :    0.025306
  32 H :    0.084295
  33 H :    0.054283
Sum of atomic charges:    0.0000000

LOEWDIN ATOMIC CHARGES
----------------------
   0 S :    0.379653
   1 C :   -0.214866
   2 C :   -0.066205
   3 C :   -0.072221
   4 C :   -0.165903
   5 H :    0.042242
   6 C :   -0.043298
   7 H :    0.028115
   8 H :    0.031590
   9 C :   -0.032974
  10 H :    0.025466
  11 H :    0.020435
  12 C :   -0.070009
  13 H :    0.024822
  14 H :    0.021062
  15 H :    0.031875
  16 S :    0.394412
  17 C :   -0.178803
  18 C :   -0.073385
  19 C :   -0.053551
  20 C :   -0.197698
  21 H :    0.042913
  22 C :   -0.024902
  23 H :    0.037586
  24 H :    0.024271
  25 C :   -0.039069
  26 H :    0.027069
  27 H :    0.018508
  28 C :   -0.077490
  29 H :    0.031424
  30 H :    0.024615
  31 H :    0.027341
  32 H :    0.051556
  33 H :    0.025421

  Mayer bond orders larger than 0.100000
B(  0-S ,  1-C ) :   1.1101 B(  0-S ,  4-C ) :   1.1495 B(  1-C ,  2-C ) :   1.6345
B(  1-C , 32-H ) :   0.9583 B(  2-C ,  3-C ) :   1.1974 B(  2-C ,  6-C ) :   1.0157
B(  3-C ,  4-C ) :   1.5964 B(  3-C ,  5-H ) :   0.9923 B(  4-C , 20-C ) :   1.0365
B(  6-C ,  7-H ) :   0.9420 B(  6-C ,  8-H ) :   0.9256 B(  6-C ,  9-C ) :   1.0756
B(  9-C , 10-H ) :   0.9544 B(  9-C , 11-H ) :   0.9559 B(  9-C , 12-C ) :   1.0668
B( 12-C , 13-H ) :   0.9764 B( 12-C , 14-H ) :   0.9786 B( 12-C , 15-H ) :   0.9755
B( 16-S , 17-C ) :   1.1675 B( 16-S , 20-C ) :   1.1408 B( 17-C , 18-C ) :   1.5625
B( 17-C , 20-C ) :   0.1240 B( 17-C , 33-H ) :   0.9694 B( 18-C , 19-C ) :   1.2896
B( 18-C , 21-H ) :   0.9804 B( 19-C , 20-C ) :   1.5471 B( 19-C , 22-C ) :   1.0231
B( 22-C , 23-H ) :   0.9502 B( 22-C , 24-H ) :   0.9311 B( 22-C , 25-C ) :   1.0628
B( 25-C , 26-H ) :   0.9552 B( 25-C , 27-H ) :   0.9554 B( 25-C , 28-C ) :   1.0661
B( 28-C , 29-H ) :   0.9746 B( 28-C , 30-H ) :   0.9739 B( 28-C , 31-H ) :   0.9754

Dispersion correction           -0.015158622
FINAL SINGLE POINT ENERGY     -1339.859528655707

DIPOLE MOMENT
-------------
                                X             Y             Z
Electronic contribution:     11.09146      11.21485     -17.24411
Nuclear contribution   :    -11.36269     -11.66295      17.48106
                        -----------------------------------------
Total Dipole Moment    :     -0.27123      -0.44810       0.23695
                        -----------------------------------------
Magnitude (a.u.)       :      0.57490
Magnitude (Debye)      :      1.46127

Rotational constants in cm-1:     0.020403     0.008498     0.007130
Rotational constants in MHz :   611.673387   254.763724   213.755453

                             ****ORCA TERMINATED NORMALLY****
TOTAL RUN TIME: 0 days 0 hours 0 minutes 34 seconds 909 msec
