                         Program Version 4.2.1 -  RELEASE  -
|  1> ! wB97X-D3 SP def2-SVP
|  2> %pal
|  3> nprocs 16
|  4> end
|  5>
|  6> * xyz 0 1
|  7> S 	 12.0359 	 19.3827 	 39.6165
|  8> C 	 12.6741 	 20.3119 	 38.3129
|  9> C 	 11.6852 	 20.5544 	 37.3574
| 10> C 	 10.4282 	 19.9252 	 37.6306
| 11> C 	 10.4698 	 19.2844 	 38.8398
| 12> H 	 9.52496 	 19.9379 	 37.0975
| 13> C 	 11.8893 	 21.3479 	 36.0784
| 14> H 	 12.4145 	 20.8281 	 35.2937
| 15> H 	 12.6282 	 22.0237 	 36.3143
| 16> C 	 10.6457 	 22.1098 	 35.5021
| 17> H 	 10.8322 	 22.496 	 34.5354
| 18> H 	 9.74199 	 21.5151 	 35.5062
| 19> C 	 10.1655 	 23.2465 	 36.4291
| 20> H 	 11.0607 	 23.7155 	 36.9345
| 21> H 	 9.64186 	 23.9555 	 35.7962
| 22> H 	 9.52205 	 22.78 	 37.1249
| 23> S 	 9.67877 	 16.9632 	 40.1357
| 24> C 	 7.96581 	 16.7191 	 40.2693
| 25> C 	 7.2021 	 17.7978 	 40.0003
| 26> C 	 7.9899 	 18.9255 	 39.6163
| 27> C 	 9.35511 	 18.5681 	 39.4999
| 28> H 	 6.07002 	 17.7205 	 40.0108
| 29> C 	 7.26897 	 20.1654 	 39.2641
| 30> H 	 7.98098 	 20.9472 	 39.0591
| 31> H 	 6.59791 	 20.6002 	 40.0422
| 32> C 	 6.56384 	 20.0779 	 37.8724
| 33> H 	 5.53896 	 19.7213 	 38.1064
| 34> H 	 6.97377 	 19.2345 	 37.3541
| 35> C 	 6.78599 	 21.3399 	 36.9881
| 36> H 	 6.12891 	 21.2901 	 36.1949
| 37> H 	 7.78496 	 21.3798 	 36.7032
| 38> H 	 6.53451 	 22.2027 	 37.587
| 39> H 	 13.6446 	 20.8816 	 38.3415
| 40> H 	 7.51549 	 15.8934 	 40.8233
| 41> *
| 42>
| 43>                          ****END OF INPUT****

CARTESIAN COORDINATES (ANGSTROEM)
---------------------------------
  S     12.035900   19.382700   39.616500
  C     12.674100   20.311900   38.312900
  C     11.685200   20.554400   37.357400
  C     10.428200   19.925200   37.630600
  C     10.469800   19.284400   38.839800
  H      9.524960   19.937900   37.097500
  C     11.889300   21.347900   36.078400
  H     12.414500   20.828100   35.293700
  H     12.628200   22.023700   36.314300
  C     10.645700   22.109800   35.502100
  H     10.832200   22.496000   34.535400
  H      9.741990   21.515100   35.506200
  C     10.165500   23.246500   36.429100
  H     11.060700   23.715500   36.934500
  H      9.641860   23.955500   35.796200
  H      9.522050   22.780000   37.124900
  S      9.678770   16.963200   40.135700
  C      7.965810   16.719100   40.269300
  C      7.202100   17.797800   40.000300
  C      7.989900   18.925500   39.616300
  C      9.355110   18.568100   39.499900
  H      6.070020   17.720500   40.010800
  C      7.268970   20.165400   39.264100
  H      7.980980   20.947200   39.059100
  H      6.597910   20.600200   40.042200
  C      6.563840   20.077900   37.872400
  H      5.538960   19.721300   38.106400
  H      6.973770   19.234500   37.354100
  C      6.785990   21.339900   36.988100
  H      6.128910   21.290100   36.194900
  H      7.784960   21.379800   36.703200
  H      6.534510   22.202700   37.587000
  H     13.644600   20.881600   38.341500
  H      7.515490   15.893400   40.823300

 Total Charge           Charge          ....    0
 Multiplicity           Mult            ....    1
 Number of Electrons    NEL             ....  134
 Basis Dimension        Dim             ....  322

ORBITAL ENERGIES
----------------

  NO   OCC          E(Eh)            E(eV)
   0   2.0000     -88.967293     -2420.9231
   1   2.0000     -88.966999     -2420.9151
   2   2.0000     -10.330356      -281.1033
   3   2.0000     -10.329534      -281.0809
   4   2.0000     -10.316791      -280.7342
   5   2.0000     -10.310934      -280.5748
   6   2.0000     -10.305008      -280.4135
   7   2.0000     -10.304618      -280.4029
   8   2.0000     -10.293478      -280.0998
   9   2.0000     -10.291125      -280.0358
  10   2.0000     -10.289149      -279.9820
  11   2.0000     -10.288409      -279.9618
  12   2.0000     -10.284715      -279.8613
  13   2.0000     -10.284259      -279.8489
  14   2.0000     -10.275887      -279.6211
  15   2.0000     -10.275312      -279.6055
  16   2.0000      -8.082485      -219.9356
  17   2.0000      -8.082018      -219.9229
  18   2.0000      -6.040966      -164.3830
  19   2.0000      -6.040463      -164.3694
  20   2.0000      -6.036899      -164.2724
  21   2.0000      -6.036690      -164.2667
  22   2.0000      -6.033281      -164.1739
  23   2.0000      -6.032634      -164.1563
  24   2.0000      -1.008477       -27.4420
  25   2.0000      -0.987472       -26.8705
  26   2.0000      -0.914124       -24.8746
  27   2.0000      -0.910065       -24.7641
  28   2.0000      -0.868877       -23.6434
  29   2.0000      -0.856190       -23.2981
  30   2.0000      -0.848626       -23.0923
  31   2.0000      -0.820764       -22.3341
  32   2.0000      -0.785838       -21.3837
  33   2.0000      -0.771147       -20.9840
  34   2.0000      -0.710331       -19.3291
  35   2.0000      -0.700963       -19.0742
  36   2.0000      -0.688017       -18.7219
  37   2.0000      -0.656859       -17.8740
  38   2.0000      -0.642501       -17.4833
  39   2.0000      -0.629733       -17.1359
  40   2.0000      -0.603876       -16.4323
  41   2.0000      -0.568995       -15.4831
  42   2.0000      -0.565593       -15.3906
  43   2.0000      -0.549918       -14.9640
  44   2.0000      -0.544265       -14.8102
  45   2.0000      -0.527195       -14.3457
  46   2.0000      -0.517312       -14.0768
  47   2.0000      -0.514027       -13.9874
  48   2.0000      -0.512111       -13.9352
  49   2.0000      -0.495040       -13.4707
  50   2.0000      -0.492128       -13.3915
  51   2.0000      -0.487417       -13.2633
  52   2.0000      -0.474922       -12.9233
  53   2.0000      -0.467395       -12.7185
  54   2.0000      -0.456261       -12.4155
  55   2.0000      -0.452161       -12.3039
  56   2.0000      -0.443653       -12.0724
  57   2.0000      -0.439612       -11.9625
  58   2.0000      -0.434625       -11.8268
  59   2.0000      -0.426447       -11.6042
  60   2.0000      -0.424082       -11.5399
  61   2.0000      -0.416866       -11.3435
  62   2.0000      -0.415004       -11.2928
  63   2.0000      -0.350497        -9.5375
  64   2.0000      -0.333364        -9.0713
  65   2.0000      -0.328175        -8.9301
  66   2.0000      -0.288837        -7.8597
  67   0.0000       0.029240         0.7957
  68   0.0000       0.071768         1.9529
  69   0.0000       0.105758         2.8778
  70   0.0000       0.122784         3.3411
  71   0.0000       0.124685         3.3929

MULLIKEN ATOMIC CHARGES
-----------------------
   0 S :    0.114512
   1 C :   -0.135015
   2 C :   -0.103137
   3 C :    0.049925
   4 C :   -0.136158
   5 H :   -0.028644
   6 C :    0.120905
   7 H :    0.034663
   8 H :   -0.016424
   9 C :   -0.081303
  10 H :    0.021782
  11 H :    0.024936
  12 C :   -0.052889
  13 H :    0.038359
  14 H :    0.035813
  15 H :    0.029826
  16 S :    0.113039
  17 C :   -0.082559
  18 C :   -0.065057
  19 C :   -0.039930
  20 C :   -0.155239
  21 H :    0.046124
  22 C :    0.056506
  23 H :    0.002424
  24 H :    0.050643
  25 C :   -0.122396
  26 H :    0.030154
  27 H :    0.033152
  28 C :    0.039273
  29 H :    0.023938
  30 H :   -0.009918
  31 H :    0.032966
  32 H :    0.072418
  33 H :    0.057312
Sum of atomic charges:   -0.0000000

LOEWDIN ATOMIC CHARGES
----------------------
   0 S :    0.415554
   1 C :   -0.222504
   2 C :   -0.055834
   3 C :   -0.062636
   4 C :   -0.181621
   5 H :    0.022743
   6 C :   -0.030324
   7 H :    0.034163
   8 H :    0.017866
   9 C :   -0.033744
  10 H :    0.018455
  11 H :    0.017689
  12 C :   -0.058475
  13 H :    0.029464
  14 H :    0.026690
  15 H :    0.013221
  16 S :    0.405953
  17 C :   -0.192155
  18 C :   -0.077732
  19 C :   -0.052827
  20 C :   -0.198824
  21 H :    0.045402
  22 C :   -0.041644
  23 H :    0.023644
  24 H :    0.039488
  25 C :   -0.037266
  26 H :    0.023571
  27 H :    0.018754
  28 C :   -0.042113
  29 H :    0.020682
  30 H :    0.012037
  31 H :    0.028622
  32 H :    0.042830
  33 H :    0.030869

  Mayer bond orders larger than 0.100000
B(  0-S ,  1-C ) :   1.1357 B(  0-S ,  4-C ) :   1.1676 B(  1-C ,  2-C ) :   1.6153
B(  1-C , 32-H ) :   0.9589 B(  2-C ,  3-C ) :   1.2226 B(  2-C ,  6-C ) :   1.0097
B(  3-C ,  4-C ) :   1.5825 B(  3-C ,  5-H ) :   1.0051 B(  4-C , 20-C ) :   1.0148
B(  6-C ,  7-H ) :   0.9352 B(  6-C ,  8-H ) :   0.9275 B(  6-C ,  9-C ) :   1.0774
B(  9-C , 10-H ) :   0.9552 B(  9-C , 11-H ) :   0.9616 B(  9-C , 12-C ) :   1.0645
B( 12-C , 13-H ) :   0.9767 B( 12-C , 14-H ) :   0.9770 B( 12-C , 15-H ) :   0.9760
B( 16-S , 17-C ) :   1.1462 B( 16-S , 20-C ) :   1.1415 B( 17-C , 18-C ) :   1.6521
B( 17-C , 33-H ) :   0.9561 B( 18-C , 19-C ) :   1.2199 B( 18-C , 21-H ) :   0.9787
B( 19-C , 20-C ) :   1.5834 B( 19-C , 22-C ) :   1.0769 B( 22-C , 23-H ) :   0.9330
B( 22-C , 24-H ) :   0.9341 B( 22-C , 25-C ) :   1.0266 B( 25-C , 26-H ) :   0.9543
B( 25-C , 27-H ) :   0.9608 B( 25-C , 28-C ) :   1.0825 B( 28-C , 29-H ) :   0.9667
B( 28-C , 30-H ) :   0.9676 B( 28-C , 31-H ) :   0.9745

Dispersion correction           -0.016411368
FINAL SINGLE POINT ENERGY     -1339.857942290823

DIPOLE MOMENT
-------------
                                X             Y             Z
Electronic contribution:     13.39546     -22.12772      18.86268
Nuclear contribution   :    -13.84134      22.58165     -19.26049
                        -----------------------------------------
Total Dipole Moment    :     -0.44588       0.45392      -0.39781
                        -----------------------------------------
Magnitude (a.u.)       :      0.75040
Magnitude (Debye)      :      1.90738

Rotational constants in cm-1:     0.017968     0.011117     0.007351
Rotational constants in MHz :   538.658010   333.269189   220.378715

                             ****ORCA TERMINATED NORMALLY****
TOTAL RUN TIME: 0 days 0 hours 0 minutes 38 seconds 636 msec
