                         Program Version 4.2.1 -  RELEASE  -
|  1> ! wB97X-D3 SP def2-SVP
|  2> %pal
|  3> nprocs 16
|  4> end
|  5>
|  6> * xyz 0 1
|  7> S 	 -4.30671 	 -17.2318 	 91.3904
|  8> C 	 -5.99082 	 -17.2026 	 91.9275
|  9> C 	 -6.87375 	 -16.4968 	 91.1137
| 10> C 	 -6.14189 	 -15.9615 	 89.9798
| 11> C 	 -4.81557 	 -16.2793 	 89.961
| 12> H 	 -6.60341 	 -15.4238 	 89.089
| 13> C 	 -8.35899 	 -16.4818 	 91.3188
| 14> H 	 -8.75686 	 -16.3879 	 90.2573
| 15> H 	 -8.7007 	 -15.5833 	 91.9727
| 16> C 	 -9.11059 	 -17.6992 	 91.9568
| 17> H 	 -8.8199 	 -18.6943 	 91.5417
| 18> H 	 -8.85169 	 -17.6231 	 93.0842
| 19> C 	 -10.6764 	 -17.4941 	 91.7497
| 20> H 	 -11.2009 	 -18.0537 	 92.5154
| 21> H 	 -10.8661 	 -16.4464 	 91.9507
| 22> H 	 -11.0753 	 -17.7989 	 90.816
| 23> S 	 -2.56796 	 -14.7735 	 89.7226
| 24> C 	 -2.0402 	 -14.3646 	 88.1176
| 25> C 	 -2.80169 	 -14.985 	 87.124
| 26> C 	 -3.82945 	 -15.8235 	 87.6999
| 27> C 	 -3.82281 	 -15.7641 	 89.0929
| 28> H 	 -2.67798 	 -14.7222 	 86.0965
| 29> C 	 -4.8406 	 -16.5848 	 86.8017
| 30> H 	 -5.42041 	 -17.352 	 87.3865
| 31> H 	 -4.31086 	 -17.2273 	 86.0978
| 32> C 	 -5.81062 	 -15.7219 	 85.9255
| 33> H 	 -6.03305 	 -14.8718 	 86.5405
| 34> H 	 -6.67075 	 -16.3467 	 85.7564
| 35> C 	 -5.28805 	 -15.2543 	 84.5469
| 36> H 	 -4.81932 	 -16.2154 	 84.177
| 37> H 	 -4.55004 	 -14.4896 	 84.5428
| 38> H 	 -6.03348 	 -14.8483 	 83.8883
| 39> H 	 -6.32714 	 -17.5684 	 92.9052
| 40> H 	 -1.25457 	 -13.702 	 87.8323
| 41> *
| 42>
| 43>                          ****END OF INPUT****

CARTESIAN COORDINATES (ANGSTROEM)
---------------------------------
  S     -4.306710  -17.231800   91.390400
  C     -5.990820  -17.202600   91.927500
  C     -6.873750  -16.496800   91.113700
  C     -6.141890  -15.961500   89.979800
  C     -4.815570  -16.279300   89.961000
  H     -6.603410  -15.423800   89.089000
  C     -8.358990  -16.481800   91.318800
  H     -8.756860  -16.387900   90.257300
  H     -8.700700  -15.583300   91.972700
  C     -9.110590  -17.699200   91.956800
  H     -8.819900  -18.694300   91.541700
  H     -8.851690  -17.623100   93.084200
  C    -10.676400  -17.494100   91.749700
  H    -11.200900  -18.053700   92.515400
  H    -10.866100  -16.446400   91.950700
  H    -11.075300  -17.798900   90.816000
  S     -2.567960  -14.773500   89.722600
  C     -2.040200  -14.364600   88.117600
  C     -2.801690  -14.985000   87.124000
  C     -3.829450  -15.823500   87.699900
  C     -3.822810  -15.764100   89.092900
  H     -2.677980  -14.722200   86.096500
  C     -4.840600  -16.584800   86.801700
  H     -5.420410  -17.352000   87.386500
  H     -4.310860  -17.227300   86.097800
  C     -5.810620  -15.721900   85.925500
  H     -6.033050  -14.871800   86.540500
  H     -6.670750  -16.346700   85.756400
  C     -5.288050  -15.254300   84.546900
  H     -4.819320  -16.215400   84.177000
  H     -4.550040  -14.489600   84.542800
  H     -6.033480  -14.848300   83.888300
  H     -6.327140  -17.568400   92.905200
  H     -1.254570  -13.702000   87.832300

 Total Charge           Charge          ....    0
 Multiplicity           Mult            ....    1
 Number of Electrons    NEL             ....  134
 Basis Dimension        Dim             ....  322

ORBITAL ENERGIES
----------------

  NO   OCC          E(Eh)            E(eV)
   0   2.0000     -88.968887     -2420.9665
   1   2.0000     -88.966158     -2420.8922
   2   2.0000     -10.324747      -280.9507
   3   2.0000     -10.318936      -280.7925
   4   2.0000     -10.315235      -280.6918
   5   2.0000     -10.314897      -280.6826
   6   2.0000     -10.307114      -280.4708
   7   2.0000     -10.305595      -280.4295
   8   2.0000     -10.305350      -280.4228
   9   2.0000     -10.303753      -280.3794
  10   2.0000     -10.301063      -280.3062
  11   2.0000     -10.297014      -280.1960
  12   2.0000     -10.293627      -280.1038
  13   2.0000     -10.287326      -279.9324
  14   2.0000     -10.281281      -279.7679
  15   2.0000     -10.280524      -279.7473
  16   2.0000      -8.084103      -219.9796
  17   2.0000      -8.080106      -219.8709
  18   2.0000      -6.042548      -164.4261
  19   2.0000      -6.038596      -164.3186
  20   2.0000      -6.038522      -164.3165
  21   2.0000      -6.034941      -164.2191
  22   2.0000      -6.034916      -164.2184
  23   2.0000      -6.030730      -164.1045
  24   2.0000      -1.007176       -27.4066
  25   2.0000      -0.978056       -26.6143
  26   2.0000      -0.904851       -24.6223
  27   2.0000      -0.903572       -24.5875
  28   2.0000      -0.868428       -23.6311
  29   2.0000      -0.850457       -23.1421
  30   2.0000      -0.843987       -22.9661
  31   2.0000      -0.811800       -22.0902
  32   2.0000      -0.783395       -21.3173
  33   2.0000      -0.767063       -20.8728
  34   2.0000      -0.706335       -19.2204
  35   2.0000      -0.701432       -19.0869
  36   2.0000      -0.690881       -18.7998
  37   2.0000      -0.662608       -18.0305
  38   2.0000      -0.632596       -17.2138
  39   2.0000      -0.609482       -16.5848
  40   2.0000      -0.598459       -16.2849
  41   2.0000      -0.567919       -15.4539
  42   2.0000      -0.562354       -15.3024
  43   2.0000      -0.550557       -14.9814
  44   2.0000      -0.543198       -14.7812
  45   2.0000      -0.521696       -14.1961
  46   2.0000      -0.515292       -14.0218
  47   2.0000      -0.506253       -13.7758
  48   2.0000      -0.500314       -13.6142
  49   2.0000      -0.494679       -13.4609
  50   2.0000      -0.487023       -13.2526
  51   2.0000      -0.476807       -12.9746
  52   2.0000      -0.473560       -12.8862
  53   2.0000      -0.465183       -12.6583
  54   2.0000      -0.457327       -12.4445
  55   2.0000      -0.445653       -12.1268
  56   2.0000      -0.444082       -12.0841
  57   2.0000      -0.440001       -11.9730
  58   2.0000      -0.432462       -11.7679
  59   2.0000      -0.425509       -11.5787
  60   2.0000      -0.424173       -11.5423
  61   2.0000      -0.415821       -11.3151
  62   2.0000      -0.413687       -11.2570
  63   2.0000      -0.344623        -9.3777
  64   2.0000      -0.330555        -8.9949
  65   2.0000      -0.326972        -8.8974
  66   2.0000      -0.292217        -7.9516
  67   0.0000       0.034442         0.9372
  68   0.0000       0.065103         1.7715
  69   0.0000       0.106890         2.9086
  70   0.0000       0.120273         3.2728
  71   0.0000       0.124489         3.3875

MULLIKEN ATOMIC CHARGES
-----------------------
   0 S :    0.103236
   1 C :   -0.117286
   2 C :   -0.066691
   3 C :    0.018898
   4 C :   -0.182029
   5 H :    0.039907
   6 C :   -0.015626
   7 H :    0.039632
   8 H :    0.061021
   9 C :   -0.125074
  10 H :    0.048559
  11 H :    0.046928
  12 C :   -0.026476
  13 H :    0.029671
  14 H :    0.023716
  15 H :    0.037876
  16 S :    0.137621
  17 C :   -0.086297
  18 C :   -0.034982
  19 C :   -0.023417
  20 C :   -0.151067
  21 H :    0.012708
  22 C :    0.028753
  23 H :    0.040327
  24 H :    0.019682
  25 C :   -0.061551
  26 H :    0.031323
  27 H :    0.033308
  28 C :   -0.048703
  29 H :    0.029966
  30 H :    0.024901
  31 H :    0.036957
  32 H :    0.048599
  33 H :    0.045610
Sum of atomic charges:   -0.0000000

LOEWDIN ATOMIC CHARGES
----------------------
   0 S :    0.374728
   1 C :   -0.188933
   2 C :   -0.071834
   3 C :   -0.059836
   4 C :   -0.183126
   5 H :    0.044766
   6 C :   -0.050382
   7 H :    0.036981
   8 H :    0.044859
   9 C :   -0.044520
  10 H :    0.027006
  11 H :    0.030493
  12 C :   -0.059452
  13 H :    0.027014
  14 H :    0.023799
  15 H :    0.021058
  16 S :    0.432246
  17 C :   -0.188391
  18 C :   -0.065582
  19 C :   -0.051572
  20 C :   -0.221268
  21 H :    0.027144
  22 C :   -0.037175
  23 H :    0.036976
  24 H :    0.026390
  25 C :   -0.036672
  26 H :    0.017981
  27 H :    0.026827
  28 C :   -0.066375
  29 H :    0.031774
  30 H :    0.016175
  31 H :    0.026777
  32 H :    0.026705
  33 H :    0.025418

  Mayer bond orders larger than 0.100000
B(  0-S ,  1-C ) :   1.1266 B(  0-S ,  4-C ) :   1.1174 B(  1-C ,  2-C ) :   1.6503
B(  1-C , 32-H ) :   0.9583 B(  2-C ,  3-C ) :   1.2165 B(  2-C ,  6-C ) :   1.0145
B(  3-C ,  4-C ) :   1.6260 B(  3-C ,  5-H ) :   0.9745 B(  4-C , 20-C ) :   1.0465
B(  6-C ,  7-H ) :   0.9522 B(  6-C ,  8-H ) :   0.9253 B(  6-C ,  9-C ) :   1.0645
B(  9-C , 10-H ) :   0.9610 B(  9-C , 11-H ) :   0.9517 B(  9-C , 12-C ) :   1.0682
B( 12-C , 13-H ) :   0.9748 B( 12-C , 14-H ) :   0.9742 B( 12-C , 15-H ) :   0.9791
B( 16-S , 17-C ) :   1.1556 B( 16-S , 20-C ) :   1.1500 B( 17-C , 18-C ) :   1.6146
B( 17-C , 33-H ) :   0.9689 B( 18-C , 19-C ) :   1.2368 B( 18-C , 21-H ) :   0.9911
B( 19-C , 20-C ) :   1.5890 B( 19-C , 22-C ) :   1.0468 B( 22-C , 23-H ) :   0.9376
B( 22-C , 24-H ) :   0.9376 B( 22-C , 25-C ) :   1.0546 B( 25-C , 26-H ) :   0.9577
B( 25-C , 27-H ) :   0.9576 B( 25-C , 28-C ) :   1.0709 B( 28-C , 29-H ) :   0.9757
B( 28-C , 30-H ) :   0.9760 B( 28-C , 31-H ) :   0.9717

Dispersion correction           -0.014053107
FINAL SINGLE POINT ENERGY     -1339.869751552348

DIPOLE MOMENT
-------------
                                X             Y             Z
Electronic contribution:     26.49202       3.05558      12.31154
Nuclear contribution   :    -27.12862      -2.94368     -12.69010
                        -----------------------------------------
Total Dipole Moment    :     -0.63660       0.11190      -0.37855
                        -----------------------------------------
Magnitude (a.u.)       :      0.74905
Magnitude (Debye)      :      1.90394

Rotational constants in cm-1:     0.019307     0.007875     0.005976
Rotational constants in MHz :   578.801802   236.093981   179.165886

                             ****ORCA TERMINATED NORMALLY****
TOTAL RUN TIME: 0 days 0 hours 0 minutes 33 seconds 140 msec
