                         Program Version 4.2.1 -  RELEASE  -
|  1> ! wB97X-D3 SP def2-SVP
|  2> %pal
|  3> nprocs 16
|  4> end
|  5>
|  6> * xyz 0 1
|  7> S 	 48.6015 	 29.314 	 45.3176
|  8> C 	 49.5327 	 30.3436 	 44.198
|  9> C 	 50.7569 	 29.7227 	 43.9371
| 10> C 	 50.8904 	 28.4122 	 44.6016
| 11> C 	 49.8291 	 28.0555 	 45.4187
| 12> H 	 51.7153 	 27.8372 	 44.4573
| 13> C 	 51.9691 	 30.3792 	 43.227
| 14> H 	 51.5344 	 30.9741 	 42.4249
| 15> H 	 52.5232 	 29.5518 	 42.8347
| 16> C 	 52.8728 	 31.1266 	 44.2572
| 17> H 	 52.1755 	 31.833 	 44.8292
| 18> H 	 53.1981 	 30.4004 	 45.0899
| 19> C 	 54.0477 	 31.8339 	 43.5873
| 20> H 	 54.5152 	 31.2366 	 42.8924
| 21> H 	 53.7766 	 32.8805 	 43.2289
| 22> H 	 54.9025 	 31.9397 	 44.3419
| 23> S 	 48.2316 	 26.7788 	 47.2783
| 24> C 	 48.7438 	 25.2093 	 47.9434
| 25> C 	 49.7368 	 24.6834 	 47.1809
| 26> C 	 50.1758 	 25.5985 	 46.1756
| 27> C 	 49.6077 	 26.8486 	 46.2134
| 28> H 	 50.2917 	 23.8315 	 47.3651
| 29> C 	 51.3659 	 25.1545 	 45.399
| 30> H 	 51.3846 	 25.657 	 44.411
| 31> H 	 51.29 	 23.9901 	 45.1748
| 32> C 	 52.5725 	 25.5355 	 46.2162
| 33> H 	 52.4571 	 25.2798 	 47.2436
| 34> H 	 52.5919 	 26.6429 	 46.2881
| 35> C 	 53.8342 	 24.9822 	 45.5504
| 36> H 	 53.9464 	 25.5854 	 44.658
| 37> H 	 53.864 	 23.876 	 45.4505
| 38> H 	 54.7363 	 25.2293 	 46.0765
| 39> H 	 49.2984 	 31.3018 	 43.8104
| 40> H 	 48.2216 	 24.7197 	 48.7415
| 41> *
| 42>
| 43>                          ****END OF INPUT****

CARTESIAN COORDINATES (ANGSTROEM)
---------------------------------
  S     48.601500   29.314000   45.317600
  C     49.532700   30.343600   44.198000
  C     50.756900   29.722700   43.937100
  C     50.890400   28.412200   44.601600
  C     49.829100   28.055500   45.418700
  H     51.715300   27.837200   44.457300
  C     51.969100   30.379200   43.227000
  H     51.534400   30.974100   42.424900
  H     52.523200   29.551800   42.834700
  C     52.872800   31.126600   44.257200
  H     52.175500   31.833000   44.829200
  H     53.198100   30.400400   45.089900
  C     54.047700   31.833900   43.587300
  H     54.515200   31.236600   42.892400
  H     53.776600   32.880500   43.228900
  H     54.902500   31.939700   44.341900
  S     48.231600   26.778800   47.278300
  C     48.743800   25.209300   47.943400
  C     49.736800   24.683400   47.180900
  C     50.175800   25.598500   46.175600
  C     49.607700   26.848600   46.213400
  H     50.291700   23.831500   47.365100
  C     51.365900   25.154500   45.399000
  H     51.384600   25.657000   44.411000
  H     51.290000   23.990100   45.174800
  C     52.572500   25.535500   46.216200
  H     52.457100   25.279800   47.243600
  H     52.591900   26.642900   46.288100
  C     53.834200   24.982200   45.550400
  H     53.946400   25.585400   44.658000
  H     53.864000   23.876000   45.450500
  H     54.736300   25.229300   46.076500
  H     49.298400   31.301800   43.810400
  H     48.221600   24.719700   48.741500

 Total Charge           Charge          ....    0
 Multiplicity           Mult            ....    1
 Number of Electrons    NEL             ....  134
 Basis Dimension        Dim             ....  322

ORBITAL ENERGIES
----------------

  NO   OCC          E(Eh)            E(eV)
   0   2.0000     -88.965555     -2420.8758
   1   2.0000     -88.962717     -2420.7986
   2   2.0000     -10.337997      -281.3112
   3   2.0000     -10.328838      -281.0620
   4   2.0000     -10.321183      -280.8537
   5   2.0000     -10.317333      -280.7489
   6   2.0000     -10.306796      -280.4622
   7   2.0000     -10.301413      -280.3157
   8   2.0000     -10.298589      -280.2389
   9   2.0000     -10.298374      -280.2330
  10   2.0000     -10.295930      -280.1665
  11   2.0000     -10.292207      -280.0652
  12   2.0000     -10.289033      -279.9788
  13   2.0000     -10.286233      -279.9026
  14   2.0000     -10.285430      -279.8808
  15   2.0000     -10.279580      -279.7216
  16   2.0000      -8.079445      -219.8529
  17   2.0000      -8.077559      -219.8015
  18   2.0000      -6.038316      -164.3109
  19   2.0000      -6.036274      -164.2554
  20   2.0000      -6.033957      -164.1923
  21   2.0000      -6.032130      -164.1426
  22   2.0000      -6.029982      -164.0841
  23   2.0000      -6.028018      -164.0307
  24   2.0000      -1.008873       -27.4528
  25   2.0000      -0.980565       -26.6825
  26   2.0000      -0.919723       -25.0269
  27   2.0000      -0.907284       -24.6884
  28   2.0000      -0.872086       -23.7307
  29   2.0000      -0.851948       -23.1827
  30   2.0000      -0.841346       -22.8942
  31   2.0000      -0.820228       -22.3196
  32   2.0000      -0.779205       -21.2032
  33   2.0000      -0.770813       -20.9749
  34   2.0000      -0.709606       -19.3094
  35   2.0000      -0.698136       -18.9972
  36   2.0000      -0.697028       -18.9671
  37   2.0000      -0.675670       -18.3859
  38   2.0000      -0.642129       -17.4732
  39   2.0000      -0.624603       -16.9963
  40   2.0000      -0.602846       -16.4043
  41   2.0000      -0.569250       -15.4901
  42   2.0000      -0.567077       -15.4309
  43   2.0000      -0.558116       -15.1871
  44   2.0000      -0.527643       -14.3579
  45   2.0000      -0.522943       -14.2300
  46   2.0000      -0.520935       -14.1754
  47   2.0000      -0.514869       -14.0103
  48   2.0000      -0.511954       -13.9310
  49   2.0000      -0.508222       -13.8294
  50   2.0000      -0.499476       -13.5914
  51   2.0000      -0.479626       -13.0513
  52   2.0000      -0.474139       -12.9020
  53   2.0000      -0.464562       -12.6414
  54   2.0000      -0.459113       -12.4931
  55   2.0000      -0.449828       -12.2404
  56   2.0000      -0.445162       -12.1135
  57   2.0000      -0.438310       -11.9270
  58   2.0000      -0.430749       -11.7213
  59   2.0000      -0.419652       -11.4193
  60   2.0000      -0.418705       -11.3935
  61   2.0000      -0.416926       -11.3451
  62   2.0000      -0.406757       -11.0684
  63   2.0000      -0.364244        -9.9116
  64   2.0000      -0.332642        -9.0516
  65   2.0000      -0.322075        -8.7641
  66   2.0000      -0.286557        -7.7976
  67   0.0000       0.018840         0.5127
  68   0.0000       0.082854         2.2546
  69   0.0000       0.094937         2.5834
  70   0.0000       0.117972         3.2102
  71   0.0000       0.125830         3.4240

MULLIKEN ATOMIC CHARGES
-----------------------
   0 S :    0.085735
   1 C :   -0.092573
   2 C :   -0.126020
   3 C :    0.023241
   4 C :   -0.073718
   5 H :   -0.051022
   6 C :    0.077545
   7 H :    0.033685
   8 H :    0.017331
   9 C :   -0.121608
  10 H :    0.038045
  11 H :    0.043340
  12 C :   -0.023410
  13 H :    0.015249
  14 H :    0.056038
  15 H :    0.034010
  16 S :    0.079039
  17 C :   -0.069150
  18 C :    0.026366
  19 C :   -0.086608
  20 C :   -0.092354
  21 H :   -0.003874
  22 C :   -0.022066
  23 H :    0.034046
  24 H :    0.048078
  25 C :   -0.066642
  26 H :    0.013923
  27 H :    0.025473
  28 C :    0.002198
  29 H :    0.021245
  30 H :    0.044919
  31 H :    0.018937
  32 H :    0.034911
  33 H :    0.055691
Sum of atomic charges:    0.0000000

LOEWDIN ATOMIC CHARGES
----------------------
   0 S :    0.382417
   1 C :   -0.188962
   2 C :   -0.052030
   3 C :   -0.066729
   4 C :   -0.171777
   5 H :    0.005427
   6 C :   -0.029600
   7 H :    0.030740
   8 H :    0.023860
   9 C :   -0.050768
  10 H :    0.030292
  11 H :    0.033679
  12 C :   -0.072496
  13 H :    0.012420
  14 H :    0.038057
  15 H :    0.036659
  16 S :    0.384991
  17 C :   -0.155458
  18 C :   -0.058957
  19 C :   -0.055447
  20 C :   -0.199108
  21 H :    0.021200
  22 C :   -0.041053
  23 H :    0.028483
  24 H :    0.041213
  25 C :   -0.041742
  26 H :    0.018291
  27 H :    0.030026
  28 C :   -0.065934
  29 H :    0.026843
  30 H :    0.031215
  31 H :    0.021759
  32 H :    0.024868
  33 H :    0.027619

  Mayer bond orders larger than 0.100000
B(  0-S ,  1-C ) :   1.1146 B(  0-S ,  4-C ) :   1.1345 B(  1-C ,  2-C ) :   1.6285
B(  1-C , 32-H ) :   0.9743 B(  2-C ,  3-C ) :   1.2291 B(  2-C ,  6-C ) :   1.0267
B(  3-C ,  4-C ) :   1.5669 B(  3-C ,  5-H ) :   1.0039 B(  4-C , 20-C ) :   1.0833
B(  6-C ,  7-H ) :   0.9450 B(  6-C ,  8-H ) :   0.9354 B(  6-C ,  9-C ) :   1.0521
B(  9-C , 10-H ) :   0.9590 B(  9-C , 11-H ) :   0.9566 B(  9-C , 12-C ) :   1.0688
B( 12-C , 13-H ) :   0.9723 B( 12-C , 14-H ) :   0.9750 B( 12-C , 15-H ) :   0.9725
B( 16-S , 17-C ) :   1.1458 B( 16-S , 20-C ) :   1.1121 B( 17-C , 18-C ) :   1.5998
B( 17-C , 33-H ) :   0.9738 B( 18-C , 19-C ) :   1.2389 B( 18-C , 21-H ) :   0.9988
B( 19-C , 20-C ) :   1.5986 B( 19-C , 22-C ) :   1.0600 B( 22-C , 23-H ) :   0.9252
B( 22-C , 24-H ) :   0.9392 B( 22-C , 25-C ) :   1.0562 B( 25-C , 26-H ) :   0.9542
B( 25-C , 27-H ) :   0.9454 B( 25-C , 28-C ) :   1.0749 B( 28-C , 29-H ) :   0.9692
B( 28-C , 30-H ) :   0.9751 B( 28-C , 31-H ) :   0.9700

Dispersion correction           -0.014227250
FINAL SINGLE POINT ENERGY     -1339.860160520183

DIPOLE MOMENT
-------------
                                X             Y             Z
Electronic contribution:    -30.15360      -2.23924       9.28862
Nuclear contribution   :     30.97829       2.04500      -9.41401
                        -----------------------------------------
Total Dipole Moment    :      0.82468      -0.19424      -0.12538
                        -----------------------------------------
Magnitude (a.u.)       :      0.85648
Magnitude (Debye)      :      2.17700

Rotational constants in cm-1:     0.018385     0.008997     0.006397
Rotational constants in MHz :   551.172073   269.729901   191.767290

                             ****ORCA TERMINATED NORMALLY****
TOTAL RUN TIME: 0 days 0 hours 0 minutes 34 seconds 363 msec
