                         Program Version 4.2.1 -  RELEASE  -
|  1> ! wB97X-D3 SP def2-SVP
|  2> %pal
|  3> nprocs 16
|  4> end
|  5>
|  6> * xyz 0 1
|  7> S 	 -47.1986 	 61.8442 	 139.485
|  8> C 	 -46.2607 	 60.3794 	 139.023
|  9> C 	 -47.0541 	 59.3087 	 138.644
| 10> C 	 -48.4502 	 59.6301 	 138.85
| 11> C 	 -48.6781 	 60.9376 	 139.237
| 12> H 	 -49.3307 	 59.0635 	 138.55
| 13> C 	 -46.4807 	 57.9434 	 138.244
| 14> H 	 -47.3331 	 57.3508 	 137.866
| 15> H 	 -46.0892 	 57.3604 	 139.13
| 16> C 	 -45.3304 	 57.8474 	 137.253
| 17> H 	 -45.5048 	 58.5004 	 136.317
| 18> H 	 -44.4014 	 58.1886 	 137.757
| 19> C 	 -45.1953 	 56.4268 	 136.812
| 20> H 	 -45.2755 	 55.8149 	 137.735
| 21> H 	 -46.0389 	 56.0645 	 136.208
| 22> H 	 -44.1547 	 56.3028 	 136.445
| 23> S 	 -50.2333 	 62.3535 	 141.017
| 24> C 	 -51.9021 	 62.7708 	 140.601
| 25> C 	 -52.2184 	 62.187 	 139.377
| 26> C 	 -51.1842 	 61.4637 	 138.736
| 27> C 	 -50.0038 	 61.5278 	 139.477
| 28> H 	 -53.2634 	 62.3121 	 139.027
| 29> C 	 -51.3714 	 60.7922 	 137.413
| 30> H 	 -50.4829 	 60.7966 	 136.882
| 31> H 	 -51.9822 	 61.4742 	 136.761
| 32> C 	 -51.948 	 59.3542 	 137.396
| 33> H 	 -52.9875 	 59.4517 	 137.656
| 34> H 	 -51.5371 	 58.6375 	 138.064
| 35> C 	 -51.8427 	 58.5873 	 136.035
| 36> H 	 -50.7899 	 58.6113 	 135.643
| 37> H 	 -52.3317 	 59.2167 	 135.302
| 38> H 	 -52.4166 	 57.6309 	 136.103
| 39> H 	 -45.1831 	 60.3542 	 139.016
| 40> H 	 -52.6928 	 63.2514 	 141.112
| 41> *
| 42>
| 43>                          ****END OF INPUT****

CARTESIAN COORDINATES (ANGSTROEM)
---------------------------------
  S    -47.198600   61.844200  139.485000
  C    -46.260700   60.379400  139.023000
  C    -47.054100   59.308700  138.644000
  C    -48.450200   59.630100  138.850000
  C    -48.678100   60.937600  139.237000
  H    -49.330700   59.063500  138.550000
  C    -46.480700   57.943400  138.244000
  H    -47.333100   57.350800  137.866000
  H    -46.089200   57.360400  139.130000
  C    -45.330400   57.847400  137.253000
  H    -45.504800   58.500400  136.317000
  H    -44.401400   58.188600  137.757000
  C    -45.195300   56.426800  136.812000
  H    -45.275500   55.814900  137.735000
  H    -46.038900   56.064500  136.208000
  H    -44.154700   56.302800  136.445000
  S    -50.233300   62.353500  141.017000
  C    -51.902100   62.770800  140.601000
  C    -52.218400   62.187000  139.377000
  C    -51.184200   61.463700  138.736000
  C    -50.003800   61.527800  139.477000
  H    -53.263400   62.312100  139.027000
  C    -51.371400   60.792200  137.413000
  H    -50.482900   60.796600  136.882000
  H    -51.982200   61.474200  136.761000
  C    -51.948000   59.354200  137.396000
  H    -52.987500   59.451700  137.656000
  H    -51.537100   58.637500  138.064000
  C    -51.842700   58.587300  136.035000
  H    -50.789900   58.611300  135.643000
  H    -52.331700   59.216700  135.302000
  H    -52.416600   57.630900  136.103000
  H    -45.183100   60.354200  139.016000
  H    -52.692800   63.251400  141.112000

 Total Charge           Charge          ....    0
 Multiplicity           Mult            ....    1
 Number of Electrons    NEL             ....  134
 Basis Dimension        Dim             ....  322

ORBITAL ENERGIES
----------------

  NO   OCC          E(Eh)            E(eV)
   0   2.0000     -88.968927     -2420.9676
   1   2.0000     -88.968662     -2420.9604
   2   2.0000     -10.330411      -281.1048
   3   2.0000     -10.329793      -281.0879
   4   2.0000     -10.317115      -280.7430
   5   2.0000     -10.315734      -280.7054
   6   2.0000     -10.307555      -280.4828
   7   2.0000     -10.303322      -280.3677
   8   2.0000     -10.300354      -280.2869
   9   2.0000     -10.297122      -280.1989
  10   2.0000     -10.294319      -280.1227
  11   2.0000     -10.293437      -280.0987
  12   2.0000     -10.291526      -280.0467
  13   2.0000     -10.287360      -279.9333
  14   2.0000     -10.286857      -279.9196
  15   2.0000     -10.283218      -279.8206
  16   2.0000      -8.082754      -219.9429
  17   2.0000      -8.082485      -219.9356
  18   2.0000      -6.041334      -164.3931
  19   2.0000      -6.041101      -164.3867
  20   2.0000      -6.037506      -164.2889
  21   2.0000      -6.037052      -164.2765
  22   2.0000      -6.033386      -164.1768
  23   2.0000      -6.033234      -164.1726
  24   2.0000      -1.002489       -27.2791
  25   2.0000      -0.978357       -26.6225
  26   2.0000      -0.917671       -24.9711
  27   2.0000      -0.908307       -24.7163
  28   2.0000      -0.869145       -23.6506
  29   2.0000      -0.853009       -23.2116
  30   2.0000      -0.845632       -23.0108
  31   2.0000      -0.813432       -22.1346
  32   2.0000      -0.780880       -21.2488
  33   2.0000      -0.769957       -20.9516
  34   2.0000      -0.706918       -19.2362
  35   2.0000      -0.701717       -19.0947
  36   2.0000      -0.692511       -18.8442
  37   2.0000      -0.659875       -17.9561
  38   2.0000      -0.640332       -17.4243
  39   2.0000      -0.613510       -16.6945
  40   2.0000      -0.596663       -16.2360
  41   2.0000      -0.573764       -15.6129
  42   2.0000      -0.566958       -15.4277
  43   2.0000      -0.562224       -15.2989
  44   2.0000      -0.534693       -14.5497
  45   2.0000      -0.523687       -14.2502
  46   2.0000      -0.517493       -14.0817
  47   2.0000      -0.509959       -13.8767
  48   2.0000      -0.506036       -13.7699
  49   2.0000      -0.493150       -13.4193
  50   2.0000      -0.488347       -13.2886
  51   2.0000      -0.478192       -13.0123
  52   2.0000      -0.475343       -12.9347
  53   2.0000      -0.461336       -12.5536
  54   2.0000      -0.459113       -12.4931
  55   2.0000      -0.446018       -12.1368
  56   2.0000      -0.445614       -12.1258
  57   2.0000      -0.433793       -11.8041
  58   2.0000      -0.431434       -11.7399
  59   2.0000      -0.427444       -11.6313
  60   2.0000      -0.424476       -11.5506
  61   2.0000      -0.418304       -11.3826
  62   2.0000      -0.413901       -11.2628
  63   2.0000      -0.345021        -9.3885
  64   2.0000      -0.334071        -9.0905
  65   2.0000      -0.331343        -9.0163
  66   2.0000      -0.291640        -7.9359
  67   0.0000       0.027051         0.7361
  68   0.0000       0.069679         1.8961
  69   0.0000       0.105714         2.8766
  70   0.0000       0.118493         3.2244
  71   0.0000       0.126120         3.4319

MULLIKEN ATOMIC CHARGES
-----------------------
   0 S :    0.111040
   1 C :   -0.126227
   2 C :   -0.045710
   3 C :    0.037011
   4 C :   -0.154908
   5 H :    0.000712
   6 C :    0.009894
   7 H :    0.020177
   8 H :    0.054006
   9 C :   -0.106514
  10 H :    0.046326
  11 H :    0.035330
  12 C :   -0.040274
  13 H :    0.015243
  14 H :    0.044529
  15 H :    0.044391
  16 S :    0.113408
  17 C :   -0.070054
  18 C :   -0.075159
  19 C :    0.001047
  20 C :   -0.162068
  21 H :    0.027361
  22 C :    0.074594
  23 H :    0.000141
  24 H :    0.028235
  25 C :   -0.068072
  26 H :    0.021563
  27 H :    0.033204
  28 C :   -0.069366
  29 H :    0.041426
  30 H :    0.017127
  31 H :    0.056946
  32 H :    0.044573
  33 H :    0.040069
Sum of atomic charges:    0.0000000

LOEWDIN ATOMIC CHARGES
----------------------
   0 S :    0.384986
   1 C :   -0.175974
   2 C :   -0.061287
   3 C :   -0.062987
   4 C :   -0.192288
   5 H :    0.032664
   6 C :   -0.041569
   7 H :    0.028879
   8 H :    0.042062
   9 C :   -0.052567
  10 H :    0.031757
  11 H :    0.024651
  12 C :   -0.069552
  13 H :    0.024377
  14 H :    0.029699
  15 H :    0.033832
  16 S :    0.401123
  17 C :   -0.186172
  18 C :   -0.071377
  19 C :   -0.059854
  20 C :   -0.188466
  21 H :    0.035084
  22 C :   -0.032143
  23 H :    0.018920
  24 H :    0.039879
  25 C :   -0.037900
  26 H :    0.021915
  27 H :    0.016747
  28 C :   -0.072152
  29 H :    0.031388
  30 H :    0.019017
  31 H :    0.036927
  32 H :    0.022932
  33 H :    0.027450

  Mayer bond orders larger than 0.100000
B(  0-S ,  1-C ) :   1.1229 B(  0-S ,  4-C ) :   1.1425 B(  1-C ,  2-C ) :   1.6283
B(  1-C , 32-H ) :   0.9712 B(  2-C ,  3-C ) :   1.2189 B(  2-C ,  6-C ) :   1.0113
B(  3-C ,  4-C ) :   1.5982 B(  3-C ,  5-H ) :   0.9867 B(  4-C , 20-C ) :   1.0293
B(  6-C ,  7-H ) :   0.9489 B(  6-C ,  8-H ) :   0.9327 B(  6-C ,  9-C ) :   1.0636
B(  9-C , 10-H ) :   0.9559 B(  9-C , 11-H ) :   0.9484 B(  9-C , 12-C ) :   1.0891
B( 12-C , 13-H ) :   0.9662 B( 12-C , 14-H ) :   0.9726 B( 12-C , 15-H ) :   0.9699
B( 16-S , 17-C ) :   1.1352 B( 16-S , 20-C ) :   1.1494 B( 17-C , 18-C ) :   1.6257
B( 17-C , 20-C ) :   0.1041 B( 17-C , 33-H ) :   0.9692 B( 18-C , 19-C ) :   1.2478
B( 18-C , 21-H ) :   0.9803 B( 19-C , 20-C ) :   1.5789 B( 19-C , 22-C ) :   1.0531
B( 22-C , 23-H ) :   0.9271 B( 22-C , 24-H ) :   0.9305 B( 22-C , 25-C ) :   1.0478
B( 25-C , 26-H ) :   0.9515 B( 25-C , 27-H ) :   0.9592 B( 25-C , 28-C ) :   1.0794
B( 28-C , 29-H ) :   0.9730 B( 28-C , 30-H ) :   0.9744 B( 28-C , 31-H ) :   0.9725

Dispersion correction           -0.013773979
FINAL SINGLE POINT ENERGY     -1339.873979961897

DIPOLE MOMENT
-------------
                                X             Y             Z
Electronic contribution:     -0.68123      25.01462      20.83535
Nuclear contribution   :      0.48744     -25.56061     -21.27963
                        -----------------------------------------
Total Dipole Moment    :     -0.19379      -0.54599      -0.44428
                        -----------------------------------------
Magnitude (a.u.)       :      0.73010
Magnitude (Debye)      :      1.85577

Rotational constants in cm-1:     0.018580     0.008420     0.006101
Rotational constants in MHz :   557.020413   252.420020   182.915803

                             ****ORCA TERMINATED NORMALLY****
TOTAL RUN TIME: 0 days 0 hours 0 minutes 34 seconds 551 msec
