                         Program Version 4.2.1 -  RELEASE  -
|  1> ! wB97X-D3 SP def2-SVP
|  2> %pal
|  3> nprocs 16
|  4> end
|  5>
|  6> * xyz 0 1
|  7> S 	 -1.0678 	 78.5722 	 49.305
|  8> C 	 -0.0932068 	 80.1052 	 49.3671
|  9> C 	 1.07991 	 79.976 	 48.6638
| 10> C 	 1.18445 	 78.6957 	 48.0472
| 11> C 	 0.12966 	 77.8209 	 48.3426
| 12> H 	 1.96163 	 78.3978 	 47.3746
| 13> C 	 2.1749 	 80.9904 	 48.686
| 14> H 	 2.45592 	 81.2564 	 49.6953
| 15> H 	 1.73105 	 81.9159 	 48.2727
| 16> C 	 3.50106 	 80.5777 	 47.9928
| 17> H 	 3.76681 	 79.6412 	 48.4436
| 18> H 	 3.27513 	 80.4849 	 46.9236
| 19> C 	 4.61737 	 81.6196 	 48.0694
| 20> H 	 4.77806 	 81.7701 	 49.1585
| 21> H 	 5.58599 	 81.4258 	 47.4828
| 22> H 	 4.32676 	 82.6438 	 47.7978
| 23> S 	 1.05731 	 75.2572 	 48.3415
| 24> C 	 0.115917 	 73.9824 	 47.5619
| 25> C 	 -1.14813 	 74.3925 	 47.1933
| 26> C 	 -1.26217 	 75.8285 	 47.436
| 27> C 	 -0.0867519 	 76.411 	 47.8389
| 28> H 	 -1.93417 	 73.7447 	 46.8331
| 29> C 	 -2.58072 	 76.5323 	 47.1298
| 30> H 	 -3.08521 	 76.1397 	 46.2232
| 31> H 	 -2.22237 	 77.5228 	 47.002
| 32> C 	 -3.6321 	 76.3985 	 48.3086
| 33> H 	 -3.14509 	 76.6663 	 49.2307
| 34> H 	 -3.99014 	 75.3715 	 48.4781
| 35> C 	 -4.81681 	 77.3144 	 48.1386
| 36> H 	 -4.46492 	 78.2961 	 48.0545
| 37> H 	 -5.31266 	 77.364 	 49.0896
| 38> H 	 -5.45855 	 77.1204 	 47.3126
| 39> H 	 -0.440003 	 80.988 	 49.9082
| 40> H 	 0.353069 	 72.9266 	 47.6966
| 41> *
| 42>
| 43>                          ****END OF INPUT****

CARTESIAN COORDINATES (ANGSTROEM)
---------------------------------
  S     -1.067800   78.572200   49.305000
  C     -0.093207   80.105200   49.367100
  C      1.079910   79.976000   48.663800
  C      1.184450   78.695700   48.047200
  C      0.129660   77.820900   48.342600
  H      1.961630   78.397800   47.374600
  C      2.174900   80.990400   48.686000
  H      2.455920   81.256400   49.695300
  H      1.731050   81.915900   48.272700
  C      3.501060   80.577700   47.992800
  H      3.766810   79.641200   48.443600
  H      3.275130   80.484900   46.923600
  C      4.617370   81.619600   48.069400
  H      4.778060   81.770100   49.158500
  H      5.585990   81.425800   47.482800
  H      4.326760   82.643800   47.797800
  S      1.057310   75.257200   48.341500
  C      0.115917   73.982400   47.561900
  C     -1.148130   74.392500   47.193300
  C     -1.262170   75.828500   47.436000
  C     -0.086752   76.411000   47.838900
  H     -1.934170   73.744700   46.833100
  C     -2.580720   76.532300   47.129800
  H     -3.085210   76.139700   46.223200
  H     -2.222370   77.522800   47.002000
  C     -3.632100   76.398500   48.308600
  H     -3.145090   76.666300   49.230700
  H     -3.990140   75.371500   48.478100
  C     -4.816810   77.314400   48.138600
  H     -4.464920   78.296100   48.054500
  H     -5.312660   77.364000   49.089600
  H     -5.458550   77.120400   47.312600
  H     -0.440003   80.988000   49.908200
  H      0.353069   72.926600   47.696600

 Total Charge           Charge          ....    0
 Multiplicity           Mult            ....    1
 Number of Electrons    NEL             ....  134
 Basis Dimension        Dim             ....  322

ORBITAL ENERGIES
----------------

  NO   OCC          E(Eh)            E(eV)
   0   2.0000     -88.969387     -2420.9801
   1   2.0000     -88.964734     -2420.8535
   2   2.0000     -10.332685      -281.1667
   3   2.0000     -10.323613      -280.9198
   4   2.0000     -10.317109      -280.7428
   5   2.0000     -10.316880      -280.7366
   6   2.0000     -10.302773      -280.3527
   7   2.0000     -10.301009      -280.3047
   8   2.0000     -10.296038      -280.1694
   9   2.0000     -10.294367      -280.1240
  10   2.0000     -10.293167      -280.0913
  11   2.0000     -10.289987      -280.0048
  12   2.0000     -10.288821      -279.9730
  13   2.0000     -10.288689      -279.9695
  14   2.0000     -10.282685      -279.8061
  15   2.0000     -10.262471      -279.2560
  16   2.0000      -8.083111      -219.9526
  17   2.0000      -8.080224      -219.8741
  18   2.0000      -6.041580      -164.3997
  19   2.0000      -6.038748      -164.3227
  20   2.0000      -6.037719      -164.2947
  21   2.0000      -6.034829      -164.2160
  22   2.0000      -6.034023      -164.1941
  23   2.0000      -6.030710      -164.1040
  24   2.0000      -1.007832       -27.4245
  25   2.0000      -0.984239       -26.7825
  26   2.0000      -0.915283       -24.9061
  27   2.0000      -0.903778       -24.5931
  28   2.0000      -0.867786       -23.6137
  29   2.0000      -0.853373       -23.2215
  30   2.0000      -0.842857       -22.9353
  31   2.0000      -0.815578       -22.1930
  32   2.0000      -0.781604       -21.2685
  33   2.0000      -0.768941       -20.9240
  34   2.0000      -0.709304       -19.3011
  35   2.0000      -0.697704       -18.9855
  36   2.0000      -0.682681       -18.5767
  37   2.0000      -0.667796       -18.1717
  38   2.0000      -0.635968       -17.3056
  39   2.0000      -0.619597       -16.8601
  40   2.0000      -0.590875       -16.0785
  41   2.0000      -0.577062       -15.7027
  42   2.0000      -0.567052       -15.4303
  43   2.0000      -0.562429       -15.3045
  44   2.0000      -0.524238       -14.2652
  45   2.0000      -0.521312       -14.1856
  46   2.0000      -0.519313       -14.1312
  47   2.0000      -0.510335       -13.8869
  48   2.0000      -0.505092       -13.7443
  49   2.0000      -0.495612       -13.4863
  50   2.0000      -0.493007       -13.4154
  51   2.0000      -0.477751       -13.0003
  52   2.0000      -0.475007       -12.9256
  53   2.0000      -0.467693       -12.7266
  54   2.0000      -0.458169       -12.4674
  55   2.0000      -0.453864       -12.3503
  56   2.0000      -0.446678       -12.1547
  57   2.0000      -0.434170       -11.8144
  58   2.0000      -0.429359       -11.6835
  59   2.0000      -0.425546       -11.5797
  60   2.0000      -0.417781       -11.3684
  61   2.0000      -0.417054       -11.3486
  62   2.0000      -0.409770       -11.1504
  63   2.0000      -0.344012        -9.3611
  64   2.0000      -0.333528        -9.0758
  65   2.0000      -0.324332        -8.8255
  66   2.0000      -0.296134        -8.0582
  67   0.0000       0.032311         0.8792
  68   0.0000       0.068160         1.8547
  69   0.0000       0.105844         2.8802
  70   0.0000       0.114697         3.1211
  71   0.0000       0.123866         3.3706

MULLIKEN ATOMIC CHARGES
-----------------------
   0 S :    0.098385
   1 C :   -0.149460
   2 C :   -0.045855
   3 C :    0.006854
   4 C :   -0.150103
   5 H :    0.009589
   6 C :    0.040833
   7 H :    0.029501
   8 H :    0.034663
   9 C :   -0.084530
  10 H :    0.041798
  11 H :    0.038769
  12 C :   -0.054349
  13 H :    0.022356
  14 H :    0.059877
  15 H :    0.022863
  16 S :    0.108690
  17 C :   -0.087743
  18 C :   -0.017702
  19 C :   -0.093329
  20 C :   -0.108238
  21 H :    0.024409
  22 C :    0.056965
  23 H :    0.033213
  24 H :    0.022561
  25 C :   -0.087182
  26 H :    0.017380
  27 H :    0.026126
  28 C :    0.019404
  29 H :    0.001518
  30 H :    0.022517
  31 H :    0.029077
  32 H :    0.050991
  33 H :    0.060152
Sum of atomic charges:    0.0000000

LOEWDIN ATOMIC CHARGES
----------------------
   0 S :    0.417677
   1 C :   -0.182267
   2 C :   -0.060610
   3 C :   -0.071689
   4 C :   -0.200170
   5 H :    0.028679
   6 C :   -0.032602
   7 H :    0.030079
   8 H :    0.036387
   9 C :   -0.042066
  10 H :    0.024943
  11 H :    0.025661
  12 C :   -0.077267
  13 H :    0.025818
  14 H :    0.039735
  15 H :    0.024387
  16 S :    0.420505
  17 C :   -0.181259
  18 C :   -0.061870
  19 C :   -0.057234
  20 C :   -0.221040
  21 H :    0.034021
  22 C :   -0.033097
  23 H :    0.032805
  24 H :    0.018979
  25 C :   -0.038081
  26 H :    0.011291
  27 H :    0.022481
  28 C :   -0.058448
  29 H :    0.017929
  30 H :    0.028830
  31 H :    0.020434
  32 H :    0.028724
  33 H :    0.028336

  Mayer bond orders larger than 0.100000
B(  0-S ,  1-C ) :   1.1235 B(  0-S ,  4-C ) :   1.1716 B(  1-C ,  2-C ) :   1.6132
B(  1-C , 32-H ) :   0.9752 B(  2-C ,  3-C ) :   1.2559 B(  2-C ,  6-C ) :   1.0038
B(  3-C ,  4-C ) :   1.5461 B(  3-C ,  5-H ) :   0.9951 B(  4-C , 20-C ) :   0.9839
B(  6-C ,  7-H ) :   0.9439 B(  6-C ,  8-H ) :   0.9277 B(  6-C ,  9-C ) :   1.0858
B(  9-C , 10-H ) :   0.9506 B(  9-C , 11-H ) :   0.9490 B(  9-C , 12-C ) :   1.0800
B( 12-C , 13-H ) :   0.9712 B( 12-C , 14-H ) :   0.9732 B( 12-C , 15-H ) :   0.9723
B( 16-S , 17-C ) :   1.1519 B( 16-S , 20-C ) :   1.1499 B( 17-C , 18-C ) :   1.6162
B( 17-C , 33-H ) :   0.9633 B( 18-C , 19-C ) :   1.2242 B( 18-C , 21-H ) :   0.9942
B( 19-C , 20-C ) :   1.6136 B( 19-C , 22-C ) :   1.0454 B( 22-C , 23-H ) :   0.9423
B( 22-C , 24-H ) :   0.9341 B( 22-C , 25-C ) :   1.0536 B( 25-C , 26-H ) :   0.9508
B( 25-C , 27-H ) :   0.9556 B( 25-C , 28-C ) :   1.0952 B( 28-C , 29-H ) :   0.9663
B( 28-C , 30-H ) :   0.9688 B( 28-C , 31-H ) :   0.9744

Dispersion correction           -0.014107718
FINAL SINGLE POINT ENERGY     -1339.872761258243

DIPOLE MOMENT
-------------
                                X             Y             Z
Electronic contribution:      0.82485     -14.00988       3.37968
Nuclear contribution   :     -0.90097      14.25557      -3.37072
                        -----------------------------------------
Total Dipole Moment    :     -0.07612       0.24569       0.00895
                        -----------------------------------------
Magnitude (a.u.)       :      0.25737
Magnitude (Debye)      :      0.65417

Rotational constants in cm-1:     0.021375     0.008037     0.006210
Rotational constants in MHz :   640.804745   240.948892   186.171749

                             ****ORCA TERMINATED NORMALLY****
TOTAL RUN TIME: 0 days 0 hours 0 minutes 33 seconds 261 msec
