                         Program Version 4.2.1 -  RELEASE  -
|  1> ! wB97X-D3 SP def2-SVP
|  2> %pal
|  3> nprocs 16
|  4> end
|  5>
|  6> * xyz 0 1
|  7> S 	 -43.1934 	 26.0726 	 77.7214
|  8> C 	 -44.3461 	 26.9617 	 78.7407
|  9> C 	 -45.3092 	 26.1079 	 79.2589
| 10> C 	 -44.8064 	 24.7669 	 79.2283
| 11> C 	 -43.686 	 24.5115 	 78.4325
| 12> H 	 -45.3224 	 23.8849 	 79.5483
| 13> C 	 -46.6489 	 26.4365 	 79.8675
| 14> H 	 -47.298 	 25.5782 	 79.7188
| 15> H 	 -46.9938 	 27.3833 	 79.4188
| 16> C 	 -46.4482 	 26.7413 	 81.3502
| 17> H 	 -46.0633 	 25.8586 	 81.8867
| 18> H 	 -45.65 	 27.5166 	 81.4456
| 19> C 	 -47.705 	 27.1478 	 82.0355
| 20> H 	 -47.971 	 28.2342 	 81.8146
| 21> H 	 -48.5487 	 26.5271 	 81.7415
| 22> H 	 -47.6313 	 27.121 	 83.1672
| 23> S 	 -42.4762 	 22.9302 	 76.4249
| 24> C 	 -41.8673 	 21.3405 	 76.8918
| 25> C 	 -42.1754 	 21.0074 	 78.1979
| 26> C 	 -42.981 	 22.0087 	 78.8428
| 27> C 	 -43.1104 	 23.2226 	 78.1285
| 28> H 	 -42.0073 	 20.0209 	 78.6253
| 29> C 	 -43.5969 	 21.6134 	 80.1797
| 30> H 	 -43.4343 	 20.5903 	 80.4672
| 31> H 	 -44.7113 	 21.7598 	 80.1064
| 32> C 	 -43.0531 	 22.4702 	 81.3803
| 33> H 	 -43.0497 	 23.4988 	 81.167
| 34> H 	 -42.0654 	 22.197 	 81.525
| 35> C 	 -43.9271 	 22.1306 	 82.6676
| 36> H 	 -45.0005 	 22.3184 	 82.5008
| 37> H 	 -43.6471 	 22.6838 	 83.5119
| 38> H 	 -43.78 	 21.0965 	 82.867
| 39> H 	 -44.6323 	 28.0464 	 78.6619
| 40> H 	 -41.4078 	 20.7594 	 76.1311
| 41> *
| 42>
| 43>                          ****END OF INPUT****

CARTESIAN COORDINATES (ANGSTROEM)
---------------------------------
  S    -43.193400   26.072600   77.721400
  C    -44.346100   26.961700   78.740700
  C    -45.309200   26.107900   79.258900
  C    -44.806400   24.766900   79.228300
  C    -43.686000   24.511500   78.432500
  H    -45.322400   23.884900   79.548300
  C    -46.648900   26.436500   79.867500
  H    -47.298000   25.578200   79.718800
  H    -46.993800   27.383300   79.418800
  C    -46.448200   26.741300   81.350200
  H    -46.063300   25.858600   81.886700
  H    -45.650000   27.516600   81.445600
  C    -47.705000   27.147800   82.035500
  H    -47.971000   28.234200   81.814600
  H    -48.548700   26.527100   81.741500
  H    -47.631300   27.121000   83.167200
  S    -42.476200   22.930200   76.424900
  C    -41.867300   21.340500   76.891800
  C    -42.175400   21.007400   78.197900
  C    -42.981000   22.008700   78.842800
  C    -43.110400   23.222600   78.128500
  H    -42.007300   20.020900   78.625300
  C    -43.596900   21.613400   80.179700
  H    -43.434300   20.590300   80.467200
  H    -44.711300   21.759800   80.106400
  C    -43.053100   22.470200   81.380300
  H    -43.049700   23.498800   81.167000
  H    -42.065400   22.197000   81.525000
  C    -43.927100   22.130600   82.667600
  H    -45.000500   22.318400   82.500800
  H    -43.647100   22.683800   83.511900
  H    -43.780000   21.096500   82.867000
  H    -44.632300   28.046400   78.661900
  H    -41.407800   20.759400   76.131100

 Total Charge           Charge          ....    0
 Multiplicity           Mult            ....    1
 Number of Electrons    NEL             ....  134
 Basis Dimension        Dim             ....  322

ORBITAL ENERGIES
----------------

  NO   OCC          E(Eh)            E(eV)
   0   2.0000     -88.968317     -2420.9510
   1   2.0000     -88.966199     -2420.8933
   2   2.0000     -10.339436      -281.3504
   3   2.0000     -10.335970      -281.2561
   4   2.0000     -10.322425      -280.8875
   5   2.0000     -10.318919      -280.7921
   6   2.0000     -10.312136      -280.6075
   7   2.0000     -10.304240      -280.3926
   8   2.0000     -10.299136      -280.2537
   9   2.0000     -10.298304      -280.2311
  10   2.0000     -10.298204      -280.2284
  11   2.0000     -10.292798      -280.0813
  12   2.0000     -10.288667      -279.9689
  13   2.0000     -10.285445      -279.8812
  14   2.0000     -10.278932      -279.7040
  15   2.0000     -10.274913      -279.5946
  16   2.0000      -8.081667      -219.9133
  17   2.0000      -8.079655      -219.8586
  18   2.0000      -6.040483      -164.3699
  19   2.0000      -6.038291      -164.3102
  20   2.0000      -6.036516      -164.2620
  21   2.0000      -6.034420      -164.2049
  22   2.0000      -6.032007      -164.1393
  23   2.0000      -6.030292      -164.0926
  24   2.0000      -0.998117       -27.1601
  25   2.0000      -0.977019       -26.5860
  26   2.0000      -0.919871       -25.0310
  27   2.0000      -0.903200       -24.5773
  28   2.0000      -0.870444       -23.6860
  29   2.0000      -0.848602       -23.0916
  30   2.0000      -0.843677       -22.9576
  31   2.0000      -0.810277       -22.0488
  32   2.0000      -0.781328       -21.2610
  33   2.0000      -0.770664       -20.9708
  34   2.0000      -0.714431       -19.4407
  35   2.0000      -0.696548       -18.9540
  36   2.0000      -0.695110       -18.9149
  37   2.0000      -0.666654       -18.1406
  38   2.0000      -0.636837       -17.3292
  39   2.0000      -0.617773       -16.8105
  40   2.0000      -0.598684       -16.2910
  41   2.0000      -0.577383       -15.7114
  42   2.0000      -0.567834       -15.4515
  43   2.0000      -0.558784       -15.2053
  44   2.0000      -0.526233       -14.3195
  45   2.0000      -0.521145       -14.1811
  46   2.0000      -0.513516       -13.9735
  47   2.0000      -0.510122       -13.8811
  48   2.0000      -0.504984       -13.7413
  49   2.0000      -0.496960       -13.5230
  50   2.0000      -0.494088       -13.4448
  51   2.0000      -0.483583       -13.1590
  52   2.0000      -0.472997       -12.8709
  53   2.0000      -0.462903       -12.5962
  54   2.0000      -0.459174       -12.4948
  55   2.0000      -0.446450       -12.1485
  56   2.0000      -0.442510       -12.0413
  57   2.0000      -0.437683       -11.9100
  58   2.0000      -0.435909       -11.8617
  59   2.0000      -0.430428       -11.7125
  60   2.0000      -0.419725       -11.4213
  61   2.0000      -0.418335       -11.3835
  62   2.0000      -0.415467       -11.3054
  63   2.0000      -0.356677        -9.7057
  64   2.0000      -0.331156        -9.0112
  65   2.0000      -0.326508        -8.8847
  66   2.0000      -0.280180        -7.6241
  67   0.0000       0.013630         0.3709
  68   0.0000       0.062897         1.7115
  69   0.0000       0.098421         2.6782
  70   0.0000       0.110209         2.9989
  71   0.0000       0.122456         3.3322

MULLIKEN ATOMIC CHARGES
-----------------------
   0 S :    0.107212
   1 C :   -0.119985
   2 C :   -0.120063
   3 C :    0.014419
   4 C :   -0.122893
   5 H :   -0.008807
   6 C :    0.093027
   7 H :    0.034555
   8 H :    0.025770
   9 C :   -0.099665
  10 H :    0.028862
  11 H :    0.034723
  12 C :   -0.051479
  13 H :    0.034333
  14 H :    0.030166
  15 H :    0.042885
  16 S :    0.077501
  17 C :   -0.084517
  18 C :   -0.007047
  19 C :   -0.041980
  20 C :   -0.134076
  21 H :    0.026287
  22 C :    0.010510
  23 H :    0.014845
  24 H :    0.044728
  25 C :   -0.047289
  26 H :    0.036244
  27 H :    0.013800
  28 C :   -0.026594
  29 H :    0.028184
  30 H :    0.025328
  31 H :    0.020211
  32 H :    0.064219
  33 H :    0.056586
Sum of atomic charges:    0.0000000

LOEWDIN ATOMIC CHARGES
----------------------
   0 S :    0.383050
   1 C :   -0.207814
   2 C :   -0.055308
   3 C :   -0.066835
   4 C :   -0.182370
   5 H :    0.022245
   6 C :   -0.024624
   7 H :    0.033934
   8 H :    0.034184
   9 C :   -0.048343
  10 H :    0.025391
  11 H :    0.029306
  12 C :   -0.076413
  13 H :    0.029108
  14 H :    0.023105
  15 H :    0.032907
  16 S :    0.360881
  17 C :   -0.162576
  18 C :   -0.072197
  19 C :   -0.048089
  20 C :   -0.171739
  21 H :    0.035344
  22 C :   -0.029298
  23 H :    0.025322
  24 H :    0.032651
  25 C :   -0.020441
  26 H :    0.016763
  27 H :    0.014820
  28 C :   -0.056606
  29 H :    0.025344
  30 H :    0.017937
  31 H :    0.019633
  32 H :    0.038812
  33 H :    0.021916

  Mayer bond orders larger than 0.100000
B(  0-S ,  1-C ) :   1.1247 B(  0-S ,  4-C ) :   1.1246 B(  1-C ,  2-C ) :   1.6195
B(  1-C , 32-H ) :   0.9518 B(  2-C ,  3-C ) :   1.2404 B(  2-C ,  6-C ) :   1.0373
B(  3-C ,  4-C ) :   1.5662 B(  3-C ,  5-H ) :   0.9854 B(  4-C , 20-C ) :   1.1173
B(  6-C ,  7-H ) :   0.9335 B(  6-C ,  8-H ) :   0.9340 B(  6-C ,  9-C ) :   1.0711
B(  9-C , 10-H ) :   0.9536 B(  9-C , 11-H ) :   0.9547 B(  9-C , 12-C ) :   1.0859
B( 12-C , 13-H ) :   0.9722 B( 12-C , 14-H ) :   0.9696 B( 12-C , 15-H ) :   0.9729
B( 16-S , 17-C ) :   1.1583 B( 16-S , 20-C ) :   1.1056 B( 17-C , 18-C ) :   1.5884
B( 17-C , 20-C ) :   0.1026 B( 17-C , 33-H ) :   0.9725 B( 18-C , 19-C ) :   1.2522
B( 18-C , 21-H ) :   0.9868 B( 19-C , 20-C ) :   1.5768 B( 19-C , 22-C ) :   1.0358
B( 22-C , 23-H ) :   0.9413 B( 22-C , 24-H ) :   0.9424 B( 22-C , 25-C ) :   1.0482
B( 25-C , 26-H ) :   0.9643 B( 25-C , 27-H ) :   0.9544 B( 25-C , 28-C ) :   1.0736
B( 28-C , 29-H ) :   0.9781 B( 28-C , 30-H ) :   0.9759 B( 28-C , 31-H ) :   0.9762

Dispersion correction           -0.014220113
FINAL SINGLE POINT ENERGY     -1339.864144124148

DIPOLE MOMENT
-------------
                                X             Y             Z
Electronic contribution:     16.59824      -0.45378     -28.58932
Nuclear contribution   :    -17.11719       0.11015      29.10616
                        -----------------------------------------
Total Dipole Moment    :     -0.51895      -0.34363       0.51684
                        -----------------------------------------
Magnitude (a.u.)       :      0.80902
Magnitude (Debye)      :      2.05636

Rotational constants in cm-1:     0.018721     0.008873     0.006440
Rotational constants in MHz :   561.256344   266.019408   193.079346

                             ****ORCA TERMINATED NORMALLY****
TOTAL RUN TIME: 0 days 0 hours 0 minutes 30 seconds 832 msec
