                         Program Version 4.2.1 -  RELEASE  -
|  1> ! wB97X-D3 SP def2-SVP
|  2> %pal
|  3> nprocs 16
|  4> end
|  5>
|  6> * xyz 0 1
|  7> S 	 40.0012 	 26.4073 	 82.125
|  8> C 	 38.6033 	 27.1199 	 82.8504
|  9> C 	 38.9198 	 27.8054 	 84.0058
| 10> C 	 40.3324 	 27.8178 	 84.3053
| 11> C 	 41.0706 	 27.1385 	 83.4052
| 12> H 	 40.7271 	 28.2705 	 85.212
| 13> C 	 37.8923 	 28.1878 	 85.0811
| 14> H 	 36.9346 	 28.2708 	 84.6261
| 15> H 	 38.2055 	 29.2065 	 85.3831
| 16> C 	 37.8036 	 27.1861 	 86.2224
| 17> H 	 37.4778 	 26.2294 	 85.7532
| 18> H 	 38.6771 	 27.0476 	 86.8153
| 19> C 	 36.7068 	 27.5222 	 87.2369
| 20> H 	 37.1139 	 27.5213 	 88.2347
| 21> H 	 36.3233 	 28.5225 	 87.0969
| 22> H 	 35.9706 	 26.7954 	 87.2237
| 23> S 	 43.3887 	 27.5571 	 82.0141
| 24> C 	 44.9215 	 27.1208 	 82.7647
| 25> C 	 44.7525 	 26.6055 	 84.0236
| 26> C 	 43.4027 	 26.3615 	 84.34
| 27> C 	 42.5234 	 26.9928 	 83.4135
| 28> H 	 45.5998 	 26.2348 	 84.568
| 29> C 	 43.1003 	 25.8657 	 85.7136
| 30> H 	 43.8036 	 25.0229 	 85.8049
| 31> H 	 42.1023 	 25.5046 	 85.6831
| 32> C 	 43.3078 	 26.9865 	 86.7054
| 33> H 	 42.7604 	 27.813 	 86.2336
| 34> H 	 44.2905 	 27.3965 	 86.7105
| 35> C 	 42.7525 	 26.7746 	 88.134
| 36> H 	 42.801 	 27.5195 	 88.9033
| 37> H 	 43.3126 	 26.0286 	 88.523
| 38> H 	 41.7384 	 26.3588 	 88.1641
| 39> H 	 37.5826 	 27.0765 	 82.4608
| 40> H 	 45.8911 	 27.1341 	 82.3339
| 41> *
| 42>
| 43>                          ****END OF INPUT****

CARTESIAN COORDINATES (ANGSTROEM)
---------------------------------
  S     40.001200   26.407300   82.125000
  C     38.603300   27.119900   82.850400
  C     38.919800   27.805400   84.005800
  C     40.332400   27.817800   84.305300
  C     41.070600   27.138500   83.405200
  H     40.727100   28.270500   85.212000
  C     37.892300   28.187800   85.081100
  H     36.934600   28.270800   84.626100
  H     38.205500   29.206500   85.383100
  C     37.803600   27.186100   86.222400
  H     37.477800   26.229400   85.753200
  H     38.677100   27.047600   86.815300
  C     36.706800   27.522200   87.236900
  H     37.113900   27.521300   88.234700
  H     36.323300   28.522500   87.096900
  H     35.970600   26.795400   87.223700
  S     43.388700   27.557100   82.014100
  C     44.921500   27.120800   82.764700
  C     44.752500   26.605500   84.023600
  C     43.402700   26.361500   84.340000
  C     42.523400   26.992800   83.413500
  H     45.599800   26.234800   84.568000
  C     43.100300   25.865700   85.713600
  H     43.803600   25.022900   85.804900
  H     42.102300   25.504600   85.683100
  C     43.307800   26.986500   86.705400
  H     42.760400   27.813000   86.233600
  H     44.290500   27.396500   86.710500
  C     42.752500   26.774600   88.134000
  H     42.801000   27.519500   88.903300
  H     43.312600   26.028600   88.523000
  H     41.738400   26.358800   88.164100
  H     37.582600   27.076500   82.460800
  H     45.891100   27.134100   82.333900

 Total Charge           Charge          ....    0
 Multiplicity           Mult            ....    1
 Number of Electrons    NEL             ....  134
 Basis Dimension        Dim             ....  322

ORBITAL ENERGIES
----------------

  NO   OCC          E(Eh)            E(eV)
   0   2.0000     -88.967062     -2420.9168
   1   2.0000     -88.963952     -2420.8322
   2   2.0000     -10.330451      -281.1059
   3   2.0000     -10.326801      -281.0065
   4   2.0000     -10.314077      -280.6603
   5   2.0000     -10.313194      -280.6363
   6   2.0000     -10.300540      -280.2920
   7   2.0000     -10.297113      -280.1987
   8   2.0000     -10.293603      -280.1032
   9   2.0000     -10.291456      -280.0448
  10   2.0000     -10.287514      -279.9375
  11   2.0000     -10.287107      -279.9264
  12   2.0000     -10.286062      -279.8980
  13   2.0000     -10.283854      -279.8379
  14   2.0000     -10.270018      -279.4614
  15   2.0000     -10.267314      -279.3878
  16   2.0000      -8.081599      -219.9115
  17   2.0000      -8.078195      -219.8189
  18   2.0000      -6.040102      -164.3595
  19   2.0000      -6.036840      -164.2708
  20   2.0000      -6.036054      -164.2494
  21   2.0000      -6.032864      -164.1626
  22   2.0000      -6.032461      -164.1516
  23   2.0000      -6.028737      -164.0503
  24   2.0000      -1.004119       -27.3235
  25   2.0000      -0.982972       -26.7480
  26   2.0000      -0.917374       -24.9630
  27   2.0000      -0.911170       -24.7942
  28   2.0000      -0.871880       -23.7251
  29   2.0000      -0.852860       -23.2075
  30   2.0000      -0.848043       -23.0764
  31   2.0000      -0.819719       -22.3057
  32   2.0000      -0.784003       -21.3338
  33   2.0000      -0.768365       -20.9083
  34   2.0000      -0.714396       -19.4397
  35   2.0000      -0.701919       -19.1002
  36   2.0000      -0.695783       -18.9332
  37   2.0000      -0.663234       -18.0475
  38   2.0000      -0.640814       -17.4374
  39   2.0000      -0.624068       -16.9817
  40   2.0000      -0.594511       -16.1775
  41   2.0000      -0.571763       -15.5585
  42   2.0000      -0.565494       -15.3879
  43   2.0000      -0.559228       -15.2174
  44   2.0000      -0.527523       -14.3546
  45   2.0000      -0.525161       -14.2904
  46   2.0000      -0.522951       -14.2302
  47   2.0000      -0.514343       -13.9960
  48   2.0000      -0.509351       -13.8601
  49   2.0000      -0.498974       -13.5778
  50   2.0000      -0.498348       -13.5607
  51   2.0000      -0.479275       -13.0417
  52   2.0000      -0.471390       -12.8272
  53   2.0000      -0.464635       -12.6433
  54   2.0000      -0.455765       -12.4020
  55   2.0000      -0.451662       -12.2903
  56   2.0000      -0.447501       -12.1771
  57   2.0000      -0.438702       -11.9377
  58   2.0000      -0.435669       -11.8552
  59   2.0000      -0.431323       -11.7369
  60   2.0000      -0.424060       -11.5393
  61   2.0000      -0.410843       -11.1796
  62   2.0000      -0.409186       -11.1345
  63   2.0000      -0.346367        -9.4251
  64   2.0000      -0.332475        -9.0471
  65   2.0000      -0.321537        -8.7495
  66   2.0000      -0.296697        -8.0735
  67   0.0000       0.033157         0.9023
  68   0.0000       0.065654         1.7865
  69   0.0000       0.111816         3.0427
  70   0.0000       0.117983         3.2105
  71   0.0000       0.127292         3.4638

MULLIKEN ATOMIC CHARGES
-----------------------
   0 S :    0.105304
   1 C :   -0.119631
   2 C :   -0.101498
   3 C :    0.029887
   4 C :   -0.132706
   5 H :    0.018935
   6 C :    0.066382
   7 H :    0.009196
   8 H :    0.027172
   9 C :   -0.073603
  10 H :    0.032358
  11 H :    0.025265
  12 C :   -0.005635
  13 H :    0.018703
  14 H :    0.024752
  15 H :    0.019215
  16 S :    0.120674
  17 C :   -0.071938
  18 C :   -0.041493
  19 C :   -0.067177
  20 C :   -0.183907
  21 H :    0.017469
  22 C :    0.109445
  23 H :    0.026634
  24 H :    0.018554
  25 C :   -0.063482
  26 H :    0.015975
  27 H :    0.017914
  28 C :    0.015359
  29 H :    0.028262
  30 H :   -0.004123
  31 H :    0.021635
  32 H :    0.054610
  33 H :    0.041494
Sum of atomic charges:   -0.0000000

LOEWDIN ATOMIC CHARGES
----------------------
   0 S :    0.377129
   1 C :   -0.201611
   2 C :   -0.068710
   3 C :   -0.053721
   4 C :   -0.176500
   5 H :    0.033903
   6 C :   -0.029310
   7 H :    0.023237
   8 H :    0.028956
   9 C :   -0.038380
  10 H :    0.031598
  11 H :    0.019126
  12 C :   -0.056891
  13 H :    0.025798
  14 H :    0.024093
  15 H :    0.016323
  16 S :    0.415953
  17 C :   -0.175961
  18 C :   -0.072413
  19 C :   -0.049828
  20 C :   -0.208983
  21 H :    0.030588
  22 C :   -0.025778
  23 H :    0.032276
  24 H :    0.027461
  25 C :   -0.035130
  26 H :    0.023597
  27 H :    0.022835
  28 C :   -0.064389
  29 H :    0.026679
  30 H :    0.012203
  31 H :    0.027977
  32 H :    0.033696
  33 H :    0.024176

  Mayer bond orders larger than 0.100000
B(  0-S ,  1-C ) :   1.1309 B(  0-S ,  4-C ) :   1.1153 B(  1-C ,  2-C ) :   1.6400
B(  1-C , 32-H ) :   0.9615 B(  2-C ,  3-C ) :   1.2115 B(  2-C ,  6-C ) :   1.0359
B(  3-C ,  4-C ) :   1.6182 B(  3-C ,  5-H ) :   0.9922 B(  4-C , 20-C ) :   1.0419
B(  6-C ,  7-H ) :   0.9416 B(  6-C ,  8-H ) :   0.9328 B(  6-C ,  9-C ) :   1.0720
B(  9-C , 10-H ) :   0.9615 B(  9-C , 11-H ) :   0.9636 B(  9-C , 12-C ) :   1.0682
B( 12-C , 13-H ) :   0.9775 B( 12-C , 14-H ) :   0.9762 B( 12-C , 15-H ) :   0.9791
B( 16-S , 17-C ) :   1.1554 B( 16-S , 20-C ) :   1.1544 B( 17-C , 18-C ) :   1.6112
B( 17-C , 20-C ) :   0.1041 B( 17-C , 33-H ) :   0.9691 B( 18-C , 19-C ) :   1.2514
B( 18-C , 21-H ) :   0.9837 B( 19-C , 20-C ) :   1.5525 B( 19-C , 22-C ) :   1.0643
B( 22-C , 23-H ) :   0.9231 B( 22-C , 24-H ) :   0.9253 B( 22-C , 25-C ) :   1.0565
B( 25-C , 26-H ) :   0.9535 B( 25-C , 27-H ) :   0.9505 B( 25-C , 28-C ) :   1.0705
B( 28-C , 29-H ) :   0.9752 B( 28-C , 30-H ) :   0.9663 B( 28-C , 31-H ) :   0.9725

Dispersion correction           -0.014645797
FINAL SINGLE POINT ENERGY     -1339.862388015987

DIPOLE MOMENT
-------------
                                X             Y             Z
Electronic contribution:     10.49798      -0.64800     -30.65753
Nuclear contribution   :    -10.54282       0.57919      31.42273
                        -----------------------------------------
Total Dipole Moment    :     -0.04484      -0.06881       0.76520
                        -----------------------------------------
Magnitude (a.u.)       :      0.76959
Magnitude (Debye)      :      1.95615

Rotational constants in cm-1:     0.017900     0.009542     0.006646
Rotational constants in MHz :   536.624521   286.048762   199.253353

                             ****ORCA TERMINATED NORMALLY****
TOTAL RUN TIME: 0 days 0 hours 0 minutes 31 seconds 614 msec
