                         Program Version 4.2.1 -  RELEASE  -
|  1> ! wB97X-D3 SP def2-SVP
|  2> %pal
|  3> nprocs 16
|  4> end
|  5>
|  6> * xyz 0 1
|  7> S 	 -42.7075 	 56.1358 	 100.308
|  8> C 	 -42.2732 	 55.9086 	 102.014
|  9> C 	 -43.1005 	 55.0383 	 102.653
| 10> C 	 -44.1313 	 54.5302 	 101.756
| 11> C 	 -44.1376 	 55.2085 	 100.533
| 12> H 	 -44.9397 	 53.8009 	 101.838
| 13> C 	 -42.8287 	 54.3747 	 103.993
| 14> H 	 -43.869 	 54.2349 	 104.357
| 15> H 	 -42.3415 	 55.1273 	 104.595
| 16> C 	 -41.9509 	 53.0921 	 103.988
| 17> H 	 -42.0766 	 52.6728 	 104.96
| 18> H 	 -42.3359 	 52.4657 	 103.234
| 19> C 	 -40.5172 	 53.3221 	 103.549
| 20> H 	 -39.949 	 53.9146 	 104.319
| 21> H 	 -39.8982 	 52.39 	 103.455
| 22> H 	 -40.4173 	 53.8548 	 102.624
| 23> S 	 -44.2645 	 54.3342 	 97.9333
| 24> C 	 -45.8534 	 54.3827 	 97.1124
| 25> C 	 -46.8473 	 54.7798 	 97.9335
| 26> C 	 -46.4507 	 55.1747 	 99.2281
| 27> C 	 -45.0294 	 55.0179 	 99.4066
| 28> H 	 -47.9019 	 54.8179 	 97.6199
| 29> C 	 -47.3589 	 55.7888 	 100.3
| 30> H 	 -48.1152 	 56.5395 	 99.9902
| 31> H 	 -46.6309 	 56.4055 	 100.833
| 32> C 	 -47.9775 	 54.8331 	 101.298
| 33> H 	 -47.1953 	 54.1131 	 101.652
| 34> H 	 -48.7413 	 54.2221 	 100.761
| 35> C 	 -48.3384 	 55.4379 	 102.669
| 36> H 	 -48.4955 	 54.7459 	 103.481
| 37> H 	 -49.1444 	 56.1018 	 102.601
| 38> H 	 -47.5074 	 56.0942 	 102.989
| 39> H 	 -41.4077 	 56.3475 	 102.434
| 40> H 	 -46.111 	 53.7909 	 96.3064
| 41> *
| 42>
| 43>                          ****END OF INPUT****

CARTESIAN COORDINATES (ANGSTROEM)
---------------------------------
  S    -42.707500   56.135800  100.308000
  C    -42.273200   55.908600  102.014000
  C    -43.100500   55.038300  102.653000
  C    -44.131300   54.530200  101.756000
  C    -44.137600   55.208500  100.533000
  H    -44.939700   53.800900  101.838000
  C    -42.828700   54.374700  103.993000
  H    -43.869000   54.234900  104.357000
  H    -42.341500   55.127300  104.595000
  C    -41.950900   53.092100  103.988000
  H    -42.076600   52.672800  104.960000
  H    -42.335900   52.465700  103.234000
  C    -40.517200   53.322100  103.549000
  H    -39.949000   53.914600  104.319000
  H    -39.898200   52.390000  103.455000
  H    -40.417300   53.854800  102.624000
  S    -44.264500   54.334200   97.933300
  C    -45.853400   54.382700   97.112400
  C    -46.847300   54.779800   97.933500
  C    -46.450700   55.174700   99.228100
  C    -45.029400   55.017900   99.406600
  H    -47.901900   54.817900   97.619900
  C    -47.358900   55.788800  100.300000
  H    -48.115200   56.539500   99.990200
  H    -46.630900   56.405500  100.833000
  C    -47.977500   54.833100  101.298000
  H    -47.195300   54.113100  101.652000
  H    -48.741300   54.222100  100.761000
  C    -48.338400   55.437900  102.669000
  H    -48.495500   54.745900  103.481000
  H    -49.144400   56.101800  102.601000
  H    -47.507400   56.094200  102.989000
  H    -41.407700   56.347500  102.434000
  H    -46.111000   53.790900   96.306400

 Total Charge           Charge          ....    0
 Multiplicity           Mult            ....    1
 Number of Electrons    NEL             ....  134
 Basis Dimension        Dim             ....  322

ORBITAL ENERGIES
----------------

  NO   OCC          E(Eh)            E(eV)
   0   2.0000     -88.968261     -2420.9495
   1   2.0000     -88.965306     -2420.8691
   2   2.0000     -10.335520      -281.2438
   3   2.0000     -10.328246      -281.0459
   4   2.0000     -10.312726      -280.6235
   5   2.0000     -10.311126      -280.5800
   6   2.0000     -10.310010      -280.5496
   7   2.0000     -10.304480      -280.3992
   8   2.0000     -10.299774      -280.2711
   9   2.0000     -10.294823      -280.1364
  10   2.0000     -10.293346      -280.0962
  11   2.0000     -10.292554      -280.0746
  12   2.0000     -10.290774      -280.0262
  13   2.0000     -10.285041      -279.8702
  14   2.0000     -10.281356      -279.7699
  15   2.0000     -10.275368      -279.6070
  16   2.0000      -8.081675      -219.9136
  17   2.0000      -8.080530      -219.8824
  18   2.0000      -6.040199      -164.3622
  19   2.0000      -6.038998      -164.3295
  20   2.0000      -6.036488      -164.2612
  21   2.0000      -6.035079      -164.2228
  22   2.0000      -6.032353      -164.1487
  23   2.0000      -6.031175      -164.1166
  24   2.0000      -1.005420       -27.3589
  25   2.0000      -0.979903       -26.6645
  26   2.0000      -0.914622       -24.8881
  27   2.0000      -0.907812       -24.7028
  28   2.0000      -0.872286       -23.7361
  29   2.0000      -0.848785       -23.0966
  30   2.0000      -0.845528       -23.0080
  31   2.0000      -0.815856       -22.2006
  32   2.0000      -0.784962       -21.3599
  33   2.0000      -0.773996       -21.0615
  34   2.0000      -0.712385       -19.3850
  35   2.0000      -0.701718       -19.0947
  36   2.0000      -0.694802       -18.9065
  37   2.0000      -0.658155       -17.9093
  38   2.0000      -0.648085       -17.6353
  39   2.0000      -0.613297       -16.6887
  40   2.0000      -0.597401       -16.2561
  41   2.0000      -0.570503       -15.5242
  42   2.0000      -0.563055       -15.3215
  43   2.0000      -0.547578       -14.9004
  44   2.0000      -0.542966       -14.7749
  45   2.0000      -0.524558       -14.2739
  46   2.0000      -0.515496       -14.0274
  47   2.0000      -0.513602       -13.9758
  48   2.0000      -0.507347       -13.8056
  49   2.0000      -0.498599       -13.5676
  50   2.0000      -0.490667       -13.3517
  51   2.0000      -0.483154       -13.1473
  52   2.0000      -0.471800       -12.8383
  53   2.0000      -0.464540       -12.6408
  54   2.0000      -0.456322       -12.4171
  55   2.0000      -0.448955       -12.2167
  56   2.0000      -0.441890       -12.0244
  57   2.0000      -0.437184       -11.8964
  58   2.0000      -0.434582       -11.8256
  59   2.0000      -0.425026       -11.5655
  60   2.0000      -0.420649       -11.4464
  61   2.0000      -0.418664       -11.3924
  62   2.0000      -0.408696       -11.1212
  63   2.0000      -0.346438        -9.4271
  64   2.0000      -0.334272        -9.0960
  65   2.0000      -0.328321        -8.9341
  66   2.0000      -0.293844        -7.9959
  67   0.0000       0.025806         0.7022
  68   0.0000       0.058359         1.5880
  69   0.0000       0.102832         2.7982
  70   0.0000       0.121899         3.3170
  71   0.0000       0.124914         3.3991

MULLIKEN ATOMIC CHARGES
-----------------------
   0 S :    0.105826
   1 C :   -0.105648
   2 C :   -0.090787
   3 C :    0.029589
   4 C :   -0.180357
   5 H :    0.021395
   6 C :    0.046749
   7 H :    0.034661
   8 H :    0.017566
   9 C :    0.012561
  10 H :    0.035128
  11 H :    0.019477
  12 C :   -0.092475
  13 H :    0.023472
  14 H :    0.042685
  15 H :    0.040468
  16 S :    0.092560
  17 C :   -0.041133
  18 C :   -0.056862
  19 C :   -0.007718
  20 C :   -0.180730
  21 H :    0.027159
  22 C :    0.050986
  23 H :    0.037630
  24 H :    0.021985
  25 C :   -0.085204
  26 H :    0.018848
  27 H :    0.034923
  28 C :   -0.026109
  29 H :    0.038356
  30 H :    0.014589
  31 H :    0.026619
  32 H :    0.034610
  33 H :    0.039181
Sum of atomic charges:    0.0000000

LOEWDIN ATOMIC CHARGES
----------------------
   0 S :    0.405730
   1 C :   -0.180117
   2 C :   -0.064746
   3 C :   -0.063545
   4 C :   -0.209114
   5 H :    0.032453
   6 C :   -0.029866
   7 H :    0.035495
   8 H :    0.025650
   9 C :   -0.029124
  10 H :    0.025672
  11 H :    0.021940
  12 C :   -0.071424
  13 H :    0.024318
  14 H :    0.033509
  15 H :    0.023324
  16 S :    0.376057
  17 C :   -0.171187
  18 C :   -0.068006
  19 C :   -0.049136
  20 C :   -0.182940
  21 H :    0.038016
  22 C :   -0.040067
  23 H :    0.034429
  24 H :    0.033656
  25 C :   -0.048191
  26 H :    0.025475
  27 H :    0.024818
  28 C :   -0.061378
  29 H :    0.026675
  30 H :    0.012897
  31 H :    0.031952
  32 H :    0.018898
  33 H :    0.017877

  Mayer bond orders larger than 0.100000
B(  0-S ,  1-C ) :   1.1233 B(  0-S ,  4-C ) :   1.1557 B(  1-C ,  2-C ) :   1.6340
B(  1-C , 32-H ) :   0.9737 B(  2-C ,  3-C ) :   1.1909 B(  2-C ,  6-C ) :   1.0267
B(  3-C ,  4-C ) :   1.5926 B(  3-C ,  5-H ) :   0.9867 B(  4-C , 20-C ) :   1.0342
B(  6-C ,  7-H ) :   0.9387 B(  6-C ,  8-H ) :   0.9396 B(  6-C ,  9-C ) :   1.0586
B(  9-C , 10-H ) :   0.9555 B(  9-C , 11-H ) :   0.9538 B(  9-C , 12-C ) :   1.0762
B( 12-C , 13-H ) :   0.9749 B( 12-C , 14-H ) :   0.9728 B( 12-C , 15-H ) :   0.9724
B( 16-S , 17-C ) :   1.1263 B( 16-S , 20-C ) :   1.1525 B( 17-C , 18-C ) :   1.6340
B( 17-C , 20-C ) :   0.1072 B( 17-C , 33-H ) :   0.9630 B( 18-C , 19-C ) :   1.2602
B( 18-C , 21-H ) :   0.9809 B( 19-C , 20-C ) :   1.5722 B( 19-C , 22-C ) :   1.0319
B( 22-C , 23-H ) :   0.9442 B( 22-C , 24-H ) :   0.9271 B( 22-C , 25-C ) :   1.0623
B( 25-C , 26-H ) :   0.9550 B( 25-C , 27-H ) :   0.9542 B( 25-C , 28-C ) :   1.0676
B( 28-C , 29-H ) :   0.9783 B( 28-C , 30-H ) :   0.9758 B( 28-C , 31-H ) :   0.9699

Dispersion correction           -0.014830225
FINAL SINGLE POINT ENERGY     -1339.863105614696

DIPOLE MOMENT
-------------
                                X             Y             Z
Electronic contribution:      6.37991       5.51764     -23.18978
Nuclear contribution   :     -6.65522      -5.79275      23.69462
                        -----------------------------------------
Total Dipole Moment    :     -0.27531      -0.27511       0.50484
                        -----------------------------------------
Magnitude (a.u.)       :      0.63745
Magnitude (Debye)      :      1.62027

Rotational constants in cm-1:     0.018456     0.009029     0.006967
Rotational constants in MHz :   553.285200   270.681774   208.854916

                             ****ORCA TERMINATED NORMALLY****
TOTAL RUN TIME: 0 days 0 hours 0 minutes 30 seconds 391 msec
