                         Program Version 4.2.1 -  RELEASE  -
|  1> ! wB97X-D3 SP def2-SVP
|  2> %pal
|  3> nprocs 16
|  4> end
|  5>
|  6> * xyz 0 1
|  7> S 	 9.06567 	 21.6773 	 63.6155
|  8> C 	 10.2454 	 20.4084 	 64.0938
|  9> C 	 11.1616 	 20.9271 	 64.9591
| 10> C 	 10.8044 	 22.219 	 65.3853
| 11> C 	 9.61472 	 22.7236 	 64.8465
| 12> H 	 11.3091 	 22.8076 	 66.1499
| 13> C 	 12.3576 	 20.1542 	 65.5483
| 14> H 	 13.1792 	 20.8523 	 65.6544
| 15> H 	 12.6268 	 19.4811 	 64.645
| 16> C 	 12.0497 	 19.2925 	 66.7239
| 17> H 	 12.9378 	 18.8098 	 67.0846
| 18> H 	 11.7427 	 19.9392 	 67.5764
| 19> C 	 10.8403 	 18.3042 	 66.6706
| 20> H 	 11.0218 	 17.5404 	 65.9517
| 21> H 	 10.6772 	 17.6728 	 67.6379
| 22> H 	 9.91483 	 18.7212 	 66.2993
| 23> S 	 8.68381 	 24.4842 	 66.6731
| 24> C 	 8.37065 	 26.104 	 66.1423
| 25> C 	 8.36559 	 26.2269 	 64.7532
| 26> C 	 8.80632 	 25.0098 	 64.0796
| 27> C 	 9.02756 	 24.0433 	 65.0263
| 28> H 	 8.19655 	 27.1821 	 64.2771
| 29> C 	 9.04962 	 24.9331 	 62.6511
| 30> H 	 9.94397 	 24.2398 	 62.5115
| 31> H 	 9.29439 	 25.9915 	 62.3775
| 32> C 	 7.82417 	 24.3823 	 61.9941
| 33> H 	 7.08801 	 25.1637 	 62.2523
| 34> H 	 7.50339 	 23.4724 	 62.5039
| 35> C 	 7.96429 	 24.1868 	 60.4732
| 36> H 	 8.58269 	 23.3042 	 60.2242
| 37> H 	 8.45149 	 25.1177 	 60.0318
| 38> H 	 6.92297 	 24.0801 	 60.0408
| 39> H 	 10.2959 	 19.4605 	 63.4775
| 40> H 	 7.90865 	 26.9426 	 66.7319
| 41> *
| 42>
| 43>                          ****END OF INPUT****

CARTESIAN COORDINATES (ANGSTROEM)
---------------------------------
  S      9.065670   21.677300   63.615500
  C     10.245400   20.408400   64.093800
  C     11.161600   20.927100   64.959100
  C     10.804400   22.219000   65.385300
  C      9.614720   22.723600   64.846500
  H     11.309100   22.807600   66.149900
  C     12.357600   20.154200   65.548300
  H     13.179200   20.852300   65.654400
  H     12.626800   19.481100   64.645000
  C     12.049700   19.292500   66.723900
  H     12.937800   18.809800   67.084600
  H     11.742700   19.939200   67.576400
  C     10.840300   18.304200   66.670600
  H     11.021800   17.540400   65.951700
  H     10.677200   17.672800   67.637900
  H      9.914830   18.721200   66.299300
  S      8.683810   24.484200   66.673100
  C      8.370650   26.104000   66.142300
  C      8.365590   26.226900   64.753200
  C      8.806320   25.009800   64.079600
  C      9.027560   24.043300   65.026300
  H      8.196550   27.182100   64.277100
  C      9.049620   24.933100   62.651100
  H      9.943970   24.239800   62.511500
  H      9.294390   25.991500   62.377500
  C      7.824170   24.382300   61.994100
  H      7.088010   25.163700   62.252300
  H      7.503390   23.472400   62.503900
  C      7.964290   24.186800   60.473200
  H      8.582690   23.304200   60.224200
  H      8.451490   25.117700   60.031800
  H      6.922970   24.080100   60.040800
  H     10.295900   19.460500   63.477500
  H      7.908650   26.942600   66.731900

 Total Charge           Charge          ....    0
 Multiplicity           Mult            ....    1
 Number of Electrons    NEL             ....  134
 Basis Dimension        Dim             ....  322

ORBITAL ENERGIES
----------------

  NO   OCC          E(Eh)            E(eV)
   0   2.0000     -88.968814     -2420.9645
   1   2.0000     -88.965678     -2420.8792
   2   2.0000     -10.326159      -280.9891
   3   2.0000     -10.321247      -280.8554
   4   2.0000     -10.319258      -280.8013
   5   2.0000     -10.318700      -280.7861
   6   2.0000     -10.301250      -280.3113
   7   2.0000     -10.300810      -280.2993
   8   2.0000     -10.298256      -280.2298
   9   2.0000     -10.295956      -280.1672
  10   2.0000     -10.291923      -280.0575
  11   2.0000     -10.290861      -280.0286
  12   2.0000     -10.288618      -279.9675
  13   2.0000     -10.287056      -279.9250
  14   2.0000     -10.283808      -279.8366
  15   2.0000     -10.280699      -279.7520
  16   2.0000      -8.083766      -219.9705
  17   2.0000      -8.080156      -219.8722
  18   2.0000      -6.042250      -164.4180
  19   2.0000      -6.038564      -164.3177
  20   2.0000      -6.038360      -164.3121
  21   2.0000      -6.034714      -164.2129
  22   2.0000      -6.034431      -164.2052
  23   2.0000      -6.031026      -164.1126
  24   2.0000      -1.011951       -27.5366
  25   2.0000      -0.986916       -26.8553
  26   2.0000      -0.922299       -25.0970
  27   2.0000      -0.912820       -24.8391
  28   2.0000      -0.866045       -23.5663
  29   2.0000      -0.850742       -23.1499
  30   2.0000      -0.842460       -22.9245
  31   2.0000      -0.807735       -21.9796
  32   2.0000      -0.787131       -21.4189
  33   2.0000      -0.772328       -21.0161
  34   2.0000      -0.706225       -19.2173
  35   2.0000      -0.695128       -18.9154
  36   2.0000      -0.688008       -18.7217
  37   2.0000      -0.667695       -18.1689
  38   2.0000      -0.636209       -17.3121
  39   2.0000      -0.613992       -16.7076
  40   2.0000      -0.591542       -16.0967
  41   2.0000      -0.570312       -15.5190
  42   2.0000      -0.566100       -15.4044
  43   2.0000      -0.543871       -14.7995
  44   2.0000      -0.541490       -14.7347
  45   2.0000      -0.524763       -14.2795
  46   2.0000      -0.520409       -14.1611
  47   2.0000      -0.509997       -13.8777
  48   2.0000      -0.502067       -13.6619
  49   2.0000      -0.494111       -13.4454
  50   2.0000      -0.487410       -13.2631
  51   2.0000      -0.474670       -12.9164
  52   2.0000      -0.464752       -12.6465
  53   2.0000      -0.462922       -12.5967
  54   2.0000      -0.459617       -12.5068
  55   2.0000      -0.451482       -12.2854
  56   2.0000      -0.448409       -12.2018
  57   2.0000      -0.437866       -11.9149
  58   2.0000      -0.437060       -11.8930
  59   2.0000      -0.425443       -11.5769
  60   2.0000      -0.420185       -11.4338
  61   2.0000      -0.409745       -11.1497
  62   2.0000      -0.402031       -10.9398
  63   2.0000      -0.343763        -9.3543
  64   2.0000      -0.335011        -9.1161
  65   2.0000      -0.330348        -8.9892
  66   2.0000      -0.292804        -7.9676
  67   0.0000       0.031199         0.8490
  68   0.0000       0.070236         1.9112
  69   0.0000       0.101222         2.7544
  70   0.0000       0.118414         3.2222
  71   0.0000       0.127569         3.4713

MULLIKEN ATOMIC CHARGES
-----------------------
   0 S :    0.078524
   1 C :   -0.159490
   2 C :   -0.080403
   3 C :    0.027228
   4 C :   -0.158098
   5 H :    0.009867
   6 C :    0.063383
   7 H :    0.034240
   8 H :    0.029982
   9 C :   -0.037771
  10 H :    0.030085
  11 H :    0.028262
  12 C :   -0.077439
  13 H :    0.006483
  14 H :    0.049804
  15 H :    0.048170
  16 S :    0.130243
  17 C :   -0.103420
  18 C :   -0.048999
  19 C :   -0.048951
  20 C :   -0.171779
  21 H :    0.017639
  22 C :    0.052645
  23 H :    0.045378
  24 H :    0.030140
  25 C :   -0.092957
  26 H :    0.020746
  27 H :    0.038531
  28 C :   -0.035361
  29 H :    0.043768
  30 H :    0.035548
  31 H :    0.047055
  32 H :    0.074425
  33 H :    0.072523
Sum of atomic charges:    0.0000000

LOEWDIN ATOMIC CHARGES
----------------------
   0 S :    0.419914
   1 C :   -0.195780
   2 C :   -0.066676
   3 C :   -0.071263
   4 C :   -0.204444
   5 H :    0.028999
   6 C :   -0.029896
   7 H :    0.033004
   8 H :    0.037295
   9 C :   -0.045199
  10 H :    0.024624
  11 H :    0.029358
  12 C :   -0.073775
  13 H :    0.013290
  14 H :    0.041770
  15 H :    0.025978
  16 S :    0.422639
  17 C :   -0.207406
  18 C :   -0.069351
  19 C :   -0.054075
  20 C :   -0.205237
  21 H :    0.028397
  22 C :   -0.045112
  23 H :    0.034692
  24 H :    0.036708
  25 C :   -0.048869
  26 H :    0.027431
  27 H :    0.012557
  28 C :   -0.071910
  29 H :    0.028021
  30 H :    0.030901
  31 H :    0.033466
  32 H :    0.038572
  33 H :    0.041377

  Mayer bond orders larger than 0.100000
B(  0-S ,  1-C ) :   1.1298 B(  0-S ,  4-C ) :   1.1705 B(  1-C ,  2-C ) :   1.5990
B(  1-C , 32-H ) :   0.9626 B(  2-C ,  3-C ) :   1.2625 B(  2-C ,  6-C ) :   1.0040
B(  3-C ,  4-C ) :   1.5522 B(  3-C ,  5-H ) :   0.9944 B(  4-C , 20-C ) :   1.0100
B(  6-C ,  7-H ) :   0.9418 B(  6-C ,  8-H ) :   0.9394 B(  6-C ,  9-C ) :   1.0761
B(  9-C , 10-H ) :   0.9545 B(  9-C , 11-H ) :   0.9522 B(  9-C , 12-C ) :   1.0689
B( 12-C , 13-H ) :   0.9738 B( 12-C , 14-H ) :   0.9739 B( 12-C , 15-H ) :   0.9702
B( 16-S , 17-C ) :   1.1445 B( 16-S , 20-C ) :   1.1455 B( 17-C , 18-C ) :   1.6385
B( 17-C , 33-H ) :   0.9551 B( 18-C , 19-C ) :   1.2228 B( 18-C , 21-H ) :   0.9822
B( 19-C , 20-C ) :   1.6044 B( 19-C , 22-C ) :   1.0502 B( 22-C , 23-H ) :   0.9207
B( 22-C , 24-H ) :   0.9213 B( 22-C , 25-C ) :   1.0630 B( 25-C , 26-H ) :   0.9484
B( 25-C , 27-H ) :   0.9485 B( 25-C , 28-C ) :   1.0763 B( 28-C , 29-H ) :   0.9722
B( 28-C , 30-H ) :   0.9703 B( 28-C , 31-H ) :   0.9743

Dispersion correction           -0.014928235
FINAL SINGLE POINT ENERGY     -1339.874150930469

DIPOLE MOMENT
-------------
                                X             Y             Z
Electronic contribution:     -5.39954       9.42777       7.79762
Nuclear contribution   :      5.66260      -9.37061      -7.94436
                        -----------------------------------------
Total Dipole Moment    :      0.26306       0.05716      -0.14674
                        -----------------------------------------
Magnitude (a.u.)       :      0.30659
Magnitude (Debye)      :      0.77929

Rotational constants in cm-1:     0.021469     0.008753     0.006746
Rotational constants in MHz :   643.620875   262.419371   202.225476

                             ****ORCA TERMINATED NORMALLY****
TOTAL RUN TIME: 0 days 0 hours 0 minutes 37 seconds 921 msec
