                         Program Version 4.2.1 -  RELEASE  -
|  1> ! wB97X-D3 SP def2-SVP
|  2> %pal
|  3> nprocs 16
|  4> end
|  5>
|  6> * xyz 0 1
|  7> S 	 -7.23739 	 49.7439 	 40.5117
|  8> C 	 -8.38945 	 48.6602 	 41.1685
|  9> C 	 -7.82462 	 47.5297 	 41.7263
| 10> C 	 -6.37619 	 47.6195 	 41.7966
| 11> C 	 -5.98655 	 48.7541 	 41.1992
| 12> H 	 -5.68107 	 46.983 	 42.277
| 13> C 	 -8.62009 	 46.4363 	 42.4703
| 14> H 	 -8.16683 	 45.4595 	 42.3666
| 15> H 	 -9.57307 	 46.4009 	 41.9359
| 16> C 	 -8.84181 	 46.6189 	 43.9176
| 17> H 	 -9.25127 	 45.7209 	 44.2184
| 18> H 	 -7.84176 	 46.7666 	 44.3755
| 19> C 	 -9.8481 	 47.7038 	 44.2386
| 20> H 	 -10.8901 	 47.4208 	 43.8914
| 21> H 	 -9.92783 	 47.8498 	 45.2717
| 22> H 	 -9.49587 	 48.6879 	 43.864
| 23> S 	 -3.86577 	 49.3065 	 39.4737
| 24> C 	 -2.4495 	 50.0523 	 40.1231
| 25> C 	 -2.51989 	 50.1234 	 41.4937
| 26> C 	 -3.75679 	 49.6214 	 42.0581
| 27> C 	 -4.63616 	 49.2286 	 41.1151
| 28> H 	 -1.67757 	 50.6252 	 41.8917
| 29> C 	 -4.1358 	 49.8643 	 43.5439
| 30> H 	 -5.11731 	 49.5701 	 43.7505
| 31> H 	 -4.11894 	 50.9036 	 43.7089
| 32> C 	 -3.13401 	 49.1167 	 44.4334
| 33> H 	 -2.09436 	 49.5126 	 44.4498
| 34> H 	 -3.00439 	 48.1074 	 44.087
| 35> C 	 -3.64494 	 49.0166 	 45.8553
| 36> H 	 -2.90167 	 48.6196 	 46.5965
| 37> H 	 -4.62995 	 48.5665 	 45.8449
| 38> H 	 -3.83092 	 49.9858 	 46.2055
| 39> H 	 -9.41119 	 48.913 	 41.1734
| 40> H 	 -1.577 	 50.5086 	 39.5805
| 41> *
| 42>
| 43>                          ****END OF INPUT****

CARTESIAN COORDINATES (ANGSTROEM)
---------------------------------
  S     -7.237390   49.743900   40.511700
  C     -8.389450   48.660200   41.168500
  C     -7.824620   47.529700   41.726300
  C     -6.376190   47.619500   41.796600
  C     -5.986550   48.754100   41.199200
  H     -5.681070   46.983000   42.277000
  C     -8.620090   46.436300   42.470300
  H     -8.166830   45.459500   42.366600
  H     -9.573070   46.400900   41.935900
  C     -8.841810   46.618900   43.917600
  H     -9.251270   45.720900   44.218400
  H     -7.841760   46.766600   44.375500
  C     -9.848100   47.703800   44.238600
  H    -10.890100   47.420800   43.891400
  H     -9.927830   47.849800   45.271700
  H     -9.495870   48.687900   43.864000
  S     -3.865770   49.306500   39.473700
  C     -2.449500   50.052300   40.123100
  C     -2.519890   50.123400   41.493700
  C     -3.756790   49.621400   42.058100
  C     -4.636160   49.228600   41.115100
  H     -1.677570   50.625200   41.891700
  C     -4.135800   49.864300   43.543900
  H     -5.117310   49.570100   43.750500
  H     -4.118940   50.903600   43.708900
  C     -3.134010   49.116700   44.433400
  H     -2.094360   49.512600   44.449800
  H     -3.004390   48.107400   44.087000
  C     -3.644940   49.016600   45.855300
  H     -2.901670   48.619600   46.596500
  H     -4.629950   48.566500   45.844900
  H     -3.830920   49.985800   46.205500
  H     -9.411190   48.913000   41.173400
  H     -1.577000   50.508600   39.580500

 Total Charge           Charge          ....    0
 Multiplicity           Mult            ....    1
 Number of Electrons    NEL             ....  134
 Basis Dimension        Dim             ....  322

ORBITAL ENERGIES
----------------

  NO   OCC          E(Eh)            E(eV)
   0   2.0000     -88.965760     -2420.8814
   1   2.0000     -88.956761     -2420.6365
   2   2.0000     -10.319717      -280.8138
   3   2.0000     -10.319382      -280.8047
   4   2.0000     -10.315614      -280.7021
   5   2.0000     -10.308973      -280.5214
   6   2.0000     -10.302997      -280.3588
   7   2.0000     -10.302431      -280.3434
   8   2.0000     -10.292139      -280.0633
   9   2.0000     -10.287552      -279.9385
  10   2.0000     -10.286044      -279.8975
  11   2.0000     -10.285633      -279.8863
  12   2.0000     -10.282637      -279.8048
  13   2.0000     -10.278078      -279.6807
  14   2.0000     -10.277421      -279.6628
  15   2.0000     -10.272271      -279.5227
  16   2.0000      -8.081841      -219.9181
  17   2.0000      -8.071444      -219.6352
  18   2.0000      -6.040209      -164.3625
  19   2.0000      -6.036298      -164.2560
  20   2.0000      -6.032527      -164.1534
  21   2.0000      -6.030048      -164.0859
  22   2.0000      -6.026038      -163.9768
  23   2.0000      -6.022018      -163.8674
  24   2.0000      -1.011998       -27.5379
  25   2.0000      -0.983458       -26.7613
  26   2.0000      -0.921727       -25.0815
  27   2.0000      -0.911250       -24.7964
  28   2.0000      -0.874618       -23.7996
  29   2.0000      -0.854069       -23.2404
  30   2.0000      -0.845694       -23.0125
  31   2.0000      -0.814355       -22.1597
  32   2.0000      -0.786581       -21.4040
  33   2.0000      -0.775442       -21.1009
  34   2.0000      -0.707456       -19.2509
  35   2.0000      -0.701676       -19.0936
  36   2.0000      -0.692648       -18.8479
  37   2.0000      -0.657105       -17.8807
  38   2.0000      -0.647280       -17.6134
  39   2.0000      -0.621267       -16.9055
  40   2.0000      -0.592609       -16.1257
  41   2.0000      -0.573969       -15.6185
  42   2.0000      -0.568554       -15.4711
  43   2.0000      -0.556101       -15.1323
  44   2.0000      -0.548980       -14.9385
  45   2.0000      -0.529572       -14.4104
  46   2.0000      -0.519134       -14.1264
  47   2.0000      -0.511510       -13.9189
  48   2.0000      -0.505486       -13.7550
  49   2.0000      -0.501271       -13.6403
  50   2.0000      -0.487644       -13.2695
  51   2.0000      -0.478899       -13.0315
  52   2.0000      -0.471152       -12.8207
  53   2.0000      -0.467386       -12.7182
  54   2.0000      -0.460090       -12.5197
  55   2.0000      -0.452889       -12.3237
  56   2.0000      -0.441797       -12.0219
  57   2.0000      -0.439001       -11.9458
  58   2.0000      -0.434777       -11.8309
  59   2.0000      -0.426274       -11.5995
  60   2.0000      -0.418898       -11.3988
  61   2.0000      -0.416178       -11.3248
  62   2.0000      -0.408684       -11.1209
  63   2.0000      -0.343274        -9.3410
  64   2.0000      -0.334690        -9.1074
  65   2.0000      -0.323334        -8.7984
  66   2.0000      -0.301347        -8.2001
  67   0.0000       0.043306         1.1784
  68   0.0000       0.066553         1.8110
  69   0.0000       0.119652         3.2559
  70   0.0000       0.121050         3.2939
  71   0.0000       0.125909         3.4262

MULLIKEN ATOMIC CHARGES
-----------------------
   0 S :    0.131029
   1 C :   -0.110485
   2 C :   -0.082291
   3 C :    0.051665
   4 C :   -0.176545
   5 H :    0.004293
   6 C :    0.057569
   7 H :    0.020061
   8 H :    0.012458
   9 C :   -0.012913
  10 H :    0.009455
  11 H :    0.025398
  12 C :   -0.054538
  13 H :    0.035591
  14 H :    0.017733
  15 H :    0.037143
  16 S :    0.087392
  17 C :   -0.111645
  18 C :   -0.039113
  19 C :    0.003525
  20 C :   -0.179462
  21 H :    0.002972
  22 C :    0.131075
  23 H :    0.002737
  24 H :    0.025993
  25 C :   -0.106387
  26 H :    0.033697
  27 H :    0.024614
  28 C :   -0.018438
  29 H :    0.042906
  30 H :    0.024247
  31 H :    0.001603
  32 H :    0.034278
  33 H :    0.074382
Sum of atomic charges:    0.0000000

LOEWDIN ATOMIC CHARGES
----------------------
   0 S :    0.426690
   1 C :   -0.197705
   2 C :   -0.056331
   3 C :   -0.047014
   4 C :   -0.196867
   5 H :    0.031350
   6 C :   -0.032716
   7 H :    0.029346
   8 H :    0.027835
   9 C :   -0.036904
  10 H :    0.016861
  11 H :    0.027339
  12 C :   -0.065492
  13 H :    0.032312
  14 H :    0.016955
  15 H :    0.028102
  16 S :    0.368002
  17 C :   -0.195703
  18 C :   -0.077481
  19 C :   -0.050307
  20 C :   -0.182362
  21 H :    0.025294
  22 C :   -0.009400
  23 H :    0.020198
  24 H :    0.028356
  25 C :   -0.042672
  26 H :    0.026962
  27 H :    0.020058
  28 C :   -0.067054
  29 H :    0.033186
  30 H :    0.023675
  31 H :    0.014040
  32 H :    0.016625
  33 H :    0.044822

  Mayer bond orders larger than 0.100000
B(  0-S ,  1-C ) :   1.1394 B(  0-S ,  4-C ) :   1.1518 B(  1-C ,  2-C ) :   1.6311
B(  1-C , 32-H ) :   0.9748 B(  2-C ,  3-C ) :   1.1809 B(  2-C ,  6-C ) :   1.0314
B(  3-C ,  4-C ) :   1.6228 B(  3-C ,  5-H ) :   1.0085 B(  4-C , 20-C ) :   1.0118
B(  6-C ,  7-H ) :   0.9384 B(  6-C ,  8-H ) :   0.9334 B(  6-C ,  9-C ) :   1.0849
B(  9-C , 10-H ) :   0.9460 B(  9-C , 11-H ) :   0.9487 B(  9-C , 12-C ) :   1.0915
B( 12-C , 13-H ) :   0.9710 B( 12-C , 14-H ) :   0.9709 B( 12-C , 15-H ) :   0.9718
B( 16-S , 17-C ) :   1.1357 B( 16-S , 20-C ) :   1.1097 B( 17-C , 18-C ) :   1.6770
B( 17-C , 33-H ) :   0.9567 B( 18-C , 19-C ) :   1.1574 B( 18-C , 21-H ) :   0.9966
B( 19-C , 20-C ) :   1.6727 B( 19-C , 22-C ) :   1.0397 B( 22-C , 23-H ) :   0.9374
B( 22-C , 24-H ) :   0.9353 B( 22-C , 25-C ) :   1.0453 B( 25-C , 26-H ) :   0.9535
B( 25-C , 27-H ) :   0.9620 B( 25-C , 28-C ) :   1.0934 B( 28-C , 29-H ) :   0.9716
B( 28-C , 30-H ) :   0.9729 B( 28-C , 31-H ) :   0.9661

Dispersion correction           -0.014617458
FINAL SINGLE POINT ENERGY     -1339.869223281477

DIPOLE MOMENT
-------------
                                X             Y             Z
Electronic contribution:      6.00690       7.60414     -27.94793
Nuclear contribution   :     -6.09154      -7.65092      28.67128
                        -----------------------------------------
Total Dipole Moment    :     -0.08464      -0.04678       0.72335
                        -----------------------------------------
Magnitude (a.u.)       :      0.72979
Magnitude (Debye)      :      1.85497

Rotational constants in cm-1:     0.018041     0.009542     0.006893
Rotational constants in MHz :   540.859382   286.049249   206.660895

                             ****ORCA TERMINATED NORMALLY****
TOTAL RUN TIME: 0 days 0 hours 0 minutes 34 seconds 511 msec
