                         Program Version 4.2.1 -  RELEASE  -
|  1> ! wB97X-D3 SP def2-SVP
|  2> %pal
|  3> nprocs 16
|  4> end
|  5>
|  6> * xyz 0 1
|  7> S 	 24.6245 	 -0.575982 	 82.5733
|  8> C 	 25.9888 	 0.40078 	 83.0346
|  9> C 	 25.5009 	 1.62698 	 83.4997
| 10> C 	 24.0297 	 1.69866 	 83.6598
| 11> C 	 23.3987 	 0.631625 	 83.055
| 12> H 	 23.4338 	 2.55097 	 83.9195
| 13> C 	 26.4256 	 2.82288 	 83.9056
| 14> H 	 27.0649 	 2.60643 	 84.7488
| 15> H 	 25.8682 	 3.73279 	 84.2326
| 16> C 	 27.2089 	 3.27643 	 82.6063
| 17> H 	 27.5938 	 2.41803 	 82.046
| 18> H 	 26.565 	 3.67039 	 81.8524
| 19> C 	 28.2607 	 4.28375 	 83.0611
| 20> H 	 29.0206 	 3.92416 	 83.7525
| 21> H 	 28.8241 	 4.61857 	 82.2439
| 22> H 	 27.9167 	 5.11365 	 83.629
| 23> S 	 21.3059 	 -0.584069 	 84.2024
| 24> C 	 19.7183 	 -0.598045 	 83.527
| 25> C 	 19.7044 	 0.136874 	 82.3195
| 26> C 	 21.0296 	 0.671187 	 81.9982
| 27> C 	 21.9953 	 0.336092 	 82.9397
| 28> H 	 18.752 	 0.349101 	 81.8767
| 29> C 	 21.3125 	 1.51631 	 80.7654
| 30> H 	 21.1858 	 0.850825 	 79.8391
| 31> H 	 22.4151 	 1.84105 	 80.7819
| 32> C 	 20.3304 	 2.66373 	 80.5008
| 33> H 	 20.4083 	 3.31371 	 81.3745
| 34> H 	 19.3187 	 2.2366 	 80.5246
| 35> C 	 20.466 	 3.38532 	 79.1264
| 36> H 	 21.4161 	 3.95876 	 79.0867
| 37> H 	 19.6897 	 4.14207 	 78.9669
| 38> H 	 20.416 	 2.76883 	 78.163
| 39> H 	 26.9635 	 0.263108 	 82.6436
| 40> H 	 18.882 	 -0.798653 	 84.1032
| 41> *
| 42>
| 43>                          ****END OF INPUT****

CARTESIAN COORDINATES (ANGSTROEM)
---------------------------------
  S     24.624500   -0.575982   82.573300
  C     25.988800    0.400780   83.034600
  C     25.500900    1.626980   83.499700
  C     24.029700    1.698660   83.659800
  C     23.398700    0.631625   83.055000
  H     23.433800    2.550970   83.919500
  C     26.425600    2.822880   83.905600
  H     27.064900    2.606430   84.748800
  H     25.868200    3.732790   84.232600
  C     27.208900    3.276430   82.606300
  H     27.593800    2.418030   82.046000
  H     26.565000    3.670390   81.852400
  C     28.260700    4.283750   83.061100
  H     29.020600    3.924160   83.752500
  H     28.824100    4.618570   82.243900
  H     27.916700    5.113650   83.629000
  S     21.305900   -0.584069   84.202400
  C     19.718300   -0.598045   83.527000
  C     19.704400    0.136874   82.319500
  C     21.029600    0.671187   81.998200
  C     21.995300    0.336092   82.939700
  H     18.752000    0.349101   81.876700
  C     21.312500    1.516310   80.765400
  H     21.185800    0.850825   79.839100
  H     22.415100    1.841050   80.781900
  C     20.330400    2.663730   80.500800
  H     20.408300    3.313710   81.374500
  H     19.318700    2.236600   80.524600
  C     20.466000    3.385320   79.126400
  H     21.416100    3.958760   79.086700
  H     19.689700    4.142070   78.966900
  H     20.416000    2.768830   78.163000
  H     26.963500    0.263108   82.643600
  H     18.882000   -0.798653   84.103200

 Total Charge           Charge          ....    0
 Multiplicity           Mult            ....    1
 Number of Electrons    NEL             ....  134
 Basis Dimension        Dim             ....  322

ORBITAL ENERGIES
----------------

  NO   OCC          E(Eh)            E(eV)
   0   2.0000     -88.963781     -2420.8276
   1   2.0000     -88.961767     -2420.7727
   2   2.0000     -10.332572      -281.1636
   3   2.0000     -10.323309      -280.9115
   4   2.0000     -10.315193      -280.6907
   5   2.0000     -10.314349      -280.6677
   6   2.0000     -10.312158      -280.6081
   7   2.0000     -10.311153      -280.5807
   8   2.0000     -10.301494      -280.3179
   9   2.0000     -10.300772      -280.2982
  10   2.0000     -10.299965      -280.2763
  11   2.0000     -10.298223      -280.2289
  12   2.0000     -10.291959      -280.0584
  13   2.0000     -10.289596      -279.9941
  14   2.0000     -10.288785      -279.9721
  15   2.0000     -10.269966      -279.4600
  16   2.0000      -8.079804      -219.8627
  17   2.0000      -8.076275      -219.7666
  18   2.0000      -6.038214      -164.3082
  19   2.0000      -6.034945      -164.2192
  20   2.0000      -6.033860      -164.1897
  21   2.0000      -6.030833      -164.1073
  22   2.0000      -6.030631      -164.1018
  23   2.0000      -6.027025      -164.0037
  24   2.0000      -1.008097       -27.4317
  25   2.0000      -0.980255       -26.6741
  26   2.0000      -0.905036       -24.6273
  27   2.0000      -0.904313       -24.6076
  28   2.0000      -0.873676       -23.7739
  29   2.0000      -0.845072       -22.9956
  30   2.0000      -0.841585       -22.9007
  31   2.0000      -0.817524       -22.2460
  32   2.0000      -0.777567       -21.1587
  33   2.0000      -0.767491       -20.8845
  34   2.0000      -0.713463       -19.4143
  35   2.0000      -0.704436       -19.1687
  36   2.0000      -0.697866       -18.9899
  37   2.0000      -0.659538       -17.9469
  38   2.0000      -0.650030       -17.6882
  39   2.0000      -0.611465       -16.6388
  40   2.0000      -0.593676       -16.1547
  41   2.0000      -0.572785       -15.5863
  42   2.0000      -0.560629       -15.2555
  43   2.0000      -0.551075       -14.9955
  44   2.0000      -0.528481       -14.3807
  45   2.0000      -0.524227       -14.2650
  46   2.0000      -0.518793       -14.1171
  47   2.0000      -0.515157       -14.0181
  48   2.0000      -0.508487       -13.8366
  49   2.0000      -0.498462       -13.5638
  50   2.0000      -0.492208       -13.3937
  51   2.0000      -0.476877       -12.9765
  52   2.0000      -0.475689       -12.9442
  53   2.0000      -0.465156       -12.6575
  54   2.0000      -0.461008       -12.5447
  55   2.0000      -0.454153       -12.3581
  56   2.0000      -0.450210       -12.2508
  57   2.0000      -0.428331       -11.6555
  58   2.0000      -0.427334       -11.6284
  59   2.0000      -0.421673       -11.4743
  60   2.0000      -0.416806       -11.3419
  61   2.0000      -0.415477       -11.3057
  62   2.0000      -0.405808       -11.0426
  63   2.0000      -0.337696        -9.1892
  64   2.0000      -0.326830        -8.8935
  65   2.0000      -0.321643        -8.7523
  66   2.0000      -0.310682        -8.4541
  67   0.0000       0.042604         1.1593
  68   0.0000       0.048669         1.3244
  69   0.0000       0.112500         3.0613
  70   0.0000       0.119893         3.2625
  71   0.0000       0.128164         3.4875

MULLIKEN ATOMIC CHARGES
-----------------------
   0 S :    0.098517
   1 C :   -0.091477
   2 C :   -0.117678
   3 C :    0.078290
   4 C :   -0.189006
   5 H :    0.016123
   6 C :    0.035834
   7 H :    0.042932
   8 H :    0.027879
   9 C :   -0.077465
  10 H :    0.021168
  11 H :    0.025278
  12 C :   -0.004273
  13 H :    0.017759
  14 H :    0.017475
  15 H :    0.017234
  16 S :    0.126016
  17 C :   -0.078490
  18 C :   -0.045514
  19 C :   -0.000847
  20 C :   -0.180766
  21 H :    0.023542
  22 C :    0.027478
  23 H :    0.041252
  24 H :    0.048034
  25 C :   -0.084318
  26 H :    0.033393
  27 H :    0.029518
  28 C :   -0.076947
  29 H :    0.035377
  30 H :    0.035539
  31 H :    0.045886
  32 H :    0.055499
  33 H :    0.046758
Sum of atomic charges:   -0.0000000

LOEWDIN ATOMIC CHARGES
----------------------
   0 S :    0.394359
   1 C :   -0.201672
   2 C :   -0.053747
   3 C :   -0.056937
   4 C :   -0.187963
   5 H :    0.032298
   6 C :   -0.029625
   7 H :    0.028677
   8 H :    0.031730
   9 C :   -0.034707
  10 H :    0.021356
  11 H :    0.023740
  12 C :   -0.065959
  13 H :    0.026776
  14 H :    0.018879
  15 H :    0.022175
  16 S :    0.446967
  17 C :   -0.184956
  18 C :   -0.067352
  19 C :   -0.052171
  20 C :   -0.228210
  21 H :    0.027950
  22 C :   -0.044253
  23 H :    0.039340
  24 H :    0.037593
  25 C :   -0.045297
  26 H :    0.025443
  27 H :    0.023636
  28 C :   -0.078259
  29 H :    0.027040
  30 H :    0.027242
  31 H :    0.034996
  32 H :    0.024369
  33 H :    0.016543

  Mayer bond orders larger than 0.100000
B(  0-S ,  1-C ) :   1.1361 B(  0-S ,  4-C ) :   1.1456 B(  1-C ,  2-C ) :   1.6206
B(  1-C , 32-H ) :   0.9681 B(  2-C ,  3-C ) :   1.2173 B(  2-C ,  6-C ) :   1.0099
B(  3-C ,  4-C ) :   1.6108 B(  3-C ,  5-H ) :   0.9886 B(  4-C , 20-C ) :   1.0051
B(  6-C ,  7-H ) :   0.9571 B(  6-C ,  8-H ) :   0.9529 B(  6-C ,  9-C ) :   1.0378
B(  9-C , 10-H ) :   0.9636 B(  9-C , 11-H ) :   0.9555 B(  9-C , 12-C ) :   1.0752
B( 12-C , 13-H ) :   0.9732 B( 12-C , 14-H ) :   0.9706 B( 12-C , 15-H ) :   0.9712
B( 16-S , 17-C ) :   1.1829 B( 16-S , 20-C ) :   1.1733 B( 17-C , 18-C ) :   1.5846
B( 17-C , 20-C ) :   0.1006 B( 17-C , 33-H ) :   0.9737 B( 18-C , 19-C ) :   1.2374
B( 18-C , 21-H ) :   0.9914 B( 19-C , 20-C ) :   1.5815 B( 19-C , 22-C ) :   1.0506
B( 22-C , 23-H ) :   0.9328 B( 22-C , 24-H ) :   0.9371 B( 22-C , 25-C ) :   1.0486
B( 25-C , 26-H ) :   0.9575 B( 25-C , 27-H ) :   0.9542 B( 25-C , 28-C ) :   1.0768
B( 28-C , 29-H ) :   0.9759 B( 28-C , 30-H ) :   0.9753 B( 28-C , 31-H ) :   0.9736

Dispersion correction           -0.013507624
FINAL SINGLE POINT ENERGY     -1339.864670635707

DIPOLE MOMENT
-------------
                                X             Y             Z
Electronic contribution:     -7.71418     -24.71711      12.62417
Nuclear contribution   :      7.64582      25.48468     -12.83138
                        -----------------------------------------
Total Dipole Moment    :     -0.06836       0.76757      -0.20721
                        -----------------------------------------
Magnitude (a.u.)       :      0.79798
Magnitude (Debye)      :      2.02831

Rotational constants in cm-1:     0.018082     0.007799     0.006094
Rotational constants in MHz :   542.090659   233.794547   182.689341

                             ****ORCA TERMINATED NORMALLY****
TOTAL RUN TIME: 0 days 0 hours 0 minutes 31 seconds 552 msec
