                         Program Version 4.2.1 -  RELEASE  -
|  1> ! wB97X-D3 SP def2-SVP
|  2> %pal
|  3> nprocs 16
|  4> end
|  5>
|  6> * xyz 0 1
|  7> S 	 -55.1808 	 20.8311 	 85.8564
|  8> C 	 -53.7364 	 19.7517 	 86.2328
|  9> C 	 -52.6663 	 20.4815 	 86.6236
| 10> C 	 -52.9099 	 21.8779 	 86.5447
| 11> C 	 -54.1993 	 22.2575 	 86.1487
| 12> H 	 -52.0859 	 22.6094 	 86.751
| 13> C 	 -51.3185 	 19.8787 	 86.8718
| 14> H 	 -50.6138 	 20.3674 	 86.2474
| 15> H 	 -51.3989 	 18.8125 	 86.7408
| 16> C 	 -50.8115 	 20.0417 	 88.3466
| 17> H 	 -49.8812 	 19.4238 	 88.363
| 18> H 	 -50.6238 	 21.0991 	 88.4313
| 19> C 	 -51.7909 	 19.6952 	 89.4811
| 20> H 	 -52.737 	 20.0164 	 89.3405
| 21> H 	 -51.8761 	 18.5962 	 89.6403
| 22> H 	 -51.3561 	 20.1676 	 90.3987
| 23> S 	 -55.6569 	 24.3018 	 84.9602
| 24> C 	 -56.1027 	 25.7162 	 85.8513
| 25> C 	 -55.3781 	 25.7621 	 87.0232
| 26> C 	 -54.5612 	 24.6088 	 87.2669
| 27> C 	 -54.7326 	 23.5953 	 86.2807
| 28> H 	 -55.4896 	 26.6845 	 87.6419
| 29> C 	 -53.7812 	 24.4065 	 88.6023
| 30> H 	 -53.0582 	 25.1882 	 88.5378
| 31> H 	 -53.244 	 23.4492 	 88.492
| 32> C 	 -54.575 	 24.5841 	 89.9236
| 33> H 	 -54.8096 	 25.607 	 89.9753
| 34> H 	 -53.8507 	 24.3305 	 90.6267
| 35> C 	 -55.6808 	 23.5317 	 90.0428
| 36> H 	 -56.3374 	 23.7388 	 89.2397
| 37> H 	 -56.3452 	 23.7616 	 90.9108
| 38> H 	 -55.3342 	 22.4648 	 89.9981
| 39> H 	 -53.7861 	 18.6614 	 86.1847
| 40> H 	 -56.6614 	 26.5555 	 85.5166
| 41> *
| 42>
| 43>                          ****END OF INPUT****

CARTESIAN COORDINATES (ANGSTROEM)
---------------------------------
  S    -55.180800   20.831100   85.856400
  C    -53.736400   19.751700   86.232800
  C    -52.666300   20.481500   86.623600
  C    -52.909900   21.877900   86.544700
  C    -54.199300   22.257500   86.148700
  H    -52.085900   22.609400   86.751000
  C    -51.318500   19.878700   86.871800
  H    -50.613800   20.367400   86.247400
  H    -51.398900   18.812500   86.740800
  C    -50.811500   20.041700   88.346600
  H    -49.881200   19.423800   88.363000
  H    -50.623800   21.099100   88.431300
  C    -51.790900   19.695200   89.481100
  H    -52.737000   20.016400   89.340500
  H    -51.876100   18.596200   89.640300
  H    -51.356100   20.167600   90.398700
  S    -55.656900   24.301800   84.960200
  C    -56.102700   25.716200   85.851300
  C    -55.378100   25.762100   87.023200
  C    -54.561200   24.608800   87.266900
  C    -54.732600   23.595300   86.280700
  H    -55.489600   26.684500   87.641900
  C    -53.781200   24.406500   88.602300
  H    -53.058200   25.188200   88.537800
  H    -53.244000   23.449200   88.492000
  C    -54.575000   24.584100   89.923600
  H    -54.809600   25.607000   89.975300
  H    -53.850700   24.330500   90.626700
  C    -55.680800   23.531700   90.042800
  H    -56.337400   23.738800   89.239700
  H    -56.345200   23.761600   90.910800
  H    -55.334200   22.464800   89.998100
  H    -53.786100   18.661400   86.184700
  H    -56.661400   26.555500   85.516600

 Total Charge           Charge          ....    0
 Multiplicity           Mult            ....    1
 Number of Electrons    NEL             ....  134
 Basis Dimension        Dim             ....  322

ORBITAL ENERGIES
----------------

  NO   OCC          E(Eh)            E(eV)
   0   2.0000     -88.967538     -2420.9298
   1   2.0000     -88.963323     -2420.8151
   2   2.0000     -10.335535      -281.2442
   3   2.0000     -10.330627      -281.1107
   4   2.0000     -10.320497      -280.8350
   5   2.0000     -10.315088      -280.6878
   6   2.0000     -10.310018      -280.5499
   7   2.0000     -10.299884      -280.2741
   8   2.0000     -10.298411      -280.2340
   9   2.0000     -10.297113      -280.1987
  10   2.0000     -10.291124      -280.0357
  11   2.0000     -10.290002      -280.0052
  12   2.0000     -10.288654      -279.9685
  13   2.0000     -10.278023      -279.6792
  14   2.0000     -10.275661      -279.6149
  15   2.0000     -10.274267      -279.5770
  16   2.0000      -8.080943      -219.8936
  17   2.0000      -8.078235      -219.8200
  18   2.0000      -6.039647      -164.3471
  19   2.0000      -6.036689      -164.2667
  20   2.0000      -6.035743      -164.2409
  21   2.0000      -6.032621      -164.1560
  22   2.0000      -6.031446      -164.1240
  23   2.0000      -6.029132      -164.0610
  24   2.0000      -1.002883       -27.2898
  25   2.0000      -0.981656       -26.7122
  26   2.0000      -0.914566       -24.8866
  27   2.0000      -0.906855       -24.6768
  28   2.0000      -0.870336       -23.6830
  29   2.0000      -0.845557       -23.0088
  30   2.0000      -0.839594       -22.8465
  31   2.0000      -0.812244       -22.1023
  32   2.0000      -0.788793       -21.4642
  33   2.0000      -0.775118       -21.0920
  34   2.0000      -0.714645       -19.4465
  35   2.0000      -0.698629       -19.0107
  36   2.0000      -0.695567       -18.9273
  37   2.0000      -0.649842       -17.6831
  38   2.0000      -0.634743       -17.2722
  39   2.0000      -0.622889       -16.9497
  40   2.0000      -0.592384       -16.1196
  41   2.0000      -0.569518       -15.4974
  42   2.0000      -0.560291       -15.2463
  43   2.0000      -0.553520       -15.0620
  44   2.0000      -0.543709       -14.7951
  45   2.0000      -0.539735       -14.6869
  46   2.0000      -0.523231       -14.2378
  47   2.0000      -0.515213       -14.0196
  48   2.0000      -0.501790       -13.6544
  49   2.0000      -0.493396       -13.4260
  50   2.0000      -0.492549       -13.4029
  51   2.0000      -0.478157       -13.0113
  52   2.0000      -0.468103       -12.7377
  53   2.0000      -0.467259       -12.7148
  54   2.0000      -0.457474       -12.4485
  55   2.0000      -0.448566       -12.2061
  56   2.0000      -0.441420       -12.0117
  57   2.0000      -0.436289       -11.8720
  58   2.0000      -0.431989       -11.7550
  59   2.0000      -0.424579       -11.5534
  60   2.0000      -0.423086       -11.5127
  61   2.0000      -0.413957       -11.2643
  62   2.0000      -0.404364       -11.0033
  63   2.0000      -0.348304        -9.4778
  64   2.0000      -0.333222        -9.0674
  65   2.0000      -0.326714        -8.8903
  66   2.0000      -0.292016        -7.9462
  67   0.0000       0.021314         0.5800
  68   0.0000       0.072707         1.9785
  69   0.0000       0.108112         2.9419
  70   0.0000       0.118169         3.2155
  71   0.0000       0.124652         3.3919

MULLIKEN ATOMIC CHARGES
-----------------------
   0 S :    0.096697
   1 C :   -0.147744
   2 C :   -0.085487
   3 C :   -0.008786
   4 C :   -0.114867
   5 H :    0.036721
   6 C :    0.109480
   7 H :    0.034160
   8 H :    0.011095
   9 C :   -0.113604
  10 H :    0.045240
  11 H :    0.022313
  12 C :   -0.028413
  13 H :    0.021821
  14 H :    0.030428
  15 H :    0.041013
  16 S :    0.102056
  17 C :   -0.071221
  18 C :   -0.078327
  19 C :   -0.048250
  20 C :   -0.166892
  21 H :    0.034532
  22 C :    0.050669
  23 H :    0.021139
  24 H :    0.013381
  25 C :   -0.006275
  26 H :    0.019876
  27 H :    0.016445
  28 C :   -0.052917
  29 H :    0.026714
  30 H :    0.033863
  31 H :    0.053201
  32 H :    0.052759
  33 H :    0.049180
Sum of atomic charges:   -0.0000000

LOEWDIN ATOMIC CHARGES
----------------------
   0 S :    0.369179
   1 C :   -0.165800
   2 C :   -0.070541
   3 C :   -0.068901
   4 C :   -0.191732
   5 H :    0.037377
   6 C :   -0.021216
   7 H :    0.030994
   8 H :    0.026206
   9 C :   -0.038713
  10 H :    0.031151
  11 H :    0.016878
  12 C :   -0.060006
  13 H :    0.008359
  14 H :    0.028691
  15 H :    0.036054
  16 S :    0.410006
  17 C :   -0.187084
  18 C :   -0.085590
  19 C :   -0.050733
  20 C :   -0.204884
  21 H :    0.037941
  22 C :   -0.028975
  23 H :    0.026892
  24 H :    0.026715
  25 C :   -0.028760
  26 H :    0.018127
  27 H :    0.019470
  28 C :   -0.066981
  29 H :    0.020616
  30 H :    0.030128
  31 H :    0.037052
  32 H :    0.030187
  33 H :    0.027891

  Mayer bond orders larger than 0.100000
B(  0-S ,  1-C ) :   1.1094 B(  0-S ,  4-C ) :   1.1448 B(  1-C ,  2-C ) :   1.6256
B(  1-C , 32-H ) :   0.9654 B(  2-C ,  3-C ) :   1.2309 B(  2-C ,  6-C ) :   1.0324
B(  3-C ,  4-C ) :   1.5601 B(  3-C ,  5-H ) :   0.9806 B(  4-C , 20-C ) :   1.0621
B(  6-C ,  7-H ) :   0.9425 B(  6-C ,  8-H ) :   0.9383 B(  6-C ,  9-C ) :   1.0590
B(  9-C , 10-H ) :   0.9601 B(  9-C , 11-H ) :   0.9613 B(  9-C , 12-C ) :   1.0764
B( 12-C , 13-H ) :   0.9722 B( 12-C , 14-H ) :   0.9746 B( 12-C , 15-H ) :   0.9750
B( 16-S , 17-C ) :   1.1625 B( 16-S , 20-C ) :   1.1451 B( 17-C , 18-C ) :   1.5998
B( 17-C , 20-C ) :   0.1028 B( 17-C , 33-H ) :   0.9704 B( 18-C , 19-C ) :   1.2524
B( 18-C , 21-H ) :   0.9837 B( 19-C , 20-C ) :   1.5432 B( 19-C , 22-C ) :   1.0260
B( 22-C , 23-H ) :   0.9270 B( 22-C , 24-H ) :   0.9343 B( 22-C , 25-C ) :   1.0784
B( 25-C , 26-H ) :   0.9525 B( 25-C , 27-H ) :   0.9504 B( 25-C , 28-C ) :   1.0732
B( 28-C , 29-H ) :   0.9751 B( 28-C , 30-H ) :   0.9721 B( 28-C , 31-H ) :   0.9732

Dispersion correction           -0.015446663
FINAL SINGLE POINT ENERGY     -1339.865550025041

DIPOLE MOMENT
-------------
                                X             Y             Z
Electronic contribution:    -13.53506       4.38638     -24.10454
Nuclear contribution   :     14.05453      -4.26688      24.64046
                        -----------------------------------------
Total Dipole Moment    :      0.51948       0.11950       0.53591
                        -----------------------------------------
Magnitude (a.u.)       :      0.75587
Magnitude (Debye)      :      1.92127

Rotational constants in cm-1:     0.019359     0.009604     0.007493
Rotational constants in MHz :   580.369957   287.921988   224.626209

                             ****ORCA TERMINATED NORMALLY****
TOTAL RUN TIME: 0 days 0 hours 0 minutes 32 seconds 411 msec
