                         Program Version 4.2.1 -  RELEASE  -
|  1> ! wB97X-D3 SP def2-SVP
|  2> %pal
|  3> nprocs 16
|  4> end
|  5>
|  6> * xyz 0 1
|  7> S 	 -44.3373 	 42.5493 	 80.8191
|  8> C 	 -44.0283 	 41.9905 	 79.1751
|  9> C 	 -44.6706 	 40.7743 	 78.9178
| 10> C 	 -45.5275 	 40.3537 	 79.9582
| 11> C 	 -45.3019 	 41.0724 	 81.1127
| 12> H 	 -46.0946 	 39.438 	 80.0421
| 13> C 	 -44.5384 	 40.0354 	 77.6397
| 14> H 	 -44.3126 	 40.7302 	 76.8004
| 15> H 	 -45.4859 	 39.5973 	 77.3404
| 16> C 	 -43.5525 	 38.838 	 77.8235
| 17> H 	 -43.313 	 38.5664 	 76.8373
| 18> H 	 -42.5933 	 39.1856 	 78.2171
| 19> C 	 -44.0427 	 37.6565 	 78.6558
| 20> H 	 -44.2272 	 37.9334 	 79.7172
| 21> H 	 -45.1128 	 37.3601 	 78.3212
| 22> H 	 -43.4622 	 36.7275 	 78.6063
| 23> S 	 -46.7582 	 42.2695 	 83.1344
| 24> C 	 -47.3501 	 41.2968 	 84.44
| 25> C 	 -46.9277 	 40.0298 	 84.3724
| 26> C 	 -46.2505 	 39.7728 	 83.1279
| 27> C 	 -45.9856 	 40.8429 	 82.376
| 28> H 	 -47.2402 	 39.3005 	 85.1024
| 29> C 	 -45.5826 	 38.4505 	 82.9426
| 30> H 	 -45.6458 	 38.206 	 81.8943
| 31> H 	 -46.1737 	 37.6207 	 83.3495
| 32> C 	 -44.1576 	 38.3381 	 83.5324
| 33> H 	 -43.5355 	 39.0066 	 82.9567
| 34> H 	 -43.7631 	 37.405 	 83.0853
| 35> C 	 -43.9575 	 38.5778 	 85.0624
| 36> H 	 -44.5337 	 37.9174 	 85.6607
| 37> H 	 -43.9186 	 39.6083 	 85.2942
| 38> H 	 -42.9568 	 38.259 	 85.2562
| 39> H 	 -43.5884 	 42.514 	 78.3781
| 40> H 	 -47.9218 	 41.6273 	 85.2347
| 41> *
| 42>
| 43>                          ****END OF INPUT****

CARTESIAN COORDINATES (ANGSTROEM)
---------------------------------
  S    -44.337300   42.549300   80.819100
  C    -44.028300   41.990500   79.175100
  C    -44.670600   40.774300   78.917800
  C    -45.527500   40.353700   79.958200
  C    -45.301900   41.072400   81.112700
  H    -46.094600   39.438000   80.042100
  C    -44.538400   40.035400   77.639700
  H    -44.312600   40.730200   76.800400
  H    -45.485900   39.597300   77.340400
  C    -43.552500   38.838000   77.823500
  H    -43.313000   38.566400   76.837300
  H    -42.593300   39.185600   78.217100
  C    -44.042700   37.656500   78.655800
  H    -44.227200   37.933400   79.717200
  H    -45.112800   37.360100   78.321200
  H    -43.462200   36.727500   78.606300
  S    -46.758200   42.269500   83.134400
  C    -47.350100   41.296800   84.440000
  C    -46.927700   40.029800   84.372400
  C    -46.250500   39.772800   83.127900
  C    -45.985600   40.842900   82.376000
  H    -47.240200   39.300500   85.102400
  C    -45.582600   38.450500   82.942600
  H    -45.645800   38.206000   81.894300
  H    -46.173700   37.620700   83.349500
  C    -44.157600   38.338100   83.532400
  H    -43.535500   39.006600   82.956700
  H    -43.763100   37.405000   83.085300
  C    -43.957500   38.577800   85.062400
  H    -44.533700   37.917400   85.660700
  H    -43.918600   39.608300   85.294200
  H    -42.956800   38.259000   85.256200
  H    -43.588400   42.514000   78.378100
  H    -47.921800   41.627300   85.234700

 Total Charge           Charge          ....    0
 Multiplicity           Mult            ....    1
 Number of Electrons    NEL             ....  134
 Basis Dimension        Dim             ....  322

ORBITAL ENERGIES
----------------

  NO   OCC          E(Eh)            E(eV)
   0   2.0000     -88.970492     -2421.0102
   1   2.0000     -88.957886     -2420.6671
   2   2.0000     -10.332423      -281.1595
   3   2.0000     -10.321978      -280.8753
   4   2.0000     -10.310342      -280.5587
   5   2.0000     -10.305763      -280.4341
   6   2.0000     -10.298752      -280.2433
   7   2.0000     -10.293798      -280.1085
   8   2.0000     -10.293676      -280.1052
   9   2.0000     -10.292708      -280.0788
  10   2.0000     -10.290633      -280.0223
  11   2.0000     -10.286124      -279.8997
  12   2.0000     -10.286008      -279.8965
  13   2.0000     -10.285894      -279.8934
  14   2.0000     -10.284374      -279.8520
  15   2.0000     -10.272469      -279.5281
  16   2.0000      -8.083946      -219.9754
  17   2.0000      -8.072984      -219.6771
  18   2.0000      -6.042509      -164.4250
  19   2.0000      -6.038749      -164.3227
  20   2.0000      -6.034620      -164.2104
  21   2.0000      -6.031625      -164.1289
  22   2.0000      -6.027516      -164.0170
  23   2.0000      -6.023498      -163.9077
  24   2.0000      -1.008203       -27.4346
  25   2.0000      -0.985098       -26.8059
  26   2.0000      -0.912941       -24.8424
  27   2.0000      -0.905281       -24.6339
  28   2.0000      -0.871554       -23.7162
  29   2.0000      -0.849911       -23.1273
  30   2.0000      -0.842299       -22.9201
  31   2.0000      -0.820725       -22.3331
  32   2.0000      -0.787614       -21.4321
  33   2.0000      -0.774174       -21.0663
  34   2.0000      -0.712646       -19.3921
  35   2.0000      -0.705181       -19.1890
  36   2.0000      -0.695645       -18.9295
  37   2.0000      -0.666940       -18.1483
  38   2.0000      -0.643069       -17.4988
  39   2.0000      -0.616680       -16.7807
  40   2.0000      -0.594699       -16.1826
  41   2.0000      -0.574837       -15.6421
  42   2.0000      -0.552701       -15.0397
  43   2.0000      -0.548600       -14.9282
  44   2.0000      -0.546443       -14.8695
  45   2.0000      -0.532153       -14.4806
  46   2.0000      -0.516900       -14.0656
  47   2.0000      -0.509362       -13.8604
  48   2.0000      -0.504055       -13.7160
  49   2.0000      -0.494756       -13.4630
  50   2.0000      -0.491985       -13.3876
  51   2.0000      -0.483431       -13.1548
  52   2.0000      -0.476221       -12.9586
  53   2.0000      -0.469841       -12.7850
  54   2.0000      -0.462547       -12.5865
  55   2.0000      -0.448029       -12.1915
  56   2.0000      -0.440553       -11.9880
  57   2.0000      -0.436686       -11.8828
  58   2.0000      -0.430446       -11.7130
  59   2.0000      -0.424718       -11.5572
  60   2.0000      -0.418132       -11.3779
  61   2.0000      -0.414052       -11.2669
  62   2.0000      -0.406478       -11.0608
  63   2.0000      -0.352017        -9.5789
  64   2.0000      -0.331755        -9.0275
  65   2.0000      -0.328275        -8.9328
  66   2.0000      -0.290054        -7.8928
  67   0.0000       0.027211         0.7404
  68   0.0000       0.073069         1.9883
  69   0.0000       0.107247         2.9183
  70   0.0000       0.123303         3.3552
  71   0.0000       0.127326         3.4647

MULLIKEN ATOMIC CHARGES
-----------------------
   0 S :    0.110823
   1 C :   -0.090575
   2 C :   -0.095420
   3 C :    0.031667
   4 C :   -0.142488
   5 H :    0.020863
   6 C :    0.045001
   7 H :    0.029317
   8 H :    0.020024
   9 C :   -0.017473
  10 H :    0.013886
  11 H :    0.025207
  12 C :   -0.092802
  13 H :    0.046228
  14 H :    0.023912
  15 H :    0.051003
  16 S :    0.080737
  17 C :   -0.040370
  18 C :   -0.029566
  19 C :   -0.062368
  20 C :   -0.132425
  21 H :    0.017135
  22 C :    0.071938
  23 H :   -0.009640
  24 H :    0.008622
  25 C :   -0.071823
  26 H :    0.016743
  27 H :    0.019455
  28 C :    0.020072
  29 H :    0.023867
  30 H :    0.043236
  31 H :    0.014572
  32 H :    0.027072
  33 H :    0.023567
Sum of atomic charges:    0.0000000

LOEWDIN ATOMIC CHARGES
----------------------
   0 S :    0.387079
   1 C :   -0.195153
   2 C :   -0.057732
   3 C :   -0.058464
   4 C :   -0.172706
   5 H :    0.032144
   6 C :   -0.031646
   7 H :    0.034756
   8 H :    0.028319
   9 C :   -0.034484
  10 H :    0.017260
  11 H :    0.025613
  12 C :   -0.075845
  13 H :    0.026626
  14 H :    0.028266
  15 H :    0.031178
  16 S :    0.378385
  17 C :   -0.166188
  18 C :   -0.069158
  19 C :   -0.063489
  20 C :   -0.179342
  21 H :    0.032896
  22 C :   -0.038736
  23 H :    0.022221
  24 H :    0.026368
  25 C :   -0.037706
  26 H :    0.022626
  27 H :    0.026061
  28 C :   -0.055251
  29 H :    0.021233
  30 H :    0.029059
  31 H :    0.029807
  32 H :    0.019396
  33 H :    0.016608

  Mayer bond orders larger than 0.100000
B(  0-S ,  1-C ) :   1.1190 B(  0-S ,  4-C ) :   1.1403 B(  1-C ,  2-C ) :   1.6156
B(  1-C ,  4-C ) :   0.1014 B(  1-C , 32-H ) :   0.9694 B(  2-C ,  3-C ) :   1.2411
B(  2-C ,  6-C ) :   1.0399 B(  3-C ,  4-C ) :   1.5788 B(  3-C ,  5-H ) :   0.9826
B(  4-C , 20-C ) :   1.0454 B(  6-C ,  7-H ) :   0.9411 B(  6-C ,  8-H ) :   0.9400
B(  6-C ,  9-C ) :   1.0570 B(  9-C , 10-H ) :   0.9544 B(  9-C , 11-H ) :   0.9524
B(  9-C , 12-C ) :   1.0744 B( 12-C , 13-H ) :   0.9688 B( 12-C , 14-H ) :   0.9712
B( 12-C , 15-H ) :   0.9719 B( 16-S , 17-C ) :   1.1413 B( 16-S , 20-C ) :   1.0974
B( 17-C , 18-C ) :   1.6523 B( 17-C , 33-H ) :   0.9704 B( 18-C , 19-C ) :   1.1970
B( 18-C , 21-H ) :   0.9917 B( 19-C , 20-C ) :   1.6644 B( 19-C , 22-C ) :   1.0646
B( 22-C , 23-H ) :   0.9240 B( 22-C , 24-H ) :   0.9243 B( 22-C , 25-C ) :   1.0727
B( 25-C , 26-H ) :   0.9522 B( 25-C , 27-H ) :   0.9550 B( 25-C , 28-C ) :   1.0723
B( 28-C , 29-H ) :   0.9756 B( 28-C , 30-H ) :   0.9706 B( 28-C , 31-H ) :   0.9653

Dispersion correction           -0.015874064
FINAL SINGLE POINT ENERGY     -1339.867446159848

DIPOLE MOMENT
-------------
                                X             Y             Z
Electronic contribution:     -9.12928      24.77125       4.70127
Nuclear contribution   :      9.23210     -25.46680      -4.84805
                        -----------------------------------------
Total Dipole Moment    :      0.10282      -0.69556      -0.14679
                        -----------------------------------------
Magnitude (a.u.)       :      0.71827
Magnitude (Debye)      :      1.82570

Rotational constants in cm-1:     0.019463     0.009907     0.007617
Rotational constants in MHz :   583.497981   296.998631   228.340133

                             ****ORCA TERMINATED NORMALLY****
TOTAL RUN TIME: 0 days 0 hours 0 minutes 30 seconds 905 msec
