                         Program Version 4.2.1 -  RELEASE  -
|  1> ! wB97X-D3 SP def2-SVP
|  2> %pal
|  3> nprocs 16
|  4> end
|  5>
|  6> * xyz 0 1
|  7> S 	 -33.8438 	 41.7753 	 94.8687
|  8> C 	 -34.5734 	 40.3396 	 94.2553
|  9> C 	 -35.6371 	 39.8347 	 94.9831
| 10> C 	 -35.8438 	 40.6099 	 96.1181
| 11> C 	 -34.9433 	 41.6532 	 96.2429
| 12> H 	 -36.6686 	 40.4894 	 96.8314
| 13> C 	 -36.5697 	 38.7776 	 94.4376
| 14> H 	 -36.4789 	 38.685 	 93.4117
| 15> H 	 -37.6293 	 38.9987 	 94.4833
| 16> C 	 -36.5653 	 37.572 	 95.4015
| 17> H 	 -35.639 	 37.4 	 95.8553
| 18> H 	 -37.1712 	 37.9338 	 96.2488
| 19> C 	 -36.9349 	 36.2026 	 94.8829
| 20> H 	 -36.8015 	 35.5271 	 95.6815
| 21> H 	 -38.0157 	 36.228 	 94.5733
| 22> H 	 -36.2593 	 35.8613 	 94.1305
| 23> S 	 -34.5457 	 44.3229 	 97.0392
| 24> C 	 -34.5362 	 44.6888 	 98.7207
| 25> C 	 -34.4561 	 43.6141 	 99.4944
| 26> C 	 -34.7165 	 42.3929 	 98.7566
| 27> C 	 -34.8378 	 42.5543 	 97.3755
| 28> H 	 -34.2119 	 43.6962 	 100.512
| 29> C 	 -34.7929 	 41.1008 	 99.4514
| 30> H 	 -35.9174 	 40.8086 	 99.4514
| 31> H 	 -34.7404 	 41.3612 	 100.46
| 32> C 	 -33.7711 	 40.0205 	 99.0931
| 33> H 	 -32.861 	 40.4918 	 99.3398
| 34> H 	 -33.8027 	 39.744 	 97.9756
| 35> C 	 -34.0441 	 38.7494 	 99.7666
| 36> H 	 -34.9331 	 38.3295 	 99.1943
| 37> H 	 -34.2107 	 38.8267 	 100.84
| 38> H 	 -33.2208 	 37.9786 	 99.7148
| 39> H 	 -34.1333 	 39.8612 	 93.3936
| 40> H 	 -34.2652 	 45.6699 	 99.0542
| 41> *
| 42>
| 43>                          ****END OF INPUT****

CARTESIAN COORDINATES (ANGSTROEM)
---------------------------------
  S    -33.843800   41.775300   94.868700
  C    -34.573400   40.339600   94.255300
  C    -35.637100   39.834700   94.983100
  C    -35.843800   40.609900   96.118100
  C    -34.943300   41.653200   96.242900
  H    -36.668600   40.489400   96.831400
  C    -36.569700   38.777600   94.437600
  H    -36.478900   38.685000   93.411700
  H    -37.629300   38.998700   94.483300
  C    -36.565300   37.572000   95.401500
  H    -35.639000   37.400000   95.855300
  H    -37.171200   37.933800   96.248800
  C    -36.934900   36.202600   94.882900
  H    -36.801500   35.527100   95.681500
  H    -38.015700   36.228000   94.573300
  H    -36.259300   35.861300   94.130500
  S    -34.545700   44.322900   97.039200
  C    -34.536200   44.688800   98.720700
  C    -34.456100   43.614100   99.494400
  C    -34.716500   42.392900   98.756600
  C    -34.837800   42.554300   97.375500
  H    -34.211900   43.696200  100.512000
  C    -34.792900   41.100800   99.451400
  H    -35.917400   40.808600   99.451400
  H    -34.740400   41.361200  100.460000
  C    -33.771100   40.020500   99.093100
  H    -32.861000   40.491800   99.339800
  H    -33.802700   39.744000   97.975600
  C    -34.044100   38.749400   99.766600
  H    -34.933100   38.329500   99.194300
  H    -34.210700   38.826700  100.840000
  H    -33.220800   37.978600   99.714800
  H    -34.133300   39.861200   93.393600
  H    -34.265200   45.669900   99.054200

 Total Charge           Charge          ....    0
 Multiplicity           Mult            ....    1
 Number of Electrons    NEL             ....  134
 Basis Dimension        Dim             ....  322

ORBITAL ENERGIES
----------------

  NO   OCC          E(Eh)            E(eV)
   0   2.0000     -88.970585     -2421.0127
   1   2.0000     -88.956343     -2420.6252
   2   2.0000     -10.329663      -281.0844
   3   2.0000     -10.327151      -281.0161
   4   2.0000     -10.310860      -280.5728
   5   2.0000     -10.307726      -280.4875
   6   2.0000     -10.301332      -280.3135
   7   2.0000     -10.298624      -280.2398
   8   2.0000     -10.293455      -280.0992
   9   2.0000     -10.286097      -279.8989
  10   2.0000     -10.285730      -279.8889
  11   2.0000     -10.285344      -279.8784
  12   2.0000     -10.281204      -279.7658
  13   2.0000     -10.280871      -279.7567
  14   2.0000     -10.280182      -279.7380
  15   2.0000     -10.276094      -279.6267
  16   2.0000      -8.085598      -220.0203
  17   2.0000      -8.071265      -219.6303
  18   2.0000      -6.043830      -164.4610
  19   2.0000      -6.040257      -164.3637
  20   2.0000      -6.036444      -164.2600
  21   2.0000      -6.029864      -164.0809
  22   2.0000      -6.025902      -163.9731
  23   2.0000      -6.021772      -163.8608
  24   2.0000      -1.007768       -27.4228
  25   2.0000      -0.986858       -26.8538
  26   2.0000      -0.917092       -24.9553
  27   2.0000      -0.916084       -24.9279
  28   2.0000      -0.871982       -23.7278
  29   2.0000      -0.859102       -23.3774
  30   2.0000      -0.852110       -23.1871
  31   2.0000      -0.819499       -22.2997
  32   2.0000      -0.787904       -21.4400
  33   2.0000      -0.768476       -20.9113
  34   2.0000      -0.711152       -19.3514
  35   2.0000      -0.698703       -19.0127
  36   2.0000      -0.686993       -18.6940
  37   2.0000      -0.663774       -18.0622
  38   2.0000      -0.644628       -17.5412
  39   2.0000      -0.625308       -17.0155
  40   2.0000      -0.594750       -16.1840
  41   2.0000      -0.579901       -15.7799
  42   2.0000      -0.573782       -15.6134
  43   2.0000      -0.555597       -15.1186
  44   2.0000      -0.533066       -14.5055
  45   2.0000      -0.523647       -14.2491
  46   2.0000      -0.517973       -14.0948
  47   2.0000      -0.516200       -14.0465
  48   2.0000      -0.509612       -13.8673
  49   2.0000      -0.495813       -13.4917
  50   2.0000      -0.491042       -13.3619
  51   2.0000      -0.481834       -13.1114
  52   2.0000      -0.478760       -13.0277
  53   2.0000      -0.468601       -12.7513
  54   2.0000      -0.456599       -12.4247
  55   2.0000      -0.454019       -12.3545
  56   2.0000      -0.442396       -12.0382
  57   2.0000      -0.440794       -11.9946
  58   2.0000      -0.428008       -11.6467
  59   2.0000      -0.421951       -11.4819
  60   2.0000      -0.416696       -11.3389
  61   2.0000      -0.409675       -11.1478
  62   2.0000      -0.407904       -11.0996
  63   2.0000      -0.349827        -9.5193
  64   2.0000      -0.337362        -9.1801
  65   2.0000      -0.324333        -8.8255
  66   2.0000      -0.283744        -7.7211
  67   0.0000       0.026831         0.7301
  68   0.0000       0.065482         1.7819
  69   0.0000       0.109314         2.9746
  70   0.0000       0.122273         3.3272
  71   0.0000       0.124211         3.3800

MULLIKEN ATOMIC CHARGES
-----------------------
   0 S :    0.130255
   1 C :   -0.138680
   2 C :   -0.043153
   3 C :   -0.003290
   4 C :   -0.146554
   5 H :    0.022040
   6 C :    0.113159
   7 H :   -0.000326
   8 H :    0.024155
   9 C :   -0.121720
  10 H :    0.015230
  11 H :    0.025329
  12 C :   -0.000385
  13 H :    0.020696
  14 H :    0.034722
  15 H :    0.032072
  16 S :    0.062616
  17 C :   -0.053113
  18 C :   -0.013884
  19 C :   -0.069020
  20 C :   -0.138643
  21 H :    0.003135
  22 C :    0.055733
  23 H :    0.033979
  24 H :   -0.020021
  25 C :   -0.034654
  26 H :    0.017999
  27 H :    0.061229
  28 C :   -0.060090
  29 H :    0.036185
  30 H :    0.024610
  31 H :    0.038146
  32 H :    0.044314
  33 H :    0.047930
Sum of atomic charges:   -0.0000000

LOEWDIN ATOMIC CHARGES
----------------------
   0 S :    0.417676
   1 C :   -0.198214
   2 C :   -0.060005
   3 C :   -0.060050
   4 C :   -0.188676
   5 H :    0.036660
   6 C :   -0.026988
   7 H :    0.018232
   8 H :    0.036601
   9 C :   -0.041624
  10 H :    0.012985
  11 H :    0.024513
  12 C :   -0.056803
  13 H :    0.022825
  14 H :    0.029138
  15 H :    0.024584
  16 S :    0.367040
  17 C :   -0.177439
  18 C :   -0.071762
  19 C :   -0.052692
  20 C :   -0.174638
  21 H :    0.026650
  22 C :   -0.042918
  23 H :    0.040120
  24 H :    0.018948
  25 C :   -0.042967
  26 H :    0.018530
  27 H :    0.041165
  28 C :   -0.071972
  29 H :    0.034425
  30 H :    0.019214
  31 H :    0.030162
  32 H :    0.021946
  33 H :    0.025336

  Mayer bond orders larger than 0.100000
B(  0-S ,  1-C ) :   1.1543 B(  0-S ,  4-C ) :   1.1502 B(  1-C ,  2-C ) :   1.5893
B(  1-C ,  4-C ) :   0.1005 B(  1-C , 32-H ) :   0.9663 B(  2-C ,  3-C ) :   1.2472
B(  2-C ,  6-C ) :   1.0358 B(  3-C ,  4-C ) :   1.5604 B(  3-C ,  5-H ) :   0.9963
B(  4-C , 20-C ) :   1.0740 B(  6-C ,  7-H ) :   0.9536 B(  6-C ,  8-H ) :   0.9460
B(  6-C ,  9-C ) :   1.0028 B(  9-C , 10-H ) :   0.9660 B(  9-C , 11-H ) :   0.9603
B(  9-C , 12-C ) :   1.0938 B( 12-C , 13-H ) :   0.9706 B( 12-C , 14-H ) :   0.9714
B( 12-C , 15-H ) :   0.9749 B( 16-S , 17-C ) :   1.1561 B( 16-S , 20-C ) :   1.0990
B( 17-C , 18-C ) :   1.6396 B( 17-C , 33-H ) :   0.9591 B( 18-C , 19-C ) :   1.2194
B( 18-C , 21-H ) :   0.9964 B( 19-C , 20-C ) :   1.6001 B( 19-C , 22-C ) :   1.0552
B( 22-C , 23-H ) :   0.9230 B( 22-C , 24-H ) :   0.9135 B( 22-C , 25-C ) :   1.0459
B( 25-C , 26-H ) :   0.9496 B( 25-C , 27-H ) :   0.9549 B( 25-C , 28-C ) :   1.0847
B( 28-C , 29-H ) :   0.9746 B( 28-C , 30-H ) :   0.9702 B( 28-C , 31-H ) :   0.9717

Dispersion correction           -0.014797710
FINAL SINGLE POINT ENERGY     -1339.848662582931

DIPOLE MOMENT
-------------
                                X             Y             Z
Electronic contribution:      7.72117      29.83145      -7.94622
Nuclear contribution   :     -7.78105     -30.40239       8.26140
                        -----------------------------------------
Total Dipole Moment    :     -0.05988      -0.57094       0.31519
                        -----------------------------------------
Magnitude (a.u.)       :      0.65491
Magnitude (Debye)      :      1.66464

Rotational constants in cm-1:     0.020042     0.008890     0.006850
Rotational constants in MHz :   600.831223   266.519291   205.367247

                             ****ORCA TERMINATED NORMALLY****
TOTAL RUN TIME: 0 days 0 hours 0 minutes 31 seconds 594 msec
