                         Program Version 4.2.1 -  RELEASE  -
|  1> ! wB97X-D3 SP def2-SVP
|  2> %pal
|  3> nprocs 16
|  4> end
|  5>
|  6> * xyz 0 1
|  7> S 	 -82.0845 	 34.2079 	 135.807
|  8> C 	 -80.4123 	 33.8969 	 136.369
|  9> C 	 -79.5221 	 34.4053 	 135.459
| 10> C 	 -80.1421 	 35.2094 	 134.393
| 11> C 	 -81.5449 	 35.2944 	 134.49
| 12> H 	 -79.6259 	 35.6675 	 133.605
| 13> C 	 -78.0745 	 34.4244 	 135.716
| 14> H 	 -77.7479 	 34.8999 	 134.771
| 15> H 	 -77.6529 	 33.443 	 135.725
| 16> C 	 -77.5655 	 35.2023 	 136.987
| 17> H 	 -78.0001 	 34.6108 	 137.769
| 18> H 	 -76.4512 	 35.1141 	 137.009
| 19> C 	 -77.9085 	 36.7288 	 137.053
| 20> H 	 -79.0395 	 36.9227 	 136.973
| 21> H 	 -77.6933 	 37.0537 	 138.088
| 22> H 	 -77.3608 	 37.3004 	 136.289
| 23> S 	 -83.7961 	 34.9315 	 132.851
| 24> C 	 -84.2736 	 36.3056 	 131.807
| 25> C 	 -83.5745 	 37.4735 	 132.073
| 26> C 	 -82.4916 	 37.2704 	 133.012
| 27> C 	 -82.4895 	 35.9562 	 133.548
| 28> H 	 -83.8489 	 38.4165 	 131.597
| 29> C 	 -81.5564 	 38.3207 	 133.49
| 30> H 	 -81.429 	 39.0445 	 132.653
| 31> H 	 -80.5414 	 37.8533 	 133.555
| 32> C 	 -81.9398 	 39.0883 	 134.796
| 33> H 	 -81.097 	 39.6033 	 135.181
| 34> H 	 -82.1041 	 38.3316 	 135.56
| 35> C 	 -83.0519 	 40.1368 	 134.754
| 36> H 	 -83.9121 	 39.504 	 134.554
| 37> H 	 -82.9526 	 40.9341 	 133.946
| 38> H 	 -83.3128 	 40.6759 	 135.651
| 39> H 	 -80.1299 	 33.5294 	 137.331
| 40> H 	 -85.1235 	 36.3114 	 131.107
| 41> *
| 42>
| 43>                          ****END OF INPUT****

CARTESIAN COORDINATES (ANGSTROEM)
---------------------------------
  S    -82.084500   34.207900  135.807000
  C    -80.412300   33.896900  136.369000
  C    -79.522100   34.405300  135.459000
  C    -80.142100   35.209400  134.393000
  C    -81.544900   35.294400  134.490000
  H    -79.625900   35.667500  133.605000
  C    -78.074500   34.424400  135.716000
  H    -77.747900   34.899900  134.771000
  H    -77.652900   33.443000  135.725000
  C    -77.565500   35.202300  136.987000
  H    -78.000100   34.610800  137.769000
  H    -76.451200   35.114100  137.009000
  C    -77.908500   36.728800  137.053000
  H    -79.039500   36.922700  136.973000
  H    -77.693300   37.053700  138.088000
  H    -77.360800   37.300400  136.289000
  S    -83.796100   34.931500  132.851000
  C    -84.273600   36.305600  131.807000
  C    -83.574500   37.473500  132.073000
  C    -82.491600   37.270400  133.012000
  C    -82.489500   35.956200  133.548000
  H    -83.848900   38.416500  131.597000
  C    -81.556400   38.320700  133.490000
  H    -81.429000   39.044500  132.653000
  H    -80.541400   37.853300  133.555000
  C    -81.939800   39.088300  134.796000
  H    -81.097000   39.603300  135.181000
  H    -82.104100   38.331600  135.560000
  C    -83.051900   40.136800  134.754000
  H    -83.912100   39.504000  134.554000
  H    -82.952600   40.934100  133.946000
  H    -83.312800   40.675900  135.651000
  H    -80.129900   33.529400  137.331000
  H    -85.123500   36.311400  131.107000

 Total Charge           Charge          ....    0
 Multiplicity           Mult            ....    1
 Number of Electrons    NEL             ....  134
 Basis Dimension        Dim             ....  322

ORBITAL ENERGIES
----------------

  NO   OCC          E(Eh)            E(eV)
   0   2.0000     -88.970893     -2421.0211
   1   2.0000     -88.965633     -2420.8779
   2   2.0000     -10.341765      -281.4137
   3   2.0000     -10.337763      -281.3048
   4   2.0000     -10.324960      -280.9564
   5   2.0000     -10.315427      -280.6970
   6   2.0000     -10.310402      -280.5603
   7   2.0000     -10.301466      -280.3171
   8   2.0000     -10.300985      -280.3041
   9   2.0000     -10.299998      -280.2772
  10   2.0000     -10.298128      -280.2263
  11   2.0000     -10.296985      -280.1952
  12   2.0000     -10.289850      -280.0010
  13   2.0000     -10.287608      -279.9400
  14   2.0000     -10.283964      -279.8409
  15   2.0000     -10.279444      -279.7179
  16   2.0000      -8.083989      -219.9765
  17   2.0000      -8.079075      -219.8428
  18   2.0000      -6.042611      -164.4278
  19   2.0000      -6.038841      -164.3252
  20   2.0000      -6.037811      -164.2972
  21   2.0000      -6.034603      -164.2099
  22   2.0000      -6.033736      -164.1863
  23   2.0000      -6.029681      -164.0760
  24   2.0000      -0.994172       -27.0528
  25   2.0000      -0.974260       -26.5110
  26   2.0000      -0.908098       -24.7106
  27   2.0000      -0.904470       -24.6119
  28   2.0000      -0.862218       -23.4621
  29   2.0000      -0.849466       -23.1151
  30   2.0000      -0.840032       -22.8584
  31   2.0000      -0.815213       -22.1831
  32   2.0000      -0.781191       -21.2573
  33   2.0000      -0.769253       -20.9324
  34   2.0000      -0.711557       -19.3625
  35   2.0000      -0.705364       -19.1939
  36   2.0000      -0.688955       -18.7474
  37   2.0000      -0.660192       -17.9647
  38   2.0000      -0.639606       -17.4046
  39   2.0000      -0.609408       -16.5828
  40   2.0000      -0.588134       -16.0040
  41   2.0000      -0.572169       -15.5695
  42   2.0000      -0.553078       -15.0500
  43   2.0000      -0.547658       -14.9025
  44   2.0000      -0.544025       -14.8037
  45   2.0000      -0.533985       -14.5305
  46   2.0000      -0.519153       -14.1269
  47   2.0000      -0.511728       -13.9248
  48   2.0000      -0.501946       -13.6586
  49   2.0000      -0.492935       -13.4134
  50   2.0000      -0.482886       -13.1400
  51   2.0000      -0.478545       -13.0219
  52   2.0000      -0.472467       -12.8565
  53   2.0000      -0.466209       -12.6862
  54   2.0000      -0.458023       -12.4634
  55   2.0000      -0.447698       -12.1825
  56   2.0000      -0.442112       -12.0305
  57   2.0000      -0.436073       -11.8662
  58   2.0000      -0.433539       -11.7972
  59   2.0000      -0.423185       -11.5154
  60   2.0000      -0.420014       -11.4292
  61   2.0000      -0.408317       -11.1109
  62   2.0000      -0.406870       -11.0715
  63   2.0000      -0.349080        -9.4990
  64   2.0000      -0.333243        -9.0680
  65   2.0000      -0.326431        -8.8827
  66   2.0000      -0.290021        -7.8919
  67   0.0000       0.022063         0.6004
  68   0.0000       0.057343         1.5604
  69   0.0000       0.100564         2.7365
  70   0.0000       0.114259         3.1092
  71   0.0000       0.123908         3.3717

MULLIKEN ATOMIC CHARGES
-----------------------
   0 S :    0.086451
   1 C :   -0.118105
   2 C :   -0.091343
   3 C :    0.042663
   4 C :   -0.143162
   5 H :    0.006564
   6 C :    0.058161
   7 H :    0.008492
   8 H :    0.033828
   9 C :   -0.073308
  10 H :    0.021366
  11 H :    0.042570
  12 C :   -0.080618
  13 H :    0.053769
  14 H :    0.040280
  15 H :    0.046732
  16 S :    0.104207
  17 C :   -0.099828
  18 C :   -0.028477
  19 C :   -0.052147
  20 C :   -0.148238
  21 H :    0.027860
  22 C :    0.047410
  23 H :    0.020692
  24 H :    0.028497
  25 C :   -0.031102
  26 H :    0.015546
  27 H :    0.030813
  28 C :   -0.067136
  29 H :    0.030840
  30 H :    0.036968
  31 H :    0.037032
  32 H :    0.047406
  33 H :    0.065318
Sum of atomic charges:   -0.0000000

LOEWDIN ATOMIC CHARGES
----------------------
   0 S :    0.366679
   1 C :   -0.178617
   2 C :   -0.064698
   3 C :   -0.058135
   4 C :   -0.176319
   5 H :    0.020564
   6 C :   -0.040547
   7 H :    0.028350
   8 H :    0.030162
   9 C :   -0.034028
  10 H :    0.016915
  11 H :    0.030910
  12 C :   -0.074508
  13 H :    0.036221
  14 H :    0.029938
  15 H :    0.027729
  16 S :    0.374408
  17 C :   -0.175340
  18 C :   -0.069429
  19 C :   -0.056311
  20 C :   -0.182767
  21 H :    0.036417
  22 C :   -0.038410
  23 H :    0.031425
  24 H :    0.039570
  25 C :   -0.036451
  26 H :    0.017792
  27 H :    0.028438
  28 C :   -0.073958
  29 H :    0.026725
  30 H :    0.030125
  31 H :    0.026842
  32 H :    0.026013
  33 H :    0.034293

  Mayer bond orders larger than 0.100000
B(  0-S ,  1-C ) :   1.1139 B(  0-S ,  4-C ) :   1.1373 B(  1-C ,  2-C ) :   1.6214
B(  1-C , 32-H ) :   0.9752 B(  2-C ,  3-C ) :   1.2159 B(  2-C ,  6-C ) :   1.0325
B(  3-C ,  4-C ) :   1.5820 B(  3-C ,  5-H ) :   0.9896 B(  4-C , 20-C ) :   1.0403
B(  6-C ,  7-H ) :   0.9406 B(  6-C ,  8-H ) :   0.9342 B(  6-C ,  9-C ) :   1.0602
B(  9-C , 10-H ) :   0.9576 B(  9-C , 11-H ) :   0.9561 B(  9-C , 12-C ) :   1.0709
B( 12-C , 13-H ) :   0.9738 B( 12-C , 14-H ) :   0.9736 B( 12-C , 15-H ) :   0.9762
B( 16-S , 17-C ) :   1.1389 B( 16-S , 20-C ) :   1.1255 B( 17-C , 18-C ) :   1.6367
B( 17-C , 33-H ) :   0.9611 B( 18-C , 19-C ) :   1.2221 B( 18-C , 21-H ) :   0.9850
B( 19-C , 20-C ) :   1.5954 B( 19-C , 22-C ) :   1.0585 B( 22-C , 23-H ) :   0.9309
B( 22-C , 24-H ) :   0.9265 B( 22-C , 25-C ) :   1.0619 B( 25-C , 26-H ) :   0.9545
B( 25-C , 27-H ) :   0.9558 B( 25-C , 28-C ) :   1.0690 B( 28-C , 29-H ) :   0.9778
B( 28-C , 30-H ) :   0.9743 B( 28-C , 31-H ) :   0.9740

Dispersion correction           -0.015103487
FINAL SINGLE POINT ENERGY     -1339.867137087796

DIPOLE MOMENT
-------------
                                X             Y             Z
Electronic contribution:    -17.10219     -19.58362      -8.94430
Nuclear contribution   :     17.59952      20.10192       9.00353
                        -----------------------------------------
Total Dipole Moment    :      0.49733       0.51830       0.05923
                        -----------------------------------------
Magnitude (a.u.)       :      0.72075
Magnitude (Debye)      :      1.83201

Rotational constants in cm-1:     0.019150     0.009108     0.007016
Rotational constants in MHz :   574.087674   273.061441   210.337277

                             ****ORCA TERMINATED NORMALLY****
TOTAL RUN TIME: 0 days 0 hours 0 minutes 35 seconds 566 msec
