                         Program Version 4.2.1 -  RELEASE  -
|  1> ! wB97X-D3 SP def2-SVP
|  2> %pal
|  3> nprocs 16
|  4> end
|  5>
|  6> * xyz 0 1
|  7> S 	 55.0019 	 10.9143 	 68.8068
|  8> C 	 55.7002 	 12.2055 	 69.7159
|  9> C 	 56.4786 	 11.6956 	 70.7217
| 10> C 	 56.1547 	 10.3409 	 71.035
| 11> C 	 55.4098 	 9.74111 	 70.0399
| 12> H 	 56.5185 	 9.74841 	 71.8242
| 13> C 	 57.4365 	 12.5575 	 71.5399
| 14> H 	 57.3681 	 12.1322 	 72.5793
| 15> H 	 57.1933 	 13.6542 	 71.6651
| 16> C 	 58.8651 	 12.5935 	 71.085
| 17> H 	 58.9206 	 11.7534 	 70.4649
| 18> H 	 58.8907 	 13.3713 	 70.239
| 19> C 	 59.9897 	 12.6602 	 72.1758
| 20> H 	 59.9352 	 13.6746 	 72.581
| 21> H 	 59.9238 	 11.9237 	 72.9971
| 22> H 	 60.948 	 12.6597 	 71.7269
| 23> S 	 55.9156 	 7.11837 	 69.3416
| 24> C 	 54.5896 	 5.9664 	 69.5433
| 25> C 	 53.3901 	 6.53281 	 69.8253
| 26> C 	 53.5609 	 7.91888 	 69.9764
| 27> C 	 54.8974 	 8.38755 	 69.9062
| 28> H 	 52.5444 	 5.88321 	 69.9992
| 29> C 	 52.4284 	 8.81085 	 70.3867
| 30> H 	 52.831 	 9.77324 	 70.7452
| 31> H 	 51.9107 	 8.38506 	 71.2449
| 32> C 	 51.5967 	 9.23834 	 69.1094
| 33> H 	 50.9616 	 8.44535 	 68.7865
| 34> H 	 52.2977 	 9.42917 	 68.28
| 35> C 	 50.613 	 10.3827 	 69.4332
| 36> H 	 51.041 	 11.2798 	 69.9576
| 37> H 	 49.6002 	 10.0279 	 69.7652
| 38> H 	 50.2776 	 10.6537 	 68.4426
| 39> H 	 55.7801 	 13.2015 	 69.309
| 40> H 	 54.4875 	 4.90568 	 69.3645
| 41> *
| 42>
| 43>                          ****END OF INPUT****

CARTESIAN COORDINATES (ANGSTROEM)
---------------------------------
  S     55.001900   10.914300   68.806800
  C     55.700200   12.205500   69.715900
  C     56.478600   11.695600   70.721700
  C     56.154700   10.340900   71.035000
  C     55.409800    9.741110   70.039900
  H     56.518500    9.748410   71.824200
  C     57.436500   12.557500   71.539900
  H     57.368100   12.132200   72.579300
  H     57.193300   13.654200   71.665100
  C     58.865100   12.593500   71.085000
  H     58.920600   11.753400   70.464900
  H     58.890700   13.371300   70.239000
  C     59.989700   12.660200   72.175800
  H     59.935200   13.674600   72.581000
  H     59.923800   11.923700   72.997100
  H     60.948000   12.659700   71.726900
  S     55.915600    7.118370   69.341600
  C     54.589600    5.966400   69.543300
  C     53.390100    6.532810   69.825300
  C     53.560900    7.918880   69.976400
  C     54.897400    8.387550   69.906200
  H     52.544400    5.883210   69.999200
  C     52.428400    8.810850   70.386700
  H     52.831000    9.773240   70.745200
  H     51.910700    8.385060   71.244900
  C     51.596700    9.238340   69.109400
  H     50.961600    8.445350   68.786500
  H     52.297700    9.429170   68.280000
  C     50.613000   10.382700   69.433200
  H     51.041000   11.279800   69.957600
  H     49.600200   10.027900   69.765200
  H     50.277600   10.653700   68.442600
  H     55.780100   13.201500   69.309000
  H     54.487500    4.905680   69.364500

 Total Charge           Charge          ....    0
 Multiplicity           Mult            ....    1
 Number of Electrons    NEL             ....  134
 Basis Dimension        Dim             ....  322

ORBITAL ENERGIES
----------------

  NO   OCC          E(Eh)            E(eV)
   0   2.0000     -88.968797     -2420.9640
   1   2.0000     -88.963346     -2420.8157
   2   2.0000     -10.328768      -281.0601
   3   2.0000     -10.321799      -280.8704
   4   2.0000     -10.312804      -280.6257
   5   2.0000     -10.311342      -280.5859
   6   2.0000     -10.303080      -280.3611
   7   2.0000     -10.299264      -280.2572
   8   2.0000     -10.295055      -280.1427
   9   2.0000     -10.293540      -280.1015
  10   2.0000     -10.287736      -279.9435
  11   2.0000     -10.284448      -279.8541
  12   2.0000     -10.283810      -279.8367
  13   2.0000     -10.283660      -279.8326
  14   2.0000     -10.282296      -279.7955
  15   2.0000     -10.278257      -279.6856
  16   2.0000      -8.083271      -219.9570
  17   2.0000      -8.078548      -219.8285
  18   2.0000      -6.041812      -164.4061
  19   2.0000      -6.037817      -164.2973
  20   2.0000      -6.036939      -164.2735
  21   2.0000      -6.034011      -164.1938
  22   2.0000      -6.032990      -164.1660
  23   2.0000      -6.029386      -164.0679
  24   2.0000      -1.010673       -27.5018
  25   2.0000      -0.989476       -26.9250
  26   2.0000      -0.910831       -24.7850
  27   2.0000      -0.899365       -24.4730
  28   2.0000      -0.874326       -23.7916
  29   2.0000      -0.848467       -23.0880
  30   2.0000      -0.846104       -23.0237
  31   2.0000      -0.820879       -22.3372
  32   2.0000      -0.784239       -21.3402
  33   2.0000      -0.761784       -20.7292
  34   2.0000      -0.705991       -19.2110
  35   2.0000      -0.697638       -18.9837
  36   2.0000      -0.690520       -18.7900
  37   2.0000      -0.658188       -17.9102
  38   2.0000      -0.648844       -17.6559
  39   2.0000      -0.621314       -16.9068
  40   2.0000      -0.589760       -16.0482
  41   2.0000      -0.573811       -15.6142
  42   2.0000      -0.560167       -15.2429
  43   2.0000      -0.552380       -15.0310
  44   2.0000      -0.523787       -14.2530
  45   2.0000      -0.521185       -14.1822
  46   2.0000      -0.513642       -13.9769
  47   2.0000      -0.510211       -13.8835
  48   2.0000      -0.506197       -13.7743
  49   2.0000      -0.499137       -13.5822
  50   2.0000      -0.489848       -13.3295
  51   2.0000      -0.479810       -13.0563
  52   2.0000      -0.471976       -12.8431
  53   2.0000      -0.465434       -12.6651
  54   2.0000      -0.463701       -12.6179
  55   2.0000      -0.450437       -12.2570
  56   2.0000      -0.446401       -12.1472
  57   2.0000      -0.437522       -11.9056
  58   2.0000      -0.428763       -11.6672
  59   2.0000      -0.416679       -11.3384
  60   2.0000      -0.412252       -11.2180
  61   2.0000      -0.404287       -11.0012
  62   2.0000      -0.401393       -10.9224
  63   2.0000      -0.340602        -9.2683
  64   2.0000      -0.335854        -9.1391
  65   2.0000      -0.319215        -8.6863
  66   2.0000      -0.303231        -8.2513
  67   0.0000       0.035795         0.9740
  68   0.0000       0.061807         1.6819
  69   0.0000       0.114422         3.1136
  70   0.0000       0.121716         3.3121
  71   0.0000       0.125491         3.4148

MULLIKEN ATOMIC CHARGES
-----------------------
   0 S :    0.113345
   1 C :   -0.113888
   2 C :   -0.084626
   3 C :    0.073479
   4 C :   -0.188473
   5 H :   -0.002687
   6 C :    0.009038
   7 H :    0.024808
   8 H :    0.037306
   9 C :   -0.066819
  10 H :    0.008226
  11 H :    0.023797
  12 C :   -0.020705
  13 H :    0.027658
  14 H :    0.048630
  15 H :    0.028975
  16 S :    0.128580
  17 C :   -0.069106
  18 C :   -0.048931
  19 C :   -0.025504
  20 C :   -0.162633
  21 H :    0.023613
  22 C :    0.060644
  23 H :    0.020769
  24 H :    0.032082
  25 C :   -0.084375
  26 H :    0.016437
  27 H :    0.039423
  28 C :   -0.046361
  29 H :    0.055804
  30 H :    0.033225
  31 H :    0.013567
  32 H :    0.053516
  33 H :    0.041186
Sum of atomic charges:    0.0000000

LOEWDIN ATOMIC CHARGES
----------------------
   0 S :    0.419239
   1 C :   -0.197546
   2 C :   -0.064941
   3 C :   -0.049084
   4 C :   -0.192749
   5 H :    0.027919
   6 C :   -0.043250
   7 H :    0.030889
   8 H :    0.033839
   9 C :   -0.052787
  10 H :    0.011942
  11 H :    0.031691
  12 C :   -0.059412
  13 H :    0.028396
  14 H :    0.031620
  15 H :    0.024370
  16 S :    0.417340
  17 C :   -0.179328
  18 C :   -0.072823
  19 C :   -0.047847
  20 C :   -0.230372
  21 H :    0.037609
  22 C :   -0.037406
  23 H :    0.027122
  24 H :    0.029344
  25 C :   -0.034887
  26 H :    0.018383
  27 H :    0.022942
  28 C :   -0.079004
  29 H :    0.031809
  30 H :    0.032701
  31 H :    0.025844
  32 H :    0.027170
  33 H :    0.031266

  Mayer bond orders larger than 0.100000
B(  0-S ,  1-C ) :   1.1503 B(  0-S ,  4-C ) :   1.1590 B(  1-C ,  2-C ) :   1.6059
B(  1-C , 32-H ) :   0.9689 B(  2-C ,  3-C ) :   1.2235 B(  2-C ,  6-C ) :   1.0276
B(  3-C ,  4-C ) :   1.5960 B(  3-C ,  5-H ) :   1.0003 B(  4-C , 20-C ) :   1.0190
B(  6-C ,  7-H ) :   0.9455 B(  6-C ,  8-H ) :   0.9536 B(  6-C ,  9-C ) :   1.0421
B(  9-C , 10-H ) :   0.9601 B(  9-C , 11-H ) :   0.9500 B(  9-C , 12-C ) :   1.0652
B( 12-C , 13-H ) :   0.9757 B( 12-C , 14-H ) :   0.9766 B( 12-C , 15-H ) :   0.9736
B( 16-S , 17-C ) :   1.1545 B( 16-S , 20-C ) :   1.1401 B( 17-C , 18-C ) :   1.6318
B( 17-C , 33-H ) :   0.9572 B( 18-C , 19-C ) :   1.2441 B( 18-C , 21-H ) :   0.9926
B( 19-C , 20-C ) :   1.5681 B( 19-C , 22-C ) :   1.0594 B( 22-C , 23-H ) :   0.9337
B( 22-C , 24-H ) :   0.9450 B( 22-C , 25-C ) :   1.0386 B( 25-C , 26-H ) :   0.9531
B( 25-C , 27-H ) :   0.9579 B( 25-C , 28-C ) :   1.0856 B( 28-C , 29-H ) :   0.9730
B( 28-C , 30-H ) :   0.9714 B( 28-C , 31-H ) :   0.9671

Dispersion correction           -0.014498223
FINAL SINGLE POINT ENERGY     -1339.849139058342

DIPOLE MOMENT
-------------
                                X             Y             Z
Electronic contribution:      1.56174     -14.47553      -8.90706
Nuclear contribution   :     -1.65522      14.56680       9.09588
                        -----------------------------------------
Total Dipole Moment    :     -0.09348       0.09127       0.18882
                        -----------------------------------------
Magnitude (a.u.)       :      0.22961
Magnitude (Debye)      :      0.58363

Rotational constants in cm-1:     0.021183     0.007943     0.006331
Rotational constants in MHz :   635.060749   238.139991   189.801817

                             ****ORCA TERMINATED NORMALLY****
TOTAL RUN TIME: 0 days 0 hours 0 minutes 29 seconds 843 msec
