                         Program Version 4.2.1 -  RELEASE  -
|  1> ! wB97X-D3 SP def2-SVP
|  2> %pal
|  3> nprocs 16
|  4> end
|  5>
|  6> * xyz 0 1
|  7> S 	 -71.6429 	 46.3545 	 122.474
|  8> C 	 -73.1707 	 45.7582 	 122.067
|  9> C 	 -74.0973 	 46.3105 	 122.944
| 10> C 	 -73.4534 	 46.9463 	 124.07
| 11> C 	 -72.1222 	 47.1661 	 123.924
| 12> H 	 -74.0134 	 47.4921 	 124.824
| 13> C 	 -75.5999 	 46.1693 	 122.833
| 14> H 	 -75.9469 	 46.4577 	 121.824
| 15> H 	 -76.1083 	 46.7973 	 123.571
| 16> C 	 -76.1338 	 44.791 	 123.219
| 17> H 	 -75.7915 	 44.3301 	 124.141
| 18> H 	 -77.2848 	 44.7869 	 123.287
| 19> C 	 -75.8244 	 43.7774 	 122.13
| 20> H 	 -74.8271 	 43.535 	 122.133
| 21> H 	 -76.3238 	 42.8038 	 122.256
| 22> H 	 -76.1364 	 44.0774 	 121.091
| 23> S 	 -70.2883 	 46.7152 	 125.898
| 24> C 	 -69.5996 	 48.0152 	 126.793
| 25> C 	 -70.157 	 49.1955 	 126.356
| 26> C 	 -71.137 	 49.1089 	 125.323
| 27> C 	 -71.1801 	 47.8078 	 124.8
| 28> H 	 -69.9525 	 50.1053 	 126.856
| 29> C 	 -72.018 	 50.2638 	 124.893
| 30> H 	 -72.946 	 50.1287 	 125.403
| 31> H 	 -72.0917 	 49.9155 	 123.834
| 32> C 	 -71.4754 	 51.7133 	 125.053
| 33> H 	 -70.4985 	 51.8171 	 124.532
| 34> H 	 -71.4171 	 52.0201 	 126.076
| 35> C 	 -72.395 	 52.7488 	 124.292
| 36> H 	 -72.6142 	 53.5825 	 125.02
| 37> H 	 -73.3456 	 52.2781 	 124
| 38> H 	 -72.0019 	 53.027 	 123.319
| 39> H 	 -73.5247 	 45.3958 	 121.098
| 40> H 	 -69.2086 	 47.8422 	 127.81
| 41> *
| 42>
| 43>                          ****END OF INPUT****

CARTESIAN COORDINATES (ANGSTROEM)
---------------------------------
  S    -71.642900   46.354500  122.474000
  C    -73.170700   45.758200  122.067000
  C    -74.097300   46.310500  122.944000
  C    -73.453400   46.946300  124.070000
  C    -72.122200   47.166100  123.924000
  H    -74.013400   47.492100  124.824000
  C    -75.599900   46.169300  122.833000
  H    -75.946900   46.457700  121.824000
  H    -76.108300   46.797300  123.571000
  C    -76.133800   44.791000  123.219000
  H    -75.791500   44.330100  124.141000
  H    -77.284800   44.786900  123.287000
  C    -75.824400   43.777400  122.130000
  H    -74.827100   43.535000  122.133000
  H    -76.323800   42.803800  122.256000
  H    -76.136400   44.077400  121.091000
  S    -70.288300   46.715200  125.898000
  C    -69.599600   48.015200  126.793000
  C    -70.157000   49.195500  126.356000
  C    -71.137000   49.108900  125.323000
  C    -71.180100   47.807800  124.800000
  H    -69.952500   50.105300  126.856000
  C    -72.018000   50.263800  124.893000
  H    -72.946000   50.128700  125.403000
  H    -72.091700   49.915500  123.834000
  C    -71.475400   51.713300  125.053000
  H    -70.498500   51.817100  124.532000
  H    -71.417100   52.020100  126.076000
  C    -72.395000   52.748800  124.292000
  H    -72.614200   53.582500  125.020000
  H    -73.345600   52.278100  124.000000
  H    -72.001900   53.027000  123.319000
  H    -73.524700   45.395800  121.098000
  H    -69.208600   47.842200  127.810000

 Total Charge           Charge          ....    0
 Multiplicity           Mult            ....    1
 Number of Electrons    NEL             ....  134
 Basis Dimension        Dim             ....  322

ORBITAL ENERGIES
----------------

  NO   OCC          E(Eh)            E(eV)
   0   2.0000     -88.961344     -2420.7612
   1   2.0000     -88.961223     -2420.7579
   2   2.0000     -10.326246      -280.9914
   3   2.0000     -10.324289      -280.9382
   4   2.0000     -10.317541      -280.7546
   5   2.0000     -10.311018      -280.5771
   6   2.0000     -10.307759      -280.4884
   7   2.0000     -10.300935      -280.3027
   8   2.0000     -10.297208      -280.2013
   9   2.0000     -10.295620      -280.1581
  10   2.0000     -10.294986      -280.1408
  11   2.0000     -10.291491      -280.0457
  12   2.0000     -10.290190      -280.0103
  13   2.0000     -10.288940      -279.9763
  14   2.0000     -10.285337      -279.8782
  15   2.0000     -10.268734      -279.4265
  16   2.0000      -8.077490      -219.7997
  17   2.0000      -8.076279      -219.7667
  18   2.0000      -6.035884      -164.2448
  19   2.0000      -6.034699      -164.2125
  20   2.0000      -6.031523      -164.1261
  21   2.0000      -6.030725      -164.1044
  22   2.0000      -6.028499      -164.0438
  23   2.0000      -6.027112      -164.0061
  24   2.0000      -1.013474       -27.5780
  25   2.0000      -0.989013       -26.9124
  26   2.0000      -0.914523       -24.8854
  27   2.0000      -0.907345       -24.6901
  28   2.0000      -0.874652       -23.8005
  29   2.0000      -0.849602       -23.1188
  30   2.0000      -0.845440       -23.0056
  31   2.0000      -0.814167       -22.1546
  32   2.0000      -0.783258       -21.3135
  33   2.0000      -0.772970       -21.0336
  34   2.0000      -0.709874       -19.3167
  35   2.0000      -0.702429       -19.1141
  36   2.0000      -0.690987       -18.8027
  37   2.0000      -0.653304       -17.7773
  38   2.0000      -0.643749       -17.5173
  39   2.0000      -0.618607       -16.8331
  40   2.0000      -0.595013       -16.1911
  41   2.0000      -0.577139       -15.7048
  42   2.0000      -0.573299       -15.6002
  43   2.0000      -0.546324       -14.8662
  44   2.0000      -0.542774       -14.7696
  45   2.0000      -0.532031       -14.4773
  46   2.0000      -0.518957       -14.1215
  47   2.0000      -0.516322       -14.0498
  48   2.0000      -0.504880       -13.7385
  49   2.0000      -0.499333       -13.5875
  50   2.0000      -0.489385       -13.3168
  51   2.0000      -0.480352       -13.0710
  52   2.0000      -0.474126       -12.9016
  53   2.0000      -0.464976       -12.6526
  54   2.0000      -0.459801       -12.5118
  55   2.0000      -0.439631       -11.9630
  56   2.0000      -0.437184       -11.8964
  57   2.0000      -0.435175       -11.8417
  58   2.0000      -0.430924       -11.7260
  59   2.0000      -0.426173       -11.5968
  60   2.0000      -0.420603       -11.4452
  61   2.0000      -0.414226       -11.2717
  62   2.0000      -0.407188       -11.0801
  63   2.0000      -0.342911        -9.3311
  64   2.0000      -0.325215        -8.8495
  65   2.0000      -0.322682        -8.7806
  66   2.0000      -0.305248        -8.3062
  67   0.0000       0.036662         0.9976
  68   0.0000       0.052701         1.4341
  69   0.0000       0.113420         3.0863
  70   0.0000       0.117236         3.1902
  71   0.0000       0.143519         3.9053

MULLIKEN ATOMIC CHARGES
-----------------------
   0 S :    0.121125
   1 C :   -0.089391
   2 C :   -0.154990
   3 C :    0.049698
   4 C :   -0.186899
   5 H :    0.009869
   6 C :    0.076776
   7 H :    0.035777
   8 H :    0.021753
   9 C :   -0.076799
  10 H :    0.034315
  11 H :    0.037097
  12 C :   -0.066697
  13 H :    0.021992
  14 H :    0.025855
  15 H :    0.021997
  16 S :    0.099358
  17 C :   -0.081861
  18 C :   -0.039422
  19 C :   -0.053226
  20 C :   -0.154009
  21 H :    0.002542
  22 C :    0.061360
  23 H :    0.043574
  24 H :    0.052158
  25 C :   -0.096942
  26 H :    0.047566
  27 H :    0.039111
  28 C :   -0.058348
  29 H :    0.047064
  30 H :    0.026377
  31 H :    0.039706
  32 H :    0.061799
  33 H :    0.081714
Sum of atomic charges:    0.0000000

LOEWDIN ATOMIC CHARGES
----------------------
   0 S :    0.443459
   1 C :   -0.224395
   2 C :   -0.065470
   3 C :   -0.064417
   4 C :   -0.216118
   5 H :    0.029190
   6 C :   -0.033635
   7 H :    0.034650
   8 H :    0.032395
   9 C :   -0.040954
  10 H :    0.027527
  11 H :    0.030224
  12 C :   -0.072165
  13 H :    0.009701
  14 H :    0.026923
  15 H :    0.023425
  16 S :    0.411602
  17 C :   -0.198040
  18 C :   -0.076028
  19 C :   -0.043698
  20 C :   -0.206406
  21 H :    0.021376
  22 C :   -0.036074
  23 H :    0.032302
  24 H :    0.046726
  25 C :   -0.040966
  26 H :    0.034302
  27 H :    0.020372
  28 C :   -0.069231
  29 H :    0.034474
  30 H :    0.024612
  31 H :    0.026276
  32 H :    0.037078
  33 H :    0.040983

  Mayer bond orders larger than 0.100000
B(  0-S ,  1-C ) :   1.1662 B(  0-S ,  4-C ) :   1.1659 B(  1-C ,  2-C ) :   1.5812
B(  1-C , 32-H ) :   0.9549 B(  2-C ,  3-C ) :   1.2695 B(  2-C ,  6-C ) :   1.0337
B(  3-C ,  4-C ) :   1.5777 B(  3-C ,  5-H ) :   0.9882 B(  4-C , 20-C ) :   1.0068
B(  6-C ,  7-H ) :   0.9418 B(  6-C ,  8-H ) :   0.9387 B(  6-C ,  9-C ) :   1.0641
B(  9-C , 10-H ) :   0.9532 B(  9-C , 11-H ) :   0.9581 B(  9-C , 12-C ) :   1.0827
B( 12-C , 13-H ) :   0.9705 B( 12-C , 14-H ) :   0.9696 B( 12-C , 15-H ) :   0.9745
B( 16-S , 17-C ) :   1.1765 B( 16-S , 20-C ) :   1.1549 B( 17-C , 18-C ) :   1.5727
B( 17-C , 20-C ) :   0.1036 B( 17-C , 33-H ) :   0.9584 B( 18-C , 19-C ) :   1.2771
B( 18-C , 21-H ) :   0.9923 B( 19-C , 20-C ) :   1.5667 B( 19-C , 22-C ) :   1.0165
B( 22-C , 23-H ) :   0.9201 B( 22-C , 24-H ) :   0.9389 B( 22-C , 25-C ) :   1.0821
B( 25-C , 26-H ) :   0.9641 B( 25-C , 27-H ) :   0.9572 B( 25-C , 28-C ) :   1.0634
B( 28-C , 29-H ) :   0.9789 B( 28-C , 30-H ) :   0.9772 B( 28-C , 31-H ) :   0.9794

Dispersion correction           -0.013860802
FINAL SINGLE POINT ENERGY     -1339.855600993814

DIPOLE MOMENT
-------------
                                X             Y             Z
Electronic contribution:     19.89251      -9.74858       4.04636
Nuclear contribution   :    -20.55255      10.27936      -3.79443
                        -----------------------------------------
Total Dipole Moment    :     -0.66004       0.53078       0.25192
                        -----------------------------------------
Magnitude (a.u.)       :      0.88366
Magnitude (Debye)      :      2.24608

Rotational constants in cm-1:     0.019953     0.007566     0.006266
Rotational constants in MHz :   598.168983   226.816896   187.859910

                             ****ORCA TERMINATED NORMALLY****
TOTAL RUN TIME: 0 days 0 hours 0 minutes 32 seconds 984 msec
