                         Program Version 4.2.1 -  RELEASE  -
|  1> ! wB97X-D3 SP def2-SVP
|  2> %pal
|  3> nprocs 16
|  4> end
|  5>
|  6> * xyz 0 1
|  7> S 	 -7.75486 	 60.7261 	 53.1207
|  8> C 	 -6.88163 	 60.1509 	 54.5951
|  9> C 	 -6.45929 	 61.1807 	 55.367
| 10> C 	 -6.62996 	 62.4196 	 54.6787
| 11> C 	 -7.27705 	 62.3309 	 53.4809
| 12> H 	 -6.24268 	 63.3406 	 54.9569
| 13> C 	 -5.74446 	 61.1541 	 56.7441
| 14> H 	 -5.91192 	 60.1461 	 57.1086
| 15> H 	 -6.27045 	 61.8816 	 57.402
| 16> C 	 -4.3389 	 61.6919 	 56.778
| 17> H 	 -4.34575 	 62.7384 	 56.4128
| 18> H 	 -4.03727 	 61.5703 	 57.8355
| 19> C 	 -3.29735 	 61.0303 	 55.818
| 20> H 	 -3.52812 	 61.0929 	 54.668
| 21> H 	 -2.31916 	 61.375 	 55.9871
| 22> H 	 -3.29364 	 59.9569 	 56.0993
| 23> S 	 -9.29261 	 63.6191 	 52.1199
| 24> C 	 -8.83854 	 64.9431 	 51.0135
| 25> C 	 -7.48451 	 65.2031 	 50.9771
| 26> C 	 -6.79239 	 64.3158 	 51.8828
| 27> C 	 -7.58633 	 63.3909 	 52.5364
| 28> H 	 -7.06835 	 65.9407 	 50.3077
| 29> C 	 -5.25562 	 64.4728 	 52.0454
| 30> H 	 -5.12685 	 65.0131 	 52.9365
| 31> H 	 -4.81102 	 65.1404 	 51.3251
| 32> C 	 -4.38063 	 63.1895 	 52.0183
| 33> H 	 -4.68306 	 62.5558 	 51.1628
| 34> H 	 -4.46603 	 62.6313 	 52.9304
| 35> C 	 -2.84696 	 63.5716 	 51.8444
| 36> H 	 -2.57582 	 64.2075 	 52.6627
| 37> H 	 -2.67089 	 64.1218 	 50.9586
| 38> H 	 -2.1737 	 62.7023 	 51.767
| 39> H 	 -6.93778 	 59.1486 	 54.9123
| 40> H 	 -9.5042 	 65.6727 	 50.5716
| 41> *
| 42>
| 43>                          ****END OF INPUT****

CARTESIAN COORDINATES (ANGSTROEM)
---------------------------------
  S     -7.754860   60.726100   53.120700
  C     -6.881630   60.150900   54.595100
  C     -6.459290   61.180700   55.367000
  C     -6.629960   62.419600   54.678700
  C     -7.277050   62.330900   53.480900
  H     -6.242680   63.340600   54.956900
  C     -5.744460   61.154100   56.744100
  H     -5.911920   60.146100   57.108600
  H     -6.270450   61.881600   57.402000
  C     -4.338900   61.691900   56.778000
  H     -4.345750   62.738400   56.412800
  H     -4.037270   61.570300   57.835500
  C     -3.297350   61.030300   55.818000
  H     -3.528120   61.092900   54.668000
  H     -2.319160   61.375000   55.987100
  H     -3.293640   59.956900   56.099300
  S     -9.292610   63.619100   52.119900
  C     -8.838540   64.943100   51.013500
  C     -7.484510   65.203100   50.977100
  C     -6.792390   64.315800   51.882800
  C     -7.586330   63.390900   52.536400
  H     -7.068350   65.940700   50.307700
  C     -5.255620   64.472800   52.045400
  H     -5.126850   65.013100   52.936500
  H     -4.811020   65.140400   51.325100
  C     -4.380630   63.189500   52.018300
  H     -4.683060   62.555800   51.162800
  H     -4.466030   62.631300   52.930400
  C     -2.846960   63.571600   51.844400
  H     -2.575820   64.207500   52.662700
  H     -2.670890   64.121800   50.958600
  H     -2.173700   62.702300   51.767000
  H     -6.937780   59.148600   54.912300
  H     -9.504200   65.672700   50.571600

 Total Charge           Charge          ....    0
 Multiplicity           Mult            ....    1
 Number of Electrons    NEL             ....  134
 Basis Dimension        Dim             ....  322

ORBITAL ENERGIES
----------------

  NO   OCC          E(Eh)            E(eV)
   0   2.0000     -88.967242     -2420.9217
   1   2.0000     -88.963270     -2420.8136
   2   2.0000     -10.326840      -281.0076
   3   2.0000     -10.324537      -280.9449
   4   2.0000     -10.319222      -280.8003
   5   2.0000     -10.311590      -280.5926
   6   2.0000     -10.307842      -280.4906
   7   2.0000     -10.301124      -280.3078
   8   2.0000     -10.298450      -280.2351
   9   2.0000     -10.296774      -280.1895
  10   2.0000     -10.295814      -280.1633
  11   2.0000     -10.288295      -279.9587
  12   2.0000     -10.285866      -279.8926
  13   2.0000     -10.284410      -279.8530
  14   2.0000     -10.283368      -279.8247
  15   2.0000     -10.274758      -279.5904
  16   2.0000      -8.081094      -219.8977
  17   2.0000      -8.078196      -219.8189
  18   2.0000      -6.039682      -164.3481
  19   2.0000      -6.036743      -164.2681
  20   2.0000      -6.035837      -164.2435
  21   2.0000      -6.032802      -164.1609
  22   2.0000      -6.031701      -164.1309
  23   2.0000      -6.028771      -164.0512
  24   2.0000      -1.007081       -27.4041
  25   2.0000      -0.980434       -26.6790
  26   2.0000      -0.913780       -24.8652
  27   2.0000      -0.899000       -24.4630
  28   2.0000      -0.870355       -23.6836
  29   2.0000      -0.844581       -22.9822
  30   2.0000      -0.841348       -22.8942
  31   2.0000      -0.815219       -22.1832
  32   2.0000      -0.787470       -21.4281
  33   2.0000      -0.773225       -21.0405
  34   2.0000      -0.711652       -19.3650
  35   2.0000      -0.697237       -18.9728
  36   2.0000      -0.690056       -18.7774
  37   2.0000      -0.660952       -17.9854
  38   2.0000      -0.644511       -17.5380
  39   2.0000      -0.624049       -16.9812
  40   2.0000      -0.590879       -16.0786
  41   2.0000      -0.568319       -15.4648
  42   2.0000      -0.564041       -15.3483
  43   2.0000      -0.551952       -15.0194
  44   2.0000      -0.540444       -14.7062
  45   2.0000      -0.522805       -14.2262
  46   2.0000      -0.520421       -14.1614
  47   2.0000      -0.511720       -13.9246
  48   2.0000      -0.502519       -13.6742
  49   2.0000      -0.492083       -13.3903
  50   2.0000      -0.489641       -13.3238
  51   2.0000      -0.482408       -13.1270
  52   2.0000      -0.472723       -12.8634
  53   2.0000      -0.461694       -12.5633
  54   2.0000      -0.453964       -12.3530
  55   2.0000      -0.447903       -12.1881
  56   2.0000      -0.445002       -12.1091
  57   2.0000      -0.443178       -12.0595
  58   2.0000      -0.435204       -11.8425
  59   2.0000      -0.422228       -11.4894
  60   2.0000      -0.417541       -11.3619
  61   2.0000      -0.414492       -11.2789
  62   2.0000      -0.411100       -11.1866
  63   2.0000      -0.345303        -9.3962
  64   2.0000      -0.334798        -9.1103
  65   2.0000      -0.328014        -8.9257
  66   2.0000      -0.296750        -8.0750
  67   0.0000       0.035702         0.9715
  68   0.0000       0.064866         1.7651
  69   0.0000       0.104257         2.8370
  70   0.0000       0.118901         3.2355
  71   0.0000       0.125598         3.4177

MULLIKEN ATOMIC CHARGES
-----------------------
   0 S :    0.100508
   1 C :   -0.125623
   2 C :   -0.064801
   3 C :    0.044559
   4 C :   -0.151928
   5 H :   -0.025948
   6 C :    0.091747
   7 H :    0.019664
   8 H :    0.040643
   9 C :   -0.096004
  10 H :    0.038685
  11 H :    0.046099
  12 C :   -0.083737
  13 H :    0.071668
  14 H :    0.028961
  15 H :    0.024111
  16 S :    0.101899
  17 C :   -0.081459
  18 C :   -0.041918
  19 C :   -0.023704
  20 C :   -0.157345
  21 H :    0.025871
  22 C :    0.076864
  23 H :    0.018895
  24 H :    0.002142
  25 C :   -0.078998
  26 H :    0.042705
  27 H :    0.037124
  28 C :   -0.046726
  29 H :    0.022972
  30 H :    0.018328
  31 H :    0.039496
  32 H :    0.028338
  33 H :    0.056912
Sum of atomic charges:    0.0000000

LOEWDIN ATOMIC CHARGES
----------------------
   0 S :    0.394037
   1 C :   -0.173311
   2 C :   -0.056970
   3 C :   -0.060270
   4 C :   -0.196242
   5 H :    0.016211
   6 C :   -0.028817
   7 H :    0.026464
   8 H :    0.042162
   9 C :   -0.044585
  10 H :    0.026912
  11 H :    0.033654
  12 C :   -0.076695
  13 H :    0.041103
  14 H :    0.016635
  15 H :    0.024280
  16 S :    0.383386
  17 C :   -0.172698
  18 C :   -0.067814
  19 C :   -0.048349
  20 C :   -0.197395
  21 H :    0.035179
  22 C :   -0.030175
  23 H :    0.024642
  24 H :    0.026253
  25 C :   -0.032790
  26 H :    0.029198
  27 H :    0.017696
  28 C :   -0.063247
  29 H :    0.020293
  30 H :    0.015839
  31 H :    0.029298
  32 H :    0.016073
  33 H :    0.030045

  Mayer bond orders larger than 0.100000
B(  0-S ,  1-C ) :   1.1134 B(  0-S ,  4-C ) :   1.1503 B(  1-C ,  2-C ) :   1.6541
B(  1-C , 32-H ) :   0.9709 B(  2-C ,  3-C ) :   1.1910 B(  2-C ,  6-C ) :   1.0142
B(  3-C ,  4-C ) :   1.6164 B(  3-C ,  5-H ) :   1.0083 B(  4-C , 20-C ) :   1.0179
B(  6-C ,  7-H ) :   0.9409 B(  6-C ,  8-H ) :   0.9367 B(  6-C ,  9-C ) :   1.0718
B(  9-C , 10-H ) :   0.9530 B(  9-C , 11-H ) :   0.9538 B(  9-C , 12-C ) :   1.0710
B( 12-C , 13-H ) :   0.9661 B( 12-C , 14-H ) :   0.9745 B( 12-C , 15-H ) :   0.9744
B( 16-S , 17-C ) :   1.1409 B( 16-S , 20-C ) :   1.1204 B( 17-C , 18-C ) :   1.6435
B( 17-C , 33-H ) :   0.9599 B( 18-C , 19-C ) :   1.2215 B( 18-C , 21-H ) :   0.9900
B( 19-C , 20-C ) :   1.6366 B( 19-C , 22-C ) :   1.0240 B( 22-C , 23-H ) :   0.9256
B( 22-C , 24-H ) :   0.9424 B( 22-C , 25-C ) :   1.0579 B( 25-C , 26-H ) :   0.9616
B( 25-C , 27-H ) :   0.9500 B( 25-C , 28-C ) :   1.0805 B( 28-C , 29-H ) :   0.9765
B( 28-C , 30-H ) :   0.9762 B( 28-C , 31-H ) :   0.9758

Dispersion correction           -0.015799456
FINAL SINGLE POINT ENERGY     -1339.873435137049

DIPOLE MOMENT
-------------
                                X             Y             Z
Electronic contribution:    -29.44163      -1.51072      -8.98670
Nuclear contribution   :     30.04942       1.85167       9.30964
                        -----------------------------------------
Total Dipole Moment    :      0.60779       0.34095       0.32294
                        -----------------------------------------
Magnitude (a.u.)       :      0.76808
Magnitude (Debye)      :      1.95230

Rotational constants in cm-1:     0.018722     0.010072     0.007509
Rotational constants in MHz :   561.277803   301.965320   225.109823

                             ****ORCA TERMINATED NORMALLY****
TOTAL RUN TIME: 0 days 0 hours 0 minutes 35 seconds 904 msec
