                         Program Version 4.2.1 -  RELEASE  -
|  1> ! wB97X-D3 SP def2-SVP
|  2> %pal
|  3> nprocs 16
|  4> end
|  5>
|  6> * xyz 0 1
|  7> S 	 -46.7925 	 66.159 	 125.805
|  8> C 	 -46.3743 	 64.3974 	 125.524
|  9> C 	 -46.7591 	 63.5557 	 126.632
| 10> C 	 -47.4056 	 64.3693 	 127.666
| 11> C 	 -47.4046 	 65.6961 	 127.389
| 12> H 	 -47.8091 	 63.9422 	 128.577
| 13> C 	 -46.6395 	 62.0609 	 126.64
| 14> H 	 -46.8955 	 61.5585 	 127.511
| 15> H 	 -45.5651 	 61.9755 	 126.525
| 16> C 	 -47.4063 	 61.4229 	 125.462
| 17> H 	 -48.4256 	 61.8982 	 125.518
| 18> H 	 -46.9828 	 61.9024 	 124.533
| 19> C 	 -47.5029 	 59.828 	 125.304
| 20> H 	 -46.5819 	 59.2488 	 125.545
| 21> H 	 -48.3656 	 59.5047 	 125.919
| 22> H 	 -47.7399 	 59.6108 	 124.314
| 23> S 	 -47.1266 	 68.1728 	 128.447
| 24> C 	 -48.1413 	 68.7949 	 129.696
| 25> C 	 -49.234 	 67.9488 	 129.869
| 26> C 	 -49.2219 	 66.7203 	 129.036
| 27> C 	 -48.0823 	 66.7285 	 128.213
| 28> H 	 -49.932 	 68.1313 	 130.634
| 29> C 	 -50.3776 	 65.6646 	 128.984
| 30> H 	 -50.2587 	 65.0427 	 128.056
| 31> H 	 -51.3611 	 66.1316 	 128.837
| 32> C 	 -50.6626 	 64.8933 	 130.316
| 33> H 	 -51.2241 	 65.4494 	 131.026
| 34> H 	 -49.8085 	 64.6115 	 130.918
| 35> C 	 -51.4958 	 63.6199 	 130.181
| 36> H 	 -52.0316 	 63.5194 	 131.12
| 37> H 	 -50.78 	 62.8194 	 129.911
| 38> H 	 -52.3022 	 63.6898 	 129.43
| 39> H 	 -45.8317 	 63.9228 	 124.681
| 40> H 	 -47.8142 	 69.5382 	 130.366
| 41> *
| 42>
| 43>                          ****END OF INPUT****

CARTESIAN COORDINATES (ANGSTROEM)
---------------------------------
  S    -46.792500   66.159000  125.805000
  C    -46.374300   64.397400  125.524000
  C    -46.759100   63.555700  126.632000
  C    -47.405600   64.369300  127.666000
  C    -47.404600   65.696100  127.389000
  H    -47.809100   63.942200  128.577000
  C    -46.639500   62.060900  126.640000
  H    -46.895500   61.558500  127.511000
  H    -45.565100   61.975500  126.525000
  C    -47.406300   61.422900  125.462000
  H    -48.425600   61.898200  125.518000
  H    -46.982800   61.902400  124.533000
  C    -47.502900   59.828000  125.304000
  H    -46.581900   59.248800  125.545000
  H    -48.365600   59.504700  125.919000
  H    -47.739900   59.610800  124.314000
  S    -47.126600   68.172800  128.447000
  C    -48.141300   68.794900  129.696000
  C    -49.234000   67.948800  129.869000
  C    -49.221900   66.720300  129.036000
  C    -48.082300   66.728500  128.213000
  H    -49.932000   68.131300  130.634000
  C    -50.377600   65.664600  128.984000
  H    -50.258700   65.042700  128.056000
  H    -51.361100   66.131600  128.837000
  C    -50.662600   64.893300  130.316000
  H    -51.224100   65.449400  131.026000
  H    -49.808500   64.611500  130.918000
  C    -51.495800   63.619900  130.181000
  H    -52.031600   63.519400  131.120000
  H    -50.780000   62.819400  129.911000
  H    -52.302200   63.689800  129.430000
  H    -45.831700   63.922800  124.681000
  H    -47.814200   69.538200  130.366000

 Total Charge           Charge          ....    0
 Multiplicity           Mult            ....    1
 Number of Electrons    NEL             ....  134
 Basis Dimension        Dim             ....  322

ORBITAL ENERGIES
----------------

  NO   OCC          E(Eh)            E(eV)
   0   2.0000     -88.973232     -2421.0847
   1   2.0000     -88.961860     -2420.7753
   2   2.0000     -10.331582      -281.1366
   3   2.0000     -10.330237      -281.1000
   4   2.0000     -10.325124      -280.9609
   5   2.0000     -10.315867      -280.7090
   6   2.0000     -10.314666      -280.6763
   7   2.0000     -10.312041      -280.6049
   8   2.0000     -10.305429      -280.4250
   9   2.0000     -10.299036      -280.2510
  10   2.0000     -10.297565      -280.2110
  11   2.0000     -10.295751      -280.1616
  12   2.0000     -10.289162      -279.9823
  13   2.0000     -10.286537      -279.9109
  14   2.0000     -10.284082      -279.8441
  15   2.0000     -10.281372      -279.7703
  16   2.0000      -8.086029      -220.0320
  17   2.0000      -8.077428      -219.7980
  18   2.0000      -6.044800      -164.4874
  19   2.0000      -6.041020      -164.3845
  20   2.0000      -6.036408      -164.2590
  21   2.0000      -6.035897      -164.2451
  22   2.0000      -6.031650      -164.1296
  23   2.0000      -6.028339      -164.0394
  24   2.0000      -1.000237       -27.2178
  25   2.0000      -0.973155       -26.4809
  26   2.0000      -0.909796       -24.7568
  27   2.0000      -0.904393       -24.6098
  28   2.0000      -0.859040       -23.3757
  29   2.0000      -0.850607       -23.1462
  30   2.0000      -0.840478       -22.8706
  31   2.0000      -0.814755       -22.1706
  32   2.0000      -0.783186       -21.3116
  33   2.0000      -0.770998       -20.9799
  34   2.0000      -0.705562       -19.1993
  35   2.0000      -0.699831       -19.0434
  36   2.0000      -0.690638       -18.7932
  37   2.0000      -0.662472       -18.0268
  38   2.0000      -0.633162       -17.2292
  39   2.0000      -0.616420       -16.7736
  40   2.0000      -0.596301       -16.2262
  41   2.0000      -0.574044       -15.6205
  42   2.0000      -0.567383       -15.4393
  43   2.0000      -0.549095       -14.9416
  44   2.0000      -0.532290       -14.4844
  45   2.0000      -0.521028       -14.1779
  46   2.0000      -0.517446       -14.0804
  47   2.0000      -0.507781       -13.8174
  48   2.0000      -0.503003       -13.6874
  49   2.0000      -0.497826       -13.5465
  50   2.0000      -0.489573       -13.3220
  51   2.0000      -0.479756       -13.0548
  52   2.0000      -0.473997       -12.8981
  53   2.0000      -0.459725       -12.5097
  54   2.0000      -0.455020       -12.3817
  55   2.0000      -0.449937       -12.2434
  56   2.0000      -0.442607       -12.0440
  57   2.0000      -0.439888       -11.9700
  58   2.0000      -0.435406       -11.8480
  59   2.0000      -0.429880       -11.6976
  60   2.0000      -0.418549       -11.3893
  61   2.0000      -0.412891       -11.2353
  62   2.0000      -0.410103       -11.1595
  63   2.0000      -0.346216        -9.4210
  64   2.0000      -0.331697        -9.0259
  65   2.0000      -0.326059        -8.8725
  66   2.0000      -0.288894        -7.8612
  67   0.0000       0.028898         0.7864
  68   0.0000       0.065090         1.7712
  69   0.0000       0.094190         2.5630
  70   0.0000       0.113526         3.0892
  71   0.0000       0.123333         3.3561

MULLIKEN ATOMIC CHARGES
-----------------------
   0 S :    0.114131
   1 C :   -0.139129
   2 C :   -0.131657
   3 C :    0.004557
   4 C :   -0.089491
   5 H :    0.013098
   6 C :    0.127725
   7 H :    0.002402
   8 H :    0.035364
   9 C :   -0.148698
  10 H :    0.042316
  11 H :    0.026683
  12 C :   -0.022478
  13 H :    0.044337
  14 H :    0.041376
  15 H :    0.024578
  16 S :    0.092187
  17 C :   -0.076439
  18 C :   -0.020828
  19 C :   -0.028063
  20 C :   -0.161986
  21 H :    0.004970
  22 C :    0.047201
  23 H :    0.048813
  24 H :    0.035444
  25 C :   -0.087666
  26 H :    0.013864
  27 H :    0.025271
  28 C :   -0.060517
  29 H :    0.032727
  30 H :    0.044838
  31 H :    0.026889
  32 H :    0.062138
  33 H :    0.056040
Sum of atomic charges:    0.0000000

LOEWDIN ATOMIC CHARGES
----------------------
   0 S :    0.376531
   1 C :   -0.195362
   2 C :   -0.042998
   3 C :   -0.066759
   4 C :   -0.186083
   5 H :    0.033479
   6 C :   -0.034494
   7 H :    0.018671
   8 H :    0.037553
   9 C :   -0.045294
  10 H :    0.031201
  11 H :    0.022493
  12 C :   -0.066407
  13 H :    0.031877
  14 H :    0.031636
  15 H :    0.019728
  16 S :    0.413385
  17 C :   -0.189574
  18 C :   -0.061380
  19 C :   -0.054525
  20 C :   -0.197197
  21 H :    0.020332
  22 C :   -0.035126
  23 H :    0.038126
  24 H :    0.037901
  25 C :   -0.048551
  26 H :    0.017091
  27 H :    0.021110
  28 C :   -0.063888
  29 H :    0.027963
  30 H :    0.028434
  31 H :    0.023173
  32 H :    0.032428
  33 H :    0.024528

  Mayer bond orders larger than 0.100000
B(  0-S ,  1-C ) :   1.1080 B(  0-S ,  4-C ) :   1.1337 B(  1-C ,  2-C ) :   1.6305
B(  1-C , 32-H ) :   0.9597 B(  2-C ,  3-C ) :   1.2092 B(  2-C ,  6-C ) :   1.0204
B(  3-C ,  4-C ) :   1.6149 B(  3-C ,  5-H ) :   0.9976 B(  4-C , 20-C ) :   0.9939
B(  6-C ,  7-H ) :   0.9466 B(  6-C ,  8-H ) :   0.9272 B(  6-C ,  9-C ) :   1.0508
B(  9-C , 10-H ) :   0.9610 B(  9-C , 11-H ) :   0.9602 B(  9-C , 12-C ) :   1.0578
B( 12-C , 13-H ) :   0.9782 B( 12-C , 14-H ) :   0.9771 B( 12-C , 15-H ) :   0.9760
B( 16-S , 17-C ) :   1.1552 B( 16-S , 20-C ) :   1.1543 B( 17-C , 18-C ) :   1.6043
B( 17-C , 33-H ) :   0.9754 B( 18-C , 19-C ) :   1.2270 B( 18-C , 21-H ) :   0.9957
B( 19-C , 20-C ) :   1.6024 B( 19-C , 22-C ) :   1.0309 B( 22-C , 23-H ) :   0.9545
B( 22-C , 24-H ) :   0.9359 B( 22-C , 25-C ) :   1.0294 B( 25-C , 26-H ) :   0.9616
B( 25-C , 27-H ) :   0.9624 B( 25-C , 28-C ) :   1.0818 B( 28-C , 29-H ) :   0.9780
B( 28-C , 30-H ) :   0.9807 B( 28-C , 31-H ) :   0.9737

Dispersion correction           -0.013625092
FINAL SINGLE POINT ENERGY     -1339.849859467914

DIPOLE MOMENT
-------------
                                X             Y             Z
Electronic contribution:     14.04776      29.26863      -3.81572
Nuclear contribution   :    -14.41777     -29.92754       4.19106
                        -----------------------------------------
Total Dipole Moment    :     -0.37000      -0.65891       0.37535
                        -----------------------------------------
Magnitude (a.u.)       :      0.84377
Magnitude (Debye)      :      2.14470

Rotational constants in cm-1:     0.017269     0.008585     0.006025
Rotational constants in MHz :   517.720888   257.367381   180.616654

                             ****ORCA TERMINATED NORMALLY****
TOTAL RUN TIME: 0 days 0 hours 0 minutes 31 seconds 824 msec
