                         Program Version 4.2.1 -  RELEASE  -
|  1> ! wB97X-D3 SP def2-SVP
|  2> %pal
|  3> nprocs 16
|  4> end
|  5>
|  6> * xyz 0 1
|  7> S 	 50.2009 	 14.3858 	 78.4536
|  8> C 	 51.5522 	 14.1021 	 79.5628
|  9> C 	 51.7347 	 15.2082 	 80.4158
| 10> C 	 50.8889 	 16.3227 	 79.992
| 11> C 	 49.9909 	 16.0254 	 78.9955
| 12> H 	 50.8532 	 17.2817 	 80.3895
| 13> C 	 52.8441 	 15.4276 	 81.3833
| 14> H 	 53.5387 	 16.1823 	 80.9375
| 15> H 	 53.3422 	 14.52 	 81.4828
| 16> C 	 52.33 	 15.8267 	 82.7487
| 17> H 	 51.9472 	 16.871 	 82.6939
| 18> H 	 51.5219 	 15.2444 	 83.1687
| 19> C 	 53.2953 	 15.634 	 83.9279
| 20> H 	 54.1726 	 16.2211 	 83.8357
| 21> H 	 52.7425 	 15.8394 	 84.8949
| 22> H 	 53.5813 	 14.6253 	 84.0835
| 23> S 	 47.554 	 16.134 	 77.6401
| 24> C 	 46.9734 	 17.5775 	 76.866
| 25> C 	 47.9074 	 18.5579 	 77.106
| 26> C 	 48.9441 	 18.2179 	 78.0466
| 27> C 	 48.9688 	 16.8572 	 78.2628
| 28> H 	 47.6235 	 19.5694 	 76.7448
| 29> C 	 49.9822 	 19.1866 	 78.5798
| 30> H 	 50.1923 	 19.0756 	 79.6645
| 31> H 	 49.5954 	 20.1621 	 78.529
| 32> C 	 51.2984 	 19.2477 	 77.8424
| 33> H 	 51.1727 	 19.6104 	 76.7999
| 34> H 	 51.6949 	 18.233 	 77.7266
| 35> C 	 52.3382 	 20.1296 	 78.6017
| 36> H 	 52.0087 	 21.1155 	 78.6056
| 37> H 	 53.2574 	 20.2265 	 78.099
| 38> H 	 52.6664 	 19.7822 	 79.622
| 39> H 	 52.2209 	 13.2218 	 79.529
| 40> H 	 46.0767 	 17.6054 	 76.2366
| 41> *
| 42>
| 43>                          ****END OF INPUT****

CARTESIAN COORDINATES (ANGSTROEM)
---------------------------------
  S     50.200900   14.385800   78.453600
  C     51.552200   14.102100   79.562800
  C     51.734700   15.208200   80.415800
  C     50.888900   16.322700   79.992000
  C     49.990900   16.025400   78.995500
  H     50.853200   17.281700   80.389500
  C     52.844100   15.427600   81.383300
  H     53.538700   16.182300   80.937500
  H     53.342200   14.520000   81.482800
  C     52.330000   15.826700   82.748700
  H     51.947200   16.871000   82.693900
  H     51.521900   15.244400   83.168700
  C     53.295300   15.634000   83.927900
  H     54.172600   16.221100   83.835700
  H     52.742500   15.839400   84.894900
  H     53.581300   14.625300   84.083500
  S     47.554000   16.134000   77.640100
  C     46.973400   17.577500   76.866000
  C     47.907400   18.557900   77.106000
  C     48.944100   18.217900   78.046600
  C     48.968800   16.857200   78.262800
  H     47.623500   19.569400   76.744800
  C     49.982200   19.186600   78.579800
  H     50.192300   19.075600   79.664500
  H     49.595400   20.162100   78.529000
  C     51.298400   19.247700   77.842400
  H     51.172700   19.610400   76.799900
  H     51.694900   18.233000   77.726600
  C     52.338200   20.129600   78.601700
  H     52.008700   21.115500   78.605600
  H     53.257400   20.226500   78.099000
  H     52.666400   19.782200   79.622000
  H     52.220900   13.221800   79.529000
  H     46.076700   17.605400   76.236600

 Total Charge           Charge          ....    0
 Multiplicity           Mult            ....    1
 Number of Electrons    NEL             ....  134
 Basis Dimension        Dim             ....  322

ORBITAL ENERGIES
----------------

  NO   OCC          E(Eh)            E(eV)
   0   2.0000     -88.964255     -2420.8405
   1   2.0000     -88.963330     -2420.8153
   2   2.0000     -10.333918      -281.2002
   3   2.0000     -10.329350      -281.0759
   4   2.0000     -10.320652      -280.8392
   5   2.0000     -10.318675      -280.7854
   6   2.0000     -10.306890      -280.4647
   7   2.0000     -10.304023      -280.3867
   8   2.0000     -10.298679      -280.2413
   9   2.0000     -10.290944      -280.0308
  10   2.0000     -10.290097      -280.0078
  11   2.0000     -10.288952      -279.9766
  12   2.0000     -10.286983      -279.9230
  13   2.0000     -10.286343      -279.9056
  14   2.0000     -10.276100      -279.6269
  15   2.0000     -10.274479      -279.5828
  16   2.0000      -8.079246      -219.8475
  17   2.0000      -8.078861      -219.8370
  18   2.0000      -6.037676      -164.2935
  19   2.0000      -6.037452      -164.2874
  20   2.0000      -6.033444      -164.1784
  21   2.0000      -6.033336      -164.1754
  22   2.0000      -6.030145      -164.0886
  23   2.0000      -6.029582      -164.0733
  24   2.0000      -1.011096       -27.5133
  25   2.0000      -0.984878       -26.7999
  26   2.0000      -0.917918       -24.9778
  27   2.0000      -0.911967       -24.8159
  28   2.0000      -0.867525       -23.6066
  29   2.0000      -0.851212       -23.1627
  30   2.0000      -0.843560       -22.9544
  31   2.0000      -0.820255       -22.3203
  32   2.0000      -0.785643       -21.3784
  33   2.0000      -0.776625       -21.1331
  34   2.0000      -0.708369       -19.2757
  35   2.0000      -0.699972       -19.0472
  36   2.0000      -0.688590       -18.7375
  37   2.0000      -0.663173       -18.0459
  38   2.0000      -0.642654       -17.4875
  39   2.0000      -0.625508       -17.0209
  40   2.0000      -0.599866       -16.3232
  41   2.0000      -0.576363       -15.6836
  42   2.0000      -0.565481       -15.3875
  43   2.0000      -0.559182       -15.2161
  44   2.0000      -0.529757       -14.4154
  45   2.0000      -0.520818       -14.1722
  46   2.0000      -0.517619       -14.0851
  47   2.0000      -0.515896       -14.0383
  48   2.0000      -0.513512       -13.9734
  49   2.0000      -0.498282       -13.5589
  50   2.0000      -0.493679       -13.4337
  51   2.0000      -0.485152       -13.2016
  52   2.0000      -0.477289       -12.9877
  53   2.0000      -0.464620       -12.6430
  54   2.0000      -0.459198       -12.4954
  55   2.0000      -0.449648       -12.2356
  56   2.0000      -0.443812       -12.0767
  57   2.0000      -0.436231       -11.8704
  58   2.0000      -0.433755       -11.8031
  59   2.0000      -0.427071       -11.6212
  60   2.0000      -0.422776       -11.5043
  61   2.0000      -0.412875       -11.2349
  62   2.0000      -0.406876       -11.0717
  63   2.0000      -0.356075        -9.6893
  64   2.0000      -0.330819        -9.0021
  65   2.0000      -0.326595        -8.8871
  66   2.0000      -0.290539        -7.9060
  67   0.0000       0.028594         0.7781
  68   0.0000       0.078370         2.1325
  69   0.0000       0.107738         2.9317
  70   0.0000       0.114674         3.1204
  71   0.0000       0.137506         3.7417

MULLIKEN ATOMIC CHARGES
-----------------------
   0 S :    0.093750
   1 C :   -0.134657
   2 C :   -0.087481
   3 C :    0.022070
   4 C :   -0.109009
   5 H :   -0.034557
   6 C :    0.123693
   7 H :    0.053961
   8 H :   -0.010883
   9 C :   -0.113075
  10 H :    0.035108
  11 H :    0.031785
  12 C :   -0.038887
  13 H :    0.023960
  14 H :    0.035468
  15 H :    0.020888
  16 S :    0.099500
  17 C :   -0.110666
  18 C :   -0.035090
  19 C :   -0.053381
  20 C :   -0.100904
  21 H :    0.030179
  22 C :    0.059218
  23 H :    0.031797
  24 H :   -0.003011
  25 C :   -0.075450
  26 H :    0.030739
  27 H :    0.036993
  28 C :   -0.022514
  29 H :    0.013919
  30 H :    0.015390
  31 H :    0.033605
  32 H :    0.063747
  33 H :    0.073795
Sum of atomic charges:   -0.0000000

LOEWDIN ATOMIC CHARGES
----------------------
   0 S :    0.397241
   1 C :   -0.200559
   2 C :   -0.052190
   3 C :   -0.064407
   4 C :   -0.178800
   5 H :    0.014563
   6 C :   -0.030948
   7 H :    0.043832
   8 H :    0.019762
   9 C :   -0.045644
  10 H :    0.025443
  11 H :    0.029845
  12 C :   -0.062460
  13 H :    0.014741
  14 H :    0.035655
  15 H :    0.018719
  16 S :    0.424098
  17 C :   -0.196041
  18 C :   -0.075027
  19 C :   -0.063305
  20 C :   -0.204768
  21 H :    0.035534
  22 C :   -0.035294
  23 H :    0.032237
  24 H :    0.023589
  25 C :   -0.036684
  26 H :    0.028774
  27 H :    0.023907
  28 C :   -0.064443
  29 H :    0.016192
  30 H :    0.021935
  31 H :    0.030445
  32 H :    0.035696
  33 H :    0.038364

  Mayer bond orders larger than 0.100000
B(  0-S ,  1-C ) :   1.1322 B(  0-S ,  4-C ) :   1.1483 B(  1-C ,  2-C ) :   1.6158
B(  1-C , 32-H ) :   0.9645 B(  2-C ,  3-C ) :   1.1971 B(  2-C ,  6-C ) :   1.0484
B(  3-C ,  4-C ) :   1.6091 B(  3-C ,  5-H ) :   1.0008 B(  4-C , 20-C ) :   1.0133
B(  6-C ,  7-H ) :   0.9351 B(  6-C ,  8-H ) :   0.9285 B(  6-C ,  9-C ) :   1.0536
B(  9-C , 10-H ) :   0.9540 B(  9-C , 11-H ) :   0.9614 B(  9-C , 12-C ) :   1.0887
B( 12-C , 13-H ) :   0.9741 B( 12-C , 14-H ) :   0.9755 B( 12-C , 15-H ) :   0.9734
B( 16-S , 17-C ) :   1.1542 B( 16-S , 20-C ) :   1.1664 B( 17-C , 18-C ) :   1.5979
B( 17-C , 33-H ) :   0.9701 B( 18-C , 19-C ) :   1.2558 B( 18-C , 21-H ) :   0.9807
B( 19-C , 20-C ) :   1.5726 B( 19-C , 22-C ) :   1.0520 B( 22-C , 23-H ) :   0.9395
B( 22-C , 24-H ) :   0.9163 B( 22-C , 25-C ) :   1.0626 B( 25-C , 26-H ) :   0.9502
B( 25-C , 27-H ) :   0.9594 B( 25-C , 28-C ) :   1.0784 B( 28-C , 29-H ) :   0.9733
B( 28-C , 30-H ) :   0.9701 B( 28-C , 31-H ) :   0.9739

Dispersion correction           -0.014234877
FINAL SINGLE POINT ENERGY     -1339.871930171968

DIPOLE MOMENT
-------------
                                X             Y             Z
Electronic contribution:    -21.72509     -15.01220     -17.15077
Nuclear contribution   :     22.15189      15.51079      17.36885
                        -----------------------------------------
Total Dipole Moment    :      0.42681       0.49859       0.21808
                        -----------------------------------------
Magnitude (a.u.)       :      0.69161
Magnitude (Debye)      :      1.75792

Rotational constants in cm-1:     0.018762     0.008734     0.006710
Rotational constants in MHz :   562.464678   261.847524   201.161082

                             ****ORCA TERMINATED NORMALLY****
TOTAL RUN TIME: 0 days 0 hours 0 minutes 29 seconds 139 msec
