                         Program Version 4.2.1 -  RELEASE  -
|  1> ! wB97X-D3 SP def2-SVP
|  2> %pal
|  3> nprocs 16
|  4> end
|  5>
|  6> * xyz 0 1
|  7> S 	 -63.7282 	 59.9591 	 125.569
|  8> C 	 -62.1627 	 60.0724 	 124.751
|  9> C 	 -62.3056 	 59.4927 	 123.496
| 10> C 	 -63.6461 	 59.0523 	 123.214
| 11> C 	 -64.5698 	 59.1763 	 124.245
| 12> H 	 -63.9611 	 58.5977 	 122.298
| 13> C 	 -61.2636 	 59.3664 	 122.404
| 14> H 	 -60.9468 	 58.364 	 122.204
| 15> H 	 -60.3331 	 59.8597 	 122.717
| 16> C 	 -61.5516 	 60.0895 	 121.091
| 17> H 	 -62.641 	 59.9839 	 120.784
| 18> H 	 -61.3441 	 61.0988 	 121.269
| 19> C 	 -60.7483 	 59.422 	 120.013
| 20> H 	 -60.9149 	 58.37 	 120.116
| 21> H 	 -61.1196 	 59.7347 	 119.079
| 22> H 	 -59.7275 	 59.682 	 120.15
| 23> S 	 -66.9922 	 59.8503 	 125.315
| 24> C 	 -68.4414 	 59.0083 	 124.895
| 25> C 	 -68.1525 	 57.9172 	 124.077
| 26> C 	 -66.7409 	 57.8206 	 123.66
| 27> C 	 -65.9788 	 58.842 	 124.28
| 28> H 	 -68.9391 	 57.3454 	 123.678
| 29> C 	 -66.2703 	 56.7734 	 122.707
| 30> H 	 -65.4755 	 57.1014 	 122.086
| 31> H 	 -67.118 	 56.4904 	 122.101
| 32> C 	 -65.7389 	 55.5563 	 123.396
| 33> H 	 -66.4598 	 55.0948 	 124.117
| 34> H 	 -64.9525 	 55.6918 	 124.16
| 35> C 	 -65.2015 	 54.5704 	 122.407
| 36> H 	 -64.4178 	 54.8452 	 121.8
| 37> H 	 -66.0636 	 54.253 	 121.742
| 38> H 	 -64.9387 	 53.6016 	 122.845
| 39> H 	 -61.2534 	 60.504 	 125.19
| 40> H 	 -69.4332 	 59.1613 	 125.287
| 41> *
| 42>
| 43>                          ****END OF INPUT****

CARTESIAN COORDINATES (ANGSTROEM)
---------------------------------
  S    -63.728200   59.959100  125.569000
  C    -62.162700   60.072400  124.751000
  C    -62.305600   59.492700  123.496000
  C    -63.646100   59.052300  123.214000
  C    -64.569800   59.176300  124.245000
  H    -63.961100   58.597700  122.298000
  C    -61.263600   59.366400  122.404000
  H    -60.946800   58.364000  122.204000
  H    -60.333100   59.859700  122.717000
  C    -61.551600   60.089500  121.091000
  H    -62.641000   59.983900  120.784000
  H    -61.344100   61.098800  121.269000
  C    -60.748300   59.422000  120.013000
  H    -60.914900   58.370000  120.116000
  H    -61.119600   59.734700  119.079000
  H    -59.727500   59.682000  120.150000
  S    -66.992200   59.850300  125.315000
  C    -68.441400   59.008300  124.895000
  C    -68.152500   57.917200  124.077000
  C    -66.740900   57.820600  123.660000
  C    -65.978800   58.842000  124.280000
  H    -68.939100   57.345400  123.678000
  C    -66.270300   56.773400  122.707000
  H    -65.475500   57.101400  122.086000
  H    -67.118000   56.490400  122.101000
  C    -65.738900   55.556300  123.396000
  H    -66.459800   55.094800  124.117000
  H    -64.952500   55.691800  124.160000
  C    -65.201500   54.570400  122.407000
  H    -64.417800   54.845200  121.800000
  H    -66.063600   54.253000  121.742000
  H    -64.938700   53.601600  122.845000
  H    -61.253400   60.504000  125.190000
  H    -69.433200   59.161300  125.287000

 Total Charge           Charge          ....    0
 Multiplicity           Mult            ....    1
 Number of Electrons    NEL             ....  134
 Basis Dimension        Dim             ....  322

ORBITAL ENERGIES
----------------

  NO   OCC          E(Eh)            E(eV)
   0   2.0000     -88.967682     -2420.9337
   1   2.0000     -88.963156     -2420.8106
   2   2.0000     -10.334218      -281.2084
   3   2.0000     -10.333179      -281.1801
   4   2.0000     -10.320862      -280.8449
   5   2.0000     -10.319461      -280.8068
   6   2.0000     -10.312889      -280.6280
   7   2.0000     -10.304274      -280.3935
   8   2.0000     -10.296861      -280.1918
   9   2.0000     -10.291708      -280.0516
  10   2.0000     -10.290158      -280.0094
  11   2.0000     -10.286661      -279.9143
  12   2.0000     -10.284468      -279.8546
  13   2.0000     -10.280104      -279.7358
  14   2.0000     -10.273965      -279.5688
  15   2.0000     -10.268370      -279.4166
  16   2.0000      -8.082410      -219.9336
  17   2.0000      -8.077571      -219.8019
  18   2.0000      -6.041023      -164.3846
  19   2.0000      -6.036764      -164.2687
  20   2.0000      -6.036304      -164.2562
  21   2.0000      -6.033203      -164.1718
  22   2.0000      -6.031965      -164.1381
  23   2.0000      -6.028240      -164.0367
  24   2.0000      -1.004220       -27.3262
  25   2.0000      -0.980734       -26.6871
  26   2.0000      -0.922734       -25.1089
  27   2.0000      -0.919924       -25.0324
  28   2.0000      -0.873735       -23.7755
  29   2.0000      -0.854935       -23.2640
  30   2.0000      -0.843106       -22.9421
  31   2.0000      -0.815839       -22.2001
  32   2.0000      -0.784402       -21.3447
  33   2.0000      -0.773232       -21.0407
  34   2.0000      -0.710150       -19.3242
  35   2.0000      -0.699856       -19.0440
  36   2.0000      -0.695632       -18.9291
  37   2.0000      -0.666647       -18.1404
  38   2.0000      -0.642244       -17.4763
  39   2.0000      -0.626421       -17.0458
  40   2.0000      -0.604107       -16.4386
  41   2.0000      -0.575306       -15.6549
  42   2.0000      -0.572057       -15.5665
  43   2.0000      -0.564488       -15.3605
  44   2.0000      -0.531193       -14.4545
  45   2.0000      -0.528637       -14.3849
  46   2.0000      -0.517281       -14.0759
  47   2.0000      -0.512581       -13.9480
  48   2.0000      -0.508914       -13.8482
  49   2.0000      -0.507929       -13.8214
  50   2.0000      -0.502746       -13.6804
  51   2.0000      -0.484775       -13.1914
  52   2.0000      -0.474256       -12.9052
  53   2.0000      -0.463223       -12.6049
  54   2.0000      -0.459586       -12.5060
  55   2.0000      -0.452302       -12.3078
  56   2.0000      -0.444319       -12.0905
  57   2.0000      -0.442122       -12.0307
  58   2.0000      -0.439640       -11.9632
  59   2.0000      -0.425939       -11.5904
  60   2.0000      -0.414233       -11.2718
  61   2.0000      -0.408256       -11.1092
  62   2.0000      -0.402658       -10.9569
  63   2.0000      -0.358659        -9.7596
  64   2.0000      -0.330582        -8.9956
  65   2.0000      -0.325521        -8.8579
  66   2.0000      -0.286320        -7.7912
  67   0.0000       0.020692         0.5630
  68   0.0000       0.080361         2.1867
  69   0.0000       0.108784         2.9602
  70   0.0000       0.113880         3.0988
  71   0.0000       0.136456         3.7131

MULLIKEN ATOMIC CHARGES
-----------------------
   0 S :    0.087112
   1 C :   -0.131109
   2 C :   -0.053521
   3 C :    0.003245
   4 C :   -0.107209
   5 H :   -0.005515
   6 C :    0.053933
   7 H :    0.023173
   8 H :    0.006680
   9 C :   -0.104593
  10 H :    0.035874
  11 H :    0.023971
  12 C :    0.011706
  13 H :    0.021813
  14 H :    0.021055
  15 H :    0.025077
  16 S :    0.108113
  17 C :   -0.077622
  18 C :   -0.029052
  19 C :   -0.049422
  20 C :   -0.139170
  21 H :    0.005117
  22 C :    0.122256
  23 H :    0.004768
  24 H :    0.019651
  25 C :   -0.096494
  26 H :    0.022188
  27 H :    0.031957
  28 C :   -0.021300
  29 H :    0.021575
  30 H :    0.017969
  31 H :    0.026959
  32 H :    0.062339
  33 H :    0.058478
Sum of atomic charges:   -0.0000000

LOEWDIN ATOMIC CHARGES
----------------------
   0 S :    0.390986
   1 C :   -0.194959
   2 C :   -0.062189
   3 C :   -0.069240
   4 C :   -0.187795
   5 H :    0.020724
   6 C :   -0.034232
   7 H :    0.023811
   8 H :    0.030018
   9 C :   -0.035143
  10 H :    0.025326
  11 H :    0.016567
  12 C :   -0.049332
  13 H :    0.023246
  14 H :    0.020539
  15 H :    0.021665
  16 S :    0.413640
  17 C :   -0.191178
  18 C :   -0.066639
  19 C :   -0.042266
  20 C :   -0.192975
  21 H :    0.021742
  22 C :   -0.027178
  23 H :    0.025533
  24 H :    0.034318
  25 C :   -0.049916
  26 H :    0.028873
  27 H :    0.029527
  28 C :   -0.064312
  29 H :    0.012343
  30 H :    0.028754
  31 H :    0.029192
  32 H :    0.037954
  33 H :    0.032597

  Mayer bond orders larger than 0.100000
B(  0-S ,  1-C ) :   1.1270 B(  0-S ,  4-C ) :   1.1450 B(  1-C ,  2-C ) :   1.5944
B(  1-C , 32-H ) :   0.9707 B(  2-C ,  3-C ) :   1.2460 B(  2-C ,  6-C ) :   1.0291
B(  3-C ,  4-C ) :   1.5628 B(  3-C ,  5-H ) :   0.9937 B(  4-C , 20-C ) :   1.0856
B(  6-C ,  7-H ) :   0.9461 B(  6-C ,  8-H ) :   0.9402 B(  6-C ,  9-C ) :   1.0474
B(  9-C , 10-H ) :   0.9638 B(  9-C , 11-H ) :   0.9590 B(  9-C , 12-C ) :   1.0753
B( 12-C , 13-H ) :   0.9763 B( 12-C , 14-H ) :   0.9708 B( 12-C , 15-H ) :   0.9737
B( 16-S , 17-C ) :   1.1580 B( 16-S , 20-C ) :   1.1377 B( 17-C , 18-C ) :   1.6098
B( 17-C , 33-H ) :   0.9675 B( 18-C , 19-C ) :   1.2421 B( 18-C , 21-H ) :   0.9897
B( 19-C , 20-C ) :   1.5634 B( 19-C , 22-C ) :   1.0576 B( 22-C , 23-H ) :   0.9330
B( 22-C , 24-H ) :   0.9200 B( 22-C , 25-C ) :   1.0612 B( 25-C , 26-H ) :   0.9473
B( 25-C , 27-H ) :   0.9518 B( 25-C , 28-C ) :   1.0902 B( 28-C , 29-H ) :   0.9747
B( 28-C , 30-H ) :   0.9687 B( 28-C , 31-H ) :   0.9688

Dispersion correction           -0.013614179
FINAL SINGLE POINT ENERGY     -1339.871897750447

DIPOLE MOMENT
-------------
                                X             Y             Z
Electronic contribution:    -13.00208      15.74591      23.00092
Nuclear contribution   :     13.11273     -16.15642     -23.56551
                        -----------------------------------------
Total Dipole Moment    :      0.11065      -0.41051      -0.56458
                        -----------------------------------------
Magnitude (a.u.)       :      0.70676
Magnitude (Debye)      :      1.79645

Rotational constants in cm-1:     0.016923     0.009036     0.006761
Rotational constants in MHz :   507.332564   270.884216   202.677405

                             ****ORCA TERMINATED NORMALLY****
TOTAL RUN TIME: 0 days 0 hours 0 minutes 33 seconds 119 msec
