                         Program Version 4.2.1 -  RELEASE  -
|  1> ! wB97X-D3 SP def2-SVP
|  2> %pal
|  3> nprocs 16
|  4> end
|  5>
|  6> * xyz 0 1
|  7> S 	 -17.898 	 33.7278 	 42.2299
|  8> C 	 -16.4129 	 33.0245 	 42.8922
|  9> C 	 -15.4302 	 32.9672 	 41.9203
| 10> C 	 -15.9425 	 33.3412 	 40.6264
| 11> C 	 -17.2441 	 33.7475 	 40.5535
| 12> H 	 -15.3738 	 33.3531 	 39.7017
| 13> C 	 -14.0171 	 32.5271 	 42.2077
| 14> H 	 -13.6633 	 32.8582 	 43.1905
| 15> H 	 -13.4517 	 33.0074 	 41.4063
| 16> C 	 -13.7785 	 30.9999 	 42.174
| 17> H 	 -14.5201 	 30.452 	 42.8189
| 18> H 	 -14.1662 	 30.7187 	 41.1753
| 19> C 	 -12.361 	 30.6161 	 42.4076
| 20> H 	 -12.1563 	 30.6112 	 43.4717
| 21> H 	 -12.188 	 29.6626 	 41.9632
| 22> H 	 -11.6592 	 31.327 	 42.0236
| 23> S 	 -18.5758 	 35.9647 	 39.6617
| 24> C 	 -19.0279 	 36.1042 	 37.9661
| 25> C 	 -18.4967 	 35.0454 	 37.2362
| 26> C 	 -17.9599 	 34.0264 	 38.0668
| 27> C 	 -17.8882 	 34.3899 	 39.42
| 28> H 	 -18.6143 	 35.0708 	 36.1301
| 29> C 	 -17.3374 	 32.7215 	 37.5261
| 30> H 	 -18.1325 	 32.2489 	 36.9777
| 31> H 	 -17.0628 	 32.1166 	 38.3001
| 32> C 	 -16.0452 	 32.9687 	 36.6568
| 33> H 	 -15.3727 	 33.5763 	 37.2713
| 34> H 	 -16.1703 	 33.6399 	 35.8012
| 35> C 	 -15.3976 	 31.6836 	 36.2504
| 36> H 	 -16.0686 	 31.2048 	 35.5369
| 37> H 	 -15.168 	 31.024 	 37.0817
| 38> H 	 -14.4479 	 32.052 	 35.6437
| 39> H 	 -16.0569 	 32.8825 	 43.9078
| 40> H 	 -19.4181 	 36.9385 	 37.4251
| 41> *
| 42>
| 43>                          ****END OF INPUT****

CARTESIAN COORDINATES (ANGSTROEM)
---------------------------------
  S    -17.898000   33.727800   42.229900
  C    -16.412900   33.024500   42.892200
  C    -15.430200   32.967200   41.920300
  C    -15.942500   33.341200   40.626400
  C    -17.244100   33.747500   40.553500
  H    -15.373800   33.353100   39.701700
  C    -14.017100   32.527100   42.207700
  H    -13.663300   32.858200   43.190500
  H    -13.451700   33.007400   41.406300
  C    -13.778500   30.999900   42.174000
  H    -14.520100   30.452000   42.818900
  H    -14.166200   30.718700   41.175300
  C    -12.361000   30.616100   42.407600
  H    -12.156300   30.611200   43.471700
  H    -12.188000   29.662600   41.963200
  H    -11.659200   31.327000   42.023600
  S    -18.575800   35.964700   39.661700
  C    -19.027900   36.104200   37.966100
  C    -18.496700   35.045400   37.236200
  C    -17.959900   34.026400   38.066800
  C    -17.888200   34.389900   39.420000
  H    -18.614300   35.070800   36.130100
  C    -17.337400   32.721500   37.526100
  H    -18.132500   32.248900   36.977700
  H    -17.062800   32.116600   38.300100
  C    -16.045200   32.968700   36.656800
  H    -15.372700   33.576300   37.271300
  H    -16.170300   33.639900   35.801200
  C    -15.397600   31.683600   36.250400
  H    -16.068600   31.204800   35.536900
  H    -15.168000   31.024000   37.081700
  H    -14.447900   32.052000   35.643700
  H    -16.056900   32.882500   43.907800
  H    -19.418100   36.938500   37.425100

 Total Charge           Charge          ....    0
 Multiplicity           Mult            ....    1
 Number of Electrons    NEL             ....  134
 Basis Dimension        Dim             ....  322

ORBITAL ENERGIES
----------------

  NO   OCC          E(Eh)            E(eV)
   0   2.0000     -88.968311     -2420.9508
   1   2.0000     -88.967202     -2420.9206
   2   2.0000     -10.333671      -281.1935
   3   2.0000     -10.328646      -281.0567
   4   2.0000     -10.317299      -280.7480
   5   2.0000     -10.316368      -280.7226
   6   2.0000     -10.305711      -280.4327
   7   2.0000     -10.301500      -280.3181
   8   2.0000     -10.298482      -280.2359
   9   2.0000     -10.296081      -280.1706
  10   2.0000     -10.294146      -280.1180
  11   2.0000     -10.288643      -279.9682
  12   2.0000     -10.288421      -279.9622
  13   2.0000     -10.287507      -279.9373
  14   2.0000     -10.285832      -279.8917
  15   2.0000     -10.273767      -279.5634
  16   2.0000      -8.082828      -219.9449
  17   2.0000      -8.080583      -219.8838
  18   2.0000      -6.041346      -164.3934
  19   2.0000      -6.039399      -164.3404
  20   2.0000      -6.037327      -164.2840
  21   2.0000      -6.035255      -164.2276
  22   2.0000      -6.033615      -164.1830
  23   2.0000      -6.031084      -164.1141
  24   2.0000      -1.005282       -27.3551
  25   2.0000      -0.981678       -26.7128
  26   2.0000      -0.915327       -24.9073
  27   2.0000      -0.909411       -24.7463
  28   2.0000      -0.874220       -23.7887
  29   2.0000      -0.853349       -23.2208
  30   2.0000      -0.846548       -23.0357
  31   2.0000      -0.819517       -22.3002
  32   2.0000      -0.781656       -21.2699
  33   2.0000      -0.770174       -20.9575
  34   2.0000      -0.707542       -19.2532
  35   2.0000      -0.700572       -19.0635
  36   2.0000      -0.699131       -19.0243
  37   2.0000      -0.658823       -17.9275
  38   2.0000      -0.640220       -17.4213
  39   2.0000      -0.619253       -16.8507
  40   2.0000      -0.593359       -16.1461
  41   2.0000      -0.570749       -15.5309
  42   2.0000      -0.567477       -15.4418
  43   2.0000      -0.561154       -15.2698
  44   2.0000      -0.530286       -14.4298
  45   2.0000      -0.528906       -14.3923
  46   2.0000      -0.521191       -14.1823
  47   2.0000      -0.508977       -13.8500
  48   2.0000      -0.504606       -13.7310
  49   2.0000      -0.502912       -13.6849
  50   2.0000      -0.499488       -13.5918
  51   2.0000      -0.485168       -13.2021
  52   2.0000      -0.474035       -12.8992
  53   2.0000      -0.466186       -12.6856
  54   2.0000      -0.464025       -12.6268
  55   2.0000      -0.449915       -12.2428
  56   2.0000      -0.446379       -12.1466
  57   2.0000      -0.438938       -11.9441
  58   2.0000      -0.434637       -11.8271
  59   2.0000      -0.421698       -11.4750
  60   2.0000      -0.419303       -11.4098
  61   2.0000      -0.412208       -11.2168
  62   2.0000      -0.409638       -11.1468
  63   2.0000      -0.351585        -9.5671
  64   2.0000      -0.331602        -9.0234
  65   2.0000      -0.327567        -8.9135
  66   2.0000      -0.292510        -7.9596
  67   0.0000       0.025593         0.6964
  68   0.0000       0.068227         1.8566
  69   0.0000       0.107887         2.9357
  70   0.0000       0.124936         3.3997
  71   0.0000       0.125649         3.4191

MULLIKEN ATOMIC CHARGES
-----------------------
   0 S :    0.099429
   1 C :   -0.086226
   2 C :   -0.117642
   3 C :    0.035294
   4 C :   -0.142629
   5 H :    0.001288
   6 C :    0.051951
   7 H :    0.022543
   8 H :    0.026930
   9 C :   -0.098036
  10 H :    0.031979
  11 H :    0.013131
  12 C :    0.016541
  13 H :    0.028022
  14 H :    0.034539
  15 H :    0.019679
  16 S :    0.115511
  17 C :   -0.083264
  18 C :   -0.068569
  19 C :   -0.054805
  20 C :   -0.147672
  21 H :    0.037649
  22 C :    0.127473
  23 H :    0.025889
  24 H :   -0.005835
  25 C :   -0.104357
  26 H :    0.022386
  27 H :    0.025539
  28 C :   -0.049330
  29 H :    0.034648
  30 H :    0.042464
  31 H :    0.048855
  32 H :    0.046483
  33 H :    0.050140
Sum of atomic charges:   -0.0000000

LOEWDIN ATOMIC CHARGES
----------------------
   0 S :    0.375773
   1 C :   -0.190167
   2 C :   -0.065311
   3 C :   -0.061768
   4 C :   -0.181517
   5 H :    0.028834
   6 C :   -0.032403
   7 H :    0.026713
   8 H :    0.031756
   9 C :   -0.047410
  10 H :    0.027949
  11 H :    0.020699
  12 C :   -0.059973
  13 H :    0.027985
  14 H :    0.028415
  15 H :    0.024095
  16 S :    0.416398
  17 C :   -0.185536
  18 C :   -0.074187
  19 C :   -0.054083
  20 C :   -0.205024
  21 H :    0.039551
  22 C :   -0.017457
  23 H :    0.029358
  24 H :    0.013327
  25 C :   -0.045757
  26 H :    0.018824
  27 H :    0.023364
  28 C :   -0.068068
  29 H :    0.025256
  30 H :    0.024358
  31 H :    0.042831
  32 H :    0.034825
  33 H :    0.028351

  Mayer bond orders larger than 0.100000
B(  0-S ,  1-C ) :   1.1262 B(  0-S ,  4-C ) :   1.1184 B(  1-C ,  2-C ) :   1.6304
B(  1-C , 32-H ) :   0.9597 B(  2-C ,  3-C ) :   1.2344 B(  2-C ,  6-C ) :   1.0307
B(  3-C ,  4-C ) :   1.5881 B(  3-C ,  5-H ) :   0.9884 B(  4-C , 20-C ) :   1.0545
B(  6-C ,  7-H ) :   0.9420 B(  6-C ,  8-H ) :   0.9355 B(  6-C ,  9-C ) :   1.0633
B(  9-C , 10-H ) :   0.9546 B(  9-C , 11-H ) :   0.9542 B(  9-C , 12-C ) :   1.0777
B( 12-C , 13-H ) :   0.9706 B( 12-C , 14-H ) :   0.9715 B( 12-C , 15-H ) :   0.9712
B( 16-S , 17-C ) :   1.1547 B( 16-S , 20-C ) :   1.1471 B( 17-C , 18-C ) :   1.6128
B( 17-C , 20-C ) :   0.1013 B( 17-C , 33-H ) :   0.9671 B( 18-C , 19-C ) :   1.2521
B( 18-C , 21-H ) :   0.9821 B( 19-C , 20-C ) :   1.5723 B( 19-C , 22-C ) :   1.0505
B( 22-C , 23-H ) :   0.9298 B( 22-C , 24-H ) :   0.9291 B( 22-C , 25-C ) :   1.0505
B( 25-C , 26-H ) :   0.9529 B( 25-C , 27-H ) :   0.9522 B( 25-C , 28-C ) :   1.0873
B( 28-C , 29-H ) :   0.9734 B( 28-C , 30-H ) :   0.9731 B( 28-C , 31-H ) :   0.9711

Dispersion correction           -0.013991528
FINAL SINGLE POINT ENERGY     -1339.872750849779

DIPOLE MOMENT
-------------
                                X             Y             Z
Electronic contribution:    -24.23479      19.38887       9.24569
Nuclear contribution   :     24.91938     -19.60599      -9.67928
                        -----------------------------------------
Total Dipole Moment    :      0.68459      -0.21712      -0.43359
                        -----------------------------------------
Magnitude (a.u.)       :      0.83893
Magnitude (Debye)      :      2.13239

Rotational constants in cm-1:     0.017653     0.008877     0.006269
Rotational constants in MHz :   529.210667   266.116787   187.928997

                             ****ORCA TERMINATED NORMALLY****
TOTAL RUN TIME: 0 days 0 hours 0 minutes 33 seconds 869 msec
