                         Program Version 4.2.1 -  RELEASE  -
|  1> ! wB97X-D3 SP def2-SVP
|  2> %pal
|  3> nprocs 16
|  4> end
|  5>
|  6> * xyz 0 1
|  7> S 	 8.44668 	 -26.6185 	 83.516
|  8> C 	 7.32956 	 -27.2463 	 84.681
|  9> C 	 6.56618 	 -26.1919 	 85.2445
| 10> C 	 6.75192 	 -24.9553 	 84.6038
| 11> C 	 7.72918 	 -24.9817 	 83.6209
| 12> H 	 6.19795 	 -24.087 	 84.7166
| 13> C 	 5.54971 	 -26.2584 	 86.3736
| 14> H 	 4.76624 	 -26.8739 	 85.8869
| 15> H 	 5.04068 	 -25.3439 	 86.6827
| 16> C 	 6.16254 	 -26.8661 	 87.5406
| 17> H 	 6.81766 	 -27.7412 	 87.2962
| 18> H 	 6.86029 	 -26.0749 	 87.9327
| 19> C 	 5.1266 	 -27.1511 	 88.6282
| 20> H 	 4.46278 	 -28.0704 	 88.4717
| 21> H 	 5.70568 	 -27.2878 	 89.5324
| 22> H 	 4.41841 	 -26.3091 	 88.7755
| 23> S 	 9.58342 	 -24.2122 	 81.6633
| 24> C 	 9.54053 	 -22.5394 	 81.1763
| 25> C 	 8.46453 	 -21.8363 	 81.7067
| 26> C 	 7.68823 	 -22.639 	 82.5448
| 27> C 	 8.14675 	 -23.8648 	 82.7716
| 28> H 	 8.28009 	 -20.849 	 81.3308
| 29> C 	 6.33225 	 -22.1372 	 82.9775
| 30> H 	 6.33108 	 -21.1037 	 82.6494
| 31> H 	 6.3326 	 -22.0757 	 84.0546
| 32> C 	 5.05293 	 -22.6718 	 82.4254
| 33> H 	 4.26758 	 -22.1318 	 82.9584
| 34> H 	 4.94979 	 -23.639 	 82.7689
| 35> C 	 4.9014 	 -22.5897 	 80.8499
| 36> H 	 5.66756 	 -23.1767 	 80.3157
| 37> H 	 4.88818 	 -21.591 	 80.489
| 38> H 	 3.97681 	 -23.1138 	 80.558
| 39> H 	 7.3135 	 -28.2942 	 84.9356
| 40> H 	 10.3726 	 -22.1296 	 80.6282
| 41> *
| 42>
| 43>                          ****END OF INPUT****

CARTESIAN COORDINATES (ANGSTROEM)
---------------------------------
  S      8.446680  -26.618500   83.516000
  C      7.329560  -27.246300   84.681000
  C      6.566180  -26.191900   85.244500
  C      6.751920  -24.955300   84.603800
  C      7.729180  -24.981700   83.620900
  H      6.197950  -24.087000   84.716600
  C      5.549710  -26.258400   86.373600
  H      4.766240  -26.873900   85.886900
  H      5.040680  -25.343900   86.682700
  C      6.162540  -26.866100   87.540600
  H      6.817660  -27.741200   87.296200
  H      6.860290  -26.074900   87.932700
  C      5.126600  -27.151100   88.628200
  H      4.462780  -28.070400   88.471700
  H      5.705680  -27.287800   89.532400
  H      4.418410  -26.309100   88.775500
  S      9.583420  -24.212200   81.663300
  C      9.540530  -22.539400   81.176300
  C      8.464530  -21.836300   81.706700
  C      7.688230  -22.639000   82.544800
  C      8.146750  -23.864800   82.771600
  H      8.280090  -20.849000   81.330800
  C      6.332250  -22.137200   82.977500
  H      6.331080  -21.103700   82.649400
  H      6.332600  -22.075700   84.054600
  C      5.052930  -22.671800   82.425400
  H      4.267580  -22.131800   82.958400
  H      4.949790  -23.639000   82.768900
  C      4.901400  -22.589700   80.849900
  H      5.667560  -23.176700   80.315700
  H      4.888180  -21.591000   80.489000
  H      3.976810  -23.113800   80.558000
  H      7.313500  -28.294200   84.935600
  H     10.372600  -22.129600   80.628200

 Total Charge           Charge          ....    0
 Multiplicity           Mult            ....    1
 Number of Electrons    NEL             ....  134
 Basis Dimension        Dim             ....  322

ORBITAL ENERGIES
----------------

  NO   OCC          E(Eh)            E(eV)
   0   2.0000     -88.968802     -2420.9642
   1   2.0000     -88.962152     -2420.7832
   2   2.0000     -10.333132      -281.1788
   3   2.0000     -10.328403      -281.0501
   4   2.0000     -10.318153      -280.7712
   5   2.0000     -10.317145      -280.7438
   6   2.0000     -10.303400      -280.3698
   7   2.0000     -10.294990      -280.1409
   8   2.0000     -10.291768      -280.0532
   9   2.0000     -10.286934      -279.9217
  10   2.0000     -10.285994      -279.8961
  11   2.0000     -10.285920      -279.8941
  12   2.0000     -10.285627      -279.8861
  13   2.0000     -10.283303      -279.8229
  14   2.0000     -10.282662      -279.8055
  15   2.0000     -10.279954      -279.7318
  16   2.0000      -8.082871      -219.9461
  17   2.0000      -8.076277      -219.7667
  18   2.0000      -6.041498      -164.3975
  19   2.0000      -6.037454      -164.2875
  20   2.0000      -6.034754      -164.2140
  21   2.0000      -6.033587      -164.1823
  22   2.0000      -6.031129      -164.1154
  23   2.0000      -6.026874      -163.9996
  24   2.0000      -1.005282       -27.3551
  25   2.0000      -0.984263       -26.7831
  26   2.0000      -0.922189       -25.0940
  27   2.0000      -0.913201       -24.8495
  28   2.0000      -0.867271       -23.5996
  29   2.0000      -0.854684       -23.2571
  30   2.0000      -0.847158       -23.0523
  31   2.0000      -0.810377       -22.0515
  32   2.0000      -0.788271       -21.4500
  33   2.0000      -0.770802       -20.9746
  34   2.0000      -0.715342       -19.4654
  35   2.0000      -0.700027       -19.0487
  36   2.0000      -0.687716       -18.7137
  37   2.0000      -0.673600       -18.3296
  38   2.0000      -0.646701       -17.5976
  39   2.0000      -0.617875       -16.8132
  40   2.0000      -0.592943       -16.1348
  41   2.0000      -0.580452       -15.7949
  42   2.0000      -0.562962       -15.3190
  43   2.0000      -0.552802       -15.0425
  44   2.0000      -0.548094       -14.9144
  45   2.0000      -0.528144       -14.3715
  46   2.0000      -0.521972       -14.2036
  47   2.0000      -0.511006       -13.9052
  48   2.0000      -0.503530       -13.7018
  49   2.0000      -0.494225       -13.4485
  50   2.0000      -0.490683       -13.3522
  51   2.0000      -0.482002       -13.1159
  52   2.0000      -0.475039       -12.9265
  53   2.0000      -0.465645       -12.6709
  54   2.0000      -0.459999       -12.5172
  55   2.0000      -0.451364       -12.2823
  56   2.0000      -0.447953       -12.1894
  57   2.0000      -0.439377       -11.9561
  58   2.0000      -0.431260       -11.7352
  59   2.0000      -0.423136       -11.5141
  60   2.0000      -0.418950       -11.4002
  61   2.0000      -0.410094       -11.1592
  62   2.0000      -0.401286       -10.9196
  63   2.0000      -0.363330        -9.8867
  64   2.0000      -0.335981        -9.1425
  65   2.0000      -0.330063        -8.9815
  66   2.0000      -0.275080        -7.4853
  67   0.0000       0.014636         0.3983
  68   0.0000       0.075245         2.0475
  69   0.0000       0.088480         2.4077
  70   0.0000       0.124498         3.3878
  71   0.0000       0.135019         3.6741

MULLIKEN ATOMIC CHARGES
-----------------------
   0 S :    0.107406
   1 C :   -0.135545
   2 C :   -0.068235
   3 C :    0.012768
   4 C :   -0.099197
   5 H :   -0.033974
   6 C :    0.080051
   7 H :    0.036634
   8 H :    0.021123
   9 C :   -0.119027
  10 H :    0.039853
  11 H :    0.035800
  12 C :   -0.044287
  13 H :    0.043534
  14 H :    0.032850
  15 H :    0.027601
  16 S :    0.070106
  17 C :   -0.090886
  18 C :   -0.021603
  19 C :   -0.088490
  20 C :   -0.090876
  21 H :    0.015766
  22 C :    0.036575
  23 H :   -0.002474
  24 H :    0.035046
  25 C :    0.005380
  26 H :    0.023603
  27 H :    0.003289
  28 C :   -0.058433
  29 H :    0.049154
  30 H :    0.029607
  31 H :    0.033848
  32 H :    0.053935
  33 H :    0.059101
Sum of atomic charges:    0.0000000

LOEWDIN ATOMIC CHARGES
----------------------
   0 S :    0.399950
   1 C :   -0.211319
   2 C :   -0.050152
   3 C :   -0.065197
   4 C :   -0.168767
   5 H :    0.017708
   6 C :   -0.039135
   7 H :    0.035102
   8 H :    0.029112
   9 C :   -0.051679
  10 H :    0.028510
  11 H :    0.033958
  12 C :   -0.071658
  13 H :    0.031991
  14 H :    0.024858
  15 H :    0.025501
  16 S :    0.353897
  17 C :   -0.169386
  18 C :   -0.070901
  19 C :   -0.068078
  20 C :   -0.152380
  21 H :    0.032650
  22 C :   -0.034202
  23 H :    0.027785
  24 H :    0.028447
  25 C :   -0.030351
  26 H :    0.030028
  27 H :    0.009958
  28 C :   -0.061449
  29 H :    0.033526
  30 H :    0.018490
  31 H :    0.031030
  32 H :    0.026586
  33 H :    0.025568

  Mayer bond orders larger than 0.100000
B(  0-S ,  1-C ) :   1.1418 B(  0-S ,  4-C ) :   1.1478 B(  1-C ,  2-C ) :   1.5608
B(  1-C ,  4-C ) :   0.1085 B(  1-C , 32-H ) :   0.9731 B(  2-C ,  3-C ) :   1.2726
B(  2-C ,  6-C ) :   0.9992 B(  3-C ,  4-C ) :   1.5387 B(  3-C ,  5-H ) :   1.0035
B(  4-C , 20-C ) :   1.0964 B(  6-C ,  7-H ) :   0.9344 B(  6-C ,  8-H ) :   0.9476
B(  6-C ,  9-C ) :   1.0646 B(  9-C , 10-H ) :   0.9571 B(  9-C , 11-H ) :   0.9504
B(  9-C , 12-C ) :   1.0784 B( 12-C , 13-H ) :   0.9745 B( 12-C , 14-H ) :   0.9746
B( 12-C , 15-H ) :   0.9691 B( 16-S , 17-C ) :   1.1625 B( 16-S , 20-C ) :   1.0876
B( 17-C , 18-C ) :   1.6129 B( 17-C , 33-H ) :   0.9648 B( 18-C , 19-C ) :   1.2263
B( 18-C , 21-H ) :   0.9948 B( 19-C , 20-C ) :   1.6516 B( 19-C , 22-C ) :   1.0284
B( 22-C , 23-H ) :   0.9253 B( 22-C , 24-H ) :   0.9195 B( 22-C , 25-C ) :   1.0836
B( 25-C , 26-H ) :   0.9472 B( 25-C , 27-H ) :   0.9464 B( 25-C , 28-C ) :   1.0711
B( 28-C , 29-H ) :   0.9759 B( 28-C , 30-H ) :   0.9792 B( 28-C , 31-H ) :   0.9747

Dispersion correction           -0.014406537
FINAL SINGLE POINT ENERGY     -1339.860161866126

DIPOLE MOMENT
-------------
                                X             Y             Z
Electronic contribution:     22.93019      -3.76300     -13.57519
Nuclear contribution   :    -23.49793       4.09672      13.79834
                        -----------------------------------------
Total Dipole Moment    :     -0.56774       0.33371       0.22315
                        -----------------------------------------
Magnitude (a.u.)       :      0.69534
Magnitude (Debye)      :      1.76741

Rotational constants in cm-1:     0.021865     0.008045     0.006501
Rotational constants in MHz :   655.507118   241.184662   194.883539

                             ****ORCA TERMINATED NORMALLY****
TOTAL RUN TIME: 0 days 0 hours 0 minutes 34 seconds 265 msec
