                         Program Version 4.2.1 -  RELEASE  -
|  1> ! wB97X-D3 SP def2-SVP
|  2> %pal
|  3> nprocs 16
|  4> end
|  5>
|  6> * xyz 0 1
|  7> S 	 -43.9272 	 27.9109 	 87.3062
|  8> C 	 -45.3333 	 28.7398 	 86.7254
|  9> C 	 -45.0032 	 29.4051 	 85.5647
| 10> C 	 -43.7098 	 29.2009 	 85.0971
| 11> C 	 -42.9338 	 28.5331 	 85.9826
| 12> H 	 -43.328 	 29.7306 	 84.2646
| 13> C 	 -46.0302 	 30.1704 	 84.7601
| 14> H 	 -46.4036 	 29.4992 	 83.9728
| 15> H 	 -45.4284 	 30.8218 	 84.1456
| 16> C 	 -47.1946 	 30.8983 	 85.4181
| 17> H 	 -47.7153 	 31.3624 	 84.638
| 18> H 	 -47.9098 	 30.2188 	 85.8992
| 19> C 	 -46.6837 	 31.9064 	 86.4753
| 20> H 	 -47.4787 	 32.6271 	 86.8467
| 21> H 	 -46.2886 	 31.3903 	 87.2921
| 22> H 	 -45.9649 	 32.6108 	 85.9245
| 23> S 	 -40.9073 	 28.3333 	 84.1281
| 24> C 	 -39.2891 	 27.9111 	 84.711
| 25> C 	 -39.2023 	 27.7023 	 86.0622
| 26> C 	 -40.4568 	 27.8468 	 86.6916
| 27> C 	 -41.4799 	 28.2336 	 85.8204
| 28> H 	 -38.3061 	 27.3449 	 86.5208
| 29> C 	 -40.6152 	 27.6431 	 88.1992
| 30> H 	 -41.0353 	 26.6565 	 88.4466
| 31> H 	 -41.4149 	 28.255 	 88.5895
| 32> C 	 -39.4431 	 28.0879 	 89.0912
| 33> H 	 -38.5396 	 27.5913 	 88.6677
| 34> H 	 -39.4443 	 27.6443 	 90.0578
| 35> C 	 -39.2818 	 29.576 	 89.1718
| 36> H 	 -38.3045 	 29.8376 	 89.6015
| 37> H 	 -40.0506 	 30.1454 	 89.7253
| 38> H 	 -39.3499 	 29.9225 	 88.0907
| 39> H 	 -46.2325 	 28.902 	 87.3716
| 40> H 	 -38.4225 	 27.8716 	 84.1106
| 41> *
| 42>
| 43>                          ****END OF INPUT****

CARTESIAN COORDINATES (ANGSTROEM)
---------------------------------
  S    -43.927200   27.910900   87.306200
  C    -45.333300   28.739800   86.725400
  C    -45.003200   29.405100   85.564700
  C    -43.709800   29.200900   85.097100
  C    -42.933800   28.533100   85.982600
  H    -43.328000   29.730600   84.264600
  C    -46.030200   30.170400   84.760100
  H    -46.403600   29.499200   83.972800
  H    -45.428400   30.821800   84.145600
  C    -47.194600   30.898300   85.418100
  H    -47.715300   31.362400   84.638000
  H    -47.909800   30.218800   85.899200
  C    -46.683700   31.906400   86.475300
  H    -47.478700   32.627100   86.846700
  H    -46.288600   31.390300   87.292100
  H    -45.964900   32.610800   85.924500
  S    -40.907300   28.333300   84.128100
  C    -39.289100   27.911100   84.711000
  C    -39.202300   27.702300   86.062200
  C    -40.456800   27.846800   86.691600
  C    -41.479900   28.233600   85.820400
  H    -38.306100   27.344900   86.520800
  C    -40.615200   27.643100   88.199200
  H    -41.035300   26.656500   88.446600
  H    -41.414900   28.255000   88.589500
  C    -39.443100   28.087900   89.091200
  H    -38.539600   27.591300   88.667700
  H    -39.444300   27.644300   90.057800
  C    -39.281800   29.576000   89.171800
  H    -38.304500   29.837600   89.601500
  H    -40.050600   30.145400   89.725300
  H    -39.349900   29.922500   88.090700
  H    -46.232500   28.902000   87.371600
  H    -38.422500   27.871600   84.110600

 Total Charge           Charge          ....    0
 Multiplicity           Mult            ....    1
 Number of Electrons    NEL             ....  134
 Basis Dimension        Dim             ....  322

ORBITAL ENERGIES
----------------

  NO   OCC          E(Eh)            E(eV)
   0   2.0000     -88.970353     -2421.0064
   1   2.0000     -88.965027     -2420.8615
   2   2.0000     -10.334695      -281.2214
   3   2.0000     -10.333598      -281.1915
   4   2.0000     -10.317365      -280.7498
   5   2.0000     -10.311390      -280.5872
   6   2.0000     -10.307947      -280.4935
   7   2.0000     -10.295500      -280.1548
   8   2.0000     -10.292578      -280.0753
   9   2.0000     -10.289956      -280.0039
  10   2.0000     -10.287388      -279.9341
  11   2.0000     -10.285197      -279.8744
  12   2.0000     -10.284671      -279.8601
  13   2.0000     -10.284055      -279.8434
  14   2.0000     -10.281953      -279.7862
  15   2.0000     -10.279462      -279.7184
  16   2.0000      -8.083922      -219.9747
  17   2.0000      -8.079404      -219.8518
  18   2.0000      -6.042505      -164.4249
  19   2.0000      -6.038784      -164.3237
  20   2.0000      -6.037992      -164.3021
  21   2.0000      -6.034513      -164.2075
  22   2.0000      -6.033863      -164.1898
  23   2.0000      -6.030213      -164.0904
  24   2.0000      -1.008530       -27.4435
  25   2.0000      -0.986494       -26.8439
  26   2.0000      -0.911977       -24.8161
  27   2.0000      -0.910866       -24.7859
  28   2.0000      -0.869346       -23.6561
  29   2.0000      -0.854990       -23.2655
  30   2.0000      -0.846021       -23.0214
  31   2.0000      -0.814544       -22.1649
  32   2.0000      -0.781532       -21.2666
  33   2.0000      -0.771632       -20.9972
  34   2.0000      -0.708350       -19.2752
  35   2.0000      -0.703004       -19.1297
  36   2.0000      -0.696125       -18.9425
  37   2.0000      -0.664384       -18.0788
  38   2.0000      -0.641524       -17.4568
  39   2.0000      -0.609882       -16.5957
  40   2.0000      -0.603163       -16.4129
  41   2.0000      -0.578718       -15.7477
  42   2.0000      -0.560178       -15.2432
  43   2.0000      -0.550696       -14.9852
  44   2.0000      -0.540002       -14.6942
  45   2.0000      -0.530882       -14.4460
  46   2.0000      -0.520229       -14.1561
  47   2.0000      -0.512054       -13.9337
  48   2.0000      -0.500637       -13.6230
  49   2.0000      -0.491404       -13.3718
  50   2.0000      -0.489390       -13.3170
  51   2.0000      -0.474319       -12.9069
  52   2.0000      -0.472484       -12.8570
  53   2.0000      -0.467098       -12.7104
  54   2.0000      -0.465910       -12.6780
  55   2.0000      -0.450820       -12.2674
  56   2.0000      -0.446863       -12.1597
  57   2.0000      -0.436947       -11.8899
  58   2.0000      -0.430944       -11.7266
  59   2.0000      -0.424881       -11.5616
  60   2.0000      -0.422119       -11.4864
  61   2.0000      -0.412454       -11.2234
  62   2.0000      -0.404432       -11.0052
  63   2.0000      -0.359511        -9.7828
  64   2.0000      -0.337012        -9.1706
  65   2.0000      -0.329687        -8.9712
  66   2.0000      -0.283686        -7.7195
  67   0.0000       0.019334         0.5261
  68   0.0000       0.083522         2.2727
  69   0.0000       0.101776         2.7695
  70   0.0000       0.119123         3.2415
  71   0.0000       0.132149         3.5960

MULLIKEN ATOMIC CHARGES
-----------------------
   0 S :    0.093052
   1 C :   -0.150990
   2 C :   -0.094752
   3 C :   -0.013112
   4 C :   -0.077402
   5 H :    0.008300
   6 C :    0.056319
   7 H :    0.040592
   8 H :   -0.000634
   9 C :   -0.025598
  10 H :    0.016971
  11 H :    0.028063
  12 C :   -0.073482
  13 H :    0.039359
  14 H :    0.033050
  15 H :    0.038219
  16 S :    0.087845
  17 C :   -0.054702
  18 C :   -0.032538
  19 C :   -0.054171
  20 C :   -0.129809
  21 H :    0.015828
  22 C :    0.047077
  23 H :    0.042678
  24 H :    0.014057
  25 C :   -0.059201
  26 H :    0.017786
  27 H :    0.016403
  28 C :   -0.065489
  29 H :    0.037194
  30 H :    0.040756
  31 H :    0.045742
  32 H :    0.075703
  33 H :    0.036886
Sum of atomic charges:   -0.0000000

LOEWDIN ATOMIC CHARGES
----------------------
   0 S :    0.409158
   1 C :   -0.220757
   2 C :   -0.061820
   3 C :   -0.079581
   4 C :   -0.170205
   5 H :    0.024080
   6 C :   -0.034853
   7 H :    0.039105
   8 H :    0.023781
   9 C :   -0.037768
  10 H :    0.021169
  11 H :    0.023229
  12 C :   -0.065875
  13 H :    0.030538
  14 H :    0.013866
  15 H :    0.033815
  16 S :    0.387648
  17 C :   -0.161397
  18 C :   -0.067557
  19 C :   -0.056033
  20 C :   -0.174872
  21 H :    0.031704
  22 C :   -0.042438
  23 H :    0.036222
  24 H :    0.022011
  25 C :   -0.045810
  26 H :    0.021972
  27 H :    0.020769
  28 C :   -0.070708
  29 H :    0.027936
  30 H :    0.027630
  31 H :    0.036231
  32 H :    0.038928
  33 H :    0.019882

  Mayer bond orders larger than 0.100000
B(  0-S ,  1-C ) :   1.1300 B(  0-S ,  4-C ) :   1.1507 B(  1-C ,  2-C ) :   1.5937
B(  1-C , 32-H ) :   0.9567 B(  2-C ,  3-C ) :   1.2864 B(  2-C ,  6-C ) :   1.0123
B(  3-C ,  4-C ) :   1.5483 B(  3-C ,  5-H ) :   0.9870 B(  4-C , 20-C ) :   1.0578
B(  6-C ,  7-H ) :   0.9302 B(  6-C ,  8-H ) :   0.9339 B(  6-C ,  9-C ) :   1.0838
B(  9-C , 10-H ) :   0.9486 B(  9-C , 11-H ) :   0.9489 B(  9-C , 12-C ) :   1.0741
B( 12-C , 13-H ) :   0.9755 B( 12-C , 14-H ) :   0.9763 B( 12-C , 15-H ) :   0.9758
B( 16-S , 17-C ) :   1.1445 B( 16-S , 20-C ) :   1.1282 B( 17-C , 18-C ) :   1.6322
B( 17-C , 33-H ) :   0.9650 B( 18-C , 19-C ) :   1.2332 B( 18-C , 21-H ) :   0.9904
B( 19-C , 20-C ) :   1.5965 B( 19-C , 22-C ) :   1.0268 B( 22-C , 23-H ) :   0.9315
B( 22-C , 24-H ) :   0.9330 B( 22-C , 25-C ) :   1.0684 B( 25-C , 26-H ) :   0.9518
B( 25-C , 27-H ) :   0.9474 B( 25-C , 28-C ) :   1.0792 B( 28-C , 29-H ) :   0.9719
B( 28-C , 30-H ) :   0.9719 B( 28-C , 31-H ) :   0.9738

Dispersion correction           -0.014242017
FINAL SINGLE POINT ENERGY     -1339.878010639665

DIPOLE MOMENT
-------------
                                X             Y             Z
Electronic contribution:      4.81675     -12.80923     -10.55447
Nuclear contribution   :     -4.78411      13.03151      10.64823
                        -----------------------------------------
Total Dipole Moment    :      0.03264       0.22228       0.09375
                        -----------------------------------------
Magnitude (a.u.)       :      0.24344
Magnitude (Debye)      :      0.61877

Rotational constants in cm-1:     0.022823     0.007645     0.006509
Rotational constants in MHz :   684.216397   229.195721   195.139355

                             ****ORCA TERMINATED NORMALLY****
TOTAL RUN TIME: 0 days 0 hours 0 minutes 31 seconds 299 msec
