                         Program Version 4.2.1 -  RELEASE  -
|  1> ! wB97X-D3 SP def2-SVP
|  2> %pal
|  3> nprocs 16
|  4> end
|  5>
|  6> * xyz 0 1
|  7> S 	 -3.85287 	 -16.0741 	 84.2846
|  8> C 	 -5.50208 	 -16.2207 	 84.8379
|  9> C 	 -6.41292 	 -16.2161 	 83.7803
| 10> C 	 -5.74394 	 -16.0367 	 82.4859
| 11> C 	 -4.42563 	 -15.9421 	 82.5828
| 12> H 	 -6.22231 	 -16.1142 	 81.4914
| 13> C 	 -7.91628 	 -16.4207 	 83.9155
| 14> H 	 -8.37554 	 -16.7839 	 82.9141
| 15> H 	 -8.40938 	 -15.3455 	 84.0638
| 16> C 	 -8.3299 	 -17.408 	 85.1062
| 17> H 	 -7.88849 	 -17.09 	 86.1224
| 18> H 	 -9.41084 	 -17.4295 	 85.2097
| 19> C 	 -7.67276 	 -18.7549 	 84.8424
| 20> H 	 -7.84635 	 -19.4817 	 85.6173
| 21> H 	 -7.99501 	 -19.1443 	 83.8883
| 22> H 	 -6.56362 	 -18.7513 	 84.8032
| 23> S 	 -2.09561 	 -14.6646 	 81.9785
| 24> C 	 -1.53338 	 -14.6671 	 80.3441
| 25> C 	 -2.308 	 -15.4821 	 79.5581
| 26> C 	 -3.35785 	 -16.1351 	 80.2334
| 27> C 	 -3.44727 	 -15.6725 	 81.5467
| 28> H 	 -2.03372 	 -15.5822 	 78.4712
| 29> C 	 -4.29874 	 -17.0807 	 79.4365
| 30> H 	 -4.92654 	 -16.4715 	 78.8571
| 31> H 	 -4.87882 	 -17.513 	 80.221
| 32> C 	 -3.76682 	 -18.2306 	 78.6082
| 33> H 	 -3.0225 	 -18.8757 	 79.1684
| 34> H 	 -3.23238 	 -17.7689 	 77.7459
| 35> C 	 -4.7564 	 -19.2567 	 77.9898
| 36> H 	 -4.20359 	 -19.9189 	 77.3577
| 37> H 	 -5.3757 	 -18.55 	 77.3634
| 38> H 	 -5.38457 	 -19.8296 	 78.7394
| 39> H 	 -5.7589 	 -16.3551 	 85.8623
| 40> H 	 -0.65019 	 -14.1471 	 79.9469
| 41> *
| 42>
| 43>                          ****END OF INPUT****

CARTESIAN COORDINATES (ANGSTROEM)
---------------------------------
  S     -3.852870  -16.074100   84.284600
  C     -5.502080  -16.220700   84.837900
  C     -6.412920  -16.216100   83.780300
  C     -5.743940  -16.036700   82.485900
  C     -4.425630  -15.942100   82.582800
  H     -6.222310  -16.114200   81.491400
  C     -7.916280  -16.420700   83.915500
  H     -8.375540  -16.783900   82.914100
  H     -8.409380  -15.345500   84.063800
  C     -8.329900  -17.408000   85.106200
  H     -7.888490  -17.090000   86.122400
  H     -9.410840  -17.429500   85.209700
  C     -7.672760  -18.754900   84.842400
  H     -7.846350  -19.481700   85.617300
  H     -7.995010  -19.144300   83.888300
  H     -6.563620  -18.751300   84.803200
  S     -2.095610  -14.664600   81.978500
  C     -1.533380  -14.667100   80.344100
  C     -2.308000  -15.482100   79.558100
  C     -3.357850  -16.135100   80.233400
  C     -3.447270  -15.672500   81.546700
  H     -2.033720  -15.582200   78.471200
  C     -4.298740  -17.080700   79.436500
  H     -4.926540  -16.471500   78.857100
  H     -4.878820  -17.513000   80.221000
  C     -3.766820  -18.230600   78.608200
  H     -3.022500  -18.875700   79.168400
  H     -3.232380  -17.768900   77.745900
  C     -4.756400  -19.256700   77.989800
  H     -4.203590  -19.918900   77.357700
  H     -5.375700  -18.550000   77.363400
  H     -5.384570  -19.829600   78.739400
  H     -5.758900  -16.355100   85.862300
  H     -0.650190  -14.147100   79.946900

 Total Charge           Charge          ....    0
 Multiplicity           Mult            ....    1
 Number of Electrons    NEL             ....  134
 Basis Dimension        Dim             ....  322

ORBITAL ENERGIES
----------------

  NO   OCC          E(Eh)            E(eV)
   0   2.0000     -88.967835     -2420.9379
   1   2.0000     -88.963250     -2420.8131
   2   2.0000     -10.327228      -281.0182
   3   2.0000     -10.327046      -281.0132
   4   2.0000     -10.314934      -280.6836
   5   2.0000     -10.313969      -280.6574
   6   2.0000     -10.313591      -280.6471
   7   2.0000     -10.307614      -280.4844
   8   2.0000     -10.305414      -280.4246
   9   2.0000     -10.300825      -280.2997
  10   2.0000     -10.294956      -280.1400
  11   2.0000     -10.294268      -280.1213
  12   2.0000     -10.291726      -280.0521
  13   2.0000     -10.290200      -280.0106
  14   2.0000     -10.290020      -280.0057
  15   2.0000     -10.272817      -279.5376
  16   2.0000      -8.083011      -219.9499
  17   2.0000      -8.077645      -219.8039
  18   2.0000      -6.041441      -164.3960
  19   2.0000      -6.037501      -164.2888
  20   2.0000      -6.036355      -164.2576
  21   2.0000      -6.033764      -164.1871
  22   2.0000      -6.032365      -164.1490
  23   2.0000      -6.028054      -164.0317
  24   2.0000      -1.009726       -27.4760
  25   2.0000      -0.983093       -26.7513
  26   2.0000      -0.909840       -24.7580
  27   2.0000      -0.903705       -24.5911
  28   2.0000      -0.868451       -23.6317
  29   2.0000      -0.855384       -23.2762
  30   2.0000      -0.843596       -22.9554
  31   2.0000      -0.813929       -22.1481
  32   2.0000      -0.785049       -21.3623
  33   2.0000      -0.766252       -20.8508
  34   2.0000      -0.704184       -19.1618
  35   2.0000      -0.700006       -19.0481
  36   2.0000      -0.690493       -18.7893
  37   2.0000      -0.655965       -17.8497
  38   2.0000      -0.637492       -17.3470
  39   2.0000      -0.611616       -16.6429
  40   2.0000      -0.593993       -16.1634
  41   2.0000      -0.572968       -15.5912
  42   2.0000      -0.569274       -15.4907
  43   2.0000      -0.546303       -14.8657
  44   2.0000      -0.531542       -14.4640
  45   2.0000      -0.528011       -14.3679
  46   2.0000      -0.515356       -14.0235
  47   2.0000      -0.513887       -13.9836
  48   2.0000      -0.500184       -13.6107
  49   2.0000      -0.497139       -13.5279
  50   2.0000      -0.490811       -13.3557
  51   2.0000      -0.482827       -13.1384
  52   2.0000      -0.473232       -12.8773
  53   2.0000      -0.465768       -12.6742
  54   2.0000      -0.460479       -12.5303
  55   2.0000      -0.451907       -12.2970
  56   2.0000      -0.446911       -12.1611
  57   2.0000      -0.435553       -11.8520
  58   2.0000      -0.425075       -11.5669
  59   2.0000      -0.423019       -11.5109
  60   2.0000      -0.416774       -11.3410
  61   2.0000      -0.414554       -11.2806
  62   2.0000      -0.406964       -11.0740
  63   2.0000      -0.357776        -9.7356
  64   2.0000      -0.335592        -9.1319
  65   2.0000      -0.325296        -8.8517
  66   2.0000      -0.287040        -7.8108
  67   0.0000       0.029169         0.7937
  68   0.0000       0.075016         2.0413
  69   0.0000       0.099582         2.7098
  70   0.0000       0.121507         3.3064
  71   0.0000       0.136138         3.7045

MULLIKEN ATOMIC CHARGES
-----------------------
   0 S :    0.088943
   1 C :   -0.109999
   2 C :   -0.091119
   3 C :    0.000460
   4 C :   -0.119863
   5 H :    0.026966
   6 C :   -0.015934
   7 H :    0.044605
   8 H :    0.067290
   9 C :   -0.079009
  10 H :    0.037236
  11 H :    0.040916
  12 C :   -0.051860
  13 H :    0.028137
  14 H :    0.019866
  15 H :    0.045914
  16 S :    0.119112
  17 C :   -0.095428
  18 C :   -0.064358
  19 C :   -0.038390
  20 C :   -0.154394
  21 H :    0.035218
  22 C :    0.119610
  23 H :    0.025396
  24 H :    0.008710
  25 C :   -0.122245
  26 H :    0.039885
  27 H :    0.028594
  28 C :   -0.059437
  29 H :    0.040549
  30 H :    0.031774
  31 H :    0.052439
  32 H :    0.039372
  33 H :    0.061044
Sum of atomic charges:   -0.0000000

LOEWDIN ATOMIC CHARGES
----------------------
   0 S :    0.370677
   1 C :   -0.191200
   2 C :   -0.062292
   3 C :   -0.068059
   4 C :   -0.168941
   5 H :    0.039646
   6 C :   -0.047466
   7 H :    0.036560
   8 H :    0.046615
   9 C :   -0.042504
  10 H :    0.029735
  11 H :    0.025300
  12 C :   -0.072074
  13 H :    0.022067
  14 H :    0.019576
  15 H :    0.032217
  16 S :    0.422997
  17 C :   -0.199716
  18 C :   -0.079666
  19 C :   -0.054348
  20 C :   -0.199369
  21 H :    0.038966
  22 C :   -0.029269
  23 H :    0.025267
  24 H :    0.025256
  25 C :   -0.048904
  26 H :    0.028524
  27 H :    0.022810
  28 C :   -0.064444
  29 H :    0.025075
  30 H :    0.029041
  31 H :    0.031670
  32 H :    0.020521
  33 H :    0.035733

  Mayer bond orders larger than 0.100000
B(  0-S ,  1-C ) :   1.1189 B(  0-S ,  4-C ) :   1.1100 B(  1-C ,  2-C ) :   1.6429
B(  1-C , 32-H ) :   0.9718 B(  2-C ,  3-C ) :   1.1899 B(  2-C ,  6-C ) :   1.0101
B(  3-C ,  4-C ) :   1.6561 B(  3-C ,  5-H ) :   0.9840 B(  4-C , 20-C ) :   1.0452
B(  6-C ,  7-H ) :   0.9514 B(  6-C ,  8-H ) :   0.9371 B(  6-C ,  9-C ) :   1.0556
B(  9-C , 10-H ) :   0.9544 B(  9-C , 11-H ) :   0.9592 B(  9-C , 12-C ) :   1.0680
B( 12-C , 13-H ) :   0.9735 B( 12-C , 14-H ) :   0.9761 B( 12-C , 15-H ) :   0.9705
B( 16-S , 17-C ) :   1.1498 B( 16-S , 20-C ) :   1.1534 B( 17-C , 18-C ) :   1.6161
B( 17-C , 20-C ) :   0.1014 B( 17-C , 33-H ) :   0.9644 B( 18-C , 19-C ) :   1.2507
B( 18-C , 21-H ) :   0.9809 B( 19-C , 20-C ) :   1.5794 B( 19-C , 22-C ) :   1.0282
B( 22-C , 23-H ) :   0.9340 B( 22-C , 24-H ) :   0.9221 B( 22-C , 25-C ) :   1.0666
B( 25-C , 26-H ) :   0.9572 B( 25-C , 27-H ) :   0.9517 B( 25-C , 28-C ) :   1.0783
B( 28-C , 29-H ) :   0.9742 B( 28-C , 30-H ) :   0.9772 B( 28-C , 31-H ) :   0.9752

Dispersion correction           -0.013838015
FINAL SINGLE POINT ENERGY     -1339.872369481086

DIPOLE MOMENT
-------------
                                X             Y             Z
Electronic contribution:     19.45168      18.39202       9.41009
Nuclear contribution   :    -19.87339     -18.70073      -9.83583
                        -----------------------------------------
Total Dipole Moment    :     -0.42171      -0.30870      -0.42574
                        -----------------------------------------
Magnitude (a.u.)       :      0.67409
Magnitude (Debye)      :      1.71340

Rotational constants in cm-1:     0.017735     0.008677     0.006288
Rotational constants in MHz :   531.674847   260.133486   188.506371

                             ****ORCA TERMINATED NORMALLY****
TOTAL RUN TIME: 0 days 0 hours 0 minutes 32 seconds 536 msec
