                         Program Version 4.2.1 -  RELEASE  -
|  1> ! wB97X-D3 SP def2-SVP
|  2> %pal
|  3> nprocs 16
|  4> end
|  5>
|  6> * xyz 0 1
|  7> S 	 -2.07006 	 75.7058 	 46.9315
|  8> C 	 -0.442999 	 76.5828 	 47.1505
|  9> C 	 0.2389 	 76.0522 	 48.2308
| 10> C 	 -0.478212 	 74.9573 	 48.7481
| 11> C 	 -1.74933 	 74.6592 	 48.308
| 12> H 	 -0.194538 	 74.4082 	 49.6485
| 13> C 	 1.66726 	 76.4073 	 48.6224
| 14> H 	 2.08367 	 77.0369 	 47.803
| 15> H 	 2.26944 	 75.4915 	 48.5047
| 16> C 	 1.82642 	 77.2058 	 49.8938
| 17> H 	 1.40611 	 78.2023 	 49.7718
| 18> H 	 1.15317 	 76.7894 	 50.6613
| 19> C 	 3.28705 	 77.2883 	 50.2465
| 20> H 	 3.87858 	 77.7003 	 49.4528
| 21> H 	 3.47286 	 77.9908 	 51.0644
| 22> H 	 3.68319 	 76.3128 	 50.4698
| 23> S 	 -3.58133 	 74.033 	 50.3981
| 24> C 	 -4.39752 	 72.49 	 50.3439
| 25> C 	 -4.13421 	 71.7898 	 49.1387
| 26> C 	 -3.21419 	 72.5206 	 48.3356
| 27> C 	 -2.75843 	 73.7497 	 48.885
| 28> H 	 -4.50837 	 70.7597 	 48.9848
| 29> C 	 -2.8721 	 71.9125 	 46.9602
| 30> H 	 -2.81327 	 72.8131 	 46.3218
| 31> H 	 -3.64261 	 71.2625 	 46.5422
| 32> C 	 -1.59185 	 70.979 	 46.8156
| 33> H 	 -1.48043 	 70.4739 	 45.8351
| 34> H 	 -1.73768 	 70.2868 	 47.6383
| 35> C 	 -0.307705 	 71.7482 	 47.096
| 36> H 	 0.601198 	 71.2293 	 47.0188
| 37> H 	 -0.389918 	 72.1866 	 48.0805
| 38> H 	 -0.287638 	 72.6324 	 46.3952
| 39> H 	 -0.072122 	 77.372 	 46.5059
| 40> H 	 -4.97196 	 72.0317 	 51.1559
| 41> *
| 42>
| 43>                          ****END OF INPUT****

CARTESIAN COORDINATES (ANGSTROEM)
---------------------------------
  S     -2.070060   75.705800   46.931500
  C     -0.442999   76.582800   47.150500
  C      0.238900   76.052200   48.230800
  C     -0.478212   74.957300   48.748100
  C     -1.749330   74.659200   48.308000
  H     -0.194538   74.408200   49.648500
  C      1.667260   76.407300   48.622400
  H      2.083670   77.036900   47.803000
  H      2.269440   75.491500   48.504700
  C      1.826420   77.205800   49.893800
  H      1.406110   78.202300   49.771800
  H      1.153170   76.789400   50.661300
  C      3.287050   77.288300   50.246500
  H      3.878580   77.700300   49.452800
  H      3.472860   77.990800   51.064400
  H      3.683190   76.312800   50.469800
  S     -3.581330   74.033000   50.398100
  C     -4.397520   72.490000   50.343900
  C     -4.134210   71.789800   49.138700
  C     -3.214190   72.520600   48.335600
  C     -2.758430   73.749700   48.885000
  H     -4.508370   70.759700   48.984800
  C     -2.872100   71.912500   46.960200
  H     -2.813270   72.813100   46.321800
  H     -3.642610   71.262500   46.542200
  C     -1.591850   70.979000   46.815600
  H     -1.480430   70.473900   45.835100
  H     -1.737680   70.286800   47.638300
  C     -0.307705   71.748200   47.096000
  H      0.601198   71.229300   47.018800
  H     -0.389918   72.186600   48.080500
  H     -0.287638   72.632400   46.395200
  H     -0.072122   77.372000   46.505900
  H     -4.971960   72.031700   51.155900

 Total Charge           Charge          ....    0
 Multiplicity           Mult            ....    1
 Number of Electrons    NEL             ....  134
 Basis Dimension        Dim             ....  322

ORBITAL ENERGIES
----------------

  NO   OCC          E(Eh)            E(eV)
   0   2.0000     -88.975255     -2421.1398
   1   2.0000     -88.965028     -2420.8615
   2   2.0000     -10.334281      -281.2101
   3   2.0000     -10.332783      -281.1693
   4   2.0000     -10.325537      -280.9722
   5   2.0000     -10.325459      -280.9700
   6   2.0000     -10.310861      -280.5728
   7   2.0000     -10.303820      -280.3812
   8   2.0000     -10.301082      -280.3067
   9   2.0000     -10.297322      -280.2044
  10   2.0000     -10.292442      -280.0716
  11   2.0000     -10.291958      -280.0584
  12   2.0000     -10.286862      -279.9197
  13   2.0000     -10.285872      -279.8928
  14   2.0000     -10.276128      -279.6277
  15   2.0000     -10.262405      -279.2542
  16   2.0000      -8.089377      -220.1231
  17   2.0000      -8.077831      -219.8090
  18   2.0000      -6.047808      -164.5692
  19   2.0000      -6.043822      -164.4608
  20   2.0000      -6.040394      -164.3675
  21   2.0000      -6.036452      -164.2602
  22   2.0000      -6.032604      -164.1555
  23   2.0000      -6.028564      -164.0456
  24   2.0000      -1.000996       -27.2385
  25   2.0000      -0.979785       -26.6613
  26   2.0000      -0.917857       -24.9762
  27   2.0000      -0.899136       -24.4667
  28   2.0000      -0.870274       -23.6814
  29   2.0000      -0.848437       -23.0871
  30   2.0000      -0.838475       -22.8161
  31   2.0000      -0.811808       -22.0904
  32   2.0000      -0.782389       -21.2899
  33   2.0000      -0.769133       -20.9292
  34   2.0000      -0.708117       -19.2688
  35   2.0000      -0.701313       -19.0837
  36   2.0000      -0.687501       -18.7079
  37   2.0000      -0.661604       -18.0032
  38   2.0000      -0.638595       -17.3771
  39   2.0000      -0.616293       -16.7702
  40   2.0000      -0.589399       -16.0384
  41   2.0000      -0.572197       -15.5703
  42   2.0000      -0.562972       -15.3192
  43   2.0000      -0.547695       -14.9035
  44   2.0000      -0.542413       -14.7598
  45   2.0000      -0.528206       -14.3732
  46   2.0000      -0.519732       -14.1426
  47   2.0000      -0.509221       -13.8566
  48   2.0000      -0.504230       -13.7208
  49   2.0000      -0.501424       -13.6444
  50   2.0000      -0.493105       -13.4181
  51   2.0000      -0.475169       -12.9300
  52   2.0000      -0.467779       -12.7289
  53   2.0000      -0.461277       -12.5520
  54   2.0000      -0.452560       -12.3148
  55   2.0000      -0.450420       -12.2566
  56   2.0000      -0.444209       -12.0875
  57   2.0000      -0.435284       -11.8447
  58   2.0000      -0.423618       -11.5272
  59   2.0000      -0.419327       -11.4105
  60   2.0000      -0.418143       -11.3782
  61   2.0000      -0.411442       -11.1959
  62   2.0000      -0.407199       -11.0805
  63   2.0000      -0.337882        -9.1942
  64   2.0000      -0.333688        -9.0801
  65   2.0000      -0.324990        -8.8434
  66   2.0000      -0.304746        -8.2925
  67   0.0000       0.030087         0.8187
  68   0.0000       0.053378         1.4525
  69   0.0000       0.103858         2.8261
  70   0.0000       0.113192         3.0801
  71   0.0000       0.122706         3.3390

MULLIKEN ATOMIC CHARGES
-----------------------
   0 S :    0.085375
   1 C :   -0.131960
   2 C :   -0.059297
   3 C :    0.037146
   4 C :   -0.178148
   5 H :    0.011036
   6 C :    0.023867
   7 H :    0.014772
   8 H :    0.042895
   9 C :   -0.056170
  10 H :    0.024917
  11 H :    0.031849
  12 C :   -0.011251
  13 H :    0.018977
  14 H :    0.032220
  15 H :    0.029057
  16 S :    0.141274
  17 C :   -0.116826
  18 C :   -0.038138
  19 C :   -0.046686
  20 C :   -0.150968
  21 H :    0.041755
  22 C :    0.041692
  23 H :    0.025050
  24 H :    0.029046
  25 C :   -0.062497
  26 H :    0.043770
  27 H :    0.020498
  28 C :   -0.038549
  29 H :    0.024323
  30 H :    0.020642
  31 H :    0.029316
  32 H :    0.051749
  33 H :    0.069264
Sum of atomic charges:    0.0000000

LOEWDIN ATOMIC CHARGES
----------------------
   0 S :    0.359535
   1 C :   -0.155807
   2 C :   -0.066826
   3 C :   -0.064004
   4 C :   -0.191665
   5 H :    0.028301
   6 C :   -0.032699
   7 H :    0.032165
   8 H :    0.036933
   9 C :   -0.043889
  10 H :    0.027165
  11 H :    0.025881
  12 C :   -0.059849
  13 H :    0.023586
  14 H :    0.028433
  15 H :    0.024147
  16 S :    0.431724
  17 C :   -0.191815
  18 C :   -0.074814
  19 C :   -0.049945
  20 C :   -0.221000
  21 H :    0.040769
  22 C :   -0.034130
  23 H :    0.024507
  24 H :    0.031650
  25 C :   -0.036340
  26 H :    0.027958
  27 H :    0.020189
  28 C :   -0.068414
  29 H :    0.014322
  30 H :    0.021789
  31 H :    0.028946
  32 H :    0.028591
  33 H :    0.034606

  Mayer bond orders larger than 0.100000
B(  0-S ,  1-C ) :   1.1281 B(  0-S ,  4-C ) :   1.1233 B(  1-C ,  2-C ) :   1.6138
B(  1-C ,  4-C ) :   0.1036 B(  1-C , 32-H ) :   0.9667 B(  2-C ,  3-C ) :   1.2334
B(  2-C ,  6-C ) :   1.0125 B(  3-C ,  4-C ) :   1.6172 B(  3-C ,  5-H ) :   0.9840
B(  4-C , 20-C ) :   1.0322 B(  6-C ,  7-H ) :   0.9385 B(  6-C ,  8-H ) :   0.9516
B(  6-C ,  9-C ) :   1.0519 B(  9-C , 10-H ) :   0.9468 B(  9-C , 11-H ) :   0.9607
B(  9-C , 12-C ) :   1.0837 B( 12-C , 13-H ) :   0.9687 B( 12-C , 14-H ) :   0.9717
B( 12-C , 15-H ) :   0.9758 B( 16-S , 17-C ) :   1.1870 B( 16-S , 20-C ) :   1.1474
B( 17-C , 18-C ) :   1.5611 B( 17-C , 20-C ) :   0.1055 B( 17-C , 33-H ) :   0.9634
B( 18-C , 19-C ) :   1.2930 B( 18-C , 21-H ) :   0.9839 B( 19-C , 20-C ) :   1.5429
B( 19-C , 22-C ) :   1.0261 B( 22-C , 23-H ) :   0.9344 B( 22-C , 24-H ) :   0.9470
B( 22-C , 25-C ) :   1.0559 B( 25-C , 26-H ) :   0.9592 B( 25-C , 27-H ) :   0.9536
B( 25-C , 28-C ) :   1.0867 B( 28-C , 29-H ) :   0.9740 B( 28-C , 30-H ) :   0.9695
B( 28-C , 31-H ) :   0.9735

Dispersion correction           -0.015334924
FINAL SINGLE POINT ENERGY     -1339.871372408204

DIPOLE MOMENT
-------------
                                X             Y             Z
Electronic contribution:    -22.57633       2.90735       1.68268
Nuclear contribution   :     23.03950      -3.09368      -1.53498
                        -----------------------------------------
Total Dipole Moment    :      0.46317      -0.18633       0.14770
                        -----------------------------------------
Magnitude (a.u.)       :      0.52063
Magnitude (Debye)      :      1.32335

Rotational constants in cm-1:     0.020338     0.007888     0.007138
Rotational constants in MHz :   609.730723   236.469790   214.002359

                             ****ORCA TERMINATED NORMALLY****
TOTAL RUN TIME: 0 days 0 hours 0 minutes 33 seconds 791 msec
