                         Program Version 4.2.1 -  RELEASE  -
|  1> ! wB97X-D3 SP def2-SVP
|  2> %pal
|  3> nprocs 16
|  4> end
|  5>
|  6> * xyz 0 1
|  7> S 	 -29.2247 	 65.5148 	 102.32
|  8> C 	 -27.7499 	 66.1212 	 101.572
|  9> C 	 -26.6081 	 65.6752 	 102.27
| 10> C 	 -26.9826 	 65.0556 	 103.51
| 11> C 	 -28.3423 	 64.8318 	 103.649
| 12> H 	 -26.3084 	 64.7744 	 104.342
| 13> C 	 -25.1568 	 65.9495 	 101.859
| 14> H 	 -24.7773 	 66.7024 	 102.558
| 15> H 	 -25.2031 	 66.4586 	 100.893
| 16> C 	 -24.2058 	 64.7188 	 101.688
| 17> H 	 -23.1078 	 65.0376 	 101.701
| 18> H 	 -24.3772 	 64.1624 	 102.579
| 19> C 	 -24.5816 	 63.8414 	 100.522
| 20> H 	 -24.2297 	 64.3089 	 99.5905
| 21> H 	 -23.9719 	 62.9085 	 100.708
| 22> H 	 -25.6011 	 63.4029 	 100.468
| 23> S 	 -30.1256 	 65.1069 	 105.768
| 24> C 	 -30.5766 	 63.6959 	 106.756
| 25> C 	 -29.6186 	 62.7018 	 106.499
| 26> C 	 -28.6687 	 62.9229 	 105.434
| 27> C 	 -28.9191 	 64.1689 	 104.84
| 28> H 	 -29.771 	 61.7039 	 107.047
| 29> C 	 -27.7112 	 61.931 	 104.867
| 30> H 	 -26.9577 	 62.4929 	 104.356
| 31> H 	 -28.3109 	 61.3045 	 104.22
| 32> C 	 -26.9388 	 61.0805 	 105.888
| 33> H 	 -26.2502 	 60.4225 	 105.408
| 34> H 	 -27.5908 	 60.375 	 106.429
| 35> C 	 -26.0504 	 61.8905 	 106.754
| 36> H 	 -26.7511 	 62.3829 	 107.395
| 37> H 	 -25.3635 	 62.597 	 106.211
| 38> H 	 -25.4096 	 61.1634 	 107.362
| 39> H 	 -27.5827 	 66.5016 	 100.532
| 40> H 	 -31.3969 	 63.394 	 107.439
| 41> *
| 42>
| 43>                          ****END OF INPUT****

CARTESIAN COORDINATES (ANGSTROEM)
---------------------------------
  S    -29.224700   65.514800  102.320000
  C    -27.749900   66.121200  101.572000
  C    -26.608100   65.675200  102.270000
  C    -26.982600   65.055600  103.510000
  C    -28.342300   64.831800  103.649000
  H    -26.308400   64.774400  104.342000
  C    -25.156800   65.949500  101.859000
  H    -24.777300   66.702400  102.558000
  H    -25.203100   66.458600  100.893000
  C    -24.205800   64.718800  101.688000
  H    -23.107800   65.037600  101.701000
  H    -24.377200   64.162400  102.579000
  C    -24.581600   63.841400  100.522000
  H    -24.229700   64.308900   99.590500
  H    -23.971900   62.908500  100.708000
  H    -25.601100   63.402900  100.468000
  S    -30.125600   65.106900  105.768000
  C    -30.576600   63.695900  106.756000
  C    -29.618600   62.701800  106.499000
  C    -28.668700   62.922900  105.434000
  C    -28.919100   64.168900  104.840000
  H    -29.771000   61.703900  107.047000
  C    -27.711200   61.931000  104.867000
  H    -26.957700   62.492900  104.356000
  H    -28.310900   61.304500  104.220000
  C    -26.938800   61.080500  105.888000
  H    -26.250200   60.422500  105.408000
  H    -27.590800   60.375000  106.429000
  C    -26.050400   61.890500  106.754000
  H    -26.751100   62.382900  107.395000
  H    -25.363500   62.597000  106.211000
  H    -25.409600   61.163400  107.362000
  H    -27.582700   66.501600  100.532000
  H    -31.396900   63.394000  107.439000

 Total Charge           Charge          ....    0
 Multiplicity           Mult            ....    1
 Number of Electrons    NEL             ....  134
 Basis Dimension        Dim             ....  322

ORBITAL ENERGIES
----------------

  NO   OCC          E(Eh)            E(eV)
   0   2.0000     -88.973529     -2421.0928
   1   2.0000     -88.966859     -2420.9113
   2   2.0000     -10.332562      -281.1633
   3   2.0000     -10.331727      -281.1406
   4   2.0000     -10.323794      -280.9247
   5   2.0000     -10.321576      -280.8644
   6   2.0000     -10.307930      -280.4930
   7   2.0000     -10.307379      -280.4781
   8   2.0000     -10.302357      -280.3414
   9   2.0000     -10.297812      -280.2177
  10   2.0000     -10.295423      -280.1527
  11   2.0000     -10.293918      -280.1118
  12   2.0000     -10.288423      -279.9622
  13   2.0000     -10.284665      -279.8600
  14   2.0000     -10.281470      -279.7730
  15   2.0000     -10.280387      -279.7436
  16   2.0000      -8.087659      -220.0764
  17   2.0000      -8.080054      -219.8695
  18   2.0000      -6.046222      -164.5261
  19   2.0000      -6.042185      -164.4162
  20   2.0000      -6.038837      -164.3251
  21   2.0000      -6.038435      -164.3142
  22   2.0000      -6.034697      -164.2124
  23   2.0000      -6.030667      -164.1028
  24   2.0000      -1.002321       -27.2745
  25   2.0000      -0.978029       -26.6135
  26   2.0000      -0.918258       -24.9871
  27   2.0000      -0.909853       -24.7584
  28   2.0000      -0.866030       -23.5659
  29   2.0000      -0.852762       -23.2048
  30   2.0000      -0.844879       -22.9903
  31   2.0000      -0.811445       -22.0805
  32   2.0000      -0.781877       -21.2760
  33   2.0000      -0.771658       -20.9979
  34   2.0000      -0.706555       -19.2263
  35   2.0000      -0.694707       -18.9039
  36   2.0000      -0.691293       -18.8110
  37   2.0000      -0.646693       -17.5974
  38   2.0000      -0.635868       -17.3028
  39   2.0000      -0.616428       -16.7739
  40   2.0000      -0.591353       -16.0915
  41   2.0000      -0.567152       -15.4330
  42   2.0000      -0.563269       -15.3273
  43   2.0000      -0.548569       -14.9273
  44   2.0000      -0.547208       -14.8903
  45   2.0000      -0.544296       -14.8110
  46   2.0000      -0.519774       -14.1438
  47   2.0000      -0.510226       -13.8840
  48   2.0000      -0.500173       -13.6104
  49   2.0000      -0.491957       -13.3868
  50   2.0000      -0.486566       -13.2401
  51   2.0000      -0.477935       -13.0053
  52   2.0000      -0.470431       -12.8011
  53   2.0000      -0.465881       -12.6773
  54   2.0000      -0.458771       -12.4838
  55   2.0000      -0.453692       -12.3456
  56   2.0000      -0.443499       -12.0682
  57   2.0000      -0.433429       -11.7942
  58   2.0000      -0.431168       -11.7327
  59   2.0000      -0.423163       -11.5149
  60   2.0000      -0.417139       -11.3509
  61   2.0000      -0.414666       -11.2836
  62   2.0000      -0.408441       -11.1143
  63   2.0000      -0.340761        -9.2726
  64   2.0000      -0.331671        -9.0252
  65   2.0000      -0.327085        -8.9004
  66   2.0000      -0.295666        -8.0455
  67   0.0000       0.023447         0.6380
  68   0.0000       0.066781         1.8172
  69   0.0000       0.109888         2.9902
  70   0.0000       0.115665         3.1474
  71   0.0000       0.124418         3.3856

MULLIKEN ATOMIC CHARGES
-----------------------
   0 S :    0.135275
   1 C :   -0.126316
   2 C :   -0.126658
   3 C :    0.016241
   4 C :   -0.159502
   5 H :    0.033338
   6 C :    0.067607
   7 H :    0.045181
   8 H :    0.003937
   9 C :   -0.070468
  10 H :    0.049493
  11 H :    0.013322
  12 C :   -0.078380
  13 H :    0.040895
  14 H :    0.034278
  15 H :    0.056970
  16 S :    0.106847
  17 C :   -0.096158
  18 C :   -0.097259
  19 C :   -0.043746
  20 C :   -0.182000
  21 H :    0.043726
  22 C :    0.127853
  23 H :    0.003811
  24 H :    0.045386
  25 C :   -0.073930
  26 H :    0.012685
  27 H :    0.025630
  28 C :   -0.069512
  29 H :    0.037836
  30 H :    0.041722
  31 H :    0.041040
  32 H :    0.069685
  33 H :    0.071171
Sum of atomic charges:   -0.0000000

LOEWDIN ATOMIC CHARGES
----------------------
   0 S :    0.421282
   1 C :   -0.212589
   2 C :   -0.062068
   3 C :   -0.067110
   4 C :   -0.207913
   5 H :    0.035796
   6 C :   -0.035921
   7 H :    0.035374
   8 H :    0.023920
   9 C :   -0.045419
  10 H :    0.037814
  11 H :    0.015331
  12 C :   -0.075322
  13 H :    0.026424
  14 H :    0.034799
  15 H :    0.035430
  16 S :    0.381560
  17 C :   -0.198011
  18 C :   -0.085971
  19 C :   -0.059137
  20 C :   -0.183657
  21 H :    0.038913
  22 C :   -0.023737
  23 H :    0.026516
  24 H :    0.038805
  25 C :   -0.046839
  26 H :    0.019408
  27 H :    0.023061
  28 C :   -0.066546
  29 H :    0.022522
  30 H :    0.029043
  31 H :    0.034541
  32 H :    0.041981
  33 H :    0.047719

  Mayer bond orders larger than 0.100000
B(  0-S ,  1-C ) :   1.1391 B(  0-S ,  4-C ) :   1.1571 B(  1-C ,  2-C ) :   1.6098
B(  1-C , 32-H ) :   0.9513 B(  2-C ,  3-C ) :   1.2436 B(  2-C ,  6-C ) :   1.0232
B(  3-C ,  4-C ) :   1.5666 B(  3-C ,  5-H ) :   0.9785 B(  4-C , 20-C ) :   1.0344
B(  6-C ,  7-H ) :   0.9423 B(  6-C ,  8-H ) :   0.9391 B(  6-C ,  9-C ) :   1.0571
B(  9-C , 10-H ) :   0.9545 B(  9-C , 11-H ) :   0.9589 B(  9-C , 12-C ) :   1.0783
B( 12-C , 13-H ) :   0.9751 B( 12-C , 14-H ) :   0.9709 B( 12-C , 15-H ) :   0.9725
B( 16-S , 17-C ) :   1.1274 B( 16-S , 20-C ) :   1.1393 B( 17-C , 18-C ) :   1.6459
B( 17-C , 20-C ) :   0.1019 B( 17-C , 33-H ) :   0.9606 B( 18-C , 19-C ) :   1.2167
B( 18-C , 21-H ) :   0.9687 B( 19-C , 20-C ) :   1.5919 B( 19-C , 22-C ) :   1.0396
B( 22-C , 23-H ) :   0.9244 B( 22-C , 24-H ) :   0.9279 B( 22-C , 25-C ) :   1.0855
B( 25-C , 26-H ) :   0.9547 B( 25-C , 27-H ) :   0.9488 B( 25-C , 28-C ) :   1.0723
B( 28-C , 29-H ) :   0.9756 B( 28-C , 30-H ) :   0.9714 B( 28-C , 31-H ) :   0.9719

Dispersion correction           -0.014763047
FINAL SINGLE POINT ENERGY     -1339.860851522615

DIPOLE MOMENT
-------------
                                X             Y             Z
Electronic contribution:    -25.74640      14.39383       2.57956
Nuclear contribution   :     26.35021     -14.94630      -2.68303
                        -----------------------------------------
Total Dipole Moment    :      0.60382      -0.55246      -0.10348
                        -----------------------------------------
Magnitude (a.u.)       :      0.82494
Magnitude (Debye)      :      2.09682

Rotational constants in cm-1:     0.018102     0.009571     0.006867
Rotational constants in MHz :   542.693889   286.923425   205.868326

                             ****ORCA TERMINATED NORMALLY****
TOTAL RUN TIME: 0 days 0 hours 0 minutes 29 seconds 206 msec
