                         Program Version 4.2.1 -  RELEASE  -
|  1> ! wB97X-D3 SP def2-SVP
|  2> %pal
|  3> nprocs 16
|  4> end
|  5>
|  6> * xyz 0 1
|  7> S 	 -99.8645 	 54.095 	 116.64
|  8> C 	 -98.1504 	 54.5226 	 116.634
|  9> C 	 -97.5304 	 54.0226 	 117.787
| 10> C 	 -98.4779 	 53.3621 	 118.637
| 11> C 	 -99.7876 	 53.4449 	 118.181
| 12> H 	 -98.2518 	 52.8332 	 119.514
| 13> C 	 -96.0287 	 53.9496 	 118.217
| 14> H 	 -95.4886 	 54.5917 	 117.557
| 15> H 	 -95.7269 	 53.005 	 117.926
| 16> C 	 -95.6416 	 54.2156 	 119.636
| 17> H 	 -96.0342 	 53.5615 	 120.4
| 18> H 	 -94.5393 	 54.1945 	 119.764
| 19> C 	 -96.1101 	 55.616 	 120.074
| 20> H 	 -97.1751 	 55.6503 	 120.138
| 21> H 	 -95.7298 	 55.7561 	 121.119
| 22> H 	 -95.7075 	 56.4225 	 119.474
| 23> S 	 -102.234 	 52.0312 	 118.328
| 24> C 	 -102.925 	 51.9416 	 119.934
| 25> C 	 -102.267 	 52.8047 	 120.868
| 26> C 	 -101.16 	 53.4999 	 120.271
| 27> C 	 -100.893 	 53.0474 	 118.984
| 28> H 	 -102.676 	 52.8663 	 121.879
| 29> C 	 -100.532 	 54.6906 	 120.99
| 30> H 	 -99.4878 	 54.7009 	 121.216
| 31> H 	 -100.906 	 54.5633 	 122.078
| 32> C 	 -100.838 	 56.0691 	 120.26
| 33> H 	 -101.939 	 56.0186 	 120.207
| 34> H 	 -100.415 	 56.0134 	 119.247
| 35> C 	 -100.569 	 57.3955 	 121.026
| 36> H 	 -101.189 	 57.6105 	 121.862
| 37> H 	 -100.841 	 58.1903 	 120.38
| 38> H 	 -99.5397 	 57.5969 	 121.283
| 39> H 	 -97.5877 	 54.9856 	 115.786
| 40> H 	 -103.797 	 51.4325 	 120.226
| 41> *
| 42>
| 43>                          ****END OF INPUT****

CARTESIAN COORDINATES (ANGSTROEM)
---------------------------------
  S    -99.864500   54.095000  116.640000
  C    -98.150400   54.522600  116.634000
  C    -97.530400   54.022600  117.787000
  C    -98.477900   53.362100  118.637000
  C    -99.787600   53.444900  118.181000
  H    -98.251800   52.833200  119.514000
  C    -96.028700   53.949600  118.217000
  H    -95.488600   54.591700  117.557000
  H    -95.726900   53.005000  117.926000
  C    -95.641600   54.215600  119.636000
  H    -96.034200   53.561500  120.400000
  H    -94.539300   54.194500  119.764000
  C    -96.110100   55.616000  120.074000
  H    -97.175100   55.650300  120.138000
  H    -95.729800   55.756100  121.119000
  H    -95.707500   56.422500  119.474000
  S    -102.234000   52.031200  118.328000
  C    -102.925000   51.941600  119.934000
  C    -102.267000   52.804700  120.868000
  C    -101.160000   53.499900  120.271000
  C    -100.893000   53.047400  118.984000
  H    -102.676000   52.866300  121.879000
  C    -100.532000   54.690600  120.990000
  H    -99.487800   54.700900  121.216000
  H    -100.906000   54.563300  122.078000
  C    -100.838000   56.069100  120.260000
  H    -101.939000   56.018600  120.207000
  H    -100.415000   56.013400  119.247000
  C    -100.569000   57.395500  121.026000
  H    -101.189000   57.610500  121.862000
  H    -100.841000   58.190300  120.380000
  H    -99.539700   57.596900  121.283000
  H    -97.587700   54.985600  115.786000
  H    -103.797000   51.432500  120.226000

 Total Charge           Charge          ....    0
 Multiplicity           Mult            ....    1
 Number of Electrons    NEL             ....  134
 Basis Dimension        Dim             ....  322

ORBITAL ENERGIES
----------------

  NO   OCC          E(Eh)            E(eV)
   0   2.0000     -88.970832     -2421.0194
   1   2.0000     -88.968637     -2420.9597
   2   2.0000     -10.326976      -281.0113
   3   2.0000     -10.320906      -280.8461
   4   2.0000     -10.320248      -280.8282
   5   2.0000     -10.320126      -280.8249
   6   2.0000     -10.308130      -280.4985
   7   2.0000     -10.306771      -280.4615
   8   2.0000     -10.300495      -280.2907
   9   2.0000     -10.297144      -280.1995
  10   2.0000     -10.291243      -280.0390
  11   2.0000     -10.288281      -279.9584
  12   2.0000     -10.287403      -279.9345
  13   2.0000     -10.285304      -279.8774
  14   2.0000     -10.274260      -279.5768
  15   2.0000     -10.271372      -279.4983
  16   2.0000      -8.084450      -219.9891
  17   2.0000      -8.084193      -219.9821
  18   2.0000      -6.042925      -164.4363
  19   2.0000      -6.042642      -164.4287
  20   2.0000      -6.039290      -164.3374
  21   2.0000      -6.038562      -164.3176
  22   2.0000      -6.035159      -164.2250
  23   2.0000      -6.034982      -164.2202
  24   2.0000      -1.009275       -27.4638
  25   2.0000      -0.978331       -26.6217
  26   2.0000      -0.916987       -24.9525
  27   2.0000      -0.896744       -24.4016
  28   2.0000      -0.868298       -23.6276
  29   2.0000      -0.851276       -23.1644
  30   2.0000      -0.843693       -22.9580
  31   2.0000      -0.807117       -21.9628
  32   2.0000      -0.788568       -21.4580
  33   2.0000      -0.775695       -21.1077
  34   2.0000      -0.709967       -19.3192
  35   2.0000      -0.699481       -19.0338
  36   2.0000      -0.690395       -18.7866
  37   2.0000      -0.659532       -17.9468
  38   2.0000      -0.638772       -17.3819
  39   2.0000      -0.623622       -16.9696
  40   2.0000      -0.593864       -16.1599
  41   2.0000      -0.564048       -15.3485
  42   2.0000      -0.558319       -15.1926
  43   2.0000      -0.554889       -15.0993
  44   2.0000      -0.543707       -14.7950
  45   2.0000      -0.519977       -14.1493
  46   2.0000      -0.518288       -14.1033
  47   2.0000      -0.508370       -13.8334
  48   2.0000      -0.502398       -13.6710
  49   2.0000      -0.499521       -13.5927
  50   2.0000      -0.489883       -13.3304
  51   2.0000      -0.486056       -13.2263
  52   2.0000      -0.469020       -12.7627
  53   2.0000      -0.459616       -12.5068
  54   2.0000      -0.456220       -12.4144
  55   2.0000      -0.453020       -12.3273
  56   2.0000      -0.447292       -12.1714
  57   2.0000      -0.436113       -11.8672
  58   2.0000      -0.428447       -11.6586
  59   2.0000      -0.426593       -11.6082
  60   2.0000      -0.420805       -11.4507
  61   2.0000      -0.416817       -11.3422
  62   2.0000      -0.406146       -11.0518
  63   2.0000      -0.341850        -9.3022
  64   2.0000      -0.332287        -9.0420
  65   2.0000      -0.330635        -8.9970
  66   2.0000      -0.288003        -7.8370
  67   0.0000       0.023615         0.6426
  68   0.0000       0.067754         1.8437
  69   0.0000       0.102218         2.7815
  70   0.0000       0.121392         3.3032
  71   0.0000       0.128571         3.4986

MULLIKEN ATOMIC CHARGES
-----------------------
   0 S :    0.122671
   1 C :   -0.154665
   2 C :   -0.111880
   3 C :    0.031961
   4 C :   -0.156768
   5 H :   -0.005228
   6 C :    0.154292
   7 H :    0.001130
   8 H :    0.020564
   9 C :   -0.091695
  10 H :    0.029825
  11 H :    0.036646
  12 C :   -0.063232
  13 H :    0.038506
  14 H :    0.027613
  15 H :    0.031593
  16 S :    0.114198
  17 C :   -0.075302
  18 C :   -0.056369
  19 C :   -0.021641
  20 C :   -0.156381
  21 H :    0.030025
  22 C :    0.058391
  23 H :    0.013256
  24 H :    0.021212
  25 C :   -0.093392
  26 H :    0.034173
  27 H :    0.057161
  28 C :   -0.009778
  29 H :    0.022636
  30 H :    0.019129
  31 H :    0.026370
  32 H :    0.064222
  33 H :    0.040754
Sum of atomic charges:   -0.0000000

LOEWDIN ATOMIC CHARGES
----------------------
   0 S :    0.434707
   1 C :   -0.214454
   2 C :   -0.053526
   3 C :   -0.058080
   4 C :   -0.222557
   5 H :    0.021702
   6 C :   -0.023170
   7 H :    0.026424
   8 H :    0.026277
   9 C :   -0.043116
  10 H :    0.022435
  11 H :    0.032472
  12 C :   -0.061396
  13 H :    0.018961
  14 H :    0.028422
  15 H :    0.021990
  16 S :    0.385167
  17 C :   -0.178336
  18 C :   -0.069761
  19 C :   -0.050455
  20 C :   -0.184993
  21 H :    0.034557
  22 C :   -0.040805
  23 H :    0.018513
  24 H :    0.036832
  25 C :   -0.033980
  26 H :    0.029329
  27 H :    0.030902
  28 C :   -0.065068
  29 H :    0.023387
  30 H :    0.027668
  31 H :    0.021575
  32 H :    0.038938
  33 H :    0.019438

  Mayer bond orders larger than 0.100000
B(  0-S ,  1-C ) :   1.1318 B(  0-S ,  4-C ) :   1.1674 B(  1-C ,  2-C ) :   1.6017
B(  1-C , 32-H ) :   0.9644 B(  2-C ,  3-C ) :   1.2490 B(  2-C ,  6-C ) :   0.9992
B(  3-C ,  4-C ) :   1.5359 B(  3-C ,  5-H ) :   1.0090 B(  4-C , 20-C ) :   1.0751
B(  6-C ,  7-H ) :   0.9335 B(  6-C ,  8-H ) :   0.9328 B(  6-C ,  9-C ) :   1.0835
B(  9-C , 10-H ) :   0.9510 B(  9-C , 11-H ) :   0.9522 B(  9-C , 12-C ) :   1.0821
B( 12-C , 13-H ) :   0.9734 B( 12-C , 14-H ) :   0.9746 B( 12-C , 15-H ) :   0.9755
B( 16-S , 17-C ) :   1.1568 B( 16-S , 20-C ) :   1.1140 B( 17-C , 18-C ) :   1.6117
B( 17-C , 20-C ) :   0.1049 B( 17-C , 33-H ) :   0.9711 B( 18-C , 19-C ) :   1.2396
B( 18-C , 21-H ) :   0.9844 B( 19-C , 20-C ) :   1.5783 B( 19-C , 22-C ) :   1.0430
B( 22-C , 23-H ) :   0.9329 B( 22-C , 24-H ) :   0.9377 B( 22-C , 25-C ) :   1.0353
B( 25-C , 26-H ) :   0.9583 B( 25-C , 27-H ) :   0.9560 B( 25-C , 28-C ) :   1.0845
B( 28-C , 29-H ) :   0.9740 B( 28-C , 30-H ) :   0.9683 B( 28-C , 31-H ) :   0.9748

Dispersion correction           -0.015955304
FINAL SINGLE POINT ENERGY     -1339.859365976494

DIPOLE MOMENT
-------------
                                X             Y             Z
Electronic contribution:    -16.86934     -17.43443     -17.43473
Nuclear contribution   :     17.23795      17.66897      17.89826
                        -----------------------------------------
Total Dipole Moment    :      0.36860       0.23454       0.46353
                        -----------------------------------------
Magnitude (a.u.)       :      0.63698
Magnitude (Debye)      :      1.61907

Rotational constants in cm-1:     0.017713     0.010164     0.008096
Rotational constants in MHz :   531.008217   304.723806   242.700300

                             ****ORCA TERMINATED NORMALLY****
TOTAL RUN TIME: 0 days 0 hours 0 minutes 37 seconds 90 msec
