                         Program Version 4.2.1 -  RELEASE  -
|  1> ! wB97X-D3 SP def2-SVP
|  2> %pal
|  3> nprocs 16
|  4> end
|  5>
|  6> * xyz 0 1
|  7> S 	 -42.8467 	 25.5313 	 88.0272
|  8> C 	 -42.7896 	 27.212 	 88.5039
|  9> C 	 -42.366 	 28.0471 	 87.4625
| 10> C 	 -42.2046 	 27.2921 	 86.296
| 11> C 	 -42.6356 	 25.9619 	 86.3948
| 12> H 	 -42.0119 	 27.6481 	 85.3017
| 13> C 	 -42.1557 	 29.5676 	 87.5789
| 14> H 	 -41.3597 	 29.7539 	 86.877
| 15> H 	 -41.7089 	 29.7555 	 88.5427
| 16> C 	 -43.4526 	 30.3759 	 87.2972
| 17> H 	 -44.0659 	 30.1685 	 86.4317
| 18> H 	 -44.0592 	 30.0222 	 88.1347
| 19> C 	 -43.0921 	 31.8874 	 87.4371
| 20> H 	 -42.6224 	 32.2779 	 86.547
| 21> H 	 -44.0368 	 32.3614 	 87.6657
| 22> H 	 -42.4745 	 32.212 	 88.2511
| 23> S 	 -44.2618 	 25.4104 	 84.2859
| 24> C 	 -43.9264 	 24.0467 	 83.294
| 25> C 	 -42.8201 	 23.3307 	 83.7384
| 26> C 	 -42.1413 	 23.9568 	 84.8288
| 27> C 	 -42.8344 	 25.0954 	 85.2937
| 28> H 	 -42.5758 	 22.4402 	 83.2384
| 29> C 	 -40.8677 	 23.3931 	 85.4362
| 30> H 	 -40.6945 	 22.3508 	 85.1883
| 31> H 	 -40.8615 	 23.4274 	 86.5598
| 32> C 	 -39.6844 	 24.2757 	 84.9413
| 33> H 	 -38.8054 	 23.9841 	 85.4902
| 34> H 	 -39.7458 	 25.3627 	 85.2488
| 35> C 	 -39.3596 	 24.191 	 83.4546
| 36> H 	 -38.7928 	 23.2761 	 83.2155
| 37> H 	 -38.8051 	 25.0476 	 83.1021
| 38> H 	 -40.2785 	 24.1895 	 82.8891
| 39> H 	 -43.0586 	 27.6217 	 89.493
| 40> H 	 -44.4435 	 23.7138 	 82.3976
| 41> *
| 42>
| 43>                          ****END OF INPUT****

CARTESIAN COORDINATES (ANGSTROEM)
---------------------------------
  S    -42.846700   25.531300   88.027200
  C    -42.789600   27.212000   88.503900
  C    -42.366000   28.047100   87.462500
  C    -42.204600   27.292100   86.296000
  C    -42.635600   25.961900   86.394800
  H    -42.011900   27.648100   85.301700
  C    -42.155700   29.567600   87.578900
  H    -41.359700   29.753900   86.877000
  H    -41.708900   29.755500   88.542700
  C    -43.452600   30.375900   87.297200
  H    -44.065900   30.168500   86.431700
  H    -44.059200   30.022200   88.134700
  C    -43.092100   31.887400   87.437100
  H    -42.622400   32.277900   86.547000
  H    -44.036800   32.361400   87.665700
  H    -42.474500   32.212000   88.251100
  S    -44.261800   25.410400   84.285900
  C    -43.926400   24.046700   83.294000
  C    -42.820100   23.330700   83.738400
  C    -42.141300   23.956800   84.828800
  C    -42.834400   25.095400   85.293700
  H    -42.575800   22.440200   83.238400
  C    -40.867700   23.393100   85.436200
  H    -40.694500   22.350800   85.188300
  H    -40.861500   23.427400   86.559800
  C    -39.684400   24.275700   84.941300
  H    -38.805400   23.984100   85.490200
  H    -39.745800   25.362700   85.248800
  C    -39.359600   24.191000   83.454600
  H    -38.792800   23.276100   83.215500
  H    -38.805100   25.047600   83.102100
  H    -40.278500   24.189500   82.889100
  H    -43.058600   27.621700   89.493000
  H    -44.443500   23.713800   82.397600

 Total Charge           Charge          ....    0
 Multiplicity           Mult            ....    1
 Number of Electrons    NEL             ....  134
 Basis Dimension        Dim             ....  322

ORBITAL ENERGIES
----------------

  NO   OCC          E(Eh)            E(eV)
   0   2.0000     -88.967932     -2420.9405
   1   2.0000     -88.966935     -2420.9134
   2   2.0000     -10.322568      -280.8914
   3   2.0000     -10.319081      -280.7965
   4   2.0000     -10.313868      -280.6546
   5   2.0000     -10.313119      -280.6342
   6   2.0000     -10.305606      -280.4298
   7   2.0000     -10.298194      -280.2281
   8   2.0000     -10.296025      -280.1691
   9   2.0000     -10.292821      -280.0819
  10   2.0000     -10.291953      -280.0583
  11   2.0000     -10.288467      -279.9634
  12   2.0000     -10.288157      -279.9550
  13   2.0000     -10.282072      -279.7894
  14   2.0000     -10.275991      -279.6239
  15   2.0000     -10.268763      -279.4273
  16   2.0000      -8.083121      -219.9529
  17   2.0000      -8.081424      -219.9067
  18   2.0000      -6.041416      -164.3953
  19   2.0000      -6.039802      -164.3514
  20   2.0000      -6.037584      -164.2910
  21   2.0000      -6.035893      -164.2450
  22   2.0000      -6.034070      -164.1954
  23   2.0000      -6.032416      -164.1504
  24   2.0000      -1.008814       -27.4512
  25   2.0000      -0.983160       -26.7531
  26   2.0000      -0.909890       -24.7594
  27   2.0000      -0.904260       -24.6062
  28   2.0000      -0.868922       -23.6446
  29   2.0000      -0.850649       -23.1473
  30   2.0000      -0.843124       -22.9426
  31   2.0000      -0.808382       -21.9972
  32   2.0000      -0.784711       -21.3531
  33   2.0000      -0.769465       -20.9382
  34   2.0000      -0.710876       -19.3439
  35   2.0000      -0.705579       -19.1998
  36   2.0000      -0.684716       -18.6321
  37   2.0000      -0.660375       -17.9697
  38   2.0000      -0.639964       -17.4143
  39   2.0000      -0.615472       -16.7478
  40   2.0000      -0.591632       -16.0991
  41   2.0000      -0.568546       -15.4709
  42   2.0000      -0.558789       -15.2054
  43   2.0000      -0.546543       -14.8722
  44   2.0000      -0.539896       -14.6913
  45   2.0000      -0.527958       -14.3665
  46   2.0000      -0.516501       -14.0547
  47   2.0000      -0.508887       -13.8475
  48   2.0000      -0.502577       -13.6758
  49   2.0000      -0.496428       -13.5085
  50   2.0000      -0.487090       -13.2544
  51   2.0000      -0.478810       -13.0291
  52   2.0000      -0.470616       -12.8061
  53   2.0000      -0.466817       -12.7027
  54   2.0000      -0.464525       -12.6404
  55   2.0000      -0.455942       -12.4068
  56   2.0000      -0.440899       -11.9975
  57   2.0000      -0.437996       -11.9185
  58   2.0000      -0.431714       -11.7475
  59   2.0000      -0.421819       -11.4783
  60   2.0000      -0.417229       -11.3534
  61   2.0000      -0.412393       -11.2218
  62   2.0000      -0.409366       -11.1394
  63   2.0000      -0.334955        -9.1146
  64   2.0000      -0.329675        -8.9709
  65   2.0000      -0.322958        -8.7881
  66   2.0000      -0.295853        -8.0506
  67   0.0000       0.036097         0.9822
  68   0.0000       0.055213         1.5024
  69   0.0000       0.111569         3.0360
  70   0.0000       0.119843         3.2611
  71   0.0000       0.130334         3.5466

MULLIKEN ATOMIC CHARGES
-----------------------
   0 S :    0.143989
   1 C :   -0.140874
   2 C :   -0.095797
   3 C :    0.048881
   4 C :   -0.196431
   5 H :    0.002581
   6 C :    0.082008
   7 H :    0.016877
   8 H :    0.024763
   9 C :   -0.067105
  10 H :    0.043700
  11 H :    0.022578
  12 C :   -0.026695
  13 H :    0.037879
  14 H :    0.028374
  15 H :    0.021650
  16 S :    0.130407
  17 C :   -0.094163
  18 C :   -0.033323
  19 C :   -0.011746
  20 C :   -0.193585
  21 H :   -0.000332
  22 C :    0.085250
  23 H :    0.022109
  24 H :    0.034896
  25 C :   -0.098083
  26 H :    0.015663
  27 H :    0.039953
  28 C :   -0.037425
  29 H :    0.030230
  30 H :    0.030469
  31 H :    0.027418
  32 H :    0.049388
  33 H :    0.056496
Sum of atomic charges:    0.0000000

LOEWDIN ATOMIC CHARGES
----------------------
   0 S :    0.437882
   1 C :   -0.209617
   2 C :   -0.064277
   3 C :   -0.059321
   4 C :   -0.224476
   5 H :    0.026238
   6 C :   -0.024946
   7 H :    0.025390
   8 H :    0.029942
   9 C :   -0.032915
  10 H :    0.029650
  11 H :    0.025761
  12 C :   -0.064777
  13 H :    0.025420
  14 H :    0.027013
  15 H :    0.022921
  16 S :    0.421987
  17 C :   -0.199580
  18 C :   -0.072277
  19 C :   -0.047974
  20 C :   -0.201513
  21 H :    0.022474
  22 C :   -0.029745
  23 H :    0.028808
  24 H :    0.035554
  25 C :   -0.045407
  26 H :    0.017307
  27 H :    0.031552
  28 C :   -0.068397
  29 H :    0.025396
  30 H :    0.026495
  31 H :    0.022776
  32 H :    0.029912
  33 H :    0.032744

  Mayer bond orders larger than 0.100000
B(  0-S ,  1-C ) :   1.1587 B(  0-S ,  4-C ) :   1.1682 B(  1-C ,  2-C ) :   1.5727
B(  1-C ,  4-C ) :   0.1068 B(  1-C , 32-H ) :   0.9657 B(  2-C ,  3-C ) :   1.2788
B(  2-C ,  6-C ) :   1.0071 B(  3-C ,  4-C ) :   1.5329 B(  3-C ,  5-H ) :   0.9959
B(  4-C , 20-C ) :   1.0644 B(  6-C ,  7-H ) :   0.9428 B(  6-C ,  8-H ) :   0.9440
B(  6-C ,  9-C ) :   1.0448 B(  9-C , 10-H ) :   0.9627 B(  9-C , 11-H ) :   0.9577
B(  9-C , 12-C ) :   1.0695 B( 12-C , 13-H ) :   0.9783 B( 12-C , 14-H ) :   0.9746
B( 12-C , 15-H ) :   0.9748 B( 16-S , 17-C ) :   1.1694 B( 16-S , 20-C ) :   1.1465
B( 17-C , 18-C ) :   1.5951 B( 17-C , 20-C ) :   0.1074 B( 17-C , 33-H ) :   0.9635
B( 18-C , 19-C ) :   1.2482 B( 18-C , 21-H ) :   0.9964 B( 19-C , 20-C ) :   1.5612
B( 19-C , 22-C ) :   1.0496 B( 22-C , 23-H ) :   0.9407 B( 22-C , 24-H ) :   0.9332
B( 22-C , 25-C ) :   1.0623 B( 25-C , 26-H ) :   0.9554 B( 25-C , 27-H ) :   0.9607
B( 25-C , 28-C ) :   1.0699 B( 28-C , 29-H ) :   0.9753 B( 28-C , 30-H ) :   0.9727
B( 28-C , 31-H ) :   0.9755

Dispersion correction           -0.014826001
FINAL SINGLE POINT ENERGY     -1339.874549978521

DIPOLE MOMENT
-------------
                                X             Y             Z
Electronic contribution:    -13.32148     -13.65002       1.96115
Nuclear contribution   :     13.54210      13.90207      -2.01664
                        -----------------------------------------
Total Dipole Moment    :      0.22061       0.25205      -0.05550
                        -----------------------------------------
Magnitude (a.u.)       :      0.33953
Magnitude (Debye)      :      0.86301

Rotational constants in cm-1:     0.021573     0.007486     0.007057
Rotational constants in MHz :   646.734914   224.423785   211.577246

                             ****ORCA TERMINATED NORMALLY****
TOTAL RUN TIME: 0 days 0 hours 0 minutes 28 seconds 251 msec
