                         Program Version 4.2.1 -  RELEASE  -
|  1> ! wB97X-D3 SP def2-SVP
|  2> %pal
|  3> nprocs 16
|  4> end
|  5>
|  6> * xyz 0 1
|  7> S 	 22.2429 	 1.42286 	 87.2443
|  8> C 	 23.919 	 1.88732 	 86.8474
|  9> C 	 24.0966 	 2.35751 	 85.5397
| 10> C 	 22.9181 	 2.10672 	 84.773
| 11> C 	 21.8807 	 1.5599 	 85.5069
| 12> H 	 22.709 	 2.30925 	 83.7053
| 13> C 	 25.398 	 3.07364 	 85.09
| 14> H 	 25.4855 	 3.20694 	 84.0026
| 15> H 	 26.0714 	 2.28934 	 85.3401
| 16> C 	 25.8319 	 4.33826 	 85.8168
| 17> H 	 25.0862 	 5.16905 	 85.6266
| 18> H 	 25.763 	 4.2446 	 86.9322
| 19> C 	 27.2418 	 4.85036 	 85.4647
| 20> H 	 27.556 	 5.60147 	 86.2425
| 21> H 	 28.0103 	 4.03682 	 85.4727
| 22> H 	 27.2847 	 5.36509 	 84.4717
| 23> S 	 19.6905 	 0.00432181 	 86.0764
| 24> C 	 18.3442 	 -0.346484 	 84.9769
| 25> C 	 18.6439 	 0.27904 	 83.8091
| 26> C 	 19.8649 	 1.06224 	 83.8127
| 27> C 	 20.6166 	 1.02004 	 85.0112
| 28> H 	 17.9339 	 0.199614 	 83.0198
| 29> C 	 20.1734 	 2.04224 	 82.6538
| 30> H 	 20.6974 	 1.60022 	 81.8616
| 31> H 	 20.9449 	 2.83415 	 82.8906
| 32> C 	 19.064 	 2.77602 	 82
| 33> H 	 18.6377 	 3.49458 	 82.6335
| 34> H 	 18.3188 	 2.11999 	 81.7832
| 35> C 	 19.4431 	 3.60244 	 80.8055
| 36> H 	 20.0595 	 3.09747 	 80.0479
| 37> H 	 19.8161 	 4.56986 	 81.1124
| 38> H 	 18.5285 	 3.73145 	 80.3033
| 39> H 	 24.6981 	 1.9092 	 87.5999
| 40> H 	 17.5021 	 -0.970675 	 85.2044
| 41> *
| 42>
| 43>                          ****END OF INPUT****

CARTESIAN COORDINATES (ANGSTROEM)
---------------------------------
  S     22.242900    1.422860   87.244300
  C     23.919000    1.887320   86.847400
  C     24.096600    2.357510   85.539700
  C     22.918100    2.106720   84.773000
  C     21.880700    1.559900   85.506900
  H     22.709000    2.309250   83.705300
  C     25.398000    3.073640   85.090000
  H     25.485500    3.206940   84.002600
  H     26.071400    2.289340   85.340100
  C     25.831900    4.338260   85.816800
  H     25.086200    5.169050   85.626600
  H     25.763000    4.244600   86.932200
  C     27.241800    4.850360   85.464700
  H     27.556000    5.601470   86.242500
  H     28.010300    4.036820   85.472700
  H     27.284700    5.365090   84.471700
  S     19.690500    0.004322   86.076400
  C     18.344200   -0.346484   84.976900
  C     18.643900    0.279040   83.809100
  C     19.864900    1.062240   83.812700
  C     20.616600    1.020040   85.011200
  H     17.933900    0.199614   83.019800
  C     20.173400    2.042240   82.653800
  H     20.697400    1.600220   81.861600
  H     20.944900    2.834150   82.890600
  C     19.064000    2.776020   82.000000
  H     18.637700    3.494580   82.633500
  H     18.318800    2.119990   81.783200
  C     19.443100    3.602440   80.805500
  H     20.059500    3.097470   80.047900
  H     19.816100    4.569860   81.112400
  H     18.528500    3.731450   80.303300
  H     24.698100    1.909200   87.599900
  H     17.502100   -0.970675   85.204400

 Total Charge           Charge          ....    0
 Multiplicity           Mult            ....    1
 Number of Electrons    NEL             ....  134
 Basis Dimension        Dim             ....  322

ORBITAL ENERGIES
----------------

  NO   OCC          E(Eh)            E(eV)
   0   2.0000     -88.971391     -2421.0346
   1   2.0000     -88.958299     -2420.6784
   2   2.0000     -10.336366      -281.2668
   3   2.0000     -10.333972      -281.2017
   4   2.0000     -10.319563      -280.8096
   5   2.0000     -10.318872      -280.7908
   6   2.0000     -10.311737      -280.5966
   7   2.0000     -10.310491      -280.5627
   8   2.0000     -10.300508      -280.2911
   9   2.0000     -10.297203      -280.2011
  10   2.0000     -10.297116      -280.1988
  11   2.0000     -10.294923      -280.1391
  12   2.0000     -10.291698      -280.0513
  13   2.0000     -10.285208      -279.8747
  14   2.0000     -10.272166      -279.5198
  15   2.0000     -10.265725      -279.3446
  16   2.0000      -8.084990      -220.0038
  17   2.0000      -8.073300      -219.6857
  18   2.0000      -6.043574      -164.4540
  19   2.0000      -6.039947      -164.3553
  20   2.0000      -6.035433      -164.2325
  21   2.0000      -6.031914      -164.1367
  22   2.0000      -6.027591      -164.0191
  23   2.0000      -6.024070      -163.9233
  24   2.0000      -1.004328       -27.3292
  25   2.0000      -0.980271       -26.6745
  26   2.0000      -0.919953       -25.0332
  27   2.0000      -0.910130       -24.7659
  28   2.0000      -0.871540       -23.7158
  29   2.0000      -0.853100       -23.2140
  30   2.0000      -0.841255       -22.8917
  31   2.0000      -0.819699       -22.3051
  32   2.0000      -0.782325       -21.2882
  33   2.0000      -0.773745       -21.0547
  34   2.0000      -0.707047       -19.2397
  35   2.0000      -0.702540       -19.1171
  36   2.0000      -0.698073       -18.9955
  37   2.0000      -0.660024       -17.9602
  38   2.0000      -0.638646       -17.3784
  39   2.0000      -0.619026       -16.8445
  40   2.0000      -0.603291       -16.4164
  41   2.0000      -0.577651       -15.7187
  42   2.0000      -0.573701       -15.6112
  43   2.0000      -0.557251       -15.1636
  44   2.0000      -0.529304       -14.4031
  45   2.0000      -0.522584       -14.2202
  46   2.0000      -0.520202       -14.1554
  47   2.0000      -0.514694       -14.0055
  48   2.0000      -0.503134       -13.6910
  49   2.0000      -0.501744       -13.6531
  50   2.0000      -0.488554       -13.2942
  51   2.0000      -0.482083       -13.1181
  52   2.0000      -0.478093       -13.0096
  53   2.0000      -0.468074       -12.7369
  54   2.0000      -0.457377       -12.4459
  55   2.0000      -0.452019       -12.3001
  56   2.0000      -0.447558       -12.1787
  57   2.0000      -0.438881       -11.9425
  58   2.0000      -0.430650       -11.7186
  59   2.0000      -0.430471       -11.7137
  60   2.0000      -0.415452       -11.3050
  61   2.0000      -0.413259       -11.2453
  62   2.0000      -0.399532       -10.8718
  63   2.0000      -0.362673        -9.8688
  64   2.0000      -0.336705        -9.1622
  65   2.0000      -0.322780        -8.7833
  66   2.0000      -0.281127        -7.6499
  67   0.0000       0.013915         0.3786
  68   0.0000       0.085205         2.3186
  69   0.0000       0.089049         2.4231
  70   0.0000       0.123482         3.3601
  71   0.0000       0.139248         3.7891

MULLIKEN ATOMIC CHARGES
-----------------------
   0 S :    0.114227
   1 C :   -0.132716
   2 C :   -0.060930
   3 C :   -0.020694
   4 C :   -0.110361
   5 H :    0.021993
   6 C :    0.088823
   7 H :    0.027366
   8 H :    0.026825
   9 C :   -0.094003
  10 H :    0.038751
  11 H :    0.030386
  12 C :   -0.085753
  13 H :    0.046393
  14 H :    0.037419
  15 H :    0.045773
  16 S :    0.053765
  17 C :   -0.083189
  18 C :   -0.022849
  19 C :   -0.028760
  20 C :   -0.100945
  21 H :    0.013673
  22 C :    0.039726
  23 H :    0.004418
  24 H :    0.020277
  25 C :   -0.026229
  26 H :    0.012986
  27 H :   -0.005978
  28 C :   -0.036776
  29 H :    0.026196
  30 H :    0.038361
  31 H :    0.015019
  32 H :    0.046344
  33 H :    0.060462
Sum of atomic charges:    0.0000000

LOEWDIN ATOMIC CHARGES
----------------------
   0 S :    0.382390
   1 C :   -0.180417
   2 C :   -0.053190
   3 C :   -0.065331
   4 C :   -0.174967
   5 H :    0.037456
   6 C :   -0.034525
   7 H :    0.032582
   8 H :    0.032976
   9 C :   -0.052007
  10 H :    0.030958
  11 H :    0.026306
  12 C :   -0.075638
  13 H :    0.034968
  14 H :    0.026659
  15 H :    0.029166
  16 S :    0.388655
  17 C :   -0.172414
  18 C :   -0.071406
  19 C :   -0.062502
  20 C :   -0.189863
  21 H :    0.026729
  22 C :   -0.039991
  23 H :    0.019856
  24 H :    0.032159
  25 C :   -0.035013
  26 H :    0.023236
  27 H :    0.006404
  28 C :   -0.054770
  29 H :    0.024144
  30 H :    0.026183
  31 H :    0.025736
  32 H :    0.022242
  33 H :    0.033231

  Mayer bond orders larger than 0.100000
B(  0-S ,  1-C ) :   1.1311 B(  0-S ,  4-C ) :   1.1258 B(  1-C ,  2-C ) :   1.6139
B(  1-C , 32-H ) :   0.9685 B(  2-C ,  3-C ) :   1.2290 B(  2-C ,  6-C ) :   0.9976
B(  3-C ,  4-C ) :   1.5895 B(  3-C ,  5-H ) :   0.9816 B(  4-C , 20-C ) :   1.0881
B(  6-C ,  7-H ) :   0.9480 B(  6-C ,  8-H ) :   0.9318 B(  6-C ,  9-C ) :   1.0643
B(  9-C , 10-H ) :   0.9532 B(  9-C , 11-H ) :   0.9555 B(  9-C , 12-C ) :   1.0750
B( 12-C , 13-H ) :   0.9748 B( 12-C , 14-H ) :   0.9758 B( 12-C , 15-H ) :   0.9754
B( 16-S , 17-C ) :   1.1458 B( 16-S , 20-C ) :   1.1368 B( 17-C , 18-C ) :   1.5992
B( 17-C , 33-H ) :   0.9744 B( 18-C , 19-C ) :   1.2516 B( 18-C , 21-H ) :   0.9932
B( 19-C , 20-C ) :   1.5600 B( 19-C , 22-C ) :   1.0180 B( 22-C , 23-H ) :   0.9282
B( 22-C , 24-H ) :   0.9392 B( 22-C , 25-C ) :   1.0816 B( 25-C , 26-H ) :   0.9440
B( 25-C , 27-H ) :   0.9460 B( 25-C , 28-C ) :   1.0962 B( 28-C , 29-H ) :   0.9716
B( 28-C , 30-H ) :   0.9775 B( 28-C , 31-H ) :   0.9685

Dispersion correction           -0.012869932
FINAL SINGLE POINT ENERGY     -1339.854897378031

DIPOLE MOMENT
-------------
                                X             Y             Z
Electronic contribution:    -12.73124     -19.49701      19.26530
Nuclear contribution   :     12.89124      19.88315     -19.81190
                        -----------------------------------------
Total Dipole Moment    :      0.15999       0.38614      -0.54660
                        -----------------------------------------
Magnitude (a.u.)       :      0.68809
Magnitude (Debye)      :      1.74899

Rotational constants in cm-1:     0.018589     0.007588     0.005542
Rotational constants in MHz :   557.294077   227.490697   166.158727

                             ****ORCA TERMINATED NORMALLY****
TOTAL RUN TIME: 0 days 0 hours 0 minutes 33 seconds 626 msec
