                         Program Version 4.2.1 -  RELEASE  -
|  1> ! wB97X-D3 SP def2-SVP
|  2> %pal
|  3> nprocs 16
|  4> end
|  5>
|  6> * xyz 0 1
|  7> S 	 -112.208 	 50.4735 	 127.327
|  8> C 	 -112.145 	 51.9208 	 128.225
|  9> C 	 -112.095 	 51.6103 	 129.584
| 10> C 	 -112.214 	 50.2384 	 129.82
| 11> C 	 -112.389 	 49.4052 	 128.727
| 12> H 	 -112.157 	 49.6973 	 130.755
| 13> C 	 -111.795 	 52.5295 	 130.702
| 14> H 	 -112.368 	 52.2324 	 131.656
| 15> H 	 -112.121 	 53.5444 	 130.393
| 16> C 	 -110.3 	 52.6542 	 131.088
| 17> H 	 -109.846 	 51.6173 	 131.313
| 18> H 	 -109.71 	 52.9877 	 130.19
| 19> C 	 -110.035 	 53.6581 	 132.259
| 20> H 	 -109.012 	 53.7208 	 132.584
| 21> H 	 -110.238 	 54.6609 	 131.877
| 22> H 	 -110.624 	 53.3262 	 133.117
| 23> S 	 -111.304 	 47.3113 	 127.565
| 24> C 	 -111.82 	 45.6803 	 127.969
| 25> C 	 -112.691 	 45.7182 	 129.046
| 26> C 	 -113.195 	 47.0195 	 129.341
| 27> C 	 -112.515 	 47.9702 	 128.62
| 28> H 	 -113.012 	 44.7305 	 129.421
| 29> C 	 -114.32 	 47.3197 	 130.405
| 30> H 	 -115.381 	 47.0934 	 130.103
| 31> H 	 -114.22 	 48.3845 	 130.605
| 32> C 	 -114.146 	 46.5102 	 131.686
| 33> H 	 -113.154 	 46.6125 	 132.031
| 34> H 	 -114.281 	 45.4731 	 131.499
| 35> C 	 -115.144 	 46.7538 	 132.855
| 36> H 	 -116.125 	 46.3913 	 132.646
| 37> H 	 -115.378 	 47.7825 	 133.048
| 38> H 	 -114.884 	 46.3291 	 133.782
| 39> H 	 -112.043 	 52.8614 	 127.745
| 40> H 	 -111.332 	 44.736 	 127.79
| 41> *
| 42>
| 43>                          ****END OF INPUT****

CARTESIAN COORDINATES (ANGSTROEM)
---------------------------------
  S    -112.208000   50.473500  127.327000
  C    -112.145000   51.920800  128.225000
  C    -112.095000   51.610300  129.584000
  C    -112.214000   50.238400  129.820000
  C    -112.389000   49.405200  128.727000
  H    -112.157000   49.697300  130.755000
  C    -111.795000   52.529500  130.702000
  H    -112.368000   52.232400  131.656000
  H    -112.121000   53.544400  130.393000
  C    -110.300000   52.654200  131.088000
  H    -109.846000   51.617300  131.313000
  H    -109.710000   52.987700  130.190000
  C    -110.035000   53.658100  132.259000
  H    -109.012000   53.720800  132.584000
  H    -110.238000   54.660900  131.877000
  H    -110.624000   53.326200  133.117000
  S    -111.304000   47.311300  127.565000
  C    -111.820000   45.680300  127.969000
  C    -112.691000   45.718200  129.046000
  C    -113.195000   47.019500  129.341000
  C    -112.515000   47.970200  128.620000
  H    -113.012000   44.730500  129.421000
  C    -114.320000   47.319700  130.405000
  H    -115.381000   47.093400  130.103000
  H    -114.220000   48.384500  130.605000
  C    -114.146000   46.510200  131.686000
  H    -113.154000   46.612500  132.031000
  H    -114.281000   45.473100  131.499000
  C    -115.144000   46.753800  132.855000
  H    -116.125000   46.391300  132.646000
  H    -115.378000   47.782500  133.048000
  H    -114.884000   46.329100  133.782000
  H    -112.043000   52.861400  127.745000
  H    -111.332000   44.736000  127.790000

 Total Charge           Charge          ....    0
 Multiplicity           Mult            ....    1
 Number of Electrons    NEL             ....  134
 Basis Dimension        Dim             ....  322

ORBITAL ENERGIES
----------------

  NO   OCC          E(Eh)            E(eV)
   0   2.0000     -88.968590     -2420.9584
   1   2.0000     -88.963028     -2420.8071
   2   2.0000     -10.329685      -281.0850
   3   2.0000     -10.329133      -281.0700
   4   2.0000     -10.316428      -280.7243
   5   2.0000     -10.314601      -280.6746
   6   2.0000     -10.310872      -280.5731
   7   2.0000     -10.301148      -280.3085
   8   2.0000     -10.299450      -280.2623
   9   2.0000     -10.298698      -280.2418
  10   2.0000     -10.298120      -280.2261
  11   2.0000     -10.297324      -280.2044
  12   2.0000     -10.290461      -280.0177
  13   2.0000     -10.281821      -279.7826
  14   2.0000     -10.280864      -279.7565
  15   2.0000     -10.271538      -279.5028
  16   2.0000      -8.083467      -219.9623
  17   2.0000      -8.078446      -219.8257
  18   2.0000      -6.042040      -164.4123
  19   2.0000      -6.037971      -164.3016
  20   2.0000      -6.036842      -164.2708
  21   2.0000      -6.034094      -164.1961
  22   2.0000      -6.032663      -164.1571
  23   2.0000      -6.029450      -164.0697
  24   2.0000      -1.014203       -27.5979
  25   2.0000      -0.990767       -26.9602
  26   2.0000      -0.909110       -24.7381
  27   2.0000      -0.906371       -24.6636
  28   2.0000      -0.874548       -23.7977
  29   2.0000      -0.853384       -23.2217
  30   2.0000      -0.846297       -23.0289
  31   2.0000      -0.818625       -22.2759
  32   2.0000      -0.785992       -21.3879
  33   2.0000      -0.771895       -21.0043
  34   2.0000      -0.709625       -19.3099
  35   2.0000      -0.703624       -19.1466
  36   2.0000      -0.693657       -18.8754
  37   2.0000      -0.660476       -17.9725
  38   2.0000      -0.648255       -17.6399
  39   2.0000      -0.622090       -16.9279
  40   2.0000      -0.594167       -16.1681
  41   2.0000      -0.570889       -15.5347
  42   2.0000      -0.568900       -15.4806
  43   2.0000      -0.555972       -15.1288
  44   2.0000      -0.527351       -14.3500
  45   2.0000      -0.523725       -14.2513
  46   2.0000      -0.516770       -14.0620
  47   2.0000      -0.511921       -13.9301
  48   2.0000      -0.508449       -13.8356
  49   2.0000      -0.501804       -13.6548
  50   2.0000      -0.493701       -13.4343
  51   2.0000      -0.482443       -13.1279
  52   2.0000      -0.475171       -12.9301
  53   2.0000      -0.466421       -12.6919
  54   2.0000      -0.461281       -12.5521
  55   2.0000      -0.448683       -12.2093
  56   2.0000      -0.444688       -12.1006
  57   2.0000      -0.436382       -11.8746
  58   2.0000      -0.429474       -11.6866
  59   2.0000      -0.425904       -11.5894
  60   2.0000      -0.419108       -11.4045
  61   2.0000      -0.417835       -11.3699
  62   2.0000      -0.412277       -11.2186
  63   2.0000      -0.354223        -9.6389
  64   2.0000      -0.335034        -9.1167
  65   2.0000      -0.328516        -8.9394
  66   2.0000      -0.291050        -7.9199
  67   0.0000       0.025879         0.7042
  68   0.0000       0.066356         1.8056
  69   0.0000       0.105047         2.8585
  70   0.0000       0.123966         3.3733
  71   0.0000       0.129946         3.5360

MULLIKEN ATOMIC CHARGES
-----------------------
   0 S :    0.101969
   1 C :   -0.104294
   2 C :   -0.052044
   3 C :    0.035474
   4 C :   -0.183090
   5 H :    0.007674
   6 C :    0.035440
   7 H :    0.039059
   8 H :    0.020742
   9 C :   -0.121416
  10 H :    0.037930
  11 H :    0.030969
  12 C :   -0.026711
  13 H :    0.031812
  14 H :    0.032627
  15 H :    0.035823
  16 S :    0.107892
  17 C :   -0.069535
  18 C :   -0.087696
  19 C :   -0.027077
  20 C :   -0.132043
  21 H :    0.033823
  22 C :    0.095039
  23 H :    0.045459
  24 H :    0.019812
  25 C :   -0.092986
  26 H :    0.020022
  27 H :    0.026082
  28 C :   -0.007511
  29 H :    0.010432
  30 H :    0.011815
  31 H :    0.024444
  32 H :    0.044239
  33 H :    0.055825
Sum of atomic charges:   -0.0000000

LOEWDIN ATOMIC CHARGES
----------------------
   0 S :    0.418887
   1 C :   -0.197770
   2 C :   -0.074479
   3 C :   -0.065320
   4 C :   -0.197064
   5 H :    0.030124
   6 C :   -0.040351
   7 H :    0.037549
   8 H :    0.030557
   9 C :   -0.049332
  10 H :    0.027068
  11 H :    0.024823
  12 C :   -0.065395
  13 H :    0.025335
  14 H :    0.026746
  15 H :    0.026304
  16 S :    0.416826
  17 C :   -0.190450
  18 C :   -0.069508
  19 C :   -0.057263
  20 C :   -0.194480
  21 H :    0.035621
  22 C :   -0.023562
  23 H :    0.038716
  24 H :    0.026889
  25 C :   -0.039015
  26 H :    0.016860
  27 H :    0.020562
  28 C :   -0.060155
  29 H :    0.021027
  30 H :    0.020913
  31 H :    0.022915
  32 H :    0.024910
  33 H :    0.031511

  Mayer bond orders larger than 0.100000
B(  0-S ,  1-C ) :   1.1718 B(  0-S ,  4-C ) :   1.1588 B(  1-C ,  2-C ) :   1.5316
B(  1-C ,  4-C ) :   0.1117 B(  1-C , 32-H ) :   0.9819 B(  2-C ,  3-C ) :   1.2796
B(  2-C ,  6-C ) :   1.0450 B(  3-C ,  4-C ) :   1.5426 B(  3-C ,  5-H ) :   0.9931
B(  4-C , 20-C ) :   1.0298 B(  6-C ,  7-H ) :   0.9389 B(  6-C ,  8-H ) :   0.9354
B(  6-C ,  9-C ) :   1.0552 B(  9-C , 10-H ) :   0.9575 B(  9-C , 11-H ) :   0.9549
B(  9-C , 12-C ) :   1.0719 B( 12-C , 13-H ) :   0.9748 B( 12-C , 14-H ) :   0.9757
B( 12-C , 15-H ) :   0.9759 B( 16-S , 17-C ) :   1.1368 B( 16-S , 20-C ) :   1.1594
B( 17-C , 18-C ) :   1.6500 B( 17-C , 33-H ) :   0.9617 B( 18-C , 19-C ) :   1.2202
B( 18-C , 21-H ) :   0.9799 B( 19-C , 20-C ) :   1.6106 B( 19-C , 22-C ) :   1.0230
B( 22-C , 23-H ) :   0.9401 B( 22-C , 24-H ) :   0.9353 B( 22-C , 25-C ) :   1.0653
B( 25-C , 26-H ) :   0.9617 B( 25-C , 27-H ) :   0.9505 B( 25-C , 28-C ) :   1.0816
B( 28-C , 29-H ) :   0.9710 B( 28-C , 30-H ) :   0.9745 B( 28-C , 31-H ) :   0.9750

Dispersion correction           -0.013385639
FINAL SINGLE POINT ENERGY     -1339.869873084055

DIPOLE MOMENT
-------------
                                X             Y             Z
Electronic contribution:      4.21320      -6.95282     -28.10008
Nuclear contribution   :     -4.17851       6.91982      28.78131
                        -----------------------------------------
Total Dipole Moment    :      0.03469      -0.03300       0.68123
                        -----------------------------------------
Magnitude (a.u.)       :      0.68291
Magnitude (Debye)      :      1.73581

Rotational constants in cm-1:     0.016440     0.008392     0.006339
Rotational constants in MHz :   492.845977   251.575021   190.032304

                             ****ORCA TERMINATED NORMALLY****
TOTAL RUN TIME: 0 days 0 hours 0 minutes 33 seconds 318 msec
