                         Program Version 4.2.1 -  RELEASE  -
|  1> ! wB97X-D3 SP def2-SVP
|  2> %pal
|  3> nprocs 16
|  4> end
|  5>
|  6> * xyz 0 1
|  7> S 	 3.39239 	 -11.378 	 54.2985
|  8> C 	 2.73471 	 -11.9114 	 52.7255
|  9> C 	 2.30448 	 -13.266 	 52.8111
| 10> C 	 2.44655 	 -13.8117 	 54.138
| 11> C 	 2.97175 	 -12.9541 	 55.0101
| 12> H 	 2.20462 	 -14.8007 	 54.3906
| 13> C 	 1.76869 	 -14.0597 	 51.6218
| 14> H 	 2.53071 	 -14.7134 	 51.181
| 15> H 	 1.59116 	 -13.2972 	 50.8586
| 16> C 	 0.4526 	 -14.8189 	 51.9023
| 17> H 	 0.259212 	 -15.5844 	 51.1139
| 18> H 	 0.456777 	 -15.2738 	 52.863
| 19> C 	 -0.737103 	 -13.8414 	 51.9085
| 20> H 	 -0.871212 	 -13.5664 	 50.8775
| 21> H 	 -1.61053 	 -14.3433 	 52.3591
| 22> H 	 -0.451499 	 -12.9162 	 52.4006
| 23> S 	 3.95031 	 -11.9458 	 57.2387
| 24> C 	 4.24823 	 -12.8128 	 58.7178
| 25> C 	 3.54637 	 -13.9949 	 58.5888
| 26> C 	 3.04708 	 -14.2983 	 57.2842
| 27> C 	 3.21162 	 -13.2451 	 56.4027
| 28> H 	 3.49152 	 -14.7011 	 59.4177
| 29> C 	 2.24332 	 -15.6075 	 57.0572
| 30> H 	 2.42412 	 -16.3708 	 57.8201
| 31> H 	 2.48443 	 -16.048 	 56.0674
| 32> C 	 0.739965 	 -15.2271 	 57.004
| 33> H 	 0.494569 	 -14.2751 	 56.4633
| 34> H 	 0.375897 	 -14.7971 	 57.9835
| 35> C 	 -0.160168 	 -16.372 	 56.6616
| 36> H 	 -1.20519 	 -16.1934 	 56.8756
| 37> H 	 0.0473282 	 -17.2554 	 57.3118
| 38> H 	 -0.0583395 	 -16.5663 	 55.6023
| 39> H 	 2.64982 	 -11.2691 	 51.8446
| 40> H 	 4.73664 	 -12.4848 	 59.6179
| 41> *
| 42>
| 43>                          ****END OF INPUT****

CARTESIAN COORDINATES (ANGSTROEM)
---------------------------------
  S      3.392390  -11.378000   54.298500
  C      2.734710  -11.911400   52.725500
  C      2.304480  -13.266000   52.811100
  C      2.446550  -13.811700   54.138000
  C      2.971750  -12.954100   55.010100
  H      2.204620  -14.800700   54.390600
  C      1.768690  -14.059700   51.621800
  H      2.530710  -14.713400   51.181000
  H      1.591160  -13.297200   50.858600
  C      0.452600  -14.818900   51.902300
  H      0.259212  -15.584400   51.113900
  H      0.456777  -15.273800   52.863000
  C     -0.737103  -13.841400   51.908500
  H     -0.871212  -13.566400   50.877500
  H     -1.610530  -14.343300   52.359100
  H     -0.451499  -12.916200   52.400600
  S      3.950310  -11.945800   57.238700
  C      4.248230  -12.812800   58.717800
  C      3.546370  -13.994900   58.588800
  C      3.047080  -14.298300   57.284200
  C      3.211620  -13.245100   56.402700
  H      3.491520  -14.701100   59.417700
  C      2.243320  -15.607500   57.057200
  H      2.424120  -16.370800   57.820100
  H      2.484430  -16.048000   56.067400
  C      0.739965  -15.227100   57.004000
  H      0.494569  -14.275100   56.463300
  H      0.375897  -14.797100   57.983500
  C     -0.160168  -16.372000   56.661600
  H     -1.205190  -16.193400   56.875600
  H      0.047328  -17.255400   57.311800
  H     -0.058340  -16.566300   55.602300
  H      2.649820  -11.269100   51.844600
  H      4.736640  -12.484800   59.617900

 Total Charge           Charge          ....    0
 Multiplicity           Mult            ....    1
 Number of Electrons    NEL             ....  134
 Basis Dimension        Dim             ....  322

ORBITAL ENERGIES
----------------

  NO   OCC          E(Eh)            E(eV)
   0   2.0000     -88.968922     -2420.9675
   1   2.0000     -88.961470     -2420.7647
   2   2.0000     -10.330445      -281.1057
   3   2.0000     -10.325933      -280.9829
   4   2.0000     -10.323810      -280.9252
   5   2.0000     -10.317423      -280.7514
   6   2.0000     -10.309389      -280.5327
   7   2.0000     -10.306904      -280.4651
   8   2.0000     -10.304320      -280.3948
   9   2.0000     -10.295182      -280.1461
  10   2.0000     -10.294493      -280.1274
  11   2.0000     -10.289598      -279.9942
  12   2.0000     -10.288502      -279.9644
  13   2.0000     -10.287152      -279.9276
  14   2.0000     -10.278300      -279.6868
  15   2.0000     -10.273777      -279.5637
  16   2.0000      -8.082468      -219.9351
  17   2.0000      -8.077428      -219.7980
  18   2.0000      -6.041331      -164.3930
  19   2.0000      -6.037237      -164.2816
  20   2.0000      -6.036019      -164.2484
  21   2.0000      -6.032816      -164.1613
  22   2.0000      -6.031636      -164.1292
  23   2.0000      -6.028146      -164.0342
  24   2.0000      -1.014796       -27.6140
  25   2.0000      -0.983397       -26.7596
  26   2.0000      -0.912698       -24.8358
  27   2.0000      -0.909678       -24.7536
  28   2.0000      -0.873150       -23.7596
  29   2.0000      -0.855402       -23.2767
  30   2.0000      -0.842749       -22.9324
  31   2.0000      -0.819919       -22.3111
  32   2.0000      -0.778910       -21.1952
  33   2.0000      -0.770575       -20.9684
  34   2.0000      -0.710550       -19.3350
  35   2.0000      -0.696861       -18.9625
  36   2.0000      -0.692095       -18.8329
  37   2.0000      -0.667719       -18.1696
  38   2.0000      -0.640324       -17.4241
  39   2.0000      -0.631641       -17.1878
  40   2.0000      -0.599000       -16.2996
  41   2.0000      -0.566514       -15.4156
  42   2.0000      -0.561774       -15.2866
  43   2.0000      -0.553006       -15.0480
  44   2.0000      -0.537818       -14.6348
  45   2.0000      -0.525458       -14.2984
  46   2.0000      -0.522204       -14.2099
  47   2.0000      -0.520846       -14.1730
  48   2.0000      -0.510282       -13.8855
  49   2.0000      -0.504180       -13.7194
  50   2.0000      -0.493602       -13.4316
  51   2.0000      -0.486198       -13.2301
  52   2.0000      -0.474694       -12.9171
  53   2.0000      -0.462471       -12.5845
  54   2.0000      -0.456911       -12.4332
  55   2.0000      -0.451758       -12.2930
  56   2.0000      -0.442426       -12.0390
  57   2.0000      -0.438596       -11.9348
  58   2.0000      -0.435988       -11.8638
  59   2.0000      -0.425814       -11.5870
  60   2.0000      -0.420011       -11.4291
  61   2.0000      -0.406164       -11.0523
  62   2.0000      -0.403904       -10.9908
  63   2.0000      -0.365626        -9.9492
  64   2.0000      -0.337413        -9.1815
  65   2.0000      -0.323410        -8.8004
  66   2.0000      -0.283711        -7.7202
  67   0.0000       0.017506         0.4764
  68   0.0000       0.086553         2.3552
  69   0.0000       0.091371         2.4863
  70   0.0000       0.119524         3.2524
  71   0.0000       0.123001         3.3470

MULLIKEN ATOMIC CHARGES
-----------------------
   0 S :    0.102213
   1 C :   -0.125343
   2 C :   -0.097411
   3 C :   -0.027410
   4 C :   -0.021471
   5 H :   -0.028383
   6 C :    0.071004
   7 H :    0.048316
   8 H :    0.006583
   9 C :   -0.086840
  10 H :    0.037331
  11 H :    0.025632
  12 C :   -0.047411
  13 H :    0.019719
  14 H :    0.044134
  15 H :    0.035282
  16 S :    0.069443
  17 C :   -0.067763
  18 C :   -0.042995
  19 C :   -0.070305
  20 C :   -0.112925
  21 H :    0.017346
  22 C :    0.062540
  23 H :    0.029235
  24 H :    0.035242
  25 C :   -0.127335
  26 H :    0.042579
  27 H :    0.016398
  28 C :   -0.014386
  29 H :    0.029318
  30 H :    0.031304
  31 H :    0.030145
  32 H :    0.058641
  33 H :    0.057574
Sum of atomic charges:   -0.0000000

LOEWDIN ATOMIC CHARGES
----------------------
   0 S :    0.371029
   1 C :   -0.191607
   2 C :   -0.051544
   3 C :   -0.062386
   4 C :   -0.170904
   5 H :    0.021639
   6 C :   -0.033423
   7 H :    0.034954
   8 H :    0.027930
   9 C :   -0.040884
  10 H :    0.028546
  11 H :    0.013992
  12 C :   -0.061068
  13 H :    0.020493
  14 H :    0.029212
  15 H :    0.024914
  16 S :    0.421913
  17 C :   -0.189619
  18 C :   -0.072573
  19 C :   -0.062374
  20 C :   -0.195854
  21 H :    0.028924
  22 C :   -0.024523
  23 H :    0.031664
  24 H :    0.027924
  25 C :   -0.061945
  26 H :    0.032899
  27 H :    0.027300
  28 C :   -0.068837
  29 H :    0.027082
  30 H :    0.030539
  31 H :    0.021077
  32 H :    0.031773
  33 H :    0.033738

  Mayer bond orders larger than 0.100000
B(  0-S ,  1-C ) :   1.1105 B(  0-S ,  4-C ) :   1.1113 B(  1-C ,  2-C ) :   1.6222
B(  1-C , 32-H ) :   0.9657 B(  2-C ,  3-C ) :   1.2029 B(  2-C ,  6-C ) :   1.0264
B(  3-C ,  4-C ) :   1.6126 B(  3-C ,  5-H ) :   1.0057 B(  4-C , 20-C ) :   1.0886
B(  6-C ,  7-H ) :   0.9373 B(  6-C ,  8-H ) :   0.9416 B(  6-C ,  9-C ) :   1.0596
B(  9-C , 10-H ) :   0.9571 B(  9-C , 11-H ) :   0.9632 B(  9-C , 12-C ) :   1.0682
B( 12-C , 13-H ) :   0.9754 B( 12-C , 14-H ) :   0.9748 B( 12-C , 15-H ) :   0.9790
B( 16-S , 17-C ) :   1.1563 B( 16-S , 20-C ) :   1.1471 B( 17-C , 18-C ) :   1.5780
B( 17-C , 20-C ) :   0.1019 B( 17-C , 33-H ) :   0.9752 B( 18-C , 19-C ) :   1.2834
B( 18-C , 21-H ) :   0.9828 B( 19-C , 20-C ) :   1.5474 B( 19-C , 22-C ) :   1.0417
B( 22-C , 23-H ) :   0.9341 B( 22-C , 24-H ) :   0.9413 B( 22-C , 25-C ) :   1.0439
B( 25-C , 26-H ) :   0.9570 B( 25-C , 27-H ) :   0.9466 B( 25-C , 28-C ) :   1.0844
B( 28-C , 29-H ) :   0.9699 B( 28-C , 30-H ) :   0.9687 B( 28-C , 31-H ) :   0.9732

Dispersion correction           -0.014941503
FINAL SINGLE POINT ENERGY     -1339.876930740797

DIPOLE MOMENT
-------------
                                X             Y             Z
Electronic contribution:     21.90040      20.29136       9.11366
Nuclear contribution   :    -22.27787     -20.87489      -9.14656
                        -----------------------------------------
Total Dipole Moment    :     -0.37747      -0.58353      -0.03290
                        -----------------------------------------
Magnitude (a.u.)       :      0.69575
Magnitude (Debye)      :      1.76846

Rotational constants in cm-1:     0.018104     0.010472     0.007074
Rotational constants in MHz :   542.739362   313.944025   212.075306

                             ****ORCA TERMINATED NORMALLY****
TOTAL RUN TIME: 0 days 0 hours 0 minutes 32 seconds 239 msec
