                         Program Version 4.2.1 -  RELEASE  -
|  1> ! wB97X-D3 SP def2-SVP
|  2> %pal
|  3> nprocs 16
|  4> end
|  5>
|  6> * xyz 0 1
|  7> S 	 -24.4697 	 49.0801 	 66.26
|  8> C 	 -23.7944 	 48.1355 	 64.9073
|  9> C 	 -23.2538 	 46.9603 	 65.4222
| 10> C 	 -23.3396 	 46.8802 	 66.8468
| 11> C 	 -23.807 	 47.9796 	 67.5202
| 12> H 	 -23.0628 	 45.9841 	 67.4271
| 13> C 	 -22.7018 	 45.8834 	 64.5854
| 14> H 	 -21.7097 	 45.6281 	 64.7658
| 15> H 	 -22.7376 	 46.1767 	 63.524
| 16> C 	 -23.4934 	 44.5954 	 64.6107
| 17> H 	 -23.1122 	 43.9535 	 63.7847
| 18> H 	 -23.4381 	 44.1039 	 65.5961
| 19> C 	 -24.9589 	 44.8108 	 64.3207
| 20> H 	 -25.389 	 45.505 	 65.0601
| 21> H 	 -25.0873 	 45.2673 	 63.269
| 22> H 	 -25.5801 	 43.9222 	 64.2762
| 23> S 	 -25.5148 	 48.4511 	 69.5563
| 24> C 	 -25.0033 	 48.4195 	 71.2081
| 25> C 	 -23.7278 	 48.0413 	 71.2934
| 26> C 	 -23.0782 	 47.842 	 70.0092
| 27> C 	 -23.9143 	 48.1849 	 68.955
| 28> H 	 -23.2574 	 47.7391 	 72.2196
| 29> C 	 -21.5777 	 47.5213 	 69.9335
| 30> H 	 -21.2908 	 47.8161 	 68.9021
| 31> H 	 -21.2335 	 46.4895 	 70.0018
| 32> C 	 -20.8683 	 48.3287 	 71.058
| 33> H 	 -20.8874 	 47.9959 	 72.1423
| 34> H 	 -21.3191 	 49.3835 	 71.0765
| 35> C 	 -19.4747 	 48.6206 	 70.6064
| 36> H 	 -19.3234 	 49.2732 	 69.7309
| 37> H 	 -19.0119 	 47.7019 	 70.3878
| 38> H 	 -18.8788 	 48.9964 	 71.432
| 39> H 	 -23.8373 	 48.3931 	 63.8726
| 40> H 	 -25.6254 	 48.4727 	 72.0906
| 41> *
| 42>
| 43>                          ****END OF INPUT****

CARTESIAN COORDINATES (ANGSTROEM)
---------------------------------
  S    -24.469700   49.080100   66.260000
  C    -23.794400   48.135500   64.907300
  C    -23.253800   46.960300   65.422200
  C    -23.339600   46.880200   66.846800
  C    -23.807000   47.979600   67.520200
  H    -23.062800   45.984100   67.427100
  C    -22.701800   45.883400   64.585400
  H    -21.709700   45.628100   64.765800
  H    -22.737600   46.176700   63.524000
  C    -23.493400   44.595400   64.610700
  H    -23.112200   43.953500   63.784700
  H    -23.438100   44.103900   65.596100
  C    -24.958900   44.810800   64.320700
  H    -25.389000   45.505000   65.060100
  H    -25.087300   45.267300   63.269000
  H    -25.580100   43.922200   64.276200
  S    -25.514800   48.451100   69.556300
  C    -25.003300   48.419500   71.208100
  C    -23.727800   48.041300   71.293400
  C    -23.078200   47.842000   70.009200
  C    -23.914300   48.184900   68.955000
  H    -23.257400   47.739100   72.219600
  C    -21.577700   47.521300   69.933500
  H    -21.290800   47.816100   68.902100
  H    -21.233500   46.489500   70.001800
  C    -20.868300   48.328700   71.058000
  H    -20.887400   47.995900   72.142300
  H    -21.319100   49.383500   71.076500
  C    -19.474700   48.620600   70.606400
  H    -19.323400   49.273200   69.730900
  H    -19.011900   47.701900   70.387800
  H    -18.878800   48.996400   71.432000
  H    -23.837300   48.393100   63.872600
  H    -25.625400   48.472700   72.090600

 Total Charge           Charge          ....    0
 Multiplicity           Mult            ....    1
 Number of Electrons    NEL             ....  134
 Basis Dimension        Dim             ....  322

ORBITAL ENERGIES
----------------

  NO   OCC          E(Eh)            E(eV)
   0   2.0000     -88.964008     -2420.8337
   1   2.0000     -88.961906     -2420.7765
   2   2.0000     -10.335543      -281.2444
   3   2.0000     -10.327397      -281.0228
   4   2.0000     -10.319824      -280.8167
   5   2.0000     -10.312179      -280.6086
   6   2.0000     -10.307470      -280.4805
   7   2.0000     -10.301312      -280.3130
   8   2.0000     -10.299146      -280.2540
   9   2.0000     -10.297000      -280.1956
  10   2.0000     -10.293837      -280.1096
  11   2.0000     -10.288842      -279.9736
  12   2.0000     -10.286407      -279.9074
  13   2.0000     -10.283978      -279.8413
  14   2.0000     -10.276026      -279.6249
  15   2.0000     -10.268738      -279.4266
  16   2.0000      -8.077711      -219.8057
  17   2.0000      -8.077555      -219.8014
  18   2.0000      -6.036374      -164.2581
  19   2.0000      -6.036317      -164.2565
  20   2.0000      -6.032190      -164.1442
  21   2.0000      -6.032119      -164.1423
  22   2.0000      -6.028166      -164.0347
  23   2.0000      -6.028129      -164.0337
  24   2.0000      -1.010039       -27.4846
  25   2.0000      -0.985458       -26.8157
  26   2.0000      -0.920984       -25.0613
  27   2.0000      -0.911963       -24.8158
  28   2.0000      -0.875251       -23.8168
  29   2.0000      -0.850135       -23.1334
  30   2.0000      -0.839022       -22.8310
  31   2.0000      -0.820824       -22.3358
  32   2.0000      -0.781871       -21.2758
  33   2.0000      -0.771833       -21.0026
  34   2.0000      -0.709050       -19.2942
  35   2.0000      -0.700127       -19.0514
  36   2.0000      -0.688040       -18.7225
  37   2.0000      -0.653580       -17.7848
  38   2.0000      -0.642883       -17.4937
  39   2.0000      -0.623576       -16.9684
  40   2.0000      -0.602762       -16.4020
  41   2.0000      -0.575186       -15.6516
  42   2.0000      -0.565451       -15.3867
  43   2.0000      -0.560446       -15.2505
  44   2.0000      -0.544297       -14.8111
  45   2.0000      -0.529087       -14.3972
  46   2.0000      -0.518929       -14.1208
  47   2.0000      -0.513932       -13.9848
  48   2.0000      -0.510866       -13.9014
  49   2.0000      -0.498653       -13.5690
  50   2.0000      -0.485326       -13.2064
  51   2.0000      -0.481811       -13.1107
  52   2.0000      -0.468461       -12.7475
  53   2.0000      -0.464074       -12.6281
  54   2.0000      -0.458897       -12.4872
  55   2.0000      -0.444720       -12.1015
  56   2.0000      -0.441338       -12.0094
  57   2.0000      -0.437667       -11.9095
  58   2.0000      -0.432704       -11.7745
  59   2.0000      -0.416709       -11.3392
  60   2.0000      -0.416520       -11.3341
  61   2.0000      -0.410703       -11.1758
  62   2.0000      -0.408857       -11.1256
  63   2.0000      -0.354031        -9.6337
  64   2.0000      -0.327417        -8.9095
  65   2.0000      -0.324373        -8.8266
  66   2.0000      -0.297805        -8.1037
  67   0.0000       0.026930         0.7328
  68   0.0000       0.071069         1.9339
  69   0.0000       0.110994         3.0203
  70   0.0000       0.125136         3.4051
  71   0.0000       0.134550         3.6613

MULLIKEN ATOMIC CHARGES
-----------------------
   0 S :    0.087159
   1 C :   -0.100719
   2 C :   -0.106572
   3 C :    0.017375
   4 C :   -0.144730
   5 H :    0.023619
   6 C :    0.121971
   7 H :    0.019455
   8 H :    0.007486
   9 C :   -0.103788
  10 H :    0.038061
  11 H :    0.037077
  12 C :   -0.083762
  13 H :    0.053545
  14 H :    0.023139
  15 H :    0.034400
  16 S :    0.096554
  17 C :   -0.054222
  18 C :   -0.028426
  19 C :   -0.066978
  20 C :   -0.133634
  21 H :    0.016155
  22 C :    0.072241
  23 H :    0.037300
  24 H :    0.039816
  25 C :   -0.157344
  26 H :    0.053422
  27 H :    0.052485
  28 C :   -0.018127
  29 H :    0.045505
  30 H :    0.002000
  31 H :    0.019861
  32 H :    0.045685
  33 H :    0.053989
Sum of atomic charges:    0.0000000

LOEWDIN ATOMIC CHARGES
----------------------
   0 S :    0.367630
   1 C :   -0.173693
   2 C :   -0.066912
   3 C :   -0.065504
   4 C :   -0.180436
   5 H :    0.034933
   6 C :   -0.030508
   7 H :    0.023638
   8 H :    0.032413
   9 C :   -0.043962
  10 H :    0.030362
  11 H :    0.022669
  12 C :   -0.073992
  13 H :    0.028445
  14 H :    0.027348
  15 H :    0.022861
  16 S :    0.417490
  17 C :   -0.185606
  18 C :   -0.072737
  19 C :   -0.051127
  20 C :   -0.207830
  21 H :    0.031426
  22 C :   -0.031916
  23 H :    0.038347
  24 H :    0.031395
  25 C :   -0.055725
  26 H :    0.033656
  27 H :    0.036207
  28 C :   -0.067383
  29 H :    0.030162
  30 H :    0.012517
  31 H :    0.023927
  32 H :    0.027689
  33 H :    0.034220

  Mayer bond orders larger than 0.100000
B(  0-S ,  1-C ) :   1.1288 B(  0-S ,  4-C ) :   1.1275 B(  1-C ,  2-C ) :   1.6002
B(  1-C , 32-H ) :   0.9736 B(  2-C ,  3-C ) :   1.2238 B(  2-C ,  6-C ) :   1.0449
B(  3-C ,  4-C ) :   1.5886 B(  3-C ,  5-H ) :   0.9902 B(  4-C , 20-C ) :   1.0350
B(  6-C ,  7-H ) :   0.9339 B(  6-C ,  8-H ) :   0.9342 B(  6-C ,  9-C ) :   1.0714
B(  9-C , 10-H ) :   0.9567 B(  9-C , 11-H ) :   0.9528 B(  9-C , 12-C ) :   1.0805
B( 12-C , 13-H ) :   0.9688 B( 12-C , 14-H ) :   0.9725 B( 12-C , 15-H ) :   0.9742
B( 16-S , 17-C ) :   1.1423 B( 16-S , 20-C ) :   1.1434 B( 17-C , 18-C ) :   1.6279
B( 17-C , 33-H ) :   0.9634 B( 18-C , 19-C ) :   1.2356 B( 18-C , 21-H ) :   0.9873
B( 19-C , 20-C ) :   1.6117 B( 19-C , 22-C ) :   1.0325 B( 22-C , 23-H ) :   0.9454
B( 22-C , 24-H ) :   0.9312 B( 22-C , 25-C ) :   1.0449 B( 25-C , 26-H ) :   0.9492
B( 25-C , 27-H ) :   0.9609 B( 25-C , 28-C ) :   1.0858 B( 28-C , 29-H ) :   0.9764
B( 28-C , 30-H ) :   0.9668 B( 28-C , 31-H ) :   0.9680

Dispersion correction           -0.014197755
FINAL SINGLE POINT ENERGY     -1339.868582221871

DIPOLE MOMENT
-------------
                                X             Y             Z
Electronic contribution:    -17.01517      13.27456       3.02916
Nuclear contribution   :     17.52583     -13.88702      -2.88062
                        -----------------------------------------
Total Dipole Moment    :      0.51066      -0.61246       0.14853
                        -----------------------------------------
Magnitude (a.u.)       :      0.81113
Magnitude (Debye)      :      2.06174

Rotational constants in cm-1:     0.019338     0.008176     0.006921
Rotational constants in MHz :   579.746481   245.099637   207.482267

                             ****ORCA TERMINATED NORMALLY****
TOTAL RUN TIME: 0 days 0 hours 0 minutes 33 seconds 649 msec
