                         Program Version 4.2.1 -  RELEASE  -
|  1> ! wB97X-D3 SP def2-SVP
|  2> %pal
|  3> nprocs 16
|  4> end
|  5>
|  6> * xyz 0 1
|  7> S 	 -44.7147 	 50.6523 	 102.992
|  8> C 	 -44.8065 	 50.815 	 104.741
|  9> C 	 -43.4806 	 50.8288 	 105.198
| 10> C 	 -42.518 	 50.5612 	 104.191
| 11> C 	 -43.0277 	 50.2349 	 102.953
| 12> H 	 -41.4477 	 50.6055 	 104.245
| 13> C 	 -43.1455 	 50.8548 	 106.663
| 14> H 	 -42.2336 	 50.3071 	 106.811
| 15> H 	 -43.9905 	 50.2552 	 107.06
| 16> C 	 -42.914 	 52.2458 	 107.332
| 17> H 	 -43.8109 	 52.8525 	 107.105
| 18> H 	 -42.8584 	 51.9826 	 108.411
| 19> C 	 -41.7019 	 52.9303 	 106.801
| 20> H 	 -41.5071 	 53.8527 	 107.415
| 21> H 	 -40.819 	 52.2863 	 106.837
| 22> H 	 -41.6813 	 53.1632 	 105.667
| 23> S 	 -40.9112 	 50.6437 	 101.249
| 24> C 	 -40.7809 	 49.6291 	 99.8068
| 25> C 	 -41.6479 	 48.5636 	 99.8274
| 26> C 	 -42.5322 	 48.6426 	 100.956
| 27> C 	 -42.386 	 49.8068 	 101.675
| 28> H 	 -41.5413 	 47.715 	 99.1608
| 29> C 	 -43.5817 	 47.5863 	 101.195
| 30> H 	 -43.8739 	 47.2394 	 100.222
| 31> H 	 -44.519 	 47.8973 	 101.763
| 32> C 	 -43.0052 	 46.4682 	 102.073
| 33> H 	 -42.0954 	 46.0381 	 101.649
| 34> H 	 -43.8152 	 45.7294 	 102.01
| 35> C 	 -42.8029 	 46.7187 	 103.544
| 36> H 	 -42.0443 	 47.4752 	 103.792
| 37> H 	 -42.4757 	 45.7328 	 103.982
| 38> H 	 -43.7317 	 47.1332 	 103.987
| 39> H 	 -45.6467 	 50.9338 	 105.375
| 40> H 	 -39.9336 	 49.7439 	 99.1289
| 41> *
| 42>
| 43>                          ****END OF INPUT****

CARTESIAN COORDINATES (ANGSTROEM)
---------------------------------
  S    -44.714700   50.652300  102.992000
  C    -44.806500   50.815000  104.741000
  C    -43.480600   50.828800  105.198000
  C    -42.518000   50.561200  104.191000
  C    -43.027700   50.234900  102.953000
  H    -41.447700   50.605500  104.245000
  C    -43.145500   50.854800  106.663000
  H    -42.233600   50.307100  106.811000
  H    -43.990500   50.255200  107.060000
  C    -42.914000   52.245800  107.332000
  H    -43.810900   52.852500  107.105000
  H    -42.858400   51.982600  108.411000
  C    -41.701900   52.930300  106.801000
  H    -41.507100   53.852700  107.415000
  H    -40.819000   52.286300  106.837000
  H    -41.681300   53.163200  105.667000
  S    -40.911200   50.643700  101.249000
  C    -40.780900   49.629100   99.806800
  C    -41.647900   48.563600   99.827400
  C    -42.532200   48.642600  100.956000
  C    -42.386000   49.806800  101.675000
  H    -41.541300   47.715000   99.160800
  C    -43.581700   47.586300  101.195000
  H    -43.873900   47.239400  100.222000
  H    -44.519000   47.897300  101.763000
  C    -43.005200   46.468200  102.073000
  H    -42.095400   46.038100  101.649000
  H    -43.815200   45.729400  102.010000
  C    -42.802900   46.718700  103.544000
  H    -42.044300   47.475200  103.792000
  H    -42.475700   45.732800  103.982000
  H    -43.731700   47.133200  103.987000
  H    -45.646700   50.933800  105.375000
  H    -39.933600   49.743900   99.128900

 Total Charge           Charge          ....    0
 Multiplicity           Mult            ....    1
 Number of Electrons    NEL             ....  134
 Basis Dimension        Dim             ....  322

ORBITAL ENERGIES
----------------

  NO   OCC          E(Eh)            E(eV)
   0   2.0000     -88.966973     -2420.9144
   1   2.0000     -88.962093     -2420.7816
   2   2.0000     -10.330670      -281.1118
   3   2.0000     -10.328453      -281.0515
   4   2.0000     -10.323657      -280.9210
   5   2.0000     -10.312926      -280.6290
   6   2.0000     -10.305844      -280.4363
   7   2.0000     -10.299640      -280.2675
   8   2.0000     -10.299467      -280.2627
   9   2.0000     -10.291785      -280.0537
  10   2.0000     -10.290427      -280.0167
  11   2.0000     -10.290371      -280.0152
  12   2.0000     -10.287897      -279.9479
  13   2.0000     -10.285252      -279.8759
  14   2.0000     -10.282127      -279.7909
  15   2.0000     -10.276814      -279.6463
  16   2.0000      -8.081673      -219.9135
  17   2.0000      -8.076491      -219.7725
  18   2.0000      -6.040144      -164.3607
  19   2.0000      -6.036417      -164.2593
  20   2.0000      -6.035028      -164.2215
  21   2.0000      -6.032262      -164.1462
  22   2.0000      -6.030941      -164.1102
  23   2.0000      -6.027320      -164.0117
  24   2.0000      -1.007941       -27.4275
  25   2.0000      -0.987050       -26.8590
  26   2.0000      -0.911871       -24.8133
  27   2.0000      -0.910780       -24.7836
  28   2.0000      -0.869129       -23.6502
  29   2.0000      -0.850468       -23.1424
  30   2.0000      -0.841538       -22.8994
  31   2.0000      -0.818853       -22.2821
  32   2.0000      -0.782428       -21.2910
  33   2.0000      -0.768759       -20.9190
  34   2.0000      -0.700308       -19.0563
  35   2.0000      -0.697750       -18.9867
  36   2.0000      -0.684420       -18.6240
  37   2.0000      -0.667190       -18.1552
  38   2.0000      -0.639654       -17.4059
  39   2.0000      -0.613163       -16.6850
  40   2.0000      -0.600471       -16.3396
  41   2.0000      -0.577844       -15.7239
  42   2.0000      -0.555183       -15.1073
  43   2.0000      -0.545844       -14.8532
  44   2.0000      -0.544343       -14.8123
  45   2.0000      -0.539343       -14.6763
  46   2.0000      -0.517186       -14.0734
  47   2.0000      -0.514370       -13.9967
  48   2.0000      -0.500663       -13.6237
  49   2.0000      -0.497880       -13.5480
  50   2.0000      -0.489736       -13.3264
  51   2.0000      -0.478861       -13.0305
  52   2.0000      -0.469790       -12.7836
  53   2.0000      -0.464674       -12.6444
  54   2.0000      -0.459272       -12.4974
  55   2.0000      -0.447762       -12.1842
  56   2.0000      -0.442415       -12.0387
  57   2.0000      -0.434155       -11.8140
  58   2.0000      -0.425982       -11.5916
  59   2.0000      -0.423159       -11.5147
  60   2.0000      -0.419949       -11.4274
  61   2.0000      -0.409097       -11.1321
  62   2.0000      -0.402249       -10.9457
  63   2.0000      -0.343904        -9.3581
  64   2.0000      -0.331306        -9.0153
  65   2.0000      -0.323730        -8.8091
  66   2.0000      -0.296654        -8.0724
  67   0.0000       0.026592         0.7236
  68   0.0000       0.066604         1.8124
  69   0.0000       0.099784         2.7152
  70   0.0000       0.119933         3.2635
  71   0.0000       0.128909         3.5078

MULLIKEN ATOMIC CHARGES
-----------------------
   0 S :    0.103137
   1 C :   -0.103391
   2 C :   -0.099769
   3 C :    0.038032
   4 C :   -0.168667
   5 H :   -0.000828
   6 C :    0.018423
   7 H :    0.017115
   8 H :    0.034759
   9 C :   -0.034976
  10 H :    0.032370
  11 H :    0.043849
  12 C :   -0.093048
  13 H :    0.051570
  14 H :    0.019678
  15 H :    0.054309
  16 S :    0.091720
  17 C :   -0.087444
  18 C :   -0.016404
  19 C :   -0.039279
  20 C :   -0.137612
  21 H :    0.027378
  22 C :    0.066626
  23 H :    0.018673
  24 H :    0.037849
  25 C :   -0.086084
  26 H :    0.021596
  27 H :    0.026252
  28 C :   -0.048808
  29 H :    0.036468
  30 H :    0.044298
  31 H :    0.033120
  32 H :    0.036802
  33 H :    0.062283
Sum of atomic charges:   -0.0000000

LOEWDIN ATOMIC CHARGES
----------------------
   0 S :    0.413381
   1 C :   -0.198549
   2 C :   -0.065089
   3 C :   -0.078818
   4 C :   -0.190392
   5 H :    0.023086
   6 C :   -0.036835
   7 H :    0.023941
   8 H :    0.036679
   9 C :   -0.042946
  10 H :    0.026368
  11 H :    0.031620
  12 C :   -0.081278
  13 H :    0.035023
  14 H :    0.020406
  15 H :    0.039643
  16 S :    0.395458
  17 C :   -0.167648
  18 C :   -0.068963
  19 C :   -0.046811
  20 C :   -0.205967
  21 H :    0.035818
  22 C :   -0.033944
  23 H :    0.026997
  24 H :    0.035543
  25 C :   -0.043391
  26 H :    0.019214
  27 H :    0.025692
  28 C :   -0.069100
  29 H :    0.023649
  30 H :    0.035100
  31 H :    0.028081
  32 H :    0.024715
  33 H :    0.029317

  Mayer bond orders larger than 0.100000
B(  0-S ,  1-C ) :   1.1388 B(  0-S ,  4-C ) :   1.1737 B(  1-C ,  2-C ) :   1.5744
B(  1-C ,  4-C ) :   0.1094 B(  1-C , 32-H ) :   0.9780 B(  2-C ,  3-C ) :   1.2499
B(  2-C ,  6-C ) :   1.0151 B(  3-C ,  4-C ) :   1.5713 B(  3-C ,  5-H ) :   0.9953
B(  4-C , 20-C ) :   0.9995 B(  6-C ,  7-H ) :   0.9474 B(  6-C ,  8-H ) :   0.9472
B(  6-C ,  9-C ) :   1.0594 B(  9-C , 10-H ) :   0.9537 B(  9-C , 11-H ) :   0.9536
B(  9-C , 12-C ) :   1.0788 B( 12-C , 13-H ) :   0.9706 B( 12-C , 14-H ) :   0.9724
B( 12-C , 15-H ) :   0.9690 B( 16-S , 17-C ) :   1.1595 B( 16-S , 20-C ) :   1.1238
B( 17-C , 18-C ) :   1.6132 B( 17-C , 33-H ) :   0.9659 B( 18-C , 19-C ) :   1.2343
B( 18-C , 21-H ) :   0.9883 B( 19-C , 20-C ) :   1.6074 B( 19-C , 22-C ) :   1.0384
B( 22-C , 23-H ) :   0.9335 B( 22-C , 24-H ) :   0.9364 B( 22-C , 25-C ) :   1.0695
B( 25-C , 26-H ) :   0.9536 B( 25-C , 27-H ) :   0.9536 B( 25-C , 28-C ) :   1.0861
B( 28-C , 29-H ) :   0.9713 B( 28-C , 30-H ) :   0.9699 B( 28-C , 31-H ) :   0.9687

Dispersion correction           -0.015911872
FINAL SINGLE POINT ENERGY     -1339.873497102975

DIPOLE MOMENT
-------------
                                X             Y             Z
Electronic contribution:     -1.19526       6.95705     -17.56823
Nuclear contribution   :      1.42212      -7.39248      17.78917
                        -----------------------------------------
Total Dipole Moment    :      0.22686      -0.43543       0.22094
                        -----------------------------------------
Magnitude (a.u.)       :      0.53840
Magnitude (Debye)      :      1.36851

Rotational constants in cm-1:     0.021578     0.008730     0.007583
Rotational constants in MHz :   646.879293   261.723474   227.324767

                             ****ORCA TERMINATED NORMALLY****
TOTAL RUN TIME: 0 days 0 hours 0 minutes 31 seconds 902 msec
