                         Program Version 4.2.1 -  RELEASE  -
|  1> ! wB97X-D3 SP def2-SVP
|  2> %pal
|  3> nprocs 16
|  4> end
|  5>
|  6> * xyz 0 1
|  7> S 	 -36.5996 	 52.4181 	 107.861
|  8> C 	 -38.1101 	 53.329 	 107.823
|  9> C 	 -38.8236 	 53.0358 	 106.673
| 10> C 	 -38.1313 	 52.116 	 105.859
| 11> C 	 -36.8084 	 51.9804 	 106.167
| 12> H 	 -38.4393 	 51.6659 	 104.96
| 13> C 	 -40.2236 	 53.4865 	 106.42
| 14> H 	 -40.5003 	 53.1189 	 105.462
| 15> H 	 -40.135 	 54.5354 	 106.285
| 16> C 	 -41.2543 	 53.1033 	 107.538
| 17> H 	 -41.1834 	 51.9866 	 107.672
| 18> H 	 -41.0541 	 53.6019 	 108.475
| 19> C 	 -42.692 	 53.3083 	 107.083
| 20> H 	 -43.3708 	 53.0052 	 107.898
| 21> H 	 -42.9466 	 54.3227 	 106.796
| 22> H 	 -42.9006 	 52.6544 	 106.191
| 23> S 	 -34.612 	 50.2512 	 106.178
| 24> C 	 -33.7047 	 49.9136 	 104.695
| 25> C 	 -34.3795 	 50.5328 	 103.603
| 26> C 	 -35.4788 	 51.383 	 103.925
| 27> C 	 -35.736 	 51.3585 	 105.345
| 28> H 	 -34.1153 	 50.3258 	 102.611
| 29> C 	 -36.1885 	 52.1174 	 102.783
| 30> H 	 -37.2088 	 51.8456 	 102.878
| 31> H 	 -35.7876 	 51.6414 	 101.904
| 32> C 	 -36.2011 	 53.6744 	 102.704
| 33> H 	 -35.1372 	 54.075 	 102.572
| 34> H 	 -36.601 	 54.0598 	 103.671
| 35> C 	 -37.1417 	 54.3274 	 101.708
| 36> H 	 -36.74 	 55.3202 	 101.515
| 37> H 	 -38.219 	 54.3709 	 101.872
| 38> H 	 -36.8537 	 53.9761 	 100.77
| 39> H 	 -38.6025 	 53.8492 	 108.636
| 40> H 	 -32.9799 	 49.2655 	 104.608
| 41> *
| 42>
| 43>                          ****END OF INPUT****

CARTESIAN COORDINATES (ANGSTROEM)
---------------------------------
  S    -36.599600   52.418100  107.861000
  C    -38.110100   53.329000  107.823000
  C    -38.823600   53.035800  106.673000
  C    -38.131300   52.116000  105.859000
  C    -36.808400   51.980400  106.167000
  H    -38.439300   51.665900  104.960000
  C    -40.223600   53.486500  106.420000
  H    -40.500300   53.118900  105.462000
  H    -40.135000   54.535400  106.285000
  C    -41.254300   53.103300  107.538000
  H    -41.183400   51.986600  107.672000
  H    -41.054100   53.601900  108.475000
  C    -42.692000   53.308300  107.083000
  H    -43.370800   53.005200  107.898000
  H    -42.946600   54.322700  106.796000
  H    -42.900600   52.654400  106.191000
  S    -34.612000   50.251200  106.178000
  C    -33.704700   49.913600  104.695000
  C    -34.379500   50.532800  103.603000
  C    -35.478800   51.383000  103.925000
  C    -35.736000   51.358500  105.345000
  H    -34.115300   50.325800  102.611000
  C    -36.188500   52.117400  102.783000
  H    -37.208800   51.845600  102.878000
  H    -35.787600   51.641400  101.904000
  C    -36.201100   53.674400  102.704000
  H    -35.137200   54.075000  102.572000
  H    -36.601000   54.059800  103.671000
  C    -37.141700   54.327400  101.708000
  H    -36.740000   55.320200  101.515000
  H    -38.219000   54.370900  101.872000
  H    -36.853700   53.976100  100.770000
  H    -38.602500   53.849200  108.636000
  H    -32.979900   49.265500  104.608000

 Total Charge           Charge          ....    0
 Multiplicity           Mult            ....    1
 Number of Electrons    NEL             ....  134
 Basis Dimension        Dim             ....  322

ORBITAL ENERGIES
----------------

  NO   OCC          E(Eh)            E(eV)
   0   2.0000     -88.970327     -2421.0057
   1   2.0000     -88.963415     -2420.8176
   2   2.0000     -10.339663      -281.3565
   3   2.0000     -10.330279      -281.1012
   4   2.0000     -10.315575      -280.7011
   5   2.0000     -10.312916      -280.6287
   6   2.0000     -10.310778      -280.5705
   7   2.0000     -10.296257      -280.1754
   8   2.0000     -10.295828      -280.1637
   9   2.0000     -10.294736      -280.1340
  10   2.0000     -10.294121      -280.1173
  11   2.0000     -10.293215      -280.0926
  12   2.0000     -10.287179      -279.9284
  13   2.0000     -10.286533      -279.9108
  14   2.0000     -10.283016      -279.8151
  15   2.0000     -10.273565      -279.5579
  16   2.0000      -8.083753      -219.9701
  17   2.0000      -8.077806      -219.8083
  18   2.0000      -6.042318      -164.4198
  19   2.0000      -6.038275      -164.3098
  20   2.0000      -6.036420      -164.2593
  21   2.0000      -6.034728      -164.2133
  22   2.0000      -6.032609      -164.1556
  23   2.0000      -6.028218      -164.0361
  24   2.0000      -1.002496       -27.2793
  25   2.0000      -0.977560       -26.6008
  26   2.0000      -0.912124       -24.8202
  27   2.0000      -0.906007       -24.6537
  28   2.0000      -0.864682       -23.5292
  29   2.0000      -0.857212       -23.3259
  30   2.0000      -0.848317       -23.0839
  31   2.0000      -0.815997       -22.2044
  32   2.0000      -0.785940       -21.3865
  33   2.0000      -0.771826       -21.0024
  34   2.0000      -0.710626       -19.3371
  35   2.0000      -0.702592       -19.1185
  36   2.0000      -0.691203       -18.8086
  37   2.0000      -0.668266       -18.1844
  38   2.0000      -0.641429       -17.4542
  39   2.0000      -0.617263       -16.7966
  40   2.0000      -0.594767       -16.1844
  41   2.0000      -0.573407       -15.6032
  42   2.0000      -0.570725       -15.5302
  43   2.0000      -0.560059       -15.2400
  44   2.0000      -0.528896       -14.3920
  45   2.0000      -0.524411       -14.2699
  46   2.0000      -0.519492       -14.1361
  47   2.0000      -0.512606       -13.9487
  48   2.0000      -0.506900       -13.7934
  49   2.0000      -0.501440       -13.6449
  50   2.0000      -0.499064       -13.5802
  51   2.0000      -0.484074       -13.1723
  52   2.0000      -0.470386       -12.7998
  53   2.0000      -0.464780       -12.6473
  54   2.0000      -0.456697       -12.4274
  55   2.0000      -0.449897       -12.2423
  56   2.0000      -0.443556       -12.0698
  57   2.0000      -0.436260       -11.8712
  58   2.0000      -0.432346       -11.7647
  59   2.0000      -0.426424       -11.6036
  60   2.0000      -0.422253       -11.4901
  61   2.0000      -0.420140       -11.4326
  62   2.0000      -0.408381       -11.1126
  63   2.0000      -0.346124        -9.4185
  64   2.0000      -0.332634        -9.0514
  65   2.0000      -0.325632        -8.8609
  66   2.0000      -0.282091        -7.6761
  67   0.0000       0.013966         0.3800
  68   0.0000       0.070294         1.9128
  69   0.0000       0.093928         2.5559
  70   0.0000       0.123669         3.3652
  71   0.0000       0.135074         3.6755

MULLIKEN ATOMIC CHARGES
-----------------------
   0 S :    0.099547
   1 C :   -0.103719
   2 C :   -0.120025
   3 C :    0.039538
   4 C :   -0.141854
   5 H :   -0.010617
   6 C :    0.126146
   7 H :   -0.005832
   8 H :    0.027305
   9 C :   -0.090497
  10 H :    0.044258
  11 H :    0.034161
  12 C :   -0.061321
  13 H :    0.040910
  14 H :    0.028294
  15 H :    0.035768
  16 S :    0.097480
  17 C :   -0.018245
  18 C :   -0.037414
  19 C :   -0.050848
  20 C :   -0.152867
  21 H :    0.000981
  22 C :    0.128328
  23 H :    0.008745
  24 H :    0.007196
  25 C :   -0.110716
  26 H :    0.044159
  27 H :    0.040472
  28 C :   -0.006738
  29 H :    0.018538
  30 H :    0.052092
  31 H :   -0.002963
  32 H :    0.043987
  33 H :   -0.004247
Sum of atomic charges:   -0.0000000

LOEWDIN ATOMIC CHARGES
----------------------
   0 S :    0.387787
   1 C :   -0.194254
   2 C :   -0.062869
   3 C :   -0.063205
   4 C :   -0.182073
   5 H :    0.021070
   6 C :   -0.028195
   7 H :    0.023270
   8 H :    0.031958
   9 C :   -0.037572
  10 H :    0.035119
  11 H :    0.020232
  12 C :   -0.070584
  13 H :    0.029721
  14 H :    0.019397
  15 H :    0.029958
  16 S :    0.396358
  17 C :   -0.155503
  18 C :   -0.057864
  19 C :   -0.050812
  20 C :   -0.186456
  21 H :    0.019609
  22 C :   -0.029434
  23 H :    0.025263
  24 H :    0.026906
  25 C :   -0.043338
  26 H :    0.033256
  27 H :    0.030466
  28 C :   -0.071772
  29 H :    0.036223
  30 H :    0.029279
  31 H :    0.016315
  32 H :    0.027983
  33 H :   -0.006239

  Mayer bond orders larger than 0.100000
B(  0-S ,  1-C ) :   1.1260 B(  0-S ,  4-C ) :   1.1449 B(  1-C ,  2-C ) :   1.6048
B(  1-C ,  4-C ) :   0.1023 B(  1-C , 32-H ) :   0.9706 B(  2-C ,  3-C ) :   1.2428
B(  2-C ,  6-C ) :   1.0240 B(  3-C ,  4-C ) :   1.5613 B(  3-C ,  5-H ) :   0.9995
B(  4-C , 20-C ) :   1.0611 B(  6-C ,  7-H ) :   0.9373 B(  6-C ,  8-H ) :   0.9238
B(  6-C ,  9-C ) :   1.0575 B(  9-C , 10-H ) :   0.9598 B(  9-C , 11-H ) :   0.9542
B(  9-C , 12-C ) :   1.0876 B( 12-C , 13-H ) :   0.9736 B( 12-C , 14-H ) :   0.9748
B( 12-C , 15-H ) :   0.9751 B( 16-S , 17-C ) :   1.1577 B( 16-S , 20-C ) :   1.1569
B( 17-C , 18-C ) :   1.5594 B( 17-C , 20-C ) :   0.1168 B( 17-C , 33-H ) :   0.9905
B( 18-C , 19-C ) :   1.2942 B( 18-C , 21-H ) :   0.9879 B( 19-C , 20-C ) :   1.5296
B( 19-C , 22-C ) :   1.0332 B( 22-C , 23-H ) :   0.9256 B( 22-C , 24-H ) :   0.9273
B( 22-C , 25-C ) :   1.0597 B( 25-C , 26-H ) :   0.9563 B( 25-C , 27-H ) :   0.9552
B( 25-C , 28-C ) :   1.0870 B( 28-C , 29-H ) :   0.9614 B( 28-C , 30-H ) :   0.9755
B( 28-C , 31-H ) :   0.9637

Dispersion correction           -0.013693924
FINAL SINGLE POINT ENERGY     -1339.840844884666

DIPOLE MOMENT
-------------
                                X             Y             Z
Electronic contribution:     23.28837     -13.54270      14.64136
Nuclear contribution   :    -23.84618      13.66921     -15.24398
                        -----------------------------------------
Total Dipole Moment    :     -0.55781       0.12651      -0.60261
                        -----------------------------------------
Magnitude (a.u.)       :      0.83084
Magnitude (Debye)      :      2.11182

Rotational constants in cm-1:     0.018126     0.008251     0.006235
Rotational constants in MHz :   543.404765   247.361232   186.925904

                             ****ORCA TERMINATED NORMALLY****
TOTAL RUN TIME: 0 days 0 hours 0 minutes 29 seconds 716 msec
