                         Program Version 4.2.1 -  RELEASE  -
|  1> ! wB97X-D3 SP def2-SVP
|  2> %pal
|  3> nprocs 16
|  4> end
|  5>
|  6> * xyz 0 1
|  7> S 	 -19.2201 	 -3.12184 	 91.8647
|  8> C 	 -20.7907 	 -2.63327 	 92.5335
|  9> C 	 -21.5991 	 -2.17042 	 91.579
| 10> C 	 -21.0526 	 -2.36966 	 90.3186
| 11> C 	 -19.7026 	 -2.76322 	 90.2171
| 12> H 	 -21.5549 	 -2.16432 	 89.4337
| 13> C 	 -22.9064 	 -1.59624 	 91.8074
| 14> H 	 -23.3408 	 -1.23754 	 90.861
| 15> H 	 -22.7435 	 -0.6573 	 92.394
| 16> C 	 -23.8618 	 -2.4625 	 92.5655
| 17> H 	 -23.3475 	 -2.79121 	 93.481
| 18> H 	 -24.7464 	 -1.87768 	 92.8557
| 19> C 	 -24.2579 	 -3.63302 	 91.657
| 20> H 	 -23.4216 	 -4.03272 	 91.0835
| 21> H 	 -24.6585 	 -4.43247 	 92.2235
| 22> H 	 -25.0782 	 -3.46023 	 90.9984
| 23> S 	 -17.242 	 -2.17263 	 89.1162
| 24> C 	 -16.9581 	 -2.39532 	 87.4207
| 25> C 	 -18.0077 	 -3.09296 	 86.8318
| 26> C 	 -19.1163 	 -3.3137 	 87.7339
| 27> C 	 -18.8698 	 -2.83177 	 89.0335
| 28> H 	 -18.0505 	 -3.1778 	 85.75
| 29> C 	 -20.4332 	 -3.98959 	 87.44
| 30> H 	 -20.8293 	 -4.39726 	 88.3542
| 31> H 	 -20.2276 	 -4.89571 	 86.8368
| 32> C 	 -21.5179 	 -3.10616 	 86.8379
| 33> H 	 -21.2671 	 -2.79732 	 85.8086
| 34> H 	 -21.6049 	 -2.096 	 87.3686
| 35> C 	 -22.8616 	 -3.79749 	 86.8497
| 36> H 	 -23.0702 	 -4.1013 	 87.8966
| 37> H 	 -22.7548 	 -4.69136 	 86.2135
| 38> H 	 -23.7036 	 -3.22415 	 86.3669
| 39> H 	 -20.9089 	 -2.51585 	 93.5893
| 40> H 	 -16.0803 	 -1.98894 	 86.868
| 41> *
| 42>
| 43>                          ****END OF INPUT****

CARTESIAN COORDINATES (ANGSTROEM)
---------------------------------
  S    -19.220100   -3.121840   91.864700
  C    -20.790700   -2.633270   92.533500
  C    -21.599100   -2.170420   91.579000
  C    -21.052600   -2.369660   90.318600
  C    -19.702600   -2.763220   90.217100
  H    -21.554900   -2.164320   89.433700
  C    -22.906400   -1.596240   91.807400
  H    -23.340800   -1.237540   90.861000
  H    -22.743500   -0.657300   92.394000
  C    -23.861800   -2.462500   92.565500
  H    -23.347500   -2.791210   93.481000
  H    -24.746400   -1.877680   92.855700
  C    -24.257900   -3.633020   91.657000
  H    -23.421600   -4.032720   91.083500
  H    -24.658500   -4.432470   92.223500
  H    -25.078200   -3.460230   90.998400
  S    -17.242000   -2.172630   89.116200
  C    -16.958100   -2.395320   87.420700
  C    -18.007700   -3.092960   86.831800
  C    -19.116300   -3.313700   87.733900
  C    -18.869800   -2.831770   89.033500
  H    -18.050500   -3.177800   85.750000
  C    -20.433200   -3.989590   87.440000
  H    -20.829300   -4.397260   88.354200
  H    -20.227600   -4.895710   86.836800
  C    -21.517900   -3.106160   86.837900
  H    -21.267100   -2.797320   85.808600
  H    -21.604900   -2.096000   87.368600
  C    -22.861600   -3.797490   86.849700
  H    -23.070200   -4.101300   87.896600
  H    -22.754800   -4.691360   86.213500
  H    -23.703600   -3.224150   86.366900
  H    -20.908900   -2.515850   93.589300
  H    -16.080300   -1.988940   86.868000

 Total Charge           Charge          ....    0
 Multiplicity           Mult            ....    1
 Number of Electrons    NEL             ....  134
 Basis Dimension        Dim             ....  322

ORBITAL ENERGIES
----------------

  NO   OCC          E(Eh)            E(eV)
   0   2.0000     -88.966440     -2420.8999
   1   2.0000     -88.964283     -2420.8412
   2   2.0000     -10.333739      -281.1953
   3   2.0000     -10.330570      -281.1091
   4   2.0000     -10.324209      -280.9360
   5   2.0000     -10.308885      -280.5190
   6   2.0000     -10.308587      -280.5109
   7   2.0000     -10.299928      -280.2753
   8   2.0000     -10.291689      -280.0511
   9   2.0000     -10.291122      -280.0357
  10   2.0000     -10.288990      -279.9777
  11   2.0000     -10.288321      -279.9594
  12   2.0000     -10.287041      -279.9246
  13   2.0000     -10.285639      -279.8865
  14   2.0000     -10.284859      -279.8652
  15   2.0000     -10.268622      -279.4234
  16   2.0000      -8.081392      -219.9058
  17   2.0000      -8.078590      -219.8296
  18   2.0000      -6.039874      -164.3533
  19   2.0000      -6.037197      -164.2805
  20   2.0000      -6.035760      -164.2414
  21   2.0000      -6.033026      -164.1670
  22   2.0000      -6.032258      -164.1461
  23   2.0000      -6.029407      -164.0685
  24   2.0000      -1.009036       -27.4573
  25   2.0000      -0.988717       -26.9044
  26   2.0000      -0.924838       -25.1661
  27   2.0000      -0.913879       -24.8679
  28   2.0000      -0.871757       -23.7217
  29   2.0000      -0.852568       -23.1995
  30   2.0000      -0.845215       -22.9995
  31   2.0000      -0.815850       -22.2004
  32   2.0000      -0.786164       -21.3926
  33   2.0000      -0.771381       -20.9903
  34   2.0000      -0.712281       -19.3822
  35   2.0000      -0.704021       -19.1574
  36   2.0000      -0.694184       -18.8897
  37   2.0000      -0.662572       -18.0295
  38   2.0000      -0.641764       -17.4633
  39   2.0000      -0.617305       -16.7977
  40   2.0000      -0.597612       -16.2619
  41   2.0000      -0.585346       -15.9281
  42   2.0000      -0.566690       -15.4204
  43   2.0000      -0.561182       -15.2705
  44   2.0000      -0.538748       -14.6601
  45   2.0000      -0.527231       -14.3467
  46   2.0000      -0.514138       -13.9904
  47   2.0000      -0.512922       -13.9573
  48   2.0000      -0.510025       -13.8785
  49   2.0000      -0.502376       -13.6703
  50   2.0000      -0.492913       -13.4129
  51   2.0000      -0.477962       -13.0060
  52   2.0000      -0.474555       -12.9133
  53   2.0000      -0.469697       -12.7811
  54   2.0000      -0.459075       -12.4921
  55   2.0000      -0.446621       -12.1532
  56   2.0000      -0.440812       -11.9951
  57   2.0000      -0.436606       -11.8806
  58   2.0000      -0.431057       -11.7296
  59   2.0000      -0.427944       -11.6449
  60   2.0000      -0.424420       -11.5491
  61   2.0000      -0.415226       -11.2989
  62   2.0000      -0.410257       -11.1637
  63   2.0000      -0.351351        -9.5608
  64   2.0000      -0.331999        -9.0342
  65   2.0000      -0.330677        -8.9982
  66   2.0000      -0.288759        -7.8575
  67   0.0000       0.022810         0.6207
  68   0.0000       0.068158         1.8547
  69   0.0000       0.117585         3.1996
  70   0.0000       0.123081         3.3492
  71   0.0000       0.125326         3.4103

MULLIKEN ATOMIC CHARGES
-----------------------
   0 S :    0.099729
   1 C :   -0.141401
   2 C :   -0.051153
   3 C :    0.049018
   4 C :   -0.124499
   5 H :   -0.065565
   6 C :    0.059332
   7 H :    0.016175
   8 H :    0.038456
   9 C :   -0.054122
  10 H :    0.029974
  11 H :    0.032328
  12 C :   -0.031827
  13 H :    0.040721
  14 H :    0.013772
  15 H :    0.020167
  16 S :    0.110984
  17 C :   -0.116245
  18 C :   -0.022696
  19 C :   -0.036221
  20 C :   -0.155389
  21 H :    0.026253
  22 C :    0.053203
  23 H :    0.018233
  24 H :    0.031774
  25 C :   -0.098458
  26 H :    0.021653
  27 H :    0.047062
  28 C :   -0.052688
  29 H :    0.038551
  30 H :    0.028549
  31 H :    0.047717
  32 H :    0.046485
  33 H :    0.080128
Sum of atomic charges:    0.0000000

LOEWDIN ATOMIC CHARGES
----------------------
   0 S :    0.395051
   1 C :   -0.179364
   2 C :   -0.074648
   3 C :   -0.058393
   4 C :   -0.190219
   5 H :    0.011099
   6 C :   -0.036757
   7 H :    0.029656
   8 H :    0.039896
   9 C :   -0.034047
  10 H :    0.024559
  11 H :    0.027669
  12 C :   -0.064905
  13 H :    0.027978
  14 H :    0.021714
  15 H :    0.023406
  16 S :    0.413347
  17 C :   -0.193198
  18 C :   -0.076570
  19 C :   -0.049369
  20 C :   -0.197637
  21 H :    0.033247
  22 C :   -0.035820
  23 H :    0.027808
  24 H :    0.036176
  25 C :   -0.050059
  26 H :    0.022058
  27 H :    0.026962
  28 C :   -0.071298
  29 H :    0.026730
  30 H :    0.026456
  31 H :    0.033196
  32 H :    0.023111
  33 H :    0.042164

  Mayer bond orders larger than 0.100000
B(  0-S ,  1-C ) :   1.1365 B(  0-S ,  4-C ) :   1.1536 B(  1-C ,  2-C ) :   1.5850
B(  1-C ,  4-C ) :   0.1029 B(  1-C , 32-H ) :   0.9674 B(  2-C ,  3-C ) :   1.2727
B(  2-C ,  6-C ) :   1.0307 B(  3-C ,  4-C ) :   1.5194 B(  3-C ,  5-H ) :   1.0050
B(  4-C , 20-C ) :   1.0755 B(  6-C ,  7-H ) :   0.9373 B(  6-C ,  8-H ) :   0.9215
B(  6-C ,  9-C ) :   1.0892 B(  9-C , 10-H ) :   0.9551 B(  9-C , 11-H ) :   0.9520
B(  9-C , 12-C ) :   1.0692 B( 12-C , 13-H ) :   0.9774 B( 12-C , 14-H ) :   0.9686
B( 12-C , 15-H ) :   0.9718 B( 16-S , 17-C ) :   1.1713 B( 16-S , 20-C ) :   1.1382
B( 17-C , 18-C ) :   1.5904 B( 17-C , 33-H ) :   0.9622 B( 18-C , 19-C ) :   1.2531
B( 18-C , 21-H ) :   0.9877 B( 19-C , 20-C ) :   1.5661 B( 19-C , 22-C ) :   1.0528
B( 22-C , 23-H ) :   0.9326 B( 22-C , 24-H ) :   0.9296 B( 22-C , 25-C ) :   1.0512
B( 25-C , 26-H ) :   0.9465 B( 25-C , 27-H ) :   0.9500 B( 25-C , 28-C ) :   1.0815
B( 28-C , 29-H ) :   0.9718 B( 28-C , 30-H ) :   0.9704 B( 28-C , 31-H ) :   0.9721

Dispersion correction           -0.015182488
FINAL SINGLE POINT ENERGY     -1339.884570189389

DIPOLE MOMENT
-------------
                                X             Y             Z
Electronic contribution:     30.02104       3.64997       6.10626
Nuclear contribution   :    -30.63498      -3.49887      -6.46225
                        -----------------------------------------
Total Dipole Moment    :     -0.61394       0.15110      -0.35599
                        -----------------------------------------
Magnitude (a.u.)       :      0.72559
Magnitude (Debye)      :      1.84431

Rotational constants in cm-1:     0.019470     0.009766     0.006955
Rotational constants in MHz :   583.707683   292.783905   208.499109

                             ****ORCA TERMINATED NORMALLY****
TOTAL RUN TIME: 0 days 0 hours 0 minutes 32 seconds 336 msec
