                         Program Version 4.2.1 -  RELEASE  -
|  1> ! wB97X-D3 SP def2-SVP
|  2> %pal
|  3> nprocs 16
|  4> end
|  5>
|  6> * xyz 0 1
|  7> S 	 -96.7254 	 55.8323 	 130.2
|  8> C 	 -95.66 	 55.5683 	 131.539
|  9> C 	 -95.5303 	 56.7107 	 132.224
| 10> C 	 -96.3329 	 57.7857 	 131.808
| 11> C 	 -97.0559 	 57.491 	 130.671
| 12> H 	 -96.5079 	 58.6843 	 132.335
| 13> C 	 -94.5517 	 56.8692 	 133.33
| 14> H 	 -94.379 	 57.9068 	 133.328
| 15> H 	 -93.6517 	 56.3511 	 133.076
| 16> C 	 -95.2474 	 56.3661 	 134.663
| 17> H 	 -96.2209 	 56.7711 	 134.975
| 18> H 	 -95.6069 	 55.3712 	 134.406
| 19> C 	 -94.3225 	 56.2885 	 135.875
| 20> H 	 -94.8674 	 55.831 	 136.743
| 21> H 	 -93.4273 	 55.5761 	 135.791
| 22> H 	 -94.1167 	 57.2877 	 136.324
| 23> S 	 -99.6891 	 57.6495 	 129.851
| 24> C 	 -100.457 	 59.2241 	 129.476
| 25> C 	 -99.405 	 60.1248 	 129.309
| 26> C 	 -98.0743 	 59.6198 	 129.653
| 27> C 	 -98.0327 	 58.3064 	 130.012
| 28> H 	 -99.7279 	 61.1568 	 129.046
| 29> C 	 -96.8798 	 60.5071 	 129.474
| 30> H 	 -96.3524 	 60.2614 	 128.485
| 31> H 	 -96.2101 	 60.2546 	 130.223
| 32> C 	 -97.1131 	 62.0447 	 129.407
| 33> H 	 -97.7629 	 62.3315 	 130.184
| 34> H 	 -97.7109 	 62.1783 	 128.598
| 35> C 	 -95.823 	 62.7929 	 129.226
| 36> H 	 -95.0359 	 62.2979 	 128.705
| 37> H 	 -95.2487 	 63.0325 	 130.143
| 38> H 	 -95.8873 	 63.7544 	 128.806
| 39> H 	 -95.0362 	 54.6869 	 131.637
| 40> H 	 -101.472 	 59.6346 	 129.39
| 41> *
| 42>
| 43>                          ****END OF INPUT****

CARTESIAN COORDINATES (ANGSTROEM)
---------------------------------
  S    -96.725400   55.832300  130.200000
  C    -95.660000   55.568300  131.539000
  C    -95.530300   56.710700  132.224000
  C    -96.332900   57.785700  131.808000
  C    -97.055900   57.491000  130.671000
  H    -96.507900   58.684300  132.335000
  C    -94.551700   56.869200  133.330000
  H    -94.379000   57.906800  133.328000
  H    -93.651700   56.351100  133.076000
  C    -95.247400   56.366100  134.663000
  H    -96.220900   56.771100  134.975000
  H    -95.606900   55.371200  134.406000
  C    -94.322500   56.288500  135.875000
  H    -94.867400   55.831000  136.743000
  H    -93.427300   55.576100  135.791000
  H    -94.116700   57.287700  136.324000
  S    -99.689100   57.649500  129.851000
  C    -100.457000   59.224100  129.476000
  C    -99.405000   60.124800  129.309000
  C    -98.074300   59.619800  129.653000
  C    -98.032700   58.306400  130.012000
  H    -99.727900   61.156800  129.046000
  C    -96.879800   60.507100  129.474000
  H    -96.352400   60.261400  128.485000
  H    -96.210100   60.254600  130.223000
  C    -97.113100   62.044700  129.407000
  H    -97.762900   62.331500  130.184000
  H    -97.710900   62.178300  128.598000
  C    -95.823000   62.792900  129.226000
  H    -95.035900   62.297900  128.705000
  H    -95.248700   63.032500  130.143000
  H    -95.887300   63.754400  128.806000
  H    -95.036200   54.686900  131.637000
  H    -101.472000   59.634600  129.390000

 Total Charge           Charge          ....    0
 Multiplicity           Mult            ....    1
 Number of Electrons    NEL             ....  134
 Basis Dimension        Dim             ....  322

ORBITAL ENERGIES
----------------

  NO   OCC          E(Eh)            E(eV)
   0   2.0000     -88.962665     -2420.7972
   1   2.0000     -88.962565     -2420.7945
   2   2.0000     -10.331373      -281.1310
   3   2.0000     -10.328137      -281.0429
   4   2.0000     -10.325655      -280.9754
   5   2.0000     -10.307195      -280.4730
   6   2.0000     -10.306624      -280.4575
   7   2.0000     -10.299576      -280.2657
   8   2.0000     -10.290967      -280.0314
   9   2.0000     -10.290008      -280.0054
  10   2.0000     -10.289622      -279.9948
  11   2.0000     -10.288008      -279.9509
  12   2.0000     -10.287697      -279.9425
  13   2.0000     -10.285892      -279.8933
  14   2.0000     -10.277030      -279.6522
  15   2.0000     -10.272637      -279.5327
  16   2.0000      -8.077951      -219.8122
  17   2.0000      -8.076093      -219.7617
  18   2.0000      -6.036426      -164.2595
  19   2.0000      -6.035050      -164.2221
  20   2.0000      -6.032315      -164.1476
  21   2.0000      -6.030659      -164.1026
  22   2.0000      -6.028763      -164.0510
  23   2.0000      -6.026483      -163.9889
  24   2.0000      -1.011744       -27.5309
  25   2.0000      -0.984187       -26.7811
  26   2.0000      -0.913205       -24.8496
  27   2.0000      -0.910455       -24.7748
  28   2.0000      -0.874471       -23.7956
  29   2.0000      -0.852253       -23.1910
  30   2.0000      -0.845209       -22.9993
  31   2.0000      -0.820803       -22.3352
  32   2.0000      -0.779316       -21.2063
  33   2.0000      -0.772554       -21.0223
  34   2.0000      -0.722052       -19.6480
  35   2.0000      -0.709580       -19.3087
  36   2.0000      -0.703368       -19.1396
  37   2.0000      -0.656241       -17.8572
  38   2.0000      -0.644290       -17.5320
  39   2.0000      -0.622942       -16.9511
  40   2.0000      -0.593108       -16.1393
  41   2.0000      -0.569004       -15.4834
  42   2.0000      -0.567404       -15.4398
  43   2.0000      -0.556245       -15.1362
  44   2.0000      -0.531695       -14.4682
  45   2.0000      -0.524324       -14.2676
  46   2.0000      -0.520131       -14.1535
  47   2.0000      -0.513155       -13.9637
  48   2.0000      -0.511578       -13.9208
  49   2.0000      -0.507137       -13.7999
  50   2.0000      -0.494040       -13.4435
  51   2.0000      -0.489567       -13.3218
  52   2.0000      -0.475458       -12.9379
  53   2.0000      -0.466747       -12.7008
  54   2.0000      -0.458816       -12.4850
  55   2.0000      -0.448303       -12.1989
  56   2.0000      -0.442631       -12.0446
  57   2.0000      -0.432650       -11.7730
  58   2.0000      -0.430548       -11.7158
  59   2.0000      -0.419296       -11.4096
  60   2.0000      -0.416384       -11.3304
  61   2.0000      -0.412964       -11.2373
  62   2.0000      -0.408414       -11.1135
  63   2.0000      -0.353256        -9.6126
  64   2.0000      -0.328678        -8.9438
  65   2.0000      -0.324142        -8.8203
  66   2.0000      -0.294683        -8.0187
  67   0.0000       0.028029         0.7627
  68   0.0000       0.063047         1.7156
  69   0.0000       0.112869         3.0713
  70   0.0000       0.124479         3.3873
  71   0.0000       0.128349         3.4926

MULLIKEN ATOMIC CHARGES
-----------------------
   0 S :    0.102441
   1 C :   -0.118658
   2 C :   -0.127352
   3 C :    0.050101
   4 C :   -0.163569
   5 H :    0.006806
   6 C :    0.142917
   7 H :    0.006230
   8 H :    0.021117
   9 C :   -0.077863
  10 H :    0.030721
  11 H :    0.012298
  12 C :   -0.066983
  13 H :    0.025391
  14 H :    0.046690
  15 H :    0.039546
  16 S :    0.088317
  17 C :   -0.086232
  18 C :   -0.084856
  19 C :   -0.047033
  20 C :   -0.104548
  21 H :    0.035644
  22 C :    0.046914
  23 H :    0.052095
  24 H :   -0.000062
  25 C :   -0.010977
  26 H :    0.014892
  27 H :    0.006292
  28 C :   -0.009631
  29 H :    0.015727
  30 H :    0.018966
  31 H :    0.016753
  32 H :    0.051611
  33 H :    0.066293
Sum of atomic charges:   -0.0000000

LOEWDIN ATOMIC CHARGES
----------------------
   0 S :    0.408051
   1 C :   -0.201371
   2 C :   -0.069824
   3 C :   -0.056909
   4 C :   -0.184352
   5 H :    0.028711
   6 C :   -0.015848
   7 H :    0.021911
   8 H :    0.029545
   9 C :   -0.045150
  10 H :    0.031978
  11 H :    0.022757
  12 C :   -0.086241
  13 H :    0.029521
  14 H :    0.033414
  15 H :    0.028239
  16 S :    0.373779
  17 C :   -0.180619
  18 C :   -0.084019
  19 C :   -0.056763
  20 C :   -0.186841
  21 H :    0.035271
  22 C :   -0.026656
  23 H :    0.045986
  24 H :    0.015367
  25 C :   -0.032188
  26 H :    0.020257
  27 H :    0.011980
  28 C :   -0.065520
  29 H :    0.024930
  30 H :    0.031082
  31 H :    0.021625
  32 H :    0.032219
  33 H :    0.045679

  Mayer bond orders larger than 0.100000
B(  0-S ,  1-C ) :   1.1261 B(  0-S ,  4-C ) :   1.1617 B(  1-C ,  2-C ) :   1.6170
B(  1-C , 32-H ) :   0.9697 B(  2-C ,  3-C ) :   1.2574 B(  2-C ,  6-C ) :   1.0177
B(  3-C ,  4-C ) :   1.5654 B(  3-C ,  5-H ) :   0.9944 B(  4-C , 20-C ) :   1.0423
B(  6-C ,  7-H ) :   0.9357 B(  6-C ,  8-H ) :   0.9425 B(  6-C ,  9-C ) :   1.0380
B(  9-C , 10-H ) :   0.9561 B(  9-C , 11-H ) :   0.9557 B(  9-C , 12-C ) :   1.0903
B( 12-C , 13-H ) :   0.9688 B( 12-C , 14-H ) :   0.9731 B( 12-C , 15-H ) :   0.9724
B( 16-S , 17-C ) :   1.1375 B( 16-S , 20-C ) :   1.0983 B( 17-C , 18-C ) :   1.6451
B( 17-C , 33-H ) :   0.9605 B( 18-C , 19-C ) :   1.2027 B( 18-C , 21-H ) :   0.9767
B( 19-C , 20-C ) :   1.6289 B( 19-C , 22-C ) :   1.0459 B( 22-C , 23-H ) :   0.9288
B( 22-C , 24-H ) :   0.9318 B( 22-C , 25-C ) :   1.0769 B( 25-C , 26-H ) :   0.9573
B( 25-C , 27-H ) :   0.9387 B( 25-C , 28-C ) :   1.0773 B( 28-C , 29-H ) :   0.9706
B( 28-C , 30-H ) :   0.9688 B( 28-C , 31-H ) :   0.9719

Dispersion correction           -0.013314634
FINAL SINGLE POINT ENERGY     -1339.842821856602

DIPOLE MOMENT
-------------
                                X             Y             Z
Electronic contribution:    -16.71482     -15.55059     -14.11284
Nuclear contribution   :     17.03939      16.14247      14.45873
                        -----------------------------------------
Total Dipole Moment    :      0.32456       0.59188       0.34588
                        -----------------------------------------
Magnitude (a.u.)       :      0.75848
Magnitude (Debye)      :      1.92791

Rotational constants in cm-1:     0.017877     0.007684     0.006192
Rotational constants in MHz :   535.939725   230.367823   185.630236

                             ****ORCA TERMINATED NORMALLY****
TOTAL RUN TIME: 0 days 0 hours 0 minutes 33 seconds 452 msec
