                         Program Version 4.2.1 -  RELEASE  -
|  1> ! wB97X-D3 SP def2-SVP
|  2> %pal
|  3> nprocs 16
|  4> end
|  5>
|  6> * xyz 0 1
|  7> S 	 0.448631 	 79.5319 	 50.537
|  8> C 	 1.88857 	 80.0342 	 49.626
|  9> C 	 2.82395 	 78.9733 	 49.5536
| 10> C 	 2.40947 	 77.8301 	 50.3299
| 11> C 	 1.16403 	 77.9453 	 50.901
| 12> H 	 3.01068 	 76.9453 	 50.3325
| 13> C 	 4.08397 	 79.0379 	 48.7814
| 14> H 	 4.32861 	 80.046 	 48.46
| 15> H 	 3.734 	 78.6294 	 47.8226
| 16> C 	 5.336 	 78.2594 	 49.3038
| 17> H 	 5.59202 	 78.7909 	 50.2319
| 18> H 	 5.03434 	 77.2966 	 49.7344
| 19> C 	 6.52378 	 78.1145 	 48.3884
| 20> H 	 6.75925 	 79.109 	 47.9956
| 21> H 	 7.39132 	 77.7304 	 48.8416
| 22> H 	 6.35716 	 77.6184 	 47.46
| 23> S 	 -0.653129 	 77.5523 	 52.9508
| 24> C 	 -1.1417 	 75.9595 	 53.4708
| 25> C 	 -0.375451 	 74.9943 	 52.8225
| 26> C 	 0.480939 	 75.5114 	 51.7854
| 27> C 	 0.464976 	 76.9238 	 51.7505
| 28> H 	 -0.534202 	 73.9258 	 52.8987
| 29> C 	 1.16053 	 74.5858 	 50.7425
| 30> H 	 1.61509 	 75.2075 	 50.0594
| 31> H 	 0.386637 	 74.0139 	 50.2791
| 32> C 	 2.18386 	 73.6214 	 51.407
| 33> H 	 2.53114 	 72.9185 	 50.6077
| 34> H 	 1.80693 	 72.904 	 52.0777
| 35> C 	 3.44467 	 74.2345 	 51.8394
| 36> H 	 3.38996 	 75.0043 	 52.5879
| 37> H 	 3.8417 	 74.8163 	 50.9583
| 38> H 	 4.14871 	 73.422 	 52.0852
| 39> H 	 1.99737 	 80.888 	 48.9541
| 40> H 	 -2.04875 	 75.8179 	 54.0351
| 41> *
| 42>
| 43>                          ****END OF INPUT****

CARTESIAN COORDINATES (ANGSTROEM)
---------------------------------
  S      0.448631   79.531900   50.537000
  C      1.888570   80.034200   49.626000
  C      2.823950   78.973300   49.553600
  C      2.409470   77.830100   50.329900
  C      1.164030   77.945300   50.901000
  H      3.010680   76.945300   50.332500
  C      4.083970   79.037900   48.781400
  H      4.328610   80.046000   48.460000
  H      3.734000   78.629400   47.822600
  C      5.336000   78.259400   49.303800
  H      5.592020   78.790900   50.231900
  H      5.034340   77.296600   49.734400
  C      6.523780   78.114500   48.388400
  H      6.759250   79.109000   47.995600
  H      7.391320   77.730400   48.841600
  H      6.357160   77.618400   47.460000
  S     -0.653129   77.552300   52.950800
  C     -1.141700   75.959500   53.470800
  C     -0.375451   74.994300   52.822500
  C      0.480939   75.511400   51.785400
  C      0.464976   76.923800   51.750500
  H     -0.534202   73.925800   52.898700
  C      1.160530   74.585800   50.742500
  H      1.615090   75.207500   50.059400
  H      0.386637   74.013900   50.279100
  C      2.183860   73.621400   51.407000
  H      2.531140   72.918500   50.607700
  H      1.806930   72.904000   52.077700
  C      3.444670   74.234500   51.839400
  H      3.389960   75.004300   52.587900
  H      3.841700   74.816300   50.958300
  H      4.148710   73.422000   52.085200
  H      1.997370   80.888000   48.954100
  H     -2.048750   75.817900   54.035100

 Total Charge           Charge          ....    0
 Multiplicity           Mult            ....    1
 Number of Electrons    NEL             ....  134
 Basis Dimension        Dim             ....  322

ORBITAL ENERGIES
----------------

  NO   OCC          E(Eh)            E(eV)
   0   2.0000     -88.969623     -2420.9865
   1   2.0000     -88.963688     -2420.8250
   2   2.0000     -10.338438      -281.3232
   3   2.0000     -10.333924      -281.2004
   4   2.0000     -10.320240      -280.8280
   5   2.0000     -10.317164      -280.7443
   6   2.0000     -10.308096      -280.4975
   7   2.0000     -10.305922      -280.4384
   8   2.0000     -10.297886      -280.2197
   9   2.0000     -10.295371      -280.1513
  10   2.0000     -10.293994      -280.1138
  11   2.0000     -10.293973      -280.1133
  12   2.0000     -10.291136      -280.0361
  13   2.0000     -10.283919      -279.8397
  14   2.0000     -10.278088      -279.6810
  15   2.0000     -10.276332      -279.6332
  16   2.0000      -8.082973      -219.9489
  17   2.0000      -8.078581      -219.8294
  18   2.0000      -6.041687      -164.4027
  19   2.0000      -6.037679      -164.2936
  20   2.0000      -6.037066      -164.2769
  21   2.0000      -6.033592      -164.1824
  22   2.0000      -6.032965      -164.1653
  23   2.0000      -6.029470      -164.0702
  24   2.0000      -0.999531       -27.1986
  25   2.0000      -0.978503       -26.6264
  26   2.0000      -0.915801       -24.9202
  27   2.0000      -0.912505       -24.8305
  28   2.0000      -0.866693       -23.5839
  29   2.0000      -0.854628       -23.2556
  30   2.0000      -0.846823       -23.0432
  31   2.0000      -0.817722       -22.2514
  32   2.0000      -0.785430       -21.3726
  33   2.0000      -0.773421       -21.0459
  34   2.0000      -0.716887       -19.5075
  35   2.0000      -0.703116       -19.1328
  36   2.0000      -0.692895       -18.8546
  37   2.0000      -0.657938       -17.9034
  38   2.0000      -0.636615       -17.3232
  39   2.0000      -0.626259       -17.0414
  40   2.0000      -0.599610       -16.3162
  41   2.0000      -0.563600       -15.3363
  42   2.0000      -0.561484       -15.2787
  43   2.0000      -0.556322       -15.1383
  44   2.0000      -0.546204       -14.8630
  45   2.0000      -0.530858       -14.4454
  46   2.0000      -0.523836       -14.2543
  47   2.0000      -0.515305       -14.0222
  48   2.0000      -0.504351       -13.7241
  49   2.0000      -0.499530       -13.5929
  50   2.0000      -0.493557       -13.4304
  51   2.0000      -0.485089       -13.1999
  52   2.0000      -0.468924       -12.7601
  53   2.0000      -0.466274       -12.6880
  54   2.0000      -0.463729       -12.6187
  55   2.0000      -0.456684       -12.4270
  56   2.0000      -0.446334       -12.1454
  57   2.0000      -0.440599       -11.9893
  58   2.0000      -0.435011       -11.8372
  59   2.0000      -0.432212       -11.7611
  60   2.0000      -0.420744       -11.4490
  61   2.0000      -0.413396       -11.2491
  62   2.0000      -0.402119       -10.9422
  63   2.0000      -0.353154        -9.6098
  64   2.0000      -0.331283        -9.0147
  65   2.0000      -0.325279        -8.8513
  66   2.0000      -0.284439        -7.7400
  67   0.0000       0.020872         0.5679
  68   0.0000       0.078308         2.1309
  69   0.0000       0.101703         2.7675
  70   0.0000       0.115864         3.1528
  71   0.0000       0.124867         3.3978

MULLIKEN ATOMIC CHARGES
-----------------------
   0 S :    0.105826
   1 C :   -0.119820
   2 C :   -0.113446
   3 C :    0.031227
   4 C :   -0.096607
   5 H :   -0.028987
   6 C :    0.066526
   7 H :    0.012317
   8 H :    0.033771
   9 C :   -0.087204
  10 H :    0.034752
  11 H :    0.025086
  12 C :    0.006161
  13 H :    0.013098
  14 H :    0.032345
  15 H :    0.020285
  16 S :    0.089535
  17 C :   -0.095367
  18 C :   -0.013669
  19 C :   -0.097184
  20 C :   -0.145736
  21 H :    0.018015
  22 C :    0.152082
  23 H :   -0.010849
  24 H :    0.032037
  25 C :   -0.085723
  26 H :    0.020682
  27 H :    0.017990
  28 C :   -0.044260
  29 H :    0.039931
  30 H :    0.023191
  31 H :    0.041690
  32 H :    0.053230
  33 H :    0.069073
Sum of atomic charges:   -0.0000000

LOEWDIN ATOMIC CHARGES
----------------------
   0 S :    0.386049
   1 C :   -0.206509
   2 C :   -0.052364
   3 C :   -0.069997
   4 C :   -0.175672
   5 H :    0.020363
   6 C :   -0.038921
   7 H :    0.028753
   8 H :    0.038695
   9 C :   -0.042642
  10 H :    0.031171
  11 H :    0.020562
  12 C :   -0.059659
  13 H :    0.028151
  14 H :    0.025051
  15 H :    0.023362
  16 S :    0.402013
  17 C :   -0.184956
  18 C :   -0.068725
  19 C :   -0.057508
  20 C :   -0.195297
  21 H :    0.029400
  22 C :   -0.008466
  23 H :    0.015881
  24 H :    0.033211
  25 C :   -0.046150
  26 H :    0.030968
  27 H :    0.015302
  28 C :   -0.065042
  29 H :    0.021070
  30 H :    0.025474
  31 H :    0.033567
  32 H :    0.032263
  33 H :    0.030604

  Mayer bond orders larger than 0.100000
B(  0-S ,  1-C ) :   1.1185 B(  0-S ,  4-C ) :   1.1474 B(  1-C ,  2-C ) :   1.6084
B(  1-C , 32-H ) :   0.9626 B(  2-C ,  3-C ) :   1.2539 B(  2-C ,  6-C ) :   1.0291
B(  3-C ,  4-C ) :   1.5656 B(  3-C ,  5-H ) :   0.9850 B(  4-C , 20-C ) :   1.0392
B(  6-C ,  7-H ) :   0.9381 B(  6-C ,  8-H ) :   0.9227 B(  6-C ,  9-C ) :   1.0494
B(  9-C , 10-H ) :   0.9536 B(  9-C , 11-H ) :   0.9528 B(  9-C , 12-C ) :   1.0898
B( 12-C , 13-H ) :   0.9682 B( 12-C , 14-H ) :   0.9720 B( 12-C , 15-H ) :   0.9729
B( 16-S , 17-C ) :   1.1599 B( 16-S , 20-C ) :   1.1488 B( 17-C , 18-C ) :   1.5776
B( 17-C , 33-H ) :   0.9720 B( 18-C , 19-C ) :   1.2687 B( 18-C , 21-H ) :   0.9842
B( 19-C , 20-C ) :   1.5735 B( 19-C , 22-C ) :   1.0283 B( 22-C , 23-H ) :   0.9332
B( 22-C , 24-H ) :   0.9338 B( 22-C , 25-C ) :   1.0767 B( 25-C , 26-H ) :   0.9491
B( 25-C , 27-H ) :   0.9563 B( 25-C , 28-C ) :   1.0811 B( 28-C , 29-H ) :   0.9754
B( 28-C , 30-H ) :   0.9651 B( 28-C , 31-H ) :   0.9675

Dispersion correction           -0.014440170
FINAL SINGLE POINT ENERGY     -1339.871109583260

DIPOLE MOMENT
-------------
                                X             Y             Z
Electronic contribution:    -27.07368      14.06158      11.02053
Nuclear contribution   :     27.52261     -14.64205     -11.53518
                        -----------------------------------------
Total Dipole Moment    :      0.44894      -0.58047      -0.51466
                        -----------------------------------------
Magnitude (a.u.)       :      0.89630
Magnitude (Debye)      :      2.27822

Rotational constants in cm-1:     0.017815     0.009404     0.006489
Rotational constants in MHz :   534.086347   281.933077   194.549093

                             ****ORCA TERMINATED NORMALLY****
TOTAL RUN TIME: 0 days 0 hours 0 minutes 34 seconds 170 msec
