                         Program Version 4.2.1 -  RELEASE  -
|  1> ! wB97X-D3 SP def2-SVP
|  2> %pal
|  3> nprocs 16
|  4> end
|  5>
|  6> * xyz 0 1
|  7> S 	 -4.24833 	 76.8839 	 56.2155
|  8> C 	 -4.30746 	 75.4256 	 57.0163
|  9> C 	 -3.18926 	 74.6063 	 56.9064
| 10> C 	 -2.19554 	 75.2335 	 56.0774
| 11> C 	 -2.54617 	 76.5219 	 55.7107
| 12> H 	 -1.22912 	 74.867 	 55.7478
| 13> C 	 -2.98514 	 73.1847 	 57.3181
| 14> H 	 -3.00977 	 72.5655 	 56.3982
| 15> H 	 -3.91978 	 72.8367 	 57.835
| 16> C 	 -1.66797 	 73.0029 	 58.131
| 17> H 	 -0.795939 	 73.0257 	 57.4372
| 18> H 	 -1.54461 	 73.702 	 58.8899
| 19> C 	 -1.68102 	 71.6592 	 58.7804
| 20> H 	 -0.779071 	 71.4648 	 59.4224
| 21> H 	 -2.52308 	 71.6363 	 59.4818
| 22> H 	 -1.80994 	 70.833 	 58.0959
| 23> S 	 -2.91422 	 77.5014 	 53.1515
| 24> C 	 -1.53833 	 78.2227 	 52.3234
| 25> C 	 -0.41603 	 78.1142 	 53.0529
| 26> C 	 -0.606235 	 77.6377 	 54.3898
| 27> C 	 -1.92862 	 77.292 	 54.6368
| 28> H 	 0.503929 	 78.3699 	 52.6459
| 29> C 	 0.595293 	 77.596 	 55.2993
| 30> H 	 1.00115 	 76.6254 	 55.2245
| 31> H 	 0.238498 	 77.6873 	 56.3983
| 32> C 	 1.77764 	 78.5309 	 55.1594
| 33> H 	 2.34856 	 78.3976 	 54.2243
| 34> H 	 2.51848 	 78.5336 	 55.9242
| 35> C 	 1.44566 	 80.0125 	 55.3104
| 36> H 	 2.3783 	 80.4653 	 54.9485
| 37> H 	 1.30453 	 80.254 	 56.3416
| 38> H 	 0.633736 	 80.2521 	 54.6123
| 39> H 	 -5.18399 	 75.1895 	 57.5434
| 40> H 	 -1.53286 	 78.5079 	 51.3485
| 41> *
| 42>
| 43>                          ****END OF INPUT****

CARTESIAN COORDINATES (ANGSTROEM)
---------------------------------
  S     -4.248330   76.883900   56.215500
  C     -4.307460   75.425600   57.016300
  C     -3.189260   74.606300   56.906400
  C     -2.195540   75.233500   56.077400
  C     -2.546170   76.521900   55.710700
  H     -1.229120   74.867000   55.747800
  C     -2.985140   73.184700   57.318100
  H     -3.009770   72.565500   56.398200
  H     -3.919780   72.836700   57.835000
  C     -1.667970   73.002900   58.131000
  H     -0.795939   73.025700   57.437200
  H     -1.544610   73.702000   58.889900
  C     -1.681020   71.659200   58.780400
  H     -0.779071   71.464800   59.422400
  H     -2.523080   71.636300   59.481800
  H     -1.809940   70.833000   58.095900
  S     -2.914220   77.501400   53.151500
  C     -1.538330   78.222700   52.323400
  C     -0.416030   78.114200   53.052900
  C     -0.606235   77.637700   54.389800
  C     -1.928620   77.292000   54.636800
  H      0.503929   78.369900   52.645900
  C      0.595293   77.596000   55.299300
  H      1.001150   76.625400   55.224500
  H      0.238498   77.687300   56.398300
  C      1.777640   78.530900   55.159400
  H      2.348560   78.397600   54.224300
  H      2.518480   78.533600   55.924200
  C      1.445660   80.012500   55.310400
  H      2.378300   80.465300   54.948500
  H      1.304530   80.254000   56.341600
  H      0.633736   80.252100   54.612300
  H     -5.183990   75.189500   57.543400
  H     -1.532860   78.507900   51.348500

 Total Charge           Charge          ....    0
 Multiplicity           Mult            ....    1
 Number of Electrons    NEL             ....  134
 Basis Dimension        Dim             ....  322

ORBITAL ENERGIES
----------------

  NO   OCC          E(Eh)            E(eV)
   0   2.0000     -88.964688     -2420.8522
   1   2.0000     -88.960418     -2420.7361
   2   2.0000     -10.328236      -281.0456
   3   2.0000     -10.327508      -281.0258
   4   2.0000     -10.308077      -280.4970
   5   2.0000     -10.305639      -280.4307
   6   2.0000     -10.303067      -280.3607
   7   2.0000     -10.299927      -280.2753
   8   2.0000     -10.298137      -280.2266
   9   2.0000     -10.296755      -280.1890
  10   2.0000     -10.292668      -280.0777
  11   2.0000     -10.285844      -279.8920
  12   2.0000     -10.282525      -279.8017
  13   2.0000     -10.282159      -279.7918
  14   2.0000     -10.277441      -279.6634
  15   2.0000     -10.270274      -279.4684
  16   2.0000      -8.080456      -219.8804
  17   2.0000      -8.074620      -219.7216
  18   2.0000      -6.038720      -164.3219
  19   2.0000      -6.034926      -164.2187
  20   2.0000      -6.033313      -164.1748
  21   2.0000      -6.031298      -164.1200
  22   2.0000      -6.029305      -164.0657
  23   2.0000      -6.025105      -163.9514
  24   2.0000      -1.004765       -27.3410
  25   2.0000      -0.983964       -26.7750
  26   2.0000      -0.915719       -24.9180
  27   2.0000      -0.912401       -24.8277
  28   2.0000      -0.874441       -23.7947
  29   2.0000      -0.857947       -23.3459
  30   2.0000      -0.849311       -23.1109
  31   2.0000      -0.816751       -22.2249
  32   2.0000      -0.782256       -21.2863
  33   2.0000      -0.767126       -20.8746
  34   2.0000      -0.709308       -19.3013
  35   2.0000      -0.696356       -18.9488
  36   2.0000      -0.690399       -18.7867
  37   2.0000      -0.661643       -18.0042
  38   2.0000      -0.650327       -17.6963
  39   2.0000      -0.617387       -16.8000
  40   2.0000      -0.599504       -16.3133
  41   2.0000      -0.576225       -15.6799
  42   2.0000      -0.560146       -15.2423
  43   2.0000      -0.555795       -15.1240
  44   2.0000      -0.553695       -15.0668
  45   2.0000      -0.529711       -14.4142
  46   2.0000      -0.521337       -14.1863
  47   2.0000      -0.513276       -13.9670
  48   2.0000      -0.507203       -13.8017
  49   2.0000      -0.497113       -13.5271
  50   2.0000      -0.488565       -13.2945
  51   2.0000      -0.478123       -13.0104
  52   2.0000      -0.468390       -12.7456
  53   2.0000      -0.462153       -12.5758
  54   2.0000      -0.460823       -12.5396
  55   2.0000      -0.446883       -12.1603
  56   2.0000      -0.443535       -12.0692
  57   2.0000      -0.438584       -11.9345
  58   2.0000      -0.429537       -11.6883
  59   2.0000      -0.426988       -11.6189
  60   2.0000      -0.422086       -11.4855
  61   2.0000      -0.421199       -11.4614
  62   2.0000      -0.400633       -10.9018
  63   2.0000      -0.353124        -9.6090
  64   2.0000      -0.326797        -8.8926
  65   2.0000      -0.324413        -8.8277
  66   2.0000      -0.289741        -7.8842
  67   0.0000       0.031327         0.8525
  68   0.0000       0.069298         1.8857
  69   0.0000       0.107825         2.9341
  70   0.0000       0.123011         3.3473
  71   0.0000       0.130336         3.5466

MULLIKEN ATOMIC CHARGES
-----------------------
   0 S :    0.107406
   1 C :   -0.098981
   2 C :   -0.067312
   3 C :    0.032459
   4 C :   -0.176595
   5 H :    0.020984
   6 C :    0.032118
   7 H :    0.046325
   8 H :    0.019005
   9 C :   -0.046484
  10 H :    0.037816
  11 H :    0.024957
  12 C :   -0.054168
  13 H :    0.037275
  14 H :    0.022475
  15 H :    0.026294
  16 S :    0.085512
  17 C :   -0.032265
  18 C :   -0.016311
  19 C :   -0.043035
  20 C :   -0.138516
  21 H :   -0.011847
  22 C :    0.084331
  23 H :    0.027850
  24 H :    0.040651
  25 C :   -0.101558
  26 H :    0.025071
  27 H :    0.018328
  28 C :   -0.047919
  29 H :    0.025534
  30 H :    0.034505
  31 H :    0.041511
  32 H :    0.029469
  33 H :    0.015115
Sum of atomic charges:    0.0000000

LOEWDIN ATOMIC CHARGES
----------------------
   0 S :    0.414801
   1 C :   -0.207558
   2 C :   -0.071134
   3 C :   -0.039935
   4 C :   -0.186484
   5 H :    0.033767
   6 C :   -0.035401
   7 H :    0.039787
   8 H :    0.031158
   9 C :   -0.034080
  10 H :    0.028745
  11 H :    0.019619
  12 C :   -0.066940
  13 H :    0.029305
  14 H :    0.022926
  15 H :    0.020787
  16 S :    0.375548
  17 C :   -0.159186
  18 C :   -0.063413
  19 C :   -0.056772
  20 C :   -0.184232
  21 H :    0.019187
  22 C :   -0.039887
  23 H :    0.028198
  24 H :    0.044375
  25 C :   -0.050082
  26 H :    0.020017
  27 H :    0.027189
  28 C :   -0.058508
  29 H :    0.028267
  30 H :    0.020587
  31 H :    0.023788
  32 H :    0.015523
  33 H :    0.010039

  Mayer bond orders larger than 0.100000
B(  0-S ,  1-C ) :   1.1692 B(  0-S ,  4-C ) :   1.1353 B(  1-C ,  2-C ) :   1.5928
B(  1-C , 32-H ) :   0.9705 B(  2-C ,  3-C ) :   1.2255 B(  2-C ,  6-C ) :   1.0358
B(  3-C ,  4-C ) :   1.5917 B(  3-C ,  5-H ) :   0.9880 B(  4-C , 20-C ) :   1.0379
B(  6-C ,  7-H ) :   0.9335 B(  6-C ,  8-H ) :   0.9478 B(  6-C ,  9-C ) :   1.0472
B(  9-C , 10-H ) :   0.9483 B(  9-C , 11-H ) :   0.9611 B(  9-C , 12-C ) :   1.0979
B( 12-C , 13-H ) :   0.9729 B( 12-C , 14-H ) :   0.9745 B( 12-C , 15-H ) :   0.9711
B( 16-S , 17-C ) :   1.1321 B( 16-S , 20-C ) :   1.1240 B( 17-C , 18-C ) :   1.6403
B( 17-C , 33-H ) :   0.9737 B( 18-C , 19-C ) :   1.2221 B( 18-C , 21-H ) :   0.9959
B( 19-C , 20-C ) :   1.6305 B( 19-C , 22-C ) :   1.0305 B( 22-C , 23-H ) :   0.9196
B( 22-C , 24-H ) :   0.9372 B( 22-C , 25-C ) :   1.0860 B( 25-C , 26-H ) :   0.9495
B( 25-C , 27-H ) :   0.9567 B( 25-C , 28-C ) :   1.0682 B( 28-C , 29-H ) :   0.9762
B( 28-C , 30-H ) :   0.9806 B( 28-C , 31-H ) :   0.9754

Dispersion correction           -0.013737008
FINAL SINGLE POINT ENERGY     -1339.859710237371

DIPOLE MOMENT
-------------
                                X             Y             Z
Electronic contribution:    -20.68839       9.58004     -12.70153
Nuclear contribution   :     21.24889     -10.08772      12.82148
                        -----------------------------------------
Total Dipole Moment    :      0.56050      -0.50768       0.11995
                        -----------------------------------------
Magnitude (a.u.)       :      0.76570
Magnitude (Debye)      :      1.94625

Rotational constants in cm-1:     0.018882     0.007900     0.006361
Rotational constants in MHz :   566.057407   236.831716   190.704996

                             ****ORCA TERMINATED NORMALLY****
TOTAL RUN TIME: 0 days 0 hours 0 minutes 33 seconds 290 msec
