                         Program Version 4.2.1 -  RELEASE  -
|  1> ! wB97X-D3 SP def2-SVP
|  2> %pal
|  3> nprocs 16
|  4> end
|  5>
|  6> * xyz 0 1
|  7> S 	 -2.16452 	 -17.7656 	 85.1565
|  8> C 	 -0.664334 	 -17.9802 	 84.2984
|  9> C 	 -0.0486487 	 -19.1601 	 84.6363
| 10> C 	 -0.752934 	 -19.782 	 85.6786
| 11> C 	 -1.91248 	 -19.1169 	 86.1566
| 12> H 	 -0.58667 	 -20.7916 	 86.1915
| 13> C 	 1.271 	 -19.6783 	 83.9982
| 14> H 	 1.64868 	 -18.8819 	 83.3688
| 15> H 	 1.0147 	 -20.5456 	 83.3512
| 16> C 	 2.44245 	 -19.936 	 85.0237
| 17> H 	 2.42412 	 -19.0892 	 85.7079
| 18> H 	 2.241 	 -20.7471 	 85.604
| 19> C 	 3.87102 	 -20.0967 	 84.4498
| 20> H 	 4.61347 	 -20.2634 	 85.2291
| 21> H 	 3.92686 	 -20.8765 	 83.6687
| 22> H 	 4.06171 	 -19.0838 	 83.9677
| 23> S 	 -3.23955 	 -21.2583 	 87.162
| 24> C 	 -4.12596 	 -21.1251 	 88.6778
| 25> C 	 -4.34361 	 -19.785 	 89.0417
| 26> C 	 -3.55824 	 -18.8559 	 88.2436
| 27> C 	 -2.8112 	 -19.4932 	 87.2137
| 28> H 	 -4.87563 	 -19.5495 	 90.0078
| 29> C 	 -3.54756 	 -17.4152 	 88.5667
| 30> H 	 -3.84701 	 -16.9414 	 87.6456
| 31> H 	 -2.48715 	 -17.0839 	 88.6332
| 32> C 	 -4.32852 	 -16.8231 	 89.755
| 33> H 	 -3.94568 	 -17.2333 	 90.6658
| 34> H 	 -5.35921 	 -17.0625 	 89.6933
| 35> C 	 -4.43123 	 -15.2909 	 89.7048
| 36> H 	 -3.34873 	 -14.8796 	 89.8364
| 37> H 	 -5.04709 	 -14.8883 	 90.5555
| 38> H 	 -4.66935 	 -14.8803 	 88.7159
| 39> H 	 -0.186165 	 -17.2465 	 83.6862
| 40> H 	 -4.40863 	 -21.9515 	 89.2593
| 41> *
| 42>
| 43>                          ****END OF INPUT****

CARTESIAN COORDINATES (ANGSTROEM)
---------------------------------
  S     -2.164520  -17.765600   85.156500
  C     -0.664334  -17.980200   84.298400
  C     -0.048649  -19.160100   84.636300
  C     -0.752934  -19.782000   85.678600
  C     -1.912480  -19.116900   86.156600
  H     -0.586670  -20.791600   86.191500
  C      1.271000  -19.678300   83.998200
  H      1.648680  -18.881900   83.368800
  H      1.014700  -20.545600   83.351200
  C      2.442450  -19.936000   85.023700
  H      2.424120  -19.089200   85.707900
  H      2.241000  -20.747100   85.604000
  C      3.871020  -20.096700   84.449800
  H      4.613470  -20.263400   85.229100
  H      3.926860  -20.876500   83.668700
  H      4.061710  -19.083800   83.967700
  S     -3.239550  -21.258300   87.162000
  C     -4.125960  -21.125100   88.677800
  C     -4.343610  -19.785000   89.041700
  C     -3.558240  -18.855900   88.243600
  C     -2.811200  -19.493200   87.213700
  H     -4.875630  -19.549500   90.007800
  C     -3.547560  -17.415200   88.566700
  H     -3.847010  -16.941400   87.645600
  H     -2.487150  -17.083900   88.633200
  C     -4.328520  -16.823100   89.755000
  H     -3.945680  -17.233300   90.665800
  H     -5.359210  -17.062500   89.693300
  C     -4.431230  -15.290900   89.704800
  H     -3.348730  -14.879600   89.836400
  H     -5.047090  -14.888300   90.555500
  H     -4.669350  -14.880300   88.715900
  H     -0.186165  -17.246500   83.686200
  H     -4.408630  -21.951500   89.259300

 Total Charge           Charge          ....    0
 Multiplicity           Mult            ....    1
 Number of Electrons    NEL             ....  134
 Basis Dimension        Dim             ....  322

ORBITAL ENERGIES
----------------

  NO   OCC          E(Eh)            E(eV)
   0   2.0000     -88.966953     -2420.9139
   1   2.0000     -88.964249     -2420.8403
   2   2.0000     -10.333240      -281.1818
   3   2.0000     -10.328157      -281.0435
   4   2.0000     -10.319592      -280.8104
   5   2.0000     -10.314964      -280.6844
   6   2.0000     -10.311152      -280.5807
   7   2.0000     -10.303641      -280.3763
   8   2.0000     -10.303145      -280.3628
   9   2.0000     -10.301201      -280.3099
  10   2.0000     -10.298305      -280.2311
  11   2.0000     -10.292223      -280.0656
  12   2.0000     -10.290878      -280.0290
  13   2.0000     -10.287032      -279.9244
  14   2.0000     -10.286966      -279.9226
  15   2.0000     -10.281320      -279.7689
  16   2.0000      -8.082357      -219.9321
  17   2.0000      -8.077781      -219.8076
  18   2.0000      -6.040630      -164.3739
  19   2.0000      -6.036675      -164.2663
  20   2.0000      -6.036343      -164.2572
  21   2.0000      -6.033433      -164.1781
  22   2.0000      -6.032504      -164.1528
  23   2.0000      -6.028510      -164.0441
  24   2.0000      -1.007891       -27.4261
  25   2.0000      -0.977845       -26.6085
  26   2.0000      -0.911961       -24.8157
  27   2.0000      -0.905831       -24.6489
  28   2.0000      -0.870407       -23.6850
  29   2.0000      -0.851853       -23.1801
  30   2.0000      -0.844846       -22.9894
  31   2.0000      -0.806922       -21.9575
  32   2.0000      -0.782753       -21.2998
  33   2.0000      -0.768718       -20.9179
  34   2.0000      -0.712503       -19.3882
  35   2.0000      -0.706125       -19.2146
  36   2.0000      -0.693202       -18.8630
  37   2.0000      -0.660466       -17.9722
  38   2.0000      -0.631276       -17.1779
  39   2.0000      -0.612435       -16.6652
  40   2.0000      -0.597585       -16.2611
  41   2.0000      -0.571846       -15.5607
  42   2.0000      -0.567642       -15.4463
  43   2.0000      -0.563523       -15.3342
  44   2.0000      -0.534346       -14.5403
  45   2.0000      -0.526081       -14.3154
  46   2.0000      -0.515447       -14.0260
  47   2.0000      -0.509667       -13.8687
  48   2.0000      -0.503992       -13.7143
  49   2.0000      -0.494390       -13.4530
  50   2.0000      -0.487466       -13.2646
  51   2.0000      -0.482060       -13.1175
  52   2.0000      -0.471973       -12.8431
  53   2.0000      -0.465181       -12.6582
  54   2.0000      -0.455201       -12.3866
  55   2.0000      -0.451998       -12.2995
  56   2.0000      -0.442402       -12.0384
  57   2.0000      -0.438078       -11.9207
  58   2.0000      -0.430852       -11.7241
  59   2.0000      -0.425132       -11.5684
  60   2.0000      -0.420638       -11.4462
  61   2.0000      -0.418631       -11.3915
  62   2.0000      -0.410555       -11.1718
  63   2.0000      -0.343021        -9.3341
  64   2.0000      -0.333435        -9.0732
  65   2.0000      -0.327580        -8.9139
  66   2.0000      -0.285720        -7.7748
  67   0.0000       0.015908         0.4329
  68   0.0000       0.078063         2.1242
  69   0.0000       0.101168         2.7529
  70   0.0000       0.123119         3.3502
  71   0.0000       0.129485         3.5235

MULLIKEN ATOMIC CHARGES
-----------------------
   0 S :    0.118626
   1 C :   -0.122171
   2 C :   -0.083995
   3 C :   -0.008172
   4 C :   -0.174342
   5 H :    0.035866
   6 C :    0.082767
   7 H :    0.006004
   8 H :    0.053205
   9 C :   -0.063217
  10 H :    0.030056
  11 H :    0.012213
  12 C :   -0.071575
  13 H :    0.046356
  14 H :    0.040592
  15 H :    0.034806
  16 S :    0.085454
  17 C :   -0.071106
  18 C :   -0.066423
  19 C :   -0.025087
  20 C :   -0.140894
  21 H :    0.049214
  22 C :    0.027405
  23 H :    0.020951
  24 H :    0.040217
  25 C :   -0.040099
  26 H :    0.032918
  27 H :    0.024565
  28 C :   -0.082538
  29 H :    0.027112
  30 H :    0.054746
  31 H :    0.040811
  32 H :    0.040832
  33 H :    0.044902
Sum of atomic charges:   -0.0000000

LOEWDIN ATOMIC CHARGES
----------------------
   0 S :    0.437133
   1 C :   -0.198726
   2 C :   -0.067230
   3 C :   -0.077971
   4 C :   -0.226092
   5 H :    0.036069
   6 C :   -0.022321
   7 H :    0.024775
   8 H :    0.037812
   9 C :   -0.036629
  10 H :    0.027562
  11 H :    0.006441
  12 C :   -0.066560
  13 H :    0.028915
  14 H :    0.026038
  15 H :    0.030337
  16 S :    0.381283
  17 C :   -0.168495
  18 C :   -0.081365
  19 C :   -0.044624
  20 C :   -0.184529
  21 H :    0.043229
  22 C :   -0.044802
  23 H :    0.030171
  24 H :    0.042016
  25 C :   -0.039848
  26 H :    0.022361
  27 H :    0.020915
  28 C :   -0.070175
  29 H :    0.028872
  30 H :    0.034717
  31 H :    0.027427
  32 H :    0.024510
  33 H :    0.018785

  Mayer bond orders larger than 0.100000
B(  0-S ,  1-C ) :   1.1611 B(  0-S ,  4-C ) :   1.1668 B(  1-C ,  2-C ) :   1.5776
B(  1-C ,  4-C ) :   0.1043 B(  1-C , 32-H ) :   0.9666 B(  2-C ,  3-C ) :   1.2821
B(  2-C ,  6-C ) :   1.0205 B(  3-C ,  4-C ) :   1.5171 B(  3-C ,  5-H ) :   0.9788
B(  4-C , 20-C ) :   1.0840 B(  6-C ,  7-H ) :   0.9426 B(  6-C ,  8-H ) :   0.9378
B(  6-C ,  9-C ) :   1.0506 B(  9-C , 10-H ) :   0.9589 B(  9-C , 11-H ) :   0.9557
B(  9-C , 12-C ) :   1.0838 B( 12-C , 13-H ) :   0.9746 B( 12-C , 14-H ) :   0.9764
B( 12-C , 15-H ) :   0.9769 B( 16-S , 17-C ) :   1.1612 B( 16-S , 20-C ) :   1.1107
B( 17-C , 18-C ) :   1.5967 B( 17-C , 20-C ) :   0.1044 B( 17-C , 33-H ) :   0.9709
B( 18-C , 19-C ) :   1.2447 B( 18-C , 21-H ) :   0.9718 B( 19-C , 20-C ) :   1.5687
B( 19-C , 22-C ) :   1.0418 B( 22-C , 23-H ) :   0.9216 B( 22-C , 24-H ) :   0.9246
B( 22-C , 25-C ) :   1.0828 B( 25-C , 26-H ) :   0.9507 B( 25-C , 27-H ) :   0.9470
B( 25-C , 28-C ) :   1.0780 B( 28-C , 29-H ) :   0.9737 B( 28-C , 30-H ) :   0.9730
B( 28-C , 31-H ) :   0.9730

Dispersion correction           -0.013201297
FINAL SINGLE POINT ENERGY     -1339.861503975159

DIPOLE MOMENT
-------------
                                X             Y             Z
Electronic contribution:    -13.67339      -9.59393      -5.23578
Nuclear contribution   :     13.92630       9.76399       5.54946
                        -----------------------------------------
Total Dipole Moment    :      0.25290       0.17007       0.31368
                        -----------------------------------------
Magnitude (a.u.)       :      0.43735
Magnitude (Debye)      :      1.11167

Rotational constants in cm-1:     0.020810     0.006825     0.005863
Rotational constants in MHz :   623.878197   204.619993   175.774482

                             ****ORCA TERMINATED NORMALLY****
TOTAL RUN TIME: 0 days 0 hours 0 minutes 30 seconds 995 msec
