                         Program Version 4.2.1 -  RELEASE  -
|  1> ! wB97X-D3 SP def2-SVP
|  2> %pal
|  3> nprocs 16
|  4> end
|  5>
|  6> * xyz 0 1
|  7> S 	 60.1546 	 4.32103 	 76.4468
|  8> C 	 59.0714 	 4.92514 	 77.7275
|  9> C 	 58.0317 	 5.65588 	 77.2374
| 10> C 	 57.9594 	 5.529 	 75.7769
| 11> C 	 59.0254 	 4.7871 	 75.2286
| 12> H 	 57.1013 	 5.89922 	 75.2059
| 13> C 	 57.1201 	 6.53401 	 78.1119
| 14> H 	 57.4285 	 6.23827 	 79.1788
| 15> H 	 56.0755 	 6.1791 	 78.0123
| 16> C 	 57.2288 	 8.08321 	 77.938
| 17> H 	 58.1795 	 8.43361 	 78.1015
| 18> H 	 57.2189 	 8.29745 	 76.845
| 19> C 	 56.2267 	 8.88772 	 78.79
| 20> H 	 55.1629 	 8.74109 	 78.4715
| 21> H 	 56.3645 	 8.64335 	 79.8109
| 22> H 	 56.4357 	 10.0153 	 78.7727
| 23> S 	 59.3988 	 2.74155 	 73.4569
| 24> C 	 59.4862 	 3.04984 	 71.7649
| 25> C 	 59.3121 	 4.35227 	 71.5281
| 26> C 	 59.0826 	 5.22085 	 72.6578
| 27> C 	 59.2288 	 4.51691 	 73.8494
| 28> H 	 59.2035 	 4.63562 	 70.4942
| 29> C 	 58.6916 	 6.70039 	 72.5364
| 30> H 	 58.4885 	 7.16585 	 73.4131
| 31> H 	 57.8211 	 6.81295 	 71.8659
| 32> C 	 59.8387 	 7.53318 	 71.78
| 33> H 	 59.9943 	 7.05059 	 70.8448
| 34> H 	 60.8097 	 7.41316 	 72.2954
| 35> C 	 59.6052 	 8.97756 	 71.5978
| 36> H 	 58.5972 	 9.23213 	 71.3576
| 37> H 	 60.2665 	 9.24161 	 70.7803
| 38> H 	 59.9106 	 9.58234 	 72.4203
| 39> H 	 59.4456 	 5.02432 	 78.7077
| 40> H 	 59.5753 	 2.23289 	 71.0727
| 41> *
| 42>
| 43>                          ****END OF INPUT****

CARTESIAN COORDINATES (ANGSTROEM)
---------------------------------
  S     60.154600    4.321030   76.446800
  C     59.071400    4.925140   77.727500
  C     58.031700    5.655880   77.237400
  C     57.959400    5.529000   75.776900
  C     59.025400    4.787100   75.228600
  H     57.101300    5.899220   75.205900
  C     57.120100    6.534010   78.111900
  H     57.428500    6.238270   79.178800
  H     56.075500    6.179100   78.012300
  C     57.228800    8.083210   77.938000
  H     58.179500    8.433610   78.101500
  H     57.218900    8.297450   76.845000
  C     56.226700    8.887720   78.790000
  H     55.162900    8.741090   78.471500
  H     56.364500    8.643350   79.810900
  H     56.435700   10.015300   78.772700
  S     59.398800    2.741550   73.456900
  C     59.486200    3.049840   71.764900
  C     59.312100    4.352270   71.528100
  C     59.082600    5.220850   72.657800
  C     59.228800    4.516910   73.849400
  H     59.203500    4.635620   70.494200
  C     58.691600    6.700390   72.536400
  H     58.488500    7.165850   73.413100
  H     57.821100    6.812950   71.865900
  C     59.838700    7.533180   71.780000
  H     59.994300    7.050590   70.844800
  H     60.809700    7.413160   72.295400
  C     59.605200    8.977560   71.597800
  H     58.597200    9.232130   71.357600
  H     60.266500    9.241610   70.780300
  H     59.910600    9.582340   72.420300
  H     59.445600    5.024320   78.707700
  H     59.575300    2.232890   71.072700

 Total Charge           Charge          ....    0
 Multiplicity           Mult            ....    1
 Number of Electrons    NEL             ....  134
 Basis Dimension        Dim             ....  322

ORBITAL ENERGIES
----------------

  NO   OCC          E(Eh)            E(eV)
   0   2.0000     -88.965471     -2420.8735
   1   2.0000     -88.955775     -2420.6097
   2   2.0000     -10.330207      -281.0992
   3   2.0000     -10.328439      -281.0511
   4   2.0000     -10.312325      -280.6126
   5   2.0000     -10.311395      -280.5873
   6   2.0000     -10.310106      -280.5522
   7   2.0000     -10.306332      -280.4495
   8   2.0000     -10.305817      -280.4355
   9   2.0000     -10.300210      -280.2830
  10   2.0000     -10.292481      -280.0727
  11   2.0000     -10.289565      -279.9933
  12   2.0000     -10.288927      -279.9759
  13   2.0000     -10.288843      -279.9737
  14   2.0000     -10.281861      -279.7837
  15   2.0000     -10.268955      -279.4325
  16   2.0000      -8.080368      -219.8780
  17   2.0000      -8.070792      -219.6174
  18   2.0000      -6.038946      -164.3281
  19   2.0000      -6.034940      -164.2191
  20   2.0000      -6.030936      -164.1101
  21   2.0000      -6.029348      -164.0669
  22   2.0000      -6.025323      -163.9574
  23   2.0000      -6.021389      -163.8503
  24   2.0000      -1.004318       -27.3289
  25   2.0000      -0.981199       -26.6998
  26   2.0000      -0.908021       -24.7085
  27   2.0000      -0.907684       -24.6993
  28   2.0000      -0.875011       -23.8103
  29   2.0000      -0.854898       -23.2630
  30   2.0000      -0.841414       -22.8960
  31   2.0000      -0.811627       -22.0855
  32   2.0000      -0.785240       -21.3675
  33   2.0000      -0.774010       -21.0619
  34   2.0000      -0.714056       -19.4305
  35   2.0000      -0.702098       -19.1051
  36   2.0000      -0.699314       -19.0293
  37   2.0000      -0.657049       -17.8792
  38   2.0000      -0.638996       -17.3880
  39   2.0000      -0.618441       -16.8286
  40   2.0000      -0.602481       -16.3944
  41   2.0000      -0.567632       -15.4460
  42   2.0000      -0.565903       -15.3990
  43   2.0000      -0.552895       -15.0450
  44   2.0000      -0.530634       -14.4393
  45   2.0000      -0.522971       -14.2308
  46   2.0000      -0.520287       -14.1577
  47   2.0000      -0.510274       -13.8852
  48   2.0000      -0.506477       -13.7819
  49   2.0000      -0.502360       -13.6699
  50   2.0000      -0.493646       -13.4328
  51   2.0000      -0.481769       -13.1096
  52   2.0000      -0.476901       -12.9771
  53   2.0000      -0.464244       -12.6327
  54   2.0000      -0.459418       -12.5014
  55   2.0000      -0.456314       -12.4169
  56   2.0000      -0.449157       -12.2222
  57   2.0000      -0.439447       -11.9580
  58   2.0000      -0.425483       -11.5780
  59   2.0000      -0.424752       -11.5581
  60   2.0000      -0.420136       -11.4325
  61   2.0000      -0.413334       -11.2474
  62   2.0000      -0.410965       -11.1829
  63   2.0000      -0.347936        -9.4678
  64   2.0000      -0.331294        -9.0150
  65   2.0000      -0.323867        -8.8129
  66   2.0000      -0.294372        -8.0103
  67   0.0000       0.028456         0.7743
  68   0.0000       0.071309         1.9404
  69   0.0000       0.107665         2.9297
  70   0.0000       0.112585         3.0636
  71   0.0000       0.131124         3.5681

MULLIKEN ATOMIC CHARGES
-----------------------
   0 S :    0.110027
   1 C :   -0.103492
   2 C :   -0.100283
   3 C :    0.019499
   4 C :   -0.147454
   5 H :    0.024490
   6 C :    0.030841
   7 H :    0.025233
   8 H :    0.042204
   9 C :   -0.029768
  10 H :    0.002346
  11 H :    0.021075
  12 C :   -0.064136
  13 H :    0.046745
  14 H :    0.028008
  15 H :    0.044077
  16 S :    0.070245
  17 C :   -0.074269
  18 C :   -0.034057
  19 C :   -0.015065
  20 C :   -0.162544
  21 H :    0.014182
  22 C :    0.128940
  23 H :   -0.007547
  24 H :    0.030371
  25 C :   -0.126562
  26 H :    0.017474
  27 H :    0.033845
  28 C :    0.007840
  29 H :    0.016479
  30 H :    0.027072
  31 H :    0.027978
  32 H :    0.038074
  33 H :    0.058133
Sum of atomic charges:    0.0000000

LOEWDIN ATOMIC CHARGES
----------------------
   0 S :    0.405074
   1 C :   -0.183617
   2 C :   -0.060244
   3 C :   -0.064449
   4 C :   -0.205308
   5 H :    0.032045
   6 C :   -0.033069
   7 H :    0.034713
   8 H :    0.033401
   9 C :   -0.042346
  10 H :    0.014290
  11 H :    0.027348
  12 C :   -0.067761
  13 H :    0.030609
  14 H :    0.019979
  15 H :    0.037259
  16 S :    0.374363
  17 C :   -0.178376
  18 C :   -0.079906
  19 C :   -0.042594
  20 C :   -0.176441
  21 H :    0.028611
  22 C :   -0.014716
  23 H :    0.009606
  24 H :    0.035615
  25 C :   -0.039243
  26 H :    0.014817
  27 H :    0.029429
  28 C :   -0.061923
  29 H :    0.019083
  30 H :    0.033454
  31 H :    0.023189
  32 H :    0.016824
  33 H :    0.030281

  Mayer bond orders larger than 0.100000
B(  0-S ,  1-C ) :   1.1180 B(  0-S ,  4-C ) :   1.1620 B(  1-C ,  2-C ) :   1.6567
B(  1-C , 32-H ) :   0.9640 B(  2-C ,  3-C ) :   1.2180 B(  2-C ,  6-C ) :   1.0197
B(  3-C ,  4-C ) :   1.5608 B(  3-C ,  5-H ) :   0.9909 B(  4-C , 20-C ) :   1.0596
B(  6-C ,  7-H ) :   0.9431 B(  6-C ,  8-H ) :   0.9446 B(  6-C ,  9-C ) :   1.0453
B(  9-C , 10-H ) :   0.9510 B(  9-C , 11-H ) :   0.9554 B(  9-C , 12-C ) :   1.0752
B( 12-C , 13-H ) :   0.9775 B( 12-C , 14-H ) :   0.9747 B( 12-C , 15-H ) :   0.9747
B( 16-S , 17-C ) :   1.1454 B( 16-S , 20-C ) :   1.1208 B( 17-C , 18-C ) :   1.6349
B( 17-C , 33-H ) :   0.9702 B( 18-C , 19-C ) :   1.1999 B( 18-C , 21-H ) :   0.9890
B( 19-C , 20-C ) :   1.6122 B( 19-C , 22-C ) :   1.0553 B( 22-C , 23-H ) :   0.9370
B( 22-C , 24-H ) :   0.9307 B( 22-C , 25-C ) :   1.0524 B( 25-C , 26-H ) :   0.9627
B( 25-C , 27-H ) :   0.9528 B( 25-C , 28-C ) :   1.0961 B( 28-C , 29-H ) :   0.9702
B( 28-C , 30-H ) :   0.9684 B( 28-C , 31-H ) :   0.9733

Dispersion correction           -0.013339257
FINAL SINGLE POINT ENERGY     -1339.867689054293

DIPOLE MOMENT
-------------
                                X             Y             Z
Electronic contribution:     10.27408     -29.31559      -1.14852
Nuclear contribution   :    -10.59225      30.05287       0.97053
                        -----------------------------------------
Total Dipole Moment    :     -0.31817       0.73727      -0.17799
                        -----------------------------------------
Magnitude (a.u.)       :      0.82249
Magnitude (Debye)      :      2.09060

Rotational constants in cm-1:     0.016608     0.008466     0.006164
Rotational constants in MHz :   497.908317   253.793342   184.781774

                             ****ORCA TERMINATED NORMALLY****
TOTAL RUN TIME: 0 days 0 hours 0 minutes 28 seconds 765 msec
