                         Program Version 4.2.1 -  RELEASE  -
|  1> ! wB97X-D3 SP def2-SVP
|  2> %pal
|  3> nprocs 16
|  4> end
|  5>
|  6> * xyz 0 1
|  7> S 	 -102.04 	 42.6182 	 122.125
|  8> C 	 -103.315 	 43.2479 	 123.087
|  9> C 	 -103.292 	 44.645 	 123.088
| 10> C 	 -102.299 	 45.1763 	 122.195
| 11> C 	 -101.547 	 44.1955 	 121.578
| 12> H 	 -102.061 	 46.1778 	 121.919
| 13> C 	 -104.205 	 45.5526 	 123.979
| 14> H 	 -103.6 	 46.3782 	 124.398
| 15> H 	 -104.491 	 44.9706 	 124.865
| 16> C 	 -105.447 	 45.9886 	 123.265
| 17> H 	 -105.301 	 47.0031 	 122.854
| 18> H 	 -105.597 	 45.3667 	 122.298
| 19> C 	 -106.755 	 45.9836 	 124.057
| 20> H 	 -107.535 	 46.476 	 123.492
| 21> H 	 -107.045 	 44.93 	 124.301
| 22> H 	 -106.456 	 46.5296 	 124.933
| 23> S 	 -99.1036 	 45.3311 	 121.457
| 24> C 	 -98.2264 	 45.3224 	 119.961
| 25> C 	 -98.9069 	 44.6827 	 118.974
| 26> C 	 -100.234 	 44.3095 	 119.356
| 27> C 	 -100.411 	 44.445 	 120.711
| 28> H 	 -98.4265 	 44.5778 	 117.939
| 29> C 	 -101.313 	 43.8076 	 118.42
| 30> H 	 -102.327 	 43.6495 	 118.857
| 31> H 	 -100.989 	 42.7884 	 118.116
| 32> C 	 -101.525 	 44.6934 	 117.214
| 33> H 	 -102.124 	 44.2791 	 116.494
| 34> H 	 -100.553 	 44.946 	 116.781
| 35> C 	 -102.048 	 46.1094 	 117.585
| 36> H 	 -101.335 	 46.7643 	 118.132
| 37> H 	 -102.911 	 46.2031 	 118.228
| 38> H 	 -102.35 	 46.5481 	 116.636
| 39> H 	 -103.978 	 42.7282 	 123.718
| 40> H 	 -97.1971 	 45.6252 	 119.872
| 41> *
| 42>
| 43>                          ****END OF INPUT****

CARTESIAN COORDINATES (ANGSTROEM)
---------------------------------
  S    -102.040000   42.618200  122.125000
  C    -103.315000   43.247900  123.087000
  C    -103.292000   44.645000  123.088000
  C    -102.299000   45.176300  122.195000
  C    -101.547000   44.195500  121.578000
  H    -102.061000   46.177800  121.919000
  C    -104.205000   45.552600  123.979000
  H    -103.600000   46.378200  124.398000
  H    -104.491000   44.970600  124.865000
  C    -105.447000   45.988600  123.265000
  H    -105.301000   47.003100  122.854000
  H    -105.597000   45.366700  122.298000
  C    -106.755000   45.983600  124.057000
  H    -107.535000   46.476000  123.492000
  H    -107.045000   44.930000  124.301000
  H    -106.456000   46.529600  124.933000
  S    -99.103600   45.331100  121.457000
  C    -98.226400   45.322400  119.961000
  C    -98.906900   44.682700  118.974000
  C    -100.234000   44.309500  119.356000
  C    -100.411000   44.445000  120.711000
  H    -98.426500   44.577800  117.939000
  C    -101.313000   43.807600  118.420000
  H    -102.327000   43.649500  118.857000
  H    -100.989000   42.788400  118.116000
  C    -101.525000   44.693400  117.214000
  H    -102.124000   44.279100  116.494000
  H    -100.553000   44.946000  116.781000
  C    -102.048000   46.109400  117.585000
  H    -101.335000   46.764300  118.132000
  H    -102.911000   46.203100  118.228000
  H    -102.350000   46.548100  116.636000
  H    -103.978000   42.728200  123.718000
  H    -97.197100   45.625200  119.872000

 Total Charge           Charge          ....    0
 Multiplicity           Mult            ....    1
 Number of Electrons    NEL             ....  134
 Basis Dimension        Dim             ....  322

ORBITAL ENERGIES
----------------

  NO   OCC          E(Eh)            E(eV)
   0   2.0000     -88.966635     -2420.9052
   1   2.0000     -88.963187     -2420.8114
   2   2.0000     -10.323405      -280.9141
   3   2.0000     -10.320838      -280.8443
   4   2.0000     -10.313747      -280.6513
   5   2.0000     -10.309167      -280.5267
   6   2.0000     -10.304407      -280.3972
   7   2.0000     -10.303995      -280.3860
   8   2.0000     -10.299178      -280.2549
   9   2.0000     -10.294692      -280.1328
  10   2.0000     -10.292278      -280.0671
  11   2.0000     -10.290273      -280.0126
  12   2.0000     -10.285808      -279.8911
  13   2.0000     -10.279735      -279.7258
  14   2.0000     -10.279140      -279.7096
  15   2.0000     -10.272773      -279.5364
  16   2.0000      -8.081635      -219.9125
  17   2.0000      -8.078539      -219.8282
  18   2.0000      -6.040055      -164.3582
  19   2.0000      -6.036969      -164.2743
  20   2.0000      -6.035975      -164.2472
  21   2.0000      -6.033032      -164.1671
  22   2.0000      -6.032612      -164.1557
  23   2.0000      -6.029256      -164.0644
  24   2.0000      -1.010687       -27.5022
  25   2.0000      -0.987457       -26.8701
  26   2.0000      -0.911011       -24.7899
  27   2.0000      -0.910186       -24.7674
  28   2.0000      -0.872902       -23.7529
  29   2.0000      -0.848673       -23.0936
  30   2.0000      -0.844394       -22.9771
  31   2.0000      -0.813752       -22.1433
  32   2.0000      -0.782816       -21.3015
  33   2.0000      -0.772781       -21.0284
  34   2.0000      -0.705887       -19.2082
  35   2.0000      -0.696703       -18.9582
  36   2.0000      -0.686539       -18.6817
  37   2.0000      -0.658782       -17.9264
  38   2.0000      -0.642984       -17.4965
  39   2.0000      -0.613467       -16.6933
  40   2.0000      -0.602083       -16.3835
  41   2.0000      -0.572155       -15.5691
  42   2.0000      -0.557621       -15.1736
  43   2.0000      -0.555030       -15.1031
  44   2.0000      -0.536713       -14.6047
  45   2.0000      -0.531435       -14.4611
  46   2.0000      -0.516525       -14.0554
  47   2.0000      -0.510408       -13.8889
  48   2.0000      -0.505283       -13.7494
  49   2.0000      -0.496262       -13.5040
  50   2.0000      -0.489572       -13.3219
  51   2.0000      -0.479118       -13.0375
  52   2.0000      -0.471127       -12.8200
  53   2.0000      -0.467267       -12.7150
  54   2.0000      -0.462087       -12.5740
  55   2.0000      -0.448487       -12.2040
  56   2.0000      -0.445904       -12.1337
  57   2.0000      -0.433404       -11.7935
  58   2.0000      -0.427111       -11.6223
  59   2.0000      -0.422237       -11.4897
  60   2.0000      -0.419248       -11.4083
  61   2.0000      -0.413140       -11.2421
  62   2.0000      -0.402960       -10.9651
  63   2.0000      -0.338150        -9.2015
  64   2.0000      -0.334540        -9.1033
  65   2.0000      -0.324198        -8.8219
  66   2.0000      -0.301786        -8.2120
  67   0.0000       0.042551         1.1579
  68   0.0000       0.064639         1.7589
  69   0.0000       0.110601         3.0096
  70   0.0000       0.125425         3.4130
  71   0.0000       0.131720         3.5843

MULLIKEN ATOMIC CHARGES
-----------------------
   0 S :    0.129581
   1 C :   -0.090741
   2 C :   -0.113847
   3 C :    0.044599
   4 C :   -0.175223
   5 H :    0.002615
   6 C :    0.074951
   7 H :    0.040670
   8 H :    0.015399
   9 C :   -0.116025
  10 H :    0.026622
  11 H :    0.046153
  12 C :   -0.044967
  13 H :    0.041420
  14 H :    0.041222
  15 H :    0.031427
  16 S :    0.112084
  17 C :   -0.090658
  18 C :   -0.058996
  19 C :   -0.022035
  20 C :   -0.186674
  21 H :    0.050342
  22 C :    0.070310
  23 H :    0.037684
  24 H :    0.036117
  25 C :   -0.036805
  26 H :    0.015004
  27 H :    0.022097
  28 C :   -0.077604
  29 H :    0.043556
  30 H :    0.020326
  31 H :    0.029354
  32 H :    0.026381
  33 H :    0.055664
Sum of atomic charges:   -0.0000000

LOEWDIN ATOMIC CHARGES
----------------------
   0 S :    0.429340
   1 C :   -0.207108
   2 C :   -0.055056
   3 C :   -0.062891
   4 C :   -0.205801
   5 H :    0.026586
   6 C :   -0.035647
   7 H :    0.035801
   8 H :    0.027791
   9 C :   -0.058330
  10 H :    0.023344
  11 H :    0.030663
  12 C :   -0.061528
  13 H :    0.027541
  14 H :    0.028412
  15 H :    0.022975
  16 S :    0.413585
  17 C :   -0.187479
  18 C :   -0.081012
  19 C :   -0.052597
  20 C :   -0.202406
  21 H :    0.045814
  22 C :   -0.033877
  23 H :    0.035537
  24 H :    0.035392
  25 C :   -0.031633
  26 H :    0.013695
  27 H :    0.025299
  28 C :   -0.070405
  29 H :    0.030221
  30 H :    0.018678
  31 H :    0.025939
  32 H :    0.020584
  33 H :    0.028572

  Mayer bond orders larger than 0.100000
B(  0-S ,  1-C ) :   1.1525 B(  0-S ,  4-C ) :   1.1570 B(  1-C ,  2-C ) :   1.6026
B(  1-C , 32-H ) :   0.9722 B(  2-C ,  3-C ) :   1.2334 B(  2-C ,  6-C ) :   1.0268
B(  3-C ,  4-C ) :   1.5766 B(  3-C ,  5-H ) :   1.0024 B(  4-C , 20-C ) :   1.0162
B(  6-C ,  7-H ) :   0.9421 B(  6-C ,  8-H ) :   0.9486 B(  6-C ,  9-C ) :   1.0331
B(  9-C , 10-H ) :   0.9520 B(  9-C , 11-H ) :   0.9638 B(  9-C , 12-C ) :   1.0825
B( 12-C , 13-H ) :   0.9737 B( 12-C , 14-H ) :   0.9757 B( 12-C , 15-H ) :   0.9773
B( 16-S , 17-C ) :   1.1515 B( 16-S , 20-C ) :   1.1429 B( 17-C , 18-C ) :   1.6399
B( 17-C , 33-H ) :   0.9651 B( 18-C , 19-C ) :   1.2146 B( 18-C , 21-H ) :   0.9728
B( 19-C , 20-C ) :   1.6168 B( 19-C , 22-C ) :   1.0359 B( 22-C , 23-H ) :   0.9392
B( 22-C , 24-H ) :   0.9311 B( 22-C , 25-C ) :   1.0795 B( 25-C , 26-H ) :   0.9582
B( 25-C , 27-H ) :   0.9540 B( 25-C , 28-C ) :   1.0623 B( 28-C , 29-H ) :   0.9751
B( 28-C , 30-H ) :   0.9769 B( 28-C , 31-H ) :   0.9759

Dispersion correction           -0.014589833
FINAL SINGLE POINT ENERGY     -1339.879880684411

DIPOLE MOMENT
-------------
                                X             Y             Z
Electronic contribution:     20.68121     -10.87759       6.41912
Nuclear contribution   :    -20.91521      11.13527      -6.65363
                        -----------------------------------------
Total Dipole Moment    :     -0.23400       0.25768      -0.23452
                        -----------------------------------------
Magnitude (a.u.)       :      0.41971
Magnitude (Debye)      :      1.06682

Rotational constants in cm-1:     0.020783     0.007722     0.006978
Rotational constants in MHz :   623.065466   231.503293   209.200404

                             ****ORCA TERMINATED NORMALLY****
TOTAL RUN TIME: 0 days 0 hours 0 minutes 32 seconds 146 msec
