                         Program Version 4.2.1 -  RELEASE  -
|  1> ! wB97X-D3 SP def2-SVP
|  2> %pal
|  3> nprocs 16
|  4> end
|  5>
|  6> * xyz 0 1
|  7> S 	 -104.149 	 47.3446 	 120.145
|  8> C 	 -103.955 	 48.5964 	 121.37
|  9> C 	 -102.902 	 48.307 	 122.251
| 10> C 	 -102.32 	 47.042 	 121.836
| 11> C 	 -102.805 	 46.3968 	 120.701
| 12> H 	 -101.432 	 46.5671 	 122.245
| 13> C 	 -102.338 	 49.206 	 123.276
| 14> H 	 -101.925 	 48.5434 	 124.007
| 15> H 	 -103.221 	 49.6935 	 123.761
| 16> C 	 -101.251 	 50.2151 	 122.791
| 17> H 	 -100.924 	 50.7995 	 123.714
| 18> H 	 -100.388 	 49.6409 	 122.33
| 19> C 	 -101.769 	 51.1614 	 121.695
| 20> H 	 -101.268 	 52.1034 	 121.741
| 21> H 	 -101.702 	 50.7299 	 120.662
| 22> H 	 -102.759 	 51.453 	 121.89
| 23> S 	 -103.792 	 43.9173 	 119.754
| 24> C 	 -102.609 	 42.6564 	 119.295
| 25> C 	 -101.35 	 43.234 	 119.332
| 26> C 	 -101.248 	 44.5581 	 119.733
| 27> C 	 -102.489 	 45.0727 	 120.094
| 28> H 	 -100.555 	 42.5504 	 119.06
| 29> C 	 -99.9149 	 45.2241 	 119.91
| 30> H 	 -99.4046 	 44.6439 	 120.649
| 31> H 	 -100.005 	 46.1317 	 120.493
| 32> C 	 -99.1541 	 45.4609 	 118.556
| 33> H 	 -99.6958 	 46.2066 	 117.894
| 34> H 	 -99.1251 	 44.5612 	 118.002
| 35> C 	 -97.7265 	 45.9444 	 118.609
| 36> H 	 -97.1486 	 45.3296 	 119.279
| 37> H 	 -97.9439 	 46.9556 	 118.858
| 38> H 	 -97.3382 	 45.9594 	 117.608
| 39> H 	 -104.458 	 49.5387 	 121.416
| 40> H 	 -102.824 	 41.6755 	 118.916
| 41> *
| 42>
| 43>                          ****END OF INPUT****

CARTESIAN COORDINATES (ANGSTROEM)
---------------------------------
  S    -104.149000   47.344600  120.145000
  C    -103.955000   48.596400  121.370000
  C    -102.902000   48.307000  122.251000
  C    -102.320000   47.042000  121.836000
  C    -102.805000   46.396800  120.701000
  H    -101.432000   46.567100  122.245000
  C    -102.338000   49.206000  123.276000
  H    -101.925000   48.543400  124.007000
  H    -103.221000   49.693500  123.761000
  C    -101.251000   50.215100  122.791000
  H    -100.924000   50.799500  123.714000
  H    -100.388000   49.640900  122.330000
  C    -101.769000   51.161400  121.695000
  H    -101.268000   52.103400  121.741000
  H    -101.702000   50.729900  120.662000
  H    -102.759000   51.453000  121.890000
  S    -103.792000   43.917300  119.754000
  C    -102.609000   42.656400  119.295000
  C    -101.350000   43.234000  119.332000
  C    -101.248000   44.558100  119.733000
  C    -102.489000   45.072700  120.094000
  H    -100.555000   42.550400  119.060000
  C    -99.914900   45.224100  119.910000
  H    -99.404600   44.643900  120.649000
  H    -100.005000   46.131700  120.493000
  C    -99.154100   45.460900  118.556000
  H    -99.695800   46.206600  117.894000
  H    -99.125100   44.561200  118.002000
  C    -97.726500   45.944400  118.609000
  H    -97.148600   45.329600  119.279000
  H    -97.943900   46.955600  118.858000
  H    -97.338200   45.959400  117.608000
  H    -104.458000   49.538700  121.416000
  H    -102.824000   41.675500  118.916000

 Total Charge           Charge          ....    0
 Multiplicity           Mult            ....    1
 Number of Electrons    NEL             ....  134
 Basis Dimension        Dim             ....  322

ORBITAL ENERGIES
----------------

  NO   OCC          E(Eh)            E(eV)
   0   2.0000     -88.967311     -2420.9236
   1   2.0000     -88.964149     -2420.8376
   2   2.0000     -10.334893      -281.2267
   3   2.0000     -10.331957      -281.1468
   4   2.0000     -10.320640      -280.8389
   5   2.0000     -10.315361      -280.6952
   6   2.0000     -10.303717      -280.3784
   7   2.0000     -10.302229      -280.3379
   8   2.0000     -10.301686      -280.3231
   9   2.0000     -10.295939      -280.1667
  10   2.0000     -10.294276      -280.1215
  11   2.0000     -10.292023      -280.0602
  12   2.0000     -10.291249      -280.0391
  13   2.0000     -10.286238      -279.9028
  14   2.0000     -10.274798      -279.5915
  15   2.0000     -10.271081      -279.4903
  16   2.0000      -8.080914      -219.8928
  17   2.0000      -8.078781      -219.8348
  18   2.0000      -6.039544      -164.3444
  19   2.0000      -6.037348      -164.2846
  20   2.0000      -6.035552      -164.2357
  21   2.0000      -6.033089      -164.1687
  22   2.0000      -6.031610      -164.1285
  23   2.0000      -6.029691      -164.0762
  24   2.0000      -1.003108       -27.2959
  25   2.0000      -0.982663       -26.7396
  26   2.0000      -0.913425       -24.8555
  27   2.0000      -0.909560       -24.7504
  28   2.0000      -0.864784       -23.5320
  29   2.0000      -0.859515       -23.3886
  30   2.0000      -0.842840       -22.9349
  31   2.0000      -0.814569       -22.1655
  32   2.0000      -0.786573       -21.4038
  33   2.0000      -0.777411       -21.1544
  34   2.0000      -0.706673       -19.2295
  35   2.0000      -0.697933       -18.9917
  36   2.0000      -0.695372       -18.9220
  37   2.0000      -0.657017       -17.8783
  38   2.0000      -0.641315       -17.4511
  39   2.0000      -0.616005       -16.7623
  40   2.0000      -0.598121       -16.2757
  41   2.0000      -0.571950       -15.5635
  42   2.0000      -0.570450       -15.5227
  43   2.0000      -0.546211       -14.8632
  44   2.0000      -0.542356       -14.7583
  45   2.0000      -0.535296       -14.5661
  46   2.0000      -0.524943       -14.2844
  47   2.0000      -0.519753       -14.1432
  48   2.0000      -0.504655       -13.7324
  49   2.0000      -0.501571       -13.6484
  50   2.0000      -0.485698       -13.2165
  51   2.0000      -0.476769       -12.9735
  52   2.0000      -0.473145       -12.8749
  53   2.0000      -0.466261       -12.6876
  54   2.0000      -0.459430       -12.5017
  55   2.0000      -0.445070       -12.1110
  56   2.0000      -0.439209       -11.9515
  57   2.0000      -0.432820       -11.7776
  58   2.0000      -0.431339       -11.7373
  59   2.0000      -0.426185       -11.5971
  60   2.0000      -0.422041       -11.4843
  61   2.0000      -0.413648       -11.2559
  62   2.0000      -0.411876       -11.2077
  63   2.0000      -0.346372        -9.4253
  64   2.0000      -0.333389        -9.0720
  65   2.0000      -0.326284        -8.8786
  66   2.0000      -0.292796        -7.9674
  67   0.0000       0.028421         0.7734
  68   0.0000       0.067434         1.8350
  69   0.0000       0.112759         3.0683
  70   0.0000       0.119584         3.2540
  71   0.0000       0.128311         3.4915

MULLIKEN ATOMIC CHARGES
-----------------------
   0 S :    0.102295
   1 C :   -0.107822
   2 C :   -0.109128
   3 C :    0.028752
   4 C :   -0.172940
   5 H :    0.001882
   6 C :    0.063965
   7 H :    0.022213
   8 H :    0.037163
   9 C :   -0.090527
  10 H :    0.049706
  11 H :    0.044613
  12 C :   -0.035492
  13 H :    0.025294
  14 H :    0.059208
  15 H :    0.003707
  16 S :    0.102911
  17 C :   -0.099099
  18 C :   -0.046069
  19 C :   -0.008272
  20 C :   -0.146378
  21 H :    0.019220
  22 C :    0.110826
  23 H :    0.021131
  24 H :   -0.000514
  25 C :   -0.117849
  26 H :    0.038627
  27 H :    0.013786
  28 C :    0.003841
  29 H :    0.035191
  30 H :    0.023161
  31 H :    0.030763
  32 H :    0.040248
  33 H :    0.055589
Sum of atomic charges:   -0.0000000

LOEWDIN ATOMIC CHARGES
----------------------
   0 S :    0.407017
   1 C :   -0.188973
   2 C :   -0.065811
   3 C :   -0.069691
   4 C :   -0.200764
   5 H :    0.023370
   6 C :   -0.040206
   7 H :    0.030064
   8 H :    0.037880
   9 C :   -0.039476
  10 H :    0.033734
  11 H :    0.033012
  12 C :   -0.069724
  13 H :    0.025622
  14 H :    0.037443
  15 H :    0.013164
  16 S :    0.383960
  17 C :   -0.173334
  18 C :   -0.068845
  19 C :   -0.058845
  20 C :   -0.186971
  21 H :    0.031630
  22 C :   -0.030135
  23 H :    0.030844
  24 H :    0.026116
  25 C :   -0.037096
  26 H :    0.033494
  27 H :    0.010934
  28 C :   -0.057769
  29 H :    0.022994
  30 H :    0.024909
  31 H :    0.027583
  32 H :    0.023781
  33 H :    0.030089

  Mayer bond orders larger than 0.100000
B(  0-S ,  1-C ) :   1.1537 B(  0-S ,  4-C ) :   1.1471 B(  1-C ,  2-C ) :   1.5855
B(  1-C , 32-H ) :   0.9691 B(  2-C ,  3-C ) :   1.2440 B(  2-C ,  6-C ) :   1.0344
B(  3-C ,  4-C ) :   1.5838 B(  3-C ,  5-H ) :   0.9855 B(  4-C , 20-C ) :   1.0241
B(  6-C ,  7-H ) :   0.9330 B(  6-C ,  8-H ) :   0.9369 B(  6-C ,  9-C ) :   1.0669
B(  9-C , 10-H ) :   0.9568 B(  9-C , 11-H ) :   0.9570 B(  9-C , 12-C ) :   1.0718
B( 12-C , 13-H ) :   0.9699 B( 12-C , 14-H ) :   0.9728 B( 12-C , 15-H ) :   0.9738
B( 16-S , 17-C ) :   1.1387 B( 16-S , 20-C ) :   1.1464 B( 17-C , 18-C ) :   1.6107
B( 17-C , 20-C ) :   0.1083 B( 17-C , 33-H ) :   0.9707 B( 18-C , 19-C ) :   1.2494
B( 18-C , 21-H ) :   0.9871 B( 19-C , 20-C ) :   1.5700 B( 19-C , 22-C ) :   1.0469
B( 22-C , 23-H ) :   0.9340 B( 22-C , 24-H ) :   0.9196 B( 22-C , 25-C ) :   1.0415
B( 25-C , 26-H ) :   0.9601 B( 25-C , 27-H ) :   0.9627 B( 25-C , 28-C ) :   1.0802
B( 28-C , 29-H ) :   0.9743 B( 28-C , 30-H ) :   0.9801 B( 28-C , 31-H ) :   0.9711

Dispersion correction           -0.014115265
FINAL SINGLE POINT ENERGY     -1339.866700731899

DIPOLE MOMENT
-------------
                                X             Y             Z
Electronic contribution:    -23.69891     -15.91384      -3.33834
Nuclear contribution   :     24.41452      16.11948       3.49553
                        -----------------------------------------
Total Dipole Moment    :      0.71560       0.20564       0.15718
                        -----------------------------------------
Magnitude (a.u.)       :      0.76098
Magnitude (Debye)      :      1.93425

Rotational constants in cm-1:     0.017713     0.008877     0.006523
Rotational constants in MHz :   531.018688   266.111419   195.568233

                             ****ORCA TERMINATED NORMALLY****
TOTAL RUN TIME: 0 days 0 hours 0 minutes 32 seconds 938 msec
