                         Program Version 4.2.1 -  RELEASE  -
|  1> ! wB97X-D3 SP def2-SVP
|  2> %pal
|  3> nprocs 16
|  4> end
|  5>
|  6> * xyz 0 1
|  7> S 	 32.4535 	 2.17644 	 65.7271
|  8> C 	 32.6834 	 3.80618 	 65.4303
|  9> C 	 31.4575 	 4.41898 	 65.0978
| 10> C 	 30.3493 	 3.5567 	 65.3668
| 11> C 	 30.7166 	 2.25761 	 65.6908
| 12> H 	 29.2915 	 3.91488 	 65.3403
| 13> C 	 31.2501 	 5.84347 	 64.6461
| 14> H 	 32.2144 	 6.30291 	 64.7208
| 15> H 	 30.5916 	 6.3449 	 65.3181
| 16> C 	 30.7518 	 6.05432 	 63.1906
| 17> H 	 29.8385 	 5.55249 	 62.8844
| 18> H 	 30.6571 	 7.11333 	 63.0155
| 19> C 	 31.746 	 5.464 	 62.1673
| 20> H 	 32.2313 	 4.59056 	 62.4326
| 21> H 	 31.1677 	 5.29058 	 61.2579
| 22> H 	 32.6187 	 6.20688 	 62.088
| 23> S 	 30.2548 	 -0.269435 	 64.9801
| 24> C 	 28.9622 	 -1.15644 	 65.7307
| 25> C 	 28.2643 	 -0.452199 	 66.7065
| 26> C 	 28.7517 	 0.930254 	 66.7884
| 27> C 	 29.8066 	 1.1638 	 65.9029
| 28> H 	 27.5214 	 -0.921086 	 67.358
| 29> C 	 28.1675 	 1.96422 	 67.6734
| 30> H 	 28.9405 	 2.66498 	 67.9483
| 31> H 	 27.7651 	 1.42834 	 68.5407
| 32> C 	 26.9373 	 2.71406 	 67.1545
| 33> H 	 26.0495 	 2.09701 	 67.047
| 34> H 	 27.1695 	 3.01915 	 66.1521
| 35> C 	 26.557 	 4.00848 	 67.8317
| 36> H 	 26.3907 	 3.84662 	 68.9331
| 37> H 	 25.6715 	 4.53774 	 67.3589
| 38> H 	 27.4805 	 4.57523 	 67.7339
| 39> H 	 33.6531 	 4.26881 	 65.3314
| 40> H 	 28.7507 	 -2.21472 	 65.6191
| 41> *
| 42>
| 43>                          ****END OF INPUT****

CARTESIAN COORDINATES (ANGSTROEM)
---------------------------------
  S     32.453500    2.176440   65.727100
  C     32.683400    3.806180   65.430300
  C     31.457500    4.418980   65.097800
  C     30.349300    3.556700   65.366800
  C     30.716600    2.257610   65.690800
  H     29.291500    3.914880   65.340300
  C     31.250100    5.843470   64.646100
  H     32.214400    6.302910   64.720800
  H     30.591600    6.344900   65.318100
  C     30.751800    6.054320   63.190600
  H     29.838500    5.552490   62.884400
  H     30.657100    7.113330   63.015500
  C     31.746000    5.464000   62.167300
  H     32.231300    4.590560   62.432600
  H     31.167700    5.290580   61.257900
  H     32.618700    6.206880   62.088000
  S     30.254800   -0.269435   64.980100
  C     28.962200   -1.156440   65.730700
  C     28.264300   -0.452199   66.706500
  C     28.751700    0.930254   66.788400
  C     29.806600    1.163800   65.902900
  H     27.521400   -0.921086   67.358000
  C     28.167500    1.964220   67.673400
  H     28.940500    2.664980   67.948300
  H     27.765100    1.428340   68.540700
  C     26.937300    2.714060   67.154500
  H     26.049500    2.097010   67.047000
  H     27.169500    3.019150   66.152100
  C     26.557000    4.008480   67.831700
  H     26.390700    3.846620   68.933100
  H     25.671500    4.537740   67.358900
  H     27.480500    4.575230   67.733900
  H     33.653100    4.268810   65.331400
  H     28.750700   -2.214720   65.619100

 Total Charge           Charge          ....    0
 Multiplicity           Mult            ....    1
 Number of Electrons    NEL             ....  134
 Basis Dimension        Dim             ....  322

ORBITAL ENERGIES
----------------

  NO   OCC          E(Eh)            E(eV)
   0   2.0000     -88.968818     -2420.9646
   1   2.0000     -88.967016     -2420.9156
   2   2.0000     -10.327692      -281.0308
   3   2.0000     -10.326430      -280.9965
   4   2.0000     -10.317098      -280.7425
   5   2.0000     -10.314273      -280.6656
   6   2.0000     -10.307459      -280.4802
   7   2.0000     -10.301803      -280.3263
   8   2.0000     -10.300222      -280.2833
   9   2.0000     -10.296240      -280.1749
  10   2.0000     -10.289443      -279.9900
  11   2.0000     -10.288385      -279.9612
  12   2.0000     -10.285293      -279.8770
  13   2.0000     -10.284971      -279.8683
  14   2.0000     -10.280097      -279.7356
  15   2.0000     -10.272328      -279.5243
  16   2.0000      -8.084911      -220.0016
  17   2.0000      -8.081802      -219.9170
  18   2.0000      -6.043258      -164.4454
  19   2.0000      -6.040356      -164.3664
  20   2.0000      -6.039089      -164.3320
  21   2.0000      -6.036322      -164.2567
  22   2.0000      -6.035878      -164.2446
  23   2.0000      -6.032488      -164.1524
  24   2.0000      -1.012673       -27.5562
  25   2.0000      -0.985803       -26.8251
  26   2.0000      -0.915498       -24.9120
  27   2.0000      -0.911119       -24.7928
  28   2.0000      -0.873000       -23.7555
  29   2.0000      -0.855550       -23.2807
  30   2.0000      -0.848729       -23.0951
  31   2.0000      -0.814594       -22.1662
  32   2.0000      -0.782201       -21.2848
  33   2.0000      -0.769903       -20.9501
  34   2.0000      -0.706632       -19.2284
  35   2.0000      -0.696318       -18.9478
  36   2.0000      -0.690519       -18.7900
  37   2.0000      -0.664254       -18.0753
  38   2.0000      -0.641512       -17.4564
  39   2.0000      -0.623100       -16.9554
  40   2.0000      -0.594087       -16.1659
  41   2.0000      -0.574239       -15.6258
  42   2.0000      -0.565168       -15.3790
  43   2.0000      -0.552843       -15.0436
  44   2.0000      -0.543179       -14.7807
  45   2.0000      -0.525159       -14.2903
  46   2.0000      -0.524335       -14.2679
  47   2.0000      -0.518833       -14.1182
  48   2.0000      -0.505988       -13.7686
  49   2.0000      -0.501093       -13.6354
  50   2.0000      -0.488325       -13.2880
  51   2.0000      -0.482151       -13.1200
  52   2.0000      -0.472233       -12.8501
  53   2.0000      -0.463258       -12.6059
  54   2.0000      -0.455622       -12.3981
  55   2.0000      -0.452471       -12.3124
  56   2.0000      -0.445385       -12.1195
  57   2.0000      -0.439630       -11.9629
  58   2.0000      -0.432002       -11.7554
  59   2.0000      -0.425258       -11.5719
  60   2.0000      -0.423074       -11.5124
  61   2.0000      -0.410095       -11.1593
  62   2.0000      -0.409096       -11.1321
  63   2.0000      -0.351029        -9.5520
  64   2.0000      -0.330033        -8.9807
  65   2.0000      -0.328162        -8.9297
  66   2.0000      -0.290468        -7.9040
  67   0.0000       0.032606         0.8873
  68   0.0000       0.066447         1.8081
  69   0.0000       0.111814         3.0426
  70   0.0000       0.118488         3.2242
  71   0.0000       0.121992         3.3196

MULLIKEN ATOMIC CHARGES
-----------------------
   0 S :    0.137276
   1 C :   -0.111438
   2 C :   -0.128457
   3 C :    0.005844
   4 C :   -0.141162
   5 H :    0.026183
   6 C :    0.106355
   7 H :    0.002343
   8 H :    0.026849
   9 C :   -0.066169
  10 H :    0.029773
  11 H :    0.033310
  12 C :   -0.064298
  13 H :    0.024388
  14 H :    0.037398
  15 H :    0.026700
  16 S :    0.107653
  17 C :   -0.082125
  18 C :   -0.041381
  19 C :   -0.037554
  20 C :   -0.170780
  21 H :    0.027911
  22 C :    0.085312
  23 H :    0.026325
  24 H :    0.018184
  25 C :   -0.065878
  26 H :    0.020927
  27 H :    0.008395
  28 C :   -0.065277
  29 H :    0.034910
  30 H :    0.056485
  31 H :    0.025137
  32 H :    0.052113
  33 H :    0.054747
Sum of atomic charges:    0.0000000

LOEWDIN ATOMIC CHARGES
----------------------
   0 S :    0.450168
   1 C :   -0.224200
   2 C :   -0.065934
   3 C :   -0.065433
   4 C :   -0.214668
   5 H :    0.036830
   6 C :   -0.028218
   7 H :    0.026463
   8 H :    0.027349
   9 C :   -0.036564
  10 H :    0.022354
  11 H :    0.024489
  12 C :   -0.063137
  13 H :    0.011734
  14 H :    0.028014
  15 H :    0.029346
  16 S :    0.406314
  17 C :   -0.190939
  18 C :   -0.068785
  19 C :   -0.048295
  20 C :   -0.191406
  21 H :    0.035619
  22 C :   -0.032193
  23 H :    0.031298
  24 H :    0.034301
  25 C :   -0.044866
  26 H :    0.020089
  27 H :    0.014762
  28 C :   -0.069623
  29 H :    0.025898
  30 H :    0.037676
  31 H :    0.022525
  32 H :    0.029553
  33 H :    0.029484

  Mayer bond orders larger than 0.100000
B(  0-S ,  1-C ) :   1.1738 B(  0-S ,  4-C ) :   1.1637 B(  1-C ,  2-C ) :   1.5472
B(  1-C , 32-H ) :   0.9688 B(  2-C ,  3-C ) :   1.2815 B(  2-C ,  6-C ) :   1.0379
B(  3-C ,  4-C ) :   1.5226 B(  3-C ,  5-H ) :   0.9903 B(  4-C , 20-C ) :   1.0612
B(  6-C ,  7-H ) :   0.9352 B(  6-C ,  8-H ) :   0.9392 B(  6-C ,  9-C ) :   1.0670
B(  9-C , 10-H ) :   0.9666 B(  9-C , 11-H ) :   0.9594 B(  9-C , 12-C ) :   1.0593
B( 12-C , 13-H ) :   0.9806 B( 12-C , 14-H ) :   0.9794 B( 12-C , 15-H ) :   0.9757
B( 16-S , 17-C ) :   1.1497 B( 16-S , 20-C ) :   1.1277 B( 17-C , 18-C ) :   1.6371
B( 17-C , 33-H ) :   0.9625 B( 18-C , 19-C ) :   1.2118 B( 18-C , 21-H ) :   0.9856
B( 19-C , 20-C ) :   1.6025 B( 19-C , 22-C ) :   1.0788 B( 22-C , 23-H ) :   0.9260
B( 22-C , 24-H ) :   0.9181 B( 22-C , 25-C ) :   1.0628 B( 25-C , 26-H ) :   0.9501
B( 25-C , 27-H ) :   0.9529 B( 25-C , 28-C ) :   1.0803 B( 28-C , 29-H ) :   0.9737
B( 28-C , 30-H ) :   0.9716 B( 28-C , 31-H ) :   0.9749

Dispersion correction           -0.014573479
FINAL SINGLE POINT ENERGY     -1339.876942350367

DIPOLE MOMENT
-------------
                                X             Y             Z
Electronic contribution:     13.12344     -22.45561       1.33218
Nuclear contribution   :    -13.45114      22.81324      -1.21029
                        -----------------------------------------
Total Dipole Moment    :     -0.32771       0.35763       0.12189
                        -----------------------------------------
Magnitude (a.u.)       :      0.50015
Magnitude (Debye)      :      1.27127

Rotational constants in cm-1:     0.017473     0.009380     0.007159
Rotational constants in MHz :   523.819725   281.191553   214.621514

                             ****ORCA TERMINATED NORMALLY****
TOTAL RUN TIME: 0 days 0 hours 0 minutes 30 seconds 45 msec
