                         Program Version 4.2.1 -  RELEASE  -
|  1> ! wB97X-D3 SP def2-SVP
|  2> %pal
|  3> nprocs 16
|  4> end
|  5>
|  6> * xyz 0 1
|  7> S 	 -26.0831 	 54.3965 	 108.661
|  8> C 	 -27.7472 	 54.5575 	 108.437
|  9> C 	 -28.3417 	 55.7129 	 108.856
| 10> C 	 -27.3051 	 56.5645 	 109.3
| 11> C 	 -26.0155 	 56.0812 	 109.098
| 12> H 	 -27.4671 	 57.5253 	 109.774
| 13> C 	 -29.8803 	 56.044 	 108.851
| 14> H 	 -30.2434 	 55.8965 	 107.836
| 15> H 	 -29.9249 	 57.1471 	 109.061
| 16> C 	 -30.7576 	 55.2023 	 109.823
| 17> H 	 -31.7812 	 55.551 	 109.636
| 18> H 	 -30.6854 	 54.0708 	 109.54
| 19> C 	 -30.2391 	 55.237 	 111.266
| 20> H 	 -29.2627 	 54.843 	 111.358
| 21> H 	 -30.236 	 56.1685 	 111.806
| 22> H 	 -30.9307 	 54.6189 	 111.881
| 23> S 	 -24.6492 	 58.0304 	 107.938
| 24> C 	 -23.2068 	 58.6232 	 108.667
| 25> C 	 -22.8398 	 57.8273 	 109.744
| 26> C 	 -23.7634 	 56.8374 	 110.057
| 27> C 	 -24.8636 	 56.8347 	 109.255
| 28> H 	 -21.9413 	 58.1068 	 110.307
| 29> C 	 -23.6163 	 56.006 	 111.29
| 30> H 	 -23.0558 	 55.1349 	 111.057
| 31> H 	 -24.5985 	 55.6011 	 111.512
| 32> C 	 -22.9148 	 56.588 	 112.534
| 33> H 	 -21.8854 	 56.9151 	 112.28
| 34> H 	 -22.7459 	 55.7329 	 113.195
| 35> C 	 -23.7097 	 57.7899 	 113.164
| 36> H 	 -24.6785 	 58.0043 	 112.866
| 37> H 	 -23.1591 	 58.7382 	 112.91
| 38> H 	 -23.646 	 57.7449 	 114.254
| 39> H 	 -28.4035 	 53.7062 	 108.303
| 40> H 	 -22.8484 	 59.6039 	 108.467
| 41> *
| 42>
| 43>                          ****END OF INPUT****

CARTESIAN COORDINATES (ANGSTROEM)
---------------------------------
  S    -26.083100   54.396500  108.661000
  C    -27.747200   54.557500  108.437000
  C    -28.341700   55.712900  108.856000
  C    -27.305100   56.564500  109.300000
  C    -26.015500   56.081200  109.098000
  H    -27.467100   57.525300  109.774000
  C    -29.880300   56.044000  108.851000
  H    -30.243400   55.896500  107.836000
  H    -29.924900   57.147100  109.061000
  C    -30.757600   55.202300  109.823000
  H    -31.781200   55.551000  109.636000
  H    -30.685400   54.070800  109.540000
  C    -30.239100   55.237000  111.266000
  H    -29.262700   54.843000  111.358000
  H    -30.236000   56.168500  111.806000
  H    -30.930700   54.618900  111.881000
  S    -24.649200   58.030400  107.938000
  C    -23.206800   58.623200  108.667000
  C    -22.839800   57.827300  109.744000
  C    -23.763400   56.837400  110.057000
  C    -24.863600   56.834700  109.255000
  H    -21.941300   58.106800  110.307000
  C    -23.616300   56.006000  111.290000
  H    -23.055800   55.134900  111.057000
  H    -24.598500   55.601100  111.512000
  C    -22.914800   56.588000  112.534000
  H    -21.885400   56.915100  112.280000
  H    -22.745900   55.732900  113.195000
  C    -23.709700   57.789900  113.164000
  H    -24.678500   58.004300  112.866000
  H    -23.159100   58.738200  112.910000
  H    -23.646000   57.744900  114.254000
  H    -28.403500   53.706200  108.303000
  H    -22.848400   59.603900  108.467000

 Total Charge           Charge          ....    0
 Multiplicity           Mult            ....    1
 Number of Electrons    NEL             ....  134
 Basis Dimension        Dim             ....  322

ORBITAL ENERGIES
----------------

  NO   OCC          E(Eh)            E(eV)
   0   2.0000     -88.967981     -2420.9418
   1   2.0000     -88.956080     -2420.6180
   2   2.0000     -10.317459      -280.7523
   3   2.0000     -10.314418      -280.6696
   4   2.0000     -10.310004      -280.5495
   5   2.0000     -10.304814      -280.4082
   6   2.0000     -10.302812      -280.3538
   7   2.0000     -10.302229      -280.3379
   8   2.0000     -10.297268      -280.2029
   9   2.0000     -10.294237      -280.1204
  10   2.0000     -10.294016      -280.1144
  11   2.0000     -10.291611      -280.0490
  12   2.0000     -10.287805      -279.9454
  13   2.0000     -10.282862      -279.8109
  14   2.0000     -10.275519      -279.6111
  15   2.0000     -10.275116      -279.6001
  16   2.0000      -8.083946      -219.9753
  17   2.0000      -8.071313      -219.6316
  18   2.0000      -6.042118      -164.4144
  19   2.0000      -6.038492      -164.3157
  20   2.0000      -6.034780      -164.2147
  21   2.0000      -6.029597      -164.0737
  22   2.0000      -6.025721      -163.9682
  23   2.0000      -6.022281      -163.8746
  24   2.0000      -1.014545       -27.6072
  25   2.0000      -0.989350       -26.9216
  26   2.0000      -0.906806       -24.6754
  27   2.0000      -0.906190       -24.6587
  28   2.0000      -0.875084       -23.8123
  29   2.0000      -0.851762       -23.1776
  30   2.0000      -0.844866       -22.9900
  31   2.0000      -0.806743       -21.9526
  32   2.0000      -0.787931       -21.4407
  33   2.0000      -0.776661       -21.1340
  34   2.0000      -0.711065       -19.3491
  35   2.0000      -0.699914       -19.0456
  36   2.0000      -0.699327       -19.0297
  37   2.0000      -0.658915       -17.9300
  38   2.0000      -0.640914       -17.4401
  39   2.0000      -0.608767       -16.5654
  40   2.0000      -0.598695       -16.2913
  41   2.0000      -0.573051       -15.5935
  42   2.0000      -0.550373       -14.9764
  43   2.0000      -0.543389       -14.7864
  44   2.0000      -0.541375       -14.7316
  45   2.0000      -0.533454       -14.5160
  46   2.0000      -0.522880       -14.2283
  47   2.0000      -0.511790       -13.9265
  48   2.0000      -0.502498       -13.6737
  49   2.0000      -0.496750       -13.5173
  50   2.0000      -0.490329       -13.3425
  51   2.0000      -0.477686       -12.9985
  52   2.0000      -0.467858       -12.7311
  53   2.0000      -0.464348       -12.6355
  54   2.0000      -0.459698       -12.5090
  55   2.0000      -0.447800       -12.1853
  56   2.0000      -0.445944       -12.1347
  57   2.0000      -0.435934       -11.8624
  58   2.0000      -0.428831       -11.6691
  59   2.0000      -0.425181       -11.5698
  60   2.0000      -0.423752       -11.5309
  61   2.0000      -0.418804       -11.3962
  62   2.0000      -0.411182       -11.1888
  63   2.0000      -0.337834        -9.1929
  64   2.0000      -0.327164        -8.9026
  65   2.0000      -0.322991        -8.7890
  66   2.0000      -0.298532        -8.1235
  67   0.0000       0.030981         0.8430
  68   0.0000       0.065025         1.7694
  69   0.0000       0.111796         3.0421
  70   0.0000       0.117735         3.2037
  71   0.0000       0.133005         3.6192

MULLIKEN ATOMIC CHARGES
-----------------------
   0 S :    0.150508
   1 C :   -0.108528
   2 C :   -0.103693
   3 C :    0.019547
   4 C :   -0.190909
   5 H :    0.008802
   6 C :    0.069907
   7 H :    0.040134
   8 H :    0.034205
   9 C :   -0.095196
  10 H :    0.042627
  11 H :    0.042829
  12 C :   -0.042482
  13 H :    0.039614
  14 H :    0.024442
  15 H :    0.030673
  16 S :    0.100088
  17 C :   -0.083486
  18 C :   -0.066931
  19 C :    0.024272
  20 C :   -0.202767
  21 H :    0.021257
  22 C :    0.088854
  23 H :    0.018315
  24 H :    0.019377
  25 C :   -0.092224
  26 H :    0.032396
  27 H :    0.033622
  28 C :   -0.033519
  29 H :    0.028573
  30 H :    0.025851
  31 H :    0.033604
  32 H :    0.037017
  33 H :    0.053219
Sum of atomic charges:   -0.0000000

LOEWDIN ATOMIC CHARGES
----------------------
   0 S :    0.440849
   1 C :   -0.211613
   2 C :   -0.072532
   3 C :   -0.049184
   4 C :   -0.223754
   5 H :    0.028945
   6 C :   -0.029942
   7 H :    0.033027
   8 H :    0.034945
   9 C :   -0.043111
  10 H :    0.027219
  11 H :    0.034778
  12 C :   -0.068976
  13 H :    0.023674
  14 H :    0.021301
  15 H :    0.030818
  16 S :    0.403736
  17 C :   -0.185217
  18 C :   -0.076515
  19 C :   -0.059087
  20 C :   -0.188734
  21 H :    0.033195
  22 C :   -0.031251
  23 H :    0.030262
  24 H :    0.028422
  25 C :   -0.037643
  26 H :    0.024518
  27 H :    0.027410
  28 C :   -0.067922
  29 H :    0.016182
  30 H :    0.033024
  31 H :    0.028088
  32 H :    0.022457
  33 H :    0.022632

  Mayer bond orders larger than 0.100000
B(  0-S ,  1-C ) :   1.1784 B(  0-S ,  4-C ) :   1.1294 B(  1-C ,  2-C ) :   1.6029
B(  1-C , 32-H ) :   0.9537 B(  2-C ,  3-C ) :   1.2756 B(  2-C ,  6-C ) :   0.9919
B(  3-C ,  4-C ) :   1.5377 B(  3-C ,  5-H ) :   0.9960 B(  4-C , 20-C ) :   1.0953
B(  6-C ,  7-H ) :   0.9449 B(  6-C ,  8-H ) :   0.9461 B(  6-C ,  9-C ) :   1.0661
B(  9-C , 10-H ) :   0.9575 B(  9-C , 11-H ) :   0.9564 B(  9-C , 12-C ) :   1.0673
B( 12-C , 13-H ) :   0.9714 B( 12-C , 14-H ) :   0.9774 B( 12-C , 15-H ) :   0.9735
B( 16-S , 17-C ) :   1.1768 B( 16-S , 20-C ) :   1.1301 B( 17-C , 18-C ) :   1.5830
B( 17-C , 20-C ) :   0.1129 B( 17-C , 33-H ) :   0.9681 B( 18-C , 19-C ) :   1.2456
B( 18-C , 21-H ) :   0.9877 B( 19-C , 20-C ) :   1.5830 B( 19-C , 22-C ) :   1.0424
B( 22-C , 23-H ) :   0.9147 B( 22-C , 24-H ) :   0.9328 B( 22-C , 25-C ) :   1.0915
B( 25-C , 26-H ) :   0.9542 B( 25-C , 27-H ) :   0.9586 B( 25-C , 28-C ) :   1.0474
B( 28-C , 29-H ) :   0.9848 B( 28-C , 30-H ) :   0.9759 B( 28-C , 31-H ) :   0.9789

Dispersion correction           -0.014805981
FINAL SINGLE POINT ENERGY     -1339.863499128179

DIPOLE MOMENT
-------------
                                X             Y             Z
Electronic contribution:      9.79054      -0.44311     -20.55857
Nuclear contribution   :    -10.06243       0.48889      21.11451
                        -----------------------------------------
Total Dipole Moment    :     -0.27189       0.04579       0.55594
                        -----------------------------------------
Magnitude (a.u.)       :      0.62056
Magnitude (Debye)      :      1.57733

Rotational constants in cm-1:     0.020785     0.008040     0.007034
Rotational constants in MHz :   623.111522   241.021117   210.883716

                             ****ORCA TERMINATED NORMALLY****
TOTAL RUN TIME: 0 days 0 hours 0 minutes 31 seconds 380 msec
