                         Program Version 4.2.1 -  RELEASE  -
|  1> ! wB97X-D3 SP def2-SVP
|  2> %pal
|  3> nprocs 16
|  4> end
|  5>
|  6> * xyz 0 1
|  7> S 	 -8.63267 	 46.9515 	 41.5936
|  8> C 	 -9.06186 	 47.5363 	 43.1539
|  9> C 	 -8.85197 	 48.8757 	 43.2526
| 10> C 	 -8.11182 	 49.3771 	 42.153
| 11> C 	 -7.99246 	 48.5323 	 41.0689
| 12> H 	 -7.79997 	 50.4196 	 42.1256
| 13> C 	 -9.2232 	 49.7235 	 44.3832
| 14> H 	 -8.39269 	 50.0635 	 44.8455
| 15> H 	 -9.73017 	 49.083 	 45.1218
| 16> C 	 -10.153 	 50.8888 	 44.1289
| 17> H 	 -10.2484 	 51.3899 	 45.1214
| 18> H 	 -9.6668 	 51.5558 	 43.4248
| 19> C 	 -11.5221 	 50.4743 	 43.5542
| 20> H 	 -11.9598 	 51.4475 	 43.173
| 21> H 	 -11.379 	 49.8377 	 42.6221
| 22> H 	 -12.2603 	 49.9634 	 44.242
| 23> S 	 -6.72223 	 47.2567 	 39.0761
| 24> C 	 -5.92789 	 48.0839 	 37.8487
| 25> C 	 -5.84841 	 49.4816 	 38.0831
| 26> C 	 -6.56775 	 49.8797 	 39.2676
| 27> C 	 -7.13158 	 48.7138 	 39.907
| 28> H 	 -5.39061 	 49.9535 	 37.2405
| 29> C 	 -6.55874 	 51.3149 	 39.6502
| 30> H 	 -7.37337 	 51.5499 	 40.2789
| 31> H 	 -6.72539 	 51.8818 	 38.8182
| 32> C 	 -5.30661 	 51.8948 	 40.3899
| 33> H 	 -4.4132 	 51.7812 	 39.6801
| 34> H 	 -5.19164 	 51.2764 	 41.2237
| 35> C 	 -5.51579 	 53.3395 	 40.8092
| 36> H 	 -5.7494 	 53.9798 	 39.9548
| 37> H 	 -4.62037 	 53.7683 	 41.3879
| 38> H 	 -6.40468 	 53.3139 	 41.5358
| 39> H 	 -9.66698 	 46.9325 	 43.8971
| 40> H 	 -5.56369 	 47.5428 	 36.954
| 41> *
| 42>
| 43>                          ****END OF INPUT****

CARTESIAN COORDINATES (ANGSTROEM)
---------------------------------
  S     -8.632670   46.951500   41.593600
  C     -9.061860   47.536300   43.153900
  C     -8.851970   48.875700   43.252600
  C     -8.111820   49.377100   42.153000
  C     -7.992460   48.532300   41.068900
  H     -7.799970   50.419600   42.125600
  C     -9.223200   49.723500   44.383200
  H     -8.392690   50.063500   44.845500
  H     -9.730170   49.083000   45.121800
  C    -10.153000   50.888800   44.128900
  H    -10.248400   51.389900   45.121400
  H     -9.666800   51.555800   43.424800
  C    -11.522100   50.474300   43.554200
  H    -11.959800   51.447500   43.173000
  H    -11.379000   49.837700   42.622100
  H    -12.260300   49.963400   44.242000
  S     -6.722230   47.256700   39.076100
  C     -5.927890   48.083900   37.848700
  C     -5.848410   49.481600   38.083100
  C     -6.567750   49.879700   39.267600
  C     -7.131580   48.713800   39.907000
  H     -5.390610   49.953500   37.240500
  C     -6.558740   51.314900   39.650200
  H     -7.373370   51.549900   40.278900
  H     -6.725390   51.881800   38.818200
  C     -5.306610   51.894800   40.389900
  H     -4.413200   51.781200   39.680100
  H     -5.191640   51.276400   41.223700
  C     -5.515790   53.339500   40.809200
  H     -5.749400   53.979800   39.954800
  H     -4.620370   53.768300   41.387900
  H     -6.404680   53.313900   41.535800
  H     -9.666980   46.932500   43.897100
  H     -5.563690   47.542800   36.954000

 Total Charge           Charge          ....    0
 Multiplicity           Mult            ....    1
 Number of Electrons    NEL             ....  134
 Basis Dimension        Dim             ....  322

ORBITAL ENERGIES
----------------

  NO   OCC          E(Eh)            E(eV)
   0   2.0000     -88.967786     -2420.9365
   1   2.0000     -88.964406     -2420.8446
   2   2.0000     -10.333266      -281.1825
   3   2.0000     -10.333107      -281.1781
   4   2.0000     -10.315229      -280.6917
   5   2.0000     -10.314580      -280.6740
   6   2.0000     -10.314429      -280.6699
   7   2.0000     -10.296431      -280.1801
   8   2.0000     -10.294076      -280.1160
   9   2.0000     -10.291509      -280.0462
  10   2.0000     -10.290460      -280.0177
  11   2.0000     -10.289819      -280.0002
  12   2.0000     -10.289610      -279.9945
  13   2.0000     -10.288497      -279.9642
  14   2.0000     -10.282311      -279.7959
  15   2.0000     -10.276465      -279.6368
  16   2.0000      -8.084195      -219.9821
  17   2.0000      -8.079192      -219.8460
  18   2.0000      -6.042384      -164.4216
  19   2.0000      -6.038301      -164.3105
  20   2.0000      -6.037857      -164.2984
  21   2.0000      -6.035377      -164.2310
  22   2.0000      -6.033708      -164.1855
  23   2.0000      -6.029767      -164.0783
  24   2.0000      -1.011099       -27.5134
  25   2.0000      -0.989774       -26.9331
  26   2.0000      -0.919874       -25.0311
  27   2.0000      -0.916168       -24.9302
  28   2.0000      -0.869812       -23.6688
  29   2.0000      -0.857544       -23.3349
  30   2.0000      -0.843866       -22.9628
  31   2.0000      -0.813554       -22.1379
  32   2.0000      -0.785109       -21.3639
  33   2.0000      -0.773058       -21.0360
  34   2.0000      -0.708198       -19.2711
  35   2.0000      -0.696913       -18.9640
  36   2.0000      -0.689851       -18.7718
  37   2.0000      -0.663241       -18.0477
  38   2.0000      -0.632084       -17.1999
  39   2.0000      -0.629554       -17.1310
  40   2.0000      -0.601112       -16.3571
  41   2.0000      -0.575771       -15.6675
  42   2.0000      -0.570626       -15.5275
  43   2.0000      -0.555076       -15.1044
  44   2.0000      -0.539371       -14.6770
  45   2.0000      -0.522770       -14.2253
  46   2.0000      -0.517390       -14.0789
  47   2.0000      -0.512489       -13.9455
  48   2.0000      -0.502684       -13.6787
  49   2.0000      -0.499998       -13.6056
  50   2.0000      -0.492129       -13.3915
  51   2.0000      -0.483272       -13.1505
  52   2.0000      -0.472008       -12.8440
  53   2.0000      -0.462640       -12.5891
  54   2.0000      -0.457701       -12.4547
  55   2.0000      -0.449349       -12.2274
  56   2.0000      -0.444310       -12.0903
  57   2.0000      -0.437067       -11.8932
  58   2.0000      -0.433335       -11.7916
  59   2.0000      -0.429276       -11.6812
  60   2.0000      -0.421536       -11.4706
  61   2.0000      -0.419803       -11.4234
  62   2.0000      -0.411366       -11.1938
  63   2.0000      -0.364477        -9.9179
  64   2.0000      -0.334358        -9.0983
  65   2.0000      -0.326240        -8.8774
  66   2.0000      -0.278180        -7.5697
  67   0.0000       0.017855         0.4859
  68   0.0000       0.092171         2.5081
  69   0.0000       0.098885         2.6908
  70   0.0000       0.112849         3.0708
  71   0.0000       0.123139         3.3508

MULLIKEN ATOMIC CHARGES
-----------------------
   0 S :    0.081674
   1 C :   -0.136524
   2 C :   -0.096985
   3 C :   -0.025976
   4 C :   -0.073973
   5 H :    0.003524
   6 C :    0.130012
   7 H :    0.004580
   8 H :    0.000996
   9 C :   -0.080167
  10 H :    0.038732
  11 H :    0.023357
  12 C :   -0.105989
  13 H :    0.040722
  14 H :    0.057655
  15 H :    0.049907
  16 S :    0.120724
  17 C :   -0.131449
  18 C :   -0.037658
  19 C :   -0.026090
  20 C :   -0.138160
  21 H :    0.018631
  22 C :    0.103075
  23 H :   -0.010565
  24 H :   -0.005394
  25 C :   -0.057114
  26 H :    0.038760
  27 H :    0.020671
  28 C :   -0.082587
  29 H :    0.040921
  30 H :    0.057658
  31 H :    0.034383
  32 H :    0.070772
  33 H :    0.071877
Sum of atomic charges:   -0.0000000

LOEWDIN ATOMIC CHARGES
----------------------
   0 S :    0.390657
   1 C :   -0.208163
   2 C :   -0.072718
   3 C :   -0.067271
   4 C :   -0.180221
   5 H :    0.025816
   6 C :   -0.031354
   7 H :    0.018664
   8 H :    0.030532
   9 C :   -0.039492
  10 H :    0.031675
  11 H :    0.019617
  12 C :   -0.081145
  13 H :    0.032535
  14 H :    0.035935
  15 H :    0.030286
  16 S :    0.453789
  17 C :   -0.217577
  18 C :   -0.071896
  19 C :   -0.046698
  20 C :   -0.202508
  21 H :    0.032041
  22 C :   -0.029047
  23 H :    0.018893
  24 H :    0.019717
  25 C :   -0.033335
  26 H :    0.029372
  27 H :    0.015512
  28 C :   -0.073882
  29 H :    0.024965
  30 H :    0.038269
  31 H :    0.030379
  32 H :    0.043002
  33 H :    0.033654

  Mayer bond orders larger than 0.100000
B(  0-S ,  1-C ) :   1.1395 B(  0-S ,  4-C ) :   1.1306 B(  1-C ,  2-C ) :   1.6072
B(  1-C , 32-H ) :   0.9508 B(  2-C ,  3-C ) :   1.2532 B(  2-C ,  6-C ) :   1.0384
B(  3-C ,  4-C ) :   1.5632 B(  3-C ,  5-H ) :   0.9837 B(  4-C , 20-C ) :   1.0924
B(  6-C ,  7-H ) :   0.9248 B(  6-C ,  8-H ) :   0.9303 B(  6-C ,  9-C ) :   1.0797
B(  9-C , 10-H ) :   0.9528 B(  9-C , 11-H ) :   0.9552 B(  9-C , 12-C ) :   1.0713
B( 12-C , 13-H ) :   0.9746 B( 12-C , 14-H ) :   0.9716 B( 12-C , 15-H ) :   0.9747
B( 16-S , 17-C ) :   1.1975 B( 16-S , 20-C ) :   1.1709 B( 17-C , 18-C ) :   1.5626
B( 17-C , 33-H ) :   0.9637 B( 18-C , 19-C ) :   1.2588 B( 18-C , 21-H ) :   0.9980
B( 19-C , 20-C ) :   1.5049 B( 19-C , 22-C ) :   1.0691 B( 22-C , 23-H ) :   0.9236
B( 22-C , 24-H ) :   0.9152 B( 22-C , 25-C ) :   1.0571 B( 25-C , 26-H ) :   0.9528
B( 25-C , 27-H ) :   0.9553 B( 25-C , 28-C ) :   1.0794 B( 28-C , 29-H ) :   0.9744
B( 28-C , 30-H ) :   0.9718 B( 28-C , 31-H ) :   0.9718

Dispersion correction           -0.014186206
FINAL SINGLE POINT ENERGY     -1339.865332652321

DIPOLE MOMENT
-------------
                                X             Y             Z
Electronic contribution:      3.61125     -27.24901     -11.70203
Nuclear contribution   :     -3.54656      27.86825      11.83715
                        -----------------------------------------
Total Dipole Moment    :      0.06470       0.61924       0.13512
                        -----------------------------------------
Magnitude (a.u.)       :      0.63710
Magnitude (Debye)      :      1.61938

Rotational constants in cm-1:     0.016680     0.009929     0.006711
Rotational constants in MHz :   500.041380   297.667366   201.185683

                             ****ORCA TERMINATED NORMALLY****
TOTAL RUN TIME: 0 days 0 hours 0 minutes 34 seconds 132 msec
