                         Program Version 4.2.1 -  RELEASE  -
|  1> ! wB97X-D3 SP def2-SVP
|  2> %pal
|  3> nprocs 16
|  4> end
|  5>
|  6> * xyz 0 1
|  7> S 	 71.0491 	 25.1492 	 79.6088
|  8> C 	 72.3247 	 24.5424 	 80.6127
|  9> C 	 73.5726 	 24.957 	 80.1638
| 10> C 	 73.4618 	 25.6862 	 78.9384
| 11> C 	 72.1627 	 25.801 	 78.4204
| 12> H 	 74.2194 	 26.1488 	 78.3578
| 13> C 	 74.8654 	 24.6727 	 80.9313
| 14> H 	 75.6792 	 24.3762 	 80.1867
| 15> H 	 74.8335 	 23.8225 	 81.5806
| 16> C 	 75.4414 	 25.8624 	 81.7314
| 17> H 	 76.4546 	 25.6206 	 82.0906
| 18> H 	 75.6018 	 26.687 	 81.0963
| 19> C 	 74.5914 	 26.2227 	 82.9481
| 20> H 	 75.116 	 26.938 	 83.471
| 21> H 	 73.6639 	 26.7007 	 82.59
| 22> H 	 74.3543 	 25.4084 	 83.6751
| 23> S 	 71.3031 	 25.4852 	 75.8284
| 24> C 	 71.2303 	 26.8173 	 74.7347
| 25> C 	 71.6904 	 27.9894 	 75.3727
| 26> C 	 71.976 	 27.8226 	 76.7829
| 27> C 	 71.7277 	 26.5242 	 77.2302
| 28> H 	 71.8321 	 28.8695 	 74.798
| 29> C 	 72.6099 	 28.9034 	 77.6321
| 30> H 	 73.6606 	 29.0338 	 77.3842
| 31> H 	 72.5185 	 28.6462 	 78.7134
| 32> C 	 71.9966 	 30.3302 	 77.3203
| 33> H 	 70.9256 	 30.2036 	 77.512
| 34> H 	 72.0528 	 30.6131 	 76.2709
| 35> C 	 72.4859 	 31.394 	 78.253
| 36> H 	 72.0653 	 31.2956 	 79.2544
| 37> H 	 72.2624 	 32.347 	 77.8036
| 38> H 	 73.5926 	 31.2933 	 78.1989
| 39> H 	 72.1005 	 24.1935 	 81.5736
| 40> H 	 70.9301 	 26.8202 	 73.7159
| 41> *
| 42>
| 43>                          ****END OF INPUT****

CARTESIAN COORDINATES (ANGSTROEM)
---------------------------------
  S     71.049100   25.149200   79.608800
  C     72.324700   24.542400   80.612700
  C     73.572600   24.957000   80.163800
  C     73.461800   25.686200   78.938400
  C     72.162700   25.801000   78.420400
  H     74.219400   26.148800   78.357800
  C     74.865400   24.672700   80.931300
  H     75.679200   24.376200   80.186700
  H     74.833500   23.822500   81.580600
  C     75.441400   25.862400   81.731400
  H     76.454600   25.620600   82.090600
  H     75.601800   26.687000   81.096300
  C     74.591400   26.222700   82.948100
  H     75.116000   26.938000   83.471000
  H     73.663900   26.700700   82.590000
  H     74.354300   25.408400   83.675100
  S     71.303100   25.485200   75.828400
  C     71.230300   26.817300   74.734700
  C     71.690400   27.989400   75.372700
  C     71.976000   27.822600   76.782900
  C     71.727700   26.524200   77.230200
  H     71.832100   28.869500   74.798000
  C     72.609900   28.903400   77.632100
  H     73.660600   29.033800   77.384200
  H     72.518500   28.646200   78.713400
  C     71.996600   30.330200   77.320300
  H     70.925600   30.203600   77.512000
  H     72.052800   30.613100   76.270900
  C     72.485900   31.394000   78.253000
  H     72.065300   31.295600   79.254400
  H     72.262400   32.347000   77.803600
  H     73.592600   31.293300   78.198900
  H     72.100500   24.193500   81.573600
  H     70.930100   26.820200   73.715900

 Total Charge           Charge          ....    0
 Multiplicity           Mult            ....    1
 Number of Electrons    NEL             ....  134
 Basis Dimension        Dim             ....  322

ORBITAL ENERGIES
----------------

  NO   OCC          E(Eh)            E(eV)
   0   2.0000     -88.963889     -2420.8305
   1   2.0000     -88.963680     -2420.8248
   2   2.0000     -10.330211      -281.0993
   3   2.0000     -10.328639      -281.0566
   4   2.0000     -10.319900      -280.8187
   5   2.0000     -10.311316      -280.5852
   6   2.0000     -10.310038      -280.5504
   7   2.0000     -10.306384      -280.4510
   8   2.0000     -10.296796      -280.1901
   9   2.0000     -10.296512      -280.1823
  10   2.0000     -10.296161      -280.1728
  11   2.0000     -10.295681      -280.1597
  12   2.0000     -10.284509      -279.8557
  13   2.0000     -10.284177      -279.8467
  14   2.0000     -10.277710      -279.6707
  15   2.0000     -10.273055      -279.5440
  16   2.0000      -8.078953      -219.8395
  17   2.0000      -8.078149      -219.8176
  18   2.0000      -6.037263      -164.2823
  19   2.0000      -6.036714      -164.2673
  20   2.0000      -6.033308      -164.1747
  21   2.0000      -6.032587      -164.1550
  22   2.0000      -6.030003      -164.0847
  23   2.0000      -6.028957      -164.0563
  24   2.0000      -1.002335       -27.2749
  25   2.0000      -0.980915       -26.6921
  26   2.0000      -0.909400       -24.7460
  27   2.0000      -0.908875       -24.7318
  28   2.0000      -0.869654       -23.6645
  29   2.0000      -0.851979       -23.1835
  30   2.0000      -0.845487       -23.0069
  31   2.0000      -0.812031       -22.0965
  32   2.0000      -0.783274       -21.3140
  33   2.0000      -0.771997       -21.0071
  34   2.0000      -0.706541       -19.2260
  35   2.0000      -0.697744       -18.9866
  36   2.0000      -0.693005       -18.8576
  37   2.0000      -0.654982       -17.8230
  38   2.0000      -0.650985       -17.7142
  39   2.0000      -0.618533       -16.8311
  40   2.0000      -0.596227       -16.2242
  41   2.0000      -0.572585       -15.5808
  42   2.0000      -0.571841       -15.5606
  43   2.0000      -0.547896       -14.9090
  44   2.0000      -0.539000       -14.6669
  45   2.0000      -0.529534       -14.4093
  46   2.0000      -0.519260       -14.1298
  47   2.0000      -0.517071       -14.0702
  48   2.0000      -0.503834       -13.7100
  49   2.0000      -0.497307       -13.5324
  50   2.0000      -0.484909       -13.1950
  51   2.0000      -0.483480       -13.1562
  52   2.0000      -0.474239       -12.9047
  53   2.0000      -0.470146       -12.7933
  54   2.0000      -0.461946       -12.5702
  55   2.0000      -0.447291       -12.1714
  56   2.0000      -0.441487       -12.0135
  57   2.0000      -0.433748       -11.8029
  58   2.0000      -0.432359       -11.7651
  59   2.0000      -0.427897       -11.6437
  60   2.0000      -0.417844       -11.3701
  61   2.0000      -0.413010       -11.2386
  62   2.0000      -0.411764       -11.2047
  63   2.0000      -0.335273        -9.1233
  64   2.0000      -0.328481        -8.9384
  65   2.0000      -0.324872        -8.8402
  66   2.0000      -0.303845        -8.2680
  67   0.0000       0.033698         0.9170
  68   0.0000       0.056719         1.5434
  69   0.0000       0.110846         3.0163
  70   0.0000       0.118623         3.2279
  71   0.0000       0.131998         3.5919

MULLIKEN ATOMIC CHARGES
-----------------------
   0 S :    0.110686
   1 C :   -0.094027
   2 C :   -0.073673
   3 C :    0.056078
   4 C :   -0.189843
   5 H :   -0.000851
   6 C :    0.050033
   7 H :    0.035770
   8 H :    0.017973
   9 C :   -0.060323
  10 H :    0.023935
  11 H :    0.016036
  12 C :   -0.039745
  13 H :    0.013375
  14 H :    0.039996
  15 H :    0.035211
  16 S :    0.105127
  17 C :   -0.071453
  18 C :   -0.048852
  19 C :   -0.016868
  20 C :   -0.156344
  21 H :    0.010373
  22 C :    0.057621
  23 H :    0.035516
  24 H :    0.045518
  25 C :   -0.146331
  26 H :    0.030219
  27 H :    0.034403
  28 C :   -0.003841
  29 H :    0.046289
  30 H :    0.027222
  31 H :    0.022436
  32 H :    0.036761
  33 H :    0.051573
Sum of atomic charges:   -0.0000000

LOEWDIN ATOMIC CHARGES
----------------------
   0 S :    0.417114
   1 C :   -0.188177
   2 C :   -0.064346
   3 C :   -0.050796
   4 C :   -0.207831
   5 H :    0.026043
   6 C :   -0.032350
   7 H :    0.038539
   8 H :    0.024965
   9 C :   -0.035944
  10 H :    0.024491
  11 H :    0.017066
  12 C :   -0.064896
  13 H :    0.014727
  14 H :    0.029148
  15 H :    0.029159
  16 S :    0.406793
  17 C :   -0.182807
  18 C :   -0.073334
  19 C :   -0.046625
  20 C :   -0.200082
  21 H :    0.022890
  22 C :   -0.031687
  23 H :    0.029797
  24 H :    0.037416
  25 C :   -0.047479
  26 H :    0.023966
  27 H :    0.020628
  28 C :   -0.062467
  29 H :    0.029569
  30 H :    0.025999
  31 H :    0.026605
  32 H :    0.016603
  33 H :    0.027303

  Mayer bond orders larger than 0.100000
B(  0-S ,  1-C ) :   1.1677 B(  0-S ,  4-C ) :   1.1628 B(  1-C ,  2-C ) :   1.5731
B(  1-C ,  4-C ) :   0.1020 B(  1-C , 32-H ) :   0.9755 B(  2-C ,  3-C ) :   1.2511
B(  2-C ,  6-C ) :   1.0225 B(  3-C ,  4-C ) :   1.5570 B(  3-C ,  5-H ) :   1.0058
B(  4-C , 20-C ) :   1.0146 B(  6-C ,  7-H ) :   0.9411 B(  6-C ,  8-H ) :   0.9492
B(  6-C ,  9-C ) :   1.0752 B(  9-C , 10-H ) :   0.9553 B(  9-C , 11-H ) :   0.9551
B(  9-C , 12-C ) :   1.0776 B( 12-C , 13-H ) :   0.9717 B( 12-C , 14-H ) :   0.9744
B( 12-C , 15-H ) :   0.9751 B( 16-S , 17-C ) :   1.1766 B( 16-S , 20-C ) :   1.1332
B( 17-C , 18-C ) :   1.5888 B( 17-C , 20-C ) :   0.1009 B( 17-C , 33-H ) :   0.9705
B( 18-C , 19-C ) :   1.2380 B( 18-C , 21-H ) :   0.9949 B( 19-C , 20-C ) :   1.5893
B( 19-C , 22-C ) :   1.0527 B( 22-C , 23-H ) :   0.9271 B( 22-C , 24-H ) :   0.9414
B( 22-C , 25-C ) :   1.0474 B( 25-C , 26-H ) :   0.9590 B( 25-C , 27-H ) :   0.9557
B( 25-C , 28-C ) :   1.0912 B( 28-C , 29-H ) :   0.9741 B( 28-C , 30-H ) :   0.9703
B( 28-C , 31-H ) :   0.9704

Dispersion correction           -0.014147990
FINAL SINGLE POINT ENERGY     -1339.879756051596

DIPOLE MOMENT
-------------
                                X             Y             Z
Electronic contribution:    -15.72622     -18.49046     -14.89454
Nuclear contribution   :     16.31346      19.06322      15.03405
                        -----------------------------------------
Total Dipole Moment    :      0.58724       0.57276       0.13951
                        -----------------------------------------
Magnitude (a.u.)       :      0.83209
Magnitude (Debye)      :      2.11500

Rotational constants in cm-1:     0.017313     0.008682     0.006580
Rotational constants in MHz :   519.026860   260.270447   197.275833

                             ****ORCA TERMINATED NORMALLY****
TOTAL RUN TIME: 0 days 0 hours 0 minutes 29 seconds 642 msec
