                         Program Version 4.2.1 -  RELEASE  -
|  1> ! wB97X-D3 SP def2-SVP
|  2> %pal
|  3> nprocs 16
|  4> end
|  5>
|  6> * xyz 0 1
|  7> S 	 -2.41787 	 33.7424 	 53.647
|  8> C 	 -0.679646 	 33.792 	 53.9713
|  9> C 	 -0.0141429 	 32.9511 	 53.0718
| 10> C 	 -0.87431 	 32.315 	 52.1134
| 11> C 	 -2.141 	 32.7353 	 52.2423
| 12> H 	 -0.547487 	 31.5283 	 51.4861
| 13> C 	 1.48113 	 32.5322 	 53.126
| 14> H 	 1.99585 	 33.4764 	 52.7938
| 15> H 	 1.66161 	 31.7591 	 52.3724
| 16> C 	 1.9745 	 32.1468 	 54.507
| 17> H 	 3.03605 	 31.8998 	 54.3495
| 18> H 	 1.97072 	 33.0345 	 55.1779
| 19> C 	 1.25209 	 31.0409 	 55.0843
| 20> H 	 1.44822 	 30.1124 	 54.5576
| 21> H 	 1.72973 	 30.8312 	 56.0562
| 22> H 	 0.159171 	 31.2843 	 55.2783
| 23> S 	 -4.82428 	 32.2017 	 52.0928
| 24> C 	 -5.49481 	 31.4025 	 50.7168
| 25> C 	 -4.57362 	 31.3008 	 49.7835
| 26> C 	 -3.33876 	 31.888 	 50.1277
| 27> C 	 -3.22683 	 32.1637 	 51.436
| 28> H 	 -4.89051 	 30.8566 	 48.8486
| 29> C 	 -2.18533 	 32.0401 	 49.1217
| 30> H 	 -1.88372 	 30.978 	 49.0701
| 31> H 	 -1.32975 	 32.6211 	 49.4917
| 32> C 	 -2.47294 	 32.63 	 47.7335
| 33> H 	 -3.45653 	 32.1976 	 47.3277
| 34> H 	 -1.63726 	 32.4029 	 47.0367
| 35> C 	 -2.63795 	 34.191 	 47.7568
| 36> H 	 -2.78564 	 34.6289 	 46.7325
| 37> H 	 -1.83355 	 34.6072 	 48.3614
| 38> H 	 -3.61735 	 34.364 	 48.248
| 39> H 	 -0.230562 	 34.186 	 54.8532
| 40> H 	 -6.49479 	 31.1101 	 50.6001
| 41> *
| 42>
| 43>                          ****END OF INPUT****

CARTESIAN COORDINATES (ANGSTROEM)
---------------------------------
  S     -2.417870   33.742400   53.647000
  C     -0.679646   33.792000   53.971300
  C     -0.014143   32.951100   53.071800
  C     -0.874310   32.315000   52.113400
  C     -2.141000   32.735300   52.242300
  H     -0.547487   31.528300   51.486100
  C      1.481130   32.532200   53.126000
  H      1.995850   33.476400   52.793800
  H      1.661610   31.759100   52.372400
  C      1.974500   32.146800   54.507000
  H      3.036050   31.899800   54.349500
  H      1.970720   33.034500   55.177900
  C      1.252090   31.040900   55.084300
  H      1.448220   30.112400   54.557600
  H      1.729730   30.831200   56.056200
  H      0.159171   31.284300   55.278300
  S     -4.824280   32.201700   52.092800
  C     -5.494810   31.402500   50.716800
  C     -4.573620   31.300800   49.783500
  C     -3.338760   31.888000   50.127700
  C     -3.226830   32.163700   51.436000
  H     -4.890510   30.856600   48.848600
  C     -2.185330   32.040100   49.121700
  H     -1.883720   30.978000   49.070100
  H     -1.329750   32.621100   49.491700
  C     -2.472940   32.630000   47.733500
  H     -3.456530   32.197600   47.327700
  H     -1.637260   32.402900   47.036700
  C     -2.637950   34.191000   47.756800
  H     -2.785640   34.628900   46.732500
  H     -1.833550   34.607200   48.361400
  H     -3.617350   34.364000   48.248000
  H     -0.230562   34.186000   54.853200
  H     -6.494790   31.110100   50.600100

 Total Charge           Charge          ....    0
 Multiplicity           Mult            ....    1
 Number of Electrons    NEL             ....  134
 Basis Dimension        Dim             ....  322

ORBITAL ENERGIES
----------------

  NO   OCC          E(Eh)            E(eV)
   0   2.0000     -88.968533     -2420.9569
   1   2.0000     -88.954969     -2420.5878
   2   2.0000     -10.327150      -281.0160
   3   2.0000     -10.318149      -280.7711
   4   2.0000     -10.313903      -280.6556
   5   2.0000     -10.305992      -280.4403
   6   2.0000     -10.302833      -280.3543
   7   2.0000     -10.298516      -280.2369
   8   2.0000     -10.295558      -280.1564
   9   2.0000     -10.294595      -280.1302
  10   2.0000     -10.293783      -280.1081
  11   2.0000     -10.286409      -279.9074
  12   2.0000     -10.284587      -279.8579
  13   2.0000     -10.283912      -279.8395
  14   2.0000     -10.281063      -279.7620
  15   2.0000     -10.273916      -279.5675
  16   2.0000      -8.082770      -219.9434
  17   2.0000      -8.071512      -219.6370
  18   2.0000      -6.041449      -164.3962
  19   2.0000      -6.037495      -164.2886
  20   2.0000      -6.033230      -164.1725
  21   2.0000      -6.030085      -164.0870
  22   2.0000      -6.025956      -163.9746
  23   2.0000      -6.021897      -163.8641
  24   2.0000      -1.019635       -27.7457
  25   2.0000      -0.990763       -26.9600
  26   2.0000      -0.920056       -25.0360
  27   2.0000      -0.904107       -24.6020
  28   2.0000      -0.875988       -23.8368
  29   2.0000      -0.854730       -23.2584
  30   2.0000      -0.841619       -22.9016
  31   2.0000      -0.821522       -22.3548
  32   2.0000      -0.780395       -21.2356
  33   2.0000      -0.773610       -21.0510
  34   2.0000      -0.707697       -19.2574
  35   2.0000      -0.695291       -18.9198
  36   2.0000      -0.688944       -18.7471
  37   2.0000      -0.657601       -17.8942
  38   2.0000      -0.639455       -17.4004
  39   2.0000      -0.617433       -16.8012
  40   2.0000      -0.601688       -16.3728
  41   2.0000      -0.580954       -15.8086
  42   2.0000      -0.555959       -15.1284
  43   2.0000      -0.552001       -15.0207
  44   2.0000      -0.548197       -14.9172
  45   2.0000      -0.535967       -14.5844
  46   2.0000      -0.521494       -14.1906
  47   2.0000      -0.515807       -14.0358
  48   2.0000      -0.505399       -13.7526
  49   2.0000      -0.495950       -13.4955
  50   2.0000      -0.488238       -13.2856
  51   2.0000      -0.480952       -13.0874
  52   2.0000      -0.473333       -12.8800
  53   2.0000      -0.469307       -12.7705
  54   2.0000      -0.464109       -12.6291
  55   2.0000      -0.447368       -12.1735
  56   2.0000      -0.440506       -11.9868
  57   2.0000      -0.433432       -11.7943
  58   2.0000      -0.428198       -11.6519
  59   2.0000      -0.420643       -11.4463
  60   2.0000      -0.418109       -11.3773
  61   2.0000      -0.408302       -11.1105
  62   2.0000      -0.406066       -11.0496
  63   2.0000      -0.361835        -9.8460
  64   2.0000      -0.333063        -9.0631
  65   2.0000      -0.322100        -8.7648
  66   2.0000      -0.289340        -7.8733
  67   0.0000       0.027248         0.7415
  68   0.0000       0.084678         2.3042
  69   0.0000       0.099669         2.7121
  70   0.0000       0.126098         3.4313
  71   0.0000       0.138258         3.7622

MULLIKEN ATOMIC CHARGES
-----------------------
   0 S :    0.104053
   1 C :   -0.117265
   2 C :   -0.108521
   3 C :   -0.021697
   4 C :   -0.073899
   5 H :    0.012707
   6 C :    0.064101
   7 H :    0.046346
   8 H :    0.019803
   9 C :   -0.088656
  10 H :    0.028699
  11 H :    0.028784
  12 C :   -0.035212
  13 H :    0.024476
  14 H :    0.023849
  15 H :    0.062481
  16 S :    0.068603
  17 C :   -0.048624
  18 C :   -0.032526
  19 C :   -0.060920
  20 C :   -0.126640
  21 H :    0.014871
  22 C :    0.032888
  23 H :    0.046649
  24 H :    0.030679
  25 C :   -0.099835
  26 H :    0.033975
  27 H :    0.040727
  28 C :   -0.069268
  29 H :    0.047416
  30 H :    0.040559
  31 H :    0.039061
  32 H :    0.039106
  33 H :    0.033229
Sum of atomic charges:    0.0000000

LOEWDIN ATOMIC CHARGES
----------------------
   0 S :    0.395375
   1 C :   -0.201687
   2 C :   -0.051601
   3 C :   -0.067226
   4 C :   -0.177919
   5 H :    0.029144
   6 C :   -0.034222
   7 H :    0.041463
   8 H :    0.025903
   9 C :   -0.054040
  10 H :    0.028995
  11 H :    0.024982
  12 C :   -0.072472
  13 H :    0.025373
  14 H :    0.029192
  15 H :    0.038376
  16 S :    0.397556
  17 C :   -0.169301
  18 C :   -0.078343
  19 C :   -0.062308
  20 C :   -0.194502
  21 H :    0.032949
  22 C :   -0.038280
  23 H :    0.038521
  24 H :    0.029777
  25 C :   -0.047670
  26 H :    0.025698
  27 H :    0.026655
  28 C :   -0.071888
  29 H :    0.032126
  30 H :    0.024205
  31 H :    0.029658
  32 H :    0.021984
  33 H :    0.023523

  Mayer bond orders larger than 0.100000
B(  0-S ,  1-C ) :   1.1107 B(  0-S ,  4-C ) :   1.1430 B(  1-C ,  2-C ) :   1.6194
B(  1-C , 32-H ) :   0.9742 B(  2-C ,  3-C ) :   1.2274 B(  2-C ,  6-C ) :   1.0012
B(  3-C ,  4-C ) :   1.5740 B(  3-C ,  5-H ) :   1.0048 B(  4-C , 20-C ) :   1.0547
B(  6-C ,  7-H ) :   0.9316 B(  6-C ,  8-H ) :   0.9490 B(  6-C ,  9-C ) :   1.0824
B(  9-C , 10-H ) :   0.9472 B(  9-C , 11-H ) :   0.9473 B(  9-C , 12-C ) :   1.1017
B( 12-C , 13-H ) :   0.9691 B( 12-C , 14-H ) :   0.9645 B( 12-C , 15-H ) :   0.9645
B( 16-S , 17-C ) :   1.1472 B( 16-S , 20-C ) :   1.1129 B( 17-C , 18-C ) :   1.6467
B( 17-C , 33-H ) :   0.9743 B( 18-C , 19-C ) :   1.2003 B( 18-C , 21-H ) :   0.9947
B( 19-C , 20-C ) :   1.6296 B( 19-C , 22-C ) :   1.0222 B( 22-C , 23-H ) :   0.9361
B( 22-C , 24-H ) :   0.9362 B( 22-C , 25-C ) :   1.0681 B( 25-C , 26-H ) :   0.9570
B( 25-C , 27-H ) :   0.9557 B( 25-C , 28-C ) :   1.0647 B( 28-C , 29-H ) :   0.9749
B( 28-C , 30-H ) :   0.9747 B( 28-C , 31-H ) :   0.9784

Dispersion correction           -0.014445557
FINAL SINGLE POINT ENERGY     -1339.866937694929

DIPOLE MOMENT
-------------
                                X             Y             Z
Electronic contribution:    -19.29511       2.93812       9.25548
Nuclear contribution   :     19.78249      -3.26868      -9.60815
                        -----------------------------------------
Total Dipole Moment    :      0.48738      -0.33056      -0.35267
                        -----------------------------------------
Magnitude (a.u.)       :      0.68643
Magnitude (Debye)      :      1.74478

Rotational constants in cm-1:     0.021286     0.008240     0.006975
Rotational constants in MHz :   638.138017   247.037979   209.097037

                             ****ORCA TERMINATED NORMALLY****
TOTAL RUN TIME: 0 days 0 hours 0 minutes 35 seconds 738 msec
