                         Program Version 4.2.1 -  RELEASE  -
|  1> ! wB97X-D3 SP def2-SVP
|  2> %pal
|  3> nprocs 16
|  4> end
|  5>
|  6> * xyz 0 1
|  7> S 	 -63.636 	 48.6941 	 127.087
|  8> C 	 -63.0711 	 47.2279 	 126.195
|  9> C 	 -62.2679 	 47.5668 	 125.083
| 10> C 	 -62.0695 	 48.9506 	 125.057
| 11> C 	 -62.7225 	 49.7125 	 125.992
| 12> H 	 -61.4878 	 49.3677 	 124.201
| 13> C 	 -61.6833 	 46.5701 	 124.132
| 14> H 	 -61.3874 	 47.0124 	 123.144
| 15> H 	 -62.4041 	 45.912 	 123.832
| 16> C 	 -60.4715 	 45.8366 	 124.815
| 17> H 	 -59.6593 	 46.5776 	 124.862
| 18> H 	 -60.7511 	 45.5722 	 125.88
| 19> C 	 -59.9566 	 44.7092 	 123.867
| 20> H 	 -59.7002 	 45.2233 	 122.912
| 21> H 	 -59.0496 	 44.2329 	 124.246
| 22> H 	 -60.6255 	 43.8683 	 123.641
| 23> S 	 -64.1709 	 52.0018 	 126.697
| 24> C 	 -63.2401 	 53.3893 	 127.083
| 25> C 	 -62.0016 	 53.3823 	 126.61
| 26> C 	 -61.6399 	 52.0626 	 126.215
| 27> C 	 -62.7029 	 51.1737 	 126.247
| 28> H 	 -61.3247 	 54.1884 	 126.736
| 29> C 	 -60.2813 	 51.7219 	 125.654
| 30> H 	 -59.9223 	 52.6838 	 125.311
| 31> H 	 -60.1877 	 51.0208 	 124.812
| 32> C 	 -59.2469 	 51.4013 	 126.664
| 33> H 	 -59.5799 	 50.5028 	 127.151
| 34> H 	 -59.1779 	 52.1285 	 127.456
| 35> C 	 -57.8337 	 51.2139 	 126.143
| 36> H 	 -57.3826 	 52.1656 	 125.984
| 37> H 	 -57.7865 	 50.562 	 125.209
| 38> H 	 -57.3283 	 50.7733 	 126.981
| 39> H 	 -63.3009 	 46.2568 	 126.499
| 40> H 	 -63.6384 	 54.2943 	 127.512
| 41> *
| 42>
| 43>                          ****END OF INPUT****

CARTESIAN COORDINATES (ANGSTROEM)
---------------------------------
  S    -63.636000   48.694100  127.087000
  C    -63.071100   47.227900  126.195000
  C    -62.267900   47.566800  125.083000
  C    -62.069500   48.950600  125.057000
  C    -62.722500   49.712500  125.992000
  H    -61.487800   49.367700  124.201000
  C    -61.683300   46.570100  124.132000
  H    -61.387400   47.012400  123.144000
  H    -62.404100   45.912000  123.832000
  C    -60.471500   45.836600  124.815000
  H    -59.659300   46.577600  124.862000
  H    -60.751100   45.572200  125.880000
  C    -59.956600   44.709200  123.867000
  H    -59.700200   45.223300  122.912000
  H    -59.049600   44.232900  124.246000
  H    -60.625500   43.868300  123.641000
  S    -64.170900   52.001800  126.697000
  C    -63.240100   53.389300  127.083000
  C    -62.001600   53.382300  126.610000
  C    -61.639900   52.062600  126.215000
  C    -62.702900   51.173700  126.247000
  H    -61.324700   54.188400  126.736000
  C    -60.281300   51.721900  125.654000
  H    -59.922300   52.683800  125.311000
  H    -60.187700   51.020800  124.812000
  C    -59.246900   51.401300  126.664000
  H    -59.579900   50.502800  127.151000
  H    -59.177900   52.128500  127.456000
  C    -57.833700   51.213900  126.143000
  H    -57.382600   52.165600  125.984000
  H    -57.786500   50.562000  125.209000
  H    -57.328300   50.773300  126.981000
  H    -63.300900   46.256800  126.499000
  H    -63.638400   54.294300  127.512000

 Total Charge           Charge          ....    0
 Multiplicity           Mult            ....    1
 Number of Electrons    NEL             ....  134
 Basis Dimension        Dim             ....  322

ORBITAL ENERGIES
----------------

  NO   OCC          E(Eh)            E(eV)
   0   2.0000     -88.967136     -2420.9188
   1   2.0000     -88.965079     -2420.8629
   2   2.0000     -10.331082      -281.1230
   3   2.0000     -10.324361      -280.9402
   4   2.0000     -10.314626      -280.6752
   5   2.0000     -10.307818      -280.4900
   6   2.0000     -10.300982      -280.3040
   7   2.0000     -10.299383      -280.2605
   8   2.0000     -10.299193      -280.2553
   9   2.0000     -10.292311      -280.0680
  10   2.0000     -10.291305      -280.0406
  11   2.0000     -10.285850      -279.8922
  12   2.0000     -10.285843      -279.8920
  13   2.0000     -10.283300      -279.8228
  14   2.0000     -10.275850      -279.6201
  15   2.0000     -10.271735      -279.5081
  16   2.0000      -8.080826      -219.8904
  17   2.0000      -8.080770      -219.8889
  18   2.0000      -6.039341      -164.3388
  19   2.0000      -6.039227      -164.3357
  20   2.0000      -6.035455      -164.2331
  21   2.0000      -6.035355      -164.2304
  22   2.0000      -6.031657      -164.1297
  23   2.0000      -6.031341      -164.1211
  24   2.0000      -1.010988       -27.5104
  25   2.0000      -0.985488       -26.8165
  26   2.0000      -0.918738       -25.0001
  27   2.0000      -0.911423       -24.8011
  28   2.0000      -0.866884       -23.5891
  29   2.0000      -0.854646       -23.2561
  30   2.0000      -0.844415       -22.9777
  31   2.0000      -0.816249       -22.2113
  32   2.0000      -0.785714       -21.3804
  33   2.0000      -0.771532       -20.9944
  34   2.0000      -0.704665       -19.1749
  35   2.0000      -0.702548       -19.1173
  36   2.0000      -0.688113       -18.7245
  37   2.0000      -0.663653       -18.0589
  38   2.0000      -0.642980       -17.4964
  39   2.0000      -0.624837       -17.0027
  40   2.0000      -0.605596       -16.4791
  41   2.0000      -0.574012       -15.6197
  42   2.0000      -0.569495       -15.4968
  43   2.0000      -0.554440       -15.0871
  44   2.0000      -0.526428       -14.3248
  45   2.0000      -0.521883       -14.2012
  46   2.0000      -0.519077       -14.1248
  47   2.0000      -0.506671       -13.7872
  48   2.0000      -0.504899       -13.7390
  49   2.0000      -0.497119       -13.5273
  50   2.0000      -0.492948       -13.4138
  51   2.0000      -0.483583       -13.1590
  52   2.0000      -0.470986       -12.8162
  53   2.0000      -0.465589       -12.6693
  54   2.0000      -0.454572       -12.3695
  55   2.0000      -0.452540       -12.3142
  56   2.0000      -0.448037       -12.1917
  57   2.0000      -0.438561       -11.9339
  58   2.0000      -0.434464       -11.8224
  59   2.0000      -0.427033       -11.6202
  60   2.0000      -0.425368       -11.5749
  61   2.0000      -0.420619       -11.4456
  62   2.0000      -0.404331       -11.0024
  63   2.0000      -0.348334        -9.4787
  64   2.0000      -0.334170        -9.0932
  65   2.0000      -0.331765        -9.0278
  66   2.0000      -0.286119        -7.7857
  67   0.0000       0.027413         0.7459
  68   0.0000       0.074392         2.0243
  69   0.0000       0.102611         2.7922
  70   0.0000       0.114195         3.1074
  71   0.0000       0.137968         3.7543

MULLIKEN ATOMIC CHARGES
-----------------------
   0 S :    0.102836
   1 C :   -0.114066
   2 C :   -0.086431
   3 C :   -0.003585
   4 C :   -0.112723
   5 H :    0.019480
   6 C :    0.090350
   7 H :    0.021518
   8 H :    0.008073
   9 C :   -0.098750
  10 H :    0.033466
  11 H :    0.048251
  12 C :   -0.051008
  13 H :    0.031726
  14 H :    0.036083
  15 H :    0.038926
  16 S :    0.114739
  17 C :   -0.074452
  18 C :   -0.001254
  19 C :   -0.043651
  20 C :   -0.153878
  21 H :    0.008117
  22 C :    0.086685
  23 H :   -0.003672
  24 H :    0.022098
  25 C :   -0.089335
  26 H :    0.018004
  27 H :    0.012768
  28 C :   -0.023775
  29 H :    0.024438
  30 H :    0.038483
  31 H :    0.032579
  32 H :    0.023095
  33 H :    0.044866
Sum of atomic charges:   -0.0000000

LOEWDIN ATOMIC CHARGES
----------------------
   0 S :    0.389676
   1 C :   -0.172265
   2 C :   -0.056288
   3 C :   -0.075622
   4 C :   -0.187481
   5 H :    0.035120
   6 C :   -0.028724
   7 H :    0.034037
   8 H :    0.017989
   9 C :   -0.035203
  10 H :    0.027467
  11 H :    0.029578
  12 C :   -0.073001
  13 H :    0.030302
  14 H :    0.025657
  15 H :    0.024739
  16 S :    0.412934
  17 C :   -0.182953
  18 C :   -0.067060
  19 C :   -0.048689
  20 C :   -0.202497
  21 H :    0.029411
  22 C :   -0.034724
  23 H :    0.028127
  24 H :    0.027801
  25 C :   -0.042662
  26 H :    0.018458
  27 H :    0.020478
  28 C :   -0.060430
  29 H :    0.018826
  30 H :    0.030502
  31 H :    0.028964
  32 H :    0.010093
  33 H :    0.027444

  Mayer bond orders larger than 0.100000
B(  0-S ,  1-C ) :   1.1413 B(  0-S ,  4-C ) :   1.1533 B(  1-C ,  2-C ) :   1.5725
B(  1-C ,  4-C ) :   0.1134 B(  1-C , 32-H ) :   0.9778 B(  2-C ,  3-C ) :   1.2871
B(  2-C ,  6-C ) :   1.0246 B(  3-C ,  4-C ) :   1.5576 B(  3-C ,  5-H ) :   0.9827
B(  4-C , 20-C ) :   1.0301 B(  6-C ,  7-H ) :   0.9396 B(  6-C ,  8-H ) :   0.9364
B(  6-C ,  9-C ) :   1.0420 B(  9-C , 10-H ) :   0.9569 B(  9-C , 11-H ) :   0.9639
B(  9-C , 12-C ) :   1.0643 B( 12-C , 13-H ) :   0.9706 B( 12-C , 14-H ) :   0.9759
B( 12-C , 15-H ) :   0.9793 B( 16-S , 17-C ) :   1.1523 B( 16-S , 20-C ) :   1.1322
B( 17-C , 18-C ) :   1.6367 B( 17-C , 33-H ) :   0.9603 B( 18-C , 19-C ) :   1.2393
B( 18-C , 21-H ) :   0.9893 B( 19-C , 20-C ) :   1.6132 B( 19-C , 22-C ) :   1.0350
B( 22-C , 23-H ) :   0.9218 B( 22-C , 24-H ) :   0.9424 B( 22-C , 25-C ) :   1.0679
B( 25-C , 26-H ) :   0.9525 B( 25-C , 27-H ) :   0.9502 B( 25-C , 28-C ) :   1.0855
B( 28-C , 29-H ) :   0.9747 B( 28-C , 30-H ) :   0.9717 B( 28-C , 31-H ) :   0.9720

Dispersion correction           -0.013834912
FINAL SINGLE POINT ENERGY     -1339.869177301150

DIPOLE MOMENT
-------------
                                X             Y             Z
Electronic contribution:    -27.82668      12.72009      10.32766
Nuclear contribution   :     28.44976     -12.78743     -10.59451
                        -----------------------------------------
Total Dipole Moment    :      0.62308      -0.06734      -0.26685
                        -----------------------------------------
Magnitude (a.u.)       :      0.68115
Magnitude (Debye)      :      1.73135

Rotational constants in cm-1:     0.018958     0.008638     0.006364
Rotational constants in MHz :   568.351314   258.949164   190.783680

                             ****ORCA TERMINATED NORMALLY****
TOTAL RUN TIME: 0 days 0 hours 0 minutes 34 seconds 119 msec
