                         Program Version 4.2.1 -  RELEASE  -
|  1> ! wB97X-D3 SP def2-SVP
|  2> %pal
|  3> nprocs 16
|  4> end
|  5>
|  6> * xyz 0 1
|  7> S 	 -21.1393 	 2.99339 	 83.4183
|  8> C 	 -19.6437 	 3.76628 	 83.8665
|  9> C 	 -18.7167 	 2.9712 	 84.5109
| 10> C 	 -19.2217 	 1.61188 	 84.4179
| 11> C 	 -20.4182 	 1.47236 	 83.773
| 12> H 	 -18.6605 	 0.877385 	 84.9259
| 13> C 	 -17.4341 	 3.43533 	 85.0849
| 14> H 	 -17.4755 	 4.18111 	 85.8556
| 15> H 	 -16.9643 	 3.86916 	 84.1631
| 16> C 	 -16.419 	 2.36367 	 85.6198
| 17> H 	 -16.8671 	 1.55584 	 86.2839
| 18> H 	 -16.1005 	 1.74495 	 84.8086
| 19> C 	 -15.2626 	 2.94333 	 86.4283
| 20> H 	 -14.5757 	 2.17991 	 86.8153
| 21> H 	 -14.6907 	 3.4926 	 85.6841
| 22> H 	 -15.5674 	 3.6021 	 87.2553
| 23> S 	 -22.0717 	 -0.213624 	 85.1455
| 24> C 	 -22.802 	 -1.66059 	 84.444
| 25> C 	 -22.3171 	 -1.79658 	 83.1778
| 26> C 	 -21.3691 	 -0.796043 	 82.7942
| 27> C 	 -21.1677 	 0.207225 	 83.7356
| 28> H 	 -22.702 	 -2.53144 	 82.5074
| 29> C 	 -20.7996 	 -0.853533 	 81.4391
| 30> H 	 -21.2246 	 0.0685157 	 81.0015
| 31> H 	 -21.283 	 -1.62232 	 80.8143
| 32> C 	 -19.313 	 -1.02518 	 81.2726
| 33> H 	 -18.9187 	 -2.00605 	 81.513
| 34> H 	 -18.8098 	 -0.365389 	 82.0043
| 35> C 	 -18.8211 	 -0.534786 	 79.843
| 36> H 	 -19.4686 	 -0.816001 	 79.0123
| 37> H 	 -17.8349 	 -0.651712 	 79.5135
| 38> H 	 -18.9308 	 0.530666 	 79.7907
| 39> H 	 -19.3969 	 4.81311 	 83.6663
| 40> H 	 -23.4994 	 -2.30815 	 84.9198
| 41> *
| 42>
| 43>                          ****END OF INPUT****

CARTESIAN COORDINATES (ANGSTROEM)
---------------------------------
  S    -21.139300    2.993390   83.418300
  C    -19.643700    3.766280   83.866500
  C    -18.716700    2.971200   84.510900
  C    -19.221700    1.611880   84.417900
  C    -20.418200    1.472360   83.773000
  H    -18.660500    0.877385   84.925900
  C    -17.434100    3.435330   85.084900
  H    -17.475500    4.181110   85.855600
  H    -16.964300    3.869160   84.163100
  C    -16.419000    2.363670   85.619800
  H    -16.867100    1.555840   86.283900
  H    -16.100500    1.744950   84.808600
  C    -15.262600    2.943330   86.428300
  H    -14.575700    2.179910   86.815300
  H    -14.690700    3.492600   85.684100
  H    -15.567400    3.602100   87.255300
  S    -22.071700   -0.213624   85.145500
  C    -22.802000   -1.660590   84.444000
  C    -22.317100   -1.796580   83.177800
  C    -21.369100   -0.796043   82.794200
  C    -21.167700    0.207225   83.735600
  H    -22.702000   -2.531440   82.507400
  C    -20.799600   -0.853533   81.439100
  H    -21.224600    0.068516   81.001500
  H    -21.283000   -1.622320   80.814300
  C    -19.313000   -1.025180   81.272600
  H    -18.918700   -2.006050   81.513000
  H    -18.809800   -0.365389   82.004300
  C    -18.821100   -0.534786   79.843000
  H    -19.468600   -0.816001   79.012300
  H    -17.834900   -0.651712   79.513500
  H    -18.930800    0.530666   79.790700
  H    -19.396900    4.813110   83.666300
  H    -23.499400   -2.308150   84.919800

 Total Charge           Charge          ....    0
 Multiplicity           Mult            ....    1
 Number of Electrons    NEL             ....  134
 Basis Dimension        Dim             ....  322

ORBITAL ENERGIES
----------------

  NO   OCC          E(Eh)            E(eV)
   0   2.0000     -88.970940     -2421.0224
   1   2.0000     -88.958036     -2420.6712
   2   2.0000     -10.326668      -281.0029
   3   2.0000     -10.321997      -280.8758
   4   2.0000     -10.313452      -280.6433
   5   2.0000     -10.312229      -280.6100
   6   2.0000     -10.301668      -280.3226
   7   2.0000     -10.301061      -280.3061
   8   2.0000     -10.296717      -280.1879
   9   2.0000     -10.294110      -280.1170
  10   2.0000     -10.291861      -280.0558
  11   2.0000     -10.286736      -279.9163
  12   2.0000     -10.286477      -279.9093
  13   2.0000     -10.284321      -279.8506
  14   2.0000     -10.284044      -279.8431
  15   2.0000     -10.269104      -279.4365
  16   2.0000      -8.086057      -220.0328
  17   2.0000      -8.073100      -219.6802
  18   2.0000      -6.044545      -164.4804
  19   2.0000      -6.040687      -164.3754
  20   2.0000      -6.036654      -164.2657
  21   2.0000      -6.031663      -164.1299
  22   2.0000      -6.027317      -164.0116
  23   2.0000      -6.024010      -163.9216
  24   2.0000      -1.010227       -27.4897
  25   2.0000      -0.987475       -26.8705
  26   2.0000      -0.915474       -24.9113
  27   2.0000      -0.906351       -24.6631
  28   2.0000      -0.872188       -23.7335
  29   2.0000      -0.853684       -23.2299
  30   2.0000      -0.842411       -22.9232
  31   2.0000      -0.817805       -22.2536
  32   2.0000      -0.783669       -21.3247
  33   2.0000      -0.770062       -20.9545
  34   2.0000      -0.715910       -19.4809
  35   2.0000      -0.703835       -19.1523
  36   2.0000      -0.687008       -18.6944
  37   2.0000      -0.664578       -18.0841
  38   2.0000      -0.639290       -17.3960
  39   2.0000      -0.627850       -17.0847
  40   2.0000      -0.594116       -16.1667
  41   2.0000      -0.578607       -15.7447
  42   2.0000      -0.566410       -15.4128
  43   2.0000      -0.554026       -15.0758
  44   2.0000      -0.531819       -14.4715
  45   2.0000      -0.519248       -14.1295
  46   2.0000      -0.516793       -14.0626
  47   2.0000      -0.515737       -14.0339
  48   2.0000      -0.505326       -13.7506
  49   2.0000      -0.496626       -13.5139
  50   2.0000      -0.490772       -13.3546
  51   2.0000      -0.480838       -13.0843
  52   2.0000      -0.479224       -13.0403
  53   2.0000      -0.467096       -12.7103
  54   2.0000      -0.459016       -12.4905
  55   2.0000      -0.452209       -12.3052
  56   2.0000      -0.444844       -12.1048
  57   2.0000      -0.441710       -12.0195
  58   2.0000      -0.431745       -11.7484
  59   2.0000      -0.426581       -11.6079
  60   2.0000      -0.414151       -11.2696
  61   2.0000      -0.409660       -11.1474
  62   2.0000      -0.404317       -11.0020
  63   2.0000      -0.336583        -9.1589
  64   2.0000      -0.327321        -8.9068
  65   2.0000      -0.315090        -8.5740
  66   2.0000      -0.311404        -8.4737
  67   0.0000       0.045997         1.2517
  68   0.0000       0.053823         1.4646
  69   0.0000       0.111610         3.0371
  70   0.0000       0.129091         3.5128
  71   0.0000       0.131399         3.5755

MULLIKEN ATOMIC CHARGES
-----------------------
   0 S :    0.142795
   1 C :   -0.131629
   2 C :   -0.094880
   3 C :    0.054750
   4 C :   -0.134509
   5 H :   -0.008028
   6 C :    0.064924
   7 H :    0.038567
   8 H :    0.049947
   9 C :   -0.131485
  10 H :    0.039045
  11 H :    0.025653
  12 C :   -0.040231
  13 H :    0.039522
  14 H :    0.025491
  15 H :    0.045333
  16 S :    0.098397
  17 C :   -0.078608
  18 C :   -0.025917
  19 C :   -0.033073
  20 C :   -0.174121
  21 H :    0.010334
  22 C :    0.049095
  23 H :    0.034887
  24 H :    0.012347
  25 C :   -0.041544
  26 H :    0.029153
  27 H :    0.031421
  28 C :   -0.037310
  29 H :    0.018333
  30 H :    0.019237
  31 H :    0.014400
  32 H :    0.039665
  33 H :    0.048037
Sum of atomic charges:   -0.0000000

LOEWDIN ATOMIC CHARGES
----------------------
   0 S :    0.429960
   1 C :   -0.197544
   2 C :   -0.062956
   3 C :   -0.047103
   4 C :   -0.217353
   5 H :    0.022304
   6 C :   -0.034252
   7 H :    0.030760
   8 H :    0.049581
   9 C :   -0.050173
  10 H :    0.025810
  11 H :    0.019639
  12 C :   -0.065876
  13 H :    0.031434
  14 H :    0.024506
  15 H :    0.028764
  16 S :    0.409612
  17 C :   -0.174720
  18 C :   -0.071897
  19 C :   -0.059163
  20 C :   -0.211908
  21 H :    0.027686
  22 C :   -0.041884
  23 H :    0.040452
  24 H :    0.029817
  25 C :   -0.033393
  26 H :    0.022679
  27 H :    0.026884
  28 C :   -0.069501
  29 H :    0.023287
  30 H :    0.017133
  31 H :    0.024958
  32 H :    0.025741
  33 H :    0.026715

  Mayer bond orders larger than 0.100000
B(  0-S ,  1-C ) :   1.1503 B(  0-S ,  4-C ) :   1.1537 B(  1-C ,  2-C ) :   1.6220
B(  1-C , 32-H ) :   0.9652 B(  2-C ,  3-C ) :   1.2621 B(  2-C ,  6-C ) :   1.0046
B(  3-C ,  4-C ) :   1.5559 B(  3-C ,  5-H ) :   1.0003 B(  4-C , 20-C ) :   1.0044
B(  6-C ,  7-H ) :   0.9456 B(  6-C ,  8-H ) :   0.9332 B(  6-C ,  9-C ) :   1.0648
B(  9-C , 10-H ) :   0.9559 B(  9-C , 11-H ) :   0.9523 B(  9-C , 12-C ) :   1.0848
B( 12-C , 13-H ) :   0.9717 B( 12-C , 14-H ) :   0.9746 B( 12-C , 15-H ) :   0.9744
B( 16-S , 17-C ) :   1.1582 B( 16-S , 20-C ) :   1.1518 B( 17-C , 18-C ) :   1.5866
B( 17-C , 33-H ) :   0.9740 B( 18-C , 19-C ) :   1.2685 B( 18-C , 21-H ) :   0.9941
B( 19-C , 20-C ) :   1.5835 B( 19-C , 22-C ) :   1.0409 B( 22-C , 23-H ) :   0.9351
B( 22-C , 24-H ) :   0.9287 B( 22-C , 25-C ) :   1.0519 B( 25-C , 26-H ) :   0.9576
B( 25-C , 27-H ) :   0.9625 B( 25-C , 28-C ) :   1.0597 B( 28-C , 29-H ) :   0.9770
B( 28-C , 30-H ) :   0.9783 B( 28-C , 31-H ) :   0.9747

Dispersion correction           -0.013910300
FINAL SINGLE POINT ENERGY     -1339.863333359218

DIPOLE MOMENT
-------------
                                X             Y             Z
Electronic contribution:    -24.94953       1.40239       6.60765
Nuclear contribution   :     25.45799      -1.37883      -6.69653
                        -----------------------------------------
Total Dipole Moment    :      0.50846       0.02356      -0.08888
                        -----------------------------------------
Magnitude (a.u.)       :      0.51671
Magnitude (Debye)      :      1.31337

Rotational constants in cm-1:     0.017307     0.008157     0.007228
Rotational constants in MHz :   518.852056   244.537718   216.682812

                             ****ORCA TERMINATED NORMALLY****
TOTAL RUN TIME: 0 days 0 hours 0 minutes 33 seconds 59 msec
