                         Program Version 4.2.1 -  RELEASE  -
|  1> ! wB97X-D3 SP def2-SVP
|  2> %pal
|  3> nprocs 16
|  4> end
|  5>
|  6> * xyz 0 1
|  7> S 	 -0.418711 	 -24.0582 	 58.0193
|  8> C 	 -0.0529461 	 -22.3815 	 58.0154
|  9> C 	 0.157469 	 -21.8938 	 59.3125
| 10> C 	 -0.0763316 	 -22.9288 	 60.2603
| 11> C 	 -0.289805 	 -24.1746 	 59.7531
| 12> H 	 0.104404 	 -22.9239 	 61.3122
| 13> C 	 0.544222 	 -20.4855 	 59.7446
| 14> H 	 -0.355254 	 -20.1286 	 60.3593
| 15> H 	 0.676032 	 -19.7941 	 58.865
| 16> C 	 1.76171 	 -20.5299 	 60.6974
| 17> H 	 1.93673 	 -19.4837 	 60.9695
| 18> H 	 1.62855 	 -21.1219 	 61.655
| 19> C 	 3.06049 	 -21.0324 	 60.0059
| 20> H 	 3.32783 	 -20.6422 	 59.0287
| 21> H 	 3.89349 	 -21.0003 	 60.6981
| 22> H 	 3.03846 	 -22.1293 	 59.978
| 23> S 	 -2.25959 	 -25.9158 	 60.6837
| 24> C 	 -1.79371 	 -27.3028 	 61.57
| 25> C 	 -0.383632 	 -27.3105 	 61.829
| 26> C 	 0.282331 	 -26.2649 	 61.0733
| 27> C 	 -0.567868 	 -25.4235 	 60.4455
| 28> H 	 -0.0179788 	 -28.0989 	 62.4926
| 29> C 	 1.78136 	 -25.9532 	 61.3018
| 30> H 	 1.98167 	 -26.0907 	 62.3154
| 31> H 	 1.96937 	 -24.8675 	 61.069
| 32> C 	 2.73878 	 -26.7047 	 60.4152
| 33> H 	 2.73208 	 -27.7999 	 60.5091
| 34> H 	 3.6997 	 -26.3329 	 60.7874
| 35> C 	 2.64741 	 -26.3474 	 58.9104
| 36> H 	 2.81031 	 -25.2815 	 58.7315
| 37> H 	 1.64993 	 -26.5825 	 58.5057
| 38> H 	 3.37236 	 -26.9741 	 58.3286
| 39> H 	 0.224395 	 -21.8907 	 57.1637
| 40> H 	 -2.54699 	 -28.0619 	 61.983
| 41> *
| 42>
| 43>                          ****END OF INPUT****

CARTESIAN COORDINATES (ANGSTROEM)
---------------------------------
  S     -0.418711  -24.058200   58.019300
  C     -0.052946  -22.381500   58.015400
  C      0.157469  -21.893800   59.312500
  C     -0.076332  -22.928800   60.260300
  C     -0.289805  -24.174600   59.753100
  H      0.104404  -22.923900   61.312200
  C      0.544222  -20.485500   59.744600
  H     -0.355254  -20.128600   60.359300
  H      0.676032  -19.794100   58.865000
  C      1.761710  -20.529900   60.697400
  H      1.936730  -19.483700   60.969500
  H      1.628550  -21.121900   61.655000
  C      3.060490  -21.032400   60.005900
  H      3.327830  -20.642200   59.028700
  H      3.893490  -21.000300   60.698100
  H      3.038460  -22.129300   59.978000
  S     -2.259590  -25.915800   60.683700
  C     -1.793710  -27.302800   61.570000
  C     -0.383632  -27.310500   61.829000
  C      0.282331  -26.264900   61.073300
  C     -0.567868  -25.423500   60.445500
  H     -0.017979  -28.098900   62.492600
  C      1.781360  -25.953200   61.301800
  H      1.981670  -26.090700   62.315400
  H      1.969370  -24.867500   61.069000
  C      2.738780  -26.704700   60.415200
  H      2.732080  -27.799900   60.509100
  H      3.699700  -26.332900   60.787400
  C      2.647410  -26.347400   58.910400
  H      2.810310  -25.281500   58.731500
  H      1.649930  -26.582500   58.505700
  H      3.372360  -26.974100   58.328600
  H      0.224395  -21.890700   57.163700
  H     -2.546990  -28.061900   61.983000

 Total Charge           Charge          ....    0
 Multiplicity           Mult            ....    1
 Number of Electrons    NEL             ....  134
 Basis Dimension        Dim             ....  322

ORBITAL ENERGIES
----------------

  NO   OCC          E(Eh)            E(eV)
   0   2.0000     -88.964810     -2420.8556
   1   2.0000     -88.961680     -2420.7704
   2   2.0000     -10.326366      -280.9947
   3   2.0000     -10.323363      -280.9130
   4   2.0000     -10.322340      -280.8851
   5   2.0000     -10.307011      -280.4680
   6   2.0000     -10.306690      -280.4593
   7   2.0000     -10.304241      -280.3926
   8   2.0000     -10.303279      -280.3665
   9   2.0000     -10.301485      -280.3177
  10   2.0000     -10.298006      -280.2230
  11   2.0000     -10.289173      -279.9826
  12   2.0000     -10.288817      -279.9729
  13   2.0000     -10.283182      -279.8196
  14   2.0000     -10.278039      -279.6797
  15   2.0000     -10.275077      -279.5991
  16   2.0000      -8.079906      -219.8654
  17   2.0000      -8.077164      -219.7908
  18   2.0000      -6.038298      -164.3104
  19   2.0000      -6.035506      -164.2345
  20   2.0000      -6.034323      -164.2023
  21   2.0000      -6.031454      -164.1242
  22   2.0000      -6.030794      -164.1063
  23   2.0000      -6.028165      -164.0347
  24   2.0000      -1.008679       -27.4476
  25   2.0000      -0.985057       -26.8048
  26   2.0000      -0.909312       -24.7436
  27   2.0000      -0.907936       -24.7062
  28   2.0000      -0.868022       -23.6201
  29   2.0000      -0.846063       -23.0225
  30   2.0000      -0.843119       -22.9424
  31   2.0000      -0.810574       -22.0568
  32   2.0000      -0.783875       -21.3303
  33   2.0000      -0.774330       -21.0706
  34   2.0000      -0.704538       -19.1714
  35   2.0000      -0.694468       -18.8974
  36   2.0000      -0.686791       -18.6885
  37   2.0000      -0.656592       -17.8668
  38   2.0000      -0.648206       -17.6386
  39   2.0000      -0.620831       -16.8937
  40   2.0000      -0.594275       -16.1711
  41   2.0000      -0.565813       -15.3966
  42   2.0000      -0.554748       -15.0955
  43   2.0000      -0.549978       -14.9657
  44   2.0000      -0.537996       -14.6396
  45   2.0000      -0.528925       -14.3928
  46   2.0000      -0.522726       -14.2241
  47   2.0000      -0.511117       -13.9082
  48   2.0000      -0.505562       -13.7570
  49   2.0000      -0.494188       -13.4475
  50   2.0000      -0.482278       -13.1234
  51   2.0000      -0.480584       -13.0774
  52   2.0000      -0.470188       -12.7945
  53   2.0000      -0.459769       -12.5110
  54   2.0000      -0.457412       -12.4468
  55   2.0000      -0.445039       -12.1101
  56   2.0000      -0.441784       -12.0215
  57   2.0000      -0.438369       -11.9286
  58   2.0000      -0.434612       -11.8264
  59   2.0000      -0.427910       -11.6440
  60   2.0000      -0.420717       -11.4483
  61   2.0000      -0.409134       -11.1331
  62   2.0000      -0.405490       -11.0340
  63   2.0000      -0.335913        -9.1407
  64   2.0000      -0.332907        -9.0588
  65   2.0000      -0.319142        -8.6843
  66   2.0000      -0.308353        -8.3907
  67   0.0000       0.046087         1.2541
  68   0.0000       0.054990         1.4964
  69   0.0000       0.109138         2.9698
  70   0.0000       0.119316         3.2467
  71   0.0000       0.126241         3.4352

MULLIKEN ATOMIC CHARGES
-----------------------
   0 S :    0.114430
   1 C :   -0.085212
   2 C :   -0.093601
   3 C :    0.064200
   4 C :   -0.205759
   5 H :    0.001249
   6 C :    0.050047
   7 H :    0.057062
   8 H :    0.038195
   9 C :   -0.103852
  10 H :    0.034258
  11 H :    0.048463
  12 C :   -0.044163
  13 H :    0.041499
  14 H :    0.019900
  15 H :    0.023920
  16 S :    0.127325
  17 C :   -0.139087
  18 C :   -0.056427
  19 C :   -0.001446
  20 C :   -0.175162
  21 H :    0.031370
  22 C :    0.077865
  23 H :    0.015370
  24 H :    0.025013
  25 C :   -0.064182
  26 H :    0.031478
  27 H :    0.021152
  28 C :   -0.069021
  29 H :    0.034154
  30 H :    0.034810
  31 H :    0.038774
  32 H :    0.017119
  33 H :    0.090261
Sum of atomic charges:    0.0000000

LOEWDIN ATOMIC CHARGES
----------------------
   0 S :    0.427568
   1 C :   -0.195650
   2 C :   -0.062972
   3 C :   -0.059838
   4 C :   -0.200016
   5 H :    0.026772
   6 C :   -0.036953
   7 H :    0.046112
   8 H :    0.036258
   9 C :   -0.045316
  10 H :    0.023694
  11 H :    0.033869
  12 C :   -0.074082
  13 H :    0.025018
  14 H :    0.026134
  15 H :    0.026716
  16 S :    0.414612
  17 C :   -0.208227
  18 C :   -0.080299
  19 C :   -0.051265
  20 C :   -0.205148
  21 H :    0.034306
  22 C :   -0.024041
  23 H :    0.022142
  24 H :    0.034997
  25 C :   -0.042058
  26 H :    0.022615
  27 H :    0.024305
  28 C :   -0.069087
  29 H :    0.022818
  30 H :    0.022187
  31 H :    0.030365
  32 H :    0.008099
  33 H :    0.046367

  Mayer bond orders larger than 0.100000
B(  0-S ,  1-C ) :   1.1648 B(  0-S ,  4-C ) :   1.1589 B(  1-C ,  2-C ) :   1.5874
B(  1-C ,  4-C ) :   0.1003 B(  1-C , 32-H ) :   0.9774 B(  2-C ,  3-C ) :   1.2327
B(  2-C ,  6-C ) :   1.0157 B(  3-C ,  4-C ) :   1.6088 B(  3-C ,  5-H ) :   0.9894
B(  4-C , 20-C ) :   1.0064 B(  6-C ,  7-H ) :   0.9381 B(  6-C ,  8-H ) :   0.9470
B(  6-C ,  9-C ) :   1.0678 B(  9-C , 10-H ) :   0.9582 B(  9-C , 11-H ) :   0.9524
B(  9-C , 12-C ) :   1.0721 B( 12-C , 13-H ) :   0.9777 B( 12-C , 14-H ) :   0.9686
B( 12-C , 15-H ) :   0.9686 B( 16-S , 17-C ) :   1.1841 B( 16-S , 20-C ) :   1.1344
B( 17-C , 18-C ) :   1.5938 B( 17-C , 33-H ) :   0.9568 B( 18-C , 19-C ) :   1.2187
B( 18-C , 21-H ) :   0.9920 B( 19-C , 20-C ) :   1.6293 B( 19-C , 22-C ) :   1.0201
B( 22-C , 23-H ) :   0.9409 B( 22-C , 24-H ) :   0.9351 B( 22-C , 25-C ) :   1.0780
B( 25-C , 26-H ) :   0.9578 B( 25-C , 27-H ) :   0.9521 B( 25-C , 28-C ) :   1.0768
B( 28-C , 29-H ) :   0.9736 B( 28-C , 30-H ) :   0.9738 B( 28-C , 31-H ) :   0.9741

Dispersion correction           -0.016285546
FINAL SINGLE POINT ENERGY     -1339.879906924011

DIPOLE MOMENT
-------------
                                X             Y             Z
Electronic contribution:    -23.65973      -8.72556      -3.83472
Nuclear contribution   :     24.15189       8.94998       4.27666
                        -----------------------------------------
Total Dipole Moment    :      0.49216       0.22442       0.44194
                        -----------------------------------------
Magnitude (a.u.)       :      0.69849
Magnitude (Debye)      :      1.77543

Rotational constants in cm-1:     0.019444     0.009626     0.008265
Rotational constants in MHz :   582.923065   288.579903   247.772949

                             ****ORCA TERMINATED NORMALLY****
TOTAL RUN TIME: 0 days 0 hours 0 minutes 37 seconds 636 msec
