                         Program Version 4.2.1 -  RELEASE  -
|  1> ! wB97X-D3 SP def2-SVP
|  2> %pal
|  3> nprocs 16
|  4> end
|  5>
|  6> * xyz 0 1
|  7> S 	 53.8665 	 13.091 	 54.3935
|  8> C 	 53.5967 	 14.6276 	 53.6117
|  9> C 	 52.5866 	 14.5494 	 52.6599
| 10> C 	 51.9251 	 13.285 	 52.6478
| 11> C 	 52.5318 	 12.378 	 53.5256
| 12> H 	 51.0452 	 13.0507 	 52.092
| 13> C 	 52.445 	 15.5262 	 51.5464
| 14> H 	 53.2281 	 16.3348 	 51.6173
| 15> H 	 51.4354 	 15.8559 	 51.7258
| 16> C 	 52.6776 	 14.8353 	 50.1968
| 17> H 	 51.9595 	 14.0367 	 50.0787
| 18> H 	 52.3532 	 15.5 	 49.3559
| 19> C 	 54.1052 	 14.4367 	 49.9828
| 20> H 	 54.8425 	 15.2479 	 50.1388
| 21> H 	 54.4834 	 13.6596 	 50.6815
| 22> H 	 54.1148 	 14.1057 	 48.9391
| 23> S 	 53.5354 	 9.74842 	 53.9704
| 24> C 	 52.4335 	 8.38379 	 54.0714
| 25> C 	 51.1627 	 8.8649 	 53.9322
| 26> C 	 51.0285 	 10.2634 	 53.6801
| 27> C 	 52.2388 	 10.9144 	 53.6363
| 28> H 	 50.3796 	 8.09788 	 53.975
| 29> C 	 49.6461 	 10.8207 	 53.5133
| 30> H 	 49.6279 	 11.8566 	 53.8487
| 31> H 	 48.9549 	 10.3359 	 54.1938
| 32> C 	 49.1432 	 10.5808 	 52.1094
| 33> H 	 49.3385 	 9.54921 	 51.7814
| 34> H 	 49.7166 	 11.1394 	 51.4353
| 35> C 	 47.7026 	 10.9163 	 51.9827
| 36> H 	 47.6811 	 11.9264 	 51.497
| 37> H 	 47.1806 	 10.9268 	 52.9846
| 38> H 	 47.1404 	 10.3385 	 51.2329
| 39> H 	 54.2532 	 15.4314 	 53.7134
| 40> H 	 52.7258 	 7.37104 	 54.116
| 41> *
| 42>
| 43>                          ****END OF INPUT****

CARTESIAN COORDINATES (ANGSTROEM)
---------------------------------
  S     53.866500   13.091000   54.393500
  C     53.596700   14.627600   53.611700
  C     52.586600   14.549400   52.659900
  C     51.925100   13.285000   52.647800
  C     52.531800   12.378000   53.525600
  H     51.045200   13.050700   52.092000
  C     52.445000   15.526200   51.546400
  H     53.228100   16.334800   51.617300
  H     51.435400   15.855900   51.725800
  C     52.677600   14.835300   50.196800
  H     51.959500   14.036700   50.078700
  H     52.353200   15.500000   49.355900
  C     54.105200   14.436700   49.982800
  H     54.842500   15.247900   50.138800
  H     54.483400   13.659600   50.681500
  H     54.114800   14.105700   48.939100
  S     53.535400    9.748420   53.970400
  C     52.433500    8.383790   54.071400
  C     51.162700    8.864900   53.932200
  C     51.028500   10.263400   53.680100
  C     52.238800   10.914400   53.636300
  H     50.379600    8.097880   53.975000
  C     49.646100   10.820700   53.513300
  H     49.627900   11.856600   53.848700
  H     48.954900   10.335900   54.193800
  C     49.143200   10.580800   52.109400
  H     49.338500    9.549210   51.781400
  H     49.716600   11.139400   51.435300
  C     47.702600   10.916300   51.982700
  H     47.681100   11.926400   51.497000
  H     47.180600   10.926800   52.984600
  H     47.140400   10.338500   51.232900
  H     54.253200   15.431400   53.713400
  H     52.725800    7.371040   54.116000

 Total Charge           Charge          ....    0
 Multiplicity           Mult            ....    1
 Number of Electrons    NEL             ....  134
 Basis Dimension        Dim             ....  322

ORBITAL ENERGIES
----------------

  NO   OCC          E(Eh)            E(eV)
   0   2.0000     -88.967750     -2420.9356
   1   2.0000     -88.962273     -2420.7865
   2   2.0000     -10.337149      -281.2881
   3   2.0000     -10.332087      -281.1504
   4   2.0000     -10.315361      -280.6952
   5   2.0000     -10.307406      -280.4788
   6   2.0000     -10.300603      -280.2937
   7   2.0000     -10.298357      -280.2325
   8   2.0000     -10.296141      -280.1722
   9   2.0000     -10.292656      -280.0774
  10   2.0000     -10.291632      -280.0495
  11   2.0000     -10.288680      -279.9692
  12   2.0000     -10.287133      -279.9271
  13   2.0000     -10.282783      -279.8087
  14   2.0000     -10.278754      -279.6991
  15   2.0000     -10.278031      -279.6794
  16   2.0000      -8.082499      -219.9360
  17   2.0000      -8.076715      -219.7786
  18   2.0000      -6.040985      -164.3836
  19   2.0000      -6.036998      -164.2751
  20   2.0000      -6.035416      -164.2320
  21   2.0000      -6.033295      -164.1743
  22   2.0000      -6.031208      -164.1175
  23   2.0000      -6.027343      -164.0124
  24   2.0000      -1.005745       -27.3677
  25   2.0000      -0.986285       -26.8382
  26   2.0000      -0.921400       -25.0726
  27   2.0000      -0.918222       -24.9861
  28   2.0000      -0.867525       -23.6066
  29   2.0000      -0.854299       -23.2467
  30   2.0000      -0.846154       -23.0250
  31   2.0000      -0.817542       -22.2465
  32   2.0000      -0.780663       -21.2429
  33   2.0000      -0.772629       -21.0243
  34   2.0000      -0.708855       -19.2889
  35   2.0000      -0.701503       -19.0889
  36   2.0000      -0.694529       -18.8991
  37   2.0000      -0.661280       -17.9943
  38   2.0000      -0.641398       -17.4533
  39   2.0000      -0.625628       -17.0242
  40   2.0000      -0.602054       -16.3827
  41   2.0000      -0.571029       -15.5385
  42   2.0000      -0.565356       -15.3841
  43   2.0000      -0.562628       -15.3099
  44   2.0000      -0.541150       -14.7254
  45   2.0000      -0.530897       -14.4464
  46   2.0000      -0.520729       -14.1698
  47   2.0000      -0.514326       -13.9955
  48   2.0000      -0.507083       -13.7984
  49   2.0000      -0.501021       -13.6335
  50   2.0000      -0.494686       -13.4611
  51   2.0000      -0.480275       -13.0689
  52   2.0000      -0.470191       -12.7946
  53   2.0000      -0.461206       -12.5501
  54   2.0000      -0.457758       -12.4562
  55   2.0000      -0.450491       -12.2585
  56   2.0000      -0.447162       -12.1679
  57   2.0000      -0.440938       -11.9985
  58   2.0000      -0.437481       -11.9045
  59   2.0000      -0.425614       -11.5815
  60   2.0000      -0.414546       -11.2804
  61   2.0000      -0.409127       -11.1329
  62   2.0000      -0.407905       -11.0997
  63   2.0000      -0.355218        -9.6660
  64   2.0000      -0.330388        -8.9903
  65   2.0000      -0.327232        -8.9044
  66   2.0000      -0.288482        -7.8500
  67   0.0000       0.027003         0.7348
  68   0.0000       0.076644         2.0856
  69   0.0000       0.113291         3.0828
  70   0.0000       0.120264         3.2726
  71   0.0000       0.127771         3.4768

MULLIKEN ATOMIC CHARGES
-----------------------
   0 S :    0.110724
   1 C :   -0.105756
   2 C :   -0.093050
   3 C :    0.015715
   4 C :   -0.137278
   5 H :    0.002934
   6 C :    0.070254
   7 H :    0.028891
   8 H :    0.031347
   9 C :   -0.081163
  10 H :    0.018591
  11 H :    0.029906
  12 C :   -0.052398
  13 H :    0.028218
  14 H :    0.052796
  15 H :    0.040068
  16 S :    0.078828
  17 C :   -0.080614
  18 C :   -0.034331
  19 C :   -0.051249
  20 C :   -0.123223
  21 H :    0.021989
  22 C :    0.064024
  23 H :    0.028550
  24 H :    0.016452
  25 C :   -0.039672
  26 H :    0.023381
  27 H :    0.003007
  28 C :   -0.049686
  29 H :    0.028935
  30 H :    0.046077
  31 H :    0.034671
  32 H :    0.025368
  33 H :    0.047691
Sum of atomic charges:    0.0000000

LOEWDIN ATOMIC CHARGES
----------------------
   0 S :    0.411418
   1 C :   -0.199245
   2 C :   -0.060400
   3 C :   -0.063274
   4 C :   -0.180540
   5 H :    0.025566
   6 C :   -0.031830
   7 H :    0.033636
   8 H :    0.031225
   9 C :   -0.045369
  10 H :    0.019500
  11 H :    0.028184
  12 C :   -0.067710
  13 H :    0.026489
  14 H :    0.033251
  15 H :    0.031908
  16 S :    0.380238
  17 C :   -0.173370
  18 C :   -0.071386
  19 C :   -0.059425
  20 C :   -0.187206
  21 H :    0.032881
  22 C :   -0.028355
  23 H :    0.029829
  24 H :    0.028826
  25 C :   -0.042682
  26 H :    0.026679
  27 H :    0.013471
  28 C :   -0.073954
  29 H :    0.032381
  30 H :    0.032186
  31 H :    0.027730
  32 H :    0.013466
  33 H :    0.025882

  Mayer bond orders larger than 0.100000
B(  0-S ,  1-C ) :   1.1291 B(  0-S ,  4-C ) :   1.1687 B(  1-C ,  2-C ) :   1.6039
B(  1-C , 32-H ) :   0.9760 B(  2-C ,  3-C ) :   1.2411 B(  2-C ,  6-C ) :   1.0184
B(  3-C ,  4-C ) :   1.5510 B(  3-C ,  5-H ) :   0.9929 B(  4-C , 20-C ) :   1.0398
B(  6-C ,  7-H ) :   0.9519 B(  6-C ,  8-H ) :   0.9257 B(  6-C ,  9-C ) :   1.0819
B(  9-C , 10-H ) :   0.9472 B(  9-C , 11-H ) :   0.9536 B(  9-C , 12-C ) :   1.0703
B( 12-C , 13-H ) :   0.9728 B( 12-C , 14-H ) :   0.9733 B( 12-C , 15-H ) :   0.9712
B( 16-S , 17-C ) :   1.1418 B( 16-S , 20-C ) :   1.1245 B( 17-C , 18-C ) :   1.6213
B( 17-C , 33-H ) :   0.9750 B( 18-C , 19-C ) :   1.2338 B( 18-C , 21-H ) :   0.9869
B( 19-C , 20-C ) :   1.6027 B( 19-C , 22-C ) :   1.0538 B( 22-C , 23-H ) :   0.9264
B( 22-C , 24-H ) :   0.9299 B( 22-C , 25-C ) :   1.0649 B( 25-C , 26-H ) :   0.9542
B( 25-C , 27-H ) :   0.9512 B( 25-C , 28-C ) :   1.0721 B( 28-C , 29-H ) :   0.9742
B( 28-C , 30-H ) :   0.9734 B( 28-C , 31-H ) :   0.9737

Dispersion correction           -0.014861172
FINAL SINGLE POINT ENERGY     -1339.879098284462

DIPOLE MOMENT
-------------
                                X             Y             Z
Electronic contribution:     16.60125      -8.22489      18.61448
Nuclear contribution   :    -17.09844       8.23989     -19.12816
                        -----------------------------------------
Total Dipole Moment    :     -0.49719       0.01500      -0.51368
                        -----------------------------------------
Magnitude (a.u.)       :      0.71505
Magnitude (Debye)      :      1.81751

Rotational constants in cm-1:     0.017254     0.009846     0.007361
Rotational constants in MHz :   517.256724   295.160973   220.678668

                             ****ORCA TERMINATED NORMALLY****
TOTAL RUN TIME: 0 days 0 hours 0 minutes 31 seconds 370 msec
