                         Program Version 4.2.1 -  RELEASE  -
|  1> ! wB97X-D3 SP def2-SVP
|  2> %pal
|  3> nprocs 16
|  4> end
|  5>
|  6> * xyz 0 1
|  7> S 	 1.03151 	 -6.5185 	 90.5999
|  8> C 	 1.83907 	 -5.3667 	 91.6743
|  9> C 	 1.12297 	 -4.15517 	 91.8113
| 10> C 	 -0.0807044 	 -4.21047 	 91.0916
| 11> C 	 -0.296352 	 -5.3733 	 90.398
| 12> H 	 -0.876341 	 -3.46441 	 91.0448
| 13> C 	 1.5193 	 -2.96323 	 92.7203
| 14> H 	 0.7728 	 -2.20176 	 92.5924
| 15> H 	 2.44864 	 -2.63138 	 92.3607
| 16> C 	 1.69883 	 -3.37546 	 94.1953
| 17> H 	 1.53655 	 -2.59576 	 94.9955
| 18> H 	 1.05512 	 -4.23863 	 94.3955
| 19> C 	 3.10281 	 -3.81683 	 94.6196
| 20> H 	 3.92246 	 -3.19598 	 94.2932
| 21> H 	 3.1695 	 -4.03264 	 95.6038
| 22> H 	 3.20772 	 -4.72654 	 94.1048
| 23> S 	 -1.59107 	 -5.84428 	 88.0779
| 24> C 	 -3.3435 	 -5.94811 	 88.0984
| 25> C 	 -3.82964 	 -5.79827 	 89.4119
| 26> C 	 -2.82461 	 -5.58728 	 90.4009
| 27> C 	 -1.56197 	 -5.7304 	 89.8241
| 28> H 	 -4.90436 	 -5.61399 	 89.6025
| 29> C 	 -3.29846 	 -5.37707 	 91.832
| 30> H 	 -2.49058 	 -5.81139 	 92.5175
| 31> H 	 -4.17828 	 -6.03942 	 92.1181
| 32> C 	 -3.64951 	 -3.93225 	 92.2327
| 33> H 	 -4.61602 	 -3.7563 	 91.7473
| 34> H 	 -2.89535 	 -3.26234 	 91.8643
| 35> C 	 -3.75886 	 -3.79187 	 93.7762
| 36> H 	 -4.42497 	 -4.46614 	 94.3184
| 37> H 	 -3.91409 	 -2.78377 	 94.065
| 38> H 	 -2.80541 	 -3.99747 	 94.2781
| 39> H 	 2.81083 	 -5.48208 	 92.2293
| 40> H 	 -3.98016 	 -5.91529 	 87.2268
| 41> *
| 42>
| 43>                          ****END OF INPUT****

CARTESIAN COORDINATES (ANGSTROEM)
---------------------------------
  S      1.031510   -6.518500   90.599900
  C      1.839070   -5.366700   91.674300
  C      1.122970   -4.155170   91.811300
  C     -0.080704   -4.210470   91.091600
  C     -0.296352   -5.373300   90.398000
  H     -0.876341   -3.464410   91.044800
  C      1.519300   -2.963230   92.720300
  H      0.772800   -2.201760   92.592400
  H      2.448640   -2.631380   92.360700
  C      1.698830   -3.375460   94.195300
  H      1.536550   -2.595760   94.995500
  H      1.055120   -4.238630   94.395500
  C      3.102810   -3.816830   94.619600
  H      3.922460   -3.195980   94.293200
  H      3.169500   -4.032640   95.603800
  H      3.207720   -4.726540   94.104800
  S     -1.591070   -5.844280   88.077900
  C     -3.343500   -5.948110   88.098400
  C     -3.829640   -5.798270   89.411900
  C     -2.824610   -5.587280   90.400900
  C     -1.561970   -5.730400   89.824100
  H     -4.904360   -5.613990   89.602500
  C     -3.298460   -5.377070   91.832000
  H     -2.490580   -5.811390   92.517500
  H     -4.178280   -6.039420   92.118100
  C     -3.649510   -3.932250   92.232700
  H     -4.616020   -3.756300   91.747300
  H     -2.895350   -3.262340   91.864300
  C     -3.758860   -3.791870   93.776200
  H     -4.424970   -4.466140   94.318400
  H     -3.914090   -2.783770   94.065000
  H     -2.805410   -3.997470   94.278100
  H      2.810830   -5.482080   92.229300
  H     -3.980160   -5.915290   87.226800

 Total Charge           Charge          ....    0
 Multiplicity           Mult            ....    1
 Number of Electrons    NEL             ....  134
 Basis Dimension        Dim             ....  322

ORBITAL ENERGIES
----------------

  NO   OCC          E(Eh)            E(eV)
   0   2.0000     -88.970949     -2421.0226
   1   2.0000     -88.968397     -2420.9532
   2   2.0000     -10.325307      -280.9659
   3   2.0000     -10.322704      -280.8950
   4   2.0000     -10.320964      -280.8477
   5   2.0000     -10.319784      -280.8156
   6   2.0000     -10.305897      -280.4377
   7   2.0000     -10.303773      -280.3799
   8   2.0000     -10.302041      -280.3328
   9   2.0000     -10.295714      -280.1606
  10   2.0000     -10.293800      -280.1085
  11   2.0000     -10.293153      -280.0909
  12   2.0000     -10.291342      -280.0416
  13   2.0000     -10.289778      -279.9991
  14   2.0000     -10.278901      -279.7031
  15   2.0000     -10.264742      -279.3178
  16   2.0000      -8.084687      -219.9955
  17   2.0000      -8.082993      -219.9494
  18   2.0000      -6.043154      -164.4426
  19   2.0000      -6.041445      -164.3961
  20   2.0000      -6.039348      -164.3390
  21   2.0000      -6.037557      -164.2903
  22   2.0000      -6.035544      -164.2355
  23   2.0000      -6.033796      -164.1879
  24   2.0000      -1.006087       -27.3770
  25   2.0000      -0.979869       -26.6636
  26   2.0000      -0.912978       -24.8434
  27   2.0000      -0.907485       -24.6939
  28   2.0000      -0.866937       -23.5905
  29   2.0000      -0.854646       -23.2561
  30   2.0000      -0.850809       -23.1517
  31   2.0000      -0.809739       -22.0341
  32   2.0000      -0.786745       -21.4084
  33   2.0000      -0.773208       -21.0400
  34   2.0000      -0.707382       -19.2488
  35   2.0000      -0.699317       -19.0294
  36   2.0000      -0.693417       -18.8688
  37   2.0000      -0.662132       -18.0175
  38   2.0000      -0.639411       -17.3993
  39   2.0000      -0.615191       -16.7402
  40   2.0000      -0.597036       -16.2462
  41   2.0000      -0.573767       -15.6130
  42   2.0000      -0.564474       -15.3601
  43   2.0000      -0.550076       -14.9683
  44   2.0000      -0.538836       -14.6625
  45   2.0000      -0.526095       -14.3158
  46   2.0000      -0.519485       -14.1359
  47   2.0000      -0.514394       -13.9974
  48   2.0000      -0.508152       -13.8275
  49   2.0000      -0.498253       -13.5582
  50   2.0000      -0.485021       -13.1981
  51   2.0000      -0.481425       -13.1002
  52   2.0000      -0.471208       -12.8222
  53   2.0000      -0.465490       -12.6666
  54   2.0000      -0.459495       -12.5035
  55   2.0000      -0.447176       -12.1683
  56   2.0000      -0.443666       -12.0728
  57   2.0000      -0.441285       -12.0080
  58   2.0000      -0.435795       -11.8586
  59   2.0000      -0.430798       -11.7226
  60   2.0000      -0.425919       -11.5898
  61   2.0000      -0.415065       -11.2945
  62   2.0000      -0.405462       -11.0332
  63   2.0000      -0.341254        -9.2860
  64   2.0000      -0.334090        -9.0910
  65   2.0000      -0.329886        -8.9767
  66   2.0000      -0.293984        -7.9997
  67   0.0000       0.031646         0.8611
  68   0.0000       0.056339         1.5331
  69   0.0000       0.111229         3.0267
  70   0.0000       0.116358         3.1663
  71   0.0000       0.119395         3.2489

MULLIKEN ATOMIC CHARGES
-----------------------
   0 S :    0.126505
   1 C :   -0.151576
   2 C :   -0.115131
   3 C :    0.015879
   4 C :   -0.154076
   5 H :    0.007942
   6 C :    0.157692
   7 H :    0.020534
   8 H :    0.021225
   9 C :   -0.127998
  10 H :    0.039029
  11 H :    0.042212
  12 C :    0.006547
  13 H :    0.030330
  14 H :    0.012144
  15 H :   -0.013627
  16 S :    0.114242
  17 C :   -0.091753
  18 C :   -0.048725
  19 C :   -0.003678
  20 C :   -0.165403
  21 H :    0.032116
  22 C :   -0.029713
  23 H :    0.040050
  24 H :    0.042924
  25 C :   -0.031936
  26 H :    0.032316
  27 H :    0.024527
  28 C :   -0.036094
  29 H :    0.031308
  30 H :    0.024798
  31 H :    0.020521
  32 H :    0.067930
  33 H :    0.058943
Sum of atomic charges:    0.0000000

LOEWDIN ATOMIC CHARGES
----------------------
   0 S :    0.401642
   1 C :   -0.208040
   2 C :   -0.059748
   3 C :   -0.062355
   4 C :   -0.201236
   5 H :    0.031431
   6 C :   -0.016570
   7 H :    0.030327
   8 H :    0.026884
   9 C :   -0.043730
  10 H :    0.029047
  11 H :    0.026994
  12 C :   -0.053979
  13 H :    0.024014
  14 H :    0.013543
  15 H :    0.013163
  16 S :    0.415017
  17 C :   -0.188021
  18 C :   -0.072621
  19 C :   -0.054850
  20 C :   -0.203737
  21 H :    0.034199
  22 C :   -0.043807
  23 H :    0.036476
  24 H :    0.038676
  25 C :   -0.031825
  26 H :    0.026063
  27 H :    0.019587
  28 C :   -0.066996
  29 H :    0.026460
  30 H :    0.021549
  31 H :    0.027837
  32 H :    0.036095
  33 H :    0.028512

  Mayer bond orders larger than 0.100000
B(  0-S ,  1-C ) :   1.1461 B(  0-S ,  4-C ) :   1.1438 B(  1-C ,  2-C ) :   1.5939
B(  1-C ,  4-C ) :   0.1031 B(  1-C , 32-H ) :   0.9543 B(  2-C ,  3-C ) :   1.2604
B(  2-C ,  6-C ) :   1.0123 B(  3-C ,  4-C ) :   1.5846 B(  3-C ,  5-H ) :   0.9929
B(  4-C , 20-C ) :   1.0085 B(  6-C ,  7-H ) :   0.9423 B(  6-C ,  8-H ) :   0.9368
B(  6-C ,  9-C ) :   1.0441 B(  9-C , 10-H ) :   0.9655 B(  9-C , 11-H ) :   0.9644
B(  9-C , 12-C ) :   1.0733 B( 12-C , 13-H ) :   0.9733 B( 12-C , 14-H ) :   0.9665
B( 12-C , 15-H ) :   0.9729 B( 16-S , 17-C ) :   1.1597 B( 16-S , 20-C ) :   1.1572
B( 17-C , 18-C ) :   1.5940 B( 17-C , 20-C ) :   0.1012 B( 17-C , 33-H ) :   0.9688
B( 18-C , 19-C ) :   1.2599 B( 18-C , 21-H ) :   0.9781 B( 19-C , 20-C ) :   1.5858
B( 19-C , 22-C ) :   1.0325 B( 22-C , 23-H ) :   0.9421 B( 22-C , 24-H ) :   0.9452
B( 22-C , 25-C ) :   1.0514 B( 25-C , 26-H ) :   0.9521 B( 25-C , 27-H ) :   0.9550
B( 25-C , 28-C ) :   1.0829 B( 28-C , 29-H ) :   0.9755 B( 28-C , 30-H ) :   0.9741
B( 28-C , 31-H ) :   0.9715

Dispersion correction           -0.014935994
FINAL SINGLE POINT ENERGY     -1339.860005273724

DIPOLE MOMENT
-------------
                                X             Y             Z
Electronic contribution:      1.78517     -14.67110     -27.45454
Nuclear contribution   :     -2.06144      15.20697      28.02173
                        -----------------------------------------
Total Dipole Moment    :     -0.27627       0.53588       0.56720
                        -----------------------------------------
Magnitude (a.u.)       :      0.82777
Magnitude (Debye)      :      2.10402

Rotational constants in cm-1:     0.019010     0.009182     0.006730
Rotational constants in MHz :   569.895375   275.259173   201.771110

                             ****ORCA TERMINATED NORMALLY****
TOTAL RUN TIME: 0 days 0 hours 0 minutes 32 seconds 577 msec
