                         Program Version 4.2.1 -  RELEASE  -
|  1> ! wB97X-D3 SP def2-SVP
|  2> %pal
|  3> nprocs 16
|  4> end
|  5>
|  6> * xyz 0 1
|  7> S 	 -47.1263 	 29.4134 	 90.6217
|  8> C 	 -48.6119 	 29.1267 	 91.4361
|  9> C 	 -49.4972 	 30.1861 	 91.4283
| 10> C 	 -48.8898 	 31.2731 	 90.7173
| 11> C 	 -47.6333 	 31.0227 	 90.1845
| 12> H 	 -49.3416 	 32.2695 	 90.4692
| 13> C 	 -50.9134 	 30.2349 	 92.0921
| 14> H 	 -51.4728 	 31.06 	 91.6373
| 15> H 	 -50.8381 	 30.3462 	 93.1474
| 16> C 	 -51.6989 	 28.9358 	 91.7898
| 17> H 	 -51.7614 	 28.8115 	 90.7096
| 18> H 	 -51.227 	 28.0625 	 92.2309
| 19> C 	 -53.1606 	 28.9974 	 92.3912
| 20> H 	 -53.9617 	 28.4391 	 91.8643
| 21> H 	 -53.092 	 28.6715 	 93.3683
| 22> H 	 -53.4999 	 30.0152 	 92.4349
| 23> S 	 -46.2048 	 31.3882 	 87.8344
| 24> C 	 -45.4833 	 32.881 	 87.4774
| 25> C 	 -45.9495 	 33.8119 	 88.3401
| 26> C 	 -46.6275 	 33.2571 	 89.5027
| 27> C 	 -46.8492 	 31.9112 	 89.3955
| 28> H 	 -45.6376 	 34.7634 	 88.2127
| 29> C 	 -47.025 	 34.1078 	 90.7136
| 30> H 	 -46.2262 	 34.7835 	 90.9876
| 31> H 	 -47.1097 	 33.4049 	 91.5429
| 32> C 	 -48.3372 	 34.9596 	 90.5875
| 33> H 	 -49.1721 	 34.3878 	 90.0486
| 34> H 	 -48.165 	 35.9341 	 90.0592
| 35> C 	 -49.0189 	 35.2256 	 91.9301
| 36> H 	 -48.3229 	 35.4094 	 92.7225
| 37> H 	 -49.5728 	 34.3089 	 92.2076
| 38> H 	 -49.8119 	 36.0168 	 91.9835
| 39> H 	 -48.8913 	 28.1368 	 91.7954
| 40> H 	 -45.3167 	 33.1548 	 86.4623
| 41> *
| 42>
| 43>                          ****END OF INPUT****

CARTESIAN COORDINATES (ANGSTROEM)
---------------------------------
  S    -47.126300   29.413400   90.621700
  C    -48.611900   29.126700   91.436100
  C    -49.497200   30.186100   91.428300
  C    -48.889800   31.273100   90.717300
  C    -47.633300   31.022700   90.184500
  H    -49.341600   32.269500   90.469200
  C    -50.913400   30.234900   92.092100
  H    -51.472800   31.060000   91.637300
  H    -50.838100   30.346200   93.147400
  C    -51.698900   28.935800   91.789800
  H    -51.761400   28.811500   90.709600
  H    -51.227000   28.062500   92.230900
  C    -53.160600   28.997400   92.391200
  H    -53.961700   28.439100   91.864300
  H    -53.092000   28.671500   93.368300
  H    -53.499900   30.015200   92.434900
  S    -46.204800   31.388200   87.834400
  C    -45.483300   32.881000   87.477400
  C    -45.949500   33.811900   88.340100
  C    -46.627500   33.257100   89.502700
  C    -46.849200   31.911200   89.395500
  H    -45.637600   34.763400   88.212700
  C    -47.025000   34.107800   90.713600
  H    -46.226200   34.783500   90.987600
  H    -47.109700   33.404900   91.542900
  C    -48.337200   34.959600   90.587500
  H    -49.172100   34.387800   90.048600
  H    -48.165000   35.934100   90.059200
  C    -49.018900   35.225600   91.930100
  H    -48.322900   35.409400   92.722500
  H    -49.572800   34.308900   92.207600
  H    -49.811900   36.016800   91.983500
  H    -48.891300   28.136800   91.795400
  H    -45.316700   33.154800   86.462300

 Total Charge           Charge          ....    0
 Multiplicity           Mult            ....    1
 Number of Electrons    NEL             ....  134
 Basis Dimension        Dim             ....  322

ORBITAL ENERGIES
----------------

  NO   OCC          E(Eh)            E(eV)
   0   2.0000     -88.968773     -2420.9634
   1   2.0000     -88.957515     -2420.6570
   2   2.0000     -10.326825      -281.0072
   3   2.0000     -10.324963      -280.9565
   4   2.0000     -10.313869      -280.6546
   5   2.0000     -10.306393      -280.4512
   6   2.0000     -10.305914      -280.4382
   7   2.0000     -10.304040      -280.3872
   8   2.0000     -10.300473      -280.2901
   9   2.0000     -10.300099      -280.2799
  10   2.0000     -10.299207      -280.2557
  11   2.0000     -10.294763      -280.1347
  12   2.0000     -10.291326      -280.0412
  13   2.0000     -10.284959      -279.8680
  14   2.0000     -10.280364      -279.7429
  15   2.0000     -10.275297      -279.6050
  16   2.0000      -8.084095      -219.9794
  17   2.0000      -8.073655      -219.6953
  18   2.0000      -6.042460      -164.4237
  19   2.0000      -6.038490      -164.3157
  20   2.0000      -6.035000      -164.2207
  21   2.0000      -6.032108      -164.1420
  22   2.0000      -6.027900      -164.0275
  23   2.0000      -6.024418      -163.9327
  24   2.0000      -1.013352       -27.5747
  25   2.0000      -0.990886       -26.9634
  26   2.0000      -0.910531       -24.7768
  27   2.0000      -0.904639       -24.6165
  28   2.0000      -0.876772       -23.8582
  29   2.0000      -0.851690       -23.1757
  30   2.0000      -0.845503       -23.0073
  31   2.0000      -0.816172       -22.2092
  32   2.0000      -0.784794       -21.3553
  33   2.0000      -0.773761       -21.0551
  34   2.0000      -0.709849       -19.3160
  35   2.0000      -0.701266       -19.0824
  36   2.0000      -0.693315       -18.8660
  37   2.0000      -0.667102       -18.1528
  38   2.0000      -0.641274       -17.4500
  39   2.0000      -0.615394       -16.7457
  40   2.0000      -0.595429       -16.2025
  41   2.0000      -0.576405       -15.6848
  42   2.0000      -0.571574       -15.5533
  43   2.0000      -0.561488       -15.2789
  44   2.0000      -0.527555       -14.3555
  45   2.0000      -0.526239       -14.3197
  46   2.0000      -0.512480       -13.9453
  47   2.0000      -0.511334       -13.9141
  48   2.0000      -0.508280       -13.8310
  49   2.0000      -0.504382       -13.7249
  50   2.0000      -0.492285       -13.3958
  51   2.0000      -0.477193       -12.9851
  52   2.0000      -0.474507       -12.9120
  53   2.0000      -0.472210       -12.8495
  54   2.0000      -0.460858       -12.5406
  55   2.0000      -0.447290       -12.1714
  56   2.0000      -0.439542       -11.9606
  57   2.0000      -0.435691       -11.8558
  58   2.0000      -0.432237       -11.7618
  59   2.0000      -0.427820       -11.6416
  60   2.0000      -0.424596       -11.5539
  61   2.0000      -0.420488       -11.4421
  62   2.0000      -0.411559       -11.1991
  63   2.0000      -0.354948        -9.6586
  64   2.0000      -0.335582        -9.1317
  65   2.0000      -0.325561        -8.8590
  66   2.0000      -0.295410        -8.0385
  67   0.0000       0.027346         0.7441
  68   0.0000       0.071511         1.9459
  69   0.0000       0.116633         3.1738
  70   0.0000       0.121557         3.3077
  71   0.0000       0.130556         3.5526

MULLIKEN ATOMIC CHARGES
-----------------------
   0 S :    0.133762
   1 C :   -0.131583
   2 C :   -0.076823
   3 C :    0.010475
   4 C :   -0.177337
   5 H :    0.007407
   6 C :    0.099827
   7 H :    0.029105
   8 H :    0.040624
   9 C :   -0.132288
  10 H :    0.041362
  11 H :    0.036822
  12 C :   -0.023283
  13 H :    0.043530
  14 H :    0.016402
  15 H :    0.016192
  16 S :    0.084783
  17 C :   -0.055338
  18 C :   -0.014182
  19 C :   -0.057801
  20 C :   -0.127927
  21 H :   -0.019995
  22 C :    0.070987
  23 H :    0.029135
  24 H :    0.031685
  25 C :   -0.105725
  26 H :    0.046817
  27 H :    0.043755
  28 C :   -0.068172
  29 H :    0.027456
  30 H :    0.025363
  31 H :    0.040721
  32 H :    0.049979
  33 H :    0.064265
Sum of atomic charges:   -0.0000000

LOEWDIN ATOMIC CHARGES
----------------------
   0 S :    0.429301
   1 C :   -0.203254
   2 C :   -0.064334
   3 C :   -0.063178
   4 C :   -0.206405
   5 H :    0.035510
   6 C :   -0.018752
   7 H :    0.032046
   8 H :    0.028885
   9 C :   -0.036181
  10 H :    0.025137
  11 H :    0.020237
  12 C :   -0.062659
  13 H :    0.032216
  14 H :    0.014800
  15 H :    0.020314
  16 S :    0.410003
  17 C :   -0.201140
  18 C :   -0.054762
  19 C :   -0.053736
  20 C :   -0.192056
  21 H :    0.011189
  22 C :   -0.030470
  23 H :    0.031687
  24 H :    0.032074
  25 C :   -0.048496
  26 H :    0.028126
  27 H :    0.027429
  28 C :   -0.074143
  29 H :    0.017613
  30 H :    0.024737
  31 H :    0.030974
  32 H :    0.026088
  33 H :    0.031202

  Mayer bond orders larger than 0.100000
B(  0-S ,  1-C ) :   1.1597 B(  0-S ,  4-C ) :   1.1495 B(  1-C ,  2-C ) :   1.6011
B(  1-C , 32-H ) :   0.9639 B(  2-C ,  3-C ) :   1.2638 B(  2-C ,  6-C ) :   1.0017
B(  3-C ,  4-C ) :   1.5677 B(  3-C ,  5-H ) :   0.9804 B(  4-C , 20-C ) :   1.0632
B(  6-C ,  7-H ) :   0.9438 B(  6-C ,  8-H ) :   0.9416 B(  6-C ,  9-C ) :   1.0670
B(  9-C , 10-H ) :   0.9661 B(  9-C , 11-H ) :   0.9598 B(  9-C , 12-C ) :   1.0673
B( 12-C , 13-H ) :   0.9778 B( 12-C , 14-H ) :   0.9771 B( 12-C , 15-H ) :   0.9756
B( 16-S , 17-C ) :   1.1600 B( 16-S , 20-C ) :   1.1392 B( 17-C , 18-C ) :   1.6272
B( 17-C , 33-H ) :   0.9552 B( 18-C , 19-C ) :   1.2293 B( 18-C , 21-H ) :   1.0018
B( 19-C , 20-C ) :   1.6029 B( 19-C , 22-C ) :   1.0495 B( 22-C , 23-H ) :   0.9303
B( 22-C , 24-H ) :   0.9413 B( 22-C , 25-C ) :   1.0428 B( 25-C , 26-H ) :   0.9615
B( 25-C , 27-H ) :   0.9548 B( 25-C , 28-C ) :   1.0675 B( 28-C , 29-H ) :   0.9751
B( 28-C , 30-H ) :   0.9768 B( 28-C , 31-H ) :   0.9747

Dispersion correction           -0.014195168
FINAL SINGLE POINT ENERGY     -1339.872171070895

DIPOLE MOMENT
-------------
                                X             Y             Z
Electronic contribution:     24.61480      -9.97857     -15.68698
Nuclear contribution   :    -25.22447      10.37387      15.97348
                        -----------------------------------------
Total Dipole Moment    :     -0.60967       0.39530       0.28650
                        -----------------------------------------
Magnitude (a.u.)       :      0.78105
Magnitude (Debye)      :      1.98528

Rotational constants in cm-1:     0.019108     0.008274     0.006329
Rotational constants in MHz :   572.839266   248.055962   189.731172

                             ****ORCA TERMINATED NORMALLY****
TOTAL RUN TIME: 0 days 0 hours 0 minutes 30 seconds 321 msec
