                         Program Version 4.2.1 -  RELEASE  -
|  1> ! wB97X-D3 SP def2-SVP
|  2> %pal
|  3> nprocs 16
|  4> end
|  5>
|  6> * xyz 0 1
|  7> S 	 -74.9897 	 53.327 	 124.013
|  8> C 	 -74.1818 	 54.9005 	 124.066
|  9> C 	 -74.8486 	 55.8713 	 123.47
| 10> C 	 -76.0872 	 55.3778 	 122.883
| 11> C 	 -76.3007 	 54.0246 	 123.073
| 12> H 	 -76.7696 	 55.9524 	 122.294
| 13> C 	 -74.5107 	 57.3792 	 123.411
| 14> H 	 -74.9056 	 57.9207 	 122.521
| 15> H 	 -73.434 	 57.5276 	 123.414
| 16> C 	 -75.0417 	 58.0975 	 124.659
| 17> H 	 -76.1675 	 57.8745 	 124.71
| 18> H 	 -74.8143 	 57.6589 	 125.573
| 19> C 	 -74.763 	 59.5994 	 124.659
| 20> H 	 -74.9872 	 60.024 	 125.646
| 21> H 	 -73.6977 	 59.6925 	 124.481
| 22> H 	 -75.3091 	 60.1593 	 123.874
| 23> S 	 -77.0541 	 51.8741 	 121.546
| 24> C 	 -78.7985 	 51.4137 	 121.467
| 25> C 	 -79.5543 	 52.3786 	 122.123
| 26> C 	 -78.7393 	 53.3701 	 122.784
| 27> C 	 -77.4175 	 53.2704 	 122.573
| 28> H 	 -80.631 	 52.2778 	 122.163
| 29> C 	 -79.4239 	 54.4333 	 123.673
| 30> H 	 -80.414 	 54.6501 	 123.497
| 31> H 	 -78.8743 	 55.4342 	 123.445
| 32> C 	 -79.3927 	 54.1217 	 125.215
| 33> H 	 -78.4519 	 53.7751 	 125.505
| 34> H 	 -80.1584 	 53.2917 	 125.318
| 35> C 	 -79.8349 	 55.2399 	 126.071
| 36> H 	 -79.0441 	 55.9734 	 126.089
| 37> H 	 -79.819 	 54.922 	 127.117
| 38> H 	 -80.8173 	 55.6205 	 125.837
| 39> H 	 -73.3898 	 55.058 	 124.708
| 40> H 	 -79.153 	 50.463 	 121.057
| 41> *
| 42>
| 43>                          ****END OF INPUT****

CARTESIAN COORDINATES (ANGSTROEM)
---------------------------------
  S    -74.989700   53.327000  124.013000
  C    -74.181800   54.900500  124.066000
  C    -74.848600   55.871300  123.470000
  C    -76.087200   55.377800  122.883000
  C    -76.300700   54.024600  123.073000
  H    -76.769600   55.952400  122.294000
  C    -74.510700   57.379200  123.411000
  H    -74.905600   57.920700  122.521000
  H    -73.434000   57.527600  123.414000
  C    -75.041700   58.097500  124.659000
  H    -76.167500   57.874500  124.710000
  H    -74.814300   57.658900  125.573000
  C    -74.763000   59.599400  124.659000
  H    -74.987200   60.024000  125.646000
  H    -73.697700   59.692500  124.481000
  H    -75.309100   60.159300  123.874000
  S    -77.054100   51.874100  121.546000
  C    -78.798500   51.413700  121.467000
  C    -79.554300   52.378600  122.123000
  C    -78.739300   53.370100  122.784000
  C    -77.417500   53.270400  122.573000
  H    -80.631000   52.277800  122.163000
  C    -79.423900   54.433300  123.673000
  H    -80.414000   54.650100  123.497000
  H    -78.874300   55.434200  123.445000
  C    -79.392700   54.121700  125.215000
  H    -78.451900   53.775100  125.505000
  H    -80.158400   53.291700  125.318000
  C    -79.834900   55.239900  126.071000
  H    -79.044100   55.973400  126.089000
  H    -79.819000   54.922000  127.117000
  H    -80.817300   55.620500  125.837000
  H    -73.389800   55.058000  124.708000
  H    -79.153000   50.463000  121.057000

 Total Charge           Charge          ....    0
 Multiplicity           Mult            ....    1
 Number of Electrons    NEL             ....  134
 Basis Dimension        Dim             ....  322

ORBITAL ENERGIES
----------------

  NO   OCC          E(Eh)            E(eV)
   0   2.0000     -88.966243     -2420.8945
   1   2.0000     -88.961386     -2420.7624
   2   2.0000     -10.329641      -281.0838
   3   2.0000     -10.324979      -280.9570
   4   2.0000     -10.323014      -280.9035
   5   2.0000     -10.307118      -280.4709
   6   2.0000     -10.303525      -280.3732
   7   2.0000     -10.302283      -280.3394
   8   2.0000     -10.300664      -280.2953
   9   2.0000     -10.298208      -280.2285
  10   2.0000     -10.295272      -280.1486
  11   2.0000     -10.291487      -280.0456
  12   2.0000     -10.286278      -279.9039
  13   2.0000     -10.282848      -279.8105
  14   2.0000     -10.279810      -279.7278
  15   2.0000     -10.271028      -279.4889
  16   2.0000      -8.080776      -219.8891
  17   2.0000      -8.075359      -219.7417
  18   2.0000      -6.039401      -164.3405
  19   2.0000      -6.035420      -164.2321
  20   2.0000      -6.034031      -164.1943
  21   2.0000      -6.031301      -164.1200
  22   2.0000      -6.030010      -164.0849
  23   2.0000      -6.025936      -163.9741
  24   2.0000      -1.006559       -27.3899
  25   2.0000      -0.981820       -26.7167
  26   2.0000      -0.913035       -24.8450
  27   2.0000      -0.905528       -24.6407
  28   2.0000      -0.875030       -23.8108
  29   2.0000      -0.851110       -23.1599
  30   2.0000      -0.843973       -22.9657
  31   2.0000      -0.816173       -22.2092
  32   2.0000      -0.782232       -21.2856
  33   2.0000      -0.774079       -21.0638
  34   2.0000      -0.707362       -19.2483
  35   2.0000      -0.702767       -19.1233
  36   2.0000      -0.688755       -18.7420
  37   2.0000      -0.667577       -18.1657
  38   2.0000      -0.649729       -17.6800
  39   2.0000      -0.619245       -16.8505
  40   2.0000      -0.595653       -16.2086
  41   2.0000      -0.573467       -15.6048
  42   2.0000      -0.568376       -15.4663
  43   2.0000      -0.558010       -15.1842
  44   2.0000      -0.527083       -14.3426
  45   2.0000      -0.525262       -14.2931
  46   2.0000      -0.516478       -14.0541
  47   2.0000      -0.513039       -13.9605
  48   2.0000      -0.510041       -13.8789
  49   2.0000      -0.497430       -13.5357
  50   2.0000      -0.493671       -13.4335
  51   2.0000      -0.488097       -13.2818
  52   2.0000      -0.471537       -12.8312
  53   2.0000      -0.466255       -12.6874
  54   2.0000      -0.461078       -12.5466
  55   2.0000      -0.451762       -12.2931
  56   2.0000      -0.447527       -12.1778
  57   2.0000      -0.441251       -12.0071
  58   2.0000      -0.425550       -11.5798
  59   2.0000      -0.423746       -11.5307
  60   2.0000      -0.413633       -11.2555
  61   2.0000      -0.409851       -11.1526
  62   2.0000      -0.408110       -11.1052
  63   2.0000      -0.345359        -9.3977
  64   2.0000      -0.334135        -9.0923
  65   2.0000      -0.328024        -8.9260
  66   2.0000      -0.301232        -8.1969
  67   0.0000       0.031813         0.8657
  68   0.0000       0.068015         1.8508
  69   0.0000       0.109291         2.9740
  70   0.0000       0.117578         3.1995
  71   0.0000       0.130998         3.5646

MULLIKEN ATOMIC CHARGES
-----------------------
   0 S :    0.107798
   1 C :   -0.102039
   2 C :   -0.049240
   3 C :    0.036593
   4 C :   -0.152157
   5 H :    0.009610
   6 C :    0.065957
   7 H :    0.036079
   8 H :    0.022131
   9 C :   -0.092676
  10 H :    0.020076
  11 H :    0.006873
  12 C :   -0.024485
  13 H :    0.038917
  14 H :    0.024617
  15 H :    0.040696
  16 S :    0.085229
  17 C :   -0.109047
  18 C :   -0.020326
  19 C :   -0.008955
  20 C :   -0.163521
  21 H :    0.023412
  22 C :    0.057187
  23 H :   -0.006918
  24 H :    0.023362
  25 C :   -0.063159
  26 H :    0.017256
  27 H :    0.025008
  28 C :   -0.014011
  29 H :    0.021883
  30 H :    0.026805
  31 H :    0.030023
  32 H :    0.017519
  33 H :    0.069505
Sum of atomic charges:   -0.0000000

LOEWDIN ATOMIC CHARGES
----------------------
   0 S :    0.388944
   1 C :   -0.171177
   2 C :   -0.057757
   3 C :   -0.049736
   4 C :   -0.190653
   5 H :    0.026380
   6 C :   -0.026250
   7 H :    0.036140
   8 H :    0.026368
   9 C :   -0.047999
  10 H :    0.027336
  11 H :    0.012833
  12 C :   -0.064400
  13 H :    0.030154
  14 H :    0.023282
  15 H :    0.028876
  16 S :    0.368308
  17 C :   -0.165048
  18 C :   -0.067433
  19 C :   -0.055442
  20 C :   -0.192844
  21 H :    0.032692
  22 C :   -0.028091
  23 H :    0.012441
  24 H :    0.033532
  25 C :   -0.032762
  26 H :    0.014331
  27 H :    0.026666
  28 C :   -0.063222
  29 H :    0.024128
  30 H :    0.030815
  31 H :    0.022639
  32 H :    0.013284
  33 H :    0.033663

  Mayer bond orders larger than 0.100000
B(  0-S ,  1-C ) :   1.1141 B(  0-S ,  4-C ) :   1.1304 B(  1-C ,  2-C ) :   1.6801
B(  1-C , 32-H ) :   0.9701 B(  2-C ,  3-C ) :   1.1989 B(  2-C ,  6-C ) :   1.0187
B(  3-C ,  4-C ) :   1.6128 B(  3-C ,  5-H ) :   0.9940 B(  4-C , 20-C ) :   1.0387
B(  6-C ,  7-H ) :   0.9463 B(  6-C ,  8-H ) :   0.9402 B(  6-C ,  9-C ) :   1.0552
B(  9-C , 10-H ) :   0.9498 B(  9-C , 11-H ) :   0.9570 B(  9-C , 12-C ) :   1.0774
B( 12-C , 13-H ) :   0.9732 B( 12-C , 14-H ) :   0.9727 B( 12-C , 15-H ) :   0.9748
B( 16-S , 17-C ) :   1.1378 B( 16-S , 20-C ) :   1.1131 B( 17-C , 18-C ) :   1.6256
B( 17-C , 33-H ) :   0.9674 B( 18-C , 19-C ) :   1.2121 B( 18-C , 21-H ) :   0.9912
B( 19-C , 20-C ) :   1.6593 B( 19-C , 22-C ) :   1.0362 B( 22-C , 23-H ) :   0.9380
B( 22-C , 24-H ) :   0.9396 B( 22-C , 25-C ) :   1.0522 B( 25-C , 26-H ) :   0.9574
B( 25-C , 27-H ) :   0.9535 B( 25-C , 28-C ) :   1.1036 B( 28-C , 29-H ) :   0.9698
B( 28-C , 30-H ) :   0.9666 B( 28-C , 31-H ) :   0.9711

Dispersion correction           -0.014304693
FINAL SINGLE POINT ENERGY     -1339.873325398957

DIPOLE MOMENT
-------------
                                X             Y             Z
Electronic contribution:      7.44432     -26.23586     -14.30833
Nuclear contribution   :     -7.76013      26.80771      14.63958
                        -----------------------------------------
Total Dipole Moment    :     -0.31581       0.57184       0.33124
                        -----------------------------------------
Magnitude (a.u.)       :      0.73244
Magnitude (Debye)      :      1.86170

Rotational constants in cm-1:     0.018960     0.008602     0.006822
Rotational constants in MHz :   568.394247   257.877066   204.515079

                             ****ORCA TERMINATED NORMALLY****
TOTAL RUN TIME: 0 days 0 hours 0 minutes 34 seconds 583 msec
