                         Program Version 4.2.1 -  RELEASE  -
|  1> ! wB97X-D3 SP def2-SVP
|  2> %pal
|  3> nprocs 16
|  4> end
|  5>
|  6> * xyz 0 1
|  7> S 	 -41.9766 	 23.9713 	 79.7369
|  8> C 	 -41.7818 	 25.6279 	 80.2948
|  9> C 	 -40.7874 	 26.2018 	 79.5812
| 10> C 	 -40.1532 	 25.245 	 78.6764
| 11> C 	 -40.6073 	 23.9545 	 78.6617
| 12> H 	 -39.213 	 25.4422 	 78.1156
| 13> C 	 -40.2023 	 27.5949 	 79.8294
| 14> H 	 -40.9924 	 28.1771 	 80.3331
| 15> H 	 -39.7468 	 28.0055 	 78.9098
| 16> C 	 -39.0039 	 27.5361 	 80.7496
| 17> H 	 -39.4466 	 26.967 	 81.6161
| 18> H 	 -38.065 	 27.055 	 80.4463
| 19> C 	 -38.5424 	 28.9499 	 81.2319
| 20> H 	 -38.3444 	 29.364 	 80.2063
| 21> H 	 -39.2202 	 29.642 	 81.7532
| 22> H 	 -37.655 	 28.892 	 81.8024
| 23> S 	 -40.1068 	 21.3038 	 78.8877
| 24> C 	 -39.7031 	 20.4066 	 77.436
| 25> C 	 -39.4082 	 21.1881 	 76.3446
| 26> C 	 -39.8307 	 22.547 	 76.6025
| 27> C 	 -40.0819 	 22.7612 	 77.9412
| 28> H 	 -38.9468 	 20.7173 	 75.5067
| 29> C 	 -39.8251 	 23.5737 	 75.504
| 30> H 	 -39.033 	 23.4612 	 74.7329
| 31> H 	 -39.6675 	 24.552 	 75.9378
| 32> C 	 -41.1473 	 23.5784 	 74.6716
| 33> H 	 -42.0463 	 23.5069 	 75.3445
| 34> H 	 -41.0855 	 22.8233 	 73.9343
| 35> C 	 -41.2458 	 24.9474 	 73.903
| 36> H 	 -40.5134 	 25.0987 	 73.1736
| 37> H 	 -41.2819 	 25.7563 	 74.5198
| 38> H 	 -42.2044 	 24.8603 	 73.4151
| 39> H 	 -42.2824 	 26.0746 	 81.1633
| 40> H 	 -39.3278 	 19.4021 	 77.507
| 41> *
| 42>
| 43>                          ****END OF INPUT****

CARTESIAN COORDINATES (ANGSTROEM)
---------------------------------
  S    -41.976600   23.971300   79.736900
  C    -41.781800   25.627900   80.294800
  C    -40.787400   26.201800   79.581200
  C    -40.153200   25.245000   78.676400
  C    -40.607300   23.954500   78.661700
  H    -39.213000   25.442200   78.115600
  C    -40.202300   27.594900   79.829400
  H    -40.992400   28.177100   80.333100
  H    -39.746800   28.005500   78.909800
  C    -39.003900   27.536100   80.749600
  H    -39.446600   26.967000   81.616100
  H    -38.065000   27.055000   80.446300
  C    -38.542400   28.949900   81.231900
  H    -38.344400   29.364000   80.206300
  H    -39.220200   29.642000   81.753200
  H    -37.655000   28.892000   81.802400
  S    -40.106800   21.303800   78.887700
  C    -39.703100   20.406600   77.436000
  C    -39.408200   21.188100   76.344600
  C    -39.830700   22.547000   76.602500
  C    -40.081900   22.761200   77.941200
  H    -38.946800   20.717300   75.506700
  C    -39.825100   23.573700   75.504000
  H    -39.033000   23.461200   74.732900
  H    -39.667500   24.552000   75.937800
  C    -41.147300   23.578400   74.671600
  H    -42.046300   23.506900   75.344500
  H    -41.085500   22.823300   73.934300
  C    -41.245800   24.947400   73.903000
  H    -40.513400   25.098700   73.173600
  H    -41.281900   25.756300   74.519800
  H    -42.204400   24.860300   73.415100
  H    -42.282400   26.074600   81.163300
  H    -39.327800   19.402100   77.507000

 Total Charge           Charge          ....    0
 Multiplicity           Mult            ....    1
 Number of Electrons    NEL             ....  134
 Basis Dimension        Dim             ....  322

ORBITAL ENERGIES
----------------

  NO   OCC          E(Eh)            E(eV)
   0   2.0000     -88.967715     -2420.9346
   1   2.0000     -88.959096     -2420.7001
   2   2.0000     -10.331048      -281.1221
   3   2.0000     -10.330924      -281.1187
   4   2.0000     -10.315485      -280.6986
   5   2.0000     -10.315003      -280.6855
   6   2.0000     -10.308973      -280.5214
   7   2.0000     -10.302451      -280.3439
   8   2.0000     -10.298162      -280.2272
   9   2.0000     -10.296745      -280.1887
  10   2.0000     -10.294134      -280.1176
  11   2.0000     -10.291205      -280.0379
  12   2.0000     -10.290173      -280.0098
  13   2.0000     -10.287939      -279.9491
  14   2.0000     -10.280306      -279.7413
  15   2.0000     -10.263542      -279.2852
  16   2.0000      -8.082835      -219.9451
  17   2.0000      -8.074071      -219.7067
  18   2.0000      -6.041316      -164.3926
  19   2.0000      -6.037450      -164.2874
  20   2.0000      -6.033426      -164.1779
  21   2.0000      -6.032777      -164.1602
  22   2.0000      -6.028396      -164.0410
  23   2.0000      -6.024701      -163.9405
  24   2.0000      -1.009507       -27.4701
  25   2.0000      -0.988229       -26.8911
  26   2.0000      -0.915089       -24.9008
  27   2.0000      -0.906546       -24.6684
  28   2.0000      -0.871931       -23.7265
  29   2.0000      -0.852736       -23.2041
  30   2.0000      -0.837667       -22.7941
  31   2.0000      -0.819141       -22.2900
  32   2.0000      -0.781259       -21.2592
  33   2.0000      -0.773997       -21.0615
  34   2.0000      -0.705317       -19.1927
  35   2.0000      -0.694115       -18.8878
  36   2.0000      -0.689892       -18.7729
  37   2.0000      -0.665318       -18.1042
  38   2.0000      -0.639961       -17.4142
  39   2.0000      -0.619455       -16.8562
  40   2.0000      -0.596560       -16.2332
  41   2.0000      -0.579730       -15.7752
  42   2.0000      -0.571814       -15.5598
  43   2.0000      -0.563885       -15.3441
  44   2.0000      -0.531962       -14.4754
  45   2.0000      -0.519955       -14.1487
  46   2.0000      -0.517031       -14.0691
  47   2.0000      -0.512564       -13.9476
  48   2.0000      -0.506442       -13.7810
  49   2.0000      -0.500147       -13.6097
  50   2.0000      -0.494778       -13.4636
  51   2.0000      -0.477246       -12.9865
  52   2.0000      -0.470367       -12.7993
  53   2.0000      -0.467701       -12.7268
  54   2.0000      -0.458912       -12.4876
  55   2.0000      -0.452401       -12.3105
  56   2.0000      -0.446977       -12.1628
  57   2.0000      -0.437071       -11.8933
  58   2.0000      -0.432054       -11.7568
  59   2.0000      -0.428704       -11.6656
  60   2.0000      -0.412810       -11.2331
  61   2.0000      -0.409805       -11.1514
  62   2.0000      -0.398810       -10.8522
  63   2.0000      -0.351648        -9.5688
  64   2.0000      -0.333558        -9.0766
  65   2.0000      -0.322860        -8.7855
  66   2.0000      -0.299207        -8.1418
  67   0.0000       0.030051         0.8177
  68   0.0000       0.074786         2.0350
  69   0.0000       0.105268         2.8645
  70   0.0000       0.116476         3.1695
  71   0.0000       0.136004         3.7008

MULLIKEN ATOMIC CHARGES
-----------------------
   0 S :    0.087288
   1 C :   -0.135058
   2 C :   -0.071550
   3 C :   -0.006932
   4 C :   -0.122973
   5 H :    0.023663
   6 C :    0.074316
   7 H :    0.034766
   8 H :    0.027819
   9 C :   -0.110013
  10 H :    0.023055
  11 H :    0.043936
  12 C :   -0.050406
  13 H :    0.021911
  14 H :    0.038924
  15 H :    0.033321
  16 S :    0.108584
  17 C :   -0.087257
  18 C :   -0.025921
  19 C :   -0.026735
  20 C :   -0.152134
  21 H :    0.021471
  22 C :    0.065808
  23 H :    0.026970
  24 H :    0.004658
  25 C :   -0.096725
  26 H :    0.052821
  27 H :    0.025626
  28 C :   -0.002890
  29 H :    0.016681
  30 H :    0.015760
  31 H :    0.025375
  32 H :    0.061425
  33 H :    0.054416
Sum of atomic charges:    0.0000000

LOEWDIN ATOMIC CHARGES
----------------------
   0 S :    0.391319
   1 C :   -0.196470
   2 C :   -0.066855
   3 C :   -0.080686
   4 C :   -0.197651
   5 H :    0.030182
   6 C :   -0.031256
   7 H :    0.037248
   8 H :    0.031821
   9 C :   -0.045834
  10 H :    0.021130
  11 H :    0.028846
  12 C :   -0.069329
  13 H :    0.028908
  14 H :    0.024445
  15 H :    0.020050
  16 S :    0.411360
  17 C :   -0.177396
  18 C :   -0.059839
  19 C :   -0.045947
  20 C :   -0.199787
  21 H :    0.032641
  22 C :   -0.035963
  23 H :    0.034260
  24 H :    0.023139
  25 C :   -0.023961
  26 H :    0.033415
  27 H :    0.016232
  28 C :   -0.050210
  29 H :    0.015563
  30 H :    0.011239
  31 H :    0.028600
  32 H :    0.037830
  33 H :    0.022954

  Mayer bond orders larger than 0.100000
B(  0-S ,  1-C ) :   1.1243 B(  0-S ,  4-C ) :   1.1364 B(  1-C ,  2-C ) :   1.6239
B(  1-C , 32-H ) :   0.9680 B(  2-C ,  3-C ) :   1.2180 B(  2-C ,  6-C ) :   1.0444
B(  3-C ,  4-C ) :   1.6183 B(  3-C ,  5-H ) :   0.9811 B(  4-C , 20-C ) :   1.0156
B(  6-C ,  7-H ) :   0.9411 B(  6-C ,  8-H ) :   0.9330 B(  6-C ,  9-C ) :   1.0582
B(  9-C , 10-H ) :   0.9544 B(  9-C , 11-H ) :   0.9591 B(  9-C , 12-C ) :   1.0650
B( 12-C , 13-H ) :   0.9735 B( 12-C , 14-H ) :   0.9785 B( 12-C , 15-H ) :   0.9770
B( 16-S , 17-C ) :   1.1550 B( 16-S , 20-C ) :   1.1338 B( 17-C , 18-C ) :   1.6478
B( 17-C , 33-H ) :   0.9586 B( 18-C , 19-C ) :   1.1938 B( 18-C , 21-H ) :   0.9926
B( 19-C , 20-C ) :   1.6249 B( 19-C , 22-C ) :   1.0509 B( 22-C , 23-H ) :   0.9375
B( 22-C , 24-H ) :   0.9401 B( 22-C , 25-C ) :   1.0500 B( 25-C , 26-H ) :   0.9617
B( 25-C , 27-H ) :   0.9585 B( 25-C , 28-C ) :   1.0823 B( 28-C , 29-H ) :   0.9744
B( 28-C , 30-H ) :   0.9777 B( 28-C , 31-H ) :   0.9742

Dispersion correction           -0.013564126
FINAL SINGLE POINT ENERGY     -1339.855322700618

DIPOLE MOMENT
-------------
                                X             Y             Z
Electronic contribution:     -6.76476     -23.28306       9.77878
Nuclear contribution   :      7.22961      23.59742     -10.12804
                        -----------------------------------------
Total Dipole Moment    :      0.46485       0.31436      -0.34926
                        -----------------------------------------
Magnitude (a.u.)       :      0.66098
Magnitude (Debye)      :      1.68008

Rotational constants in cm-1:     0.018376     0.007959     0.006651
Rotational constants in MHz :   550.898954   238.597263   199.384055

                             ****ORCA TERMINATED NORMALLY****
TOTAL RUN TIME: 0 days 0 hours 0 minutes 29 seconds 507 msec
