                         Program Version 4.2.1 -  RELEASE  -
|  1> ! wB97X-D3 SP def2-SVP
|  2> %pal
|  3> nprocs 16
|  4> end
|  5>
|  6> * xyz 0 1
|  7> S 	 -0.866892 	 -17.2104 	 84.4464
|  8> C 	 0.594259 	 -18.2246 	 84.4555
|  9> C 	 0.810331 	 -18.7569 	 85.7205
| 10> C 	 -0.299924 	 -18.5011 	 86.5753
| 11> C 	 -1.36872 	 -17.7753 	 85.9968
| 12> H 	 -0.482568 	 -18.9094 	 87.508
| 13> C 	 2.05561 	 -19.4918 	 86.1492
| 14> H 	 2.12681 	 -19.4937 	 87.303
| 15> H 	 2.8736 	 -18.889 	 85.8168
| 16> C 	 2.14629 	 -21.0055 	 85.6506
| 17> H 	 3.0791 	 -21.3852 	 85.9696
| 18> H 	 1.5062 	 -21.6273 	 86.2559
| 19> C 	 1.97067 	 -21.1964 	 84.1218
| 20> H 	 1.72561 	 -22.2477 	 83.8967
| 21> H 	 1.20759 	 -20.6362 	 83.6464
| 22> H 	 2.82302 	 -20.8003 	 83.6006
| 23> S 	 -3.97363 	 -18.7597 	 86.1671
| 24> C 	 -5.17882 	 -17.7386 	 86.9097
| 25> C 	 -4.67186 	 -16.5584 	 87.3505
| 26> C 	 -3.28533 	 -16.4768 	 87.1723
| 27> C 	 -2.67873 	 -17.5714 	 86.5794
| 28> H 	 -5.17384 	 -15.8005 	 87.8283
| 29> C 	 -2.5383 	 -15.2289 	 87.6433
| 30> H 	 -3.26515 	 -14.3625 	 87.6506
| 31> H 	 -1.71804 	 -15.0305 	 86.964
| 32> C 	 -1.98467 	 -15.2783 	 89.0666
| 33> H 	 -1.53283 	 -16.2116 	 89.1543
| 34> H 	 -2.80756 	 -15.3902 	 89.7506
| 35> C 	 -1.05325 	 -14.0795 	 89.3042
| 36> H 	 -0.271449 	 -14.0616 	 88.5028
| 37> H 	 -0.680256 	 -13.9745 	 90.3798
| 38> H 	 -1.57023 	 -13.1237 	 88.9738
| 39> H 	 1.47206 	 -18.2121 	 83.7278
| 40> H 	 -6.21544 	 -17.8351 	 86.8874
| 41> *
| 42>
| 43>                          ****END OF INPUT****

CARTESIAN COORDINATES (ANGSTROEM)
---------------------------------
  S     -0.866892  -17.210400   84.446400
  C      0.594259  -18.224600   84.455500
  C      0.810331  -18.756900   85.720500
  C     -0.299924  -18.501100   86.575300
  C     -1.368720  -17.775300   85.996800
  H     -0.482568  -18.909400   87.508000
  C      2.055610  -19.491800   86.149200
  H      2.126810  -19.493700   87.303000
  H      2.873600  -18.889000   85.816800
  C      2.146290  -21.005500   85.650600
  H      3.079100  -21.385200   85.969600
  H      1.506200  -21.627300   86.255900
  C      1.970670  -21.196400   84.121800
  H      1.725610  -22.247700   83.896700
  H      1.207590  -20.636200   83.646400
  H      2.823020  -20.800300   83.600600
  S     -3.973630  -18.759700   86.167100
  C     -5.178820  -17.738600   86.909700
  C     -4.671860  -16.558400   87.350500
  C     -3.285330  -16.476800   87.172300
  C     -2.678730  -17.571400   86.579400
  H     -5.173840  -15.800500   87.828300
  C     -2.538300  -15.228900   87.643300
  H     -3.265150  -14.362500   87.650600
  H     -1.718040  -15.030500   86.964000
  C     -1.984670  -15.278300   89.066600
  H     -1.532830  -16.211600   89.154300
  H     -2.807560  -15.390200   89.750600
  C     -1.053250  -14.079500   89.304200
  H     -0.271449  -14.061600   88.502800
  H     -0.680256  -13.974500   90.379800
  H     -1.570230  -13.123700   88.973800
  H      1.472060  -18.212100   83.727800
  H     -6.215440  -17.835100   86.887400

 Total Charge           Charge          ....    0
 Multiplicity           Mult            ....    1
 Number of Electrons    NEL             ....  134
 Basis Dimension        Dim             ....  322

ORBITAL ENERGIES
----------------

  NO   OCC          E(Eh)            E(eV)
   0   2.0000     -88.969088     -2420.9720
   1   2.0000     -88.966108     -2420.8909
   2   2.0000     -10.329098      -281.0690
   3   2.0000     -10.327165      -281.0164
   4   2.0000     -10.320982      -280.8482
   5   2.0000     -10.313905      -280.6556
   6   2.0000     -10.301527      -280.3188
   7   2.0000     -10.301379      -280.3148
   8   2.0000     -10.300119      -280.2805
   9   2.0000     -10.291314      -280.0409
  10   2.0000     -10.290701      -280.0242
  11   2.0000     -10.290208      -280.0108
  12   2.0000     -10.289272      -279.9853
  13   2.0000     -10.282552      -279.8025
  14   2.0000     -10.277025      -279.6521
  15   2.0000     -10.274167      -279.5743
  16   2.0000      -8.083204      -219.9552
  17   2.0000      -8.080141      -219.8718
  18   2.0000      -6.041715      -164.4034
  19   2.0000      -6.038770      -164.3233
  20   2.0000      -6.037685      -164.2938
  21   2.0000      -6.034684      -164.2121
  22   2.0000      -6.034084      -164.1958
  23   2.0000      -6.030855      -164.1079
  24   2.0000      -1.004673       -27.3385
  25   2.0000      -0.984172       -26.7807
  26   2.0000      -0.909497       -24.7487
  27   2.0000      -0.906619       -24.6704
  28   2.0000      -0.867965       -23.6185
  29   2.0000      -0.848735       -23.0953
  30   2.0000      -0.845446       -23.0057
  31   2.0000      -0.812037       -22.0966
  32   2.0000      -0.783589       -21.3225
  33   2.0000      -0.767271       -20.8785
  34   2.0000      -0.715820       -19.4785
  35   2.0000      -0.704845       -19.1798
  36   2.0000      -0.697138       -18.9701
  37   2.0000      -0.670542       -18.2464
  38   2.0000      -0.638335       -17.3700
  39   2.0000      -0.613770       -16.7015
  40   2.0000      -0.598164       -16.2769
  41   2.0000      -0.569949       -15.5091
  42   2.0000      -0.561008       -15.2658
  43   2.0000      -0.543849       -14.7989
  44   2.0000      -0.537529       -14.6269
  45   2.0000      -0.523624       -14.2485
  46   2.0000      -0.517121       -14.0716
  47   2.0000      -0.515034       -14.0148
  48   2.0000      -0.505542       -13.7565
  49   2.0000      -0.495029       -13.4704
  50   2.0000      -0.486253       -13.2316
  51   2.0000      -0.478008       -13.0073
  52   2.0000      -0.468402       -12.7459
  53   2.0000      -0.463427       -12.6105
  54   2.0000      -0.460405       -12.5283
  55   2.0000      -0.449522       -12.2321
  56   2.0000      -0.443741       -12.0748
  57   2.0000      -0.440822       -11.9954
  58   2.0000      -0.436864       -11.8877
  59   2.0000      -0.421892       -11.4803
  60   2.0000      -0.418830       -11.3969
  61   2.0000      -0.415165       -11.2972
  62   2.0000      -0.411487       -11.1971
  63   2.0000      -0.336950        -9.1689
  64   2.0000      -0.328491        -8.9387
  65   2.0000      -0.318942        -8.6789
  66   2.0000      -0.312735        -8.5099
  67   0.0000       0.039228         1.0674
  68   0.0000       0.043334         1.1792
  69   0.0000       0.103625         2.8198
  70   0.0000       0.115460         3.1418
  71   0.0000       0.133923         3.6442

MULLIKEN ATOMIC CHARGES
-----------------------
   0 S :    0.135625
   1 C :   -0.147363
   2 C :   -0.083101
   3 C :    0.071128
   4 C :   -0.188306
   5 H :   -0.019440
   6 C :    0.019024
   7 H :    0.040684
   8 H :    0.030432
   9 C :   -0.019897
  10 H :    0.015337
  11 H :    0.020751
  12 C :   -0.049539
  13 H :    0.042315
  14 H :    0.029997
  15 H :    0.021444
  16 S :    0.107855
  17 C :   -0.035015
  18 C :   -0.001633
  19 C :   -0.034096
  20 C :   -0.176745
  21 H :   -0.017526
  22 C :    0.016754
  23 H :    0.024544
  24 H :    0.021675
  25 C :    0.001120
  26 H :    0.005309
  27 H :    0.010298
  28 C :   -0.066573
  29 H :    0.033847
  30 H :    0.061962
  31 H :    0.024675
  32 H :    0.071242
  33 H :    0.033215
Sum of atomic charges:   -0.0000000

LOEWDIN ATOMIC CHARGES
----------------------
   0 S :    0.416763
   1 C :   -0.209033
   2 C :   -0.066534
   3 C :   -0.048163
   4 C :   -0.213711
   5 H :    0.016718
   6 C :   -0.033158
   7 H :    0.041800
   8 H :    0.025882
   9 C :   -0.029448
  10 H :    0.019184
  11 H :    0.022627
  12 C :   -0.067997
  13 H :    0.033999
  14 H :    0.020777
  15 H :    0.023221
  16 S :    0.393975
  17 C :   -0.164222
  18 C :   -0.066119
  19 C :   -0.046185
  20 C :   -0.196719
  21 H :    0.019271
  22 C :   -0.027667
  23 H :    0.030877
  24 H :    0.024276
  25 C :   -0.039061
  26 H :    0.014221
  27 H :    0.020001
  28 C :   -0.077453
  29 H :    0.031334
  30 H :    0.037030
  31 H :    0.029558
  32 H :    0.043061
  33 H :    0.020894

  Mayer bond orders larger than 0.100000
B(  0-S ,  1-C ) :   1.1436 B(  0-S ,  4-C ) :   1.1554 B(  1-C ,  2-C ) :   1.5912
B(  1-C ,  4-C ) :   0.1015 B(  1-C , 32-H ) :   0.9513 B(  2-C ,  3-C ) :   1.2631
B(  2-C ,  6-C ) :   1.0158 B(  3-C ,  4-C ) :   1.5496 B(  3-C ,  5-H ) :   1.0008
B(  4-C , 20-C ) :   1.0491 B(  6-C ,  7-H ) :   0.9483 B(  6-C ,  8-H ) :   0.9439
B(  6-C ,  9-C ) :   1.0606 B(  9-C , 10-H ) :   0.9552 B(  9-C , 11-H ) :   0.9591
B(  9-C , 12-C ) :   1.0702 B( 12-C , 13-H ) :   0.9734 B( 12-C , 14-H ) :   0.9716
B( 12-C , 15-H ) :   0.9752 B( 16-S , 17-C ) :   1.1669 B( 16-S , 20-C ) :   1.1134
B( 17-C , 18-C ) :   1.5900 B( 17-C , 33-H ) :   0.9652 B( 18-C , 19-C ) :   1.2748
B( 18-C , 21-H ) :   0.9985 B( 19-C , 20-C ) :   1.6009 B( 19-C , 22-C ) :   1.0420
B( 22-C , 23-H ) :   0.9363 B( 22-C , 24-H ) :   0.9325 B( 22-C , 25-C ) :   1.0642
B( 25-C , 26-H ) :   0.9505 B( 25-C , 27-H ) :   0.9491 B( 25-C , 28-C ) :   1.0717
B( 28-C , 29-H ) :   0.9708 B( 28-C , 30-H ) :   0.9718 B( 28-C , 31-H ) :   0.9696

Dispersion correction           -0.014357435
FINAL SINGLE POINT ENERGY     -1339.858389413098

DIPOLE MOMENT
-------------
                                X             Y             Z
Electronic contribution:    -16.79309      -1.74480      -9.45040
Nuclear contribution   :     17.05788       1.84224       9.77547
                        -----------------------------------------
Total Dipole Moment    :      0.26478       0.09744       0.32506
                        -----------------------------------------
Magnitude (a.u.)       :      0.43043
Magnitude (Debye)      :      1.09407

Rotational constants in cm-1:     0.019950     0.008039     0.006691
Rotational constants in MHz :   598.086532   241.016074   200.583732

                             ****ORCA TERMINATED NORMALLY****
TOTAL RUN TIME: 0 days 0 hours 0 minutes 33 seconds 817 msec
