                         Program Version 4.2.1 -  RELEASE  -
|  1> ! wB97X-D3 SP def2-SVP
|  2> %pal
|  3> nprocs 16
|  4> end
|  5>
|  6> * xyz 0 1
|  7> S 	 -74.7608 	 36.5611 	 121.603
|  8> C 	 -73.7959 	 35.2506 	 121.078
|  9> C 	 -72.3835 	 35.6107 	 120.938
| 10> C 	 -72.2056 	 37.0104 	 121.226
| 11> C 	 -73.4192 	 37.6528 	 121.487
| 12> H 	 -71.2172 	 37.4438 	 121.26
| 13> C 	 -71.3268 	 34.648 	 120.549
| 14> H 	 -70.5844 	 35.0178 	 119.803
| 15> H 	 -71.7937 	 33.8621 	 119.96
| 16> C 	 -70.4752 	 34.1428 	 121.707
| 17> H 	 -69.7162 	 33.5485 	 121.311
| 18> H 	 -70.0685 	 34.9968 	 122.31
| 19> C 	 -71.3349 	 33.2719 	 122.631
| 20> H 	 -72.3954 	 33.4958 	 122.662
| 21> H 	 -71.3345 	 32.2101 	 122.366
| 22> H 	 -70.9524 	 33.3578 	 123.679
| 23> S 	 -73.8526 	 39.6959 	 123.321
| 24> C 	 -73.9994 	 41.3094 	 122.671
| 25> C 	 -73.8758 	 41.3479 	 121.309
| 26> C 	 -73.6371 	 40.0747 	 120.72
| 27> C 	 -73.5948 	 39.086 	 121.655
| 28> H 	 -73.9941 	 42.2901 	 120.783
| 29> C 	 -73.3161 	 39.9163 	 119.224
| 30> H 	 -74.1267 	 39.348 	 118.846
| 31> H 	 -72.415 	 39.2304 	 119.129
| 32> C 	 -73.1807 	 41.2162 	 118.394
| 33> H 	 -72.1728 	 41.5793 	 118.581
| 34> H 	 -73.89 	 42.0131 	 118.796
| 35> C 	 -73.2622 	 40.7569 	 116.895
| 36> H 	 -74.2334 	 40.2814 	 116.656
| 37> H 	 -72.3169 	 40.2044 	 116.716
| 38> H 	 -73.2361 	 41.6347 	 116.267
| 39> H 	 -74.1095 	 34.248 	 120.807
| 40> H 	 -74.1069 	 42.2106 	 123.193
| 41> *
| 42>
| 43>                          ****END OF INPUT****

CARTESIAN COORDINATES (ANGSTROEM)
---------------------------------
  S    -74.760800   36.561100  121.603000
  C    -73.795900   35.250600  121.078000
  C    -72.383500   35.610700  120.938000
  C    -72.205600   37.010400  121.226000
  C    -73.419200   37.652800  121.487000
  H    -71.217200   37.443800  121.260000
  C    -71.326800   34.648000  120.549000
  H    -70.584400   35.017800  119.803000
  H    -71.793700   33.862100  119.960000
  C    -70.475200   34.142800  121.707000
  H    -69.716200   33.548500  121.311000
  H    -70.068500   34.996800  122.310000
  C    -71.334900   33.271900  122.631000
  H    -72.395400   33.495800  122.662000
  H    -71.334500   32.210100  122.366000
  H    -70.952400   33.357800  123.679000
  S    -73.852600   39.695900  123.321000
  C    -73.999400   41.309400  122.671000
  C    -73.875800   41.347900  121.309000
  C    -73.637100   40.074700  120.720000
  C    -73.594800   39.086000  121.655000
  H    -73.994100   42.290100  120.783000
  C    -73.316100   39.916300  119.224000
  H    -74.126700   39.348000  118.846000
  H    -72.415000   39.230400  119.129000
  C    -73.180700   41.216200  118.394000
  H    -72.172800   41.579300  118.581000
  H    -73.890000   42.013100  118.796000
  C    -73.262200   40.756900  116.895000
  H    -74.233400   40.281400  116.656000
  H    -72.316900   40.204400  116.716000
  H    -73.236100   41.634700  116.267000
  H    -74.109500   34.248000  120.807000
  H    -74.106900   42.210600  123.193000

 Total Charge           Charge          ....    0
 Multiplicity           Mult            ....    1
 Number of Electrons    NEL             ....  134
 Basis Dimension        Dim             ....  322

ORBITAL ENERGIES
----------------

  NO   OCC          E(Eh)            E(eV)
   0   2.0000     -88.972509     -2421.0650
   1   2.0000     -88.962748     -2420.7994
   2   2.0000     -10.325735      -280.9775
   3   2.0000     -10.318968      -280.7934
   4   2.0000     -10.316679      -280.7311
   5   2.0000     -10.309253      -280.5290
   6   2.0000     -10.304627      -280.4031
   7   2.0000     -10.298434      -280.2346
   8   2.0000     -10.296742      -280.1886
   9   2.0000     -10.295157      -280.1455
  10   2.0000     -10.290480      -280.0182
  11   2.0000     -10.290409      -280.0163
  12   2.0000     -10.287113      -279.9266
  13   2.0000     -10.285903      -279.8936
  14   2.0000     -10.284413      -279.8531
  15   2.0000     -10.271144      -279.4920
  16   2.0000      -8.087507      -220.0722
  17   2.0000      -8.077017      -219.7868
  18   2.0000      -6.045813      -164.5149
  19   2.0000      -6.041860      -164.4074
  20   2.0000      -6.038590      -164.3184
  21   2.0000      -6.035571      -164.2362
  22   2.0000      -6.031701      -164.1309
  23   2.0000      -6.027664      -164.0211
  24   2.0000      -1.003590       -27.3091
  25   2.0000      -0.980849       -26.6903
  26   2.0000      -0.915941       -24.9240
  27   2.0000      -0.904392       -24.6098
  28   2.0000      -0.864619       -23.5275
  29   2.0000      -0.849052       -23.1039
  30   2.0000      -0.845234       -23.0000
  31   2.0000      -0.808866       -22.0104
  32   2.0000      -0.779328       -21.2066
  33   2.0000      -0.767472       -20.8840
  34   2.0000      -0.708106       -19.2686
  35   2.0000      -0.702624       -19.1194
  36   2.0000      -0.690326       -18.7847
  37   2.0000      -0.650260       -17.6945
  38   2.0000      -0.638692       -17.3797
  39   2.0000      -0.621362       -16.9081
  40   2.0000      -0.596351       -16.2275
  41   2.0000      -0.570447       -15.5227
  42   2.0000      -0.566155       -15.4059
  43   2.0000      -0.546803       -14.8793
  44   2.0000      -0.539415       -14.6782
  45   2.0000      -0.521679       -14.1956
  46   2.0000      -0.517180       -14.0732
  47   2.0000      -0.513375       -13.9696
  48   2.0000      -0.500573       -13.6213
  49   2.0000      -0.494764       -13.4632
  50   2.0000      -0.484128       -13.1738
  51   2.0000      -0.474968       -12.9245
  52   2.0000      -0.464496       -12.6396
  53   2.0000      -0.461492       -12.5578
  54   2.0000      -0.455229       -12.3874
  55   2.0000      -0.452238       -12.3060
  56   2.0000      -0.450346       -12.2545
  57   2.0000      -0.431980       -11.7548
  58   2.0000      -0.429785       -11.6950
  59   2.0000      -0.426596       -11.6083
  60   2.0000      -0.424818       -11.5599
  61   2.0000      -0.413916       -11.2632
  62   2.0000      -0.413266       -11.2455
  63   2.0000      -0.336845        -9.1660
  64   2.0000      -0.329629        -8.9697
  65   2.0000      -0.320846        -8.7307
  66   2.0000      -0.297174        -8.0865
  67   0.0000       0.042790         1.1644
  68   0.0000       0.053685         1.4609
  69   0.0000       0.115458         3.1418
  70   0.0000       0.121052         3.2940
  71   0.0000       0.128056         3.4846

MULLIKEN ATOMIC CHARGES
-----------------------
   0 S :    0.155814
   1 C :   -0.110505
   2 C :   -0.121678
   3 C :    0.067576
   4 C :   -0.188829
   5 H :    0.015428
   6 C :    0.025635
   7 H :    0.028324
   8 H :    0.017849
   9 C :   -0.025129
  10 H :    0.021339
  11 H :    0.041185
  12 C :   -0.079670
  13 H :    0.029545
  14 H :    0.024509
  15 H :    0.035331
  16 S :    0.106252
  17 C :   -0.046346
  18 C :   -0.073465
  19 C :    0.006381
  20 C :   -0.209135
  21 H :    0.014128
  22 C :    0.077663
  23 H :    0.020885
  24 H :    0.041746
  25 C :   -0.115619
  26 H :    0.032756
  27 H :    0.053127
  28 C :   -0.041869
  29 H :    0.048555
  30 H :    0.047819
  31 H :    0.025639
  32 H :    0.047089
  33 H :    0.027671
Sum of atomic charges:    0.0000000

LOEWDIN ATOMIC CHARGES
----------------------
   0 S :    0.449235
   1 C :   -0.222051
   2 C :   -0.056813
   3 C :   -0.052311
   4 C :   -0.211249
   5 H :    0.033073
   6 C :   -0.044498
   7 H :    0.033847
   8 H :    0.030031
   9 C :   -0.032450
  10 H :    0.018085
  11 H :    0.031818
  12 C :   -0.075419
  13 H :    0.021529
  14 H :    0.023199
  15 H :    0.029974
  16 S :    0.384907
  17 C :   -0.174313
  18 C :   -0.079462
  19 C :   -0.049635
  20 C :   -0.198500
  21 H :    0.029716
  22 C :   -0.033255
  23 H :    0.026970
  24 H :    0.040320
  25 C :   -0.046159
  26 H :    0.024406
  27 H :    0.029069
  28 C :   -0.062824
  29 H :    0.030842
  30 H :    0.035734
  31 H :    0.021626
  32 H :    0.024994
  33 H :    0.019564

  Mayer bond orders larger than 0.100000
B(  0-S ,  1-C ) :   1.1692 B(  0-S ,  4-C ) :   1.1777 B(  1-C ,  2-C ) :   1.5468
B(  1-C ,  4-C ) :   0.1046 B(  1-C , 32-H ) :   0.9623 B(  2-C ,  3-C ) :   1.2835
B(  2-C ,  6-C ) :   1.0449 B(  3-C ,  4-C ) :   1.5364 B(  3-C ,  5-H ) :   0.9934
B(  4-C , 20-C ) :   1.0203 B(  6-C ,  7-H ) :   0.9401 B(  6-C ,  8-H ) :   0.9388
B(  6-C ,  9-C ) :   1.0694 B(  9-C , 10-H ) :   0.9551 B(  9-C , 11-H ) :   0.9616
B(  9-C , 12-C ) :   1.0619 B( 12-C , 13-H ) :   0.9783 B( 12-C , 14-H ) :   0.9758
B( 12-C , 15-H ) :   0.9764 B( 16-S , 17-C ) :   1.1462 B( 16-S , 20-C ) :   1.1265
B( 17-C , 18-C ) :   1.6461 B( 17-C , 33-H ) :   0.9630 B( 18-C , 19-C ) :   1.2270
B( 18-C , 21-H ) :   0.9806 B( 19-C , 20-C ) :   1.6516 B( 19-C , 22-C ) :   1.0107
B( 22-C , 23-H ) :   0.9250 B( 22-C , 24-H ) :   0.9362 B( 22-C , 25-C ) :   1.0622
B( 25-C , 26-H ) :   0.9553 B( 25-C , 27-H ) :   0.9519 B( 25-C , 28-C ) :   1.0727
B( 28-C , 29-H ) :   0.9782 B( 28-C , 30-H ) :   0.9722 B( 28-C , 31-H ) :   0.9740

Dispersion correction           -0.014088402
FINAL SINGLE POINT ENERGY     -1339.872072680389

DIPOLE MOMENT
-------------
                                X             Y             Z
Electronic contribution:    -13.41936       6.14332      15.93395
Nuclear contribution   :     13.80393      -6.10857     -16.49426
                        -----------------------------------------
Total Dipole Moment    :      0.38457       0.03475      -0.56031
                        -----------------------------------------
Magnitude (a.u.)       :      0.68047
Magnitude (Debye)      :      1.72963

Rotational constants in cm-1:     0.019542     0.007915     0.006528
Rotational constants in MHz :   585.853799   237.284521   195.706084

                             ****ORCA TERMINATED NORMALLY****
TOTAL RUN TIME: 0 days 0 hours 0 minutes 33 seconds 359 msec
