                         Program Version 4.2.1 -  RELEASE  -
|  1> ! wB97X-D3 SP def2-SVP
|  2> %pal
|  3> nprocs 16
|  4> end
|  5>
|  6> * xyz 0 1
|  7> S 	 -38.3261 	 54.7 	 108.236
|  8> C 	 -38.4703 	 55.2211 	 109.874
|  9> C 	 -37.601 	 54.5218 	 110.673
| 10> C 	 -37.1165 	 53.3547 	 109.966
| 11> C 	 -37.4673 	 53.2732 	 108.632
| 12> H 	 -36.6226 	 52.4366 	 110.375
| 13> C 	 -37.3525 	 54.8208 	 112.161
| 14> H 	 -38.0121 	 55.6242 	 112.498
| 15> H 	 -36.3709 	 55.2257 	 112.228
| 16> C 	 -37.4639 	 53.6323 	 113.17
| 17> H 	 -36.6573 	 52.8587 	 112.982
| 18> H 	 -37.0893 	 54.0856 	 114.106
| 19> C 	 -38.9341 	 53.0268 	 113.244
| 20> H 	 -39.3375 	 52.5321 	 112.316
| 21> H 	 -39.1486 	 52.264 	 114.049
| 22> H 	 -39.6153 	 53.8731 	 113.511
| 23> S 	 -35.889 	 52.6173 	 106.522
| 24> C 	 -36.0861 	 51.0922 	 105.749
| 25> C 	 -36.9503 	 50.2231 	 106.415
| 26> C 	 -37.6302 	 50.9603 	 107.463
| 27> C 	 -37.2715 	 52.293 	 107.569
| 28> H 	 -36.9468 	 49.1376 	 106.189
| 29> C 	 -38.6279 	 50.2837 	 108.45
| 30> H 	 -38.6083 	 50.702 	 109.427
| 31> H 	 -38.1903 	 49.231 	 108.558
| 32> C 	 -40.0887 	 50.2648 	 108.083
| 33> H 	 -40.6535 	 49.3646 	 108.389
| 34> H 	 -40.2209 	 50.3249 	 107.006
| 35> C 	 -40.8853 	 51.4063 	 108.639
| 36> H 	 -41.87 	 51.3056 	 108.132
| 37> H 	 -40.518 	 52.3712 	 108.404
| 38> H 	 -41.0797 	 51.3339 	 109.729
| 39> H 	 -38.8925 	 56.1509 	 110.076
| 40> H 	 -35.396 	 50.7952 	 105.055
| 41> *
| 42>
| 43>                          ****END OF INPUT****

CARTESIAN COORDINATES (ANGSTROEM)
---------------------------------
  S    -38.326100   54.700000  108.236000
  C    -38.470300   55.221100  109.874000
  C    -37.601000   54.521800  110.673000
  C    -37.116500   53.354700  109.966000
  C    -37.467300   53.273200  108.632000
  H    -36.622600   52.436600  110.375000
  C    -37.352500   54.820800  112.161000
  H    -38.012100   55.624200  112.498000
  H    -36.370900   55.225700  112.228000
  C    -37.463900   53.632300  113.170000
  H    -36.657300   52.858700  112.982000
  H    -37.089300   54.085600  114.106000
  C    -38.934100   53.026800  113.244000
  H    -39.337500   52.532100  112.316000
  H    -39.148600   52.264000  114.049000
  H    -39.615300   53.873100  113.511000
  S    -35.889000   52.617300  106.522000
  C    -36.086100   51.092200  105.749000
  C    -36.950300   50.223100  106.415000
  C    -37.630200   50.960300  107.463000
  C    -37.271500   52.293000  107.569000
  H    -36.946800   49.137600  106.189000
  C    -38.627900   50.283700  108.450000
  H    -38.608300   50.702000  109.427000
  H    -38.190300   49.231000  108.558000
  C    -40.088700   50.264800  108.083000
  H    -40.653500   49.364600  108.389000
  H    -40.220900   50.324900  107.006000
  C    -40.885300   51.406300  108.639000
  H    -41.870000   51.305600  108.132000
  H    -40.518000   52.371200  108.404000
  H    -41.079700   51.333900  109.729000
  H    -38.892500   56.150900  110.076000
  H    -35.396000   50.795200  105.055000

 Total Charge           Charge          ....    0
 Multiplicity           Mult            ....    1
 Number of Electrons    NEL             ....  134
 Basis Dimension        Dim             ....  322

ORBITAL ENERGIES
----------------

  NO   OCC          E(Eh)            E(eV)
   0   2.0000     -88.964699     -2420.8525
   1   2.0000     -88.958099     -2420.6729
   2   2.0000     -10.325554      -280.9726
   3   2.0000     -10.325302      -280.9657
   4   2.0000     -10.313655      -280.6488
   5   2.0000     -10.311878      -280.6005
   6   2.0000     -10.307119      -280.4710
   7   2.0000     -10.305759      -280.4340
   8   2.0000     -10.303506      -280.3727
   9   2.0000     -10.303388      -280.3694
  10   2.0000     -10.299243      -280.2567
  11   2.0000     -10.296272      -280.1758
  12   2.0000     -10.293464      -280.0994
  13   2.0000     -10.291272      -280.0397
  14   2.0000     -10.277422      -279.6629
  15   2.0000     -10.266580      -279.3678
  16   2.0000      -8.080075      -219.8700
  17   2.0000      -8.074198      -219.7101
  18   2.0000      -6.038380      -164.3127
  19   2.0000      -6.034657      -164.2114
  20   2.0000      -6.032497      -164.1526
  21   2.0000      -6.030835      -164.1074
  22   2.0000      -6.028376      -164.0405
  23   2.0000      -6.025204      -163.9541
  24   2.0000      -1.010964       -27.5097
  25   2.0000      -0.987807       -26.8796
  26   2.0000      -0.908815       -24.7301
  27   2.0000      -0.904757       -24.6197
  28   2.0000      -0.869123       -23.6500
  29   2.0000      -0.849584       -23.1184
  30   2.0000      -0.836009       -22.7490
  31   2.0000      -0.815149       -22.1813
  32   2.0000      -0.783243       -21.3131
  33   2.0000      -0.773408       -21.0455
  34   2.0000      -0.709211       -19.2986
  35   2.0000      -0.692339       -18.8395
  36   2.0000      -0.689031       -18.7495
  37   2.0000      -0.661062       -17.9884
  38   2.0000      -0.648668       -17.6512
  39   2.0000      -0.616263       -16.7694
  40   2.0000      -0.600385       -16.3373
  41   2.0000      -0.566817       -15.4239
  42   2.0000      -0.555290       -15.1102
  43   2.0000      -0.551915       -15.0184
  44   2.0000      -0.534546       -14.5457
  45   2.0000      -0.523743       -14.2518
  46   2.0000      -0.516425       -14.0527
  47   2.0000      -0.507789       -13.8177
  48   2.0000      -0.505263       -13.7489
  49   2.0000      -0.496574       -13.5125
  50   2.0000      -0.486622       -13.2417
  51   2.0000      -0.478336       -13.0162
  52   2.0000      -0.469051       -12.7635
  53   2.0000      -0.465433       -12.6651
  54   2.0000      -0.461812       -12.5666
  55   2.0000      -0.446749       -12.1567
  56   2.0000      -0.441479       -12.0132
  57   2.0000      -0.431590       -11.7442
  58   2.0000      -0.428908       -11.6712
  59   2.0000      -0.424247       -11.5444
  60   2.0000      -0.420920       -11.4538
  61   2.0000      -0.412092       -11.2136
  62   2.0000      -0.404049       -10.9947
  63   2.0000      -0.335340        -9.1251
  64   2.0000      -0.330631        -8.9969
  65   2.0000      -0.324981        -8.8432
  66   2.0000      -0.308882        -8.4051
  67   0.0000       0.042453         1.1552
  68   0.0000       0.054989         1.4963
  69   0.0000       0.101949         2.7742
  70   0.0000       0.117703         3.2029
  71   0.0000       0.131881         3.5887

MULLIKEN ATOMIC CHARGES
-----------------------
   0 S :    0.099968
   1 C :   -0.092377
   2 C :   -0.095263
   3 C :    0.034190
   4 C :   -0.200678
   5 H :    0.028475
   6 C :    0.075879
   7 H :    0.019586
   8 H :    0.031905
   9 C :   -0.083982
  10 H :    0.039778
  11 H :    0.032978
  12 C :   -0.095489
  13 H :    0.058272
  14 H :    0.043851
  15 H :    0.035227
  16 S :    0.108135
  17 C :   -0.053484
  18 C :   -0.049313
  19 C :   -0.051625
  20 C :   -0.128195
  21 H :    0.043761
  22 C :    0.076665
  23 H :    0.010830
  24 H :    0.030111
  25 C :   -0.056116
  26 H :    0.027633
  27 H :    0.024236
  28 C :   -0.061399
  29 H :    0.026748
  30 H :    0.024866
  31 H :    0.034351
  32 H :    0.031206
  33 H :    0.029268
Sum of atomic charges:    0.0000000

LOEWDIN ATOMIC CHARGES
----------------------
   0 S :    0.430493
   1 C :   -0.190555
   2 C :   -0.062837
   3 C :   -0.070769
   4 C :   -0.214522
   5 H :    0.037805
   6 C :   -0.028398
   7 H :    0.029927
   8 H :    0.031321
   9 C :   -0.045448
  10 H :    0.026771
  11 H :    0.029033
  12 C :   -0.083712
  13 H :    0.033857
  14 H :    0.030989
  15 H :    0.029273
  16 S :    0.419232
  17 C :   -0.171202
  18 C :   -0.074906
  19 C :   -0.043428
  20 C :   -0.212897
  21 H :    0.043058
  22 C :   -0.033429
  23 H :    0.022985
  24 H :    0.038201
  25 C :   -0.048849
  26 H :    0.028795
  27 H :    0.024431
  28 C :   -0.064264
  29 H :    0.031145
  30 H :    0.012635
  31 H :    0.023408
  32 H :    0.013900
  33 H :    0.007959

  Mayer bond orders larger than 0.100000
B(  0-S ,  1-C ) :   1.1574 B(  0-S ,  4-C ) :   1.1699 B(  1-C ,  2-C ) :   1.6065
B(  1-C ,  4-C ) :   0.1033 B(  1-C , 32-H ) :   0.9761 B(  2-C ,  3-C ) :   1.2128
B(  2-C ,  6-C ) :   1.0172 B(  3-C ,  4-C ) :   1.6111 B(  3-C ,  5-H ) :   0.9871
B(  4-C , 20-C ) :   0.9773 B(  6-C ,  7-H ) :   0.9468 B(  6-C ,  8-H ) :   0.9303
B(  6-C ,  9-C ) :   1.0794 B(  9-C , 10-H ) :   0.9545 B(  9-C , 11-H ) :   0.9557
B(  9-C , 12-C ) :   1.0463 B( 12-C , 13-H ) :   0.9765 B( 12-C , 14-H ) :   0.9782
B( 12-C , 15-H ) :   0.9758 B( 16-S , 17-C ) :   1.1859 B( 16-S , 20-C ) :   1.1441
B( 17-C , 18-C ) :   1.5936 B( 17-C , 33-H ) :   0.9752 B( 18-C , 19-C ) :   1.2373
B( 18-C , 21-H ) :   0.9893 B( 19-C , 20-C ) :   1.6158 B( 19-C , 22-C ) :   1.0398
B( 22-C , 23-H ) :   0.9388 B( 22-C , 24-H ) :   0.9364 B( 22-C , 25-C ) :   1.0560
B( 25-C , 26-H ) :   0.9518 B( 25-C , 27-H ) :   0.9573 B( 25-C , 28-C ) :   1.0960
B( 28-C , 29-H ) :   0.9706 B( 28-C , 30-H ) :   0.9723 B( 28-C , 31-H ) :   0.9723

Dispersion correction           -0.015512208
FINAL SINGLE POINT ENERGY     -1339.867000969730

DIPOLE MOMENT
-------------
                                X             Y             Z
Electronic contribution:     13.81616       8.90280     -21.52576
Nuclear contribution   :    -13.71593      -9.24031      22.08442
                        -----------------------------------------
Total Dipole Moment    :      0.10023      -0.33751       0.55866
                        -----------------------------------------
Magnitude (a.u.)       :      0.66035
Magnitude (Debye)      :      1.67848

Rotational constants in cm-1:     0.019161     0.009323     0.007890
Rotational constants in MHz :   574.440717   279.511177   236.544505

                             ****ORCA TERMINATED NORMALLY****
TOTAL RUN TIME: 0 days 0 hours 0 minutes 32 seconds 347 msec
