                         Program Version 4.2.1 -  RELEASE  -
|  1> ! wB97X-D3 SP def2-SVP
|  2> %pal
|  3> nprocs 16
|  4> end
|  5>
|  6> * xyz 0 1
|  7> S 	 33.9244 	 10.1745 	 86.038
|  8> C 	 34.167 	 10.2561 	 84.2831
|  9> C 	 34.9174 	 9.14771 	 83.8414
| 10> C 	 35.2664 	 8.2733 	 84.8946
| 11> C 	 34.9873 	 8.74643 	 86.1791
| 12> H 	 35.7596 	 7.27931 	 84.79
| 13> C 	 35.2979 	 8.97784 	 82.3875
| 14> H 	 34.5337 	 9.58836 	 81.8916
| 15> H 	 35.0631 	 7.95717 	 82.083
| 16> C 	 36.8135 	 9.38702 	 82.0741
| 17> H 	 37.4082 	 9.1039 	 82.9696
| 18> H 	 37.1863 	 9.02069 	 81.1358
| 19> C 	 36.8332 	 10.9445 	 81.9664
| 20> H 	 37.8346 	 11.3048 	 81.7905
| 21> H 	 36.2524 	 11.3608 	 81.1199
| 22> H 	 36.4731 	 11.4755 	 82.8134
| 23> S 	 33.8021 	 7.83541 	 88.454
| 24> C 	 34.8043 	 7.52496 	 89.904
| 25> C 	 36.1389 	 7.32249 	 89.475
| 26> C 	 36.3467 	 7.7958 	 88.1167
| 27> C 	 35.2131 	 8.12332 	 87.4208
| 28> H 	 36.9561 	 6.96569 	 90.1438
| 29> C 	 37.7814 	 7.82059 	 87.5452
| 30> H 	 37.7849 	 7.64835 	 86.522
| 31> H 	 38.407 	 7.03026 	 87.8619
| 32> C 	 38.4534 	 9.20415 	 87.7571
| 33> H 	 38.5705 	 9.41774 	 88.7872
| 34> H 	 37.6651 	 9.8717 	 87.4119
| 35> C 	 39.7509 	 9.30632 	 86.858
| 36> H 	 40.5644 	 8.69732 	 87.0416
| 37> H 	 40.1401 	 10.3325 	 86.9713
| 38> H 	 39.5473 	 9.23837 	 85.7919
| 39> H 	 33.7075 	 11.0094 	 83.6041
| 40> H 	 34.3949 	 7.20353 	 90.8162
| 41> *
| 42>
| 43>                          ****END OF INPUT****

CARTESIAN COORDINATES (ANGSTROEM)
---------------------------------
  S     33.924400   10.174500   86.038000
  C     34.167000   10.256100   84.283100
  C     34.917400    9.147710   83.841400
  C     35.266400    8.273300   84.894600
  C     34.987300    8.746430   86.179100
  H     35.759600    7.279310   84.790000
  C     35.297900    8.977840   82.387500
  H     34.533700    9.588360   81.891600
  H     35.063100    7.957170   82.083000
  C     36.813500    9.387020   82.074100
  H     37.408200    9.103900   82.969600
  H     37.186300    9.020690   81.135800
  C     36.833200   10.944500   81.966400
  H     37.834600   11.304800   81.790500
  H     36.252400   11.360800   81.119900
  H     36.473100   11.475500   82.813400
  S     33.802100    7.835410   88.454000
  C     34.804300    7.524960   89.904000
  C     36.138900    7.322490   89.475000
  C     36.346700    7.795800   88.116700
  C     35.213100    8.123320   87.420800
  H     36.956100    6.965690   90.143800
  C     37.781400    7.820590   87.545200
  H     37.784900    7.648350   86.522000
  H     38.407000    7.030260   87.861900
  C     38.453400    9.204150   87.757100
  H     38.570500    9.417740   88.787200
  H     37.665100    9.871700   87.411900
  C     39.750900    9.306320   86.858000
  H     40.564400    8.697320   87.041600
  H     40.140100   10.332500   86.971300
  H     39.547300    9.238370   85.791900
  H     33.707500   11.009400   83.604100
  H     34.394900    7.203530   90.816200

 Total Charge           Charge          ....    0
 Multiplicity           Mult            ....    1
 Number of Electrons    NEL             ....  134
 Basis Dimension        Dim             ....  322

ORBITAL ENERGIES
----------------

  NO   OCC          E(Eh)            E(eV)
   0   2.0000     -88.968542     -2420.9571
   1   2.0000     -88.962914     -2420.8040
   2   2.0000     -10.331810      -281.1428
   3   2.0000     -10.325199      -280.9629
   4   2.0000     -10.324108      -280.9332
   5   2.0000     -10.323722      -280.9228
   6   2.0000     -10.306826      -280.4630
   7   2.0000     -10.306073      -280.4425
   8   2.0000     -10.304269      -280.3934
   9   2.0000     -10.300754      -280.2978
  10   2.0000     -10.298592      -280.2389
  11   2.0000     -10.296381      -280.1788
  12   2.0000     -10.284526      -279.8562
  13   2.0000     -10.280495      -279.7465
  14   2.0000     -10.275411      -279.6081
  15   2.0000     -10.273672      -279.5608
  16   2.0000      -8.082099      -219.9251
  17   2.0000      -8.076979      -219.7858
  18   2.0000      -6.040618      -164.3736
  19   2.0000      -6.036737      -164.2680
  20   2.0000      -6.035680      -164.2392
  21   2.0000      -6.032910      -164.1638
  22   2.0000      -6.031604      -164.1283
  23   2.0000      -6.027526      -164.0173
  24   2.0000      -1.003613       -27.3097
  25   2.0000      -0.976741       -26.5785
  26   2.0000      -0.906294       -24.6615
  27   2.0000      -0.902456       -24.5571
  28   2.0000      -0.868851       -23.6426
  29   2.0000      -0.846059       -23.0224
  30   2.0000      -0.838712       -22.8225
  31   2.0000      -0.812293       -22.1036
  32   2.0000      -0.780872       -21.2486
  33   2.0000      -0.769883       -20.9496
  34   2.0000      -0.715828       -19.4787
  35   2.0000      -0.705632       -19.2012
  36   2.0000      -0.697640       -18.9838
  37   2.0000      -0.665998       -18.1227
  38   2.0000      -0.639776       -17.4092
  39   2.0000      -0.615446       -16.7471
  40   2.0000      -0.595957       -16.2168
  41   2.0000      -0.569694       -15.5022
  42   2.0000      -0.561118       -15.2688
  43   2.0000      -0.546858       -14.8808
  44   2.0000      -0.535360       -14.5679
  45   2.0000      -0.521609       -14.1937
  46   2.0000      -0.514919       -14.0117
  47   2.0000      -0.511235       -13.9114
  48   2.0000      -0.504534       -13.7291
  49   2.0000      -0.498815       -13.5734
  50   2.0000      -0.483141       -13.1469
  51   2.0000      -0.478556       -13.0222
  52   2.0000      -0.472234       -12.8501
  53   2.0000      -0.464352       -12.6357
  54   2.0000      -0.456891       -12.4326
  55   2.0000      -0.448894       -12.2150
  56   2.0000      -0.443429       -12.0663
  57   2.0000      -0.435595       -11.8531
  58   2.0000      -0.433941       -11.8081
  59   2.0000      -0.425622       -11.5818
  60   2.0000      -0.423643       -11.5279
  61   2.0000      -0.416834       -11.3426
  62   2.0000      -0.411181       -11.1888
  63   2.0000      -0.343985        -9.3603
  64   2.0000      -0.332136        -9.0379
  65   2.0000      -0.325518        -8.8578
  66   2.0000      -0.293539        -7.9876
  67   0.0000       0.019451         0.5293
  68   0.0000       0.059663         1.6235
  69   0.0000       0.099208         2.6996
  70   0.0000       0.121033         3.2935
  71   0.0000       0.125673         3.4197

MULLIKEN ATOMIC CHARGES
-----------------------
   0 S :    0.114642
   1 C :   -0.134473
   2 C :   -0.119055
   3 C :    0.033044
   4 C :   -0.165098
   5 H :    0.035516
   6 C :    0.067713
   7 H :    0.016035
   8 H :    0.027948
   9 C :   -0.036577
  10 H :    0.049198
  11 H :    0.038543
  12 C :   -0.070523
  13 H :    0.023670
  14 H :    0.024615
  15 H :    0.029411
  16 S :    0.084751
  17 C :   -0.080142
  18 C :   -0.036874
  19 C :   -0.060394
  20 C :   -0.148610
  21 H :    0.043234
  22 C :    0.112628
  23 H :   -0.020108
  24 H :    0.007853
  25 C :   -0.061207
  26 H :    0.022578
  27 H :    0.034965
  28 C :   -0.035411
  29 H :    0.021491
  30 H :    0.029215
  31 H :    0.029644
  32 H :    0.069611
  33 H :    0.052171
Sum of atomic charges:   -0.0000000

LOEWDIN ATOMIC CHARGES
----------------------
   0 S :    0.391821
   1 C :   -0.197465
   2 C :   -0.069318
   3 C :   -0.059426
   4 C :   -0.190869
   5 H :    0.040206
   6 C :   -0.031522
   7 H :    0.028987
   8 H :    0.028256
   9 C :   -0.026558
  10 H :    0.032120
  11 H :    0.023400
  12 C :   -0.069003
  13 H :    0.020948
  14 H :    0.025176
  15 H :    0.018795
  16 S :    0.378390
  17 C :   -0.163339
  18 C :   -0.067834
  19 C :   -0.049786
  20 C :   -0.198949
  21 H :    0.039471
  22 C :   -0.026080
  23 H :    0.015220
  24 H :    0.021806
  25 C :   -0.025085
  26 H :    0.016850
  27 H :    0.029813
  28 C :   -0.064621
  29 H :    0.013500
  30 H :    0.031077
  31 H :    0.027138
  32 H :    0.038052
  33 H :    0.018830

  Mayer bond orders larger than 0.100000
B(  0-S ,  1-C ) :   1.1446 B(  0-S ,  4-C ) :   1.1317 B(  1-C ,  2-C ) :   1.5844
B(  1-C ,  4-C ) :   0.1089 B(  1-C , 32-H ) :   0.9597 B(  2-C ,  3-C ) :   1.2593
B(  2-C ,  6-C ) :   1.0234 B(  3-C ,  4-C ) :   1.5567 B(  3-C ,  5-H ) :   0.9828
B(  4-C , 20-C ) :   1.0839 B(  6-C ,  7-H ) :   0.9443 B(  6-C ,  8-H ) :   0.9422
B(  6-C ,  9-C ) :   1.0374 B(  9-C , 10-H ) :   0.9610 B(  9-C , 11-H ) :   0.9603
B(  9-C , 12-C ) :   1.0680 B( 12-C , 13-H ) :   0.9744 B( 12-C , 14-H ) :   0.9767
B( 12-C , 15-H ) :   0.9780 B( 16-S , 17-C ) :   1.1484 B( 16-S , 20-C ) :   1.1168
B( 17-C , 18-C ) :   1.5941 B( 17-C , 20-C ) :   0.1001 B( 17-C , 33-H ) :   0.9732
B( 18-C , 19-C ) :   1.2380 B( 18-C , 21-H ) :   0.9797 B( 19-C , 20-C ) :   1.6150
B( 19-C , 22-C ) :   1.0432 B( 22-C , 23-H ) :   0.9326 B( 22-C , 24-H ) :   0.9366
B( 22-C , 25-C ) :   1.0479 B( 25-C , 26-H ) :   0.9630 B( 25-C , 27-H ) :   0.9579
B( 25-C , 28-C ) :   1.0691 B( 28-C , 29-H ) :   0.9794 B( 28-C , 30-H ) :   0.9740
B( 28-C , 31-H ) :   0.9750

Dispersion correction           -0.014760480
FINAL SINGLE POINT ENERGY     -1339.861602132907

DIPOLE MOMENT
-------------
                                X             Y             Z
Electronic contribution:    -24.16414      -4.90421      16.63695
Nuclear contribution   :     24.71951       4.71752     -16.97595
                        -----------------------------------------
Total Dipole Moment    :      0.55537      -0.18669      -0.33900
                        -----------------------------------------
Magnitude (a.u.)       :      0.67691
Magnitude (Debye)      :      1.72057

Rotational constants in cm-1:     0.018836     0.009391     0.007013
Rotational constants in MHz :   564.687687   281.530500   210.255270

                             ****ORCA TERMINATED NORMALLY****
TOTAL RUN TIME: 0 days 0 hours 0 minutes 32 seconds 259 msec
