                         Program Version 4.2.1 -  RELEASE  -
|  1> ! wB97X-D3 SP def2-SVP
|  2> %pal
|  3> nprocs 16
|  4> end
|  5>
|  6> * xyz 0 1
|  7> S 	 -37.027 	 65.4978 	 145.941
|  8> C 	 -36.061 	 65.3702 	 144.515
|  9> C 	 -34.7775 	 65.9169 	 144.716
| 10> C 	 -34.7048 	 66.5912 	 145.959
| 11> C 	 -35.8965 	 66.6558 	 146.636
| 12> H 	 -33.834 	 67.0572 	 146.307
| 13> C 	 -33.6111 	 65.7523 	 143.737
| 14> H 	 -33.8965 	 65.1403 	 142.897
| 15> H 	 -32.9244 	 65.0967 	 144.244
| 16> C 	 -32.8438 	 67.0013 	 143.241
| 17> H 	 -32.3449 	 67.5079 	 144.034
| 18> H 	 -31.971 	 66.6809 	 142.726
| 19> C 	 -33.7687 	 67.9585 	 142.416
| 20> H 	 -34.5164 	 68.3475 	 143.132
| 21> H 	 -33.2015 	 68.7595 	 142.005
| 22> H 	 -34.2735 	 67.4449 	 141.61
| 23> S 	 -36.575 	 65.8196 	 149.157
| 24> C 	 -36.2921 	 66.8727 	 150.491
| 25> C 	 -35.9215 	 68.1366 	 150.065
| 26> C 	 -35.7231 	 68.2212 	 148.675
| 27> C 	 -36.0734 	 67.0504 	 148.042
| 28> H 	 -35.6715 	 68.9567 	 150.814
| 29> C 	 -35.2494 	 69.4833 	 147.973
| 30> H 	 -36.0648 	 70.2071 	 148.24
| 31> H 	 -35.3949 	 69.3824 	 146.936
| 32> C 	 -33.8747 	 70.0043 	 148.394
| 33> H 	 -33.0001 	 69.2672 	 148.251
| 34> H 	 -33.88 	 70.2653 	 149.453
| 35> C 	 -33.5213 	 71.3292 	 147.688
| 36> H 	 -32.4831 	 71.3448 	 147.402
| 37> H 	 -33.7171 	 72.1547 	 148.337
| 38> H 	 -34.0662 	 71.3907 	 146.786
| 39> H 	 -36.3089 	 64.7338 	 143.597
| 40> H 	 -36.3289 	 66.6236 	 151.527
| 41> *
| 42>
| 43>                          ****END OF INPUT****

CARTESIAN COORDINATES (ANGSTROEM)
---------------------------------
  S    -37.027000   65.497800  145.941000
  C    -36.061000   65.370200  144.515000
  C    -34.777500   65.916900  144.716000
  C    -34.704800   66.591200  145.959000
  C    -35.896500   66.655800  146.636000
  H    -33.834000   67.057200  146.307000
  C    -33.611100   65.752300  143.737000
  H    -33.896500   65.140300  142.897000
  H    -32.924400   65.096700  144.244000
  C    -32.843800   67.001300  143.241000
  H    -32.344900   67.507900  144.034000
  H    -31.971000   66.680900  142.726000
  C    -33.768700   67.958500  142.416000
  H    -34.516400   68.347500  143.132000
  H    -33.201500   68.759500  142.005000
  H    -34.273500   67.444900  141.610000
  S    -36.575000   65.819600  149.157000
  C    -36.292100   66.872700  150.491000
  C    -35.921500   68.136600  150.065000
  C    -35.723100   68.221200  148.675000
  C    -36.073400   67.050400  148.042000
  H    -35.671500   68.956700  150.814000
  C    -35.249400   69.483300  147.973000
  H    -36.064800   70.207100  148.240000
  H    -35.394900   69.382400  146.936000
  C    -33.874700   70.004300  148.394000
  H    -33.000100   69.267200  148.251000
  H    -33.880000   70.265300  149.453000
  C    -33.521300   71.329200  147.688000
  H    -32.483100   71.344800  147.402000
  H    -33.717100   72.154700  148.337000
  H    -34.066200   71.390700  146.786000
  H    -36.308900   64.733800  143.597000
  H    -36.328900   66.623600  151.527000

 Total Charge           Charge          ....    0
 Multiplicity           Mult            ....    1
 Number of Electrons    NEL             ....  134
 Basis Dimension        Dim             ....  322

ORBITAL ENERGIES
----------------

  NO   OCC          E(Eh)            E(eV)
   0   2.0000     -88.965932     -2420.8861
   1   2.0000     -88.965387     -2420.8713
   2   2.0000     -10.327547      -281.0268
   3   2.0000     -10.320547      -280.8364
   4   2.0000     -10.318611      -280.7837
   5   2.0000     -10.311323      -280.5854
   6   2.0000     -10.302682      -280.3502
   7   2.0000     -10.296238      -280.1749
   8   2.0000     -10.293730      -280.1066
   9   2.0000     -10.292842      -280.0825
  10   2.0000     -10.291727      -280.0521
  11   2.0000     -10.290736      -280.0252
  12   2.0000     -10.289628      -279.9950
  13   2.0000     -10.284522      -279.8561
  14   2.0000     -10.276037      -279.6252
  15   2.0000     -10.269822      -279.4561
  16   2.0000      -8.080876      -219.8918
  17   2.0000      -8.080776      -219.8891
  18   2.0000      -6.039320      -164.3382
  19   2.0000      -6.039267      -164.3368
  20   2.0000      -6.035503      -164.2344
  21   2.0000      -6.035195      -164.2260
  22   2.0000      -6.031553      -164.1269
  23   2.0000      -6.031505      -164.1256
  24   2.0000      -1.011152       -27.5149
  25   2.0000      -0.987128       -26.8611
  26   2.0000      -0.909959       -24.7612
  27   2.0000      -0.906921       -24.6786
  28   2.0000      -0.865792       -23.5594
  29   2.0000      -0.855720       -23.2853
  30   2.0000      -0.845787       -23.0150
  31   2.0000      -0.813045       -22.1241
  32   2.0000      -0.784083       -21.3360
  33   2.0000      -0.771788       -21.0014
  34   2.0000      -0.711818       -19.3695
  35   2.0000      -0.700431       -19.0597
  36   2.0000      -0.692364       -18.8402
  37   2.0000      -0.656202       -17.8562
  38   2.0000      -0.637173       -17.3384
  39   2.0000      -0.624515       -16.9939
  40   2.0000      -0.598337       -16.2816
  41   2.0000      -0.562232       -15.2991
  42   2.0000      -0.560436       -15.2502
  43   2.0000      -0.552207       -15.0263
  44   2.0000      -0.536530       -14.5997
  45   2.0000      -0.531901       -14.4738
  46   2.0000      -0.512925       -13.9574
  47   2.0000      -0.511180       -13.9099
  48   2.0000      -0.505214       -13.7476
  49   2.0000      -0.491847       -13.3838
  50   2.0000      -0.487275       -13.2594
  51   2.0000      -0.481942       -13.1143
  52   2.0000      -0.471463       -12.8292
  53   2.0000      -0.468296       -12.7430
  54   2.0000      -0.459601       -12.5064
  55   2.0000      -0.449579       -12.2337
  56   2.0000      -0.446078       -12.1384
  57   2.0000      -0.439484       -11.9590
  58   2.0000      -0.435957       -11.8630
  59   2.0000      -0.429014       -11.6741
  60   2.0000      -0.422440       -11.4952
  61   2.0000      -0.417019       -11.3477
  62   2.0000      -0.413474       -11.2512
  63   2.0000      -0.350266        -9.5312
  64   2.0000      -0.332349        -9.0437
  65   2.0000      -0.326605        -8.8874
  66   2.0000      -0.286877        -7.8063
  67   0.0000       0.032405         0.8818
  68   0.0000       0.067042         1.8243
  69   0.0000       0.107273         2.9190
  70   0.0000       0.125907         3.4261
  71   0.0000       0.136126         3.7042

MULLIKEN ATOMIC CHARGES
-----------------------
   0 S :    0.096787
   1 C :   -0.136657
   2 C :   -0.107540
   3 C :    0.054759
   4 C :   -0.140847
   5 H :   -0.009046
   6 C :    0.069398
   7 H :    0.008748
   8 H :    0.029668
   9 C :   -0.044959
  10 H :    0.010085
  11 H :    0.011745
  12 C :   -0.037570
  13 H :    0.047488
  14 H :    0.029493
  15 H :    0.029083
  16 S :    0.117017
  17 C :   -0.087264
  18 C :   -0.059928
  19 C :   -0.045163
  20 C :   -0.150719
  21 H :    0.039702
  22 C :    0.072387
  23 H :    0.038652
  24 H :    0.011658
  25 C :   -0.113786
  26 H :    0.046581
  27 H :    0.028568
  28 C :   -0.003911
  29 H :    0.024755
  30 H :    0.031985
  31 H :    0.018507
  32 H :    0.074319
  33 H :    0.046004
Sum of atomic charges:   -0.0000000

LOEWDIN ATOMIC CHARGES
----------------------
   0 S :    0.407646
   1 C :   -0.218259
   2 C :   -0.063946
   3 C :   -0.050933
   4 C :   -0.187512
   5 H :    0.022623
   6 C :   -0.030864
   7 H :    0.026916
   8 H :    0.034043
   9 C :   -0.039240
  10 H :    0.017695
  11 H :    0.020258
  12 C :   -0.058411
  13 H :    0.032882
  14 H :    0.020840
  15 H :    0.023426
  16 S :    0.421675
  17 C :   -0.193762
  18 C :   -0.078251
  19 C :   -0.063504
  20 C :   -0.206472
  21 H :    0.041165
  22 C :   -0.032542
  23 H :    0.043344
  24 H :    0.020702
  25 C :   -0.045244
  26 H :    0.031392
  27 H :    0.023340
  28 C :   -0.057645
  29 H :    0.026167
  30 H :    0.023775
  31 H :    0.019123
  32 H :    0.043722
  33 H :    0.025848

  Mayer bond orders larger than 0.100000
B(  0-S ,  1-C ) :   1.1538 B(  0-S ,  4-C ) :   1.1483 B(  1-C ,  2-C ) :   1.5818
B(  1-C , 32-H ) :   0.9563 B(  2-C ,  3-C ) :   1.2661 B(  2-C ,  6-C ) :   1.0216
B(  3-C ,  4-C ) :   1.5440 B(  3-C ,  5-H ) :   1.0049 B(  4-C , 20-C ) :   1.0234
B(  6-C ,  7-H ) :   0.9414 B(  6-C ,  8-H ) :   0.9322 B(  6-C ,  9-C ) :   1.0796
B(  9-C , 10-H ) :   0.9520 B(  9-C , 11-H ) :   0.9503 B(  9-C , 12-C ) :   1.0646
B( 12-C , 13-H ) :   0.9762 B( 12-C , 14-H ) :   0.9764 B( 12-C , 15-H ) :   0.9788
B( 16-S , 17-C ) :   1.1610 B( 16-S , 20-C ) :   1.1459 B( 17-C , 18-C ) :   1.6015
B( 17-C , 33-H ) :   0.9713 B( 18-C , 19-C ) :   1.2573 B( 18-C , 21-H ) :   0.9778
B( 19-C , 20-C ) :   1.6118 B( 19-C , 22-C ) :   1.0361 B( 22-C , 23-H ) :   0.9349
B( 22-C , 24-H ) :   0.9293 B( 22-C , 25-C ) :   1.0598 B( 25-C , 26-H ) :   0.9622
B( 25-C , 27-H ) :   0.9592 B( 25-C , 28-C ) :   1.0702 B( 28-C , 29-H ) :   0.9759
B( 28-C , 30-H ) :   0.9795 B( 28-C , 31-H ) :   0.9761

Dispersion correction           -0.014228921
FINAL SINGLE POINT ENERGY     -1339.877029777743

DIPOLE MOMENT
-------------
                                X             Y             Z
Electronic contribution:    -19.83545     -20.02876      13.29692
Nuclear contribution   :     20.54151      20.32720     -13.40511
                        -----------------------------------------
Total Dipole Moment    :      0.70606       0.29844      -0.10819
                        -----------------------------------------
Magnitude (a.u.)       :      0.77414
Magnitude (Debye)      :      1.96770

Rotational constants in cm-1:     0.016345     0.010095     0.006736
Rotational constants in MHz :   489.995828   302.629207   201.938622

                             ****ORCA TERMINATED NORMALLY****
TOTAL RUN TIME: 0 days 0 hours 0 minutes 33 seconds 744 msec
