                         Program Version 4.2.1 -  RELEASE  -
|  1> ! wB97X-D3 SP def2-SVP
|  2> %pal
|  3> nprocs 16
|  4> end
|  5>
|  6> * xyz 0 1
|  7> S 	 -41.1216 	 19.2889 	 84.3616
|  8> C 	 -41.5335 	 18.0224 	 83.2657
|  9> C 	 -41.4134 	 18.4383 	 81.9481
| 10> C 	 -41.2228 	 19.7943 	 81.8876
| 11> C 	 -41.0979 	 20.4337 	 83.128
| 12> H 	 -41.0552 	 20.3191 	 80.9758
| 13> C 	 -41.5082 	 17.4373 	 80.7817
| 14> H 	 -40.8503 	 16.5834 	 81.106
| 15> H 	 -40.9249 	 17.7356 	 79.9336
| 16> C 	 -42.9165 	 16.9288 	 80.5022
| 17> H 	 -43.0637 	 16.6614 	 79.4383
| 18> H 	 -42.964 	 15.9699 	 81.0237
| 19> C 	 -44.0013 	 17.8932 	 80.7578
| 20> H 	 -43.928 	 18.2135 	 81.8344
| 21> H 	 -43.9248 	 18.7946 	 80.1214
| 22> H 	 -44.9523 	 17.3857 	 80.7267
| 23> S 	 -39.1029 	 22.2385 	 83.4894
| 24> C 	 -39.3952 	 23.9472 	 83.457
| 25> C 	 -40.7469 	 24.1535 	 83.2878
| 26> C 	 -41.4922 	 22.9584 	 83.1325
| 27> C 	 -40.8012 	 21.8089 	 83.3076
| 28> H 	 -41.1144 	 25.1072 	 83.1298
| 29> C 	 -42.961 	 23.0466 	 82.7667
| 30> H 	 -43.1902 	 22.1735 	 82.1223
| 31> H 	 -43.0943 	 23.8485 	 82.0329
| 32> C 	 -43.9574 	 23.1101 	 83.9407
| 33> H 	 -43.806 	 22.2477 	 84.5906
| 34> H 	 -45.0115 	 22.922 	 83.6065
| 35> C 	 -43.7806 	 24.3039 	 84.798
| 36> H 	 -44.4256 	 24.4017 	 85.6236
| 37> H 	 -43.9691 	 25.0258 	 84.003
| 38> H 	 -42.8089 	 24.6225 	 85.235
| 39> H 	 -41.7205 	 17.0078 	 83.528
| 40> H 	 -38.7118 	 24.755 	 83.4707
| 41> *
| 42>
| 43>                          ****END OF INPUT****

CARTESIAN COORDINATES (ANGSTROEM)
---------------------------------
  S    -41.121600   19.288900   84.361600
  C    -41.533500   18.022400   83.265700
  C    -41.413400   18.438300   81.948100
  C    -41.222800   19.794300   81.887600
  C    -41.097900   20.433700   83.128000
  H    -41.055200   20.319100   80.975800
  C    -41.508200   17.437300   80.781700
  H    -40.850300   16.583400   81.106000
  H    -40.924900   17.735600   79.933600
  C    -42.916500   16.928800   80.502200
  H    -43.063700   16.661400   79.438300
  H    -42.964000   15.969900   81.023700
  C    -44.001300   17.893200   80.757800
  H    -43.928000   18.213500   81.834400
  H    -43.924800   18.794600   80.121400
  H    -44.952300   17.385700   80.726700
  S    -39.102900   22.238500   83.489400
  C    -39.395200   23.947200   83.457000
  C    -40.746900   24.153500   83.287800
  C    -41.492200   22.958400   83.132500
  C    -40.801200   21.808900   83.307600
  H    -41.114400   25.107200   83.129800
  C    -42.961000   23.046600   82.766700
  H    -43.190200   22.173500   82.122300
  H    -43.094300   23.848500   82.032900
  C    -43.957400   23.110100   83.940700
  H    -43.806000   22.247700   84.590600
  H    -45.011500   22.922000   83.606500
  C    -43.780600   24.303900   84.798000
  H    -44.425600   24.401700   85.623600
  H    -43.969100   25.025800   84.003000
  H    -42.808900   24.622500   85.235000
  H    -41.720500   17.007800   83.528000
  H    -38.711800   24.755000   83.470700

 Total Charge           Charge          ....    0
 Multiplicity           Mult            ....    1
 Number of Electrons    NEL             ....  134
 Basis Dimension        Dim             ....  322

ORBITAL ENERGIES
----------------

  NO   OCC          E(Eh)            E(eV)
   0   2.0000     -88.970793     -2421.0184
   1   2.0000     -88.959478     -2420.7105
   2   2.0000     -10.321121      -280.8520
   3   2.0000     -10.318532      -280.7815
   4   2.0000     -10.313365      -280.6409
   5   2.0000     -10.308280      -280.5026
   6   2.0000     -10.295707      -280.1604
   7   2.0000     -10.295702      -280.1603
   8   2.0000     -10.293096      -280.0894
   9   2.0000     -10.289043      -279.9791
  10   2.0000     -10.286851      -279.9194
  11   2.0000     -10.284007      -279.8421
  12   2.0000     -10.283116      -279.8178
  13   2.0000     -10.282996      -279.8145
  14   2.0000     -10.273510      -279.5564
  15   2.0000     -10.267089      -279.3817
  16   2.0000      -8.086737      -220.0513
  17   2.0000      -8.074623      -219.7217
  18   2.0000      -6.044900      -164.4901
  19   2.0000      -6.040890      -164.3810
  20   2.0000      -6.037983      -164.3019
  21   2.0000      -6.033193      -164.1715
  22   2.0000      -6.028950      -164.0561
  23   2.0000      -6.025385      -163.9591
  24   2.0000      -1.018657       -27.7191
  25   2.0000      -0.992893       -27.0180
  26   2.0000      -0.918819       -25.0023
  27   2.0000      -0.909849       -24.7582
  28   2.0000      -0.875957       -23.8360
  29   2.0000      -0.855300       -23.2739
  30   2.0000      -0.848142       -23.0791
  31   2.0000      -0.814769       -22.1710
  32   2.0000      -0.787805       -21.4373
  33   2.0000      -0.774581       -21.0774
  34   2.0000      -0.710965       -19.3463
  35   2.0000      -0.695719       -18.9315
  36   2.0000      -0.691572       -18.8186
  37   2.0000      -0.667833       -18.1727
  38   2.0000      -0.644339       -17.5334
  39   2.0000      -0.616478       -16.7752
  40   2.0000      -0.592081       -16.1113
  41   2.0000      -0.579725       -15.7751
  42   2.0000      -0.561928       -15.2908
  43   2.0000      -0.559818       -15.2334
  44   2.0000      -0.553038       -15.0489
  45   2.0000      -0.540982       -14.7209
  46   2.0000      -0.521779       -14.1983
  47   2.0000      -0.512014       -13.9326
  48   2.0000      -0.509164       -13.8551
  49   2.0000      -0.498617       -13.5681
  50   2.0000      -0.488195       -13.2844
  51   2.0000      -0.478494       -13.0205
  52   2.0000      -0.473754       -12.8915
  53   2.0000      -0.466161       -12.6849
  54   2.0000      -0.460298       -12.5254
  55   2.0000      -0.443622       -12.0716
  56   2.0000      -0.439672       -11.9641
  57   2.0000      -0.439158       -11.9501
  58   2.0000      -0.428574       -11.6621
  59   2.0000      -0.424707       -11.5569
  60   2.0000      -0.417851       -11.3703
  61   2.0000      -0.402205       -10.9446
  62   2.0000      -0.391956       -10.6657
  63   2.0000      -0.340029        -9.2527
  64   2.0000      -0.329770        -8.9735
  65   2.0000      -0.326436        -8.8828
  66   2.0000      -0.304238        -8.2787
  67   0.0000       0.041033         1.1166
  68   0.0000       0.055716         1.5161
  69   0.0000       0.116017         3.1570
  70   0.0000       0.122921         3.3449
  71   0.0000       0.139026         3.7831

MULLIKEN ATOMIC CHARGES
-----------------------
   0 S :    0.151632
   1 C :   -0.109722
   2 C :   -0.121612
   3 C :    0.055321
   4 C :   -0.191666
   5 H :   -0.004973
   6 C :    0.080277
   7 H :    0.032652
   8 H :    0.016621
   9 C :   -0.080210
  10 H :    0.028040
  11 H :    0.026154
  12 C :   -0.029237
  13 H :    0.039319
  14 H :    0.039987
  15 H :    0.030998
  16 S :    0.099203
  17 C :   -0.063603
  18 C :   -0.015818
  19 C :   -0.033494
  20 C :   -0.152595
  21 H :   -0.012296
  22 C :    0.046658
  23 H :    0.020512
  24 H :    0.022145
  25 C :   -0.029665
  26 H :    0.014471
  27 H :    0.037311
  28 C :   -0.050247
  29 H :    0.025486
  30 H :    0.010990
  31 H :    0.043428
  32 H :    0.032353
  33 H :    0.041579
Sum of atomic charges:   -0.0000000

LOEWDIN ATOMIC CHARGES
----------------------
   0 S :    0.469378
   1 C :   -0.203606
   2 C :   -0.065096
   3 C :   -0.055589
   4 C :   -0.230951
   5 H :    0.026730
   6 C :   -0.034919
   7 H :    0.039651
   8 H :    0.025755
   9 C :   -0.052067
  10 H :    0.029187
  11 H :    0.025040
  12 C :   -0.069642
  13 H :    0.030629
  14 H :    0.030134
  15 H :    0.026147
  16 S :    0.406505
  17 C :   -0.178872
  18 C :   -0.067964
  19 C :   -0.055104
  20 C :   -0.200165
  21 H :    0.017265
  22 C :   -0.033701
  23 H :    0.033979
  24 H :    0.027136
  25 C :   -0.041731
  26 H :    0.019738
  27 H :    0.032531
  28 C :   -0.073856
  29 H :    0.019526
  30 H :    0.024989
  31 H :    0.032710
  32 H :    0.020252
  33 H :    0.025981

  Mayer bond orders larger than 0.100000
B(  0-S ,  1-C ) :   1.1836 B(  0-S ,  4-C ) :   1.1978 B(  1-C ,  2-C ) :   1.5317
B(  1-C ,  4-C ) :   0.1180 B(  1-C , 32-H ) :   0.9748 B(  2-C ,  3-C ) :   1.3290
B(  2-C ,  6-C ) :   1.0072 B(  3-C ,  4-C ) :   1.4934 B(  3-C ,  5-H ) :   1.0048
B(  4-C , 20-C ) :   1.0225 B(  6-C ,  7-H ) :   0.9489 B(  6-C ,  8-H ) :   0.9420
B(  6-C ,  9-C ) :   1.0462 B(  9-C , 10-H ) :   0.9543 B(  9-C , 11-H ) :   0.9537
B(  9-C , 12-C ) :   1.1095 B( 12-C , 13-H ) :   0.9554 B( 12-C , 14-H ) :   0.9722
B( 12-C , 15-H ) :   0.9689 B( 16-S , 17-C ) :   1.1646 B( 16-S , 20-C ) :   1.1324
B( 17-C , 18-C ) :   1.5948 B( 17-C , 20-C ) :   0.1007 B( 17-C , 33-H ) :   0.9715
B( 18-C , 19-C ) :   1.2455 B( 18-C , 21-H ) :   0.9999 B( 19-C , 20-C ) :   1.6336
B( 19-C , 22-C ) :   1.0350 B( 22-C , 23-H ) :   0.9256 B( 22-C , 24-H ) :   0.9412
B( 22-C , 25-C ) :   1.0767 B( 25-C , 26-H ) :   0.9489 B( 25-C , 27-H ) :   0.9547
B( 25-C , 28-C ) :   1.0654 B( 28-C , 29-H ) :   0.9711 B( 28-C , 30-H ) :   0.9770
B( 28-C , 31-H ) :   0.9700

Dispersion correction           -0.015231592
FINAL SINGLE POINT ENERGY     -1339.860025229212

DIPOLE MOMENT
-------------
                                X             Y             Z
Electronic contribution:     20.66196       1.17269       9.53056
Nuclear contribution   :    -20.95423      -1.25461      -9.98257
                        -----------------------------------------
Total Dipole Moment    :     -0.29227      -0.08192      -0.45201
                        -----------------------------------------
Magnitude (a.u.)       :      0.54447
Magnitude (Debye)      :      1.38394

Rotational constants in cm-1:     0.021248     0.008588     0.007288
Rotational constants in MHz :   637.010343   257.462936   218.478251

                             ****ORCA TERMINATED NORMALLY****
TOTAL RUN TIME: 0 days 0 hours 0 minutes 31 seconds 754 msec
