                         Program Version 4.2.1 -  RELEASE  -
|  1> ! wB97X-D3 SP def2-SVP
|  2> %pal
|  3> nprocs 16
|  4> end
|  5>
|  6> * xyz 0 1
|  7> S 	 11.1564 	 -20.1347 	 78.9497
|  8> C 	 10.1736 	 -21.3727 	 79.7587
|  9> C 	 8.86318 	 -20.9829 	 79.9118
| 10> C 	 8.78205 	 -19.5395 	 79.7245
| 11> C 	 9.94641 	 -18.966 	 79.4365
| 12> H 	 7.89814 	 -18.9654 	 79.9165
| 13> C 	 7.7169 	 -21.9026 	 80.3636
| 14> H 	 7.13078 	 -21.4076 	 81.1745
| 15> H 	 8.17424 	 -22.6723 	 80.9965
| 16> C 	 6.76308 	 -22.4306 	 79.3209
| 17> H 	 6.64901 	 -21.7093 	 78.5121
| 18> H 	 7.32252 	 -23.3185 	 78.9653
| 19> C 	 5.3562 	 -22.7312 	 79.9348
| 20> H 	 5.49414 	 -23.4598 	 80.6744
| 21> H 	 4.94329 	 -21.7521 	 80.2242
| 22> H 	 4.64514 	 -23.1479 	 79.1527
| 23> S 	 10.6889 	 -17.2619 	 77.5215
| 24> C 	 10.0107 	 -15.5898 	 77.6016
| 25> C 	 9.81666 	 -15.2385 	 78.9009
| 26> C 	 9.80698 	 -16.374 	 79.7913
| 27> C 	 10.1164 	 -17.5661 	 79.1406
| 28> H 	 9.67921 	 -14.2141 	 79.0939
| 29> C 	 9.32662 	 -16.4747 	 81.2525
| 30> H 	 10.1675 	 -17.103 	 81.7335
| 31> H 	 8.53095 	 -17.1424 	 81.2274
| 32> C 	 9.0701 	 -15.0893 	 81.889
| 33> H 	 8.35627 	 -14.443 	 81.2762
| 34> H 	 10.0852 	 -14.6161 	 81.9926
| 35> C 	 8.4847 	 -15.0715 	 83.3188
| 36> H 	 8.51975 	 -14.1413 	 83.8966
| 37> H 	 8.79193 	 -15.8763 	 83.9713
| 38> H 	 7.4318 	 -15.2369 	 83.2367
| 39> H 	 10.3706 	 -22.4643 	 79.5849
| 40> H 	 10.1998 	 -14.9474 	 76.7827
| 41> *
| 42>
| 43>                          ****END OF INPUT****

CARTESIAN COORDINATES (ANGSTROEM)
---------------------------------
  S     11.156400  -20.134700   78.949700
  C     10.173600  -21.372700   79.758700
  C      8.863180  -20.982900   79.911800
  C      8.782050  -19.539500   79.724500
  C      9.946410  -18.966000   79.436500
  H      7.898140  -18.965400   79.916500
  C      7.716900  -21.902600   80.363600
  H      7.130780  -21.407600   81.174500
  H      8.174240  -22.672300   80.996500
  C      6.763080  -22.430600   79.320900
  H      6.649010  -21.709300   78.512100
  H      7.322520  -23.318500   78.965300
  C      5.356200  -22.731200   79.934800
  H      5.494140  -23.459800   80.674400
  H      4.943290  -21.752100   80.224200
  H      4.645140  -23.147900   79.152700
  S     10.688900  -17.261900   77.521500
  C     10.010700  -15.589800   77.601600
  C      9.816660  -15.238500   78.900900
  C      9.806980  -16.374000   79.791300
  C     10.116400  -17.566100   79.140600
  H      9.679210  -14.214100   79.093900
  C      9.326620  -16.474700   81.252500
  H     10.167500  -17.103000   81.733500
  H      8.530950  -17.142400   81.227400
  C      9.070100  -15.089300   81.889000
  H      8.356270  -14.443000   81.276200
  H     10.085200  -14.616100   81.992600
  C      8.484700  -15.071500   83.318800
  H      8.519750  -14.141300   83.896600
  H      8.791930  -15.876300   83.971300
  H      7.431800  -15.236900   83.236700
  H     10.370600  -22.464300   79.584900
  H     10.199800  -14.947400   76.782700

 Total Charge           Charge          ....    0
 Multiplicity           Mult            ....    1
 Number of Electrons    NEL             ....  134
 Basis Dimension        Dim             ....  322

ORBITAL ENERGIES
----------------

  NO   OCC          E(Eh)            E(eV)
   0   2.0000     -88.963559     -2420.8215
   1   2.0000     -88.956402     -2420.6268
   2   2.0000     -10.324931      -280.9556
   3   2.0000     -10.320874      -280.8452
   4   2.0000     -10.315475      -280.6983
   5   2.0000     -10.315215      -280.6913
   6   2.0000     -10.307135      -280.4714
   7   2.0000     -10.307054      -280.4692
   8   2.0000     -10.301323      -280.3132
   9   2.0000     -10.297113      -280.1987
  10   2.0000     -10.296716      -280.1879
  11   2.0000     -10.296065      -280.1702
  12   2.0000     -10.291214      -280.0382
  13   2.0000     -10.290568      -280.0206
  14   2.0000     -10.286937      -279.9218
  15   2.0000     -10.275099      -279.5997
  16   2.0000      -8.078566      -219.8290
  17   2.0000      -8.071340      -219.6323
  18   2.0000      -6.037212      -164.2809
  19   2.0000      -6.033568      -164.1817
  20   2.0000      -6.029856      -164.0807
  21   2.0000      -6.028614      -164.0469
  22   2.0000      -6.026126      -163.9792
  23   2.0000      -6.021768      -163.8606
  24   2.0000      -1.011003       -27.5108
  25   2.0000      -0.982075       -26.7236
  26   2.0000      -0.913935       -24.8694
  27   2.0000      -0.902414       -24.5559
  28   2.0000      -0.875410       -23.8211
  29   2.0000      -0.850703       -23.1488
  30   2.0000      -0.841459       -22.8973
  31   2.0000      -0.821721       -22.3602
  32   2.0000      -0.781887       -21.2762
  33   2.0000      -0.770577       -20.9685
  34   2.0000      -0.706909       -19.2360
  35   2.0000      -0.703086       -19.1319
  36   2.0000      -0.697041       -18.9675
  37   2.0000      -0.654111       -17.7993
  38   2.0000      -0.638506       -17.3746
  39   2.0000      -0.623551       -16.9677
  40   2.0000      -0.592795       -16.1308
  41   2.0000      -0.569301       -15.4915
  42   2.0000      -0.568401       -15.4670
  43   2.0000      -0.564484       -15.3604
  44   2.0000      -0.534544       -14.5457
  45   2.0000      -0.521564       -14.1925
  46   2.0000      -0.515973       -14.0403
  47   2.0000      -0.508456       -13.8358
  48   2.0000      -0.501295       -13.6409
  49   2.0000      -0.499286       -13.5863
  50   2.0000      -0.490907       -13.3582
  51   2.0000      -0.476923       -12.9777
  52   2.0000      -0.475126       -12.9288
  53   2.0000      -0.467494       -12.7212
  54   2.0000      -0.456216       -12.4143
  55   2.0000      -0.450383       -12.2556
  56   2.0000      -0.447591       -12.1796
  57   2.0000      -0.436010       -11.8644
  58   2.0000      -0.431197       -11.7335
  59   2.0000      -0.423767       -11.5313
  60   2.0000      -0.418531       -11.3888
  61   2.0000      -0.414871       -11.2892
  62   2.0000      -0.412164       -11.2156
  63   2.0000      -0.352323        -9.5872
  64   2.0000      -0.331572        -9.0225
  65   2.0000      -0.319564        -8.6958
  66   2.0000      -0.292254        -7.9526
  67   0.0000       0.025375         0.6905
  68   0.0000       0.056375         1.5340
  69   0.0000       0.093493         2.5441
  70   0.0000       0.114549         3.1170
  71   0.0000       0.134912         3.6711

MULLIKEN ATOMIC CHARGES
-----------------------
   0 S :    0.089217
   1 C :   -0.106443
   2 C :   -0.100514
   3 C :    0.028472
   4 C :   -0.121854
   5 H :    0.011934
   6 C :    0.016694
   7 H :    0.018330
   8 H :    0.025784
   9 C :   -0.059210
  10 H :    0.037234
  11 H :    0.034401
  12 C :   -0.058395
  13 H :    0.033700
  14 H :    0.043957
  15 H :    0.045949
  16 S :    0.065043
  17 C :   -0.080589
  18 C :   -0.028239
  19 C :   -0.055960
  20 C :   -0.142535
  21 H :    0.013000
  22 C :    0.083455
  23 H :    0.056486
  24 H :    0.006282
  25 C :   -0.116004
  26 H :    0.051019
  27 H :    0.047604
  28 C :   -0.026383
  29 H :    0.036571
  30 H :    0.025499
  31 H :    0.012475
  32 H :    0.064097
  33 H :    0.048924
Sum of atomic charges:   -0.0000000

LOEWDIN ATOMIC CHARGES
----------------------
   0 S :    0.377143
   1 C :   -0.197807
   2 C :   -0.052787
   3 C :   -0.056133
   4 C :   -0.186580
   5 H :    0.028372
   6 C :   -0.043651
   7 H :    0.028796
   8 H :    0.032557
   9 C :   -0.042656
  10 H :    0.024982
  11 H :    0.028333
  12 C :   -0.059814
  13 H :    0.017551
  14 H :    0.029676
  15 H :    0.034723
  16 S :    0.367701
  17 C :   -0.155352
  18 C :   -0.062396
  19 C :   -0.055901
  20 C :   -0.191202
  21 H :    0.027962
  22 C :   -0.031949
  23 H :    0.050579
  24 H :    0.016519
  25 C :   -0.048216
  26 H :    0.034267
  27 H :    0.033350
  28 C :   -0.074758
  29 H :    0.029778
  30 H :    0.023791
  31 H :    0.020127
  32 H :    0.034713
  33 H :    0.018283

  Mayer bond orders larger than 0.100000
B(  0-S ,  1-C ) :   1.1081 B(  0-S ,  4-C ) :   1.1155 B(  1-C ,  2-C ) :   1.6818
B(  1-C , 32-H ) :   0.9503 B(  2-C ,  3-C ) :   1.1917 B(  2-C ,  6-C ) :   1.0157
B(  3-C ,  4-C ) :   1.6256 B(  3-C ,  5-H ) :   0.9961 B(  4-C , 20-C ) :   1.0369
B(  6-C ,  7-H ) :   0.9488 B(  6-C ,  8-H ) :   0.9419 B(  6-C ,  9-C ) :   1.0353
B(  9-C , 10-H ) :   0.9645 B(  9-C , 11-H ) :   0.9554 B(  9-C , 12-C ) :   1.0729
B( 12-C , 13-H ) :   0.9780 B( 12-C , 14-H ) :   0.9754 B( 12-C , 15-H ) :   0.9755
B( 16-S , 17-C ) :   1.1346 B( 16-S , 20-C ) :   1.1300 B( 17-C , 18-C ) :   1.6335
B( 17-C , 20-C ) :   0.1042 B( 17-C , 33-H ) :   0.9689 B( 18-C , 19-C ) :   1.1980
B( 18-C , 21-H ) :   1.0024 B( 19-C , 20-C ) :   1.6232 B( 19-C , 22-C ) :   1.0175
B( 22-C , 23-H ) :   0.9304 B( 22-C , 24-H ) :   0.9370 B( 22-C , 25-C ) :   1.0659
B( 25-C , 26-H ) :   0.9555 B( 25-C , 27-H ) :   0.9572 B( 25-C , 28-C ) :   1.0775
B( 28-C , 29-H ) :   0.9752 B( 28-C , 30-H ) :   0.9737 B( 28-C , 31-H ) :   0.9726

Dispersion correction           -0.013372160
FINAL SINGLE POINT ENERGY     -1339.836970303424

DIPOLE MOMENT
-------------
                                X             Y             Z
Electronic contribution:     21.60540       2.07911     -17.90086
Nuclear contribution   :    -22.29860      -2.01709      18.23019
                        -----------------------------------------
Total Dipole Moment    :     -0.69320       0.06202       0.32933
                        -----------------------------------------
Magnitude (a.u.)       :      0.76996
Magnitude (Debye)      :      1.95707

Rotational constants in cm-1:     0.016565     0.008026     0.006348
Rotational constants in MHz :   496.620049   240.616786   190.293955

                             ****ORCA TERMINATED NORMALLY****
TOTAL RUN TIME: 0 days 0 hours 0 minutes 33 seconds 223 msec
