                         Program Version 4.2.1 -  RELEASE  -
|  1> ! wB97X-D3 SP def2-SVP
|  2> %pal
|  3> nprocs 16
|  4> end
|  5>
|  6> * xyz 0 1
|  7> S 	 -29.0063 	 0.374789 	 105.79
|  8> C 	 -29.3662 	 -0.926436 	 106.902
|  9> C 	 -29.5045 	 -2.10188 	 106.179
| 10> C 	 -29.6213 	 -1.88321 	 104.779
| 11> C 	 -29.4315 	 -0.615735 	 104.429
| 12> H 	 -29.758 	 -2.70442 	 104.088
| 13> C 	 -29.8192 	 -3.46423 	 106.774
| 14> H 	 -30.3127 	 -4.10696 	 105.981
| 15> H 	 -30.5295 	 -3.32306 	 107.585
| 16> C 	 -28.5362 	 -4.1522 	 107.279
| 17> H 	 -28.0932 	 -3.4294 	 107.974
| 18> H 	 -28.7089 	 -5.05613 	 107.794
| 19> C 	 -27.5426 	 -4.48111 	 106.145
| 20> H 	 -28.1355 	 -5.0911 	 105.404
| 21> H 	 -27.0861 	 -3.54286 	 105.772
| 22> H 	 -26.6965 	 -5.08787 	 106.551
| 23> S 	 -27.6316 	 -0.81241 	 102.475
| 24> C 	 -27.9065 	 -0.0698949 	 100.921
| 25> C 	 -29.2049 	 0.45056 	 100.819
| 26> C 	 -29.9631 	 0.336378 	 102.058
| 27> C 	 -29.1874 	 -0.268021 	 103.05
| 28> H 	 -29.5639 	 0.75613 	 99.8168
| 29> C 	 -31.432 	 0.95074 	 102.129
| 30> H 	 -31.8467 	 1.17401 	 101.106
| 31> H 	 -31.4147 	 1.97781 	 102.495
| 32> C 	 -32.4679 	 0.176936 	 102.936
| 33> H 	 -32.1846 	 -0.261258 	 103.84
| 34> H 	 -32.6411 	 -0.731977 	 102.367
| 35> C 	 -33.8302 	 0.880331 	 103.159
| 36> H 	 -34.2806 	 1.07619 	 102.216
| 37> H 	 -33.7204 	 1.8347 	 103.67
| 38> H 	 -34.5472 	 0.256341 	 103.738
| 39> H 	 -29.5171 	 -0.82437 	 107.984
| 40> H 	 -27.2078 	 -0.0106257 	 100.123
| 41> *
| 42>
| 43>                          ****END OF INPUT****

CARTESIAN COORDINATES (ANGSTROEM)
---------------------------------
  S    -29.006300    0.374789  105.790000
  C    -29.366200   -0.926436  106.902000
  C    -29.504500   -2.101880  106.179000
  C    -29.621300   -1.883210  104.779000
  C    -29.431500   -0.615735  104.429000
  H    -29.758000   -2.704420  104.088000
  C    -29.819200   -3.464230  106.774000
  H    -30.312700   -4.106960  105.981000
  H    -30.529500   -3.323060  107.585000
  C    -28.536200   -4.152200  107.279000
  H    -28.093200   -3.429400  107.974000
  H    -28.708900   -5.056130  107.794000
  C    -27.542600   -4.481110  106.145000
  H    -28.135500   -5.091100  105.404000
  H    -27.086100   -3.542860  105.772000
  H    -26.696500   -5.087870  106.551000
  S    -27.631600   -0.812410  102.475000
  C    -27.906500   -0.069895  100.921000
  C    -29.204900    0.450560  100.819000
  C    -29.963100    0.336378  102.058000
  C    -29.187400   -0.268021  103.050000
  H    -29.563900    0.756130   99.816800
  C    -31.432000    0.950740  102.129000
  H    -31.846700    1.174010  101.106000
  H    -31.414700    1.977810  102.495000
  C    -32.467900    0.176936  102.936000
  H    -32.184600   -0.261258  103.840000
  H    -32.641100   -0.731977  102.367000
  C    -33.830200    0.880331  103.159000
  H    -34.280600    1.076190  102.216000
  H    -33.720400    1.834700  103.670000
  H    -34.547200    0.256341  103.738000
  H    -29.517100   -0.824370  107.984000
  H    -27.207800   -0.010626  100.123000

 Total Charge           Charge          ....    0
 Multiplicity           Mult            ....    1
 Number of Electrons    NEL             ....  134
 Basis Dimension        Dim             ....  322

ORBITAL ENERGIES
----------------

  NO   OCC          E(Eh)            E(eV)
   0   2.0000     -88.966755     -2420.9085
   1   2.0000     -88.964642     -2420.8510
   2   2.0000     -10.325195      -280.9628
   3   2.0000     -10.318442      -280.7791
   4   2.0000     -10.316414      -280.7239
   5   2.0000     -10.315997      -280.7125
   6   2.0000     -10.314945      -280.6839
   7   2.0000     -10.301807      -280.3264
   8   2.0000     -10.299546      -280.2649
   9   2.0000     -10.297431      -280.2073
  10   2.0000     -10.294151      -280.1181
  11   2.0000     -10.285152      -279.8732
  12   2.0000     -10.283144      -279.8186
  13   2.0000     -10.280994      -279.7601
  14   2.0000     -10.275679      -279.6154
  15   2.0000     -10.275272      -279.6044
  16   2.0000      -8.081529      -219.9096
  17   2.0000      -8.079742      -219.8610
  18   2.0000      -6.040020      -164.3573
  19   2.0000      -6.038336      -164.3115
  20   2.0000      -6.035983      -164.2475
  21   2.0000      -6.034256      -164.2005
  22   2.0000      -6.032350      -164.1486
  23   2.0000      -6.030312      -164.0931
  24   2.0000      -1.012427       -27.5495
  25   2.0000      -0.982609       -26.7381
  26   2.0000      -0.910474       -24.7753
  27   2.0000      -0.900501       -24.5039
  28   2.0000      -0.870994       -23.7010
  29   2.0000      -0.846393       -23.0315
  30   2.0000      -0.844572       -22.9820
  31   2.0000      -0.810250       -22.0480
  32   2.0000      -0.780300       -21.2330
  33   2.0000      -0.768293       -20.9063
  34   2.0000      -0.708354       -19.2753
  35   2.0000      -0.696939       -18.9647
  36   2.0000      -0.689660       -18.7666
  37   2.0000      -0.658639       -17.9225
  38   2.0000      -0.642341       -17.4790
  39   2.0000      -0.615047       -16.7363
  40   2.0000      -0.592675       -16.1275
  41   2.0000      -0.572928       -15.5902
  42   2.0000      -0.555406       -15.1134
  43   2.0000      -0.549591       -14.9551
  44   2.0000      -0.546066       -14.8592
  45   2.0000      -0.522026       -14.2051
  46   2.0000      -0.513187       -13.9645
  47   2.0000      -0.507846       -13.8192
  48   2.0000      -0.498294       -13.5593
  49   2.0000      -0.494790       -13.4639
  50   2.0000      -0.491567       -13.3762
  51   2.0000      -0.479124       -13.0376
  52   2.0000      -0.466647       -12.6981
  53   2.0000      -0.466233       -12.6868
  54   2.0000      -0.456614       -12.4251
  55   2.0000      -0.443264       -12.0618
  56   2.0000      -0.442686       -12.0461
  57   2.0000      -0.437176       -11.8962
  58   2.0000      -0.432416       -11.7666
  59   2.0000      -0.424640       -11.5550
  60   2.0000      -0.419311       -11.4100
  61   2.0000      -0.415684       -11.3113
  62   2.0000      -0.408236       -11.1087
  63   2.0000      -0.337570        -9.1858
  64   2.0000      -0.328119        -8.9286
  65   2.0000      -0.319227        -8.6866
  66   2.0000      -0.311543        -8.4775
  67   0.0000       0.042511         1.1568
  68   0.0000       0.053809         1.4642
  69   0.0000       0.108773         2.9599
  70   0.0000       0.121404         3.3036
  71   0.0000       0.129971         3.5367

MULLIKEN ATOMIC CHARGES
-----------------------
   0 S :    0.117357
   1 C :   -0.132948
   2 C :   -0.092385
   3 C :    0.019022
   4 C :   -0.124264
   5 H :    0.015383
   6 C :    0.036834
   7 H :    0.029515
   8 H :    0.032309
   9 C :   -0.053698
  10 H :    0.023247
  11 H :    0.021198
  12 C :   -0.088118
  13 H :    0.038031
  14 H :    0.054656
  15 H :    0.041932
  16 S :    0.129669
  17 C :   -0.085470
  18 C :   -0.059274
  19 C :    0.016452
  20 C :   -0.213230
  21 H :    0.033428
  22 C :    0.067686
  23 H :    0.019877
  24 H :    0.031762
  25 C :   -0.064746
  26 H :    0.027112
  27 H :    0.016365
  28 C :   -0.052901
  29 H :    0.017809
  30 H :    0.032976
  31 H :    0.039054
  32 H :    0.059924
  33 H :    0.045437
Sum of atomic charges:   -0.0000000

LOEWDIN ATOMIC CHARGES
----------------------
   0 S :    0.411048
   1 C :   -0.199602
   2 C :   -0.063175
   3 C :   -0.063504
   4 C :   -0.209913
   5 H :    0.033115
   6 C :   -0.032486
   7 H :    0.030049
   8 H :    0.030136
   9 C :   -0.040453
  10 H :    0.022337
  11 H :    0.014913
  12 C :   -0.071055
  13 H :    0.028519
  14 H :    0.030176
  15 H :    0.029885
  16 S :    0.422043
  17 C :   -0.186590
  18 C :   -0.074473
  19 C :   -0.046592
  20 C :   -0.200683
  21 H :    0.036036
  22 C :   -0.029722
  23 H :    0.034868
  24 H :    0.030773
  25 C :   -0.046256
  26 H :    0.017704
  27 H :    0.024786
  28 C :   -0.061491
  29 H :    0.016998
  30 H :    0.023661
  31 H :    0.032469
  32 H :    0.034303
  33 H :    0.022177

  Mayer bond orders larger than 0.100000
B(  0-S ,  1-C ) :   1.1387 B(  0-S ,  4-C ) :   1.1495 B(  1-C ,  2-C ) :   1.6008
B(  1-C , 32-H ) :   0.9683 B(  2-C ,  3-C ) :   1.2418 B(  2-C ,  6-C ) :   1.0095
B(  3-C ,  4-C ) :   1.5742 B(  3-C ,  5-H ) :   1.0046 B(  4-C , 20-C ) :   1.0171
B(  6-C ,  7-H ) :   0.9517 B(  6-C ,  8-H ) :   0.9461 B(  6-C ,  9-C ) :   1.0638
B(  9-C , 10-H ) :   0.9561 B(  9-C , 11-H ) :   0.9594 B(  9-C , 12-C ) :   1.0731
B( 12-C , 13-H ) :   0.9755 B( 12-C , 14-H ) :   0.9730 B( 12-C , 15-H ) :   0.9749
B( 16-S , 17-C ) :   1.1539 B( 16-S , 20-C ) :   1.1526 B( 17-C , 18-C ) :   1.6256
B( 17-C , 33-H ) :   0.9702 B( 18-C , 19-C ) :   1.2304 B( 18-C , 21-H ) :   0.9811
B( 19-C , 20-C ) :   1.6119 B( 19-C , 22-C ) :   1.0156 B( 22-C , 23-H ) :   0.9418
B( 22-C , 24-H ) :   0.9420 B( 22-C , 25-C ) :   1.0477 B( 25-C , 26-H ) :   0.9588
B( 25-C , 27-H ) :   0.9524 B( 25-C , 28-C ) :   1.0853 B( 28-C , 29-H ) :   0.9758
B( 28-C , 30-H ) :   0.9763 B( 28-C , 31-H ) :   0.9743

Dispersion correction           -0.014715970
FINAL SINGLE POINT ENERGY     -1339.872829975572

DIPOLE MOMENT
-------------
                                X             Y             Z
Electronic contribution:     14.22738      10.09169      -3.85117
Nuclear contribution   :    -14.54162     -10.38535       3.82494
                        -----------------------------------------
Total Dipole Moment    :     -0.31424      -0.29366      -0.02623
                        -----------------------------------------
Magnitude (a.u.)       :      0.43090
Magnitude (Debye)      :      1.09525

Rotational constants in cm-1:     0.018101     0.009321     0.007393
Rotational constants in MHz :   542.665449   279.437681   221.646773

                             ****ORCA TERMINATED NORMALLY****
TOTAL RUN TIME: 0 days 0 hours 0 minutes 30 seconds 903 msec
