                         Program Version 4.2.1 -  RELEASE  -
|  1> ! wB97X-D3 SP def2-SVP
|  2> %pal
|  3> nprocs 16
|  4> end
|  5>
|  6> * xyz 0 1
|  7> S 	 7.91408 	 -13.9327 	 69.995
|  8> C 	 7.5487 	 -14.4887 	 68.342
|  9> C 	 7.2987 	 -13.4393 	 67.4505
| 10> C 	 7.53846 	 -12.1587 	 68.1472
| 11> C 	 8.11925 	 -12.2639 	 69.4127
| 12> H 	 7.5615 	 -11.2027 	 67.6677
| 13> C 	 6.83477 	 -13.5888 	 66.0181
| 14> H 	 6.47824 	 -14.664 	 65.9278
| 15> H 	 7.76302 	 -13.5099 	 65.3486
| 16> C 	 5.74925 	 -12.6742 	 65.539
| 17> H 	 6.25967 	 -11.7126 	 65.5319
| 18> H 	 5.54948 	 -12.722 	 64.4616
| 19> C 	 4.43729 	 -12.555 	 66.443
| 20> H 	 4.00531 	 -11.6543 	 66.2856
| 21> H 	 3.74685 	 -13.3315 	 66.2406
| 22> H 	 4.65958 	 -12.6906 	 67.4958
| 23> S 	 10.3317 	 -11.4977 	 70.9854
| 24> C 	 10.4421 	 -9.89622 	 71.5748
| 25> C 	 9.39838 	 -9.14338 	 71.1178
| 26> C 	 8.33687 	 -9.87802 	 70.4249
| 27> C 	 8.77966 	 -11.2022 	 70.1288
| 28> H 	 9.2601 	 -8.14135 	 71.3652
| 29> C 	 7.02153 	 -9.28395 	 70.245
| 30> H 	 6.62857 	 -9.69106 	 69.3307
| 31> H 	 6.99946 	 -8.22794 	 70.0273
| 32> C 	 5.9443 	 -9.51224 	 71.2939
| 33> H 	 5.08634 	 -9.00665 	 70.7663
| 34> H 	 6.06219 	 -8.9914 	 72.1912
| 35> C 	 5.54823 	 -10.9263 	 71.4965
| 36> H 	 4.56999 	 -10.8468 	 72.0076
| 37> H 	 6.26723 	 -11.5703 	 72.07
| 38> H 	 5.37462 	 -11.3116 	 70.4875
| 39> H 	 7.25387 	 -15.4757 	 68.0605
| 40> H 	 11.3208 	 -9.47821 	 72.0467
| 41> *
| 42>
| 43>                          ****END OF INPUT****

CARTESIAN COORDINATES (ANGSTROEM)
---------------------------------
  S      7.914080  -13.932700   69.995000
  C      7.548700  -14.488700   68.342000
  C      7.298700  -13.439300   67.450500
  C      7.538460  -12.158700   68.147200
  C      8.119250  -12.263900   69.412700
  H      7.561500  -11.202700   67.667700
  C      6.834770  -13.588800   66.018100
  H      6.478240  -14.664000   65.927800
  H      7.763020  -13.509900   65.348600
  C      5.749250  -12.674200   65.539000
  H      6.259670  -11.712600   65.531900
  H      5.549480  -12.722000   64.461600
  C      4.437290  -12.555000   66.443000
  H      4.005310  -11.654300   66.285600
  H      3.746850  -13.331500   66.240600
  H      4.659580  -12.690600   67.495800
  S     10.331700  -11.497700   70.985400
  C     10.442100   -9.896220   71.574800
  C      9.398380   -9.143380   71.117800
  C      8.336870   -9.878020   70.424900
  C      8.779660  -11.202200   70.128800
  H      9.260100   -8.141350   71.365200
  C      7.021530   -9.283950   70.245000
  H      6.628570   -9.691060   69.330700
  H      6.999460   -8.227940   70.027300
  C      5.944300   -9.512240   71.293900
  H      5.086340   -9.006650   70.766300
  H      6.062190   -8.991400   72.191200
  C      5.548230  -10.926300   71.496500
  H      4.569990  -10.846800   72.007600
  H      6.267230  -11.570300   72.070000
  H      5.374620  -11.311600   70.487500
  H      7.253870  -15.475700   68.060500
  H     11.320800   -9.478210   72.046700

 Total Charge           Charge          ....    0
 Multiplicity           Mult            ....    1
 Number of Electrons    NEL             ....  134
 Basis Dimension        Dim             ....  322

ORBITAL ENERGIES
----------------

  NO   OCC          E(Eh)            E(eV)
   0   2.0000     -88.967187     -2420.9202
   1   2.0000     -88.965493     -2420.8741
   2   2.0000     -10.334789      -281.2239
   3   2.0000     -10.334148      -281.2065
   4   2.0000     -10.315542      -280.7002
   5   2.0000     -10.315518      -280.6995
   6   2.0000     -10.309582      -280.5380
   7   2.0000     -10.306818      -280.4628
   8   2.0000     -10.304351      -280.3957
   9   2.0000     -10.297904      -280.2202
  10   2.0000     -10.291574      -280.0480
  11   2.0000     -10.288315      -279.9593
  12   2.0000     -10.283094      -279.8172
  13   2.0000     -10.279180      -279.7107
  14   2.0000     -10.272693      -279.5342
  15   2.0000     -10.271193      -279.4934
  16   2.0000      -8.080719      -219.8875
  17   2.0000      -8.080191      -219.8732
  18   2.0000      -6.039444      -164.3416
  19   2.0000      -6.038762      -164.3231
  20   2.0000      -6.035595      -164.2369
  21   2.0000      -6.034622      -164.2104
  22   2.0000      -6.031107      -164.1148
  23   2.0000      -6.030950      -164.1105
  24   2.0000      -0.999721       -27.2038
  25   2.0000      -0.976898       -26.5828
  26   2.0000      -0.921042       -25.0628
  27   2.0000      -0.911238       -24.7960
  28   2.0000      -0.868952       -23.6454
  29   2.0000      -0.852712       -23.2035
  30   2.0000      -0.837673       -22.7942
  31   2.0000      -0.813436       -22.1347
  32   2.0000      -0.789421       -21.4812
  33   2.0000      -0.777859       -21.1666
  34   2.0000      -0.713953       -19.4276
  35   2.0000      -0.698822       -19.0159
  36   2.0000      -0.691540       -18.8177
  37   2.0000      -0.656907       -17.8753
  38   2.0000      -0.634886       -17.2761
  39   2.0000      -0.618950       -16.8425
  40   2.0000      -0.602936       -16.4067
  41   2.0000      -0.561974       -15.2921
  42   2.0000      -0.557777       -15.1779
  43   2.0000      -0.554798       -15.0968
  44   2.0000      -0.547757       -14.9052
  45   2.0000      -0.536001       -14.5853
  46   2.0000      -0.518466       -14.1082
  47   2.0000      -0.515192       -14.0191
  48   2.0000      -0.502020       -13.6607
  49   2.0000      -0.500353       -13.6153
  50   2.0000      -0.490774       -13.3546
  51   2.0000      -0.483736       -13.1631
  52   2.0000      -0.470867       -12.8129
  53   2.0000      -0.463946       -12.6246
  54   2.0000      -0.453048       -12.3281
  55   2.0000      -0.449206       -12.2235
  56   2.0000      -0.440291       -11.9809
  57   2.0000      -0.438136       -11.9223
  58   2.0000      -0.432082       -11.7576
  59   2.0000      -0.428351       -11.6560
  60   2.0000      -0.419720       -11.4212
  61   2.0000      -0.409187       -11.1345
  62   2.0000      -0.405294       -11.0286
  63   2.0000      -0.350978        -9.5506
  64   2.0000      -0.327071        -8.9001
  65   2.0000      -0.324472        -8.8293
  66   2.0000      -0.286744        -7.8027
  67   0.0000       0.019360         0.5268
  68   0.0000       0.069580         1.8934
  69   0.0000       0.098832         2.6893
  70   0.0000       0.117400         3.1946
  71   0.0000       0.130981         3.5642

MULLIKEN ATOMIC CHARGES
-----------------------
   0 S :    0.108633
   1 C :   -0.096866
   2 C :   -0.124079
   3 C :    0.035703
   4 C :   -0.164023
   5 H :    0.017406
   6 C :    0.046208
   7 H :    0.023984
   8 H :    0.061595
   9 C :   -0.090913
  10 H :    0.015012
  11 H :    0.030724
  12 C :    0.001120
  13 H :    0.015583
  14 H :    0.025050
  15 H :    0.040661
  16 S :    0.108364
  17 C :   -0.078475
  18 C :   -0.003156
  19 C :   -0.050592
  20 C :   -0.156251
  21 H :   -0.006534
  22 C :    0.086269
  23 H :   -0.009971
  24 H :    0.014839
  25 C :   -0.065176
  26 H :    0.024167
  27 H :    0.015485
  28 C :   -0.041167
  29 H :    0.033669
  30 H :    0.054426
  31 H :    0.027175
  32 H :    0.035950
  33 H :    0.065181
Sum of atomic charges:    0.0000000

LOEWDIN ATOMIC CHARGES
----------------------
   0 S :    0.376322
   1 C :   -0.186948
   2 C :   -0.058201
   3 C :   -0.062044
   4 C :   -0.180301
   5 H :    0.023236
   6 C :   -0.041654
   7 H :    0.030856
   8 H :    0.047289
   9 C :   -0.048884
  10 H :    0.022144
  11 H :    0.029900
  12 C :   -0.048842
  13 H :    0.012889
  14 H :    0.022559
  15 H :    0.030793
  16 S :    0.406597
  17 C :   -0.194637
  18 C :   -0.065140
  19 C :   -0.045286
  20 C :   -0.191899
  21 H :    0.017892
  22 C :   -0.043736
  23 H :    0.027486
  24 H :    0.032639
  25 C :   -0.033921
  26 H :    0.033209
  27 H :    0.011721
  28 C :   -0.067447
  29 H :    0.031678
  30 H :    0.030491
  31 H :    0.025587
  32 H :    0.021266
  33 H :    0.034387

  Mayer bond orders larger than 0.100000
B(  0-S ,  1-C ) :   1.1154 B(  0-S ,  4-C ) :   1.1231 B(  1-C ,  2-C ) :   1.6446
B(  1-C , 32-H ) :   0.9622 B(  2-C ,  3-C ) :   1.2050 B(  2-C ,  6-C ) :   1.0183
B(  3-C ,  4-C ) :   1.5981 B(  3-C ,  5-H ) :   0.9826 B(  4-C , 20-C ) :   1.0975
B(  6-C ,  7-H ) :   0.9415 B(  6-C ,  8-H ) :   0.9346 B(  6-C ,  9-C ) :   1.0760
B(  9-C , 10-H ) :   0.9497 B(  9-C , 11-H ) :   0.9533 B(  9-C , 12-C ) :   1.0602
B( 12-C , 13-H ) :   0.9765 B( 12-C , 14-H ) :   0.9762 B( 12-C , 15-H ) :   0.9752
B( 16-S , 17-C ) :   1.1583 B( 16-S , 20-C ) :   1.1272 B( 17-C , 18-C ) :   1.6018
B( 17-C , 33-H ) :   0.9645 B( 18-C , 19-C ) :   1.2462 B( 18-C , 21-H ) :   0.9933
B( 19-C , 20-C ) :   1.5454 B( 19-C , 22-C ) :   1.0699 B( 22-C , 23-H ) :   0.9125
B( 22-C , 24-H ) :   0.9227 B( 22-C , 25-C ) :   1.0802 B( 25-C , 26-H ) :   0.9494
B( 25-C , 27-H ) :   0.9543 B( 25-C , 28-C ) :   1.0870 B( 28-C , 29-H ) :   0.9686
B( 28-C , 30-H ) :   0.9708 B( 28-C , 31-H ) :   0.9696

Dispersion correction           -0.015803462
FINAL SINGLE POINT ENERGY     -1339.855134188613

DIPOLE MOMENT
-------------
                                X             Y             Z
Electronic contribution:     22.55222      -7.19905      11.53691
Nuclear contribution   :    -23.01286       7.72798     -11.90700
                        -----------------------------------------
Total Dipole Moment    :     -0.46065       0.52893      -0.37009
                        -----------------------------------------
Magnitude (a.u.)       :      0.79305
Magnitude (Debye)      :      2.01578

Rotational constants in cm-1:     0.020154     0.009239     0.007754
Rotational constants in MHz :   604.200699   276.992544   232.444603

                             ****ORCA TERMINATED NORMALLY****
TOTAL RUN TIME: 0 days 0 hours 0 minutes 37 seconds 201 msec
