                         Program Version 4.2.1 -  RELEASE  -
|  1> ! wB97X-D3 SP def2-SVP
|  2> %pal
|  3> nprocs 16
|  4> end
|  5>
|  6> * xyz 0 1
|  7> S 	 -50.7526 	 46.8754 	 105.834
|  8> C 	 -50.0943 	 48.3545 	 106.428
|  9> C 	 -49.8512 	 48.406 	 107.749
| 10> C 	 -50.2172 	 47.0825 	 108.31
| 11> C 	 -50.8022 	 46.2301 	 107.464
| 12> H 	 -50.0395 	 46.7025 	 109.341
| 13> C 	 -49.3293 	 49.5518 	 108.566
| 14> H 	 -49.2732 	 50.4926 	 107.959
| 15> H 	 -48.3053 	 49.2028 	 108.814
| 16> C 	 -49.9365 	 49.8824 	 109.855
| 17> H 	 -50.7479 	 50.5734 	 109.685
| 18> H 	 -50.3904 	 49.0544 	 110.276
| 19> C 	 -49.0103 	 50.639 	 110.844
| 20> H 	 -48.7708 	 51.6777 	 110.502
| 21> H 	 -49.1854 	 50.663 	 111.905
| 22> H 	 -48.1069 	 50.0729 	 110.71
| 23> S 	 -51.1074 	 43.8187 	 106.298
| 24> C 	 -51.6442 	 42.3747 	 107.178
| 25> C 	 -51.8184 	 42.7551 	 108.504
| 26> C 	 -51.4137 	 44.0784 	 108.872
| 27> C 	 -51.1503 	 44.8379 	 107.743
| 28> H 	 -52.1055 	 41.9816 	 109.171
| 29> C 	 -51.4253 	 44.6036 	 110.287
| 30> H 	 -52.2214 	 44.0926 	 110.768
| 31> H 	 -51.9714 	 45.5754 	 110.3
| 32> C 	 -50.1001 	 44.3772 	 111.093
| 33> H 	 -49.5523 	 45.2997 	 110.876
| 34> H 	 -49.6785 	 43.3497 	 110.914
| 35> C 	 -50.3723 	 44.4273 	 112.601
| 36> H 	 -49.4741 	 44.5471 	 113.109
| 37> H 	 -50.9437 	 43.5854 	 112.998
| 38> H 	 -51.002 	 45.221 	 112.841
| 39> H 	 -49.9302 	 49.1935 	 105.745
| 40> H 	 -51.7586 	 41.4385 	 106.666
| 41> *
| 42>
| 43>                          ****END OF INPUT****

CARTESIAN COORDINATES (ANGSTROEM)
---------------------------------
  S    -50.752600   46.875400  105.834000
  C    -50.094300   48.354500  106.428000
  C    -49.851200   48.406000  107.749000
  C    -50.217200   47.082500  108.310000
  C    -50.802200   46.230100  107.464000
  H    -50.039500   46.702500  109.341000
  C    -49.329300   49.551800  108.566000
  H    -49.273200   50.492600  107.959000
  H    -48.305300   49.202800  108.814000
  C    -49.936500   49.882400  109.855000
  H    -50.747900   50.573400  109.685000
  H    -50.390400   49.054400  110.276000
  C    -49.010300   50.639000  110.844000
  H    -48.770800   51.677700  110.502000
  H    -49.185400   50.663000  111.905000
  H    -48.106900   50.072900  110.710000
  S    -51.107400   43.818700  106.298000
  C    -51.644200   42.374700  107.178000
  C    -51.818400   42.755100  108.504000
  C    -51.413700   44.078400  108.872000
  C    -51.150300   44.837900  107.743000
  H    -52.105500   41.981600  109.171000
  C    -51.425300   44.603600  110.287000
  H    -52.221400   44.092600  110.768000
  H    -51.971400   45.575400  110.300000
  C    -50.100100   44.377200  111.093000
  H    -49.552300   45.299700  110.876000
  H    -49.678500   43.349700  110.914000
  C    -50.372300   44.427300  112.601000
  H    -49.474100   44.547100  113.109000
  H    -50.943700   43.585400  112.998000
  H    -51.002000   45.221000  112.841000
  H    -49.930200   49.193500  105.745000
  H    -51.758600   41.438500  106.666000

 Total Charge           Charge          ....    0
 Multiplicity           Mult            ....    1
 Number of Electrons    NEL             ....  134
 Basis Dimension        Dim             ....  322

ORBITAL ENERGIES
----------------

  NO   OCC          E(Eh)            E(eV)
   0   2.0000     -88.962038     -2420.7801
   1   2.0000     -88.958824     -2420.6927
   2   2.0000     -10.329105      -281.0692
   3   2.0000     -10.325191      -280.9627
   4   2.0000     -10.319400      -280.8052
   5   2.0000     -10.310330      -280.5583
   6   2.0000     -10.304651      -280.4038
   7   2.0000     -10.304613      -280.4028
   8   2.0000     -10.299708      -280.2693
   9   2.0000     -10.296454      -280.1807
  10   2.0000     -10.295141      -280.1450
  11   2.0000     -10.294798      -280.1357
  12   2.0000     -10.293253      -280.0937
  13   2.0000     -10.281279      -279.7678
  14   2.0000     -10.278073      -279.6806
  15   2.0000     -10.269375      -279.4439
  16   2.0000      -8.077634      -219.8036
  17   2.0000      -8.073414      -219.6888
  18   2.0000      -6.036340      -164.2572
  19   2.0000      -6.032250      -164.1459
  20   2.0000      -6.031978      -164.1385
  21   2.0000      -6.027898      -164.0274
  22   2.0000      -6.027885      -164.0271
  23   2.0000      -6.024175      -163.9261
  24   2.0000      -1.010360       -27.4933
  25   2.0000      -0.983647       -26.7664
  26   2.0000      -0.925016       -25.1710
  27   2.0000      -0.910616       -24.7791
  28   2.0000      -0.875192       -23.8152
  29   2.0000      -0.856926       -23.3181
  30   2.0000      -0.844587       -22.9824
  31   2.0000      -0.817967       -22.2580
  32   2.0000      -0.783810       -21.3286
  33   2.0000      -0.777960       -21.1694
  34   2.0000      -0.712345       -19.3839
  35   2.0000      -0.706134       -19.2149
  36   2.0000      -0.693779       -18.8787
  37   2.0000      -0.669391       -18.2151
  38   2.0000      -0.641311       -17.4510
  39   2.0000      -0.623233       -16.9590
  40   2.0000      -0.598582       -16.2882
  41   2.0000      -0.576279       -15.6814
  42   2.0000      -0.570183       -15.5155
  43   2.0000      -0.564362       -15.3571
  44   2.0000      -0.539785       -14.6883
  45   2.0000      -0.527974       -14.3669
  46   2.0000      -0.525306       -14.2943
  47   2.0000      -0.516701       -14.0601
  48   2.0000      -0.506846       -13.7920
  49   2.0000      -0.498476       -13.5642
  50   2.0000      -0.495927       -13.4949
  51   2.0000      -0.484076       -13.1724
  52   2.0000      -0.471256       -12.8235
  53   2.0000      -0.463490       -12.6122
  54   2.0000      -0.457273       -12.4430
  55   2.0000      -0.452199       -12.3049
  56   2.0000      -0.441957       -12.0263
  57   2.0000      -0.440383       -11.9834
  58   2.0000      -0.436349       -11.8737
  59   2.0000      -0.424188       -11.5428
  60   2.0000      -0.420211       -11.4345
  61   2.0000      -0.413845       -11.2613
  62   2.0000      -0.407561       -11.0903
  63   2.0000      -0.364290        -9.9128
  64   2.0000      -0.331301        -9.0152
  65   2.0000      -0.322858        -8.7854
  66   2.0000      -0.288044        -7.8381
  67   0.0000       0.026016         0.7079
  68   0.0000       0.085679         2.3314
  69   0.0000       0.102407         2.7866
  70   0.0000       0.117888         3.2079
  71   0.0000       0.128798         3.5048

MULLIKEN ATOMIC CHARGES
-----------------------
   0 S :    0.096934
   1 C :   -0.136468
   2 C :   -0.041635
   3 C :   -0.049741
   4 C :   -0.070313
   5 H :    0.003323
   6 C :    0.057595
   7 H :    0.031123
   8 H :    0.036104
   9 C :   -0.025143
  10 H :    0.022625
  11 H :    0.006035
  12 C :   -0.061929
  13 H :    0.037146
  14 H :    0.041468
  15 H :    0.009684
  16 S :    0.059389
  17 C :   -0.091943
  18 C :   -0.012784
  19 C :   -0.055548
  20 C :   -0.117365
  21 H :    0.006374
  22 C :    0.011243
  23 H :   -0.006099
  24 H :    0.040217
  25 C :   -0.046494
  26 H :    0.042915
  27 H :    0.059053
  28 C :   -0.014594
  29 H :    0.025489
  30 H :    0.028316
  31 H :    0.005740
  32 H :    0.046741
  33 H :    0.062539
Sum of atomic charges:   -0.0000000

LOEWDIN ATOMIC CHARGES
----------------------
   0 S :    0.393887
   1 C :   -0.194803
   2 C :   -0.060713
   3 C :   -0.067819
   4 C :   -0.189719
   5 H :    0.032197
   6 C :   -0.034803
   7 H :    0.037770
   8 H :    0.038380
   9 C :   -0.040464
  10 H :    0.025506
  11 H :    0.013637
  12 C :   -0.065110
  13 H :    0.030714
  14 H :    0.026694
  15 H :    0.019048
  16 S :    0.375698
  17 C :   -0.174597
  18 C :   -0.066403
  19 C :   -0.065067
  20 C :   -0.171578
  21 H :    0.024353
  22 C :   -0.050663
  23 H :    0.023926
  24 H :    0.041844
  25 C :   -0.030320
  26 H :    0.027048
  27 H :    0.041232
  28 C :   -0.059411
  29 H :    0.018918
  30 H :    0.026257
  31 H :    0.015844
  32 H :    0.029475
  33 H :    0.029041

  Mayer bond orders larger than 0.100000
B(  0-S ,  1-C ) :   1.1222 B(  0-S ,  4-C ) :   1.1114 B(  1-C ,  2-C ) :   1.6778
B(  1-C , 32-H ) :   0.9594 B(  2-C ,  3-C ) :   1.1608 B(  2-C ,  6-C ) :   1.0295
B(  3-C ,  4-C ) :   1.6565 B(  3-C ,  5-H ) :   0.9788 B(  4-C , 20-C ) :   1.0592
B(  6-C ,  7-H ) :   0.9416 B(  6-C ,  8-H ) :   0.9272 B(  6-C ,  9-C ) :   1.0695
B(  9-C , 10-H ) :   0.9493 B(  9-C , 11-H ) :   0.9542 B(  9-C , 12-C ) :   1.0645
B( 12-C , 13-H ) :   0.9765 B( 12-C , 14-H ) :   0.9770 B( 12-C , 15-H ) :   0.9788
B( 16-S , 17-C ) :   1.1399 B( 16-S , 20-C ) :   1.1398 B( 17-C , 18-C ) :   1.5932
B( 17-C , 20-C ) :   0.1028 B( 17-C , 33-H ) :   0.9772 B( 18-C , 19-C ) :   1.2419
B( 18-C , 21-H ) :   0.9928 B( 19-C , 20-C ) :   1.5883 B( 19-C , 22-C ) :   1.0437
B( 22-C , 23-H ) :   0.9285 B( 22-C , 24-H ) :   0.9288 B( 22-C , 25-C ) :   1.0402
B( 25-C , 26-H ) :   0.9518 B( 25-C , 27-H ) :   0.9565 B( 25-C , 28-C ) :   1.0892
B( 28-C , 29-H ) :   0.9735 B( 28-C , 30-H ) :   0.9738 B( 28-C , 31-H ) :   0.9692

Dispersion correction           -0.013654370
FINAL SINGLE POINT ENERGY     -1339.851699186132

DIPOLE MOMENT
-------------
                                X             Y             Z
Electronic contribution:     -6.70970     -12.62720     -30.33026
Nuclear contribution   :      6.83600      12.76126      31.13495
                        -----------------------------------------
Total Dipole Moment    :      0.12629       0.13407       0.80468
                        -----------------------------------------
Magnitude (a.u.)       :      0.82549
Magnitude (Debye)      :      2.09824

Rotational constants in cm-1:     0.016506     0.009764     0.006296
Rotational constants in MHz :   494.828317   292.726651   188.734356

                             ****ORCA TERMINATED NORMALLY****
TOTAL RUN TIME: 0 days 0 hours 0 minutes 28 seconds 670 msec
