                         Program Version 4.2.1 -  RELEASE  -
|  1> ! wB97X-D3 SP def2-SVP
|  2> %pal
|  3> nprocs 16
|  4> end
|  5>
|  6> * xyz 0 1
|  7> S 	 -0.389397 	 2.1514 	 83.32
|  8> C 	 -0.472347 	 0.44827 	 82.9362
|  9> C 	 0.783766 	 0.0163177 	 82.5584
| 10> C 	 1.81429 	 0.906401 	 82.862
| 11> C 	 1.38173 	 2.03547 	 83.4478
| 12> H 	 2.86689 	 0.836927 	 82.5239
| 13> C 	 1.07387 	 -1.31063 	 81.9431
| 14> H 	 0.109873 	 -1.69534 	 81.6166
| 15> H 	 1.27885 	 -1.94223 	 82.7797
| 16> C 	 2.29765 	 -1.5309 	 80.932
| 17> H 	 2.1674 	 -0.752971 	 80.1304
| 18> H 	 3.1769 	 -1.17282 	 81.4655
| 19> C 	 2.52664 	 -2.97698 	 80.4461
| 20> H 	 2.72061 	 -3.64255 	 81.3101
| 21> H 	 1.58541 	 -3.33371 	 80.1065
| 22> H 	 3.268 	 -3.1881 	 79.6114
| 23> S 	 1.94934 	 4.60859 	 82.7495
| 24> C 	 2.98064 	 5.52369 	 83.8336
| 25> C 	 3.59399 	 4.72736 	 84.7892
| 26> C 	 3.04487 	 3.41187 	 84.8377
| 27> C 	 2.12459 	 3.24572 	 83.8049
| 28> H 	 4.39688 	 5.14873 	 85.4525
| 29> C 	 3.74896 	 2.37128 	 85.7361
| 30> H 	 4.83951 	 2.50232 	 85.8085
| 31> H 	 3.41545 	 1.32881 	 85.3922
| 32> C 	 3.24204 	 2.37076 	 87.2159
| 33> H 	 3.56562 	 3.32415 	 87.6811
| 34> H 	 3.66477 	 1.50962 	 87.7218
| 35> C 	 1.7109 	 2.10667 	 87.3072
| 36> H 	 1.18735 	 2.84429 	 86.7304
| 37> H 	 1.25451 	 2.09575 	 88.3476
| 38> H 	 1.40575 	 1.16285 	 86.7424
| 39> H 	 -1.32814 	 -0.169603 	 82.7922
| 40> H 	 3.43947 	 6.46417 	 83.5338
| 41> *
| 42>
| 43>                          ****END OF INPUT****

CARTESIAN COORDINATES (ANGSTROEM)
---------------------------------
  S     -0.389397    2.151400   83.320000
  C     -0.472347    0.448270   82.936200
  C      0.783766    0.016318   82.558400
  C      1.814290    0.906401   82.862000
  C      1.381730    2.035470   83.447800
  H      2.866890    0.836927   82.523900
  C      1.073870   -1.310630   81.943100
  H      0.109873   -1.695340   81.616600
  H      1.278850   -1.942230   82.779700
  C      2.297650   -1.530900   80.932000
  H      2.167400   -0.752971   80.130400
  H      3.176900   -1.172820   81.465500
  C      2.526640   -2.976980   80.446100
  H      2.720610   -3.642550   81.310100
  H      1.585410   -3.333710   80.106500
  H      3.268000   -3.188100   79.611400
  S      1.949340    4.608590   82.749500
  C      2.980640    5.523690   83.833600
  C      3.593990    4.727360   84.789200
  C      3.044870    3.411870   84.837700
  C      2.124590    3.245720   83.804900
  H      4.396880    5.148730   85.452500
  C      3.748960    2.371280   85.736100
  H      4.839510    2.502320   85.808500
  H      3.415450    1.328810   85.392200
  C      3.242040    2.370760   87.215900
  H      3.565620    3.324150   87.681100
  H      3.664770    1.509620   87.721800
  C      1.710900    2.106670   87.307200
  H      1.187350    2.844290   86.730400
  H      1.254510    2.095750   88.347600
  H      1.405750    1.162850   86.742400
  H     -1.328140   -0.169603   82.792200
  H      3.439470    6.464170   83.533800

 Total Charge           Charge          ....    0
 Multiplicity           Mult            ....    1
 Number of Electrons    NEL             ....  134
 Basis Dimension        Dim             ....  322

ORBITAL ENERGIES
----------------

  NO   OCC          E(Eh)            E(eV)
   0   2.0000     -88.970717     -2421.0163
   1   2.0000     -88.964061     -2420.8352
   2   2.0000     -10.327338      -281.0212
   3   2.0000     -10.325789      -280.9790
   4   2.0000     -10.315301      -280.6936
   5   2.0000     -10.309922      -280.5472
   6   2.0000     -10.305778      -280.4345
   7   2.0000     -10.302676      -280.3501
   8   2.0000     -10.301091      -280.3069
   9   2.0000     -10.298650      -280.2405
  10   2.0000     -10.296403      -280.1794
  11   2.0000     -10.290769      -280.0261
  12   2.0000     -10.289239      -279.9844
  13   2.0000     -10.288717      -279.9702
  14   2.0000     -10.287297      -279.9316
  15   2.0000     -10.276510      -279.6380
  16   2.0000      -8.085572      -220.0196
  17   2.0000      -8.078463      -219.8262
  18   2.0000      -6.043960      -164.4645
  19   2.0000      -6.040239      -164.3633
  20   2.0000      -6.037005      -164.2752
  21   2.0000      -6.036270      -164.2553
  22   2.0000      -6.033310      -164.1747
  23   2.0000      -6.028901      -164.0547
  24   2.0000      -1.011243       -27.5173
  25   2.0000      -0.988047       -26.8861
  26   2.0000      -0.906247       -24.6602
  27   2.0000      -0.901469       -24.5302
  28   2.0000      -0.869135       -23.6504
  29   2.0000      -0.849834       -23.1252
  30   2.0000      -0.844522       -22.9806
  31   2.0000      -0.816361       -22.2143
  32   2.0000      -0.778341       -21.1797
  33   2.0000      -0.767632       -20.8883
  34   2.0000      -0.714080       -19.4311
  35   2.0000      -0.696011       -18.9394
  36   2.0000      -0.685828       -18.6623
  37   2.0000      -0.657283       -17.8856
  38   2.0000      -0.641410       -17.4537
  39   2.0000      -0.621250       -16.9051
  40   2.0000      -0.591233       -16.0883
  41   2.0000      -0.564062       -15.3489
  42   2.0000      -0.556224       -15.1356
  43   2.0000      -0.549728       -14.9589
  44   2.0000      -0.540178       -14.6990
  45   2.0000      -0.522705       -14.2235
  46   2.0000      -0.515373       -14.0240
  47   2.0000      -0.502975       -13.6867
  48   2.0000      -0.498209       -13.5570
  49   2.0000      -0.493488       -13.4285
  50   2.0000      -0.492608       -13.4046
  51   2.0000      -0.479604       -13.0507
  52   2.0000      -0.469865       -12.7857
  53   2.0000      -0.459182       -12.4950
  54   2.0000      -0.455854       -12.4044
  55   2.0000      -0.451578       -12.2881
  56   2.0000      -0.444725       -12.1016
  57   2.0000      -0.434374       -11.8199
  58   2.0000      -0.428307       -11.6548
  59   2.0000      -0.424363       -11.5475
  60   2.0000      -0.422163       -11.4876
  61   2.0000      -0.420268       -11.4361
  62   2.0000      -0.412181       -11.2160
  63   2.0000      -0.344096        -9.3633
  64   2.0000      -0.333046        -9.0626
  65   2.0000      -0.324343        -8.8258
  66   2.0000      -0.294724        -8.0198
  67   0.0000       0.034363         0.9351
  68   0.0000       0.053195         1.4475
  69   0.0000       0.098996         2.6938
  70   0.0000       0.112420         3.0591
  71   0.0000       0.132275         3.5994

MULLIKEN ATOMIC CHARGES
-----------------------
   0 S :    0.102626
   1 C :   -0.098757
   2 C :   -0.099191
   3 C :    0.029314
   4 C :   -0.159944
   5 H :    0.034997
   6 C :    0.061655
   7 H :    0.004940
   8 H :    0.028922
   9 C :   -0.088868
  10 H :    0.041586
  11 H :    0.033131
  12 C :   -0.043311
  13 H :    0.033159
  14 H :    0.018585
  15 H :    0.059371
  16 S :    0.128151
  17 C :   -0.090114
  18 C :   -0.071805
  19 C :    0.003046
  20 C :   -0.192146
  21 H :    0.043030
  22 C :    0.022690
  23 H :    0.048771
  24 H :    0.035404
  25 C :   -0.070004
  26 H :    0.034593
  27 H :    0.035040
  28 C :   -0.095062
  29 H :    0.031515
  30 H :    0.050636
  31 H :    0.036995
  32 H :    0.031735
  33 H :    0.059309
Sum of atomic charges:   -0.0000000

LOEWDIN ATOMIC CHARGES
----------------------
   0 S :    0.392614
   1 C :   -0.196681
   2 C :   -0.064427
   3 C :   -0.070109
   4 C :   -0.179069
   5 H :    0.042432
   6 C :   -0.036201
   7 H :    0.024566
   8 H :    0.031517
   9 C :   -0.040762
  10 H :    0.028413
  11 H :    0.020060
  12 C :   -0.071604
  13 H :    0.030766
  14 H :    0.020178
  15 H :    0.040347
  16 S :    0.418815
  17 C :   -0.195659
  18 C :   -0.068068
  19 C :   -0.060440
  20 C :   -0.206510
  21 H :    0.041099
  22 C :   -0.031841
  23 H :    0.035797
  24 H :    0.036478
  25 C :   -0.042175
  26 H :    0.021668
  27 H :    0.023353
  28 C :   -0.080694
  29 H :    0.018470
  30 H :    0.032885
  31 H :    0.032965
  32 H :    0.023995
  33 H :    0.027822

  Mayer bond orders larger than 0.100000
B(  0-S ,  1-C ) :   1.1272 B(  0-S ,  4-C ) :   1.1440 B(  1-C ,  2-C ) :   1.6100
B(  1-C ,  4-C ) :   0.1034 B(  1-C , 32-H ) :   0.9727 B(  2-C ,  3-C ) :   1.2352
B(  2-C ,  6-C ) :   1.0263 B(  3-C ,  4-C ) :   1.6034 B(  3-C ,  5-H ) :   0.9849
B(  4-C , 20-C ) :   1.0051 B(  6-C ,  7-H ) :   0.9354 B(  6-C ,  8-H ) :   0.9318
B(  6-C ,  9-C ) :   1.0450 B(  9-C , 10-H ) :   0.9631 B(  9-C , 11-H ) :   0.9492
B(  9-C , 12-C ) :   1.0731 B( 12-C , 13-H ) :   0.9721 B( 12-C , 14-H ) :   0.9755
B( 12-C , 15-H ) :   0.9747 B( 16-S , 17-C ) :   1.1403 B( 16-S , 20-C ) :   1.1753
B( 17-C , 18-C ) :   1.6331 B( 17-C , 33-H ) :   0.9607 B( 18-C , 19-C ) :   1.2323
B( 18-C , 21-H ) :   0.9761 B( 19-C , 20-C ) :   1.5958 B( 19-C , 22-C ) :   1.0292
B( 22-C , 23-H ) :   0.9502 B( 22-C , 24-H ) :   0.9366 B( 22-C , 25-C ) :   1.0644
B( 25-C , 26-H ) :   0.9576 B( 25-C , 27-H ) :   0.9599 B( 25-C , 28-C ) :   1.0654
B( 28-C , 29-H ) :   0.9731 B( 28-C , 30-H ) :   0.9759 B( 28-C , 31-H ) :   0.9711

Dispersion correction           -0.014666271
FINAL SINGLE POINT ENERGY     -1339.858560232176

DIPOLE MOMENT
-------------
                                X             Y             Z
Electronic contribution:     -9.40107      21.65756      -5.09071
Nuclear contribution   :      9.93953     -22.13694       4.95782
                        -----------------------------------------
Total Dipole Moment    :      0.53847      -0.47938      -0.13288
                        -----------------------------------------
Magnitude (a.u.)       :      0.73308
Magnitude (Debye)      :      1.86334

Rotational constants in cm-1:     0.018941     0.007995     0.007421
Rotational constants in MHz :   567.850503   239.671120   222.479174

                             ****ORCA TERMINATED NORMALLY****
TOTAL RUN TIME: 0 days 0 hours 0 minutes 32 seconds 719 msec
