                         Program Version 4.2.1 -  RELEASE  -
|  1> ! wB97X-D3 SP def2-SVP
|  2> %pal
|  3> nprocs 16
|  4> end
|  5>
|  6> * xyz 0 1
|  7> S 	 -36.6289 	 69.4592 	 170.735
|  8> C 	 -35.2582 	 70.3832 	 170.148
|  9> C 	 -34.8745 	 71.2556 	 171.169
| 10> C 	 -35.6172 	 71.1391 	 172.416
| 11> C 	 -36.543 	 70.1592 	 172.367
| 12> H 	 -35.5036 	 71.5836 	 173.395
| 13> C 	 -33.8728 	 72.3861 	 170.885
| 14> H 	 -34.1045 	 73.0838 	 171.662
| 15> H 	 -34.2787 	 72.9825 	 170.038
| 16> C 	 -32.355 	 72.098 	 170.886
| 17> H 	 -32.1974 	 71.1478 	 171.311
| 18> H 	 -32.0374 	 72.1393 	 169.882
| 19> C 	 -31.4325 	 73.1423 	 171.564
| 20> H 	 -31.5941 	 74.0947 	 171.103
| 21> H 	 -31.6632 	 73.5125 	 172.52
| 22> H 	 -30.3554 	 72.9013 	 171.442
| 23> S 	 -38.8609 	 70.5543 	 173.813
| 24> C 	 -39.2803 	 69.3191 	 175.002
| 25> C 	 -38.2334 	 68.4875 	 175.245
| 26> C 	 -37.1527 	 68.6491 	 174.356
| 27> C 	 -37.3747 	 69.717 	 173.439
| 28> H 	 -38.1837 	 67.7221 	 175.957
| 29> C 	 -35.7621 	 67.9779 	 174.621
| 30> H 	 -35.0163 	 68.4007 	 174.035
| 31> H 	 -35.8392 	 66.9239 	 174.3
| 32> C 	 -35.2352 	 67.983 	 176.062
| 33> H 	 -34.3226 	 67.3138 	 176.15
| 34> H 	 -35.9423 	 67.541 	 176.744
| 35> C 	 -34.9265 	 69.4423 	 176.489
| 36> H 	 -35.9054 	 69.8765 	 176.635
| 37> H 	 -34.4312 	 70.1186 	 175.71
| 38> H 	 -34.4288 	 69.5573 	 177.492
| 39> H 	 -34.8848 	 70.3752 	 169.134
| 40> H 	 -40.2756 	 69.2804 	 175.503
| 41> *
| 42>
| 43>                          ****END OF INPUT****

CARTESIAN COORDINATES (ANGSTROEM)
---------------------------------
  S    -36.628900   69.459200  170.735000
  C    -35.258200   70.383200  170.148000
  C    -34.874500   71.255600  171.169000
  C    -35.617200   71.139100  172.416000
  C    -36.543000   70.159200  172.367000
  H    -35.503600   71.583600  173.395000
  C    -33.872800   72.386100  170.885000
  H    -34.104500   73.083800  171.662000
  H    -34.278700   72.982500  170.038000
  C    -32.355000   72.098000  170.886000
  H    -32.197400   71.147800  171.311000
  H    -32.037400   72.139300  169.882000
  C    -31.432500   73.142300  171.564000
  H    -31.594100   74.094700  171.103000
  H    -31.663200   73.512500  172.520000
  H    -30.355400   72.901300  171.442000
  S    -38.860900   70.554300  173.813000
  C    -39.280300   69.319100  175.002000
  C    -38.233400   68.487500  175.245000
  C    -37.152700   68.649100  174.356000
  C    -37.374700   69.717000  173.439000
  H    -38.183700   67.722100  175.957000
  C    -35.762100   67.977900  174.621000
  H    -35.016300   68.400700  174.035000
  H    -35.839200   66.923900  174.300000
  C    -35.235200   67.983000  176.062000
  H    -34.322600   67.313800  176.150000
  H    -35.942300   67.541000  176.744000
  C    -34.926500   69.442300  176.489000
  H    -35.905400   69.876500  176.635000
  H    -34.431200   70.118600  175.710000
  H    -34.428800   69.557300  177.492000
  H    -34.884800   70.375200  169.134000
  H    -40.275600   69.280400  175.503000

 Total Charge           Charge          ....    0
 Multiplicity           Mult            ....    1
 Number of Electrons    NEL             ....  134
 Basis Dimension        Dim             ....  322

ORBITAL ENERGIES
----------------

  NO   OCC          E(Eh)            E(eV)
   0   2.0000     -88.969092     -2420.9721
   1   2.0000     -88.961128     -2420.7554
   2   2.0000     -10.325686      -280.9762
   3   2.0000     -10.323640      -280.9205
   4   2.0000     -10.322779      -280.8971
   5   2.0000     -10.316583      -280.7285
   6   2.0000     -10.306800      -280.4623
   7   2.0000     -10.306220      -280.4465
   8   2.0000     -10.294825      -280.1364
   9   2.0000     -10.293717      -280.1063
  10   2.0000     -10.290113      -280.0082
  11   2.0000     -10.289140      -279.9817
  12   2.0000     -10.288380      -279.9611
  13   2.0000     -10.283051      -279.8160
  14   2.0000     -10.281608      -279.7768
  15   2.0000     -10.273584      -279.5584
  16   2.0000      -8.083648      -219.9672
  17   2.0000      -8.075529      -219.7463
  18   2.0000      -6.042074      -164.4132
  19   2.0000      -6.038223      -164.3084
  20   2.0000      -6.034466      -164.2062
  21   2.0000      -6.034107      -164.1964
  22   2.0000      -6.029998      -164.0846
  23   2.0000      -6.026292      -163.9837
  24   2.0000      -1.005815       -27.3696
  25   2.0000      -0.981965       -26.7206
  26   2.0000      -0.906411       -24.6647
  27   2.0000      -0.905249       -24.6331
  28   2.0000      -0.874935       -23.8082
  29   2.0000      -0.845279       -23.0012
  30   2.0000      -0.844351       -22.9759
  31   2.0000      -0.816830       -22.2271
  32   2.0000      -0.781426       -21.2637
  33   2.0000      -0.767848       -20.8942
  34   2.0000      -0.711829       -19.3699
  35   2.0000      -0.704808       -19.1788
  36   2.0000      -0.695229       -18.9181
  37   2.0000      -0.660268       -17.9668
  38   2.0000      -0.648043       -17.6341
  39   2.0000      -0.610230       -16.6052
  40   2.0000      -0.600147       -16.3308
  41   2.0000      -0.565629       -15.3915
  42   2.0000      -0.556346       -15.1390
  43   2.0000      -0.549146       -14.9430
  44   2.0000      -0.539068       -14.6688
  45   2.0000      -0.527856       -14.3637
  46   2.0000      -0.524033       -14.2597
  47   2.0000      -0.515732       -14.0338
  48   2.0000      -0.506078       -13.7711
  49   2.0000      -0.490840       -13.3564
  50   2.0000      -0.486744       -13.2450
  51   2.0000      -0.476855       -12.9759
  52   2.0000      -0.471053       -12.8180
  53   2.0000      -0.467085       -12.7100
  54   2.0000      -0.455548       -12.3961
  55   2.0000      -0.446254       -12.1432
  56   2.0000      -0.443994       -12.0817
  57   2.0000      -0.435588       -11.8530
  58   2.0000      -0.434116       -11.8129
  59   2.0000      -0.430792       -11.7224
  60   2.0000      -0.416276       -11.3274
  61   2.0000      -0.411520       -11.1980
  62   2.0000      -0.405661       -11.0386
  63   2.0000      -0.338769        -9.2184
  64   2.0000      -0.336357        -9.1528
  65   2.0000      -0.314795        -8.5660
  66   2.0000      -0.308361        -8.3909
  67   0.0000       0.040415         1.0997
  68   0.0000       0.049200         1.3388
  69   0.0000       0.104304         2.8383
  70   0.0000       0.120013         3.2657
  71   0.0000       0.131496         3.5782

MULLIKEN ATOMIC CHARGES
-----------------------
   0 S :    0.104457
   1 C :   -0.108227
   2 C :   -0.111686
   3 C :    0.051873
   4 C :   -0.161043
   5 H :    0.016497
   6 C :    0.035077
   7 H :   -0.000964
   8 H :    0.039162
   9 C :    0.014225
  10 H :    0.027848
  11 H :    0.021969
  12 C :   -0.061636
  13 H :    0.007678
  14 H :    0.014186
  15 H :    0.046331
  16 S :    0.124187
  17 C :   -0.107863
  18 C :    0.009353
  19 C :   -0.028953
  20 C :   -0.219579
  21 H :   -0.004301
  22 C :    0.088613
  23 H :    0.016846
  24 H :    0.034429
  25 C :   -0.077515
  26 H :    0.041531
  27 H :    0.022346
  28 C :   -0.089012
  29 H :    0.031976
  30 H :    0.045099
  31 H :    0.044922
  32 H :    0.056603
  33 H :    0.075572
Sum of atomic charges:   -0.0000000

LOEWDIN ATOMIC CHARGES
----------------------
   0 S :    0.389678
   1 C :   -0.191307
   2 C :   -0.063442
   3 C :   -0.063752
   4 C :   -0.190490
   5 H :    0.036566
   6 C :   -0.042366
   7 H :    0.024196
   8 H :    0.037245
   9 C :   -0.029068
  10 H :    0.020357
  11 H :    0.023835
  12 C :   -0.070864
  13 H :    0.022964
  14 H :    0.016184
  15 H :    0.033924
  16 S :    0.411378
  17 C :   -0.180668
  18 C :   -0.069720
  19 C :   -0.045645
  20 C :   -0.213118
  21 H :    0.023007
  22 C :   -0.022986
  23 H :    0.020911
  24 H :    0.035374
  25 C :   -0.040797
  26 H :    0.031507
  27 H :    0.017712
  28 C :   -0.080273
  29 H :    0.025029
  30 H :    0.031987
  31 H :    0.030384
  32 H :    0.032849
  33 H :    0.039408

  Mayer bond orders larger than 0.100000
B(  0-S ,  1-C ) :   1.1352 B(  0-S ,  4-C ) :   1.1319 B(  1-C ,  2-C ) :   1.6143
B(  1-C , 32-H ) :   0.9775 B(  2-C ,  3-C ) :   1.2044 B(  2-C ,  6-C ) :   1.0189
B(  3-C ,  4-C ) :   1.6226 B(  3-C ,  5-H ) :   0.9917 B(  4-C , 20-C ) :   1.0400
B(  6-C ,  7-H ) :   0.9464 B(  6-C ,  8-H ) :   0.9426 B(  6-C ,  9-C ) :   1.0338
B(  9-C , 10-H ) :   0.9655 B(  9-C , 11-H ) :   0.9539 B(  9-C , 12-C ) :   1.0838
B( 12-C , 13-H ) :   0.9698 B( 12-C , 14-H ) :   0.9739 B( 12-C , 15-H ) :   0.9765
B( 16-S , 17-C ) :   1.1574 B( 16-S , 20-C ) :   1.1598 B( 17-C , 18-C ) :   1.5759
B( 17-C , 20-C ) :   0.1060 B( 17-C , 33-H ) :   0.9647 B( 18-C , 19-C ) :   1.2780
B( 18-C , 21-H ) :   0.9943 B( 19-C , 20-C ) :   1.5583 B( 19-C , 22-C ) :   1.0293
B( 22-C , 23-H ) :   0.9432 B( 22-C , 24-H ) :   0.9281 B( 22-C , 25-C ) :   1.0806
B( 25-C , 26-H ) :   0.9551 B( 25-C , 27-H ) :   0.9527 B( 25-C , 28-C ) :   1.0567
B( 28-C , 29-H ) :   0.9741 B( 28-C , 30-H ) :   0.9762 B( 28-C , 31-H ) :   0.9740

Dispersion correction           -0.014745700
FINAL SINGLE POINT ENERGY     -1339.855775703636

DIPOLE MOMENT
-------------
                                X             Y             Z
Electronic contribution:    -25.87791      -5.59200      -8.56004
Nuclear contribution   :     26.24369       5.69017       8.87745
                        -----------------------------------------
Total Dipole Moment    :      0.36578       0.09817       0.31741
                        -----------------------------------------
Magnitude (a.u.)       :      0.49415
Magnitude (Debye)      :      1.25602

Rotational constants in cm-1:     0.019239     0.008139     0.006776
Rotational constants in MHz :   576.759258   244.004174   203.133438

                             ****ORCA TERMINATED NORMALLY****
TOTAL RUN TIME: 0 days 0 hours 0 minutes 31 seconds 605 msec
