                         Program Version 4.2.1 -  RELEASE  -
|  1> ! wB97X-D3 SP def2-SVP
|  2> %pal
|  3> nprocs 16
|  4> end
|  5>
|  6> * xyz 0 1
|  7> S 	 -79.2599 	 43.3424 	 123.71
|  8> C 	 -80.8372 	 42.9081 	 123.201
|  9> C 	 -81.4167 	 43.8965 	 122.423
| 10> C 	 -80.4425 	 44.955 	 122.171
| 11> C 	 -79.1873 	 44.7551 	 122.667
| 12> H 	 -80.6478 	 45.818 	 121.532
| 13> C 	 -82.8597 	 43.9597 	 122.013
| 14> H 	 -83.1305 	 44.8452 	 122.497
| 15> H 	 -83.4139 	 43.269 	 122.642
| 16> C 	 -83.1389 	 43.8966 	 120.476
| 17> H 	 -84.0732 	 44.4651 	 120.214
| 18> H 	 -82.3789 	 44.4774 	 119.995
| 19> C 	 -83.0259 	 42.503 	 119.829
| 20> H 	 -83.6476 	 41.7564 	 120.167
| 21> H 	 -83.3384 	 42.6693 	 118.792
| 22> H 	 -82.0025 	 42.1932 	 119.841
| 23> S 	 -77.8977 	 47.1639 	 122.542
| 24> C 	 -76.2852 	 47.2904 	 121.927
| 25> C 	 -75.6915 	 46.0782 	 121.994
| 26> C 	 -76.6475 	 45.0617 	 121.999
| 27> C 	 -77.9293 	 45.4892 	 122.374
| 28> H 	 -74.6374 	 45.9439 	 121.78
| 29> C 	 -76.2999 	 43.623 	 121.754
| 30> H 	 -76.5809 	 43.0056 	 122.564
| 31> H 	 -75.2382 	 43.6166 	 121.738
| 32> C 	 -77.029 	 42.9416 	 120.545
| 33> H 	 -78.0715 	 43.1678 	 120.565
| 34> H 	 -76.9293 	 41.8608 	 120.69
| 35> C 	 -76.5883 	 43.3976 	 119.138
| 36> H 	 -75.5726 	 43.241 	 118.825
| 37> H 	 -76.7944 	 44.474 	 118.943
| 38> H 	 -77.2487 	 42.9627 	 118.443
| 39> H 	 -81.2516 	 41.96 	 123.556
| 40> H 	 -75.8269 	 48.2711 	 121.834
| 41> *
| 42>
| 43>                          ****END OF INPUT****

CARTESIAN COORDINATES (ANGSTROEM)
---------------------------------
  S    -79.259900   43.342400  123.710000
  C    -80.837200   42.908100  123.201000
  C    -81.416700   43.896500  122.423000
  C    -80.442500   44.955000  122.171000
  C    -79.187300   44.755100  122.667000
  H    -80.647800   45.818000  121.532000
  C    -82.859700   43.959700  122.013000
  H    -83.130500   44.845200  122.497000
  H    -83.413900   43.269000  122.642000
  C    -83.138900   43.896600  120.476000
  H    -84.073200   44.465100  120.214000
  H    -82.378900   44.477400  119.995000
  C    -83.025900   42.503000  119.829000
  H    -83.647600   41.756400  120.167000
  H    -83.338400   42.669300  118.792000
  H    -82.002500   42.193200  119.841000
  S    -77.897700   47.163900  122.542000
  C    -76.285200   47.290400  121.927000
  C    -75.691500   46.078200  121.994000
  C    -76.647500   45.061700  121.999000
  C    -77.929300   45.489200  122.374000
  H    -74.637400   45.943900  121.780000
  C    -76.299900   43.623000  121.754000
  H    -76.580900   43.005600  122.564000
  H    -75.238200   43.616600  121.738000
  C    -77.029000   42.941600  120.545000
  H    -78.071500   43.167800  120.565000
  H    -76.929300   41.860800  120.690000
  C    -76.588300   43.397600  119.138000
  H    -75.572600   43.241000  118.825000
  H    -76.794400   44.474000  118.943000
  H    -77.248700   42.962700  118.443000
  H    -81.251600   41.960000  123.556000
  H    -75.826900   48.271100  121.834000

 Total Charge           Charge          ....    0
 Multiplicity           Mult            ....    1
 Number of Electrons    NEL             ....  134
 Basis Dimension        Dim             ....  322

ORBITAL ENERGIES
----------------

  NO   OCC          E(Eh)            E(eV)
   0   2.0000     -88.961445     -2420.7640
   1   2.0000     -88.960524     -2420.7389
   2   2.0000     -10.331053      -281.1223
   3   2.0000     -10.321507      -280.8625
   4   2.0000     -10.314562      -280.6735
   5   2.0000     -10.312439      -280.6157
   6   2.0000     -10.303971      -280.3853
   7   2.0000     -10.296094      -280.1710
   8   2.0000     -10.295669      -280.1594
   9   2.0000     -10.293080      -280.0889
  10   2.0000     -10.289494      -279.9914
  11   2.0000     -10.288441      -279.9627
  12   2.0000     -10.282036      -279.7884
  13   2.0000     -10.277304      -279.6597
  14   2.0000     -10.271376      -279.4983
  15   2.0000     -10.266668      -279.3702
  16   2.0000      -8.077958      -219.8124
  17   2.0000      -8.075955      -219.7579
  18   2.0000      -6.036146      -164.2519
  19   2.0000      -6.034411      -164.2047
  20   2.0000      -6.032205      -164.1446
  21   2.0000      -6.030297      -164.0927
  22   2.0000      -6.028954      -164.0562
  23   2.0000      -6.026805      -163.9977
  24   2.0000      -1.015915       -27.6445
  25   2.0000      -0.992908       -27.0184
  26   2.0000      -0.909972       -24.7616
  27   2.0000      -0.902525       -24.5590
  28   2.0000      -0.873583       -23.7714
  29   2.0000      -0.850357       -23.1394
  30   2.0000      -0.844493       -22.9798
  31   2.0000      -0.821031       -22.3414
  32   2.0000      -0.785087       -21.3633
  33   2.0000      -0.773680       -21.0529
  34   2.0000      -0.712600       -19.3908
  35   2.0000      -0.701850       -19.0983
  36   2.0000      -0.685583       -18.6557
  37   2.0000      -0.668090       -18.1797
  38   2.0000      -0.641690       -17.4613
  39   2.0000      -0.619994       -16.8709
  40   2.0000      -0.595671       -16.2090
  41   2.0000      -0.571565       -15.5531
  42   2.0000      -0.550952       -14.9922
  43   2.0000      -0.543976       -14.8023
  44   2.0000      -0.541002       -14.7214
  45   2.0000      -0.535204       -14.5636
  46   2.0000      -0.520772       -14.1709
  47   2.0000      -0.519761       -14.1434
  48   2.0000      -0.503571       -13.7029
  49   2.0000      -0.495553       -13.4847
  50   2.0000      -0.487782       -13.2732
  51   2.0000      -0.478053       -13.0085
  52   2.0000      -0.476574       -12.9682
  53   2.0000      -0.472410       -12.8549
  54   2.0000      -0.464340       -12.6353
  55   2.0000      -0.443137       -12.0584
  56   2.0000      -0.437551       -11.9064
  57   2.0000      -0.435587       -11.8529
  58   2.0000      -0.431285       -11.7358
  59   2.0000      -0.427513       -11.6332
  60   2.0000      -0.424339       -11.5469
  61   2.0000      -0.413974       -11.2648
  62   2.0000      -0.409184       -11.1345
  63   2.0000      -0.347818        -9.4646
  64   2.0000      -0.330605        -8.9962
  65   2.0000      -0.321954        -8.7608
  66   2.0000      -0.293864        -7.9964
  67   0.0000       0.029400         0.8000
  68   0.0000       0.077753         2.1158
  69   0.0000       0.114029         3.1029
  70   0.0000       0.121760         3.3133
  71   0.0000       0.137899         3.7524

MULLIKEN ATOMIC CHARGES
-----------------------
   0 S :    0.101398
   1 C :   -0.143992
   2 C :   -0.113768
   3 C :    0.023702
   4 C :   -0.150630
   5 H :    0.016862
   6 C :    0.113451
   7 H :    0.016855
   8 H :    0.008796
   9 C :   -0.078318
  10 H :    0.035968
  11 H :    0.020668
  12 C :   -0.010785
  13 H :    0.017891
  14 H :    0.029073
  15 H :    0.036828
  16 S :    0.109951
  17 C :   -0.108387
  18 C :   -0.009238
  19 C :   -0.094385
  20 C :   -0.128161
  21 H :    0.025997
  22 C :    0.118225
  23 H :    0.014715
  24 H :   -0.003428
  25 C :   -0.066213
  26 H :    0.034854
  27 H :    0.031335
  28 C :   -0.037608
  29 H :    0.026595
  30 H :    0.027993
  31 H :    0.014388
  32 H :    0.058173
  33 H :    0.061197
Sum of atomic charges:    0.0000000

LOEWDIN ATOMIC CHARGES
----------------------
   0 S :    0.411495
   1 C :   -0.204384
   2 C :   -0.065920
   3 C :   -0.064566
   4 C :   -0.195174
   5 H :    0.030111
   6 C :   -0.034129
   7 H :    0.031429
   8 H :    0.029902
   9 C :   -0.037988
  10 H :    0.028832
  11 H :    0.022986
  12 C :   -0.054093
  13 H :    0.011843
  14 H :    0.032794
  15 H :    0.026799
  16 S :    0.445605
  17 C :   -0.186715
  18 C :   -0.070695
  19 C :   -0.060019
  20 C :   -0.225094
  21 H :    0.034546
  22 C :   -0.030595
  23 H :    0.020335
  24 H :    0.022063
  25 C :   -0.028948
  26 H :    0.025958
  27 H :    0.025969
  28 C :   -0.068879
  29 H :    0.018171
  30 H :    0.030552
  31 H :    0.019825
  32 H :    0.030063
  33 H :    0.027921

  Mayer bond orders larger than 0.100000
B(  0-S ,  1-C ) :   1.1549 B(  0-S ,  4-C ) :   1.1447 B(  1-C ,  2-C ) :   1.5908
B(  1-C , 32-H ) :   0.9711 B(  2-C ,  3-C ) :   1.2333 B(  2-C ,  6-C ) :   1.0120
B(  3-C ,  4-C ) :   1.5978 B(  3-C ,  5-H ) :   0.9890 B(  4-C , 20-C ) :   1.0081
B(  6-C ,  7-H ) :   0.9310 B(  6-C ,  8-H ) :   0.9439 B(  6-C ,  9-C ) :   1.0479
B(  9-C , 10-H ) :   0.9599 B(  9-C , 11-H ) :   0.9603 B(  9-C , 12-C ) :   1.0704
B( 12-C , 13-H ) :   0.9797 B( 12-C , 14-H ) :   0.9711 B( 12-C , 15-H ) :   0.9765
B( 16-S , 17-C ) :   1.1884 B( 16-S , 20-C ) :   1.1752 B( 17-C , 18-C ) :   1.5553
B( 17-C , 20-C ) :   0.1041 B( 17-C , 33-H ) :   0.9688 B( 18-C , 19-C ) :   1.2951
B( 18-C , 21-H ) :   0.9822 B( 19-C , 20-C ) :   1.5343 B( 19-C , 22-C ) :   1.0518
B( 22-C , 23-H ) :   0.9276 B( 22-C , 24-H ) :   0.9310 B( 22-C , 25-C ) :   1.0592
B( 25-C , 26-H ) :   0.9570 B( 25-C , 27-H ) :   0.9584 B( 25-C , 28-C ) :   1.0766
B( 28-C , 29-H ) :   0.9789 B( 28-C , 30-H ) :   0.9725 B( 28-C , 31-H ) :   0.9718

Dispersion correction           -0.015175791
FINAL SINGLE POINT ENERGY     -1339.867791428801

DIPOLE MOMENT
-------------
                                X             Y             Z
Electronic contribution:      8.18029      12.67252      18.76668
Nuclear contribution   :     -8.37252     -12.79563     -19.09824
                        -----------------------------------------
Total Dipole Moment    :     -0.19223      -0.12311      -0.33156
                        -----------------------------------------
Magnitude (a.u.)       :      0.40254
Magnitude (Debye)      :      1.02319

Rotational constants in cm-1:     0.019975     0.008587     0.007788
Rotational constants in MHz :   598.846038   257.431688   233.487081

                             ****ORCA TERMINATED NORMALLY****
TOTAL RUN TIME: 0 days 0 hours 0 minutes 34 seconds 786 msec
