                         Program Version 4.2.1 -  RELEASE  -
|  1> ! wB97X-D3 SP def2-SVP
|  2> %pal
|  3> nprocs 16
|  4> end
|  5>
|  6> * xyz 0 1
|  7> S 	 1.8974 	 29.6617 	 42.4428
|  8> C 	 1.18332 	 28.5297 	 41.3007
|  9> C 	 0.23918 	 29.1165 	 40.4995
| 10> C 	 0.415714 	 30.5341 	 40.6211
| 11> C 	 1.26867 	 31.1 	 41.5684
| 12> H 	 -0.0735781 	 31.1588 	 39.954
| 13> C 	 -0.645695 	 28.4076 	 39.4653
| 14> H 	 -0.0533792 	 27.9807 	 38.675
| 15> H 	 -1.47285 	 29.0565 	 39.1338
| 16> C 	 -1.34312 	 27.1967 	 40.0267
| 17> H 	 -0.596813 	 26.5681 	 40.5482
| 18> H 	 -2.05005 	 27.5364 	 40.7838
| 19> C 	 -2.19356 	 26.312 	 39.0952
| 20> H 	 -2.6896 	 26.8329 	 38.3587
| 21> H 	 -1.63102 	 25.4706 	 38.6908
| 22> H 	 -2.83146 	 25.7468 	 39.7589
| 23> S 	 1.56143 	 33.3694 	 43.0834
| 24> C 	 2.01754 	 34.8263 	 42.3767
| 25> C 	 2.27157 	 34.6286 	 41.0616
| 26> C 	 2.20841 	 33.3024 	 40.6224
| 27> C 	 1.64681 	 32.4677 	 41.5809
| 28> H 	 2.56301 	 35.4714 	 40.4346
| 29> C 	 2.56115 	 32.8868 	 39.2096
| 30> H 	 1.83002 	 33.3598 	 38.6051
| 31> H 	 2.41741 	 31.8591 	 38.9708
| 32> C 	 3.98622 	 33.2551 	 38.8656
| 33> H 	 4.82338 	 32.9398 	 39.598
| 34> H 	 4.0482 	 34.3962 	 38.8895
| 35> C 	 4.49272 	 32.6692 	 37.4743
| 36> H 	 4.3499 	 31.5735 	 37.3833
| 37> H 	 5.57128 	 33.0573 	 37.2453
| 38> H 	 3.86996 	 33.1421 	 36.7685
| 39> H 	 1.34391 	 27.4734 	 41.4742
| 40> H 	 2.15809 	 35.7258 	 42.9425
| 41> *
| 42>
| 43>                          ****END OF INPUT****

CARTESIAN COORDINATES (ANGSTROEM)
---------------------------------
  S      1.897400   29.661700   42.442800
  C      1.183320   28.529700   41.300700
  C      0.239180   29.116500   40.499500
  C      0.415714   30.534100   40.621100
  C      1.268670   31.100000   41.568400
  H     -0.073578   31.158800   39.954000
  C     -0.645695   28.407600   39.465300
  H     -0.053379   27.980700   38.675000
  H     -1.472850   29.056500   39.133800
  C     -1.343120   27.196700   40.026700
  H     -0.596813   26.568100   40.548200
  H     -2.050050   27.536400   40.783800
  C     -2.193560   26.312000   39.095200
  H     -2.689600   26.832900   38.358700
  H     -1.631020   25.470600   38.690800
  H     -2.831460   25.746800   39.758900
  S      1.561430   33.369400   43.083400
  C      2.017540   34.826300   42.376700
  C      2.271570   34.628600   41.061600
  C      2.208410   33.302400   40.622400
  C      1.646810   32.467700   41.580900
  H      2.563010   35.471400   40.434600
  C      2.561150   32.886800   39.209600
  H      1.830020   33.359800   38.605100
  H      2.417410   31.859100   38.970800
  C      3.986220   33.255100   38.865600
  H      4.823380   32.939800   39.598000
  H      4.048200   34.396200   38.889500
  C      4.492720   32.669200   37.474300
  H      4.349900   31.573500   37.383300
  H      5.571280   33.057300   37.245300
  H      3.869960   33.142100   36.768500
  H      1.343910   27.473400   41.474200
  H      2.158090   35.725800   42.942500

 Total Charge           Charge          ....    0
 Multiplicity           Mult            ....    1
 Number of Electrons    NEL             ....  134
 Basis Dimension        Dim             ....  322

ORBITAL ENERGIES
----------------

  NO   OCC          E(Eh)            E(eV)
   0   2.0000     -88.962874     -2420.8029
   1   2.0000     -88.958729     -2420.6901
   2   2.0000     -10.329337      -281.0755
   3   2.0000     -10.323398      -280.9140
   4   2.0000     -10.317610      -280.7564
   5   2.0000     -10.310568      -280.5648
   6   2.0000     -10.304344      -280.3955
   7   2.0000     -10.301965      -280.3307
   8   2.0000     -10.297638      -280.2130
   9   2.0000     -10.296448      -280.1806
  10   2.0000     -10.290379      -280.0154
  11   2.0000     -10.287230      -279.9298
  12   2.0000     -10.286432      -279.9080
  13   2.0000     -10.285237      -279.8755
  14   2.0000     -10.285117      -279.8723
  15   2.0000     -10.274003      -279.5698
  16   2.0000      -8.076886      -219.7832
  17   2.0000      -8.075275      -219.7394
  18   2.0000      -6.035635      -164.2380
  19   2.0000      -6.033519      -164.1804
  20   2.0000      -6.031460      -164.1244
  21   2.0000      -6.029444      -164.0695
  22   2.0000      -6.027442      -164.0150
  23   2.0000      -6.026277      -163.9833
  24   2.0000      -1.012921       -27.5630
  25   2.0000      -0.987779       -26.8788
  26   2.0000      -0.916741       -24.9458
  27   2.0000      -0.910293       -24.7703
  28   2.0000      -0.876785       -23.8585
  29   2.0000      -0.848337       -23.0844
  30   2.0000      -0.844098       -22.9691
  31   2.0000      -0.814231       -22.1564
  32   2.0000      -0.788410       -21.4537
  33   2.0000      -0.777186       -21.1483
  34   2.0000      -0.708972       -19.2921
  35   2.0000      -0.696943       -18.9648
  36   2.0000      -0.693307       -18.8658
  37   2.0000      -0.656900       -17.8752
  38   2.0000      -0.643488       -17.5102
  39   2.0000      -0.622323       -16.9343
  40   2.0000      -0.606576       -16.5058
  41   2.0000      -0.582793       -15.8586
  42   2.0000      -0.567988       -15.4557
  43   2.0000      -0.556950       -15.1554
  44   2.0000      -0.530233       -14.4284
  45   2.0000      -0.527715       -14.3599
  46   2.0000      -0.521171       -14.1818
  47   2.0000      -0.513278       -13.9670
  48   2.0000      -0.509362       -13.8604
  49   2.0000      -0.505197       -13.7471
  50   2.0000      -0.494612       -13.4591
  51   2.0000      -0.482672       -13.1342
  52   2.0000      -0.476247       -12.9593
  53   2.0000      -0.473033       -12.8719
  54   2.0000      -0.457815       -12.4578
  55   2.0000      -0.447196       -12.1688
  56   2.0000      -0.443511       -12.0686
  57   2.0000      -0.432789       -11.7768
  58   2.0000      -0.429983       -11.7004
  59   2.0000      -0.422031       -11.4840
  60   2.0000      -0.416833       -11.3426
  61   2.0000      -0.413641       -11.2557
  62   2.0000      -0.398479       -10.8432
  63   2.0000      -0.344665        -9.3788
  64   2.0000      -0.330590        -8.9958
  65   2.0000      -0.327994        -8.9252
  66   2.0000      -0.294495        -8.0136
  67   0.0000       0.030824         0.8388
  68   0.0000       0.061885         1.6840
  69   0.0000       0.118935         3.2364
  70   0.0000       0.128432         3.4948
  71   0.0000       0.132766         3.6128

MULLIKEN ATOMIC CHARGES
-----------------------
   0 S :    0.098771
   1 C :   -0.152221
   2 C :   -0.048733
   3 C :    0.014214
   4 C :   -0.101274
   5 H :   -0.025148
   6 C :    0.121212
   7 H :    0.038711
   8 H :    0.030347
   9 C :   -0.167989
  10 H :    0.023192
  11 H :    0.030178
  12 C :    0.017790
  13 H :    0.021750
  14 H :    0.021461
  15 H :    0.023342
  16 S :    0.101855
  17 C :   -0.072305
  18 C :   -0.051440
  19 C :   -0.024708
  20 C :   -0.191850
  21 H :    0.019671
  22 C :    0.140562
  23 H :    0.023640
  24 H :    0.010388
  25 C :   -0.166493
  26 H :    0.053430
  27 H :    0.033566
  28 C :   -0.054406
  29 H :    0.050669
  30 H :    0.052253
  31 H :    0.016013
  32 H :    0.057579
  33 H :    0.055973
Sum of atomic charges:   -0.0000000

LOEWDIN ATOMIC CHARGES
----------------------
   0 S :    0.379182
   1 C :   -0.175067
   2 C :   -0.067562
   3 C :   -0.044651
   4 C :   -0.194103
   5 H :    0.012916
   6 C :   -0.029142
   7 H :    0.033914
   8 H :    0.034641
   9 C :   -0.046810
  10 H :    0.020982
  11 H :    0.022921
  12 C :   -0.057545
  13 H :    0.013540
  14 H :    0.026745
  15 H :    0.031787
  16 S :    0.429456
  17 C :   -0.194636
  18 C :   -0.081987
  19 C :   -0.044469
  20 C :   -0.201590
  21 H :    0.031505
  22 C :   -0.029635
  23 H :    0.031068
  24 H :    0.026297
  25 C :   -0.050710
  26 H :    0.034500
  27 H :    0.024654
  28 C :   -0.073238
  29 H :    0.029603
  30 H :    0.040038
  31 H :    0.013539
  32 H :    0.023412
  33 H :    0.030443

  Mayer bond orders larger than 0.100000
B(  0-S ,  1-C ) :   1.1651 B(  0-S ,  4-C ) :   1.0972 B(  1-C ,  2-C ) :   1.5805
B(  1-C , 32-H ) :   0.9635 B(  2-C ,  3-C ) :   1.2454 B(  2-C ,  6-C ) :   1.0223
B(  3-C ,  4-C ) :   1.5651 B(  3-C ,  5-H ) :   1.0071 B(  4-C , 20-C ) :   1.0952
B(  6-C ,  7-H ) :   0.9401 B(  6-C ,  8-H ) :   0.9385 B(  6-C ,  9-C ) :   1.0593
B(  9-C , 10-H ) :   0.9558 B(  9-C , 11-H ) :   0.9645 B(  9-C , 12-C ) :   1.0826
B( 12-C , 13-H ) :   0.9753 B( 12-C , 14-H ) :   0.9715 B( 12-C , 15-H ) :   0.9715
B( 16-S , 17-C ) :   1.1869 B( 16-S , 20-C ) :   1.1407 B( 17-C , 18-C ) :   1.5684
B( 17-C , 20-C ) :   0.1013 B( 17-C , 33-H ) :   0.9728 B( 18-C , 19-C ) :   1.2647
B( 18-C , 21-H ) :   0.9903 B( 19-C , 20-C ) :   1.5617 B( 19-C , 22-C ) :   1.0371
B( 22-C , 23-H ) :   0.9275 B( 22-C , 24-H ) :   0.9327 B( 22-C , 25-C ) :   1.0439
B( 25-C , 26-H ) :   0.9625 B( 25-C , 27-H ) :   0.9551 B( 25-C , 28-C ) :   1.0716
B( 28-C , 29-H ) :   0.9750 B( 28-C , 30-H ) :   0.9749 B( 28-C , 31-H ) :   0.9746

Dispersion correction           -0.013382903
FINAL SINGLE POINT ENERGY     -1339.853442470565

DIPOLE MOMENT
-------------
                                X             Y             Z
Electronic contribution:      3.20823      10.69524      24.63768
Nuclear contribution   :     -3.38909     -10.77642     -25.36622
                        -----------------------------------------
Total Dipole Moment    :     -0.18085      -0.08118      -0.72854
                        -----------------------------------------
Magnitude (a.u.)       :      0.75503
Magnitude (Debye)      :      1.91913

Rotational constants in cm-1:     0.019391     0.007299     0.006041
Rotational constants in MHz :   581.341920   218.824863   181.107832

                             ****ORCA TERMINATED NORMALLY****
TOTAL RUN TIME: 0 days 0 hours 0 minutes 33 seconds 467 msec
