                         Program Version 4.2.1 -  RELEASE  -
|  1> ! wB97X-D3 SP def2-SVP
|  2> %pal
|  3> nprocs 16
|  4> end
|  5>
|  6> * xyz 0 1
|  7> S 	 6.15253 	 -21.8774 	 88.1085
|  8> C 	 4.98314 	 -23.1549 	 87.7456
|  9> C 	 4.1288 	 -22.7902 	 86.7136
| 10> C 	 4.29118 	 -21.3819 	 86.3989
| 11> C 	 5.3715 	 -20.7556 	 87.0054
| 12> H 	 3.78666 	 -20.9198 	 85.5659
| 13> C 	 3.15841 	 -23.8145 	 86.0346
| 14> H 	 2.74591 	 -24.4787 	 86.8401
| 15> H 	 3.75881 	 -24.4669 	 85.3766
| 16> C 	 1.96073 	 -23.2391 	 85.2566
| 17> H 	 1.34027 	 -22.6291 	 85.9255
| 18> H 	 2.37503 	 -22.5824 	 84.5107
| 19> C 	 1.0221 	 -24.2569 	 84.5512
| 20> H 	 0.180188 	 -23.8026 	 84.0285
| 21> H 	 1.65664 	 -24.7359 	 83.8558
| 22> H 	 0.733281 	 -25.0617 	 85.2099
| 23> S 	 7.75843 	 -19.6785 	 86.2788
| 24> C 	 7.86914 	 -18.0478 	 85.6423
| 25> C 	 6.60042 	 -17.4676 	 85.7581
| 26> C 	 5.53661 	 -18.3412 	 86.2416
| 27> C 	 6.05716 	 -19.5821 	 86.4953
| 28> H 	 6.50197 	 -16.4556 	 85.6225
| 29> C 	 4.14282 	 -17.7907 	 86.402
| 30> H 	 4.02853 	 -16.7825 	 86.7726
| 31> H 	 3.66548 	 -18.397 	 87.1296
| 32> C 	 3.31074 	 -17.7874 	 85.1147
| 33> H 	 3.54633 	 -18.7059 	 84.6279
| 34> H 	 3.75525 	 -17.0782 	 84.4198
| 35> C 	 1.8232 	 -17.5875 	 85.3471
| 36> H 	 1.38316 	 -18.4309 	 86.0126
| 37> H 	 1.29635 	 -17.5075 	 84.417
| 38> H 	 1.67493 	 -16.683 	 85.8666
| 39> H 	 5.05452 	 -24.3089 	 87.9431
| 40> H 	 8.75801 	 -17.5485 	 85.2179
| 41> *
| 42>
| 43>                          ****END OF INPUT****

CARTESIAN COORDINATES (ANGSTROEM)
---------------------------------
  S      6.152530  -21.877400   88.108500
  C      4.983140  -23.154900   87.745600
  C      4.128800  -22.790200   86.713600
  C      4.291180  -21.381900   86.398900
  C      5.371500  -20.755600   87.005400
  H      3.786660  -20.919800   85.565900
  C      3.158410  -23.814500   86.034600
  H      2.745910  -24.478700   86.840100
  H      3.758810  -24.466900   85.376600
  C      1.960730  -23.239100   85.256600
  H      1.340270  -22.629100   85.925500
  H      2.375030  -22.582400   84.510700
  C      1.022100  -24.256900   84.551200
  H      0.180188  -23.802600   84.028500
  H      1.656640  -24.735900   83.855800
  H      0.733281  -25.061700   85.209900
  S      7.758430  -19.678500   86.278800
  C      7.869140  -18.047800   85.642300
  C      6.600420  -17.467600   85.758100
  C      5.536610  -18.341200   86.241600
  C      6.057160  -19.582100   86.495300
  H      6.501970  -16.455600   85.622500
  C      4.142820  -17.790700   86.402000
  H      4.028530  -16.782500   86.772600
  H      3.665480  -18.397000   87.129600
  C      3.310740  -17.787400   85.114700
  H      3.546330  -18.705900   84.627900
  H      3.755250  -17.078200   84.419800
  C      1.823200  -17.587500   85.347100
  H      1.383160  -18.430900   86.012600
  H      1.296350  -17.507500   84.417000
  H      1.674930  -16.683000   85.866600
  H      5.054520  -24.308900   87.943100
  H      8.758010  -17.548500   85.217900

 Total Charge           Charge          ....    0
 Multiplicity           Mult            ....    1
 Number of Electrons    NEL             ....  134
 Basis Dimension        Dim             ....  322

ORBITAL ENERGIES
----------------

  NO   OCC          E(Eh)            E(eV)
   0   2.0000     -88.969825     -2420.9920
   1   2.0000     -88.966611     -2420.9046
   2   2.0000     -10.331861      -281.1442
   3   2.0000     -10.326839      -281.0076
   4   2.0000     -10.321536      -280.8633
   5   2.0000     -10.320832      -280.8441
   6   2.0000     -10.309188      -280.5273
   7   2.0000     -10.305600      -280.4296
   8   2.0000     -10.302835      -280.3544
   9   2.0000     -10.297825      -280.2181
  10   2.0000     -10.290149      -280.0092
  11   2.0000     -10.289624      -279.9949
  12   2.0000     -10.285772      -279.8901
  13   2.0000     -10.280921      -279.7581
  14   2.0000     -10.280398      -279.7438
  15   2.0000     -10.278307      -279.6870
  16   2.0000      -8.083789      -219.9711
  17   2.0000      -8.081763      -219.9159
  18   2.0000      -6.042516      -164.4252
  19   2.0000      -6.040391      -164.3674
  20   2.0000      -6.038350      -164.3119
  21   2.0000      -6.036149      -164.2520
  22   2.0000      -6.034400      -164.2044
  23   2.0000      -6.032408      -164.1502
  24   2.0000      -1.009417       -27.4676
  25   2.0000      -0.980995       -26.6942
  26   2.0000      -0.914455       -24.8836
  27   2.0000      -0.907504       -24.6944
  28   2.0000      -0.870663       -23.6920
  29   2.0000      -0.853193       -23.2166
  30   2.0000      -0.842292       -22.9199
  31   2.0000      -0.814582       -22.1659
  32   2.0000      -0.784106       -21.3366
  33   2.0000      -0.775054       -21.0903
  34   2.0000      -0.711048       -19.3486
  35   2.0000      -0.702153       -19.1065
  36   2.0000      -0.686610       -18.6836
  37   2.0000      -0.667679       -18.1685
  38   2.0000      -0.631630       -17.1875
  39   2.0000      -0.618210       -16.8224
  40   2.0000      -0.600878       -16.3507
  41   2.0000      -0.570473       -15.5234
  42   2.0000      -0.567065       -15.4306
  43   2.0000      -0.561464       -15.2782
  44   2.0000      -0.528507       -14.3814
  45   2.0000      -0.525990       -14.3129
  46   2.0000      -0.520693       -14.1688
  47   2.0000      -0.510716       -13.8973
  48   2.0000      -0.500078       -13.6078
  49   2.0000      -0.496751       -13.5173
  50   2.0000      -0.492286       -13.3958
  51   2.0000      -0.485666       -13.2156
  52   2.0000      -0.473696       -12.8899
  53   2.0000      -0.465811       -12.6754
  54   2.0000      -0.459738       -12.5101
  55   2.0000      -0.449880       -12.2419
  56   2.0000      -0.443148       -12.0587
  57   2.0000      -0.438256       -11.9256
  58   2.0000      -0.433791       -11.8041
  59   2.0000      -0.426410       -11.6032
  60   2.0000      -0.424193       -11.5429
  61   2.0000      -0.418388       -11.3849
  62   2.0000      -0.414217       -11.2714
  63   2.0000      -0.352899        -9.6029
  64   2.0000      -0.331010        -9.0072
  65   2.0000      -0.328431        -8.9371
  66   2.0000      -0.289944        -7.8898
  67   0.0000       0.025088         0.6827
  68   0.0000       0.069169         1.8822
  69   0.0000       0.111388         3.0310
  70   0.0000       0.122836         3.3425
  71   0.0000       0.128134         3.4867

MULLIKEN ATOMIC CHARGES
-----------------------
   0 S :    0.102116
   1 C :   -0.142691
   2 C :   -0.111056
   3 C :    0.027340
   4 C :   -0.125869
   5 H :    0.004073
   6 C :    0.028596
   7 H :    0.040223
   8 H :    0.044042
   9 C :   -0.109515
  10 H :    0.033953
  11 H :    0.032935
  12 C :   -0.010737
  13 H :    0.047193
  14 H :    0.011351
  15 H :    0.025607
  16 S :    0.111998
  17 C :   -0.113215
  18 C :   -0.001216
  19 C :   -0.045113
  20 C :   -0.144719
  21 H :   -0.011962
  22 C :    0.086383
  23 H :    0.019307
  24 H :    0.008593
  25 C :   -0.071100
  26 H :    0.009730
  27 H :    0.017905
  28 C :   -0.021403
  29 H :    0.046043
  30 H :    0.035738
  31 H :    0.017991
  32 H :    0.083510
  33 H :    0.073969
Sum of atomic charges:   -0.0000000

LOEWDIN ATOMIC CHARGES
----------------------
   0 S :    0.397099
   1 C :   -0.219603
   2 C :   -0.060924
   3 C :   -0.063711
   4 C :   -0.189225
   5 H :    0.025445
   6 C :   -0.034247
   7 H :    0.035990
   8 H :    0.033503
   9 C :   -0.044184
  10 H :    0.023549
  11 H :    0.019835
  12 C :   -0.058324
  13 H :    0.031821
  14 H :    0.019231
  15 H :    0.023998
  16 S :    0.418181
  17 C :   -0.196710
  18 C :   -0.055869
  19 C :   -0.054886
  20 C :   -0.203025
  21 H :    0.013314
  22 C :   -0.027890
  23 H :    0.030170
  24 H :    0.023788
  25 C :   -0.040294
  26 H :    0.013399
  27 H :    0.022709
  28 C :   -0.060843
  29 H :    0.038413
  30 H :    0.026033
  31 H :    0.017925
  32 H :    0.054950
  33 H :    0.040382

  Mayer bond orders larger than 0.100000
B(  0-S ,  1-C ) :   1.1251 B(  0-S ,  4-C ) :   1.1402 B(  1-C ,  2-C ) :   1.6449
B(  1-C , 32-H ) :   0.9490 B(  2-C ,  3-C ) :   1.2619 B(  2-C ,  6-C ) :   0.9990
B(  3-C ,  4-C ) :   1.5588 B(  3-C ,  5-H ) :   0.9876 B(  4-C , 20-C ) :   1.0479
B(  6-C ,  7-H ) :   0.9475 B(  6-C ,  8-H ) :   0.9393 B(  6-C ,  9-C ) :   1.0717
B(  9-C , 10-H ) :   0.9603 B(  9-C , 11-H ) :   0.9505 B(  9-C , 12-C ) :   1.0810
B( 12-C , 13-H ) :   0.9745 B( 12-C , 14-H ) :   0.9732 B( 12-C , 15-H ) :   0.9755
B( 16-S , 17-C ) :   1.1397 B( 16-S , 20-C ) :   1.1479 B( 17-C , 18-C ) :   1.6046
B( 17-C , 33-H ) :   0.9681 B( 18-C , 19-C ) :   1.2347 B( 18-C , 21-H ) :   0.9987
B( 19-C , 20-C ) :   1.5910 B( 19-C , 22-C ) :   1.0602 B( 22-C , 23-H ) :   0.9362
B( 22-C , 24-H ) :   0.9239 B( 22-C , 25-C ) :   1.0556 B( 25-C , 26-H ) :   0.9524
B( 25-C , 27-H ) :   0.9484 B( 25-C , 28-C ) :   1.0837 B( 28-C , 29-H ) :   0.9726
B( 28-C , 30-H ) :   0.9721 B( 28-C , 31-H ) :   0.9713

Dispersion correction           -0.013938303
FINAL SINGLE POINT ENERGY     -1339.868676650124

DIPOLE MOMENT
-------------
                                X             Y             Z
Electronic contribution:     29.57451       1.01735      12.78235
Nuclear contribution   :    -30.05906      -0.96649     -13.31913
                        -----------------------------------------
Total Dipole Moment    :     -0.48455       0.05086      -0.53678
                        -----------------------------------------
Magnitude (a.u.)       :      0.72492
Magnitude (Debye)      :      1.84260

Rotational constants in cm-1:     0.016327     0.009318     0.006558
Rotational constants in MHz :   489.462318   279.350371   196.603852

                             ****ORCA TERMINATED NORMALLY****
TOTAL RUN TIME: 0 days 0 hours 0 minutes 31 seconds 292 msec
