                         Program Version 4.2.1 -  RELEASE  -
|  1> ! wB97X-D3 SP def2-SVP
|  2> %pal
|  3> nprocs 16
|  4> end
|  5>
|  6> * xyz 0 1
|  7> S 	 -34.6652 	 43.5206 	 93.8158
|  8> C 	 -35.486 	 42.2423 	 92.921
|  9> C 	 -36.4177 	 41.6163 	 93.7725
| 10> C 	 -36.3636 	 42.0388 	 95.1347
| 11> C 	 -35.4117 	 43.0161 	 95.3505
| 12> H 	 -36.8987 	 41.6216 	 95.9153
| 13> C 	 -37.5094 	 40.649 	 93.3378
| 14> H 	 -37.3934 	 40.4692 	 92.2883
| 15> H 	 -38.4881 	 41.1333 	 93.5191
| 16> C 	 -37.4091 	 39.1272 	 93.8949
| 17> H 	 -36.4487 	 38.6909 	 93.681
| 18> H 	 -37.3267 	 39.1671 	 95.0103
| 19> C 	 -38.5011 	 38.1428 	 93.5668
| 20> H 	 -38.181 	 37.2415 	 94.036
| 21> H 	 -39.4274 	 38.4062 	 94.0181
| 22> H 	 -38.5458 	 38.0535 	 92.5131
| 23> S 	 -35.4548 	 45.5045 	 96.6636
| 24> C 	 -35.098 	 45.5301 	 98.3305
| 25> C 	 -35.0455 	 44.2865 	 98.8834
| 26> C 	 -34.9458 	 43.2774 	 97.8994
| 27> C 	 -35.2007 	 43.7263 	 96.5947
| 28> H 	 -34.8805 	 44.1214 	 99.9448
| 29> C 	 -34.7639 	 41.8353 	 98.2805
| 30> H 	 -34.4062 	 41.3222 	 97.3913
| 31> H 	 -35.731 	 41.4556 	 98.5716
| 32> C 	 -33.7647 	 41.6494 	 99.3891
| 33> H 	 -34.264 	 42.0814 	 100.321
| 34> H 	 -32.783 	 42.2447 	 99.2217
| 35> C 	 -33.444 	 40.187 	 99.5843
| 36> H 	 -33.0358 	 39.7372 	 98.6761
| 37> H 	 -34.2296 	 39.5133 	 99.9255
| 38> H 	 -32.6351 	 40.0389 	 100.316
| 39> H 	 -35.3983 	 41.9489 	 91.8727
| 40> H 	 -35.2137 	 46.3454 	 98.9849
| 41> *
| 42>
| 43>                          ****END OF INPUT****

CARTESIAN COORDINATES (ANGSTROEM)
---------------------------------
  S    -34.665200   43.520600   93.815800
  C    -35.486000   42.242300   92.921000
  C    -36.417700   41.616300   93.772500
  C    -36.363600   42.038800   95.134700
  C    -35.411700   43.016100   95.350500
  H    -36.898700   41.621600   95.915300
  C    -37.509400   40.649000   93.337800
  H    -37.393400   40.469200   92.288300
  H    -38.488100   41.133300   93.519100
  C    -37.409100   39.127200   93.894900
  H    -36.448700   38.690900   93.681000
  H    -37.326700   39.167100   95.010300
  C    -38.501100   38.142800   93.566800
  H    -38.181000   37.241500   94.036000
  H    -39.427400   38.406200   94.018100
  H    -38.545800   38.053500   92.513100
  S    -35.454800   45.504500   96.663600
  C    -35.098000   45.530100   98.330500
  C    -35.045500   44.286500   98.883400
  C    -34.945800   43.277400   97.899400
  C    -35.200700   43.726300   96.594700
  H    -34.880500   44.121400   99.944800
  C    -34.763900   41.835300   98.280500
  H    -34.406200   41.322200   97.391300
  H    -35.731000   41.455600   98.571600
  C    -33.764700   41.649400   99.389100
  H    -34.264000   42.081400  100.321000
  H    -32.783000   42.244700   99.221700
  C    -33.444000   40.187000   99.584300
  H    -33.035800   39.737200   98.676100
  H    -34.229600   39.513300   99.925500
  H    -32.635100   40.038900  100.316000
  H    -35.398300   41.948900   91.872700
  H    -35.213700   46.345400   98.984900

 Total Charge           Charge          ....    0
 Multiplicity           Mult            ....    1
 Number of Electrons    NEL             ....  134
 Basis Dimension        Dim             ....  322

ORBITAL ENERGIES
----------------

  NO   OCC          E(Eh)            E(eV)
   0   2.0000     -88.968527     -2420.9567
   1   2.0000     -88.963907     -2420.8310
   2   2.0000     -10.331760      -281.1415
   3   2.0000     -10.326510      -280.9986
   4   2.0000     -10.320654      -280.8393
   5   2.0000     -10.308131      -280.4985
   6   2.0000     -10.303665      -280.3770
   7   2.0000     -10.299148      -280.2541
   8   2.0000     -10.296769      -280.1893
   9   2.0000     -10.295774      -280.1623
  10   2.0000     -10.290049      -280.0065
  11   2.0000     -10.289717      -279.9974
  12   2.0000     -10.286803      -279.9181
  13   2.0000     -10.284883      -279.8659
  14   2.0000     -10.277280      -279.6590
  15   2.0000     -10.271548      -279.5030
  16   2.0000      -8.082271      -219.9298
  17   2.0000      -8.078792      -219.8351
  18   2.0000      -6.040938      -164.3823
  19   2.0000      -6.037236      -164.2816
  20   2.0000      -6.036850      -164.2710
  21   2.0000      -6.033371      -164.1764
  22   2.0000      -6.032968      -164.1654
  23   2.0000      -6.029509      -164.0713
  24   2.0000      -1.004225       -27.3263
  25   2.0000      -0.982544       -26.7364
  26   2.0000      -0.916420       -24.9371
  27   2.0000      -0.903001       -24.5719
  28   2.0000      -0.871847       -23.7242
  29   2.0000      -0.854787       -23.2599
  30   2.0000      -0.848245       -23.0819
  31   2.0000      -0.816633       -22.2217
  32   2.0000      -0.783048       -21.3078
  33   2.0000      -0.769023       -20.9262
  34   2.0000      -0.707199       -19.2439
  35   2.0000      -0.699290       -19.0286
  36   2.0000      -0.695459       -18.9244
  37   2.0000      -0.650973       -17.7139
  38   2.0000      -0.642233       -17.4760
  39   2.0000      -0.622233       -16.9318
  40   2.0000      -0.598570       -16.2879
  41   2.0000      -0.572147       -15.5689
  42   2.0000      -0.565137       -15.3781
  43   2.0000      -0.561173       -15.2703
  44   2.0000      -0.530546       -14.4369
  45   2.0000      -0.522692       -14.2232
  46   2.0000      -0.517516       -14.0823
  47   2.0000      -0.512383       -13.9427
  48   2.0000      -0.506715       -13.7884
  49   2.0000      -0.504301       -13.7227
  50   2.0000      -0.495166       -13.4742
  51   2.0000      -0.483197       -13.1484
  52   2.0000      -0.470668       -12.8075
  53   2.0000      -0.466102       -12.6833
  54   2.0000      -0.463744       -12.6191
  55   2.0000      -0.450664       -12.2632
  56   2.0000      -0.447067       -12.1653
  57   2.0000      -0.432685       -11.7740
  58   2.0000      -0.431421       -11.7396
  59   2.0000      -0.422676       -11.5016
  60   2.0000      -0.419579       -11.4173
  61   2.0000      -0.412459       -11.2236
  62   2.0000      -0.409706       -11.1487
  63   2.0000      -0.346560        -9.4304
  64   2.0000      -0.330433        -8.9915
  65   2.0000      -0.327995        -8.9252
  66   2.0000      -0.290376        -7.9015
  67   0.0000       0.028139         0.7657
  68   0.0000       0.066153         1.8001
  69   0.0000       0.112796         3.0693
  70   0.0000       0.121226         3.2987
  71   0.0000       0.128311         3.4915

MULLIKEN ATOMIC CHARGES
-----------------------
   0 S :    0.113017
   1 C :   -0.111248
   2 C :   -0.103464
   3 C :    0.072200
   4 C :   -0.167712
   5 H :   -0.010615
   6 C :    0.067230
   7 H :    0.006738
   8 H :    0.050351
   9 C :   -0.127454
  10 H :    0.020710
  11 H :    0.014443
  12 C :    0.021250
  13 H :    0.025896
  14 H :    0.025508
  15 H :    0.026359
  16 S :    0.107310
  17 C :   -0.049144
  18 C :   -0.054884
  19 C :   -0.064578
  20 C :   -0.142847
  21 H :    0.025811
  22 C :    0.096875
  23 H :    0.026247
  24 H :    0.036966
  25 C :   -0.147863
  26 H :    0.037988
  27 H :    0.055786
  28 C :   -0.025647
  29 H :    0.025145
  30 H :    0.029232
  31 H :    0.027409
  32 H :    0.054176
  33 H :    0.038808
Sum of atomic charges:   -0.0000000

LOEWDIN ATOMIC CHARGES
----------------------
   0 S :    0.394249
   1 C :   -0.199958
   2 C :   -0.062432
   3 C :   -0.044588
   4 C :   -0.184957
   5 H :    0.021351
   6 C :   -0.033289
   7 H :    0.022342
   8 H :    0.037569
   9 C :   -0.044247
  10 H :    0.020954
  11 H :    0.018374
  12 C :   -0.052100
  13 H :    0.029538
  14 H :    0.021996
  15 H :    0.020306
  16 S :    0.405248
  17 C :   -0.186999
  18 C :   -0.077031
  19 C :   -0.052006
  20 C :   -0.193994
  21 H :    0.031923
  22 C :   -0.033419
  23 H :    0.030306
  24 H :    0.032511
  25 C :   -0.051379
  26 H :    0.026685
  27 H :    0.038997
  28 C :   -0.072075
  29 H :    0.025517
  30 H :    0.025189
  31 H :    0.027503
  32 H :    0.035397
  33 H :    0.022518

  Mayer bond orders larger than 0.100000
B(  0-S ,  1-C ) :   1.1312 B(  0-S ,  4-C ) :   1.1409 B(  1-C ,  2-C ) :   1.6049
B(  1-C , 32-H ) :   0.9650 B(  2-C ,  3-C ) :   1.2373 B(  2-C ,  6-C ) :   1.0367
B(  3-C ,  4-C ) :   1.5573 B(  3-C ,  5-H ) :   1.0059 B(  4-C , 20-C ) :   1.0619
B(  6-C ,  7-H ) :   0.9386 B(  6-C ,  8-H ) :   0.9462 B(  6-C ,  9-C ) :   1.0363
B(  9-C , 10-H ) :   0.9576 B(  9-C , 11-H ) :   0.9594 B(  9-C , 12-C ) :   1.0901
B( 12-C , 13-H ) :   0.9681 B( 12-C , 14-H ) :   0.9740 B( 12-C , 15-H ) :   0.9755
B( 16-S , 17-C ) :   1.1704 B( 16-S , 20-C ) :   1.1236 B( 17-C , 18-C ) :   1.6142
B( 17-C , 33-H ) :   0.9616 B( 18-C , 19-C ) :   1.2554 B( 18-C , 21-H ) :   0.9797
B( 19-C , 20-C ) :   1.5903 B( 19-C , 22-C ) :   1.0475 B( 22-C , 23-H ) :   0.9326
B( 22-C , 24-H ) :   0.9259 B( 22-C , 25-C ) :   1.0659 B( 25-C , 26-H ) :   0.9425
B( 25-C , 27-H ) :   0.9587 B( 25-C , 28-C ) :   1.0921 B( 28-C , 29-H ) :   0.9708
B( 28-C , 30-H ) :   0.9705 B( 28-C , 31-H ) :   0.9719

Dispersion correction           -0.013447268
FINAL SINGLE POINT ENERGY     -1339.872450327210

DIPOLE MOMENT
-------------
                                X             Y             Z
Electronic contribution:      5.17301      29.24991      -7.77021
Nuclear contribution   :     -5.48798     -29.93164       8.09052
                        -----------------------------------------
Total Dipole Moment    :     -0.31496      -0.68172       0.32032
                        -----------------------------------------
Magnitude (a.u.)       :      0.81643
Magnitude (Debye)      :      2.07519

Rotational constants in cm-1:     0.016316     0.008400     0.006296
Rotational constants in MHz :   489.138299   251.816218   188.749608

                             ****ORCA TERMINATED NORMALLY****
TOTAL RUN TIME: 0 days 0 hours 0 minutes 28 seconds 744 msec
