                         Program Version 4.2.1 -  RELEASE  -
|  1> ! wB97X-D3 SP def2-SVP
|  2> %pal
|  3> nprocs 16
|  4> end
|  5>
|  6> * xyz 0 1
|  7> S 	 39.9045 	 27.0732 	 82.395
|  8> C 	 39.2573 	 28.0158 	 83.6697
|  9> C 	 40.2788 	 28.2321 	 84.581
| 10> C 	 41.445 	 27.4247 	 84.3487
| 11> C 	 41.4463 	 26.8191 	 83.1038
| 12> H 	 42.3531 	 27.2668 	 84.9683
| 13> C 	 40.1867 	 29.0049 	 85.8821
| 14> H 	 40.6209 	 28.3261 	 86.6718
| 15> H 	 39.1812 	 29.1488 	 86.1278
| 16> C 	 40.9785 	 30.3385 	 85.7241
| 17> H 	 41.8325 	 30.0704 	 85.0891
| 18> H 	 40.3295 	 31.1147 	 85.285
| 19> C 	 41.5544 	 30.8863 	 87.1333
| 20> H 	 42.464 	 31.507 	 87.1189
| 21> H 	 40.7355 	 31.5152 	 87.5883
| 22> H 	 41.7649 	 30.0421 	 87.8631
| 23> S 	 42.8721 	 26.5472 	 80.685
| 24> C 	 44.3699 	 25.7452 	 80.759
| 25> C 	 44.5228 	 24.9454 	 81.8863
| 26> C 	 43.5164 	 25.2763 	 82.8416
| 27> C 	 42.5273 	 26.1415 	 82.3642
| 28> H 	 45.4279 	 24.2345 	 81.9335
| 29> C 	 43.5838 	 24.7134 	 84.195
| 30> H 	 43.9023 	 25.5057 	 84.8956
| 31> H 	 44.4602 	 24.128 	 84.1198
| 32> C 	 42.4756 	 23.8213 	 84.6091
| 33> H 	 42.7186 	 22.825 	 84.1656
| 34> H 	 41.4887 	 24.1372 	 84.2359
| 35> C 	 42.4417 	 23.7389 	 86.1779
| 36> H 	 41.4698 	 23.5061 	 86.5471
| 37> H 	 42.7077 	 24.6409 	 86.6432
| 38> H 	 43.0839 	 22.8984 	 86.4837
| 39> H 	 38.2642 	 28.5569 	 83.6352
| 40> H 	 45.1145 	 25.7463 	 79.9185
| 41> *
| 42>
| 43>                          ****END OF INPUT****

CARTESIAN COORDINATES (ANGSTROEM)
---------------------------------
  S     39.904500   27.073200   82.395000
  C     39.257300   28.015800   83.669700
  C     40.278800   28.232100   84.581000
  C     41.445000   27.424700   84.348700
  C     41.446300   26.819100   83.103800
  H     42.353100   27.266800   84.968300
  C     40.186700   29.004900   85.882100
  H     40.620900   28.326100   86.671800
  H     39.181200   29.148800   86.127800
  C     40.978500   30.338500   85.724100
  H     41.832500   30.070400   85.089100
  H     40.329500   31.114700   85.285000
  C     41.554400   30.886300   87.133300
  H     42.464000   31.507000   87.118900
  H     40.735500   31.515200   87.588300
  H     41.764900   30.042100   87.863100
  S     42.872100   26.547200   80.685000
  C     44.369900   25.745200   80.759000
  C     44.522800   24.945400   81.886300
  C     43.516400   25.276300   82.841600
  C     42.527300   26.141500   82.364200
  H     45.427900   24.234500   81.933500
  C     43.583800   24.713400   84.195000
  H     43.902300   25.505700   84.895600
  H     44.460200   24.128000   84.119800
  C     42.475600   23.821300   84.609100
  H     42.718600   22.825000   84.165600
  H     41.488700   24.137200   84.235900
  C     42.441700   23.738900   86.177900
  H     41.469800   23.506100   86.547100
  H     42.707700   24.640900   86.643200
  H     43.083900   22.898400   86.483700
  H     38.264200   28.556900   83.635200
  H     45.114500   25.746300   79.918500

 Total Charge           Charge          ....    0
 Multiplicity           Mult            ....    1
 Number of Electrons    NEL             ....  134
 Basis Dimension        Dim             ....  322

ORBITAL ENERGIES
----------------

  NO   OCC          E(Eh)            E(eV)
   0   2.0000     -88.968804     -2420.9642
   1   2.0000     -88.961343     -2420.7612
   2   2.0000     -10.329837      -281.0892
   3   2.0000     -10.327856      -281.0352
   4   2.0000     -10.320079      -280.8236
   5   2.0000     -10.316043      -280.7138
   6   2.0000     -10.301737      -280.3245
   7   2.0000     -10.301558      -280.3196
   8   2.0000     -10.301268      -280.3117
   9   2.0000     -10.294773      -280.1350
  10   2.0000     -10.294768      -280.1349
  11   2.0000     -10.289738      -279.9980
  12   2.0000     -10.289623      -279.9949
  13   2.0000     -10.285336      -279.8782
  14   2.0000     -10.279723      -279.7255
  15   2.0000     -10.271245      -279.4948
  16   2.0000      -8.084194      -219.9821
  17   2.0000      -8.077439      -219.7983
  18   2.0000      -6.042596      -164.4274
  19   2.0000      -6.038628      -164.3194
  20   2.0000      -6.035874      -164.2445
  21   2.0000      -6.034998      -164.2206
  22   2.0000      -6.031562      -164.1272
  23   2.0000      -6.028380      -164.0406
  24   2.0000      -1.012452       -27.5502
  25   2.0000      -0.992339       -27.0029
  26   2.0000      -0.919465       -25.0199
  27   2.0000      -0.904973       -24.6256
  28   2.0000      -0.865442       -23.5499
  29   2.0000      -0.852858       -23.2074
  30   2.0000      -0.837253       -22.7828
  31   2.0000      -0.812458       -22.1081
  32   2.0000      -0.781925       -21.2773
  33   2.0000      -0.767482       -20.8843
  34   2.0000      -0.709629       -19.3100
  35   2.0000      -0.697124       -18.9697
  36   2.0000      -0.686724       -18.6867
  37   2.0000      -0.661411       -17.9979
  38   2.0000      -0.638833       -17.3835
  39   2.0000      -0.619915       -16.8688
  40   2.0000      -0.594966       -16.1899
  41   2.0000      -0.567868       -15.4525
  42   2.0000      -0.561291       -15.2735
  43   2.0000      -0.553005       -15.0480
  44   2.0000      -0.527408       -14.3515
  45   2.0000      -0.519483       -14.1358
  46   2.0000      -0.511481       -13.9181
  47   2.0000      -0.506366       -13.7789
  48   2.0000      -0.504605       -13.7310
  49   2.0000      -0.502136       -13.6638
  50   2.0000      -0.496667       -13.5150
  51   2.0000      -0.484814       -13.1925
  52   2.0000      -0.469658       -12.7800
  53   2.0000      -0.463374       -12.6091
  54   2.0000      -0.460525       -12.5315
  55   2.0000      -0.447652       -12.1812
  56   2.0000      -0.445270       -12.1164
  57   2.0000      -0.436436       -11.8760
  58   2.0000      -0.433825       -11.8050
  59   2.0000      -0.424635       -11.5549
  60   2.0000      -0.418117       -11.3775
  61   2.0000      -0.411006       -11.1840
  62   2.0000      -0.403884       -10.9902
  63   2.0000      -0.352355        -9.5881
  64   2.0000      -0.332956        -9.0602
  65   2.0000      -0.325337        -8.8529
  66   2.0000      -0.287957        -7.8357
  67   0.0000       0.029837         0.8119
  68   0.0000       0.069686         1.8962
  69   0.0000       0.112459         3.0602
  70   0.0000       0.123375         3.3572
  71   0.0000       0.132986         3.6187

MULLIKEN ATOMIC CHARGES
-----------------------
   0 S :    0.096511
   1 C :   -0.126321
   2 C :   -0.121802
   3 C :    0.010769
   4 C :   -0.160869
   5 H :    0.017379
   6 C :    0.070477
   7 H :    0.039269
   8 H :    0.006011
   9 C :   -0.076985
  10 H :    0.047143
  11 H :    0.046254
  12 C :   -0.104986
  13 H :    0.046621
  14 H :    0.039578
  15 H :    0.037739
  16 S :    0.129632
  17 C :   -0.122886
  18 C :   -0.057600
  19 C :   -0.085919
  20 C :   -0.113202
  21 H :    0.055793
  22 C :    0.087825
  23 H :    0.037138
  24 H :   -0.011280
  25 C :   -0.078256
  26 H :    0.036242
  27 H :    0.051448
  28 C :   -0.018345
  29 H :    0.020689
  30 H :    0.017118
  31 H :    0.033223
  32 H :    0.078915
  33 H :    0.072674
Sum of atomic charges:    0.0000000

LOEWDIN ATOMIC CHARGES
----------------------
   0 S :    0.428594
   1 C :   -0.227696
   2 C :   -0.065671
   3 C :   -0.079356
   4 C :   -0.198976
   5 H :    0.035287
   6 C :   -0.028263
   7 H :    0.037269
   8 H :    0.016625
   9 C :   -0.035571
  10 H :    0.026580
  11 H :    0.029764
  12 C :   -0.083775
  13 H :    0.025833
  14 H :    0.028989
  15 H :    0.027345
  16 S :    0.429190
  17 C :   -0.203470
  18 C :   -0.088505
  19 C :   -0.051369
  20 C :   -0.207132
  21 H :    0.050455
  22 C :   -0.043962
  23 H :    0.032950
  24 H :    0.026917
  25 C :   -0.034992
  26 H :    0.032025
  27 H :    0.026094
  28 C :   -0.056437
  29 H :    0.021867
  30 H :    0.014451
  31 H :    0.029378
  32 H :    0.047417
  33 H :    0.038145

  Mayer bond orders larger than 0.100000
B(  0-S ,  1-C ) :   1.1415 B(  0-S ,  4-C ) :   1.1730 B(  1-C ,  2-C ) :   1.5940
B(  1-C , 32-H ) :   0.9625 B(  2-C ,  3-C ) :   1.2427 B(  2-C ,  6-C ) :   1.0309
B(  3-C ,  4-C ) :   1.5631 B(  3-C ,  5-H ) :   0.9846 B(  4-C , 20-C ) :   1.0378
B(  6-C ,  7-H ) :   0.9511 B(  6-C ,  8-H ) :   0.9439 B(  6-C ,  9-C ) :   1.0374
B(  9-C , 10-H ) :   0.9683 B(  9-C , 11-H ) :   0.9596 B(  9-C , 12-C ) :   1.0510
B( 12-C , 13-H ) :   0.9805 B( 12-C , 14-H ) :   0.9789 B( 12-C , 15-H ) :   0.9804
B( 16-S , 17-C ) :   1.1945 B( 16-S , 20-C ) :   1.1306 B( 17-C , 18-C ) :   1.5868
B( 17-C , 33-H ) :   0.9567 B( 18-C , 19-C ) :   1.2689 B( 18-C , 21-H ) :   0.9741
B( 19-C , 20-C ) :   1.5681 B( 19-C , 22-C ) :   1.0488 B( 22-C , 23-H ) :   0.9235
B( 22-C , 24-H ) :   0.9138 B( 22-C , 25-C ) :   1.0474 B( 25-C , 26-H ) :   0.9559
B( 25-C , 27-H ) :   0.9708 B( 25-C , 28-C ) :   1.0660 B( 28-C , 29-H ) :   0.9760
B( 28-C , 30-H ) :   0.9814 B( 28-C , 31-H ) :   0.9772

Dispersion correction           -0.014414627
FINAL SINGLE POINT ENERGY     -1339.861567431702

DIPOLE MOMENT
-------------
                                X             Y             Z
Electronic contribution:     -3.52839      -2.48271     -27.80127
Nuclear contribution   :      3.87024       2.44462      28.24505
                        -----------------------------------------
Total Dipole Moment    :      0.34184      -0.03809       0.44378
                        -----------------------------------------
Magnitude (a.u.)       :      0.56147
Magnitude (Debye)      :      1.42714

Rotational constants in cm-1:     0.017413     0.008754     0.007416
Rotational constants in MHz :   522.042655   262.438850   222.316233

                             ****ORCA TERMINATED NORMALLY****
TOTAL RUN TIME: 0 days 0 hours 0 minutes 30 seconds 151 msec
