                         Program Version 4.2.1 -  RELEASE  -
|  1> ! wB97X-D3 SP def2-SVP
|  2> %pal
|  3> nprocs 16
|  4> end
|  5>
|  6> * xyz 0 1
|  7> S 	 -47.4881 	 67.9059 	 125.617
|  8> C 	 -47.4196 	 66.5295 	 124.439
|  9> C 	 -48.1024 	 65.4715 	 124.935
| 10> C 	 -48.5593 	 65.7114 	 126.289
| 11> C 	 -48.2725 	 66.9838 	 126.784
| 12> H 	 -49.0002 	 65.0502 	 127.001
| 13> C 	 -48.3071 	 64.1792 	 124.169
| 14> H 	 -47.3551 	 63.7602 	 123.98
| 15> H 	 -48.4931 	 64.4046 	 123.143
| 16> C 	 -49.4213 	 63.2318 	 124.759
| 17> H 	 -49.224 	 62.8179 	 125.712
| 18> H 	 -50.3183 	 63.8382 	 124.747
| 19> C 	 -49.9334 	 62.0566 	 123.96
| 20> H 	 -50.2342 	 61.2477 	 124.693
| 21> H 	 -50.7948 	 62.2643 	 123.31
| 22> H 	 -49.1758 	 61.5591 	 123.381
| 23> S 	 -47.1395 	 68.4931 	 128.776
| 24> C 	 -47.9485 	 68.5577 	 130.252
| 25> C 	 -49.1928 	 67.9218 	 130.233
| 26> C 	 -49.4383 	 67.2201 	 129.046
| 27> C 	 -48.4469 	 67.4597 	 128.111
| 28> H 	 -49.7093 	 67.9502 	 131.101
| 29> C 	 -50.6699 	 66.4231 	 128.778
| 30> H 	 -50.9174 	 66.3196 	 127.719
| 31> H 	 -51.518 	 67.0098 	 129.234
| 32> C 	 -50.8134 	 65.0261 	 129.432
| 33> H 	 -50.8491 	 65.3049 	 130.485
| 34> H 	 -49.8571 	 64.5559 	 129.493
| 35> C 	 -51.9985 	 64.1486 	 128.905
| 36> H 	 -52.1966 	 63.3049 	 129.58
| 37> H 	 -51.8193 	 63.7337 	 127.917
| 38> H 	 -52.8715 	 64.7614 	 128.855
| 39> H 	 -47.0133 	 66.4766 	 123.453
| 40> H 	 -47.7049 	 69.0305 	 131.168
| 41> *
| 42>
| 43>                          ****END OF INPUT****

CARTESIAN COORDINATES (ANGSTROEM)
---------------------------------
  S    -47.488100   67.905900  125.617000
  C    -47.419600   66.529500  124.439000
  C    -48.102400   65.471500  124.935000
  C    -48.559300   65.711400  126.289000
  C    -48.272500   66.983800  126.784000
  H    -49.000200   65.050200  127.001000
  C    -48.307100   64.179200  124.169000
  H    -47.355100   63.760200  123.980000
  H    -48.493100   64.404600  123.143000
  C    -49.421300   63.231800  124.759000
  H    -49.224000   62.817900  125.712000
  H    -50.318300   63.838200  124.747000
  C    -49.933400   62.056600  123.960000
  H    -50.234200   61.247700  124.693000
  H    -50.794800   62.264300  123.310000
  H    -49.175800   61.559100  123.381000
  S    -47.139500   68.493100  128.776000
  C    -47.948500   68.557700  130.252000
  C    -49.192800   67.921800  130.233000
  C    -49.438300   67.220100  129.046000
  C    -48.446900   67.459700  128.111000
  H    -49.709300   67.950200  131.101000
  C    -50.669900   66.423100  128.778000
  H    -50.917400   66.319600  127.719000
  H    -51.518000   67.009800  129.234000
  C    -50.813400   65.026100  129.432000
  H    -50.849100   65.304900  130.485000
  H    -49.857100   64.555900  129.493000
  C    -51.998500   64.148600  128.905000
  H    -52.196600   63.304900  129.580000
  H    -51.819300   63.733700  127.917000
  H    -52.871500   64.761400  128.855000
  H    -47.013300   66.476600  123.453000
  H    -47.704900   69.030500  131.168000

 Total Charge           Charge          ....    0
 Multiplicity           Mult            ....    1
 Number of Electrons    NEL             ....  134
 Basis Dimension        Dim             ....  322

ORBITAL ENERGIES
----------------

  NO   OCC          E(Eh)            E(eV)
   0   2.0000     -88.970185     -2421.0018
   1   2.0000     -88.963086     -2420.8086
   2   2.0000     -10.325225      -280.9637
   3   2.0000     -10.321406      -280.8597
   4   2.0000     -10.311070      -280.5785
   5   2.0000     -10.308021      -280.4955
   6   2.0000     -10.302683      -280.3503
   7   2.0000     -10.300950      -280.3031
   8   2.0000     -10.292647      -280.0772
   9   2.0000     -10.291472      -280.0452
  10   2.0000     -10.288192      -279.9560
  11   2.0000     -10.286907      -279.9210
  12   2.0000     -10.286458      -279.9087
  13   2.0000     -10.285169      -279.8737
  14   2.0000     -10.283714      -279.8341
  15   2.0000     -10.280500      -279.7466
  16   2.0000      -8.085207      -220.0097
  17   2.0000      -8.078105      -219.8164
  18   2.0000      -6.043585      -164.4543
  19   2.0000      -6.039664      -164.3476
  20   2.0000      -6.036756      -164.2685
  21   2.0000      -6.036082      -164.2501
  22   2.0000      -6.032514      -164.1531
  23   2.0000      -6.028744      -164.0505
  24   2.0000      -1.013011       -27.5654
  25   2.0000      -0.986242       -26.8370
  26   2.0000      -0.913662       -24.8620
  27   2.0000      -0.910433       -24.7741
  28   2.0000      -0.876963       -23.8634
  29   2.0000      -0.857735       -23.3402
  30   2.0000      -0.842938       -22.9375
  31   2.0000      -0.814127       -22.1535
  32   2.0000      -0.790237       -21.5034
  33   2.0000      -0.778598       -21.1867
  34   2.0000      -0.718714       -19.5572
  35   2.0000      -0.705243       -19.1907
  36   2.0000      -0.694686       -18.9034
  37   2.0000      -0.666544       -18.1376
  38   2.0000      -0.642156       -17.4740
  39   2.0000      -0.615602       -16.7514
  40   2.0000      -0.599917       -16.3246
  41   2.0000      -0.575235       -15.6529
  42   2.0000      -0.570964       -15.5367
  43   2.0000      -0.555964       -15.1285
  44   2.0000      -0.527926       -14.3656
  45   2.0000      -0.525254       -14.2929
  46   2.0000      -0.519463       -14.1353
  47   2.0000      -0.510648       -13.8954
  48   2.0000      -0.505487       -13.7550
  49   2.0000      -0.501700       -13.6519
  50   2.0000      -0.494406       -13.4535
  51   2.0000      -0.488778       -13.3003
  52   2.0000      -0.473986       -12.8978
  53   2.0000      -0.469716       -12.7816
  54   2.0000      -0.462570       -12.5872
  55   2.0000      -0.454248       -12.3607
  56   2.0000      -0.446651       -12.1540
  57   2.0000      -0.438860       -11.9420
  58   2.0000      -0.435548       -11.8519
  59   2.0000      -0.428140       -11.6503
  60   2.0000      -0.419621       -11.4185
  61   2.0000      -0.415227       -11.2989
  62   2.0000      -0.405080       -11.0228
  63   2.0000      -0.352746        -9.5987
  64   2.0000      -0.336325        -9.1519
  65   2.0000      -0.326959        -8.8970
  66   2.0000      -0.281672        -7.6647
  67   0.0000       0.025227         0.6865
  68   0.0000       0.076902         2.0926
  69   0.0000       0.107760         2.9323
  70   0.0000       0.122638         3.3371
  71   0.0000       0.127453         3.4682

MULLIKEN ATOMIC CHARGES
-----------------------
   0 S :    0.097641
   1 C :   -0.124656
   2 C :   -0.066753
   3 C :    0.003260
   4 C :   -0.130660
   5 H :   -0.010698
   6 C :    0.118820
   7 H :    0.017162
   8 H :    0.003703
   9 C :   -0.078917
  10 H :    0.038674
  11 H :    0.036779
  12 C :   -0.058985
  13 H :    0.031259
  14 H :    0.041406
  15 H :    0.020342
  16 S :    0.132495
  17 C :   -0.063217
  18 C :   -0.020358
  19 C :    0.012802
  20 C :   -0.150429
  21 H :   -0.029880
  22 C :    0.002124
  23 H :    0.031498
  24 H :    0.032373
  25 C :   -0.068246
  26 H :    0.010291
  27 H :    0.017215
  28 C :   -0.017208
  29 H :    0.042170
  30 H :    0.036881
  31 H :    0.027470
  32 H :    0.028567
  33 H :    0.037075
Sum of atomic charges:   -0.0000000

LOEWDIN ATOMIC CHARGES
----------------------
   0 S :    0.405788
   1 C :   -0.188093
   2 C :   -0.052295
   3 C :   -0.073636
   4 C :   -0.208577
   5 H :    0.023755
   6 C :   -0.031008
   7 H :    0.029332
   8 H :    0.030589
   9 C :   -0.042116
  10 H :    0.021543
  11 H :    0.032948
  12 C :   -0.068982
  13 H :    0.035560
  14 H :    0.025717
  15 H :    0.018291
  16 S :    0.424415
  17 C :   -0.196493
  18 C :   -0.061009
  19 C :   -0.050415
  20 C :   -0.182601
  21 H :    0.012022
  22 C :   -0.038520
  23 H :    0.026587
  24 H :    0.037145
  25 C :   -0.047258
  26 H :    0.023334
  27 H :    0.016567
  28 C :   -0.057298
  29 H :    0.032678
  30 H :    0.026973
  31 H :    0.023529
  32 H :    0.025841
  33 H :    0.025684

  Mayer bond orders larger than 0.100000
B(  0-S ,  1-C ) :   1.1012 B(  0-S ,  4-C ) :   1.1555 B(  1-C ,  2-C ) :   1.6475
B(  1-C , 32-H ) :   0.9740 B(  2-C ,  3-C ) :   1.2141 B(  2-C ,  6-C ) :   1.0112
B(  3-C ,  4-C ) :   1.5521 B(  3-C ,  5-H ) :   0.9998 B(  4-C , 20-C ) :   1.0841
B(  6-C ,  7-H ) :   0.9247 B(  6-C ,  8-H ) :   0.9307 B(  6-C ,  9-C ) :   1.0598
B(  9-C , 10-H ) :   0.9600 B(  9-C , 11-H ) :   0.9625 B(  9-C , 12-C ) :   1.0787
B( 12-C , 13-H ) :   0.9757 B( 12-C , 14-H ) :   0.9807 B( 12-C , 15-H ) :   0.9722
B( 16-S , 17-C ) :   1.1707 B( 16-S , 20-C ) :   1.1285 B( 17-C , 18-C ) :   1.5991
B( 17-C , 20-C ) :   0.1012 B( 17-C , 33-H ) :   0.9659 B( 18-C , 19-C ) :   1.2438
B( 18-C , 21-H ) :   1.0069 B( 19-C , 20-C ) :   1.5654 B( 19-C , 22-C ) :   1.0542
B( 22-C , 23-H ) :   0.9405 B( 22-C , 24-H ) :   0.9318 B( 22-C , 25-C ) :   1.0408
B( 25-C , 26-H ) :   0.9519 B( 25-C , 27-H ) :   0.9567 B( 25-C , 28-C ) :   1.0673
B( 28-C , 29-H ) :   0.9747 B( 28-C , 30-H ) :   0.9755 B( 28-C , 31-H ) :   0.9746

Dispersion correction           -0.014198396
FINAL SINGLE POINT ENERGY     -1339.854384186584

DIPOLE MOMENT
-------------
                                X             Y             Z
Electronic contribution:     19.75964      27.91639       3.57084
Nuclear contribution   :    -20.16911     -28.54157      -3.44159
                        -----------------------------------------
Total Dipole Moment    :     -0.40946      -0.62518       0.12925
                        -----------------------------------------
Magnitude (a.u.)       :      0.75843
Magnitude (Debye)      :      1.92778

Rotational constants in cm-1:     0.017026     0.009894     0.006526
Rotational constants in MHz :   510.426072   296.619224   195.644003

                             ****ORCA TERMINATED NORMALLY****
TOTAL RUN TIME: 0 days 0 hours 0 minutes 34 seconds 281 msec
