                         Program Version 4.2.1 -  RELEASE  -
|  1> ! wB97X-D3 SP def2-SVP
|  2> %pal
|  3> nprocs 16
|  4> end
|  5>
|  6> * xyz 0 1
|  7> S 	 57.0407 	 12.2118 	 75.7168
|  8> C 	 58.6072 	 12.8169 	 76.4017
|  9> C 	 59.1144 	 11.8616 	 77.3216
| 10> C 	 58.3468 	 10.6283 	 77.3012
| 11> C 	 57.2327 	 10.7135 	 76.5619
| 12> H 	 58.5261 	 9.69858 	 77.8023
| 13> C 	 60.4596 	 12.0132 	 78.0147
| 14> H 	 60.5454 	 11.2437 	 78.7352
| 15> H 	 60.386 	 12.9421 	 78.6049
| 16> C 	 61.6984 	 12.0159 	 77.1743
| 17> H 	 61.8027 	 11.3376 	 76.3604
| 18> H 	 61.5629 	 12.9502 	 76.6417
| 19> C 	 62.9382 	 11.9563 	 78.1105
| 20> H 	 63.072 	 11.032 	 78.5792
| 21> H 	 63.8495 	 12.3207 	 77.7582
| 22> H 	 62.6499 	 12.6083 	 78.9576
| 23> S 	 54.9464 	 9.93424 	 77.8268
| 24> C 	 54.1336 	 8.39927 	 77.429
| 25> C 	 54.8434 	 7.77794 	 76.4442
| 26> C 	 55.937 	 8.56837 	 75.9272
| 27> C 	 56.2065 	 9.68509 	 76.6629
| 28> H 	 54.6508 	 6.74544 	 76.0894
| 29> C 	 56.8996 	 8.19885 	 74.7413
| 30> H 	 57.4344 	 9.07007 	 74.3537
| 31> H 	 56.3032 	 7.80966 	 73.9527
| 32> C 	 57.9289 	 7.18691 	 75.2284
| 33> H 	 57.3681 	 6.28457 	 75.4649
| 34> H 	 58.4382 	 7.64346 	 76.0747
| 35> C 	 58.9984 	 6.81784 	 74.2536
| 36> H 	 58.5417 	 6.70605 	 73.2463
| 37> H 	 59.4833 	 5.92557 	 74.4644
| 38> H 	 59.5855 	 7.66804 	 74.1213
| 39> H 	 59.2838 	 13.5537 	 76.0155
| 40> H 	 53.2833 	 7.99404 	 77.8577
| 41> *
| 42>
| 43>                          ****END OF INPUT****

CARTESIAN COORDINATES (ANGSTROEM)
---------------------------------
  S     57.040700   12.211800   75.716800
  C     58.607200   12.816900   76.401700
  C     59.114400   11.861600   77.321600
  C     58.346800   10.628300   77.301200
  C     57.232700   10.713500   76.561900
  H     58.526100    9.698580   77.802300
  C     60.459600   12.013200   78.014700
  H     60.545400   11.243700   78.735200
  H     60.386000   12.942100   78.604900
  C     61.698400   12.015900   77.174300
  H     61.802700   11.337600   76.360400
  H     61.562900   12.950200   76.641700
  C     62.938200   11.956300   78.110500
  H     63.072000   11.032000   78.579200
  H     63.849500   12.320700   77.758200
  H     62.649900   12.608300   78.957600
  S     54.946400    9.934240   77.826800
  C     54.133600    8.399270   77.429000
  C     54.843400    7.777940   76.444200
  C     55.937000    8.568370   75.927200
  C     56.206500    9.685090   76.662900
  H     54.650800    6.745440   76.089400
  C     56.899600    8.198850   74.741300
  H     57.434400    9.070070   74.353700
  H     56.303200    7.809660   73.952700
  C     57.928900    7.186910   75.228400
  H     57.368100    6.284570   75.464900
  H     58.438200    7.643460   76.074700
  C     58.998400    6.817840   74.253600
  H     58.541700    6.706050   73.246300
  H     59.483300    5.925570   74.464400
  H     59.585500    7.668040   74.121300
  H     59.283800   13.553700   76.015500
  H     53.283300    7.994040   77.857700

 Total Charge           Charge          ....    0
 Multiplicity           Mult            ....    1
 Number of Electrons    NEL             ....  134
 Basis Dimension        Dim             ....  322

ORBITAL ENERGIES
----------------

  NO   OCC          E(Eh)            E(eV)
   0   2.0000     -88.970548     -2421.0117
   1   2.0000     -88.959820     -2420.7198
   2   2.0000     -10.324268      -280.9376
   3   2.0000     -10.321533      -280.8632
   4   2.0000     -10.319765      -280.8151
   5   2.0000     -10.315287      -280.6932
   6   2.0000     -10.310085      -280.5517
   7   2.0000     -10.301656      -280.3223
   8   2.0000     -10.297930      -280.2209
   9   2.0000     -10.292458      -280.0720
  10   2.0000     -10.289910      -280.0027
  11   2.0000     -10.287958      -279.9496
  12   2.0000     -10.286040      -279.8974
  13   2.0000     -10.277426      -279.6630
  14   2.0000     -10.274713      -279.5892
  15   2.0000     -10.264018      -279.2981
  16   2.0000      -8.084220      -219.9828
  17   2.0000      -8.074673      -219.7230
  18   2.0000      -6.042899      -164.4356
  19   2.0000      -6.038866      -164.3259
  20   2.0000      -6.034841      -164.2164
  21   2.0000      -6.033335      -164.1754
  22   2.0000      -6.029068      -164.0593
  23   2.0000      -6.025330      -163.9576
  24   2.0000      -1.008246       -27.4358
  25   2.0000      -0.981216       -26.7003
  26   2.0000      -0.920626       -25.0515
  27   2.0000      -0.911776       -24.8107
  28   2.0000      -0.872187       -23.7334
  29   2.0000      -0.849114       -23.1056
  30   2.0000      -0.846006       -23.0210
  31   2.0000      -0.820382       -22.3237
  32   2.0000      -0.783227       -21.3127
  33   2.0000      -0.773361       -21.0442
  34   2.0000      -0.718292       -19.5457
  35   2.0000      -0.703369       -19.1396
  36   2.0000      -0.691867       -18.8267
  37   2.0000      -0.662421       -18.0254
  38   2.0000      -0.645005       -17.5515
  39   2.0000      -0.614651       -16.7255
  40   2.0000      -0.595826       -16.2133
  41   2.0000      -0.577269       -15.7083
  42   2.0000      -0.576128       -15.6772
  43   2.0000      -0.564568       -15.3627
  44   2.0000      -0.534385       -14.5413
  45   2.0000      -0.529020       -14.3954
  46   2.0000      -0.518810       -14.1175
  47   2.0000      -0.518256       -14.1025
  48   2.0000      -0.509440       -13.8626
  49   2.0000      -0.501244       -13.6395
  50   2.0000      -0.493570       -13.4307
  51   2.0000      -0.478056       -13.0086
  52   2.0000      -0.474434       -12.9100
  53   2.0000      -0.471271       -12.8239
  54   2.0000      -0.456183       -12.4134
  55   2.0000      -0.452677       -12.3180
  56   2.0000      -0.446655       -12.1541
  57   2.0000      -0.442057       -12.0290
  58   2.0000      -0.424806       -11.5596
  59   2.0000      -0.423293       -11.5184
  60   2.0000      -0.420896       -11.4532
  61   2.0000      -0.412790       -11.2326
  62   2.0000      -0.408801       -11.1240
  63   2.0000      -0.339590        -9.2407
  64   2.0000      -0.327914        -8.9230
  65   2.0000      -0.321612        -8.7515
  66   2.0000      -0.313831        -8.5398
  67   0.0000       0.041829         1.1382
  68   0.0000       0.055409         1.5078
  69   0.0000       0.111483         3.0336
  70   0.0000       0.120754         3.2859
  71   0.0000       0.126824         3.4511

MULLIKEN ATOMIC CHARGES
-----------------------
   0 S :    0.121870
   1 C :   -0.119937
   2 C :   -0.089311
   3 C :    0.037949
   4 C :   -0.149445
   5 H :    0.017273
   6 C :    0.048240
   7 H :    0.003570
   8 H :    0.042800
   9 C :   -0.040788
  10 H :    0.026435
  11 H :    0.009987
  12 C :   -0.007227
  13 H :    0.024673
  14 H :    0.024099
  15 H :    0.014357
  16 S :    0.102274
  17 C :   -0.056860
  18 C :   -0.038758
  19 C :   -0.051168
  20 C :   -0.189582
  21 H :    0.030602
  22 C :    0.085774
  23 H :    0.024506
  24 H :    0.013086
  25 C :   -0.092905
  26 H :    0.020507
  27 H :    0.022349
  28 C :    0.032345
  29 H :    0.007837
  30 H :    0.027588
  31 H :    0.011891
  32 H :    0.054696
  33 H :    0.031271
Sum of atomic charges:   -0.0000000

LOEWDIN ATOMIC CHARGES
----------------------
   0 S :    0.394545
   1 C :   -0.187785
   2 C :   -0.046024
   3 C :   -0.058120
   4 C :   -0.202775
   5 H :    0.032496
   6 C :   -0.035047
   7 H :    0.019716
   8 H :    0.039348
   9 C :   -0.036682
  10 H :    0.020195
  11 H :    0.021848
  12 C :   -0.053172
  13 H :    0.020041
  14 H :    0.018064
  15 H :    0.030231
  16 S :    0.396401
  17 C :   -0.162598
  18 C :   -0.073624
  19 C :   -0.054344
  20 C :   -0.204179
  21 H :    0.036086
  22 C :   -0.020752
  23 H :    0.027803
  24 H :    0.021246
  25 C :   -0.040199
  26 H :    0.020885
  27 H :    0.022482
  28 C :   -0.055722
  29 H :    0.026544
  30 H :    0.018948
  31 H :    0.018123
  32 H :    0.027344
  33 H :    0.018674

  Mayer bond orders larger than 0.100000
B(  0-S ,  1-C ) :   1.1177 B(  0-S ,  4-C ) :   1.1362 B(  1-C ,  2-C ) :   1.6194
B(  1-C , 32-H ) :   0.9699 B(  2-C ,  3-C ) :   1.2109 B(  2-C ,  6-C ) :   1.0246
B(  3-C ,  4-C ) :   1.6192 B(  3-C ,  5-H ) :   0.9879 B(  4-C , 20-C ) :   0.9983
B(  6-C ,  7-H ) :   0.9470 B(  6-C ,  8-H ) :   0.9305 B(  6-C ,  9-C ) :   1.0551
B(  9-C , 10-H ) :   0.9637 B(  9-C , 11-H ) :   0.9501 B(  9-C , 12-C ) :   1.0686
B( 12-C , 13-H ) :   0.9767 B( 12-C , 14-H ) :   0.9748 B( 12-C , 15-H ) :   0.9710
B( 16-S , 17-C ) :   1.1400 B( 16-S , 20-C ) :   1.1344 B( 17-C , 18-C ) :   1.6280
B( 17-C , 33-H ) :   0.9788 B( 18-C , 19-C ) :   1.2283 B( 18-C , 21-H ) :   0.9802
B( 19-C , 20-C ) :   1.6443 B( 19-C , 22-C ) :   1.0412 B( 22-C , 23-H ) :   0.9337
B( 22-C , 24-H ) :   0.9278 B( 22-C , 25-C ) :   1.0768 B( 25-C , 26-H ) :   0.9547
B( 25-C , 27-H ) :   0.9551 B( 25-C , 28-C ) :   1.0945 B( 28-C , 29-H ) :   0.9661
B( 28-C , 30-H ) :   0.9721 B( 28-C , 31-H ) :   0.9701

Dispersion correction           -0.014242986
FINAL SINGLE POINT ENERGY     -1339.852940775016

DIPOLE MOMENT
-------------
                                X             Y             Z
Electronic contribution:    -26.89051       8.80905       3.25829
Nuclear contribution   :     27.49386      -9.21656      -3.32023
                        -----------------------------------------
Total Dipole Moment    :      0.60335      -0.40751      -0.06194
                        -----------------------------------------
Magnitude (a.u.)       :      0.73071
Magnitude (Debye)      :      1.85731

Rotational constants in cm-1:     0.018466     0.008309     0.006790
Rotational constants in MHz :   553.590087   249.108307   203.554641

                             ****ORCA TERMINATED NORMALLY****
TOTAL RUN TIME: 0 days 0 hours 0 minutes 30 seconds 65 msec
