                         Program Version 4.2.1 -  RELEASE  -
|  1> ! wB97X-D3 SP def2-SVP
|  2> %pal
|  3> nprocs 16
|  4> end
|  5>
|  6> * xyz 0 1
|  7> S 	 -7.82867 	 7.77791 	 84.3758
|  8> C 	 -8.71163 	 6.52949 	 85.0822
|  9> C 	 -8.40693 	 6.3888 	 86.4374
| 10> C 	 -7.29473 	 7.19411 	 86.8596
| 11> C 	 -6.81912 	 7.949 	 85.8194
| 12> H 	 -6.73846 	 7.20239 	 87.8065
| 13> C 	 -9.05987 	 5.34899 	 87.4402
| 14> H 	 -8.581 	 4.39587 	 87.0809
| 15> H 	 -10.1827 	 5.26115 	 87.2816
| 16> C 	 -8.78639 	 5.4927 	 88.987
| 17> H 	 -7.68543 	 5.43925 	 89.1743
| 18> H 	 -8.98684 	 6.52354 	 89.3608
| 19> C 	 -9.54632 	 4.46094 	 89.8222
| 20> H 	 -9.0803 	 3.4181 	 89.8064
| 21> H 	 -9.42535 	 4.80252 	 90.8955
| 22> H 	 -10.616 	 4.39859 	 89.7456
| 23> S 	 -6.05595 	 10.4341 	 86.6704
| 24> C 	 -4.44461 	 10.9788 	 86.3407
| 25> C 	 -3.66139 	 9.95544 	 85.7704
| 26> C 	 -4.42086 	 8.78045 	 85.5572
| 27> C 	 -5.79682 	 8.94119 	 85.8379
| 28> H 	 -2.65711 	 10.0207 	 85.6671
| 29> C 	 -3.76784 	 7.58328 	 84.9821
| 30> H 	 -3.40405 	 7.93672 	 83.9916
| 31> H 	 -4.57208 	 6.83474 	 84.8093
| 32> C 	 -2.66929 	 6.96297 	 85.8507
| 33> H 	 -2.11501 	 7.80821 	 86.2686
| 34> H 	 -1.94501 	 6.34044 	 85.3454
| 35> C 	 -3.16764 	 6.2741 	 87.1579
| 36> H 	 -2.34985 	 5.93751 	 87.7711
| 37> H 	 -3.95509 	 5.48956 	 87.0852
| 38> H 	 -3.56382 	 6.92126 	 87.907
| 39> H 	 -9.64328 	 6.22438 	 84.6749
| 40> H 	 -3.98506 	 11.9425 	 86.5358
| 41> *
| 42>
| 43>                          ****END OF INPUT****

CARTESIAN COORDINATES (ANGSTROEM)
---------------------------------
  S     -7.828670    7.777910   84.375800
  C     -8.711630    6.529490   85.082200
  C     -8.406930    6.388800   86.437400
  C     -7.294730    7.194110   86.859600
  C     -6.819120    7.949000   85.819400
  H     -6.738460    7.202390   87.806500
  C     -9.059870    5.348990   87.440200
  H     -8.581000    4.395870   87.080900
  H    -10.182700    5.261150   87.281600
  C     -8.786390    5.492700   88.987000
  H     -7.685430    5.439250   89.174300
  H     -8.986840    6.523540   89.360800
  C     -9.546320    4.460940   89.822200
  H     -9.080300    3.418100   89.806400
  H     -9.425350    4.802520   90.895500
  H    -10.616000    4.398590   89.745600
  S     -6.055950   10.434100   86.670400
  C     -4.444610   10.978800   86.340700
  C     -3.661390    9.955440   85.770400
  C     -4.420860    8.780450   85.557200
  C     -5.796820    8.941190   85.837900
  H     -2.657110   10.020700   85.667100
  C     -3.767840    7.583280   84.982100
  H     -3.404050    7.936720   83.991600
  H     -4.572080    6.834740   84.809300
  C     -2.669290    6.962970   85.850700
  H     -2.115010    7.808210   86.268600
  H     -1.945010    6.340440   85.345400
  C     -3.167640    6.274100   87.157900
  H     -2.349850    5.937510   87.771100
  H     -3.955090    5.489560   87.085200
  H     -3.563820    6.921260   87.907000
  H     -9.643280    6.224380   84.674900
  H     -3.985060   11.942500   86.535800

 Total Charge           Charge          ....    0
 Multiplicity           Mult            ....    1
 Number of Electrons    NEL             ....  134
 Basis Dimension        Dim             ....  322

ORBITAL ENERGIES
----------------

  NO   OCC          E(Eh)            E(eV)
   0   2.0000     -88.968485     -2420.9556
   1   2.0000     -88.962913     -2420.8039
   2   2.0000     -10.322826      -280.8984
   3   2.0000     -10.318620      -280.7839
   4   2.0000     -10.317971      -280.7663
   5   2.0000     -10.306998      -280.4677
   6   2.0000     -10.305966      -280.4396
   7   2.0000     -10.305498      -280.4269
   8   2.0000     -10.299324      -280.2589
   9   2.0000     -10.298248      -280.2296
  10   2.0000     -10.295836      -280.1640
  11   2.0000     -10.290141      -280.0090
  12   2.0000     -10.289363      -279.9878
  13   2.0000     -10.289127      -279.9814
  14   2.0000     -10.284835      -279.8646
  15   2.0000     -10.274495      -279.5832
  16   2.0000      -8.083348      -219.9591
  17   2.0000      -8.078657      -219.8314
  18   2.0000      -6.041801      -164.4058
  19   2.0000      -6.037725      -164.2948
  20   2.0000      -6.036930      -164.2732
  21   2.0000      -6.034289      -164.2014
  22   2.0000      -6.032947      -164.1648
  23   2.0000      -6.029667      -164.0756
  24   2.0000      -1.009599       -27.4726
  25   2.0000      -0.986153       -26.8346
  26   2.0000      -0.909906       -24.7598
  27   2.0000      -0.897697       -24.4276
  28   2.0000      -0.874008       -23.7830
  29   2.0000      -0.848691       -23.0941
  30   2.0000      -0.847582       -23.0639
  31   2.0000      -0.812593       -22.1118
  32   2.0000      -0.780916       -21.2498
  33   2.0000      -0.765225       -20.8228
  34   2.0000      -0.711672       -19.3656
  35   2.0000      -0.701087       -19.0775
  36   2.0000      -0.688194       -18.7267
  37   2.0000      -0.663578       -18.0569
  38   2.0000      -0.645418       -17.5627
  39   2.0000      -0.614300       -16.7159
  40   2.0000      -0.592304       -16.1174
  41   2.0000      -0.565483       -15.3876
  42   2.0000      -0.557391       -15.1674
  43   2.0000      -0.551607       -15.0100
  44   2.0000      -0.540698       -14.7131
  45   2.0000      -0.519666       -14.1408
  46   2.0000      -0.516475       -14.0540
  47   2.0000      -0.506621       -13.7858
  48   2.0000      -0.503700       -13.7064
  49   2.0000      -0.493067       -13.4170
  50   2.0000      -0.490753       -13.3541
  51   2.0000      -0.481732       -13.1086
  52   2.0000      -0.475559       -12.9406
  53   2.0000      -0.460385       -12.5277
  54   2.0000      -0.456098       -12.4111
  55   2.0000      -0.451170       -12.2770
  56   2.0000      -0.444368       -12.0919
  57   2.0000      -0.438915       -11.9435
  58   2.0000      -0.427304       -11.6275
  59   2.0000      -0.423348       -11.5199
  60   2.0000      -0.418990       -11.4013
  61   2.0000      -0.413762       -11.2590
  62   2.0000      -0.411076       -11.1859
  63   2.0000      -0.340545        -9.2667
  64   2.0000      -0.330681        -8.9983
  65   2.0000      -0.315618        -8.5884
  66   2.0000      -0.302056        -8.2194
  67   0.0000       0.044550         1.2123
  68   0.0000       0.049833         1.3560
  69   0.0000       0.109065         2.9678
  70   0.0000       0.123799         3.3688
  71   0.0000       0.130097         3.5401

MULLIKEN ATOMIC CHARGES
-----------------------
   0 S :    0.120595
   1 C :   -0.092567
   2 C :   -0.092093
   3 C :    0.027504
   4 C :   -0.202997
   5 H :    0.027451
   6 C :    0.002791
   7 H :    0.055011
   8 H :    0.041525
   9 C :   -0.095401
  10 H :    0.035738
  11 H :    0.037260
  12 C :   -0.068390
  13 H :    0.049315
  14 H :    0.033473
  15 H :    0.038470
  16 S :    0.136415
  17 C :   -0.089288
  18 C :   -0.001515
  19 C :   -0.045956
  20 C :   -0.165052
  21 H :   -0.019869
  22 C :    0.073527
  23 H :    0.044108
  24 H :    0.031962
  25 C :   -0.051758
  26 H :    0.018528
  27 H :    0.037355
  28 C :   -0.059900
  29 H :    0.020225
  30 H :    0.036925
  31 H :    0.016177
  32 H :    0.044520
  33 H :    0.055913
Sum of atomic charges:   -0.0000000

LOEWDIN ATOMIC CHARGES
----------------------
   0 S :    0.431323
   1 C :   -0.222739
   2 C :   -0.061025
   3 C :   -0.064251
   4 C :   -0.194954
   5 H :    0.039423
   6 C :   -0.042480
   7 H :    0.040940
   8 H :    0.033236
   9 C :   -0.053555
  10 H :    0.027945
  11 H :    0.027030
  12 C :   -0.075882
  13 H :    0.034919
  14 H :    0.035510
  15 H :    0.022548
  16 S :    0.436685
  17 C :   -0.190131
  18 C :   -0.061880
  19 C :   -0.047346
  20 C :   -0.230679
  21 H :    0.011268
  22 C :   -0.037301
  23 H :    0.040359
  24 H :    0.032102
  25 C :   -0.035779
  26 H :    0.026028
  27 H :    0.025064
  28 C :   -0.075041
  29 H :    0.026839
  30 H :    0.026023
  31 H :    0.021866
  32 H :    0.022576
  33 H :    0.031361

  Mayer bond orders larger than 0.100000
B(  0-S ,  1-C ) :   1.1615 B(  0-S ,  4-C ) :   1.1621 B(  1-C ,  2-C ) :   1.6059
B(  1-C ,  4-C ) :   0.1004 B(  1-C , 32-H ) :   0.9691 B(  2-C ,  3-C ) :   1.2377
B(  2-C ,  6-C ) :   0.9927 B(  3-C ,  4-C ) :   1.5896 B(  3-C ,  5-H ) :   0.9915
B(  4-C , 20-C ) :   1.0206 B(  6-C ,  7-H ) :   0.9458 B(  6-C ,  8-H ) :   0.9526
B(  6-C ,  9-C ) :   1.0621 B(  9-C , 10-H ) :   0.9450 B(  9-C , 11-H ) :   0.9606
B(  9-C , 12-C ) :   1.0808 B( 12-C , 13-H ) :   0.9748 B( 12-C , 14-H ) :   0.9711
B( 12-C , 15-H ) :   0.9762 B( 16-S , 17-C ) :   1.1817 B( 16-S , 20-C ) :   1.1524
B( 17-C , 18-C ) :   1.5632 B( 17-C , 20-C ) :   0.1061 B( 17-C , 33-H ) :   0.9665
B( 18-C , 19-C ) :   1.2822 B( 18-C , 21-H ) :   1.0010 B( 19-C , 20-C ) :   1.5390
B( 19-C , 22-C ) :   1.0458 B( 22-C , 23-H ) :   0.9365 B( 22-C , 24-H ) :   0.9314
B( 22-C , 25-C ) :   1.0618 B( 25-C , 26-H ) :   0.9567 B( 25-C , 27-H ) :   0.9615
B( 25-C , 28-C ) :   1.0659 B( 28-C , 29-H ) :   0.9689 B( 28-C , 30-H ) :   0.9771
B( 28-C , 31-H ) :   0.9712

Dispersion correction           -0.014803807
FINAL SINGLE POINT ENERGY     -1339.864431893016

DIPOLE MOMENT
-------------
                                X             Y             Z
Electronic contribution:     -4.63455      20.76338     -15.42562
Nuclear contribution   :      4.88241     -21.02729      15.87025
                        -----------------------------------------
Total Dipole Moment    :      0.24786      -0.26391       0.44463
                        -----------------------------------------
Magnitude (a.u.)       :      0.57339
Magnitude (Debye)      :      1.45744

Rotational constants in cm-1:     0.018405     0.008210     0.007458
Rotational constants in MHz :   551.779247   246.141703   223.592750

                             ****ORCA TERMINATED NORMALLY****
TOTAL RUN TIME: 0 days 0 hours 0 minutes 32 seconds 828 msec
