                         Program Version 4.2.1 -  RELEASE  -
|  1> ! wB97X-D3 SP def2-SVP
|  2> %pal
|  3> nprocs 16
|  4> end
|  5>
|  6> * xyz 0 1
|  7> S 	 -31.4249 	 2.30819 	 99.1175
|  8> C 	 -31.0378 	 1.44833 	 97.6165
|  9> C 	 -32.0202 	 0.549288 	 97.2748
| 10> C 	 -33.1634 	 0.770927 	 98.0661
| 11> C 	 -33.0503 	 1.64366 	 99.1536
| 12> H 	 -34.1119 	 0.298914 	 97.8607
| 13> C 	 -31.9452 	 -0.356159 	 96.0937
| 14> H 	 -32.5202 	 -1.23081 	 96.2351
| 15> H 	 -30.8703 	 -0.668176 	 96.1846
| 16> C 	 -32.1704 	 0.303703 	 94.7278
| 17> H 	 -33.3097 	 0.422367 	 94.6604
| 18> H 	 -31.6385 	 1.25194 	 94.672
| 19> C 	 -31.7258 	 -0.525365 	 93.481
| 20> H 	 -32.3534 	 -1.39456 	 93.3118
| 21> H 	 -31.662 	 0.0956895 	 92.5718
| 22> H 	 -30.6916 	 -0.846835 	 93.7517
| 23> S 	 -33.7211 	 3.49497 	 101.071
| 24> C 	 -35.014 	 3.18169 	 102.14
| 25> C 	 -35.7443 	 2.04398 	 101.8
| 26> C 	 -35.1849 	 1.40823 	 100.633
| 27> C 	 -34.032 	 2.0272 	 100.178
| 28> H 	 -36.5361 	 1.61756 	 102.325
| 29> C 	 -35.7436 	 0.0349899 	 100.206
| 30> H 	 -34.7737 	 -0.579176 	 100.118
| 31> H 	 -36.0425 	 0.0243293 	 99.1864
| 32> C 	 -36.6747 	 -0.732263 	 101.217
| 33> H 	 -37.5664 	 -0.223486 	 101.554
| 34> H 	 -36.0971 	 -1.00316 	 102.142
| 35> C 	 -37.0673 	 -2.02929 	 100.617
| 36> H 	 -38.0019 	 -2.36609 	 101.188
| 37> H 	 -36.3097 	 -2.76514 	 100.748
| 38> H 	 -37.3489 	 -2.00021 	 99.5252
| 39> H 	 -30.0541 	 1.33475 	 97.1848
| 40> H 	 -35.1139 	 3.64586 	 103.1
| 41> *
| 42>
| 43>                          ****END OF INPUT****

CARTESIAN COORDINATES (ANGSTROEM)
---------------------------------
  S    -31.424900    2.308190   99.117500
  C    -31.037800    1.448330   97.616500
  C    -32.020200    0.549288   97.274800
  C    -33.163400    0.770927   98.066100
  C    -33.050300    1.643660   99.153600
  H    -34.111900    0.298914   97.860700
  C    -31.945200   -0.356159   96.093700
  H    -32.520200   -1.230810   96.235100
  H    -30.870300   -0.668176   96.184600
  C    -32.170400    0.303703   94.727800
  H    -33.309700    0.422367   94.660400
  H    -31.638500    1.251940   94.672000
  C    -31.725800   -0.525365   93.481000
  H    -32.353400   -1.394560   93.311800
  H    -31.662000    0.095689   92.571800
  H    -30.691600   -0.846835   93.751700
  S    -33.721100    3.494970  101.071000
  C    -35.014000    3.181690  102.140000
  C    -35.744300    2.043980  101.800000
  C    -35.184900    1.408230  100.633000
  C    -34.032000    2.027200  100.178000
  H    -36.536100    1.617560  102.325000
  C    -35.743600    0.034990  100.206000
  H    -34.773700   -0.579176  100.118000
  H    -36.042500    0.024329   99.186400
  C    -36.674700   -0.732263  101.217000
  H    -37.566400   -0.223486  101.554000
  H    -36.097100   -1.003160  102.142000
  C    -37.067300   -2.029290  100.617000
  H    -38.001900   -2.366090  101.188000
  H    -36.309700   -2.765140  100.748000
  H    -37.348900   -2.000210   99.525200
  H    -30.054100    1.334750   97.184800
  H    -35.113900    3.645860  103.100000

 Total Charge           Charge          ....    0
 Multiplicity           Mult            ....    1
 Number of Electrons    NEL             ....  134
 Basis Dimension        Dim             ....  322

ORBITAL ENERGIES
----------------

  NO   OCC          E(Eh)            E(eV)
   0   2.0000     -88.967340     -2420.9244
   1   2.0000     -88.966772     -2420.9089
   2   2.0000     -10.334402      -281.2134
   3   2.0000     -10.327666      -281.0301
   4   2.0000     -10.314348      -280.6677
   5   2.0000     -10.312105      -280.6066
   6   2.0000     -10.305143      -280.4172
   7   2.0000     -10.301481      -280.3175
   8   2.0000     -10.297286      -280.2034
   9   2.0000     -10.295105      -280.1441
  10   2.0000     -10.294821      -280.1363
  11   2.0000     -10.292830      -280.0821
  12   2.0000     -10.291123      -280.0357
  13   2.0000     -10.290975      -280.0317
  14   2.0000     -10.285165      -279.8736
  15   2.0000     -10.283440      -279.8266
  16   2.0000      -8.082366      -219.9323
  17   2.0000      -8.081398      -219.9060
  18   2.0000      -6.040789      -164.3782
  19   2.0000      -6.040024      -164.3574
  20   2.0000      -6.036760      -164.2686
  21   2.0000      -6.036001      -164.2479
  22   2.0000      -6.033170      -164.1709
  23   2.0000      -6.032074      -164.1411
  24   2.0000      -1.007921       -27.4269
  25   2.0000      -0.986424       -26.8420
  26   2.0000      -0.914254       -24.8781
  27   2.0000      -0.911971       -24.8160
  28   2.0000      -0.867769       -23.6132
  29   2.0000      -0.859322       -23.3833
  30   2.0000      -0.843501       -22.9528
  31   2.0000      -0.813906       -22.1475
  32   2.0000      -0.782913       -21.3041
  33   2.0000      -0.771408       -20.9911
  34   2.0000      -0.707173       -19.2432
  35   2.0000      -0.700288       -19.0558
  36   2.0000      -0.696765       -18.9599
  37   2.0000      -0.661228       -17.9929
  38   2.0000      -0.636343       -17.3158
  39   2.0000      -0.620601       -16.8874
  40   2.0000      -0.599739       -16.3197
  41   2.0000      -0.579840       -15.7783
  42   2.0000      -0.572060       -15.5665
  43   2.0000      -0.556473       -15.1424
  44   2.0000      -0.529578       -14.4105
  45   2.0000      -0.525373       -14.2961
  46   2.0000      -0.520074       -14.1519
  47   2.0000      -0.512617       -13.9490
  48   2.0000      -0.503312       -13.6958
  49   2.0000      -0.497464       -13.5367
  50   2.0000      -0.492674       -13.4063
  51   2.0000      -0.479541       -13.0490
  52   2.0000      -0.474274       -12.9057
  53   2.0000      -0.468904       -12.7595
  54   2.0000      -0.458463       -12.4754
  55   2.0000      -0.450927       -12.2703
  56   2.0000      -0.445904       -12.1337
  57   2.0000      -0.439012       -11.9461
  58   2.0000      -0.433452       -11.7948
  59   2.0000      -0.426996       -11.6192
  60   2.0000      -0.421837       -11.4788
  61   2.0000      -0.413054       -11.2398
  62   2.0000      -0.410752       -11.1771
  63   2.0000      -0.357044        -9.7157
  64   2.0000      -0.333022        -9.0620
  65   2.0000      -0.330721        -8.9994
  66   2.0000      -0.281431        -7.6581
  67   0.0000       0.018504         0.5035
  68   0.0000       0.083918         2.2835
  69   0.0000       0.098535         2.6813
  70   0.0000       0.119869         3.2618
  71   0.0000       0.137818         3.7502

MULLIKEN ATOMIC CHARGES
-----------------------
   0 S :    0.098544
   1 C :   -0.112892
   2 C :   -0.097339
   3 C :   -0.001442
   4 C :   -0.111791
   5 H :   -0.012051
   6 C :    0.072757
   7 H :    0.016448
   8 H :    0.020234
   9 C :   -0.084647
  10 H :    0.038852
  11 H :    0.035607
  12 C :   -0.052984
  13 H :    0.037712
  14 H :    0.047171
  15 H :    0.026660
  16 S :    0.112162
  17 C :   -0.068360
  18 C :   -0.014798
  19 C :   -0.049454
  20 C :   -0.130808
  21 H :   -0.005147
  22 C :   -0.004639
  23 H :    0.044353
  24 H :    0.036843
  25 C :   -0.075742
  26 H :    0.042466
  27 H :    0.044706
  28 C :   -0.060109
  29 H :    0.037091
  30 H :    0.031729
  31 H :    0.038224
  32 H :    0.044691
  33 H :    0.055951
Sum of atomic charges:   -0.0000000

LOEWDIN ATOMIC CHARGES
----------------------
   0 S :    0.393165
   1 C :   -0.191876
   2 C :   -0.064361
   3 C :   -0.072745
   4 C :   -0.183756
   5 H :    0.023207
   6 C :   -0.033850
   7 H :    0.024113
   8 H :    0.035346
   9 C :   -0.040292
  10 H :    0.030821
  11 H :    0.025977
  12 C :   -0.068099
  13 H :    0.022880
  14 H :    0.030788
  15 H :    0.025879
  16 S :    0.425474
  17 C :   -0.194583
  18 C :   -0.061403
  19 C :   -0.053285
  20 C :   -0.203780
  21 H :    0.020299
  22 C :   -0.038474
  23 H :    0.046844
  24 H :    0.022077
  25 C :   -0.048061
  26 H :    0.020526
  27 H :    0.037340
  28 C :   -0.067597
  29 H :    0.035543
  30 H :    0.019779
  31 H :    0.028527
  32 H :    0.026456
  33 H :    0.027121

  Mayer bond orders larger than 0.100000
B(  0-S ,  1-C ) :   1.1344 B(  0-S ,  4-C ) :   1.1463 B(  1-C ,  2-C ) :   1.6010
B(  1-C ,  4-C ) :   0.1023 B(  1-C , 32-H ) :   0.9600 B(  2-C ,  3-C ) :   1.2649
B(  2-C ,  6-C ) :   1.0324 B(  3-C ,  4-C ) :   1.5448 B(  3-C ,  5-H ) :   0.9931
B(  4-C , 20-C ) :   1.0808 B(  6-C ,  7-H ) :   0.9379 B(  6-C ,  8-H ) :   0.9286
B(  6-C ,  9-C ) :   1.0658 B(  9-C , 10-H ) :   0.9547 B(  9-C , 11-H ) :   0.9570
B(  9-C , 12-C ) :   1.0735 B( 12-C , 13-H ) :   0.9771 B( 12-C , 14-H ) :   0.9764
B( 12-C , 15-H ) :   0.9752 B( 16-S , 17-C ) :   1.1731 B( 16-S , 20-C ) :   1.1365
B( 17-C , 18-C ) :   1.5687 B( 17-C , 33-H ) :   0.9642 B( 18-C , 19-C ) :   1.2824
B( 18-C , 21-H ) :   0.9925 B( 19-C , 20-C ) :   1.5829 B( 19-C , 22-C ) :   1.0191
B( 22-C , 23-H ) :   0.9379 B( 22-C , 24-H ) :   0.9345 B( 22-C , 25-C ) :   1.0616
B( 25-C , 26-H ) :   0.9548 B( 25-C , 27-H ) :   0.9496 B( 25-C , 28-C ) :   1.0841
B( 28-C , 29-H ) :   0.9729 B( 28-C , 30-H ) :   0.9773 B( 28-C , 31-H ) :   0.9732

Dispersion correction           -0.013119398
FINAL SINGLE POINT ENERGY     -1339.871642023330

DIPOLE MOMENT
-------------
                                X             Y             Z
Electronic contribution:      9.69334      23.64851      16.05774
Nuclear contribution   :     -9.99590     -24.37475     -16.17099
                        -----------------------------------------
Total Dipole Moment    :     -0.30256      -0.72625      -0.11325
                        -----------------------------------------
Magnitude (a.u.)       :      0.79486
Magnitude (Debye)      :      2.02037

Rotational constants in cm-1:     0.017931     0.007858     0.005737
Rotational constants in MHz :   537.572309   235.566396   171.995245

                             ****ORCA TERMINATED NORMALLY****
TOTAL RUN TIME: 0 days 0 hours 0 minutes 28 seconds 275 msec
