                         Program Version 4.2.1 -  RELEASE  -
|  1> ! wB97X-D3 SP def2-SVP
|  2> %pal
|  3> nprocs 16
|  4> end
|  5>
|  6> * xyz 0 1
|  7> S 	 -36.7233 	 74.4199 	 167.626
|  8> C 	 -36.0121 	 74.7559 	 166.071
|  9> C 	 -36.9594 	 75.0181 	 165.069
| 10> C 	 -38.2809 	 74.7662 	 165.556
| 11> C 	 -38.2962 	 74.465 	 166.898
| 12> H 	 -39.2134 	 74.8484 	 165.014
| 13> C 	 -36.6366 	 75.4173 	 163.642
| 14> H 	 -37.377 	 76.1135 	 163.38
| 15> H 	 -36.718 	 74.4837 	 163.097
| 16> C 	 -35.2697 	 76.1276 	 163.446
| 17> H 	 -35.2288 	 77.0826 	 164.047
| 18> H 	 -34.459 	 75.5548 	 163.895
| 19> C 	 -34.9751 	 76.3504 	 161.982
| 20> H 	 -35.0899 	 75.4657 	 161.375
| 21> H 	 -35.6775 	 77.0943 	 161.552
| 22> H 	 -33.9637 	 76.9088 	 161.893
| 23> S 	 -39.5165 	 72.5126 	 168.387
| 24> C 	 -41.1032 	 72.7669 	 169.034
| 25> C 	 -41.6213 	 74.0062 	 168.706
| 26> C 	 -40.6801 	 74.8071 	 167.943
| 27> C 	 -39.4646 	 74.1556 	 167.698
| 28> H 	 -42.6294 	 74.2018 	 168.995
| 29> C 	 -41.0303 	 76.2376 	 167.539
| 30> H 	 -42.0696 	 76.2928 	 167.321
| 31> H 	 -40.5394 	 76.3162 	 166.56
| 32> C 	 -40.6493 	 77.3522 	 168.562
| 33> H 	 -40.6784 	 78.3078 	 168.085
| 34> H 	 -39.59 	 77.3002 	 168.867
| 35> C 	 -41.3736 	 77.3627 	 169.927
| 36> H 	 -41.0511 	 76.5641 	 170.532
| 37> H 	 -42.4826 	 77.3023 	 169.867
| 38> H 	 -41.0841 	 78.305 	 170.405
| 39> H 	 -34.9508 	 74.8299 	 165.931
| 40> H 	 -41.5759 	 72.075 	 169.696
| 41> *
| 42>
| 43>                          ****END OF INPUT****

CARTESIAN COORDINATES (ANGSTROEM)
---------------------------------
  S    -36.723300   74.419900  167.626000
  C    -36.012100   74.755900  166.071000
  C    -36.959400   75.018100  165.069000
  C    -38.280900   74.766200  165.556000
  C    -38.296200   74.465000  166.898000
  H    -39.213400   74.848400  165.014000
  C    -36.636600   75.417300  163.642000
  H    -37.377000   76.113500  163.380000
  H    -36.718000   74.483700  163.097000
  C    -35.269700   76.127600  163.446000
  H    -35.228800   77.082600  164.047000
  H    -34.459000   75.554800  163.895000
  C    -34.975100   76.350400  161.982000
  H    -35.089900   75.465700  161.375000
  H    -35.677500   77.094300  161.552000
  H    -33.963700   76.908800  161.893000
  S    -39.516500   72.512600  168.387000
  C    -41.103200   72.766900  169.034000
  C    -41.621300   74.006200  168.706000
  C    -40.680100   74.807100  167.943000
  C    -39.464600   74.155600  167.698000
  H    -42.629400   74.201800  168.995000
  C    -41.030300   76.237600  167.539000
  H    -42.069600   76.292800  167.321000
  H    -40.539400   76.316200  166.560000
  C    -40.649300   77.352200  168.562000
  H    -40.678400   78.307800  168.085000
  H    -39.590000   77.300200  168.867000
  C    -41.373600   77.362700  169.927000
  H    -41.051100   76.564100  170.532000
  H    -42.482600   77.302300  169.867000
  H    -41.084100   78.305000  170.405000
  H    -34.950800   74.829900  165.931000
  H    -41.575900   72.075000  169.696000

 Total Charge           Charge          ....    0
 Multiplicity           Mult            ....    1
 Number of Electrons    NEL             ....  134
 Basis Dimension        Dim             ....  322

ORBITAL ENERGIES
----------------

  NO   OCC          E(Eh)            E(eV)
   0   2.0000     -88.966874     -2420.9117
   1   2.0000     -88.960952     -2420.7506
   2   2.0000     -10.325264      -280.9647
   3   2.0000     -10.324716      -280.9498
   4   2.0000     -10.313175      -280.6358
   5   2.0000     -10.310908      -280.5741
   6   2.0000     -10.306934      -280.4659
   7   2.0000     -10.302680      -280.3502
   8   2.0000     -10.293529      -280.1012
   9   2.0000     -10.292202      -280.0651
  10   2.0000     -10.292154      -280.0638
  11   2.0000     -10.290784      -280.0265
  12   2.0000     -10.289785      -279.9993
  13   2.0000     -10.286433      -279.9081
  14   2.0000     -10.284747      -279.8622
  15   2.0000     -10.274820      -279.5921
  16   2.0000      -8.081981      -219.9219
  17   2.0000      -8.075749      -219.7523
  18   2.0000      -6.040386      -164.3673
  19   2.0000      -6.036503      -164.2616
  20   2.0000      -6.034213      -164.1993
  21   2.0000      -6.032777      -164.1602
  22   2.0000      -6.030196      -164.0900
  23   2.0000      -6.026609      -163.9924
  24   2.0000      -1.004677       -27.3387
  25   2.0000      -0.979628       -26.6570
  26   2.0000      -0.913849       -24.8671
  27   2.0000      -0.900604       -24.5067
  28   2.0000      -0.866792       -23.5866
  29   2.0000      -0.854248       -23.2453
  30   2.0000      -0.843833       -22.9619
  31   2.0000      -0.812948       -22.1214
  32   2.0000      -0.783606       -21.3230
  33   2.0000      -0.768974       -20.9248
  34   2.0000      -0.710716       -19.3396
  35   2.0000      -0.701816       -19.0974
  36   2.0000      -0.686085       -18.6693
  37   2.0000      -0.661413       -17.9980
  38   2.0000      -0.642689       -17.4885
  39   2.0000      -0.612116       -16.6565
  40   2.0000      -0.586646       -15.9635
  41   2.0000      -0.575981       -15.6732
  42   2.0000      -0.564863       -15.3707
  43   2.0000      -0.546153       -14.8616
  44   2.0000      -0.543012       -14.7761
  45   2.0000      -0.526523       -14.3274
  46   2.0000      -0.519001       -14.1227
  47   2.0000      -0.510646       -13.8954
  48   2.0000      -0.502989       -13.6870
  49   2.0000      -0.497417       -13.5354
  50   2.0000      -0.483961       -13.1692
  51   2.0000      -0.479591       -13.0503
  52   2.0000      -0.476610       -12.9692
  53   2.0000      -0.467708       -12.7270
  54   2.0000      -0.457098       -12.4383
  55   2.0000      -0.453258       -12.3338
  56   2.0000      -0.439630       -11.9629
  57   2.0000      -0.435095       -11.8395
  58   2.0000      -0.430923       -11.7260
  59   2.0000      -0.428745       -11.6667
  60   2.0000      -0.419924       -11.4267
  61   2.0000      -0.415342       -11.3020
  62   2.0000      -0.411098       -11.1865
  63   2.0000      -0.340521        -9.2660
  64   2.0000      -0.328863        -8.9488
  65   2.0000      -0.326785        -8.8923
  66   2.0000      -0.294633        -8.0174
  67   0.0000       0.035084         0.9547
  68   0.0000       0.068990         1.8773
  69   0.0000       0.115541         3.1440
  70   0.0000       0.119520         3.2523
  71   0.0000       0.133896         3.6435

MULLIKEN ATOMIC CHARGES
-----------------------
   0 S :    0.127253
   1 C :   -0.129618
   2 C :   -0.111610
   3 C :    0.042232
   4 C :   -0.171709
   5 H :    0.015480
   6 C :    0.106424
   7 H :    0.019511
   8 H :    0.047234
   9 C :   -0.116888
  10 H :    0.039541
  11 H :    0.029144
  12 C :   -0.048409
  13 H :    0.036409
  14 H :    0.026330
  15 H :    0.046677
  16 S :    0.099170
  17 C :   -0.087744
  18 C :   -0.032556
  19 C :   -0.058704
  20 C :   -0.162785
  21 H :    0.011299
  22 C :    0.117294
  23 H :    0.011408
  24 H :    0.013109
  25 C :   -0.058831
  26 H :    0.022865
  27 H :    0.028346
  28 C :   -0.052712
  29 H :    0.035915
  30 H :    0.028167
  31 H :    0.035616
  32 H :    0.040865
  33 H :    0.051277
Sum of atomic charges:   -0.0000000

LOEWDIN ATOMIC CHARGES
----------------------
   0 S :    0.419798
   1 C :   -0.204326
   2 C :   -0.057603
   3 C :   -0.059680
   4 C :   -0.203148
   5 H :    0.032860
   6 C :   -0.025342
   7 H :    0.026275
   8 H :    0.038290
   9 C :   -0.048044
  10 H :    0.033014
  11 H :    0.018793
  12 C :   -0.071819
  13 H :    0.023883
  14 H :    0.025672
  15 H :    0.038801
  16 S :    0.397704
  17 C :   -0.183297
  18 C :   -0.073557
  19 C :   -0.050800
  20 C :   -0.198558
  21 H :    0.028447
  22 C :   -0.030447
  23 H :    0.024390
  24 H :    0.032317
  25 C :   -0.037826
  26 H :    0.019769
  27 H :    0.030760
  28 C :   -0.063379
  29 H :    0.019870
  30 H :    0.022548
  31 H :    0.031268
  32 H :    0.019108
  33 H :    0.024260

  Mayer bond orders larger than 0.100000
B(  0-S ,  1-C ) :   1.1395 B(  0-S ,  4-C ) :   1.1638 B(  1-C ,  2-C ) :   1.6055
B(  1-C , 32-H ) :   0.9688 B(  2-C ,  3-C ) :   1.2408 B(  2-C ,  6-C ) :   1.0038
B(  3-C ,  4-C ) :   1.5848 B(  3-C ,  5-H ) :   0.9931 B(  4-C , 20-C ) :   1.0198
B(  6-C ,  7-H ) :   0.9398 B(  6-C ,  8-H ) :   0.9329 B(  6-C ,  9-C ) :   1.0760
B(  9-C , 10-H ) :   0.9548 B(  9-C , 11-H ) :   0.9502 B(  9-C , 12-C ) :   1.0896
B( 12-C , 13-H ) :   0.9735 B( 12-C , 14-H ) :   0.9723 B( 12-C , 15-H ) :   0.9704
B( 16-S , 17-C ) :   1.1629 B( 16-S , 20-C ) :   1.1371 B( 17-C , 18-C ) :   1.6138
B( 17-C , 33-H ) :   0.9678 B( 18-C , 19-C ) :   1.2182 B( 18-C , 21-H ) :   0.9978
B( 19-C , 20-C ) :   1.6081 B( 19-C , 22-C ) :   1.0377 B( 22-C , 23-H ) :   0.9342
B( 22-C , 24-H ) :   0.9267 B( 22-C , 25-C ) :   1.0653 B( 25-C , 26-H ) :   0.9606
B( 25-C , 27-H ) :   0.9555 B( 25-C , 28-C ) :   1.0737 B( 28-C , 29-H ) :   0.9758
B( 28-C , 30-H ) :   0.9770 B( 28-C , 31-H ) :   0.9726

Dispersion correction           -0.014021106
FINAL SINGLE POINT ENERGY     -1339.889717809275

DIPOLE MOMENT
-------------
                                X             Y             Z
Electronic contribution:     -0.02417     -19.95019      12.71387
Nuclear contribution   :     -0.15386      20.38019     -13.09248
                        -----------------------------------------
Total Dipole Moment    :     -0.17803       0.43000      -0.37861
                        -----------------------------------------
Magnitude (a.u.)       :      0.59995
Magnitude (Debye)      :      1.52495

Rotational constants in cm-1:     0.022830     0.007075     0.006167
Rotational constants in MHz :   684.427266   212.090343   184.878034

                             ****ORCA TERMINATED NORMALLY****
TOTAL RUN TIME: 0 days 0 hours 0 minutes 33 seconds 66 msec
