                         Program Version 4.2.1 -  RELEASE  -
|  1> ! wB97X-D3 SP def2-SVP
|  2> %pal
|  3> nprocs 16
|  4> end
|  5>
|  6> * xyz 0 1
|  7> S 	 56.9054 	 13.3014 	 54.7679
|  8> C 	 56.0913 	 14.7863 	 54.1905
|  9> C 	 56.9253 	 15.5047 	 53.2883
| 10> C 	 57.9412 	 14.6698 	 52.8582
| 11> C 	 58.0629 	 13.4469 	 53.5029
| 12> H 	 58.616 	 14.9043 	 52.1071
| 13> C 	 56.6109 	 16.8475 	 52.6157
| 14> H 	 55.7798 	 16.6887 	 51.9068
| 15> H 	 57.457 	 17.2189 	 52.0892
| 16> C 	 56.2293 	 17.9008 	 53.6423
| 17> H 	 55.1947 	 17.6596 	 54.0011
| 18> H 	 56.962 	 17.926 	 54.4027
| 19> C 	 56.2066 	 19.3017 	 53.0286
| 20> H 	 55.7373 	 20.0112 	 53.7147
| 21> H 	 57.2528 	 19.695 	 52.8726
| 22> H 	 55.7681 	 19.2952 	 52.0283
| 23> S 	 59.4887 	 11.3758 	 54.476
| 24> C 	 60.3874 	 10.3444 	 53.3802
| 25> C 	 60.2317 	 10.7316 	 52.0493
| 26> C 	 59.2724 	 11.8116 	 51.8562
| 27> C 	 58.9238 	 12.3501 	 53.0915
| 28> H 	 60.6355 	 10.0612 	 51.3078
| 29> C 	 58.6873 	 12.3287 	 50.489
| 30> H 	 59.4683 	 12.1324 	 49.7732
| 31> H 	 58.5769 	 13.3959 	 50.5225
| 32> C 	 57.3634 	 11.6758 	 50.0001
| 33> H 	 57.6122 	 10.576 	 49.8853
| 34> H 	 57.1439 	 11.9646 	 48.9583
| 35> C 	 56.0873 	 12.0443 	 50.8272
| 36> H 	 56.0167 	 13.166 	 50.8847
| 37> H 	 56.2245 	 11.5994 	 51.815
| 38> H 	 55.224 	 11.7378 	 50.3628
| 39> H 	 55.1705 	 15.1406 	 54.6243
| 40> H 	 60.9434 	 9.47902 	 53.7419
| 41> *
| 42>
| 43>                          ****END OF INPUT****

CARTESIAN COORDINATES (ANGSTROEM)
---------------------------------
  S     56.905400   13.301400   54.767900
  C     56.091300   14.786300   54.190500
  C     56.925300   15.504700   53.288300
  C     57.941200   14.669800   52.858200
  C     58.062900   13.446900   53.502900
  H     58.616000   14.904300   52.107100
  C     56.610900   16.847500   52.615700
  H     55.779800   16.688700   51.906800
  H     57.457000   17.218900   52.089200
  C     56.229300   17.900800   53.642300
  H     55.194700   17.659600   54.001100
  H     56.962000   17.926000   54.402700
  C     56.206600   19.301700   53.028600
  H     55.737300   20.011200   53.714700
  H     57.252800   19.695000   52.872600
  H     55.768100   19.295200   52.028300
  S     59.488700   11.375800   54.476000
  C     60.387400   10.344400   53.380200
  C     60.231700   10.731600   52.049300
  C     59.272400   11.811600   51.856200
  C     58.923800   12.350100   53.091500
  H     60.635500   10.061200   51.307800
  C     58.687300   12.328700   50.489000
  H     59.468300   12.132400   49.773200
  H     58.576900   13.395900   50.522500
  C     57.363400   11.675800   50.000100
  H     57.612200   10.576000   49.885300
  H     57.143900   11.964600   48.958300
  C     56.087300   12.044300   50.827200
  H     56.016700   13.166000   50.884700
  H     56.224500   11.599400   51.815000
  H     55.224000   11.737800   50.362800
  H     55.170500   15.140600   54.624300
  H     60.943400    9.479020   53.741900

 Total Charge           Charge          ....    0
 Multiplicity           Mult            ....    1
 Number of Electrons    NEL             ....  134
 Basis Dimension        Dim             ....  322

ORBITAL ENERGIES
----------------

  NO   OCC          E(Eh)            E(eV)
   0   2.0000     -88.969941     -2420.9952
   1   2.0000     -88.963024     -2420.8070
   2   2.0000     -10.328970      -281.0656
   3   2.0000     -10.324472      -280.9432
   4   2.0000     -10.319847      -280.8173
   5   2.0000     -10.319083      -280.7965
   6   2.0000     -10.312535      -280.6184
   7   2.0000     -10.303815      -280.3811
   8   2.0000     -10.299175      -280.2548
   9   2.0000     -10.295756      -280.1618
  10   2.0000     -10.293954      -280.1127
  11   2.0000     -10.292145      -280.0635
  12   2.0000     -10.285242      -279.8757
  13   2.0000     -10.283238      -279.8211
  14   2.0000     -10.281949      -279.7860
  15   2.0000     -10.271318      -279.4968
  16   2.0000      -8.084220      -219.9828
  17   2.0000      -8.077680      -219.8048
  18   2.0000      -6.042654      -164.4290
  19   2.0000      -6.038787      -164.3238
  20   2.0000      -6.036111      -164.2509
  21   2.0000      -6.035094      -164.2233
  22   2.0000      -6.032329      -164.1480
  23   2.0000      -6.028421      -164.0417
  24   2.0000      -1.005488       -27.3607
  25   2.0000      -0.978093       -26.6153
  26   2.0000      -0.917243       -24.9595
  27   2.0000      -0.897782       -24.4299
  28   2.0000      -0.866633       -23.5823
  29   2.0000      -0.851804       -23.1788
  30   2.0000      -0.840993       -22.8846
  31   2.0000      -0.808449       -21.9990
  32   2.0000      -0.784755       -21.3543
  33   2.0000      -0.772517       -21.0212
  34   2.0000      -0.705655       -19.2019
  35   2.0000      -0.697050       -18.9677
  36   2.0000      -0.686504       -18.6807
  37   2.0000      -0.660681       -17.9781
  38   2.0000      -0.641859       -17.4659
  39   2.0000      -0.621090       -16.9007
  40   2.0000      -0.589416       -16.0388
  41   2.0000      -0.578199       -15.7336
  42   2.0000      -0.562775       -15.3139
  43   2.0000      -0.550952       -14.9922
  44   2.0000      -0.542339       -14.7578
  45   2.0000      -0.525025       -14.2867
  46   2.0000      -0.517857       -14.0916
  47   2.0000      -0.503558       -13.7025
  48   2.0000      -0.498408       -13.5624
  49   2.0000      -0.493705       -13.4344
  50   2.0000      -0.490989       -13.3605
  51   2.0000      -0.479482       -13.0474
  52   2.0000      -0.475095       -12.9280
  53   2.0000      -0.463607       -12.6154
  54   2.0000      -0.453921       -12.3518
  55   2.0000      -0.447622       -12.1804
  56   2.0000      -0.443948       -12.0805
  57   2.0000      -0.437921       -11.9164
  58   2.0000      -0.434986       -11.8366
  59   2.0000      -0.425202       -11.5703
  60   2.0000      -0.421415       -11.4673
  61   2.0000      -0.419873       -11.4253
  62   2.0000      -0.406549       -11.0628
  63   2.0000      -0.347822        -9.4647
  64   2.0000      -0.337926        -9.1954
  65   2.0000      -0.330188        -8.9849
  66   2.0000      -0.279538        -7.6066
  67   0.0000       0.020701         0.5633
  68   0.0000       0.067333         1.8322
  69   0.0000       0.094133         2.5615
  70   0.0000       0.114958         3.1282
  71   0.0000       0.138351         3.7647

MULLIKEN ATOMIC CHARGES
-----------------------
   0 S :    0.117684
   1 C :   -0.142737
   2 C :   -0.051749
   3 C :    0.002320
   4 C :   -0.102119
   5 H :   -0.015196
   6 C :    0.072465
   7 H :    0.049077
   8 H :    0.010959
   9 C :   -0.087901
  10 H :    0.037075
  11 H :    0.030374
  12 C :   -0.060333
  13 H :    0.040802
  14 H :    0.032753
  15 H :    0.029600
  16 S :    0.078630
  17 C :   -0.100626
  18 C :   -0.024151
  19 C :   -0.068813
  20 C :   -0.152947
  21 H :    0.020480
  22 C :    0.099999
  23 H :    0.016842
  24 H :    0.010667
  25 C :   -0.104410
  26 H :    0.032393
  27 H :    0.027231
  28 C :   -0.013591
  29 H :    0.033800
  30 H :    0.049263
  31 H :    0.018093
  32 H :    0.048274
  33 H :    0.065795
Sum of atomic charges:   -0.0000000

LOEWDIN ATOMIC CHARGES
----------------------
   0 S :    0.409801
   1 C :   -0.185143
   2 C :   -0.054307
   3 C :   -0.062403
   4 C :   -0.204994
   5 H :    0.017655
   6 C :   -0.025901
   7 H :    0.038420
   8 H :    0.023533
   9 C :   -0.039058
  10 H :    0.026969
  11 H :    0.021567
  12 C :   -0.070222
  13 H :    0.027532
  14 H :    0.028525
  15 H :    0.022895
  16 S :    0.377776
  17 C :   -0.182979
  18 C :   -0.071790
  19 C :   -0.055615
  20 C :   -0.176506
  21 H :    0.030727
  22 C :   -0.024439
  23 H :    0.029738
  24 H :    0.022527
  25 C :   -0.043832
  26 H :    0.027092
  27 H :    0.022859
  28 C :   -0.056827
  29 H :    0.033063
  30 H :    0.029629
  31 H :    0.012504
  32 H :    0.020388
  33 H :    0.030814

  Mayer bond orders larger than 0.100000
B(  0-S ,  1-C ) :   1.1514 B(  0-S ,  4-C ) :   1.1546 B(  1-C ,  2-C ) :   1.5408
B(  1-C ,  4-C ) :   0.1146 B(  1-C , 32-H ) :   0.9746 B(  2-C ,  3-C ) :   1.2762
B(  2-C ,  6-C ) :   1.0236 B(  3-C ,  4-C ) :   1.5357 B(  3-C ,  5-H ) :   1.0130
B(  4-C , 20-C ) :   1.0542 B(  6-C ,  7-H ) :   0.9334 B(  6-C ,  8-H ) :   0.9454
B(  6-C ,  9-C ) :   1.0684 B(  9-C , 10-H ) :   0.9521 B(  9-C , 11-H ) :   0.9627
B(  9-C , 12-C ) :   1.0910 B( 12-C , 13-H ) :   0.9735 B( 12-C , 14-H ) :   0.9738
B( 12-C , 15-H ) :   0.9714 B( 16-S , 17-C ) :   1.1434 B( 16-S , 20-C ) :   1.1278
B( 17-C , 18-C ) :   1.6329 B( 17-C , 33-H ) :   0.9669 B( 18-C , 19-C ) :   1.2156
B( 18-C , 21-H ) :   0.9852 B( 19-C , 20-C ) :   1.6133 B( 19-C , 22-C ) :   1.0214
B( 22-C , 23-H ) :   0.9294 B( 22-C , 24-H ) :   0.9410 B( 22-C , 25-C ) :   1.0757
B( 25-C , 26-H ) :   0.9561 B( 25-C , 27-H ) :   0.9550 B( 25-C , 28-C ) :   1.0691
B( 28-C , 29-H ) :   0.9717 B( 28-C , 30-H ) :   0.9756 B( 28-C , 31-H ) :   0.9747

Dispersion correction           -0.015361989
FINAL SINGLE POINT ENERGY     -1339.872501502192

DIPOLE MOMENT
-------------
                                X             Y             Z
Electronic contribution:     10.65112     -18.04639      17.23746
Nuclear contribution   :    -10.83017      18.34802     -17.82722
                        -----------------------------------------
Total Dipole Moment    :     -0.17905       0.30163      -0.58976
                        -----------------------------------------
Magnitude (a.u.)       :      0.68619
Magnitude (Debye)      :      1.74417

Rotational constants in cm-1:     0.022770     0.007960     0.006891
Rotational constants in MHz :   682.641914   238.620404   206.575304

                             ****ORCA TERMINATED NORMALLY****
TOTAL RUN TIME: 0 days 0 hours 0 minutes 29 seconds 813 msec
