                         Program Version 4.2.1 -  RELEASE  -
|  1> ! wB97X-D3 SP def2-SVP
|  2> %pal
|  3> nprocs 16
|  4> end
|  5>
|  6> * xyz 0 1
|  7> S 	 55.3047 	 8.6175 	 75.499
|  8> C 	 54.4165 	 10.0221 	 76.0748
|  9> C 	 53.3394 	 10.3541 	 75.2541
| 10> C 	 53.4284 	 9.63497 	 74.0552
| 11> C 	 54.4004 	 8.63365 	 74.0129
| 12> H 	 52.8449 	 9.70576 	 73.1171
| 13> C 	 52.1934 	 11.322 	 75.5132
| 14> H 	 52.3975 	 11.8771 	 76.4667
| 15> H 	 51.338 	 10.6582 	 75.6934
| 16> C 	 51.7264 	 12.2724 	 74.3884
| 17> H 	 52.5982 	 12.743 	 73.9399
| 18> H 	 51.0346 	 11.7017 	 73.7118
| 19> C 	 50.9611 	 13.4862 	 74.8855
| 20> H 	 50.4091 	 13.9174 	 74.069
| 21> H 	 50.1206 	 13.1817 	 75.6046
| 22> H 	 51.6468 	 14.2784 	 75.3849
| 23> S 	 54.209 	 6.08915 	 73.0386
| 24> C 	 54.7832 	 5.69721 	 71.4228
| 25> C 	 55.3519 	 6.77285 	 70.843
| 26> C 	 55.2965 	 7.97707 	 71.653
| 27> C 	 54.7829 	 7.75738 	 72.9303
| 28> H 	 55.7211 	 6.6995 	 69.8316
| 29> C 	 55.5833 	 9.3273 	 71.1041
| 30> H 	 55.6759 	 10.0732 	 71.9403
| 31> H 	 54.6497 	 9.65 	 70.6191
| 32> C 	 56.7651 	 9.45458 	 70.1257
| 33> H 	 56.4291 	 9.00193 	 69.1706
| 34> H 	 57.6304 	 8.84631 	 70.3628
| 35> C 	 57.3266 	 10.8144 	 69.7685
| 36> H 	 58.0024 	 10.8537 	 68.9388
| 37> H 	 57.885 	 11.219 	 70.58
| 38> H 	 56.4241 	 11.4572 	 69.599
| 39> H 	 54.4639 	 10.4053 	 77.1365
| 40> H 	 54.6378 	 4.72195 	 71.0062
| 41> *
| 42>
| 43>                          ****END OF INPUT****

CARTESIAN COORDINATES (ANGSTROEM)
---------------------------------
  S     55.304700    8.617500   75.499000
  C     54.416500   10.022100   76.074800
  C     53.339400   10.354100   75.254100
  C     53.428400    9.634970   74.055200
  C     54.400400    8.633650   74.012900
  H     52.844900    9.705760   73.117100
  C     52.193400   11.322000   75.513200
  H     52.397500   11.877100   76.466700
  H     51.338000   10.658200   75.693400
  C     51.726400   12.272400   74.388400
  H     52.598200   12.743000   73.939900
  H     51.034600   11.701700   73.711800
  C     50.961100   13.486200   74.885500
  H     50.409100   13.917400   74.069000
  H     50.120600   13.181700   75.604600
  H     51.646800   14.278400   75.384900
  S     54.209000    6.089150   73.038600
  C     54.783200    5.697210   71.422800
  C     55.351900    6.772850   70.843000
  C     55.296500    7.977070   71.653000
  C     54.782900    7.757380   72.930300
  H     55.721100    6.699500   69.831600
  C     55.583300    9.327300   71.104100
  H     55.675900   10.073200   71.940300
  H     54.649700    9.650000   70.619100
  C     56.765100    9.454580   70.125700
  H     56.429100    9.001930   69.170600
  H     57.630400    8.846310   70.362800
  C     57.326600   10.814400   69.768500
  H     58.002400   10.853700   68.938800
  H     57.885000   11.219000   70.580000
  H     56.424100   11.457200   69.599000
  H     54.463900   10.405300   77.136500
  H     54.637800    4.721950   71.006200

 Total Charge           Charge          ....    0
 Multiplicity           Mult            ....    1
 Number of Electrons    NEL             ....  134
 Basis Dimension        Dim             ....  322

ORBITAL ENERGIES
----------------

  NO   OCC          E(Eh)            E(eV)
   0   2.0000     -88.966360     -2420.8977
   1   2.0000     -88.958306     -2420.6786
   2   2.0000     -10.325837      -280.9803
   3   2.0000     -10.324095      -280.9329
   4   2.0000     -10.318631      -280.7842
   5   2.0000     -10.315721      -280.7050
   6   2.0000     -10.306946      -280.4663
   7   2.0000     -10.303519      -280.3730
   8   2.0000     -10.299341      -280.2593
   9   2.0000     -10.294922      -280.1391
  10   2.0000     -10.294344      -280.1233
  11   2.0000     -10.293909      -280.1115
  12   2.0000     -10.292522      -280.0738
  13   2.0000     -10.290643      -280.0226
  14   2.0000     -10.285029      -279.8699
  15   2.0000     -10.275332      -279.6060
  16   2.0000      -8.081041      -219.8963
  17   2.0000      -8.073186      -219.6826
  18   2.0000      -6.039435      -164.3414
  19   2.0000      -6.035550      -164.2357
  20   2.0000      -6.031919      -164.1369
  21   2.0000      -6.031750      -164.1323
  22   2.0000      -6.027649      -164.0207
  23   2.0000      -6.023899      -163.9186
  24   2.0000      -1.005580       -27.3632
  25   2.0000      -0.983305       -26.7571
  26   2.0000      -0.912498       -24.8303
  27   2.0000      -0.908231       -24.7142
  28   2.0000      -0.873200       -23.7610
  29   2.0000      -0.852690       -23.2029
  30   2.0000      -0.847738       -23.0681
  31   2.0000      -0.813405       -22.1339
  32   2.0000      -0.782922       -21.3044
  33   2.0000      -0.770090       -20.9552
  34   2.0000      -0.706109       -19.2142
  35   2.0000      -0.699515       -19.0348
  36   2.0000      -0.686235       -18.6734
  37   2.0000      -0.652269       -17.7492
  38   2.0000      -0.640815       -17.4375
  39   2.0000      -0.615756       -16.7556
  40   2.0000      -0.600389       -16.3374
  41   2.0000      -0.580550       -15.7976
  42   2.0000      -0.563433       -15.3318
  43   2.0000      -0.560782       -15.2596
  44   2.0000      -0.533392       -14.5143
  45   2.0000      -0.523868       -14.2552
  46   2.0000      -0.520297       -14.1580
  47   2.0000      -0.507335       -13.8053
  48   2.0000      -0.501237       -13.6394
  49   2.0000      -0.493997       -13.4424
  50   2.0000      -0.488796       -13.3008
  51   2.0000      -0.478174       -13.0118
  52   2.0000      -0.472987       -12.8706
  53   2.0000      -0.469242       -12.7687
  54   2.0000      -0.460974       -12.5437
  55   2.0000      -0.452682       -12.3181
  56   2.0000      -0.441669       -12.0184
  57   2.0000      -0.432587       -11.7713
  58   2.0000      -0.427984       -11.6460
  59   2.0000      -0.426418       -11.6034
  60   2.0000      -0.417633       -11.3644
  61   2.0000      -0.416929       -11.3452
  62   2.0000      -0.406175       -11.0526
  63   2.0000      -0.337340        -9.1795
  64   2.0000      -0.332531        -9.0486
  65   2.0000      -0.319298        -8.6885
  66   2.0000      -0.303831        -8.2677
  67   0.0000       0.040404         1.0995
  68   0.0000       0.058617         1.5951
  69   0.0000       0.115146         3.1333
  70   0.0000       0.121449         3.3048
  71   0.0000       0.132919         3.6169

MULLIKEN ATOMIC CHARGES
-----------------------
   0 S :    0.124297
   1 C :   -0.144870
   2 C :   -0.073653
   3 C :    0.024193
   4 C :   -0.192433
   5 H :    0.021122
   6 C :    0.057300
   7 H :    0.024916
   8 H :    0.044220
   9 C :   -0.082623
  10 H :    0.040311
  11 H :    0.046482
  12 C :   -0.089619
  13 H :    0.033976
  14 H :    0.031835
  15 H :    0.054621
  16 S :    0.084751
  17 C :   -0.080717
  18 C :   -0.023334
  19 C :   -0.021077
  20 C :   -0.164237
  21 H :    0.020050
  22 C :    0.057667
  23 H :    0.038579
  24 H :    0.041518
  25 C :   -0.109220
  26 H :    0.023468
  27 H :    0.029002
  28 C :   -0.023427
  29 H :    0.031905
  30 H :    0.026077
  31 H :    0.028661
  32 H :    0.065661
  33 H :    0.054598
Sum of atomic charges:    0.0000000

LOEWDIN ATOMIC CHARGES
----------------------
   0 S :    0.416996
   1 C :   -0.208498
   2 C :   -0.068296
   3 C :   -0.063861
   4 C :   -0.208179
   5 H :    0.036819
   6 C :   -0.036175
   7 H :    0.032321
   8 H :    0.039808
   9 C :   -0.048798
  10 H :    0.028723
  11 H :    0.032388
  12 C :   -0.075101
  13 H :    0.023667
  14 H :    0.027783
  15 H :    0.035612
  16 S :    0.386866
  17 C :   -0.167649
  18 C :   -0.074789
  19 C :   -0.046768
  20 C :   -0.206448
  21 H :    0.032303
  22 C :   -0.038553
  23 H :    0.036762
  24 H :    0.038744
  25 C :   -0.050603
  26 H :    0.022980
  27 H :    0.022963
  28 C :   -0.061014
  29 H :    0.025570
  30 H :    0.020494
  31 H :    0.029236
  32 H :    0.037536
  33 H :    0.027162

  Mayer bond orders larger than 0.100000
B(  0-S ,  1-C ) :   1.1529 B(  0-S ,  4-C ) :   1.1633 B(  1-C ,  2-C ) :   1.6043
B(  1-C ,  4-C ) :   0.1098 B(  1-C , 32-H ) :   0.9537 B(  2-C ,  3-C ) :   1.2367
B(  2-C ,  6-C ) :   1.0240 B(  3-C ,  4-C ) :   1.5823 B(  3-C ,  5-H ) :   0.9917
B(  4-C , 20-C ) :   1.0080 B(  6-C ,  7-H ) :   0.9455 B(  6-C ,  8-H ) :   0.9283
B(  6-C ,  9-C ) :   1.0604 B(  9-C , 10-H ) :   0.9618 B(  9-C , 11-H ) :   0.9471
B(  9-C , 12-C ) :   1.0909 B( 12-C , 13-H ) :   0.9726 B( 12-C , 14-H ) :   0.9709
B( 12-C , 15-H ) :   0.9738 B( 16-S , 17-C ) :   1.1515 B( 16-S , 20-C ) :   1.1327
B( 17-C , 18-C ) :   1.6235 B( 17-C , 33-H ) :   0.9705 B( 18-C , 19-C ) :   1.2044
B( 18-C , 21-H ) :   0.9948 B( 19-C , 20-C ) :   1.6167 B( 19-C , 22-C ) :   1.0630
B( 22-C , 23-H ) :   0.9356 B( 22-C , 24-H ) :   0.9213 B( 22-C , 25-C ) :   1.0463
B( 25-C , 26-H ) :   0.9457 B( 25-C , 27-H ) :   0.9656 B( 25-C , 28-C ) :   1.0953
B( 28-C , 29-H ) :   0.9730 B( 28-C , 30-H ) :   0.9736 B( 28-C , 31-H ) :   0.9724

Dispersion correction           -0.013545853
FINAL SINGLE POINT ENERGY     -1339.878015623994

DIPOLE MOMENT
-------------
                                X             Y             Z
Electronic contribution:      4.83336     -25.86648      11.04441
Nuclear contribution   :     -5.15889      26.35107     -11.50942
                        -----------------------------------------
Total Dipole Moment    :     -0.32553       0.48459      -0.46501
                        -----------------------------------------
Magnitude (a.u.)       :      0.74635
Magnitude (Debye)      :      1.89706

Rotational constants in cm-1:     0.016369     0.008036     0.006524
Rotational constants in MHz :   490.719214   240.915530   195.572635

                             ****ORCA TERMINATED NORMALLY****
TOTAL RUN TIME: 0 days 0 hours 0 minutes 28 seconds 929 msec
