                         Program Version 4.2.1 -  RELEASE  -
|  1> ! wB97X-D3 SP def2-SVP
|  2> %pal
|  3> nprocs 16
|  4> end
|  5>
|  6> * xyz 0 1
|  7> S 	 54.2065 	 13.2225 	 51.2939
|  8> C 	 54.1377 	 14.9659 	 51.2778
|  9> C 	 53.2459 	 15.4367 	 52.216
| 10> C 	 52.5498 	 14.3527 	 52.9111
| 11> C 	 52.8889 	 13.0877 	 52.5323
| 12> H 	 51.7831 	 14.5767 	 53.5696
| 13> C 	 52.8134 	 16.8797 	 52.3679
| 14> H 	 53.3484 	 17.5649 	 51.6712
| 15> H 	 52.935 	 17.177 	 53.4177
| 16> C 	 51.3669 	 17.1722 	 52.0014
| 17> H 	 50.6938 	 16.7291 	 52.6839
| 18> H 	 51.2199 	 18.2088 	 52.0706
| 19> C 	 50.9125 	 16.5442 	 50.6175
| 20> H 	 51.4925 	 16.8944 	 49.7765
| 21> H 	 50.8887 	 15.4338 	 50.5603
| 22> H 	 49.9252 	 16.992 	 50.5702
| 23> S 	 53.5302 	 10.8611 	 54.0189
| 24> C 	 52.2698 	 9.57165 	 54.356
| 25> C 	 51.052 	 9.98079 	 53.8392
| 26> C 	 51.174 	 11.2889 	 53.1547
| 27> C 	 52.4499 	 11.7897 	 53.01
| 28> H 	 50.0096 	 9.52304 	 53.9464
| 29> C 	 49.932 	 11.984 	 52.6355
| 30> H 	 50.0988 	 13.096 	 52.6032
| 31> H 	 49.0697 	 11.7689 	 53.238
| 32> C 	 49.4462 	 11.6604 	 51.1609
| 33> H 	 49.3682 	 10.55 	 51.0813
| 34> H 	 50.1806 	 12.1069 	 50.416
| 35> C 	 48.0789 	 12.3436 	 50.8907
| 36> H 	 48.1 	 13.4118 	 51.0472
| 37> H 	 47.24 	 11.8693 	 51.332
| 38> H 	 47.8427 	 12.2341 	 49.884
| 39> H 	 54.6492 	 15.6113 	 50.5319
| 40> H 	 52.4416 	 8.81904 	 55.0426
| 41> *
| 42>
| 43>                          ****END OF INPUT****

CARTESIAN COORDINATES (ANGSTROEM)
---------------------------------
  S     54.206500   13.222500   51.293900
  C     54.137700   14.965900   51.277800
  C     53.245900   15.436700   52.216000
  C     52.549800   14.352700   52.911100
  C     52.888900   13.087700   52.532300
  H     51.783100   14.576700   53.569600
  C     52.813400   16.879700   52.367900
  H     53.348400   17.564900   51.671200
  H     52.935000   17.177000   53.417700
  C     51.366900   17.172200   52.001400
  H     50.693800   16.729100   52.683900
  H     51.219900   18.208800   52.070600
  C     50.912500   16.544200   50.617500
  H     51.492500   16.894400   49.776500
  H     50.888700   15.433800   50.560300
  H     49.925200   16.992000   50.570200
  S     53.530200   10.861100   54.018900
  C     52.269800    9.571650   54.356000
  C     51.052000    9.980790   53.839200
  C     51.174000   11.288900   53.154700
  C     52.449900   11.789700   53.010000
  H     50.009600    9.523040   53.946400
  C     49.932000   11.984000   52.635500
  H     50.098800   13.096000   52.603200
  H     49.069700   11.768900   53.238000
  C     49.446200   11.660400   51.160900
  H     49.368200   10.550000   51.081300
  H     50.180600   12.106900   50.416000
  C     48.078900   12.343600   50.890700
  H     48.100000   13.411800   51.047200
  H     47.240000   11.869300   51.332000
  H     47.842700   12.234100   49.884000
  H     54.649200   15.611300   50.531900
  H     52.441600    8.819040   55.042600

 Total Charge           Charge          ....    0
 Multiplicity           Mult            ....    1
 Number of Electrons    NEL             ....  134
 Basis Dimension        Dim             ....  322

ORBITAL ENERGIES
----------------

  NO   OCC          E(Eh)            E(eV)
   0   2.0000     -88.963291     -2420.8142
   1   2.0000     -88.962495     -2420.7926
   2   2.0000     -10.336450      -281.2691
   3   2.0000     -10.328392      -281.0498
   4   2.0000     -10.326664      -281.0028
   5   2.0000     -10.319017      -280.7947
   6   2.0000     -10.311543      -280.5914
   7   2.0000     -10.307662      -280.4857
   8   2.0000     -10.302887      -280.3558
   9   2.0000     -10.296101      -280.1711
  10   2.0000     -10.295443      -280.1532
  11   2.0000     -10.294166      -280.1185
  12   2.0000     -10.292415      -280.0708
  13   2.0000     -10.282950      -279.8133
  14   2.0000     -10.280079      -279.7352
  15   2.0000     -10.269507      -279.4475
  16   2.0000      -8.077211      -219.7921
  17   2.0000      -8.076697      -219.7781
  18   2.0000      -6.035981      -164.2474
  19   2.0000      -6.035365      -164.2306
  20   2.0000      -6.031899      -164.1363
  21   2.0000      -6.031251      -164.1187
  22   2.0000      -6.027617      -164.0198
  23   2.0000      -6.027335      -164.0121
  24   2.0000      -1.001110       -27.2416
  25   2.0000      -0.977341       -26.5948
  26   2.0000      -0.911956       -24.8156
  27   2.0000      -0.898989       -24.4627
  28   2.0000      -0.872563       -23.7436
  29   2.0000      -0.845582       -23.0095
  30   2.0000      -0.839630       -22.8475
  31   2.0000      -0.819635       -22.3034
  32   2.0000      -0.781680       -21.2706
  33   2.0000      -0.770979       -20.9794
  34   2.0000      -0.711855       -19.3705
  35   2.0000      -0.695363       -18.9218
  36   2.0000      -0.691162       -18.8075
  37   2.0000      -0.666739       -18.1429
  38   2.0000      -0.641185       -17.4475
  39   2.0000      -0.626159       -17.0386
  40   2.0000      -0.596029       -16.2188
  41   2.0000      -0.565828       -15.3969
  42   2.0000      -0.565270       -15.3818
  43   2.0000      -0.553645       -15.0654
  44   2.0000      -0.544356       -14.8127
  45   2.0000      -0.523859       -14.2549
  46   2.0000      -0.517979       -14.0949
  47   2.0000      -0.513379       -13.9698
  48   2.0000      -0.503179       -13.6922
  49   2.0000      -0.497234       -13.5304
  50   2.0000      -0.492240       -13.3945
  51   2.0000      -0.483039       -13.1442
  52   2.0000      -0.468920       -12.7600
  53   2.0000      -0.465647       -12.6709
  54   2.0000      -0.458448       -12.4750
  55   2.0000      -0.451117       -12.2755
  56   2.0000      -0.445851       -12.1322
  57   2.0000      -0.426718       -11.6116
  58   2.0000      -0.424945       -11.5633
  59   2.0000      -0.421770       -11.4769
  60   2.0000      -0.418543       -11.3891
  61   2.0000      -0.415956       -11.3187
  62   2.0000      -0.413078       -11.2404
  63   2.0000      -0.350627        -9.5410
  64   2.0000      -0.327488        -8.9114
  65   2.0000      -0.322820        -8.7844
  66   2.0000      -0.301356        -8.2003
  67   0.0000       0.033175         0.9027
  68   0.0000       0.057444         1.5631
  69   0.0000       0.098692         2.6855
  70   0.0000       0.117935         3.2092
  71   0.0000       0.124883         3.3982

MULLIKEN ATOMIC CHARGES
-----------------------
   0 S :    0.092121
   1 C :   -0.130078
   2 C :   -0.099120
   3 C :    0.076701
   4 C :   -0.172222
   5 H :   -0.010850
   6 C :    0.063118
   7 H :    0.025859
   8 H :    0.037341
   9 C :   -0.073212
  10 H :    0.013172
  11 H :    0.024006
  12 C :   -0.068263
  13 H :    0.025985
  14 H :    0.058291
  15 H :    0.033312
  16 S :    0.082893
  17 C :   -0.071408
  18 C :   -0.012962
  19 C :   -0.064036
  20 C :   -0.092946
  21 H :    0.052685
  22 C :    0.029558
  23 H :    0.022272
  24 H :    0.016546
  25 C :   -0.108669
  26 H :    0.035875
  27 H :    0.050309
  28 C :   -0.008596
  29 H :    0.029006
  30 H :    0.021092
  31 H :    0.010812
  32 H :    0.066317
  33 H :    0.045092
Sum of atomic charges:   -0.0000000

LOEWDIN ATOMIC CHARGES
----------------------
   0 S :    0.375603
   1 C :   -0.196671
   2 C :   -0.067111
   3 C :   -0.045177
   4 C :   -0.171997
   5 H :    0.018578
   6 C :   -0.035972
   7 H :    0.032933
   8 H :    0.034230
   9 C :   -0.033872
  10 H :    0.013794
  11 H :    0.019818
  12 C :   -0.065304
  13 H :    0.018831
  14 H :    0.032142
  15 H :    0.027625
  16 S :    0.376685
  17 C :   -0.143971
  18 C :   -0.068990
  19 C :   -0.054524
  20 C :   -0.206195
  21 H :    0.047545
  22 C :   -0.042291
  23 H :    0.031988
  24 H :    0.024216
  25 C :   -0.035937
  26 H :    0.024529
  27 H :    0.032014
  28 C :   -0.064869
  29 H :    0.025716
  30 H :    0.020935
  31 H :    0.020893
  32 H :    0.039200
  33 H :    0.015603

  Mayer bond orders larger than 0.100000
B(  0-S ,  1-C ) :   1.1340 B(  0-S ,  4-C ) :   1.1199 B(  1-C ,  2-C ) :   1.6372
B(  1-C , 32-H ) :   0.9598 B(  2-C ,  3-C ) :   1.2063 B(  2-C ,  6-C ) :   1.0346
B(  3-C ,  4-C ) :   1.6118 B(  3-C ,  5-H ) :   1.0056 B(  4-C , 20-C ) :   1.0189
B(  6-C ,  7-H ) :   0.9489 B(  6-C ,  8-H ) :   0.9335 B(  6-C ,  9-C ) :   1.0784
B(  9-C , 10-H ) :   0.9513 B(  9-C , 11-H ) :   0.9590 B(  9-C , 12-C ) :   1.0642
B( 12-C , 13-H ) :   0.9794 B( 12-C , 14-H ) :   0.9715 B( 12-C , 15-H ) :   0.9767
B( 16-S , 17-C ) :   1.1375 B( 16-S , 20-C ) :   1.1207 B( 17-C , 18-C ) :   1.6097
B( 17-C , 33-H ) :   0.9807 B( 18-C , 19-C ) :   1.2216 B( 18-C , 21-H ) :   0.9734
B( 19-C , 20-C ) :   1.6249 B( 19-C , 22-C ) :   1.0621 B( 22-C , 23-H ) :   0.9325
B( 22-C , 24-H ) :   0.9383 B( 22-C , 25-C ) :   1.0588 B( 25-C , 26-H ) :   0.9568
B( 25-C , 27-H ) :   0.9575 B( 25-C , 28-C ) :   1.0818 B( 28-C , 29-H ) :   0.9735
B( 28-C , 30-H ) :   0.9714 B( 28-C , 31-H ) :   0.9688

Dispersion correction           -0.015283915
FINAL SINGLE POINT ENERGY     -1339.864078931259

DIPOLE MOMENT
-------------
                                X             Y             Z
Electronic contribution:     24.25532     -15.81133       9.17543
Nuclear contribution   :    -25.08368      16.26303      -9.10516
                        -----------------------------------------
Total Dipole Moment    :     -0.82836       0.45170       0.07027
                        -----------------------------------------
Magnitude (a.u.)       :      0.94613
Magnitude (Debye)      :      2.40486

Rotational constants in cm-1:     0.017126     0.010128     0.007342
Rotational constants in MHz :   513.411600   303.617809   220.103724

                             ****ORCA TERMINATED NORMALLY****
TOTAL RUN TIME: 0 days 0 hours 0 minutes 31 seconds 355 msec
