                         Program Version 4.2.1 -  RELEASE  -
|  1> ! wB97X-D3 SP def2-SVP
|  2> %pal
|  3> nprocs 16
|  4> end
|  5>
|  6> * xyz 0 1
|  7> S 	 4.95581 	 12.7929 	 86.8554
|  8> C 	 3.79209 	 12.4611 	 85.6607
|  9> C 	 4.33695 	 11.6697 	 84.6282
| 10> C 	 5.69919 	 11.2261 	 84.9171
| 11> C 	 6.17064 	 11.8025 	 86.0782
| 12> H 	 6.32865 	 10.5181 	 84.3157
| 13> C 	 3.4807 	 11.0858 	 83.518
| 14> H 	 4.19978 	 10.7962 	 82.7471
| 15> H 	 2.86796 	 11.9087 	 83.0516
| 16> C 	 2.65174 	 9.98471 	 83.9704
| 17> H 	 3.00833 	 9.15765 	 84.5231
| 18> H 	 1.8975 	 10.5492 	 84.6189
| 19> C 	 1.94151 	 9.3831 	 82.7327
| 20> H 	 1.25243 	 8.66845 	 83.1386
| 21> H 	 1.43274 	 10.1472 	 82.2076
| 22> H 	 2.59481 	 8.81856 	 82.041
| 23> S 	 8.13288 	 10.3943 	 87.5142
| 24> C 	 9.76806 	 11.0977 	 87.664
| 25> C 	 9.79727 	 12.3229 	 87.1314
| 26> C 	 8.54246 	 12.7506 	 86.5745
| 27> C 	 7.51397 	 11.8019 	 86.6467
| 28> H 	 10.7699 	 12.885 	 87.1833
| 29> C 	 8.41104 	 14.1821 	 86.0503
| 30> H 	 8.04577 	 14.9114 	 86.7476
| 31> H 	 7.70943 	 14.1137 	 85.2422
| 32> C 	 9.70475 	 14.8552 	 85.4927
| 33> H 	 10.0587 	 14.361 	 84.6155
| 34> H 	 10.4581 	 14.8305 	 86.2104
| 35> C 	 9.52829 	 16.3076 	 85.103
| 36> H 	 10.1307 	 17.0299 	 85.6385
| 37> H 	 8.52659 	 16.4832 	 85.4498
| 38> H 	 9.52728 	 16.5924 	 83.9881
| 39> H 	 2.75823 	 12.7893 	 85.5466
| 40> H 	 10.6892 	 10.5368 	 87.8697
| 41> *
| 42>
| 43>                          ****END OF INPUT****

CARTESIAN COORDINATES (ANGSTROEM)
---------------------------------
  S      4.955810   12.792900   86.855400
  C      3.792090   12.461100   85.660700
  C      4.336950   11.669700   84.628200
  C      5.699190   11.226100   84.917100
  C      6.170640   11.802500   86.078200
  H      6.328650   10.518100   84.315700
  C      3.480700   11.085800   83.518000
  H      4.199780   10.796200   82.747100
  H      2.867960   11.908700   83.051600
  C      2.651740    9.984710   83.970400
  H      3.008330    9.157650   84.523100
  H      1.897500   10.549200   84.618900
  C      1.941510    9.383100   82.732700
  H      1.252430    8.668450   83.138600
  H      1.432740   10.147200   82.207600
  H      2.594810    8.818560   82.041000
  S      8.132880   10.394300   87.514200
  C      9.768060   11.097700   87.664000
  C      9.797270   12.322900   87.131400
  C      8.542460   12.750600   86.574500
  C      7.513970   11.801900   86.646700
  H     10.769900   12.885000   87.183300
  C      8.411040   14.182100   86.050300
  H      8.045770   14.911400   86.747600
  H      7.709430   14.113700   85.242200
  C      9.704750   14.855200   85.492700
  H     10.058700   14.361000   84.615500
  H     10.458100   14.830500   86.210400
  C      9.528290   16.307600   85.103000
  H     10.130700   17.029900   85.638500
  H      8.526590   16.483200   85.449800
  H      9.527280   16.592400   83.988100
  H      2.758230   12.789300   85.546600
  H     10.689200   10.536800   87.869700

 Total Charge           Charge          ....    0
 Multiplicity           Mult            ....    1
 Number of Electrons    NEL             ....  134
 Basis Dimension        Dim             ....  322

ORBITAL ENERGIES
----------------

  NO   OCC          E(Eh)            E(eV)
   0   2.0000     -88.967908     -2420.9399
   1   2.0000     -88.961755     -2420.7724
   2   2.0000     -10.330057      -281.0952
   3   2.0000     -10.329877      -281.0902
   4   2.0000     -10.315523      -280.6997
   5   2.0000     -10.314204      -280.6638
   6   2.0000     -10.306850      -280.4636
   7   2.0000     -10.304958      -280.4122
   8   2.0000     -10.302552      -280.3467
   9   2.0000     -10.292615      -280.0763
  10   2.0000     -10.290705      -280.0243
  11   2.0000     -10.286826      -279.9188
  12   2.0000     -10.284435      -279.8537
  13   2.0000     -10.275653      -279.6147
  14   2.0000     -10.275483      -279.6101
  15   2.0000     -10.273846      -279.5656
  16   2.0000      -8.083106      -219.9525
  17   2.0000      -8.075880      -219.7559
  18   2.0000      -6.041572      -164.3995
  19   2.0000      -6.037351      -164.2847
  20   2.0000      -6.034564      -164.2088
  21   2.0000      -6.034072      -164.1954
  22   2.0000      -6.030405      -164.0957
  23   2.0000      -6.026545      -163.9906
  24   2.0000      -1.005271       -27.3548
  25   2.0000      -0.983217       -26.7547
  26   2.0000      -0.923864       -25.1396
  27   2.0000      -0.907859       -24.7041
  28   2.0000      -0.872353       -23.7379
  29   2.0000      -0.849142       -23.1063
  30   2.0000      -0.844081       -22.9686
  31   2.0000      -0.819195       -22.2914
  32   2.0000      -0.779366       -21.2076
  33   2.0000      -0.764303       -20.7978
  34   2.0000      -0.704708       -19.1761
  35   2.0000      -0.701148       -19.0792
  36   2.0000      -0.699331       -19.0298
  37   2.0000      -0.649254       -17.6671
  38   2.0000      -0.640276       -17.4228
  39   2.0000      -0.618042       -16.8178
  40   2.0000      -0.597828       -16.2677
  41   2.0000      -0.572766       -15.5858
  42   2.0000      -0.569770       -15.5042
  43   2.0000      -0.568383       -15.4665
  44   2.0000      -0.532480       -14.4895
  45   2.0000      -0.525718       -14.3055
  46   2.0000      -0.516621       -14.0580
  47   2.0000      -0.510636       -13.8951
  48   2.0000      -0.505952       -13.7677
  49   2.0000      -0.498513       -13.5652
  50   2.0000      -0.491375       -13.3710
  51   2.0000      -0.475881       -12.9494
  52   2.0000      -0.468914       -12.7598
  53   2.0000      -0.462629       -12.5888
  54   2.0000      -0.461183       -12.5494
  55   2.0000      -0.451265       -12.2795
  56   2.0000      -0.450241       -12.2517
  57   2.0000      -0.444398       -12.0927
  58   2.0000      -0.424451       -11.5499
  59   2.0000      -0.416166       -11.3244
  60   2.0000      -0.412109       -11.2140
  61   2.0000      -0.411234       -11.1902
  62   2.0000      -0.408571       -11.1178
  63   2.0000      -0.338410        -9.2086
  64   2.0000      -0.335432        -9.1276
  65   2.0000      -0.317460        -8.6385
  66   2.0000      -0.307903        -8.3785
  67   0.0000       0.038620         1.0509
  68   0.0000       0.059132         1.6091
  69   0.0000       0.117635         3.2010
  70   0.0000       0.123081         3.3492
  71   0.0000       0.129624         3.5273

MULLIKEN ATOMIC CHARGES
-----------------------
   0 S :    0.137781
   1 C :   -0.104308
   2 C :   -0.125372
   3 C :    0.050738
   4 C :   -0.200050
   5 H :    0.038583
   6 C :    0.035172
   7 H :    0.014885
   8 H :    0.037863
   9 C :   -0.067881
  10 H :    0.033007
  11 H :    0.024532
  12 C :   -0.022863
  13 H :    0.025614
  14 H :    0.018228
  15 H :    0.036897
  16 S :    0.090248
  17 C :   -0.097586
  18 C :   -0.055614
  19 C :   -0.014043
  20 C :   -0.159698
  21 H :    0.045226
  22 C :    0.077329
  23 H :    0.039348
  24 H :    0.026984
  25 C :   -0.073565
  26 H :    0.024529
  27 H :    0.013632
  28 C :   -0.054198
  29 H :    0.030710
  30 H :    0.006057
  31 H :    0.048319
  32 H :    0.051644
  33 H :    0.067853
Sum of atomic charges:   -0.0000000

LOEWDIN ATOMIC CHARGES
----------------------
   0 S :    0.438277
   1 C :   -0.220309
   2 C :   -0.063707
   3 C :   -0.056901
   4 C :   -0.204403
   5 H :    0.044820
   6 C :   -0.043036
   7 H :    0.024956
   8 H :    0.037401
   9 C :   -0.038930
  10 H :    0.022885
  11 H :    0.031807
  12 C :   -0.057189
  13 H :    0.023126
  14 H :    0.016936
  15 H :    0.027609
  16 S :    0.379902
  17 C :   -0.178098
  18 C :   -0.082694
  19 C :   -0.051719
  20 C :   -0.203737
  21 H :    0.044668
  22 C :   -0.030064
  23 H :    0.029497
  24 H :    0.029424
  25 C :   -0.037637
  26 H :    0.022952
  27 H :    0.011746
  28 C :   -0.071746
  29 H :    0.024198
  30 H :    0.021914
  31 H :    0.036183
  32 H :    0.033215
  33 H :    0.038653

  Mayer bond orders larger than 0.100000
B(  0-S ,  1-C ) :   1.1540 B(  0-S ,  4-C ) :   1.1633 B(  1-C ,  2-C ) :   1.5918
B(  1-C , 32-H ) :   0.9650 B(  2-C ,  3-C ) :   1.2441 B(  2-C ,  6-C ) :   1.0316
B(  3-C ,  4-C ) :   1.5890 B(  3-C ,  5-H ) :   0.9860 B(  4-C , 20-C ) :   1.0047
B(  6-C ,  7-H ) :   0.9396 B(  6-C ,  8-H ) :   0.9368 B(  6-C ,  9-C ) :   1.0682
B(  9-C , 10-H ) :   0.9623 B(  9-C , 11-H ) :   0.9471 B(  9-C , 12-C ) :   1.0796
B( 12-C , 13-H ) :   0.9742 B( 12-C , 14-H ) :   0.9727 B( 12-C , 15-H ) :   0.9760
B( 16-S , 17-C ) :   1.1382 B( 16-S , 20-C ) :   1.1321 B( 17-C , 18-C ) :   1.6556
B( 17-C , 33-H ) :   0.9550 B( 18-C , 19-C ) :   1.2292 B( 18-C , 21-H ) :   0.9759
B( 19-C , 20-C ) :   1.6101 B( 19-C , 22-C ) :   1.0344 B( 22-C , 23-H ) :   0.9314
B( 22-C , 24-H ) :   0.9274 B( 22-C , 25-C ) :   1.0909 B( 25-C , 26-H ) :   0.9584
B( 25-C , 27-H ) :   0.9490 B( 25-C , 28-C ) :   1.0728 B( 28-C , 29-H ) :   0.9748
B( 28-C , 30-H ) :   0.9735 B( 28-C , 31-H ) :   0.9746

Dispersion correction           -0.013473696
FINAL SINGLE POINT ENERGY     -1339.857132600671

DIPOLE MOMENT
-------------
                                X             Y             Z
Electronic contribution:      4.61177      -7.22191      18.25633
Nuclear contribution   :     -4.59627       7.32744     -18.75427
                        -----------------------------------------
Total Dipole Moment    :      0.01550       0.10553      -0.49794
                        -----------------------------------------
Magnitude (a.u.)       :      0.50923
Magnitude (Debye)      :      1.29437

Rotational constants in cm-1:     0.020788     0.007060     0.006035
Rotational constants in MHz :   623.211356   211.648525   180.920343

                             ****ORCA TERMINATED NORMALLY****
TOTAL RUN TIME: 0 days 0 hours 0 minutes 32 seconds 387 msec
