                         Program Version 4.2.1 -  RELEASE  -
|  1> ! wB97X-D3 SP def2-SVP
|  2> %pal
|  3> nprocs 16
|  4> end
|  5>
|  6> * xyz 0 1
|  7> S 	 -19.3767 	 51.0682 	 66.9626
|  8> C 	 -19.3662 	 49.5918 	 67.9259
|  9> C 	 -20.6198 	 49.0818 	 68.1087
| 10> C 	 -21.6111 	 49.9999 	 67.6033
| 11> C 	 -21.1457 	 51.1307 	 67.0275
| 12> H 	 -22.6995 	 49.8117 	 67.609
| 13> C 	 -20.9427 	 47.788 	 68.8045
| 14> H 	 -21.9927 	 47.8984 	 69.1084
| 15> H 	 -20.3558 	 47.7511 	 69.7355
| 16> C 	 -20.8769 	 46.4428 	 68.1514
| 17> H 	 -21.5109 	 45.81 	 68.672
| 18> H 	 -21.3595 	 46.4443 	 67.1398
| 19> C 	 -19.5094 	 45.7742 	 67.976
| 20> H 	 -19.5643 	 44.885 	 67.2806
| 21> H 	 -18.8504 	 46.611 	 67.5445
| 22> H 	 -19.1487 	 45.4609 	 68.9168
| 23> S 	 -21.3997 	 52.6614 	 64.8603
| 24> C 	 -22.9727 	 53.373 	 64.4243
| 25> C 	 -23.8237 	 53.3249 	 65.5052
| 26> C 	 -23.2632 	 52.6908 	 66.6847
| 27> C 	 -22.0137 	 52.0955 	 66.3578
| 28> H 	 -24.758 	 53.7971 	 65.5184
| 29> C 	 -24.0726 	 52.4882 	 67.9791
| 30> H 	 -23.362 	 52.4484 	 68.8099
| 31> H 	 -24.5665 	 51.5024 	 68.067
| 32> C 	 -25.1407 	 53.604 	 68.2751
| 33> H 	 -26.0927 	 53.4493 	 67.6901
| 34> H 	 -24.7632 	 54.5662 	 67.9686
| 35> C 	 -25.4661 	 53.7122 	 69.8025
| 36> H 	 -25.6936 	 54.7205 	 70.2063
| 37> H 	 -24.666 	 53.1349 	 70.3467
| 38> H 	 -26.3309 	 53.0262 	 70.0736
| 39> H 	 -18.3843 	 49.0335 	 68.1164
| 40> H 	 -23.3702 	 53.8423 	 63.5236
| 41> *
| 42>
| 43>                          ****END OF INPUT****

CARTESIAN COORDINATES (ANGSTROEM)
---------------------------------
  S    -19.376700   51.068200   66.962600
  C    -19.366200   49.591800   67.925900
  C    -20.619800   49.081800   68.108700
  C    -21.611100   49.999900   67.603300
  C    -21.145700   51.130700   67.027500
  H    -22.699500   49.811700   67.609000
  C    -20.942700   47.788000   68.804500
  H    -21.992700   47.898400   69.108400
  H    -20.355800   47.751100   69.735500
  C    -20.876900   46.442800   68.151400
  H    -21.510900   45.810000   68.672000
  H    -21.359500   46.444300   67.139800
  C    -19.509400   45.774200   67.976000
  H    -19.564300   44.885000   67.280600
  H    -18.850400   46.611000   67.544500
  H    -19.148700   45.460900   68.916800
  S    -21.399700   52.661400   64.860300
  C    -22.972700   53.373000   64.424300
  C    -23.823700   53.324900   65.505200
  C    -23.263200   52.690800   66.684700
  C    -22.013700   52.095500   66.357800
  H    -24.758000   53.797100   65.518400
  C    -24.072600   52.488200   67.979100
  H    -23.362000   52.448400   68.809900
  H    -24.566500   51.502400   68.067000
  C    -25.140700   53.604000   68.275100
  H    -26.092700   53.449300   67.690100
  H    -24.763200   54.566200   67.968600
  C    -25.466100   53.712200   69.802500
  H    -25.693600   54.720500   70.206300
  H    -24.666000   53.134900   70.346700
  H    -26.330900   53.026200   70.073600
  H    -18.384300   49.033500   68.116400
  H    -23.370200   53.842300   63.523600

 Total Charge           Charge          ....    0
 Multiplicity           Mult            ....    1
 Number of Electrons    NEL             ....  134
 Basis Dimension        Dim             ....  322

ORBITAL ENERGIES
----------------

  NO   OCC          E(Eh)            E(eV)
   0   2.0000     -88.967716     -2420.9346
   1   2.0000     -88.966638     -2420.9053
   2   2.0000     -10.331010      -281.1211
   3   2.0000     -10.329838      -281.0892
   4   2.0000     -10.321039      -280.8497
   5   2.0000     -10.318063      -280.7688
   6   2.0000     -10.310654      -280.5672
   7   2.0000     -10.302818      -280.3539
   8   2.0000     -10.300923      -280.3024
   9   2.0000     -10.296060      -280.1700
  10   2.0000     -10.294278      -280.1215
  11   2.0000     -10.293268      -280.0941
  12   2.0000     -10.291552      -280.0474
  13   2.0000     -10.290576      -280.0208
  14   2.0000     -10.284531      -279.8563
  15   2.0000     -10.281221      -279.7662
  16   2.0000      -8.082474      -219.9353
  17   2.0000      -8.081018      -219.8957
  18   2.0000      -6.041092      -164.3865
  19   2.0000      -6.039734      -164.3495
  20   2.0000      -6.036989      -164.2748
  21   2.0000      -6.035707      -164.2399
  22   2.0000      -6.033093      -164.1688
  23   2.0000      -6.031447      -164.1240
  24   2.0000      -1.008098       -27.4318
  25   2.0000      -0.983225       -26.7549
  26   2.0000      -0.916436       -24.9375
  27   2.0000      -0.901190       -24.5226
  28   2.0000      -0.873103       -23.7584
  29   2.0000      -0.850367       -23.1397
  30   2.0000      -0.842635       -22.9293
  31   2.0000      -0.816431       -22.2162
  32   2.0000      -0.783665       -21.3246
  33   2.0000      -0.767603       -20.8875
  34   2.0000      -0.707368       -19.2485
  35   2.0000      -0.700232       -19.0543
  36   2.0000      -0.696279       -18.9467
  37   2.0000      -0.656666       -17.8688
  38   2.0000      -0.636460       -17.3190
  39   2.0000      -0.620882       -16.8951
  40   2.0000      -0.595173       -16.1955
  41   2.0000      -0.573648       -15.6097
  42   2.0000      -0.557298       -15.1648
  43   2.0000      -0.548837       -14.9346
  44   2.0000      -0.537899       -14.6370
  45   2.0000      -0.524868       -14.2824
  46   2.0000      -0.524584       -14.2747
  47   2.0000      -0.508425       -13.8349
  48   2.0000      -0.503901       -13.7118
  49   2.0000      -0.497608       -13.5406
  50   2.0000      -0.484067       -13.1721
  51   2.0000      -0.481668       -13.1068
  52   2.0000      -0.471304       -12.8248
  53   2.0000      -0.461571       -12.5600
  54   2.0000      -0.457850       -12.4587
  55   2.0000      -0.450644       -12.2626
  56   2.0000      -0.445408       -12.1202
  57   2.0000      -0.439802       -11.9676
  58   2.0000      -0.431844       -11.7511
  59   2.0000      -0.424620       -11.5545
  60   2.0000      -0.419107       -11.4045
  61   2.0000      -0.415553       -11.3078
  62   2.0000      -0.411465       -11.1965
  63   2.0000      -0.357420        -9.7259
  64   2.0000      -0.333980        -9.0881
  65   2.0000      -0.325856        -8.8670
  66   2.0000      -0.288419        -7.8483
  67   0.0000       0.024479         0.6661
  68   0.0000       0.072705         1.9784
  69   0.0000       0.097857         2.6628
  70   0.0000       0.119072         3.2401
  71   0.0000       0.131448         3.5769

MULLIKEN ATOMIC CHARGES
-----------------------
   0 S :    0.096308
   1 C :   -0.157005
   2 C :   -0.060404
   3 C :   -0.020947
   4 C :   -0.100911
   5 H :    0.020127
   6 C :    0.055870
   7 H :    0.017022
   8 H :    0.033120
   9 C :   -0.040218
  10 H :    0.008437
  11 H :    0.023644
  12 C :   -0.064875
  13 H :    0.049376
  14 H :    0.038146
  15 H :    0.023257
  16 S :    0.107279
  17 C :   -0.071268
  18 C :   -0.034535
  19 C :   -0.037193
  20 C :   -0.161055
  21 H :    0.003969
  22 C :    0.036166
  23 H :    0.030603
  24 H :    0.049178
  25 C :   -0.104437
  26 H :    0.047921
  27 H :    0.034055
  28 C :   -0.081330
  29 H :    0.057688
  30 H :    0.034142
  31 H :    0.031205
  32 H :    0.081930
  33 H :    0.054734
Sum of atomic charges:    0.0000000

LOEWDIN ATOMIC CHARGES
----------------------
   0 S :    0.378688
   1 C :   -0.196464
   2 C :   -0.068369
   3 C :   -0.064466
   4 C :   -0.190526
   5 H :    0.035379
   6 C :   -0.035808
   7 H :    0.036290
   8 H :    0.036871
   9 C :   -0.045387
  10 H :    0.014401
  11 H :    0.029845
  12 C :   -0.067244
  13 H :    0.035340
  14 H :    0.032804
  15 H :    0.013726
  16 S :    0.412558
  17 C :   -0.188507
  18 C :   -0.061631
  19 C :   -0.058661
  20 C :   -0.195299
  21 H :    0.021984
  22 C :   -0.037469
  23 H :    0.031140
  24 H :    0.033292
  25 C :   -0.046704
  26 H :    0.029227
  27 H :    0.021314
  28 C :   -0.079749
  29 H :    0.032013
  30 H :    0.030727
  31 H :    0.030157
  32 H :    0.043263
  33 H :    0.037267

  Mayer bond orders larger than 0.100000
B(  0-S ,  1-C ) :   1.1252 B(  0-S ,  4-C ) :   1.1192 B(  1-C ,  2-C ) :   1.6319
B(  1-C , 32-H ) :   0.9545 B(  2-C ,  3-C ) :   1.2268 B(  2-C ,  6-C ) :   1.0197
B(  3-C ,  4-C ) :   1.6027 B(  3-C ,  5-H ) :   0.9892 B(  4-C , 20-C ) :   1.0595
B(  6-C ,  7-H ) :   0.9316 B(  6-C ,  8-H ) :   0.9393 B(  6-C ,  9-C ) :   1.0829
B(  9-C , 10-H ) :   0.9498 B(  9-C , 11-H ) :   0.9497 B(  9-C , 12-C ) :   1.0772
B( 12-C , 13-H ) :   0.9731 B( 12-C , 14-H ) :   0.9759 B( 12-C , 15-H ) :   0.9756
B( 16-S , 17-C ) :   1.1282 B( 16-S , 20-C ) :   1.1528 B( 17-C , 18-C ) :   1.6309
B( 17-C , 33-H ) :   0.9643 B( 18-C , 19-C ) :   1.2392 B( 18-C , 21-H ) :   0.9875
B( 19-C , 20-C ) :   1.5641 B( 19-C , 22-C ) :   1.0473 B( 22-C , 23-H ) :   0.9342
B( 22-C , 24-H ) :   0.9343 B( 22-C , 25-C ) :   1.0590 B( 25-C , 26-H ) :   0.9527
B( 25-C , 27-H ) :   0.9668 B( 25-C , 28-C ) :   1.0620 B( 28-C , 29-H ) :   0.9781
B( 28-C , 30-H ) :   0.9775 B( 28-C , 31-H ) :   0.9738

Dispersion correction           -0.013390636
FINAL SINGLE POINT ENERGY     -1339.863443644294

DIPOLE MOMENT
-------------
                                X             Y             Z
Electronic contribution:     14.13105      13.05163     -16.76037
Nuclear contribution   :    -14.74209     -13.45190      17.09878
                        -----------------------------------------
Total Dipole Moment    :     -0.61105      -0.40028       0.33841
                        -----------------------------------------
Magnitude (a.u.)       :      0.80506
Magnitude (Debye)      :      2.04630

Rotational constants in cm-1:     0.018893     0.007507     0.006034
Rotational constants in MHz :   566.389742   225.064450   180.883449

                             ****ORCA TERMINATED NORMALLY****
TOTAL RUN TIME: 0 days 0 hours 0 minutes 31 seconds 427 msec
