                         Program Version 4.2.1 -  RELEASE  -
|  1> ! wB97X-D3 SP def2-SVP
|  2> %pal
|  3> nprocs 16
|  4> end
|  5>
|  6> * xyz 0 1
|  7> S 	 4.88207 	 -11.0504 	 65.3816
|  8> C 	 4.62253 	 -9.36325 	 64.859
|  9> C 	 5.76915 	 -8.65959 	 65.1569
| 10> C 	 6.61784 	 -9.38838 	 66.0472
| 11> C 	 6.28418 	 -10.6677 	 66.3689
| 12> H 	 7.56613 	 -9.05464 	 66.4748
| 13> C 	 6.08852 	 -7.27107 	 64.7221
| 14> H 	 7.07767 	 -7.10727 	 64.9665
| 15> H 	 5.5602 	 -6.62329 	 65.3395
| 16> C 	 5.96054 	 -6.96531 	 63.2122
| 17> H 	 4.91142 	 -7.09063 	 62.8813
| 18> H 	 6.20799 	 -5.95266 	 63.0252
| 19> C 	 6.77939 	 -7.92878 	 62.3314
| 20> H 	 7.7653 	 -8.00315 	 62.7017
| 21> H 	 6.22076 	 -8.79629 	 62.3713
| 22> H 	 6.77307 	 -7.53773 	 61.2466
| 23> S 	 7.21958 	 -13.241 	 66.2275
| 24> C 	 8.41671 	 -13.9014 	 67.3945
| 25> C 	 8.6539 	 -12.9361 	 68.3346
| 26> C 	 7.90822 	 -11.7379 	 68.1569
| 27> C 	 7.04851 	 -11.7072 	 67.0512
| 28> H 	 9.40773 	 -13.2162 	 69.0642
| 29> C 	 7.78666 	 -10.6195 	 69.1724
| 30> H 	 7.83911 	 -9.7593 	 68.5284
| 31> H 	 8.68955 	 -10.5286 	 69.7964
| 32> C 	 6.44816 	 -10.5899 	 70.0093
| 33> H 	 5.54858 	 -10.4617 	 69.4003
| 34> H 	 6.53235 	 -9.60567 	 70.5699
| 35> C 	 6.27291 	 -11.7646 	 70.9446
| 36> H 	 6.22533 	 -12.7847 	 70.5816
| 37> H 	 5.40616 	 -11.5995 	 71.5072
| 38> H 	 7.02485 	 -11.7638 	 71.7012
| 39> H 	 3.88151 	 -9.01666 	 64.1628
| 40> H 	 8.69049 	 -14.9055 	 67.4347
| 41> *
| 42>
| 43>                          ****END OF INPUT****

CARTESIAN COORDINATES (ANGSTROEM)
---------------------------------
  S      4.882070  -11.050400   65.381600
  C      4.622530   -9.363250   64.859000
  C      5.769150   -8.659590   65.156900
  C      6.617840   -9.388380   66.047200
  C      6.284180  -10.667700   66.368900
  H      7.566130   -9.054640   66.474800
  C      6.088520   -7.271070   64.722100
  H      7.077670   -7.107270   64.966500
  H      5.560200   -6.623290   65.339500
  C      5.960540   -6.965310   63.212200
  H      4.911420   -7.090630   62.881300
  H      6.207990   -5.952660   63.025200
  C      6.779390   -7.928780   62.331400
  H      7.765300   -8.003150   62.701700
  H      6.220760   -8.796290   62.371300
  H      6.773070   -7.537730   61.246600
  S      7.219580  -13.241000   66.227500
  C      8.416710  -13.901400   67.394500
  C      8.653900  -12.936100   68.334600
  C      7.908220  -11.737900   68.156900
  C      7.048510  -11.707200   67.051200
  H      9.407730  -13.216200   69.064200
  C      7.786660  -10.619500   69.172400
  H      7.839110   -9.759300   68.528400
  H      8.689550  -10.528600   69.796400
  C      6.448160  -10.589900   70.009300
  H      5.548580  -10.461700   69.400300
  H      6.532350   -9.605670   70.569900
  C      6.272910  -11.764600   70.944600
  H      6.225330  -12.784700   70.581600
  H      5.406160  -11.599500   71.507200
  H      7.024850  -11.763800   71.701200
  H      3.881510   -9.016660   64.162800
  H      8.690490  -14.905500   67.434700

 Total Charge           Charge          ....    0
 Multiplicity           Mult            ....    1
 Number of Electrons    NEL             ....  134
 Basis Dimension        Dim             ....  322

ORBITAL ENERGIES
----------------

  NO   OCC          E(Eh)            E(eV)
   0   2.0000     -88.963280     -2420.8139
   1   2.0000     -88.960951     -2420.7506
   2   2.0000     -10.333743      -281.1954
   3   2.0000     -10.331806      -281.1427
   4   2.0000     -10.317693      -280.7587
   5   2.0000     -10.317441      -280.7518
   6   2.0000     -10.304958      -280.4122
   7   2.0000     -10.302988      -280.3585
   8   2.0000     -10.296705      -280.1876
   9   2.0000     -10.294157      -280.1183
  10   2.0000     -10.291652      -280.0501
  11   2.0000     -10.289614      -279.9946
  12   2.0000     -10.285900      -279.8936
  13   2.0000     -10.281142      -279.7641
  14   2.0000     -10.272705      -279.5345
  15   2.0000     -10.264555      -279.3127
  16   2.0000      -8.077492      -219.7997
  17   2.0000      -8.075330      -219.7409
  18   2.0000      -6.036162      -164.2523
  19   2.0000      -6.033933      -164.1917
  20   2.0000      -6.032128      -164.1425
  21   2.0000      -6.029714      -164.0769
  22   2.0000      -6.028013      -164.0306
  23   2.0000      -6.026151      -163.9799
  24   2.0000      -1.008356       -27.4388
  25   2.0000      -0.984786       -26.7974
  26   2.0000      -0.918610       -24.9966
  27   2.0000      -0.901472       -24.5303
  28   2.0000      -0.873935       -23.7810
  29   2.0000      -0.849166       -23.1070
  30   2.0000      -0.842399       -22.9229
  31   2.0000      -0.823135       -22.3986
  32   2.0000      -0.786678       -21.4066
  33   2.0000      -0.774704       -21.0808
  34   2.0000      -0.713816       -19.4239
  35   2.0000      -0.706291       -19.2191
  36   2.0000      -0.693487       -18.8707
  37   2.0000      -0.664116       -18.0715
  38   2.0000      -0.643165       -17.5014
  39   2.0000      -0.613669       -16.6988
  40   2.0000      -0.587477       -15.9861
  41   2.0000      -0.582828       -15.8596
  42   2.0000      -0.561229       -15.2718
  43   2.0000      -0.554815       -15.0973
  44   2.0000      -0.546545       -14.8722
  45   2.0000      -0.541665       -14.7395
  46   2.0000      -0.520811       -14.1720
  47   2.0000      -0.515059       -14.0155
  48   2.0000      -0.511715       -13.9245
  49   2.0000      -0.496639       -13.5142
  50   2.0000      -0.491622       -13.3777
  51   2.0000      -0.483636       -13.1604
  52   2.0000      -0.477846       -13.0029
  53   2.0000      -0.466203       -12.6860
  54   2.0000      -0.456847       -12.4314
  55   2.0000      -0.440459       -11.9855
  56   2.0000      -0.435689       -11.8557
  57   2.0000      -0.432047       -11.7566
  58   2.0000      -0.429010       -11.6740
  59   2.0000      -0.426850       -11.6152
  60   2.0000      -0.424028       -11.5384
  61   2.0000      -0.415108       -11.2957
  62   2.0000      -0.402834       -10.9617
  63   2.0000      -0.357381        -9.7248
  64   2.0000      -0.330655        -8.9976
  65   2.0000      -0.324363        -8.8264
  66   2.0000      -0.290621        -7.9082
  67   0.0000       0.018899         0.5143
  68   0.0000       0.069591         1.8937
  69   0.0000       0.104489         2.8433
  70   0.0000       0.125887         3.4256
  71   0.0000       0.135732         3.6934

MULLIKEN ATOMIC CHARGES
-----------------------
   0 S :    0.079231
   1 C :   -0.103997
   2 C :   -0.130973
   3 C :    0.010807
   4 C :   -0.122734
   5 H :    0.016989
   6 C :    0.156576
   7 H :   -0.010029
   8 H :    0.027142
   9 C :   -0.094687
  10 H :    0.021248
  11 H :    0.021666
  12 C :   -0.028224
  13 H :    0.029331
  14 H :    0.027886
  15 H :    0.044401
  16 S :    0.075924
  17 C :   -0.083980
  18 C :   -0.031921
  19 C :   -0.058319
  20 C :   -0.124981
  21 H :    0.025406
  22 C :    0.078109
  23 H :   -0.000502
  24 H :    0.019348
  25 C :   -0.073378
  26 H :    0.041412
  27 H :    0.034096
  28 C :   -0.002776
  29 H :    0.043084
  30 H :    0.013066
  31 H :    0.005393
  32 H :    0.050105
  33 H :    0.045282
Sum of atomic charges:   -0.0000000

LOEWDIN ATOMIC CHARGES
----------------------
   0 S :    0.384604
   1 C :   -0.181427
   2 C :   -0.059581
   3 C :   -0.067853
   4 C :   -0.187307
   5 H :    0.029362
   6 C :   -0.022907
   7 H :    0.020840
   8 H :    0.030055
   9 C :   -0.033364
  10 H :    0.020462
  11 H :    0.016436
  12 C :   -0.053428
  13 H :    0.018120
  14 H :    0.016228
  15 H :    0.037832
  16 S :    0.385475
  17 C :   -0.159519
  18 C :   -0.072234
  19 C :   -0.065178
  20 C :   -0.191905
  21 H :    0.037252
  22 C :   -0.036700
  23 H :    0.025072
  24 H :    0.028615
  25 C :   -0.033923
  26 H :    0.027061
  27 H :    0.032987
  28 C :   -0.065810
  29 H :    0.029489
  30 H :    0.022591
  31 H :    0.020034
  32 H :    0.028258
  33 H :    0.020365

  Mayer bond orders larger than 0.100000
B(  0-S ,  1-C ) :   1.1268 B(  0-S ,  4-C ) :   1.1343 B(  1-C ,  2-C ) :   1.5995
B(  1-C , 32-H ) :   0.9735 B(  2-C ,  3-C ) :   1.2451 B(  2-C ,  6-C ) :   1.0092
B(  3-C ,  4-C ) :   1.5887 B(  3-C ,  5-H ) :   0.9817 B(  4-C , 20-C ) :   1.0498
B(  6-C ,  7-H ) :   0.9299 B(  6-C ,  8-H ) :   0.9296 B(  6-C ,  9-C ) :   1.0724
B(  9-C , 10-H ) :   0.9599 B(  9-C , 11-H ) :   0.9590 B(  9-C , 12-C ) :   1.0672
B( 12-C , 13-H ) :   0.9800 B( 12-C , 14-H ) :   0.9744 B( 12-C , 15-H ) :   0.9744
B( 16-S , 17-C ) :   1.1485 B( 16-S , 20-C ) :   1.1428 B( 17-C , 18-C ) :   1.5979
B( 17-C , 20-C ) :   0.1081 B( 17-C , 33-H ) :   0.9758 B( 18-C , 19-C ) :   1.2431
B( 18-C , 21-H ) :   0.9970 B( 19-C , 20-C ) :   1.5629 B( 19-C , 22-C ) :   1.0432
B( 22-C , 23-H ) :   0.9249 B( 22-C , 24-H ) :   0.9382 B( 22-C , 25-C ) :   1.0679
B( 25-C , 26-H ) :   0.9573 B( 25-C , 27-H ) :   0.9528 B( 25-C , 28-C ) :   1.0782
B( 28-C , 29-H ) :   0.9752 B( 28-C , 30-H ) :   0.9673 B( 28-C , 31-H ) :   0.9700

Dispersion correction           -0.014795413
FINAL SINGLE POINT ENERGY     -1339.856226160832

DIPOLE MOMENT
-------------
                                X             Y             Z
Electronic contribution:     -2.45302     -17.06047      -4.69556
Nuclear contribution   :      2.77690      17.58650       4.94594
                        -----------------------------------------
Total Dipole Moment    :      0.32387       0.52602       0.25038
                        -----------------------------------------
Magnitude (a.u.)       :      0.66655
Magnitude (Debye)      :      1.69423

Rotational constants in cm-1:     0.023112     0.007886     0.007018
Rotational constants in MHz :   692.880901   236.430286   210.395109

                             ****ORCA TERMINATED NORMALLY****
TOTAL RUN TIME: 0 days 0 hours 0 minutes 30 seconds 619 msec
