                         Program Version 4.2.1 -  RELEASE  -
|  1> ! wB97X-D3 SP def2-SVP
|  2> %pal
|  3> nprocs 16
|  4> end
|  5>
|  6> * xyz 0 1
|  7> S 	 13.7258 	 21.6199 	 53.5016
|  8> C 	 14.8208 	 21.542 	 54.9268
|  9> C 	 15.5088 	 22.7394 	 55.0969
| 10> C 	 15.1448 	 23.6578 	 54.0811
| 11> C 	 14.1232 	 23.3027 	 53.2011
| 12> H 	 15.6146 	 24.585 	 53.8612
| 13> C 	 16.5549 	 22.9712 	 56.1484
| 14> H 	 17.4491 	 23.5219 	 55.8447
| 15> H 	 17.0709 	 22.1783 	 56.6526
| 16> C 	 15.9673 	 23.7447 	 57.3918
| 17> H 	 15.6412 	 24.7709 	 57.1264
| 18> H 	 15.1255 	 23.1526 	 57.7234
| 19> C 	 16.9081 	 23.829 	 58.6094
| 20> H 	 16.3321 	 24.1546 	 59.4681
| 21> H 	 17.3291 	 22.8005 	 58.8786
| 22> H 	 17.8361 	 24.4434 	 58.439
| 23> S 	 13.7571 	 23.7273 	 50.5325
| 24> C 	 12.6061 	 24.8033 	 49.8822
| 25> C 	 11.9922 	 25.4617 	 50.9404
| 26> C 	 12.4909 	 25.0648 	 52.2307
| 27> C 	 13.4076 	 24.0114 	 52.1251
| 28> H 	 11.2312 	 26.166 	 50.7533
| 29> C 	 11.9396 	 25.6491 	 53.5098
| 30> H 	 11.384 	 26.6254 	 53.3372
| 31> H 	 12.6588 	 25.7747 	 54.3769
| 32> C 	 10.8866 	 24.7139 	 54.1944
| 33> H 	 11.4239 	 23.7465 	 54.3225
| 34> H 	 10.058 	 24.518 	 53.5299
| 35> C 	 10.3375 	 25.261 	 55.5591
| 36> H 	 11.0371 	 25.3093 	 56.3841
| 37> H 	 9.51408 	 24.6787 	 55.9447
| 38> H 	 9.82026 	 26.226 	 55.3514
| 39> H 	 14.8924 	 20.6771 	 55.569
| 40> H 	 12.331 	 24.9162 	 48.8266
| 41> *
| 42>
| 43>                          ****END OF INPUT****

CARTESIAN COORDINATES (ANGSTROEM)
---------------------------------
  S     13.725800   21.619900   53.501600
  C     14.820800   21.542000   54.926800
  C     15.508800   22.739400   55.096900
  C     15.144800   23.657800   54.081100
  C     14.123200   23.302700   53.201100
  H     15.614600   24.585000   53.861200
  C     16.554900   22.971200   56.148400
  H     17.449100   23.521900   55.844700
  H     17.070900   22.178300   56.652600
  C     15.967300   23.744700   57.391800
  H     15.641200   24.770900   57.126400
  H     15.125500   23.152600   57.723400
  C     16.908100   23.829000   58.609400
  H     16.332100   24.154600   59.468100
  H     17.329100   22.800500   58.878600
  H     17.836100   24.443400   58.439000
  S     13.757100   23.727300   50.532500
  C     12.606100   24.803300   49.882200
  C     11.992200   25.461700   50.940400
  C     12.490900   25.064800   52.230700
  C     13.407600   24.011400   52.125100
  H     11.231200   26.166000   50.753300
  C     11.939600   25.649100   53.509800
  H     11.384000   26.625400   53.337200
  H     12.658800   25.774700   54.376900
  C     10.886600   24.713900   54.194400
  H     11.423900   23.746500   54.322500
  H     10.058000   24.518000   53.529900
  C     10.337500   25.261000   55.559100
  H     11.037100   25.309300   56.384100
  H      9.514080   24.678700   55.944700
  H      9.820260   26.226000   55.351400
  H     14.892400   20.677100   55.569000
  H     12.331000   24.916200   48.826600

 Total Charge           Charge          ....    0
 Multiplicity           Mult            ....    1
 Number of Electrons    NEL             ....  134
 Basis Dimension        Dim             ....  322

ORBITAL ENERGIES
----------------

  NO   OCC          E(Eh)            E(eV)
   0   2.0000     -88.966467     -2420.9006
   1   2.0000     -88.966051     -2420.8893
   2   2.0000     -10.334829      -281.2250
   3   2.0000     -10.323966      -280.9294
   4   2.0000     -10.321991      -280.8756
   5   2.0000     -10.316671      -280.7309
   6   2.0000     -10.309348      -280.5316
   7   2.0000     -10.306056      -280.4421
   8   2.0000     -10.297265      -280.2028
   9   2.0000     -10.296740      -280.1885
  10   2.0000     -10.294885      -280.1381
  11   2.0000     -10.292834      -280.0823
  12   2.0000     -10.290176      -280.0099
  13   2.0000     -10.288729      -279.9705
  14   2.0000     -10.284271      -279.8492
  15   2.0000     -10.277730      -279.6712
  16   2.0000      -8.083210      -219.9553
  17   2.0000      -8.080254      -219.8749
  18   2.0000      -6.041478      -164.3970
  19   2.0000      -6.038709      -164.3216
  20   2.0000      -6.037039      -164.2762
  21   2.0000      -6.034778      -164.2147
  22   2.0000      -6.034396      -164.2043
  23   2.0000      -6.031213      -164.1176
  24   2.0000      -1.017218       -27.6799
  25   2.0000      -0.987157       -26.8619
  26   2.0000      -0.910547       -24.7773
  27   2.0000      -0.900641       -24.5077
  28   2.0000      -0.870838       -23.6967
  29   2.0000      -0.845593       -23.0098
  30   2.0000      -0.844447       -22.9786
  31   2.0000      -0.817011       -22.2320
  32   2.0000      -0.782067       -21.2811
  33   2.0000      -0.770065       -20.9545
  34   2.0000      -0.703824       -19.1520
  35   2.0000      -0.694188       -18.8898
  36   2.0000      -0.686309       -18.6754
  37   2.0000      -0.665513       -18.1095
  38   2.0000      -0.653351       -17.7786
  39   2.0000      -0.622594       -16.9416
  40   2.0000      -0.599760       -16.3203
  41   2.0000      -0.578542       -15.7429
  42   2.0000      -0.560988       -15.2653
  43   2.0000      -0.558504       -15.1977
  44   2.0000      -0.524056       -14.2603
  45   2.0000      -0.521929       -14.2024
  46   2.0000      -0.514627       -14.0037
  47   2.0000      -0.513012       -13.9598
  48   2.0000      -0.506340       -13.7782
  49   2.0000      -0.502142       -13.6640
  50   2.0000      -0.489961       -13.3325
  51   2.0000      -0.479655       -13.0521
  52   2.0000      -0.470015       -12.7898
  53   2.0000      -0.466157       -12.6848
  54   2.0000      -0.453626       -12.3438
  55   2.0000      -0.446788       -12.1577
  56   2.0000      -0.442259       -12.0345
  57   2.0000      -0.430765       -11.7217
  58   2.0000      -0.427845       -11.6422
  59   2.0000      -0.426273       -11.5995
  60   2.0000      -0.422298       -11.4913
  61   2.0000      -0.417284       -11.3549
  62   2.0000      -0.410462       -11.1692
  63   2.0000      -0.338526        -9.2118
  64   2.0000      -0.332227        -9.0404
  65   2.0000      -0.323928        -8.8145
  66   2.0000      -0.306266        -8.3339
  67   0.0000       0.037211         1.0126
  68   0.0000       0.058881         1.6022
  69   0.0000       0.112784         3.0690
  70   0.0000       0.120967         3.2917
  71   0.0000       0.132252         3.5988

MULLIKEN ATOMIC CHARGES
-----------------------
   0 S :    0.102141
   1 C :   -0.121890
   2 C :   -0.030557
   3 C :    0.069963
   4 C :   -0.192916
   5 H :    0.000157
   6 C :    0.064419
   7 H :    0.023744
   8 H :    0.004281
   9 C :   -0.099316
  10 H :    0.038337
  11 H :    0.028483
  12 C :   -0.079976
  13 H :    0.045098
  14 H :    0.029143
  15 H :    0.042522
  16 S :    0.139873
  17 C :   -0.106762
  18 C :   -0.030051
  19 C :    0.006544
  20 C :   -0.162082
  21 H :    0.004039
  22 C :    0.024848
  23 H :    0.028927
  24 H :    0.038991
  25 C :   -0.092859
  26 H :    0.033766
  27 H :    0.022420
  28 C :   -0.043084
  29 H :    0.037612
  30 H :    0.026428
  31 H :    0.027480
  32 H :    0.051133
  33 H :    0.069142
Sum of atomic charges:    0.0000000

LOEWDIN ATOMIC CHARGES
----------------------
   0 S :    0.391767
   1 C :   -0.172092
   2 C :   -0.061725
   3 C :   -0.053714
   4 C :   -0.192045
   5 H :    0.027682
   6 C :   -0.036959
   7 H :    0.032333
   8 H :    0.027222
   9 C :   -0.038671
  10 H :    0.024004
  11 H :    0.022258
  12 C :   -0.076467
  13 H :    0.028373
  14 H :    0.026968
  15 H :    0.028089
  16 S :    0.478629
  17 C :   -0.210052
  18 C :   -0.065976
  19 C :   -0.054804
  20 C :   -0.247634
  21 H :    0.023524
  22 C :   -0.043576
  23 H :    0.032669
  24 H :    0.037701
  25 C :   -0.039907
  26 H :    0.022331
  27 H :    0.017881
  28 C :   -0.071781
  29 H :    0.023696
  30 H :    0.026129
  31 H :    0.028263
  32 H :    0.027240
  33 H :    0.038646

  Mayer bond orders larger than 0.100000
B(  0-S ,  1-C ) :   1.1476 B(  0-S ,  4-C ) :   1.1523 B(  1-C ,  2-C ) :   1.5910
B(  1-C ,  4-C ) :   0.1106 B(  1-C , 32-H ) :   0.9723 B(  2-C ,  3-C ) :   1.2321
B(  2-C ,  6-C ) :   1.0293 B(  3-C ,  4-C ) :   1.5960 B(  3-C ,  5-H ) :   1.0032
B(  4-C , 20-C ) :   0.9837 B(  6-C ,  7-H ) :   0.9434 B(  6-C ,  8-H ) :   0.9465
B(  6-C ,  9-C ) :   1.0456 B(  9-C , 10-H ) :   0.9577 B(  9-C , 11-H ) :   0.9582
B(  9-C , 12-C ) :   1.0848 B( 12-C , 13-H ) :   0.9741 B( 12-C , 14-H ) :   0.9706
B( 12-C , 15-H ) :   0.9746 B( 16-S , 17-C ) :   1.1905 B( 16-S , 20-C ) :   1.2031
B( 17-C , 18-C ) :   1.5467 B( 17-C , 20-C ) :   0.1024 B( 17-C , 33-H ) :   0.9697
B( 18-C , 19-C ) :   1.2911 B( 18-C , 21-H ) :   0.9998 B( 19-C , 20-C ) :   1.5223
B( 19-C , 22-C ) :   1.0627 B( 22-C , 23-H ) :   0.9362 B( 22-C , 24-H ) :   0.9359
B( 22-C , 25-C ) :   1.0521 B( 25-C , 26-H ) :   0.9566 B( 25-C , 27-H ) :   0.9563
B( 25-C , 28-C ) :   1.0780 B( 28-C , 29-H ) :   0.9762 B( 28-C , 30-H ) :   0.9734
B( 28-C , 31-H ) :   0.9726

Dispersion correction           -0.014175651
FINAL SINGLE POINT ENERGY     -1339.877771319333

DIPOLE MOMENT
-------------
                                X             Y             Z
Electronic contribution:      0.78120     -10.33944     -27.95740
Nuclear contribution   :     -0.76814      10.62141      28.35780
                        -----------------------------------------
Total Dipole Moment    :      0.01306       0.28197       0.40040
                        -----------------------------------------
Magnitude (a.u.)       :      0.48990
Magnitude (Debye)      :      1.24522

Rotational constants in cm-1:     0.019118     0.008198     0.006794
Rotational constants in MHz :   573.145829   245.760848   203.692370

                             ****ORCA TERMINATED NORMALLY****
TOTAL RUN TIME: 0 days 0 hours 0 minutes 33 seconds 893 msec
