                         Program Version 4.2.1 -  RELEASE  -
|  1> ! wB97X-D3 SP def2-SVP
|  2> %pal
|  3> nprocs 16
|  4> end
|  5>
|  6> * xyz 0 1
|  7> S 	 6.79999 	 -6.51606 	 85.2181
|  8> C 	 6.85337 	 -4.76057 	 85.2505
|  9> C 	 6.18821 	 -4.1543 	 86.3062
| 10> C 	 5.22891 	 -5.06485 	 86.8658
| 11> C 	 5.44908 	 -6.33166 	 86.3826
| 12> H 	 4.4315 	 -4.86521 	 87.563
| 13> C 	 6.2229 	 -2.66117 	 86.5939
| 14> H 	 5.23918 	 -2.20204 	 86.6284
| 15> H 	 6.63575 	 -2.25388 	 85.668
| 16> C 	 6.86204 	 -2.20987 	 87.9018
| 17> H 	 6.54644 	 -1.18786 	 88.1771
| 18> H 	 6.4017 	 -2.70681 	 88.762
| 19> C 	 8.38115 	 -2.35033 	 88.0708
| 20> H 	 8.80111 	 -1.94339 	 89.0273
| 21> H 	 8.45515 	 -3.4346 	 88.0198
| 22> H 	 8.94884 	 -1.99385 	 87.2185
| 23> S 	 3.38483 	 -8.04434 	 85.6539
| 24> C 	 2.86417 	 -9.29837 	 86.7284
| 25> C 	 3.52416 	 -9.21525 	 87.9426
| 26> C 	 4.51554 	 -8.18446 	 87.9364
| 27> C 	 4.62196 	 -7.50069 	 86.7567
| 28> H 	 3.2713 	 -9.98086 	 88.6576
| 29> C 	 5.31516 	 -7.97414 	 89.1932
| 30> H 	 6.33095 	 -7.56435 	 88.8538
| 31> H 	 5.41279 	 -8.89287 	 89.7725
| 32> C 	 4.76514 	 -6.84006 	 90.1267
| 33> H 	 3.71522 	 -6.95139 	 90.3938
| 34> H 	 4.91518 	 -5.99206 	 89.4759
| 35> C 	 5.60392 	 -6.85206 	 91.4228
| 36> H 	 6.59156 	 -7.09133 	 91.1098
| 37> H 	 5.26116 	 -7.54321 	 92.1419
| 38> H 	 5.55203 	 -5.82354 	 91.898
| 39> H 	 7.63385 	 -4.27949 	 84.7255
| 40> H 	 1.90191 	 -9.84439 	 86.5986
| 41> *
| 42>
| 43>                          ****END OF INPUT****

CARTESIAN COORDINATES (ANGSTROEM)
---------------------------------
  S      6.799990   -6.516060   85.218100
  C      6.853370   -4.760570   85.250500
  C      6.188210   -4.154300   86.306200
  C      5.228910   -5.064850   86.865800
  C      5.449080   -6.331660   86.382600
  H      4.431500   -4.865210   87.563000
  C      6.222900   -2.661170   86.593900
  H      5.239180   -2.202040   86.628400
  H      6.635750   -2.253880   85.668000
  C      6.862040   -2.209870   87.901800
  H      6.546440   -1.187860   88.177100
  H      6.401700   -2.706810   88.762000
  C      8.381150   -2.350330   88.070800
  H      8.801110   -1.943390   89.027300
  H      8.455150   -3.434600   88.019800
  H      8.948840   -1.993850   87.218500
  S      3.384830   -8.044340   85.653900
  C      2.864170   -9.298370   86.728400
  C      3.524160   -9.215250   87.942600
  C      4.515540   -8.184460   87.936400
  C      4.621960   -7.500690   86.756700
  H      3.271300   -9.980860   88.657600
  C      5.315160   -7.974140   89.193200
  H      6.330950   -7.564350   88.853800
  H      5.412790   -8.892870   89.772500
  C      4.765140   -6.840060   90.126700
  H      3.715220   -6.951390   90.393800
  H      4.915180   -5.992060   89.475900
  C      5.603920   -6.852060   91.422800
  H      6.591560   -7.091330   91.109800
  H      5.261160   -7.543210   92.141900
  H      5.552030   -5.823540   91.898000
  H      7.633850   -4.279490   84.725500
  H      1.901910   -9.844390   86.598600

 Total Charge           Charge          ....    0
 Multiplicity           Mult            ....    1
 Number of Electrons    NEL             ....  134
 Basis Dimension        Dim             ....  322

ORBITAL ENERGIES
----------------

  NO   OCC          E(Eh)            E(eV)
   0   2.0000     -88.971905     -2421.0486
   1   2.0000     -88.960151     -2420.7288
   2   2.0000     -10.333574      -281.1909
   3   2.0000     -10.320289      -280.8294
   4   2.0000     -10.315488      -280.6987
   5   2.0000     -10.314772      -280.6792
   6   2.0000     -10.307058      -280.4693
   7   2.0000     -10.299686      -280.2687
   8   2.0000     -10.298855      -280.2461
   9   2.0000     -10.296253      -280.1753
  10   2.0000     -10.292592      -280.0757
  11   2.0000     -10.290406      -280.0162
  12   2.0000     -10.289746      -279.9982
  13   2.0000     -10.283750      -279.8351
  14   2.0000     -10.278408      -279.6897
  15   2.0000     -10.275354      -279.6066
  16   2.0000      -8.086047      -220.0325
  17   2.0000      -8.075603      -219.7483
  18   2.0000      -6.044337      -164.4748
  19   2.0000      -6.041099      -164.3867
  20   2.0000      -6.036595      -164.2641
  21   2.0000      -6.034057      -164.1950
  22   2.0000      -6.029922      -164.0825
  23   2.0000      -6.026460      -163.9883
  24   2.0000      -1.006393       -27.3853
  25   2.0000      -0.985417       -26.8145
  26   2.0000      -0.911491       -24.8029
  27   2.0000      -0.906425       -24.6651
  28   2.0000      -0.866816       -23.5873
  29   2.0000      -0.853793       -23.2329
  30   2.0000      -0.848189       -23.0804
  31   2.0000      -0.815979       -22.2039
  32   2.0000      -0.783036       -21.3075
  33   2.0000      -0.767374       -20.8813
  34   2.0000      -0.706296       -19.2193
  35   2.0000      -0.697552       -18.9814
  36   2.0000      -0.688277       -18.7290
  37   2.0000      -0.659595       -17.9485
  38   2.0000      -0.648160       -17.6373
  39   2.0000      -0.620330       -16.8800
  40   2.0000      -0.592457       -16.1216
  41   2.0000      -0.569767       -15.5042
  42   2.0000      -0.566633       -15.4189
  43   2.0000      -0.551292       -15.0014
  44   2.0000      -0.536422       -14.5968
  45   2.0000      -0.523150       -14.2356
  46   2.0000      -0.519773       -14.1438
  47   2.0000      -0.511579       -13.9208
  48   2.0000      -0.506175       -13.7737
  49   2.0000      -0.493378       -13.4255
  50   2.0000      -0.488379       -13.2895
  51   2.0000      -0.475682       -12.9440
  52   2.0000      -0.468862       -12.7584
  53   2.0000      -0.465560       -12.6685
  54   2.0000      -0.456740       -12.4285
  55   2.0000      -0.455481       -12.3943
  56   2.0000      -0.450276       -12.2526
  57   2.0000      -0.441535       -12.0148
  58   2.0000      -0.430753       -11.7214
  59   2.0000      -0.425263       -11.5720
  60   2.0000      -0.421701       -11.4751
  61   2.0000      -0.407928       -11.1003
  62   2.0000      -0.406828       -11.0704
  63   2.0000      -0.343466        -9.3462
  64   2.0000      -0.327338        -8.9073
  65   2.0000      -0.322487        -8.7753
  66   2.0000      -0.308187        -8.3862
  67   0.0000       0.036457         0.9921
  68   0.0000       0.057578         1.5668
  69   0.0000       0.099213         2.6997
  70   0.0000       0.117675         3.2021
  71   0.0000       0.129546         3.5251

MULLIKEN ATOMIC CHARGES
-----------------------
   0 S :    0.121611
   1 C :   -0.096328
   2 C :   -0.087797
   3 C :    0.051209
   4 C :   -0.183066
   5 H :    0.034948
   6 C :    0.074135
   7 H :    0.029671
   8 H :    0.019061
   9 C :   -0.079324
  10 H :    0.018390
  11 H :    0.018691
  12 C :   -0.049729
  13 H :    0.049625
  14 H :    0.030387
  15 H :    0.027491
  16 S :    0.105285
  17 C :   -0.112517
  18 C :   -0.048446
  19 C :    0.002390
  20 C :   -0.175681
  21 H :    0.021426
  22 C :    0.009187
  23 H :    0.041422
  24 H :    0.025903
  25 C :   -0.074869
  26 H :    0.030229
  27 H :    0.012478
  28 C :   -0.018727
  29 H :    0.021910
  30 H :    0.030509
  31 H :    0.039449
  32 H :    0.035491
  33 H :    0.075585
Sum of atomic charges:    0.0000000

LOEWDIN ATOMIC CHARGES
----------------------
   0 S :    0.387846
   1 C :   -0.182101
   2 C :   -0.059340
   3 C :   -0.047271
   4 C :   -0.176453
   5 H :    0.035582
   6 C :   -0.032330
   7 H :    0.037174
   8 H :    0.032480
   9 C :   -0.048998
  10 H :    0.021506
  11 H :    0.025317
  12 C :   -0.070601
  13 H :    0.033721
  14 H :    0.027303
  15 H :    0.021132
  16 S :    0.413230
  17 C :   -0.197455
  18 C :   -0.076174
  19 C :   -0.059468
  20 C :   -0.214944
  21 H :    0.032755
  22 C :   -0.034291
  23 H :    0.038280
  24 H :    0.025200
  25 C :   -0.036064
  26 H :    0.020334
  27 H :    0.017664
  28 C :   -0.059468
  29 H :    0.019549
  30 H :    0.019763
  31 H :    0.034072
  32 H :    0.013220
  33 H :    0.038832

  Mayer bond orders larger than 0.100000
B(  0-S ,  1-C ) :   1.1326 B(  0-S ,  4-C ) :   1.1364 B(  1-C ,  2-C ) :   1.6435
B(  1-C , 32-H ) :   0.9625 B(  2-C ,  3-C ) :   1.1835 B(  2-C ,  6-C ) :   1.0272
B(  3-C ,  4-C ) :   1.6351 B(  3-C ,  5-H ) :   0.9810 B(  4-C , 20-C ) :   1.0061
B(  6-C ,  7-H ) :   0.9401 B(  6-C ,  8-H ) :   0.9447 B(  6-C ,  9-C ) :   1.0635
B(  9-C , 10-H ) :   0.9546 B(  9-C , 11-H ) :   0.9538 B(  9-C , 12-C ) :   1.0644
B( 12-C , 13-H ) :   0.9741 B( 12-C , 14-H ) :   0.9777 B( 12-C , 15-H ) :   0.9771
B( 16-S , 17-C ) :   1.1716 B( 16-S , 20-C ) :   1.1426 B( 17-C , 18-C ) :   1.6099
B( 17-C , 33-H ) :   0.9570 B( 18-C , 19-C ) :   1.2302 B( 18-C , 21-H ) :   0.9958
B( 19-C , 20-C ) :   1.6113 B( 19-C , 22-C ) :   1.0562 B( 22-C , 23-H ) :   0.9264
B( 22-C , 24-H ) :   0.9451 B( 22-C , 25-C ) :   1.0565 B( 25-C , 26-H ) :   0.9599
B( 25-C , 27-H ) :   0.9520 B( 25-C , 28-C ) :   1.0785 B( 28-C , 29-H ) :   0.9712
B( 28-C , 30-H ) :   0.9766 B( 28-C , 31-H ) :   0.9733

Dispersion correction           -0.014736556
FINAL SINGLE POINT ENERGY     -1339.867773424145

DIPOLE MOMENT
-------------
                                X             Y             Z
Electronic contribution:     -8.48295     -16.46942     -23.59163
Nuclear contribution   :      8.40050      16.81096      24.15322
                        -----------------------------------------
Total Dipole Moment    :     -0.08245       0.34154       0.56160
                        -----------------------------------------
Magnitude (a.u.)       :      0.66245
Magnitude (Debye)      :      1.68381

Rotational constants in cm-1:     0.018082     0.009382     0.006986
Rotational constants in MHz :   542.091188   281.250984   209.423504

                             ****ORCA TERMINATED NORMALLY****
TOTAL RUN TIME: 0 days 0 hours 0 minutes 34 seconds 355 msec
