                         Program Version 4.2.1 -  RELEASE  -
|  1> ! wB97X-D3 SP def2-SVP
|  2> %pal
|  3> nprocs 16
|  4> end
|  5>
|  6> * xyz 0 1
|  7> S 	 -81.1244 	 31.7507 	 134.17
|  8> C 	 -79.5305 	 31.7548 	 134.85
|  9> C 	 -78.9929 	 33.0287 	 135.038
| 10> C 	 -79.9353 	 33.9895 	 134.518
| 11> C 	 -81.1848 	 33.5252 	 134.127
| 12> H 	 -79.7779 	 35.0057 	 134.397
| 13> C 	 -77.5575 	 33.3271 	 135.388
| 14> H 	 -77.0225 	 33.9814 	 134.729
| 15> H 	 -77.0108 	 32.4526 	 135.34
| 16> C 	 -77.4136 	 33.8948 	 136.828
| 17> H 	 -77.6297 	 33.1321 	 137.534
| 18> H 	 -76.3949 	 34.0101 	 136.959
| 19> C 	 -78.2402 	 35.1727 	 137.088
| 20> H 	 -79.2896 	 35.0715 	 136.962
| 21> H 	 -77.9649 	 35.6232 	 138.027
| 22> H 	 -77.8482 	 35.9395 	 136.42
| 23> S 	 -82.7565 	 33.9454 	 131.87
| 24> C 	 -83.374 	 35.4996 	 131.679
| 25> C 	 -83.4753 	 36.1569 	 132.85
| 26> C 	 -82.762 	 35.5143 	 133.947
| 27> C 	 -82.2379 	 34.2718 	 133.545
| 28> H 	 -84.0522 	 37.0668 	 132.891
| 29> C 	 -82.5067 	 36.3381 	 135.136
| 30> H 	 -82.2389 	 37.3888 	 134.844
| 31> H 	 -81.6646 	 35.8491 	 135.699
| 32> C 	 -83.6483 	 36.4458 	 136.168
| 33> H 	 -83.1788 	 36.5885 	 137.126
| 34> H 	 -84.1817 	 35.4927 	 136.264
| 35> C 	 -84.6201 	 37.5379 	 135.904
| 36> H 	 -85.1091 	 37.5957 	 134.932
| 37> H 	 -84.0273 	 38.4058 	 135.976
| 38> H 	 -85.3529 	 37.6525 	 136.703
| 39> H 	 -78.9351 	 30.8615 	 134.951
| 40> H 	 -83.9942 	 35.7425 	 130.825
| 41> *
| 42>
| 43>                          ****END OF INPUT****

CARTESIAN COORDINATES (ANGSTROEM)
---------------------------------
  S    -81.124400   31.750700  134.170000
  C    -79.530500   31.754800  134.850000
  C    -78.992900   33.028700  135.038000
  C    -79.935300   33.989500  134.518000
  C    -81.184800   33.525200  134.127000
  H    -79.777900   35.005700  134.397000
  C    -77.557500   33.327100  135.388000
  H    -77.022500   33.981400  134.729000
  H    -77.010800   32.452600  135.340000
  C    -77.413600   33.894800  136.828000
  H    -77.629700   33.132100  137.534000
  H    -76.394900   34.010100  136.959000
  C    -78.240200   35.172700  137.088000
  H    -79.289600   35.071500  136.962000
  H    -77.964900   35.623200  138.027000
  H    -77.848200   35.939500  136.420000
  S    -82.756500   33.945400  131.870000
  C    -83.374000   35.499600  131.679000
  C    -83.475300   36.156900  132.850000
  C    -82.762000   35.514300  133.947000
  C    -82.237900   34.271800  133.545000
  H    -84.052200   37.066800  132.891000
  C    -82.506700   36.338100  135.136000
  H    -82.238900   37.388800  134.844000
  H    -81.664600   35.849100  135.699000
  C    -83.648300   36.445800  136.168000
  H    -83.178800   36.588500  137.126000
  H    -84.181700   35.492700  136.264000
  C    -84.620100   37.537900  135.904000
  H    -85.109100   37.595700  134.932000
  H    -84.027300   38.405800  135.976000
  H    -85.352900   37.652500  136.703000
  H    -78.935100   30.861500  134.951000
  H    -83.994200   35.742500  130.825000

 Total Charge           Charge          ....    0
 Multiplicity           Mult            ....    1
 Number of Electrons    NEL             ....  134
 Basis Dimension        Dim             ....  322

ORBITAL ENERGIES
----------------

  NO   OCC          E(Eh)            E(eV)
   0   2.0000     -88.963710     -2420.8256
   1   2.0000     -88.960690     -2420.7434
   2   2.0000     -10.327900      -281.0365
   3   2.0000     -10.326197      -280.9901
   4   2.0000     -10.314413      -280.6694
   5   2.0000     -10.309810      -280.5442
   6   2.0000     -10.306374      -280.4507
   7   2.0000     -10.302706      -280.3509
   8   2.0000     -10.294428      -280.1256
   9   2.0000     -10.289789      -279.9994
  10   2.0000     -10.289167      -279.9825
  11   2.0000     -10.285579      -279.8848
  12   2.0000     -10.281416      -279.7715
  13   2.0000     -10.277432      -279.6631
  14   2.0000     -10.273783      -279.5639
  15   2.0000     -10.270994      -279.4879
  16   2.0000      -8.078426      -219.8252
  17   2.0000      -8.076756      -219.7797
  18   2.0000      -6.036928      -164.2732
  19   2.0000      -6.035291      -164.2286
  20   2.0000      -6.032945      -164.1648
  21   2.0000      -6.031139      -164.1156
  22   2.0000      -6.029206      -164.0630
  23   2.0000      -6.027315      -164.0116
  24   2.0000      -1.008097       -27.4317
  25   2.0000      -0.984672       -26.7943
  26   2.0000      -0.917820       -24.9751
  27   2.0000      -0.913574       -24.8596
  28   2.0000      -0.876179       -23.8420
  29   2.0000      -0.855308       -23.2741
  30   2.0000      -0.842340       -22.9212
  31   2.0000      -0.816794       -22.2261
  32   2.0000      -0.790522       -21.5112
  33   2.0000      -0.775258       -21.0958
  34   2.0000      -0.712981       -19.4012
  35   2.0000      -0.705809       -19.2060
  36   2.0000      -0.691327       -18.8120
  37   2.0000      -0.661509       -18.0006
  38   2.0000      -0.644372       -17.5343
  39   2.0000      -0.619258       -16.8509
  40   2.0000      -0.600569       -16.3423
  41   2.0000      -0.578712       -15.7475
  42   2.0000      -0.556676       -15.1479
  43   2.0000      -0.546839       -14.8802
  44   2.0000      -0.545982       -14.8569
  45   2.0000      -0.543674       -14.7941
  46   2.0000      -0.522332       -14.2134
  47   2.0000      -0.508576       -13.8391
  48   2.0000      -0.504238       -13.7210
  49   2.0000      -0.501928       -13.6581
  50   2.0000      -0.488344       -13.2885
  51   2.0000      -0.486427       -13.2363
  52   2.0000      -0.476905       -12.9773
  53   2.0000      -0.474186       -12.9032
  54   2.0000      -0.459173       -12.4947
  55   2.0000      -0.443224       -12.0607
  56   2.0000      -0.439909       -11.9705
  57   2.0000      -0.437473       -11.9042
  58   2.0000      -0.428396       -11.6573
  59   2.0000      -0.426573       -11.6076
  60   2.0000      -0.424582       -11.5535
  61   2.0000      -0.419099       -11.4043
  62   2.0000      -0.413816       -11.2605
  63   2.0000      -0.349393        -9.5075
  64   2.0000      -0.327809        -8.9201
  65   2.0000      -0.323885        -8.8134
  66   2.0000      -0.290436        -7.9032
  67   0.0000       0.027343         0.7440
  68   0.0000       0.068779         1.8716
  69   0.0000       0.111696         3.0394
  70   0.0000       0.117559         3.1990
  71   0.0000       0.123604         3.3634

MULLIKEN ATOMIC CHARGES
-----------------------
   0 S :    0.103035
   1 C :   -0.111588
   2 C :   -0.081951
   3 C :    0.037276
   4 C :   -0.168879
   5 H :   -0.012199
   6 C :    0.100543
   7 H :    0.027803
   8 H :   -0.009704
   9 C :   -0.040907
  10 H :    0.015136
  11 H :    0.003272
  12 C :   -0.038419
  13 H :    0.055021
  14 H :    0.025135
  15 H :    0.015848
  16 S :    0.102516
  17 C :   -0.077112
  18 C :   -0.052394
  19 C :   -0.015841
  20 C :   -0.128265
  21 H :    0.017120
  22 C :   -0.000690
  23 H :    0.040050
  24 H :    0.032668
  25 C :   -0.041366
  26 H :    0.021827
  27 H :    0.028353
  28 C :   -0.022861
  29 H :    0.033919
  30 H :    0.001829
  31 H :    0.032311
  32 H :    0.047870
  33 H :    0.060644
Sum of atomic charges:    0.0000000

LOEWDIN ATOMIC CHARGES
----------------------
   0 S :    0.396951
   1 C :   -0.192159
   2 C :   -0.061627
   3 C :   -0.046179
   4 C :   -0.193870
   5 H :    0.016588
   6 C :   -0.020545
   7 H :    0.029954
   8 H :    0.020706
   9 C :   -0.027629
  10 H :    0.018136
  11 H :    0.013821
  12 C :   -0.062094
  13 H :    0.021935
  14 H :    0.026623
  15 H :    0.025626
  16 S :    0.412363
  17 C :   -0.198210
  18 C :   -0.075668
  19 C :   -0.043461
  20 C :   -0.197953
  21 H :    0.027891
  22 C :   -0.040609
  23 H :    0.036734
  24 H :    0.036812
  25 C :   -0.036418
  26 H :    0.025252
  27 H :    0.025242
  28 C :   -0.066234
  29 H :    0.024163
  30 H :    0.017886
  31 H :    0.029209
  32 H :    0.025640
  33 H :    0.031126

  Mayer bond orders larger than 0.100000
B(  0-S ,  1-C ) :   1.1610 B(  0-S ,  4-C ) :   1.1198 B(  1-C ,  2-C ) :   1.6044
B(  1-C , 32-H ) :   0.9630 B(  2-C ,  3-C ) :   1.2306 B(  2-C ,  6-C ) :   1.0294
B(  3-C ,  4-C ) :   1.5793 B(  3-C ,  5-H ) :   0.9995 B(  4-C , 20-C ) :   1.0746
B(  6-C ,  7-H ) :   0.9484 B(  6-C ,  8-H ) :   0.9284 B(  6-C ,  9-C ) :   1.0781
B(  9-C , 10-H ) :   0.9531 B(  9-C , 11-H ) :   0.9525 B(  9-C , 12-C ) :   1.0829
B( 12-C , 13-H ) :   0.9721 B( 12-C , 14-H ) :   0.9692 B( 12-C , 15-H ) :   0.9708
B( 16-S , 17-C ) :   1.1710 B( 16-S , 20-C ) :   1.1174 B( 17-C , 18-C ) :   1.6353
B( 17-C , 33-H ) :   0.9565 B( 18-C , 19-C ) :   1.2095 B( 18-C , 21-H ) :   0.9893
B( 19-C , 20-C ) :   1.5791 B( 19-C , 22-C ) :   1.0669 B( 22-C , 23-H ) :   0.9394
B( 22-C , 24-H ) :   0.9237 B( 22-C , 25-C ) :   1.0680 B( 25-C , 26-H ) :   0.9540
B( 25-C , 27-H ) :   0.9511 B( 25-C , 28-C ) :   1.0878 B( 28-C , 29-H ) :   0.9724
B( 28-C , 30-H ) :   0.9695 B( 28-C , 31-H ) :   0.9680

Dispersion correction           -0.014602144
FINAL SINGLE POINT ENERGY     -1339.863549492521

DIPOLE MOMENT
-------------
                                X             Y             Z
Electronic contribution:     -6.97791     -18.50266     -19.94908
Nuclear contribution   :      7.32617      19.09905      20.22343
                        -----------------------------------------
Total Dipole Moment    :      0.34827       0.59639       0.27435
                        -----------------------------------------
Magnitude (a.u.)       :      0.74313
Magnitude (Debye)      :      1.88888

Rotational constants in cm-1:     0.017770     0.009346     0.006922
Rotational constants in MHz :   532.722648   280.193910   207.517931

                             ****ORCA TERMINATED NORMALLY****
TOTAL RUN TIME: 0 days 0 hours 0 minutes 36 seconds 304 msec
