                         Program Version 4.2.1 -  RELEASE  -
|  1> ! wB97X-D3 SP def2-SVP
|  2> %pal
|  3> nprocs 16
|  4> end
|  5>
|  6> * xyz 0 1
|  7> S 	 16.8939 	 20.0271 	 40.1376
|  8> C 	 17.7385 	 20.2468 	 38.5866
|  9> C 	 17.4834 	 19.1663 	 37.7671
| 10> C 	 16.6189 	 18.1932 	 38.3643
| 11> C 	 16.1517 	 18.5298 	 39.6316
| 12> H 	 16.2017 	 17.2873 	 37.8736
| 13> C 	 18.0332 	 19.051 	 36.3593
| 14> H 	 18.779 	 18.299 	 36.4605
| 15> H 	 18.4755 	 20.0321 	 36.0831
| 16> C 	 17.0297 	 18.6065 	 35.3593
| 17> H 	 17.4898 	 18.3244 	 34.3983
| 18> H 	 16.5838 	 17.6951 	 35.6525
| 19> C 	 15.9107 	 19.6402 	 35.0494
| 20> H 	 16.2913 	 20.5877 	 34.7189
| 21> H 	 15.1677 	 19.3356 	 34.2752
| 22> H 	 15.4229 	 19.7384 	 35.9968
| 23> S 	 15.2707 	 17.177 	 41.7603
| 24> C 	 13.5437 	 17.0179 	 42.0367
| 25> C 	 12.9127 	 17.102 	 40.8149
| 26> C 	 13.7016 	 17.6753 	 39.7626
| 27> C 	 14.9883 	 17.9994 	 40.2875
| 28> H 	 11.8857 	 16.7792 	 40.5598
| 29> C 	 13.2441 	 17.9938 	 38.4177
| 30> H 	 12.824 	 17.0434 	 38.0904
| 31> H 	 14.0975 	 18.1833 	 37.7186
| 32> C 	 12.2386 	 19.2259 	 38.3208
| 33> H 	 11.2464 	 18.9198 	 38.5491
| 34> H 	 12.3203 	 19.4327 	 37.2958
| 35> C 	 12.5543 	 20.5447 	 39.0741
| 36> H 	 12.5645 	 20.3781 	 40.1541
| 37> H 	 11.8114 	 21.3352 	 38.8168
| 38> H 	 13.4629 	 21.063 	 38.8353
| 39> H 	 18.3401 	 21.1096 	 38.2794
| 40> H 	 13.124 	 16.4572 	 42.8689
| 41> *
| 42>
| 43>                          ****END OF INPUT****

CARTESIAN COORDINATES (ANGSTROEM)
---------------------------------
  S     16.893900   20.027100   40.137600
  C     17.738500   20.246800   38.586600
  C     17.483400   19.166300   37.767100
  C     16.618900   18.193200   38.364300
  C     16.151700   18.529800   39.631600
  H     16.201700   17.287300   37.873600
  C     18.033200   19.051000   36.359300
  H     18.779000   18.299000   36.460500
  H     18.475500   20.032100   36.083100
  C     17.029700   18.606500   35.359300
  H     17.489800   18.324400   34.398300
  H     16.583800   17.695100   35.652500
  C     15.910700   19.640200   35.049400
  H     16.291300   20.587700   34.718900
  H     15.167700   19.335600   34.275200
  H     15.422900   19.738400   35.996800
  S     15.270700   17.177000   41.760300
  C     13.543700   17.017900   42.036700
  C     12.912700   17.102000   40.814900
  C     13.701600   17.675300   39.762600
  C     14.988300   17.999400   40.287500
  H     11.885700   16.779200   40.559800
  C     13.244100   17.993800   38.417700
  H     12.824000   17.043400   38.090400
  H     14.097500   18.183300   37.718600
  C     12.238600   19.225900   38.320800
  H     11.246400   18.919800   38.549100
  H     12.320300   19.432700   37.295800
  C     12.554300   20.544700   39.074100
  H     12.564500   20.378100   40.154100
  H     11.811400   21.335200   38.816800
  H     13.462900   21.063000   38.835300
  H     18.340100   21.109600   38.279400
  H     13.124000   16.457200   42.868900

 Total Charge           Charge          ....    0
 Multiplicity           Mult            ....    1
 Number of Electrons    NEL             ....  134
 Basis Dimension        Dim             ....  322

ORBITAL ENERGIES
----------------

  NO   OCC          E(Eh)            E(eV)
   0   2.0000     -88.964368     -2420.8435
   1   2.0000     -88.962159     -2420.7834
   2   2.0000     -10.326898      -281.0092
   3   2.0000     -10.321656      -280.8665
   4   2.0000     -10.317738      -280.7599
   5   2.0000     -10.316345      -280.7220
   6   2.0000     -10.302258      -280.3387
   7   2.0000     -10.302025      -280.3323
   8   2.0000     -10.298673      -280.2411
   9   2.0000     -10.298061      -280.2245
  10   2.0000     -10.293965      -280.1130
  11   2.0000     -10.291870      -280.0560
  12   2.0000     -10.284567      -279.8573
  13   2.0000     -10.283782      -279.8359
  14   2.0000     -10.276944      -279.6499
  15   2.0000     -10.274827      -279.5923
  16   2.0000      -8.078667      -219.8317
  17   2.0000      -8.077728      -219.8062
  18   2.0000      -6.037246      -164.2818
  19   2.0000      -6.036104      -164.2507
  20   2.0000      -6.033070      -164.1682
  21   2.0000      -6.032431      -164.1508
  22   2.0000      -6.029506      -164.0712
  23   2.0000      -6.028255      -164.0372
  24   2.0000      -1.009116       -27.4595
  25   2.0000      -0.984399       -26.7868
  26   2.0000      -0.920257       -25.0415
  27   2.0000      -0.906497       -24.6670
  28   2.0000      -0.871350       -23.7106
  29   2.0000      -0.847098       -23.0507
  30   2.0000      -0.840666       -22.8757
  31   2.0000      -0.813803       -22.1447
  32   2.0000      -0.786646       -21.4057
  33   2.0000      -0.773212       -21.0402
  34   2.0000      -0.714694       -19.4478
  35   2.0000      -0.701299       -19.0833
  36   2.0000      -0.692458       -18.8427
  37   2.0000      -0.657585       -17.8938
  38   2.0000      -0.637933       -17.3590
  39   2.0000      -0.620565       -16.8864
  40   2.0000      -0.594675       -16.1819
  41   2.0000      -0.567056       -15.4304
  42   2.0000      -0.561601       -15.2820
  43   2.0000      -0.551409       -15.0046
  44   2.0000      -0.543207       -14.7814
  45   2.0000      -0.537557       -14.6277
  46   2.0000      -0.520926       -14.1751
  47   2.0000      -0.509298       -13.8587
  48   2.0000      -0.499244       -13.5851
  49   2.0000      -0.495395       -13.4804
  50   2.0000      -0.487572       -13.2675
  51   2.0000      -0.481373       -13.0988
  52   2.0000      -0.469285       -12.7699
  53   2.0000      -0.466624       -12.6975
  54   2.0000      -0.461945       -12.5702
  55   2.0000      -0.448875       -12.2145
  56   2.0000      -0.444326       -12.0907
  57   2.0000      -0.434930       -11.8351
  58   2.0000      -0.434311       -11.8182
  59   2.0000      -0.432030       -11.7561
  60   2.0000      -0.422313       -11.4917
  61   2.0000      -0.415200       -11.2982
  62   2.0000      -0.406466       -11.0605
  63   2.0000      -0.336572        -9.1586
  64   2.0000      -0.330465        -8.9924
  65   2.0000      -0.322505        -8.7758
  66   2.0000      -0.295556        -8.0425
  67   0.0000       0.025211         0.6860
  68   0.0000       0.059886         1.6296
  69   0.0000       0.098127         2.6702
  70   0.0000       0.125683         3.4200
  71   0.0000       0.130670         3.5557

MULLIKEN ATOMIC CHARGES
-----------------------
   0 S :    0.110209
   1 C :   -0.133985
   2 C :   -0.126145
   3 C :    0.014984
   4 C :   -0.155131
   5 H :    0.032546
   6 C :    0.127381
   7 H :    0.035299
   8 H :    0.020206
   9 C :   -0.078170
  10 H :    0.022281
  11 H :    0.010252
  12 C :   -0.050215
  13 H :    0.023022
  14 H :    0.040345
  15 H :    0.035387
  16 S :    0.107658
  17 C :   -0.071295
  18 C :   -0.050778
  19 C :   -0.046478
  20 C :   -0.173847
  21 H :    0.023818
  22 C :    0.053658
  23 H :    0.029667
  24 H :    0.018758
  25 C :   -0.025087
  26 H :    0.024693
  27 H :    0.018324
  28 C :   -0.065646
  29 H :    0.046663
  30 H :    0.035414
  31 H :    0.027661
  32 H :    0.054992
  33 H :    0.063559
Sum of atomic charges:    0.0000000

LOEWDIN ATOMIC CHARGES
----------------------
   0 S :    0.401554
   1 C :   -0.195129
   2 C :   -0.067066
   3 C :   -0.069757
   4 C :   -0.204999
   5 H :    0.035228
   6 C :   -0.023930
   7 H :    0.035128
   8 H :    0.032279
   9 C :   -0.042179
  10 H :    0.024582
  11 H :    0.015172
  12 C :   -0.062160
  13 H :    0.020172
  14 H :    0.031110
  15 H :    0.021009
  16 S :    0.424084
  17 C :   -0.191413
  18 C :   -0.068414
  19 C :   -0.055852
  20 C :   -0.216499
  21 H :    0.033453
  22 C :   -0.039724
  23 H :    0.037735
  24 H :    0.033679
  25 C :   -0.026270
  26 H :    0.018767
  27 H :    0.019633
  28 C :   -0.069479
  29 H :    0.027890
  30 H :    0.033767
  31 H :    0.022563
  32 H :    0.034599
  33 H :    0.030470

  Mayer bond orders larger than 0.100000
B(  0-S ,  1-C ) :   1.1298 B(  0-S ,  4-C ) :   1.1572 B(  1-C ,  2-C ) :   1.6126
B(  1-C , 32-H ) :   0.9683 B(  2-C ,  3-C ) :   1.2321 B(  2-C ,  6-C ) :   1.0082
B(  3-C ,  4-C ) :   1.5693 B(  3-C ,  5-H ) :   0.9846 B(  4-C , 20-C ) :   1.0234
B(  6-C ,  7-H ) :   0.9270 B(  6-C ,  8-H ) :   0.9446 B(  6-C ,  9-C ) :   1.0883
B(  9-C , 10-H ) :   0.9504 B(  9-C , 11-H ) :   0.9499 B(  9-C , 12-C ) :   1.0672
B( 12-C , 13-H ) :   0.9738 B( 12-C , 14-H ) :   0.9759 B( 12-C , 15-H ) :   0.9760
B( 16-S , 17-C ) :   1.1454 B( 16-S , 20-C ) :   1.1846 B( 17-C , 18-C ) :   1.5752
B( 17-C , 20-C ) :   0.1063 B( 17-C , 33-H ) :   0.9694 B( 18-C , 19-C ) :   1.2649
B( 18-C , 21-H ) :   0.9824 B( 19-C , 20-C ) :   1.5190 B( 19-C , 22-C ) :   1.0670
B( 22-C , 23-H ) :   0.9219 B( 22-C , 24-H ) :   0.9288 B( 22-C , 25-C ) :   1.0537
B( 25-C , 26-H ) :   0.9582 B( 25-C , 27-H ) :   0.9578 B( 25-C , 28-C ) :   1.0814
B( 28-C , 29-H ) :   0.9725 B( 28-C , 30-H ) :   0.9718 B( 28-C , 31-H ) :   0.9753

Dispersion correction           -0.016478245
FINAL SINGLE POINT ENERGY     -1339.865448548530

DIPOLE MOMENT
-------------
                                X             Y             Z
Electronic contribution:      9.58695      -5.95479      24.80961
Nuclear contribution   :     -9.86617       5.78062     -25.61776
                        -----------------------------------------
Total Dipole Moment    :     -0.27922      -0.17416      -0.80815
                        -----------------------------------------
Magnitude (a.u.)       :      0.87259
Magnitude (Debye)      :      2.21794

Rotational constants in cm-1:     0.019367     0.010167     0.008279
Rotational constants in MHz :   580.604677   304.813700   248.201681

                             ****ORCA TERMINATED NORMALLY****
TOTAL RUN TIME: 0 days 0 hours 0 minutes 38 seconds 309 msec
