                         Program Version 4.2.1 -  RELEASE  -
|  1> ! wB97X-D3 SP def2-SVP
|  2> %pal
|  3> nprocs 16
|  4> end
|  5>
|  6> * xyz 0 1
|  7> S 	 39.4176 	 10.1804 	 79.5828
|  8> C 	 40.8299 	 9.68996 	 80.5704
|  9> C 	 41.3903 	 10.7985 	 81.1764
| 10> C 	 40.6542 	 12.0009 	 80.8446
| 11> C 	 39.7607 	 11.8953 	 79.7671
| 12> H 	 40.8775 	 12.9914 	 81.2412
| 13> C 	 42.4329 	 10.7952 	 82.2402
| 14> H 	 42.3297 	 9.82674 	 82.8481
| 15> H 	 42.2219 	 11.6917 	 82.7986
| 16> C 	 43.8672 	 11.0297 	 81.7128
| 17> H 	 44.478 	 10.8699 	 82.5718
| 18> H 	 44.0143 	 10.3409 	 80.8711
| 19> C 	 44.1042 	 12.3795 	 81.112
| 20> H 	 43.5287 	 13.1265 	 81.6258
| 21> H 	 45.2001 	 12.5992 	 81.1767
| 22> H 	 43.8681 	 12.4035 	 80.0617
| 23> S 	 37.254 	 12.9562 	 79.3176
| 24> C 	 37.2329 	 14.4469 	 78.5389
| 25> C 	 38.4439 	 15.1681 	 78.4516
| 26> C 	 39.4583 	 14.2516 	 78.7745
| 27> C 	 38.9989 	 13.0075 	 79.2789
| 28> H 	 38.4666 	 16.1715 	 77.9817
| 29> C 	 40.952 	 14.6488 	 78.639
| 30> H 	 41.589 	 13.9916 	 79.2635
| 31> H 	 41.0946 	 15.6417 	 79.0097
| 32> C 	 41.2471 	 14.6458 	 77.1328
| 33> H 	 42.0161 	 15.3661 	 76.8707
| 34> H 	 40.4419 	 14.9883 	 76.5521
| 35> C 	 41.6954 	 13.3055 	 76.5602
| 36> H 	 42.6485 	 12.933 	 76.9737
| 37> H 	 41.6275 	 13.339 	 75.4535
| 38> H 	 41.0044 	 12.5673 	 76.9196
| 39> H 	 41.1365 	 8.63587 	 80.6454
| 40> H 	 36.2732 	 14.8108 	 78.2522
| 41> *
| 42>
| 43>                          ****END OF INPUT****

CARTESIAN COORDINATES (ANGSTROEM)
---------------------------------
  S     39.417600   10.180400   79.582800
  C     40.829900    9.689960   80.570400
  C     41.390300   10.798500   81.176400
  C     40.654200   12.000900   80.844600
  C     39.760700   11.895300   79.767100
  H     40.877500   12.991400   81.241200
  C     42.432900   10.795200   82.240200
  H     42.329700    9.826740   82.848100
  H     42.221900   11.691700   82.798600
  C     43.867200   11.029700   81.712800
  H     44.478000   10.869900   82.571800
  H     44.014300   10.340900   80.871100
  C     44.104200   12.379500   81.112000
  H     43.528700   13.126500   81.625800
  H     45.200100   12.599200   81.176700
  H     43.868100   12.403500   80.061700
  S     37.254000   12.956200   79.317600
  C     37.232900   14.446900   78.538900
  C     38.443900   15.168100   78.451600
  C     39.458300   14.251600   78.774500
  C     38.998900   13.007500   79.278900
  H     38.466600   16.171500   77.981700
  C     40.952000   14.648800   78.639000
  H     41.589000   13.991600   79.263500
  H     41.094600   15.641700   79.009700
  C     41.247100   14.645800   77.132800
  H     42.016100   15.366100   76.870700
  H     40.441900   14.988300   76.552100
  C     41.695400   13.305500   76.560200
  H     42.648500   12.933000   76.973700
  H     41.627500   13.339000   75.453500
  H     41.004400   12.567300   76.919600
  H     41.136500    8.635870   80.645400
  H     36.273200   14.810800   78.252200

 Total Charge           Charge          ....    0
 Multiplicity           Mult            ....    1
 Number of Electrons    NEL             ....  134
 Basis Dimension        Dim             ....  322

ORBITAL ENERGIES
----------------

  NO   OCC          E(Eh)            E(eV)
   0   2.0000     -88.969172     -2420.9742
   1   2.0000     -88.963823     -2420.8287
   2   2.0000     -10.328833      -281.0618
   3   2.0000     -10.323005      -280.9033
   4   2.0000     -10.319586      -280.8102
   5   2.0000     -10.314791      -280.6797
   6   2.0000     -10.308005      -280.4951
   7   2.0000     -10.301170      -280.3091
   8   2.0000     -10.299703      -280.2692
   9   2.0000     -10.294984      -280.1407
  10   2.0000     -10.294398      -280.1248
  11   2.0000     -10.291142      -280.0362
  12   2.0000     -10.282327      -279.7963
  13   2.0000     -10.276325      -279.6330
  14   2.0000     -10.275308      -279.6054
  15   2.0000     -10.269766      -279.4545
  16   2.0000      -8.085441      -220.0160
  17   2.0000      -8.077760      -219.8070
  18   2.0000      -6.043473      -164.4513
  19   2.0000      -6.039896      -164.3539
  20   2.0000      -6.036457      -164.2603
  21   2.0000      -6.036428      -164.2595
  22   2.0000      -6.032427      -164.1507
  23   2.0000      -6.028350      -164.0397
  24   2.0000      -1.008890       -27.4533
  25   2.0000      -0.983193       -26.7540
  26   2.0000      -0.918434       -24.9919
  27   2.0000      -0.910102       -24.7651
  28   2.0000      -0.871067       -23.7029
  29   2.0000      -0.852831       -23.2067
  30   2.0000      -0.843531       -22.9537
  31   2.0000      -0.806270       -21.9397
  32   2.0000      -0.784296       -21.3418
  33   2.0000      -0.771220       -20.9860
  34   2.0000      -0.701901       -19.0997
  35   2.0000      -0.700239       -19.0545
  36   2.0000      -0.693230       -18.8637
  37   2.0000      -0.659190       -17.9375
  38   2.0000      -0.637770       -17.3546
  39   2.0000      -0.612884       -16.6774
  40   2.0000      -0.597919       -16.2702
  41   2.0000      -0.582410       -15.8482
  42   2.0000      -0.551576       -15.0091
  43   2.0000      -0.550952       -14.9922
  44   2.0000      -0.546192       -14.8626
  45   2.0000      -0.527954       -14.3664
  46   2.0000      -0.520846       -14.1729
  47   2.0000      -0.512833       -13.9549
  48   2.0000      -0.502839       -13.6829
  49   2.0000      -0.496848       -13.5199
  50   2.0000      -0.490855       -13.3568
  51   2.0000      -0.477364       -12.9897
  52   2.0000      -0.467873       -12.7315
  53   2.0000      -0.463838       -12.6217
  54   2.0000      -0.462222       -12.5777
  55   2.0000      -0.450904       -12.2697
  56   2.0000      -0.443467       -12.0674
  57   2.0000      -0.441351       -12.0098
  58   2.0000      -0.432534       -11.7699
  59   2.0000      -0.425410       -11.5760
  60   2.0000      -0.417925       -11.3723
  61   2.0000      -0.413060       -11.2399
  62   2.0000      -0.404263       -11.0006
  63   2.0000      -0.341904        -9.3037
  64   2.0000      -0.336516        -9.1571
  65   2.0000      -0.324037        -8.8175
  66   2.0000      -0.285332        -7.7643
  67   0.0000       0.022919         0.6236
  68   0.0000       0.068997         1.8775
  69   0.0000       0.101537         2.7630
  70   0.0000       0.117238         3.1902
  71   0.0000       0.127697         3.4748

MULLIKEN ATOMIC CHARGES
-----------------------
   0 S :    0.088250
   1 C :   -0.143857
   2 C :   -0.075959
   3 C :    0.005912
   4 C :   -0.146898
   5 H :    0.024049
   6 C :    0.033091
   7 H :    0.049531
   8 H :    0.020125
   9 C :   -0.039181
  10 H :    0.031228
  11 H :    0.027702
  12 C :   -0.059500
  13 H :    0.017053
  14 H :    0.041526
  15 H :    0.043614
  16 S :    0.137289
  17 C :   -0.096913
  18 C :   -0.036982
  19 C :   -0.074330
  20 C :   -0.159178
  21 H :    0.044638
  22 C :    0.103956
  23 H :    0.021888
  24 H :    0.018777
  25 C :   -0.062413
  26 H :    0.014663
  27 H :    0.012714
  28 C :   -0.034096
  29 H :    0.029281
  30 H :    0.039500
  31 H :    0.018639
  32 H :    0.063272
  33 H :    0.042610
Sum of atomic charges:    0.0000000

LOEWDIN ATOMIC CHARGES
----------------------
   0 S :    0.377641
   1 C :   -0.185635
   2 C :   -0.069678
   3 C :   -0.060936
   4 C :   -0.198142
   5 H :    0.026358
   6 C :   -0.034861
   7 H :    0.041746
   8 H :    0.027784
   9 C :   -0.037754
  10 H :    0.021075
  11 H :    0.027665
  12 C :   -0.065132
  13 H :    0.015671
  14 H :    0.036305
  15 H :    0.025459
  16 S :    0.445340
  17 C :   -0.188555
  18 C :   -0.077553
  19 C :   -0.041621
  20 C :   -0.220096
  21 H :    0.044324
  22 C :   -0.024123
  23 H :    0.029075
  24 H :    0.028091
  25 C :   -0.039771
  26 H :    0.018695
  27 H :    0.017809
  28 C :   -0.063907
  29 H :    0.024638
  30 H :    0.030456
  31 H :    0.021754
  32 H :    0.033866
  33 H :    0.014014

  Mayer bond orders larger than 0.100000
B(  0-S ,  1-C ) :   1.1302 B(  0-S ,  4-C ) :   1.1350 B(  1-C ,  2-C ) :   1.5964
B(  1-C , 32-H ) :   0.9698 B(  2-C ,  3-C ) :   1.2450 B(  2-C ,  6-C ) :   1.0210
B(  3-C ,  4-C ) :   1.5547 B(  3-C ,  5-H ) :   0.9773 B(  4-C , 20-C ) :   1.0857
B(  6-C ,  7-H ) :   0.9463 B(  6-C ,  8-H ) :   0.9394 B(  6-C ,  9-C ) :   1.0706
B(  9-C , 10-H ) :   0.9583 B(  9-C , 11-H ) :   0.9550 B(  9-C , 12-C ) :   1.0821
B( 12-C , 13-H ) :   0.9751 B( 12-C , 14-H ) :   0.9698 B( 12-C , 15-H ) :   0.9724
B( 16-S , 17-C ) :   1.2152 B( 16-S , 20-C ) :   1.1419 B( 17-C , 18-C ) :   1.5493
B( 17-C , 20-C ) :   0.1010 B( 17-C , 33-H ) :   0.9691 B( 18-C , 19-C ) :   1.2769
B( 18-C , 21-H ) :   0.9869 B( 19-C , 20-C ) :   1.5589 B( 19-C , 22-C ) :   1.0376
B( 22-C , 23-H ) :   0.9386 B( 22-C , 24-H ) :   0.9345 B( 22-C , 25-C ) :   1.0564
B( 25-C , 26-H ) :   0.9514 B( 25-C , 27-H ) :   0.9573 B( 25-C , 28-C ) :   1.0839
B( 28-C , 29-H ) :   0.9749 B( 28-C , 30-H ) :   0.9717 B( 28-C , 31-H ) :   0.9727

Dispersion correction           -0.015750899
FINAL SINGLE POINT ENERGY     -1339.863417662212

DIPOLE MOMENT
-------------
                                X             Y             Z
Electronic contribution:    -26.48611      -7.55915       1.30475
Nuclear contribution   :     26.89839       7.94597      -1.13306
                        -----------------------------------------
Total Dipole Moment    :      0.41229       0.38682       0.17169
                        -----------------------------------------
Magnitude (a.u.)       :      0.59083
Magnitude (Debye)      :      1.50178

Rotational constants in cm-1:     0.018909     0.010004     0.007801
Rotational constants in MHz :   566.868726   299.906827   233.877949

                             ****ORCA TERMINATED NORMALLY****
TOTAL RUN TIME: 0 days 0 hours 0 minutes 34 seconds 549 msec
