                         Program Version 4.2.1 -  RELEASE  -
|  1> ! wB97X-D3 SP def2-SVP
|  2> %pal
|  3> nprocs 16
|  4> end
|  5>
|  6> * xyz 0 1
|  7> S 	 -95.1636 	 51.8745 	 123.574
|  8> C 	 -96.6686 	 52.663 	 123.115
|  9> C 	 -97.4958 	 52.7529 	 124.226
| 10> C 	 -96.9714 	 52.2099 	 125.409
| 11> C 	 -95.7972 	 51.575 	 125.215
| 12> H 	 -97.3854 	 52.1256 	 126.398
| 13> C 	 -98.8385 	 53.4874 	 124.128
| 14> H 	 -98.9159 	 53.7926 	 123.082
| 15> H 	 -98.8693 	 54.3595 	 124.747
| 16> C 	 -100.079 	 52.4944 	 124.469
| 17> H 	 -99.9412 	 51.5079 	 123.983
| 18> H 	 -99.9061 	 52.1561 	 125.475
| 19> C 	 -101.443 	 53.1462 	 124.141
| 20> H 	 -101.27 	 54.3089 	 123.971
| 21> H 	 -101.915 	 52.5226 	 123.424
| 22> H 	 -102.023 	 53.0387 	 125.056
| 23> S 	 -93.3434 	 50.6402 	 126.012
| 24> C 	 -93.1519 	 49.6079 	 127.344
| 25> C 	 -94.3444 	 49.3195 	 127.94
| 26> C 	 -95.4809 	 49.964 	 127.318
| 27> C 	 -95.08 	 50.7512 	 126.226
| 28> H 	 -94.3452 	 48.6398 	 128.848
| 29> C 	 -96.9275 	 49.875 	 127.883
| 30> H 	 -97.3116 	 50.8603 	 128.053
| 31> H 	 -96.7189 	 49.4675 	 128.846
| 32> C 	 -97.8781 	 48.8987 	 127.155
| 33> H 	 -97.4604 	 47.9334 	 127.153
| 34> H 	 -98.0289 	 49.1483 	 126.206
| 35> C 	 -99.2292 	 48.8598 	 127.792
| 36> H 	 -99.8172 	 49.7168 	 127.447
| 37> H 	 -99.176 	 48.9141 	 128.878
| 38> H 	 -99.6762 	 47.9238 	 127.544
| 39> H 	 -97.0122 	 52.8945 	 122.153
| 40> H 	 -92.2607 	 49.1108 	 127.618
| 41> *
| 42>
| 43>                          ****END OF INPUT****

CARTESIAN COORDINATES (ANGSTROEM)
---------------------------------
  S    -95.163600   51.874500  123.574000
  C    -96.668600   52.663000  123.115000
  C    -97.495800   52.752900  124.226000
  C    -96.971400   52.209900  125.409000
  C    -95.797200   51.575000  125.215000
  H    -97.385400   52.125600  126.398000
  C    -98.838500   53.487400  124.128000
  H    -98.915900   53.792600  123.082000
  H    -98.869300   54.359500  124.747000
  C    -100.079000   52.494400  124.469000
  H    -99.941200   51.507900  123.983000
  H    -99.906100   52.156100  125.475000
  C    -101.443000   53.146200  124.141000
  H    -101.270000   54.308900  123.971000
  H    -101.915000   52.522600  123.424000
  H    -102.023000   53.038700  125.056000
  S    -93.343400   50.640200  126.012000
  C    -93.151900   49.607900  127.344000
  C    -94.344400   49.319500  127.940000
  C    -95.480900   49.964000  127.318000
  C    -95.080000   50.751200  126.226000
  H    -94.345200   48.639800  128.848000
  C    -96.927500   49.875000  127.883000
  H    -97.311600   50.860300  128.053000
  H    -96.718900   49.467500  128.846000
  C    -97.878100   48.898700  127.155000
  H    -97.460400   47.933400  127.153000
  H    -98.028900   49.148300  126.206000
  C    -99.229200   48.859800  127.792000
  H    -99.817200   49.716800  127.447000
  H    -99.176000   48.914100  128.878000
  H    -99.676200   47.923800  127.544000
  H    -97.012200   52.894500  122.153000
  H    -92.260700   49.110800  127.618000

 Total Charge           Charge          ....    0
 Multiplicity           Mult            ....    1
 Number of Electrons    NEL             ....  134
 Basis Dimension        Dim             ....  322

ORBITAL ENERGIES
----------------

  NO   OCC          E(Eh)            E(eV)
   0   2.0000     -88.966395     -2420.8987
   1   2.0000     -88.963869     -2420.8300
   2   2.0000     -10.332294      -281.1560
   3   2.0000     -10.330876      -281.1174
   4   2.0000     -10.310468      -280.5621
   5   2.0000     -10.309913      -280.5470
   6   2.0000     -10.309117      -280.5253
   7   2.0000     -10.299600      -280.2664
   8   2.0000     -10.298287      -280.2306
   9   2.0000     -10.294374      -280.1242
  10   2.0000     -10.293041      -280.0879
  11   2.0000     -10.289740      -279.9980
  12   2.0000     -10.288025      -279.9514
  13   2.0000     -10.287658      -279.9414
  14   2.0000     -10.273003      -279.5426
  15   2.0000     -10.269353      -279.4433
  16   2.0000      -8.080342      -219.8773
  17   2.0000      -8.079709      -219.8601
  18   2.0000      -6.038977      -164.3289
  19   2.0000      -6.038109      -164.3053
  20   2.0000      -6.035068      -164.2225
  21   2.0000      -6.033980      -164.1929
  22   2.0000      -6.030906      -164.1093
  23   2.0000      -6.030617      -164.1014
  24   2.0000      -1.008009       -27.4293
  25   2.0000      -0.987013       -26.8580
  26   2.0000      -0.916215       -24.9315
  27   2.0000      -0.899945       -24.4887
  28   2.0000      -0.868940       -23.6450
  29   2.0000      -0.857208       -23.3258
  30   2.0000      -0.845822       -23.0160
  31   2.0000      -0.820387       -22.3239
  32   2.0000      -0.782777       -21.3004
  33   2.0000      -0.767232       -20.8774
  34   2.0000      -0.712837       -19.3973
  35   2.0000      -0.703525       -19.1439
  36   2.0000      -0.695029       -18.9127
  37   2.0000      -0.661361       -17.9965
  38   2.0000      -0.642777       -17.4908
  39   2.0000      -0.621958       -16.9243
  40   2.0000      -0.595392       -16.2014
  41   2.0000      -0.576012       -15.6741
  42   2.0000      -0.568147       -15.4601
  43   2.0000      -0.549980       -14.9657
  44   2.0000      -0.534549       -14.5458
  45   2.0000      -0.525973       -14.3125
  46   2.0000      -0.518736       -14.1155
  47   2.0000      -0.511180       -13.9099
  48   2.0000      -0.506957       -13.7950
  49   2.0000      -0.500635       -13.6230
  50   2.0000      -0.492373       -13.3981
  51   2.0000      -0.489755       -13.3269
  52   2.0000      -0.469534       -12.7767
  53   2.0000      -0.466538       -12.6951
  54   2.0000      -0.460730       -12.5371
  55   2.0000      -0.449552       -12.2329
  56   2.0000      -0.445382       -12.1195
  57   2.0000      -0.442009       -12.0277
  58   2.0000      -0.436916       -11.8891
  59   2.0000      -0.428263       -11.6536
  60   2.0000      -0.422182       -11.4881
  61   2.0000      -0.412783       -11.2324
  62   2.0000      -0.405028       -11.0214
  63   2.0000      -0.358740        -9.7618
  64   2.0000      -0.335381        -9.1262
  65   2.0000      -0.328622        -8.9423
  66   2.0000      -0.285356        -7.7649
  67   0.0000       0.023890         0.6501
  68   0.0000       0.081843         2.2270
  69   0.0000       0.103819         2.8250
  70   0.0000       0.118630         3.2281
  71   0.0000       0.129970         3.5367

MULLIKEN ATOMIC CHARGES
-----------------------
   0 S :    0.100428
   1 C :   -0.088120
   2 C :   -0.097223
   3 C :    0.010439
   4 C :   -0.090488
   5 H :   -0.007366
   6 C :    0.073999
   7 H :    0.013686
   8 H :    0.039373
   9 C :   -0.125451
  10 H :    0.029403
  11 H :    0.018049
  12 C :   -0.037227
  13 H :    0.063465
  14 H :    0.042097
  15 H :    0.031483
  16 S :    0.099628
  17 C :   -0.062517
  18 C :   -0.069505
  19 C :   -0.062027
  20 C :   -0.154416
  21 H :    0.039752
  22 C :    0.052413
  23 H :    0.031226
  24 H :    0.001508
  25 C :    0.019610
  26 H :    0.012331
  27 H :   -0.002371
  28 C :   -0.035481
  29 H :    0.032428
  30 H :    0.019957
  31 H :    0.029185
  32 H :    0.029608
  33 H :    0.042123
Sum of atomic charges:   -0.0000000

LOEWDIN ATOMIC CHARGES
----------------------
   0 S :    0.379578
   1 C :   -0.189156
   2 C :   -0.058011
   3 C :   -0.072493
   4 C :   -0.168093
   5 H :    0.031207
   6 C :   -0.022925
   7 H :    0.025323
   8 H :    0.026422
   9 C :   -0.048841
  10 H :    0.025787
  11 H :    0.012957
  12 C :   -0.073890
  13 H :    0.046589
  14 H :    0.026372
  15 H :    0.029094
  16 S :    0.423183
  17 C :   -0.199354
  18 C :   -0.084087
  19 C :   -0.056858
  20 C :   -0.191258
  21 H :    0.042077
  22 C :   -0.021845
  23 H :    0.022832
  24 H :    0.027192
  25 C :   -0.023016
  26 H :    0.022587
  27 H :    0.007437
  28 C :   -0.056485
  29 H :    0.025790
  30 H :    0.021663
  31 H :    0.024954
  32 H :    0.020250
  33 H :    0.025020

  Mayer bond orders larger than 0.100000
B(  0-S ,  1-C ) :   1.1173 B(  0-S ,  4-C ) :   1.1371 B(  1-C ,  2-C ) :   1.6293
B(  1-C , 32-H ) :   0.9703 B(  2-C ,  3-C ) :   1.2083 B(  2-C ,  6-C ) :   1.0327
B(  3-C ,  4-C ) :   1.5990 B(  3-C ,  5-H ) :   1.0001 B(  4-C , 20-C ) :   1.0494
B(  6-C ,  7-H ) :   0.9448 B(  6-C ,  8-H ) :   0.9414 B(  6-C ,  9-C ) :   1.0427
B(  9-C , 10-H ) :   0.9634 B(  9-C , 11-H ) :   0.9657 B(  9-C , 12-C ) :   1.0486
B( 12-C , 13-H ) :   0.9752 B( 12-C , 14-H ) :   0.9795 B( 12-C , 15-H ) :   0.9751
B( 16-S , 17-C ) :   1.1668 B( 16-S , 20-C ) :   1.1487 B( 17-C , 18-C ) :   1.6151
B( 17-C , 33-H ) :   0.9680 B( 18-C , 19-C ) :   1.2609 B( 18-C , 21-H ) :   0.9764
B( 19-C , 20-C ) :   1.5804 B( 19-C , 22-C ) :   1.0174 B( 22-C , 23-H ) :   0.9462
B( 22-C , 24-H ) :   0.9211 B( 22-C , 25-C ) :   1.0688 B( 25-C , 26-H ) :   0.9490
B( 25-C , 27-H ) :   0.9523 B( 25-C , 28-C ) :   1.0911 B( 28-C , 29-H ) :   0.9755
B( 28-C , 30-H ) :   0.9726 B( 28-C , 31-H ) :   0.9729

Dispersion correction           -0.014253867
FINAL SINGLE POINT ENERGY     -1339.855729129989

DIPOLE MOMENT
-------------
                                X             Y             Z
Electronic contribution:     32.88160       1.80874      -6.99777
Nuclear contribution   :    -33.53596      -2.05271       7.36177
                        -----------------------------------------
Total Dipole Moment    :     -0.65436      -0.24397       0.36399
                        -----------------------------------------
Magnitude (a.u.)       :      0.78753
Magnitude (Debye)      :      2.00174

Rotational constants in cm-1:     0.017981     0.009482     0.006507
Rotational constants in MHz :   539.060262   284.263401   195.080909

                             ****ORCA TERMINATED NORMALLY****
TOTAL RUN TIME: 0 days 0 hours 0 minutes 33 seconds 150 msec
