                         Program Version 4.2.1 -  RELEASE  -
|  1> ! wB97X-D3 SP def2-SVP
|  2> %pal
|  3> nprocs 16
|  4> end
|  5>
|  6> * xyz 0 1
|  7> S 	 -26.7313 	 57.1607 	 110.17
|  8> C 	 -26.5778 	 55.7408 	 111.083
|  9> C 	 -26.256 	 55.9508 	 112.481
| 10> C 	 -25.9578 	 57.3552 	 112.636
| 11> C 	 -26.1704 	 58.1624 	 111.516
| 12> H 	 -25.6806 	 57.8483 	 113.562
| 13> C 	 -26.2563 	 54.8734 	 113.562
| 14> H 	 -25.7542 	 55.1976 	 114.531
| 15> H 	 -25.6322 	 54.0679 	 113.145
| 16> C 	 -27.572 	 54.231 	 113.879
| 17> H 	 -27.9941 	 53.8325 	 112.961
| 18> H 	 -27.4071 	 53.3569 	 114.554
| 19> C 	 -28.5833 	 55.1775 	 114.46
| 20> H 	 -28.9362 	 55.8239 	 113.602
| 21> H 	 -29.5274 	 54.6966 	 114.832
| 22> H 	 -28.1865 	 55.6781 	 115.371
| 23> S 	 -24.639 	 60.4711 	 111.928
| 24> C 	 -25.3227 	 62.0132 	 111.55
| 25> C 	 -26.5697 	 61.9266 	 111.014
| 26> C 	 -27.0186 	 60.5694 	 110.95
| 27> C 	 -26.1013 	 59.6151 	 111.42
| 28> H 	 -26.9958 	 62.883 	 110.743
| 29> C 	 -28.4597 	 60.2263 	 110.482
| 30> H 	 -28.448 	 59.3541 	 109.977
| 31> H 	 -28.6834 	 61.0597 	 109.848
| 32> C 	 -29.4386 	 60.2112 	 111.656
| 33> H 	 -30.4302 	 59.8632 	 111.386
| 34> H 	 -29.476 	 61.177 	 112.062
| 35> C 	 -28.9902 	 59.294 	 112.797
| 36> H 	 -29.8403 	 59.1501 	 113.455
| 37> H 	 -28.0501 	 59.6759 	 113.318
| 38> H 	 -28.8555 	 58.3581 	 112.353
| 39> H 	 -26.7253 	 54.8276 	 110.671
| 40> H 	 -24.6544 	 62.8363 	 111.688
| 41> *
| 42>
| 43>                          ****END OF INPUT****

CARTESIAN COORDINATES (ANGSTROEM)
---------------------------------
  S    -26.731300   57.160700  110.170000
  C    -26.577800   55.740800  111.083000
  C    -26.256000   55.950800  112.481000
  C    -25.957800   57.355200  112.636000
  C    -26.170400   58.162400  111.516000
  H    -25.680600   57.848300  113.562000
  C    -26.256300   54.873400  113.562000
  H    -25.754200   55.197600  114.531000
  H    -25.632200   54.067900  113.145000
  C    -27.572000   54.231000  113.879000
  H    -27.994100   53.832500  112.961000
  H    -27.407100   53.356900  114.554000
  C    -28.583300   55.177500  114.460000
  H    -28.936200   55.823900  113.602000
  H    -29.527400   54.696600  114.832000
  H    -28.186500   55.678100  115.371000
  S    -24.639000   60.471100  111.928000
  C    -25.322700   62.013200  111.550000
  C    -26.569700   61.926600  111.014000
  C    -27.018600   60.569400  110.950000
  C    -26.101300   59.615100  111.420000
  H    -26.995800   62.883000  110.743000
  C    -28.459700   60.226300  110.482000
  H    -28.448000   59.354100  109.977000
  H    -28.683400   61.059700  109.848000
  C    -29.438600   60.211200  111.656000
  H    -30.430200   59.863200  111.386000
  H    -29.476000   61.177000  112.062000
  C    -28.990200   59.294000  112.797000
  H    -29.840300   59.150100  113.455000
  H    -28.050100   59.675900  113.318000
  H    -28.855500   58.358100  112.353000
  H    -26.725300   54.827600  110.671000
  H    -24.654400   62.836300  111.688000

 Total Charge           Charge          ....    0
 Multiplicity           Mult            ....    1
 Number of Electrons    NEL             ....  134
 Basis Dimension        Dim             ....  322

ORBITAL ENERGIES
----------------

  NO   OCC          E(Eh)            E(eV)
   0   2.0000     -88.972545     -2421.0660
   1   2.0000     -88.961335     -2420.7610
   2   2.0000     -10.331360      -281.1306
   3   2.0000     -10.328451      -281.0514
   4   2.0000     -10.313826      -280.6535
   5   2.0000     -10.312780      -280.6250
   6   2.0000     -10.312572      -280.6194
   7   2.0000     -10.306339      -280.4497
   8   2.0000     -10.300538      -280.2919
   9   2.0000     -10.299095      -280.2526
  10   2.0000     -10.294602      -280.1304
  11   2.0000     -10.285465      -279.8817
  12   2.0000     -10.281255      -279.7672
  13   2.0000     -10.277736      -279.6714
  14   2.0000     -10.272814      -279.5375
  15   2.0000     -10.263035      -279.2714
  16   2.0000      -8.087086      -220.0608
  17   2.0000      -8.076466      -219.7718
  18   2.0000      -6.045428      -164.5045
  19   2.0000      -6.041489      -164.3973
  20   2.0000      -6.038185      -164.3074
  21   2.0000      -6.034875      -164.2173
  22   2.0000      -6.030812      -164.1067
  23   2.0000      -6.027438      -164.0149
  24   2.0000      -1.004310       -27.3287
  25   2.0000      -0.984298       -26.7841
  26   2.0000      -0.917523       -24.9671
  27   2.0000      -0.909009       -24.7354
  28   2.0000      -0.870488       -23.6872
  29   2.0000      -0.850360       -23.1395
  30   2.0000      -0.841989       -22.9117
  31   2.0000      -0.813969       -22.1492
  32   2.0000      -0.784150       -21.3378
  33   2.0000      -0.771836       -21.0027
  34   2.0000      -0.702126       -19.1058
  35   2.0000      -0.695570       -18.9274
  36   2.0000      -0.690073       -18.7778
  37   2.0000      -0.660959       -17.9856
  38   2.0000      -0.643263       -17.5041
  39   2.0000      -0.615023       -16.7356
  40   2.0000      -0.597505       -16.2589
  41   2.0000      -0.581067       -15.8116
  42   2.0000      -0.554920       -15.1001
  43   2.0000      -0.552220       -15.0267
  44   2.0000      -0.549903       -14.9636
  45   2.0000      -0.543402       -14.7867
  46   2.0000      -0.517783       -14.0896
  47   2.0000      -0.510224       -13.8839
  48   2.0000      -0.496985       -13.5236
  49   2.0000      -0.494820       -13.4647
  50   2.0000      -0.488132       -13.2828
  51   2.0000      -0.472162       -12.8482
  52   2.0000      -0.471177       -12.8214
  53   2.0000      -0.468881       -12.7589
  54   2.0000      -0.461585       -12.5604
  55   2.0000      -0.443946       -12.0804
  56   2.0000      -0.438540       -11.9333
  57   2.0000      -0.433640       -11.7999
  58   2.0000      -0.429923       -11.6988
  59   2.0000      -0.421419       -11.4674
  60   2.0000      -0.420512       -11.4427
  61   2.0000      -0.417534       -11.3617
  62   2.0000      -0.403975       -10.9927
  63   2.0000      -0.350204        -9.5295
  64   2.0000      -0.333427        -9.0730
  65   2.0000      -0.329107        -8.9555
  66   2.0000      -0.285789        -7.7767
  67   0.0000       0.027695         0.7536
  68   0.0000       0.067676         1.8416
  69   0.0000       0.109395         2.9768
  70   0.0000       0.115085         3.1316
  71   0.0000       0.130694         3.5564

MULLIKEN ATOMIC CHARGES
-----------------------
   0 S :    0.132667
   1 C :   -0.090186
   2 C :   -0.093489
   3 C :    0.033637
   4 C :   -0.174289
   5 H :    0.010423
   6 C :    0.055705
   7 H :    0.038576
   8 H :    0.038459
   9 C :   -0.068490
  10 H :    0.018232
  11 H :    0.034864
  12 C :   -0.085071
  13 H :    0.059467
  14 H :    0.033324
  15 H :    0.034974
  16 S :    0.095911
  17 C :   -0.103815
  18 C :   -0.021999
  19 C :   -0.097057
  20 C :   -0.147364
  21 H :    0.022887
  22 C :    0.168294
  23 H :   -0.014682
  24 H :    0.012045
  25 C :   -0.037652
  26 H :    0.024136
  27 H :    0.007024
  28 C :   -0.054488
  29 H :    0.023778
  30 H :    0.062188
  31 H :    0.016971
  32 H :    0.010259
  33 H :    0.054760
Sum of atomic charges:   -0.0000000

LOEWDIN ATOMIC CHARGES
----------------------
   0 S :    0.443102
   1 C :   -0.199571
   2 C :   -0.054835
   3 C :   -0.055517
   4 C :   -0.198024
   5 H :    0.029875
   6 C :   -0.038780
   7 H :    0.037439
   8 H :    0.039374
   9 C :   -0.049842
  10 H :    0.020969
  11 H :    0.028119
  12 C :   -0.078012
  13 H :    0.036895
  14 H :    0.028402
  15 H :    0.026579
  16 S :    0.404155
  17 C :   -0.179433
  18 C :   -0.078768
  19 C :   -0.050843
  20 C :   -0.202008
  21 H :    0.037560
  22 C :   -0.015877
  23 H :   -0.000587
  24 H :    0.029415
  25 C :   -0.029594
  26 H :    0.023092
  27 H :    0.014208
  28 C :   -0.062447
  29 H :    0.023147
  30 H :    0.035960
  31 H :    0.011745
  32 H :    0.001748
  33 H :    0.022354

  Mayer bond orders larger than 0.100000
B(  0-S ,  1-C ) :   1.1907 B(  0-S ,  4-C ) :   1.1493 B(  1-C ,  2-C ) :   1.5301
B(  1-C ,  4-C ) :   0.1060 B(  1-C , 32-H ) :   0.9819 B(  2-C ,  3-C ) :   1.2811
B(  2-C ,  6-C ) :   1.0130 B(  3-C ,  4-C ) :   1.5541 B(  3-C ,  5-H ) :   0.9881
B(  4-C , 20-C ) :   1.0515 B(  6-C ,  7-H ) :   0.9467 B(  6-C ,  8-H ) :   0.9313
B(  6-C ,  9-C ) :   1.0846 B(  9-C , 10-H ) :   0.9517 B(  9-C , 11-H ) :   0.9515
B(  9-C , 12-C ) :   1.0799 B( 12-C , 13-H ) :   0.9699 B( 12-C , 14-H ) :   0.9711
B( 12-C , 15-H ) :   0.9740 B( 16-S , 17-C ) :   1.1757 B( 16-S , 20-C ) :   1.1384
B( 17-C , 18-C ) :   1.5913 B( 17-C , 33-H ) :   0.9702 B( 18-C , 19-C ) :   1.2316
B( 18-C , 21-H ) :   1.0008 B( 19-C , 20-C ) :   1.5756 B( 19-C , 22-C ) :   1.0270
B( 22-C , 23-H ) :   0.9287 B( 22-C , 24-H ) :   0.9283 B( 22-C , 25-C ) :   1.0801
B( 25-C , 26-H ) :   0.9561 B( 25-C , 27-H ) :   0.9513 B( 25-C , 28-C ) :   1.0932
B( 28-C , 29-H ) :   0.9709 B( 28-C , 30-H ) :   0.9668 B( 28-C , 31-H ) :   0.9713

Dispersion correction           -0.016793469
FINAL SINGLE POINT ENERGY     -1339.873439663587

DIPOLE MOMENT
-------------
                                X             Y             Z
Electronic contribution:     17.67542       9.87041     -13.24454
Nuclear contribution   :    -18.01123     -10.01905      13.45015
                        -----------------------------------------
Total Dipole Moment    :     -0.33581      -0.14864       0.20562
                        -----------------------------------------
Magnitude (a.u.)       :      0.42088
Magnitude (Debye)      :      1.06980

Rotational constants in cm-1:     0.022687     0.008858     0.008051
Rotational constants in MHz :   680.137305   265.568286   241.356128

                             ****ORCA TERMINATED NORMALLY****
TOTAL RUN TIME: 0 days 0 hours 0 minutes 31 seconds 441 msec
