                         Program Version 4.2.1 -  RELEASE  -
|  1> ! wB97X-D3 SP def2-SVP
|  2> %pal
|  3> nprocs 16
|  4> end
|  5>
|  6> * xyz 0 1
|  7> S 	 46.6699 	 7.1047 	 85.6956
|  8> C 	 47.2314 	 7.61317 	 87.2899
|  9> C 	 46.4689 	 8.67178 	 87.8646
| 10> C 	 45.3891 	 9.01995 	 86.9985
| 11> C 	 45.4118 	 8.31212 	 85.8078
| 12> H 	 44.6465 	 9.77164 	 87.0844
| 13> C 	 46.7487 	 9.37674 	 89.1555
| 14> H 	 46.6938 	 8.58758 	 89.9599
| 15> H 	 45.92 	 10.0814 	 89.3216
| 16> C 	 48.1347 	 10.0241 	 89.4188
| 17> H 	 48.4601 	 10.0075 	 90.4148
| 18> H 	 48.8815 	 9.40081 	 88.996
| 19> C 	 48.2739 	 11.3438 	 88.7223
| 20> H 	 47.3963 	 11.9349 	 88.9697
| 21> H 	 49.1583 	 11.822 	 89.1137
| 22> H 	 48.3824 	 11.1775 	 87.6582
| 23> S 	 45.5797 	 9.6072 	 83.2687
| 24> C 	 43.9665 	 10.0429 	 82.4916
| 25> C 	 42.9215 	 9.40768 	 83.1189
| 26> C 	 43.2993 	 8.74004 	 84.3661
| 27> C 	 44.7006 	 8.73805 	 84.6169
| 28> H 	 41.9255 	 9.43601 	 82.7041
| 29> C 	 42.2937 	 8.04773 	 85.3188
| 30> H 	 42.8793 	 7.46772 	 85.8999
| 31> H 	 41.6162 	 7.35353 	 84.7865
| 32> C 	 41.4481 	 8.97401 	 86.2521
| 33> H 	 42.0883 	 9.73231 	 86.6424
| 34> H 	 41.0928 	 8.42198 	 87.1566
| 35> C 	 40.2514 	 9.56764 	 85.4807
| 36> H 	 39.6822 	 8.80739 	 84.9997
| 37> H 	 40.6731 	 10.1991 	 84.6511
| 38> H 	 39.5888 	 10.1112 	 86.1824
| 39> H 	 48.0699 	 7.2307 	 87.8482
| 40> H 	 43.7816 	 10.5464 	 81.5174
| 41> *
| 42>
| 43>                          ****END OF INPUT****

CARTESIAN COORDINATES (ANGSTROEM)
---------------------------------
  S     46.669900    7.104700   85.695600
  C     47.231400    7.613170   87.289900
  C     46.468900    8.671780   87.864600
  C     45.389100    9.019950   86.998500
  C     45.411800    8.312120   85.807800
  H     44.646500    9.771640   87.084400
  C     46.748700    9.376740   89.155500
  H     46.693800    8.587580   89.959900
  H     45.920000   10.081400   89.321600
  C     48.134700   10.024100   89.418800
  H     48.460100   10.007500   90.414800
  H     48.881500    9.400810   88.996000
  C     48.273900   11.343800   88.722300
  H     47.396300   11.934900   88.969700
  H     49.158300   11.822000   89.113700
  H     48.382400   11.177500   87.658200
  S     45.579700    9.607200   83.268700
  C     43.966500   10.042900   82.491600
  C     42.921500    9.407680   83.118900
  C     43.299300    8.740040   84.366100
  C     44.700600    8.738050   84.616900
  H     41.925500    9.436010   82.704100
  C     42.293700    8.047730   85.318800
  H     42.879300    7.467720   85.899900
  H     41.616200    7.353530   84.786500
  C     41.448100    8.974010   86.252100
  H     42.088300    9.732310   86.642400
  H     41.092800    8.421980   87.156600
  C     40.251400    9.567640   85.480700
  H     39.682200    8.807390   84.999700
  H     40.673100   10.199100   84.651100
  H     39.588800   10.111200   86.182400
  H     48.069900    7.230700   87.848200
  H     43.781600   10.546400   81.517400

 Total Charge           Charge          ....    0
 Multiplicity           Mult            ....    1
 Number of Electrons    NEL             ....  134
 Basis Dimension        Dim             ....  322

ORBITAL ENERGIES
----------------

  NO   OCC          E(Eh)            E(eV)
   0   2.0000     -88.974927     -2421.1309
   1   2.0000     -88.966136     -2420.8916
   2   2.0000     -10.334154      -281.2066
   3   2.0000     -10.327632      -281.0291
   4   2.0000     -10.327004      -281.0121
   5   2.0000     -10.319258      -280.8013
   6   2.0000     -10.311553      -280.5916
   7   2.0000     -10.308445      -280.5070
   8   2.0000     -10.298396      -280.2336
   9   2.0000     -10.298363      -280.2327
  10   2.0000     -10.296442      -280.1804
  11   2.0000     -10.287212      -279.9293
  12   2.0000     -10.284996      -279.8690
  13   2.0000     -10.279468      -279.7185
  14   2.0000     -10.278196      -279.6839
  15   2.0000     -10.270437      -279.4728
  16   2.0000      -8.088944      -220.1114
  17   2.0000      -8.078189      -219.8187
  18   2.0000      -6.047328      -164.5561
  19   2.0000      -6.043551      -164.4534
  20   2.0000      -6.039885      -164.3536
  21   2.0000      -6.037074      -164.2771
  22   2.0000      -6.033237      -164.1727
  23   2.0000      -6.028524      -164.0445
  24   2.0000      -0.999391       -27.1948
  25   2.0000      -0.966472       -26.2990
  26   2.0000      -0.915860       -24.9218
  27   2.0000      -0.900292       -24.4982
  28   2.0000      -0.867715       -23.6117
  29   2.0000      -0.857017       -23.3206
  30   2.0000      -0.836028       -22.7495
  31   2.0000      -0.814176       -22.1548
  32   2.0000      -0.782387       -21.2898
  33   2.0000      -0.765865       -20.8403
  34   2.0000      -0.712079       -19.3767
  35   2.0000      -0.704122       -19.1601
  36   2.0000      -0.690527       -18.7902
  37   2.0000      -0.654448       -17.8084
  38   2.0000      -0.643525       -17.5112
  39   2.0000      -0.609919       -16.5967
  40   2.0000      -0.587747       -15.9934
  41   2.0000      -0.573501       -15.6058
  42   2.0000      -0.558335       -15.1931
  43   2.0000      -0.552154       -15.0249
  44   2.0000      -0.540006       -14.6943
  45   2.0000      -0.537764       -14.6333
  46   2.0000      -0.516032       -14.0420
  47   2.0000      -0.510230       -13.8841
  48   2.0000      -0.501695       -13.6518
  49   2.0000      -0.489862       -13.3298
  50   2.0000      -0.486340       -13.2340
  51   2.0000      -0.476587       -12.9686
  52   2.0000      -0.469812       -12.7842
  53   2.0000      -0.466224       -12.6866
  54   2.0000      -0.455626       -12.3982
  55   2.0000      -0.447459       -12.1760
  56   2.0000      -0.441581       -12.0160
  57   2.0000      -0.439079       -11.9479
  58   2.0000      -0.435066       -11.8387
  59   2.0000      -0.428666       -11.6646
  60   2.0000      -0.419828       -11.4241
  61   2.0000      -0.419181       -11.4065
  62   2.0000      -0.412519       -11.2252
  63   2.0000      -0.344750        -9.3811
  64   2.0000      -0.329535        -8.9671
  65   2.0000      -0.322433        -8.7738
  66   2.0000      -0.295233        -8.0337
  67   0.0000       0.027756         0.7553
  68   0.0000       0.051685         1.4064
  69   0.0000       0.104290         2.8379
  70   0.0000       0.111395         3.0312
  71   0.0000       0.117140         3.1875

MULLIKEN ATOMIC CHARGES
-----------------------
   0 S :    0.134988
   1 C :   -0.110919
   2 C :   -0.089782
   3 C :    0.064574
   4 C :   -0.202540
   5 H :    0.002272
   6 C :    0.032819
   7 H :    0.043276
   8 H :    0.025391
   9 C :   -0.030520
  10 H :    0.012558
  11 H :    0.001150
  12 C :   -0.031752
  13 H :    0.025485
  14 H :    0.028134
  15 H :    0.046311
  16 S :    0.087586
  17 C :   -0.108943
  18 C :   -0.019106
  19 C :   -0.064865
  20 C :   -0.141605
  21 H :    0.026825
  22 C :    0.105529
  23 H :   -0.007834
  24 H :    0.028903
  25 C :   -0.072430
  26 H :    0.019327
  27 H :    0.034838
  28 C :   -0.052713
  29 H :    0.018608
  30 H :    0.038891
  31 H :    0.042308
  32 H :    0.040562
  33 H :    0.072672
Sum of atomic charges:   -0.0000000

LOEWDIN ATOMIC CHARGES
----------------------
   0 S :    0.416622
   1 C :   -0.196473
   2 C :   -0.058888
   3 C :   -0.043878
   4 C :   -0.204251
   5 H :    0.027930
   6 C :   -0.036279
   7 H :    0.043418
   8 H :    0.029632
   9 C :   -0.039314
  10 H :    0.018032
  11 H :    0.020264
  12 C :   -0.057366
  13 H :    0.022025
  14 H :    0.025229
  15 H :    0.030177
  16 S :    0.334139
  17 C :   -0.165796
  18 C :   -0.072760
  19 C :   -0.046839
  20 C :   -0.180594
  21 H :    0.031571
  22 C :   -0.022630
  23 H :    0.012438
  24 H :    0.033036
  25 C :   -0.036217
  26 H :    0.016392
  27 H :    0.027704
  28 C :   -0.068042
  29 H :    0.016753
  30 H :    0.030976
  31 H :    0.028801
  32 H :    0.023088
  33 H :    0.041098

  Mayer bond orders larger than 0.100000
B(  0-S ,  1-C ) :   1.1459 B(  0-S ,  4-C ) :   1.1490 B(  1-C ,  2-C ) :   1.5903
B(  1-C , 32-H ) :   0.9658 B(  2-C ,  3-C ) :   1.2421 B(  2-C ,  6-C ) :   1.0279
B(  3-C ,  4-C ) :   1.5704 B(  3-C ,  5-H ) :   0.9924 B(  4-C , 20-C ) :   1.0393
B(  6-C ,  7-H ) :   0.9278 B(  6-C ,  8-H ) :   0.9494 B(  6-C ,  9-C ) :   1.0697
B(  9-C , 10-H ) :   0.9543 B(  9-C , 11-H ) :   0.9472 B(  9-C , 12-C ) :   1.0769
B( 12-C , 13-H ) :   0.9788 B( 12-C , 14-H ) :   0.9717 B( 12-C , 15-H ) :   0.9785
B( 16-S , 17-C ) :   1.1150 B( 16-S , 20-C ) :   1.0991 B( 17-C , 18-C ) :   1.6703
B( 17-C , 33-H ) :   0.9561 B( 18-C , 19-C ) :   1.1977 B( 18-C , 21-H ) :   0.9795
B( 19-C , 20-C ) :   1.6313 B( 19-C , 22-C ) :   1.0429 B( 22-C , 23-H ) :   0.9174
B( 22-C , 24-H ) :   0.9448 B( 22-C , 25-C ) :   1.0652 B( 25-C , 26-H ) :   0.9543
B( 25-C , 27-H ) :   0.9565 B( 25-C , 28-C ) :   1.0745 B( 28-C , 29-H ) :   0.9766
B( 28-C , 30-H ) :   0.9723 B( 28-C , 31-H ) :   0.9732

Dispersion correction           -0.014641962
FINAL SINGLE POINT ENERGY     -1339.859615241886

DIPOLE MOMENT
-------------
                                X             Y             Z
Electronic contribution:      9.78719      -9.94703     -17.63000
Nuclear contribution   :    -10.00795      10.07771      18.13131
                        -----------------------------------------
Total Dipole Moment    :     -0.22076       0.13067       0.50131
                        -----------------------------------------
Magnitude (a.u.)       :      0.56314
Magnitude (Debye)      :      1.43138

Rotational constants in cm-1:     0.018975     0.008041     0.007091
Rotational constants in MHz :   568.862288   241.059924   212.589939

                             ****ORCA TERMINATED NORMALLY****
TOTAL RUN TIME: 0 days 0 hours 0 minutes 29 seconds 375 msec
