                         Program Version 4.2.1 -  RELEASE  -
|  1> ! wB97X-D3 SP def2-SVP
|  2> %pal
|  3> nprocs 16
|  4> end
|  5>
|  6> * xyz 0 1
|  7> S 	 -2.94167 	 8.96841 	 85.826
|  8> C 	 -2.55644 	 7.4608 	 86.5261
|  9> C 	 -3.09279 	 6.38557 	 85.8066
| 10> C 	 -3.76515 	 6.89986 	 84.6456
| 11> C 	 -3.4606 	 8.21775 	 84.3719
| 12> H 	 -4.21628 	 6.35199 	 83.8556
| 13> C 	 -2.96521 	 4.87864 	 86.0688
| 14> H 	 -3.89349 	 4.51069 	 85.7267
| 15> H 	 -2.85557 	 4.66166 	 87.1421
| 16> C 	 -1.7581 	 4.32003 	 85.2323
| 17> H 	 -1.86772 	 4.46473 	 84.1763
| 18> H 	 -0.824662 	 4.76877 	 85.651
| 19> C 	 -1.70801 	 2.83718 	 85.2766
| 20> H 	 -0.677952 	 2.46875 	 85.0611
| 21> H 	 -2.18876 	 2.58503 	 86.1824
| 22> H 	 -2.28177 	 2.37018 	 84.4692
| 23> S 	 -4.85032 	 10.4802 	 83.5682
| 24> C 	 -5.12052 	 10.9169 	 81.9307
| 25> C 	 -4.51855 	 9.94701 	 81.1441
| 26> C 	 -3.8389 	 8.91311 	 81.8398
| 27> C 	 -3.89615 	 9.04847 	 83.2343
| 28> H 	 -4.70957 	 10.0423 	 80.1118
| 29> C 	 -3.42828 	 7.66304 	 81.0867
| 30> H 	 -4.32221 	 7.17634 	 80.8178
| 31> H 	 -2.80534 	 7.03407 	 81.7586
| 32> C 	 -2.60994 	 8.07065 	 79.8227
| 33> H 	 -3.08075 	 8.71117 	 79.1147
| 34> H 	 -2.50538 	 7.06726 	 79.3238
| 35> C 	 -1.22582 	 8.66142 	 79.9936
| 36> H 	 -0.658343 	 8.68495 	 79.0545
| 37> H 	 -0.709704 	 8.15184 	 80.7953
| 38> H 	 -1.37132 	 9.6749 	 80.3993
| 39> H 	 -2.0892 	 7.43644 	 87.5092
| 40> H 	 -5.66604 	 11.7726 	 81.638
| 41> *
| 42>
| 43>                          ****END OF INPUT****

CARTESIAN COORDINATES (ANGSTROEM)
---------------------------------
  S     -2.941670    8.968410   85.826000
  C     -2.556440    7.460800   86.526100
  C     -3.092790    6.385570   85.806600
  C     -3.765150    6.899860   84.645600
  C     -3.460600    8.217750   84.371900
  H     -4.216280    6.351990   83.855600
  C     -2.965210    4.878640   86.068800
  H     -3.893490    4.510690   85.726700
  H     -2.855570    4.661660   87.142100
  C     -1.758100    4.320030   85.232300
  H     -1.867720    4.464730   84.176300
  H     -0.824662    4.768770   85.651000
  C     -1.708010    2.837180   85.276600
  H     -0.677952    2.468750   85.061100
  H     -2.188760    2.585030   86.182400
  H     -2.281770    2.370180   84.469200
  S     -4.850320   10.480200   83.568200
  C     -5.120520   10.916900   81.930700
  C     -4.518550    9.947010   81.144100
  C     -3.838900    8.913110   81.839800
  C     -3.896150    9.048470   83.234300
  H     -4.709570   10.042300   80.111800
  C     -3.428280    7.663040   81.086700
  H     -4.322210    7.176340   80.817800
  H     -2.805340    7.034070   81.758600
  C     -2.609940    8.070650   79.822700
  H     -3.080750    8.711170   79.114700
  H     -2.505380    7.067260   79.323800
  C     -1.225820    8.661420   79.993600
  H     -0.658343    8.684950   79.054500
  H     -0.709704    8.151840   80.795300
  H     -1.371320    9.674900   80.399300
  H     -2.089200    7.436440   87.509200
  H     -5.666040   11.772600   81.638000

 Total Charge           Charge          ....    0
 Multiplicity           Mult            ....    1
 Number of Electrons    NEL             ....  134
 Basis Dimension        Dim             ....  322

ORBITAL ENERGIES
----------------

  NO   OCC          E(Eh)            E(eV)
   0   2.0000     -88.962560     -2420.7943
   1   2.0000     -88.959663     -2420.7155
   2   2.0000     -10.328165      -281.0437
   3   2.0000     -10.327502      -281.0256
   4   2.0000     -10.313964      -280.6572
   5   2.0000     -10.312452      -280.6161
   6   2.0000     -10.305940      -280.4389
   7   2.0000     -10.301745      -280.3247
   8   2.0000     -10.297499      -280.2092
   9   2.0000     -10.293688      -280.1055
  10   2.0000     -10.292513      -280.0735
  11   2.0000     -10.288267      -279.9580
  12   2.0000     -10.285605      -279.8855
  13   2.0000     -10.283454      -279.8270
  14   2.0000     -10.272991      -279.5423
  15   2.0000     -10.272598      -279.5316
  16   2.0000      -8.078988      -219.8404
  17   2.0000      -8.075198      -219.7373
  18   2.0000      -6.037262      -164.2823
  19   2.0000      -6.033578      -164.1820
  20   2.0000      -6.033385      -164.1768
  21   2.0000      -6.029768      -164.0783
  22   2.0000      -6.029378      -164.0677
  23   2.0000      -6.026243      -163.9824
  24   2.0000      -1.012384       -27.5484
  25   2.0000      -0.990122       -26.9426
  26   2.0000      -0.916702       -24.9447
  27   2.0000      -0.909177       -24.7400
  28   2.0000      -0.871680       -23.7196
  29   2.0000      -0.855562       -23.2810
  30   2.0000      -0.844794       -22.9880
  31   2.0000      -0.816528       -22.2188
  32   2.0000      -0.783166       -21.3110
  33   2.0000      -0.773349       -21.0439
  34   2.0000      -0.699880       -19.0447
  35   2.0000      -0.695492       -18.9253
  36   2.0000      -0.694416       -18.8960
  37   2.0000      -0.658168       -17.9097
  38   2.0000      -0.646182       -17.5835
  39   2.0000      -0.622945       -16.9512
  40   2.0000      -0.601909       -16.3788
  41   2.0000      -0.570926       -15.5357
  42   2.0000      -0.568721       -15.4757
  43   2.0000      -0.560086       -15.2407
  44   2.0000      -0.539065       -14.6687
  45   2.0000      -0.531256       -14.4562
  46   2.0000      -0.528101       -14.3704
  47   2.0000      -0.511405       -13.9160
  48   2.0000      -0.509564       -13.8659
  49   2.0000      -0.503106       -13.6902
  50   2.0000      -0.495876       -13.4935
  51   2.0000      -0.481337       -13.0978
  52   2.0000      -0.469190       -12.7673
  53   2.0000      -0.467585       -12.7236
  54   2.0000      -0.457646       -12.4532
  55   2.0000      -0.448619       -12.2075
  56   2.0000      -0.445584       -12.1250
  57   2.0000      -0.435368       -11.8470
  58   2.0000      -0.430173       -11.7056
  59   2.0000      -0.427034       -11.6202
  60   2.0000      -0.421159       -11.4603
  61   2.0000      -0.414077       -11.2676
  62   2.0000      -0.395880       -10.7724
  63   2.0000      -0.348300        -9.4777
  64   2.0000      -0.326800        -8.8927
  65   2.0000      -0.324813        -8.8386
  66   2.0000      -0.291976        -7.9451
  67   0.0000       0.029102         0.7919
  68   0.0000       0.071222         1.9380
  69   0.0000       0.110557         3.0084
  70   0.0000       0.122880         3.3437
  71   0.0000       0.135100         3.6762

MULLIKEN ATOMIC CHARGES
-----------------------
   0 S :    0.111125
   1 C :   -0.122986
   2 C :   -0.097084
   3 C :    0.044927
   4 C :   -0.163216
   5 H :    0.002726
   6 C :    0.082259
   7 H :    0.015982
   8 H :    0.034947
   9 C :   -0.086541
  10 H :    0.026228
  11 H :    0.042610
  12 C :   -0.020806
  13 H :    0.039814
  14 H :    0.017168
  15 H :    0.024128
  16 S :    0.090486
  17 C :   -0.083182
  18 C :   -0.041500
  19 C :   -0.046639
  20 C :   -0.144205
  21 H :    0.006779
  22 C :    0.093641
  23 H :    0.038123
  24 H :    0.032369
  25 C :   -0.119321
  26 H :    0.026311
  27 H :    0.023888
  28 C :   -0.036244
  29 H :    0.047683
  30 H :    0.023431
  31 H :    0.035010
  32 H :    0.051718
  33 H :    0.050370
Sum of atomic charges:    0.0000000

LOEWDIN ATOMIC CHARGES
----------------------
   0 S :    0.434894
   1 C :   -0.211369
   2 C :   -0.058343
   3 C :   -0.058207
   4 C :   -0.201904
   5 H :    0.023163
   6 C :   -0.024114
   7 H :    0.024921
   8 H :    0.032399
   9 C :   -0.039422
  10 H :    0.023729
  11 H :    0.030570
  12 C :   -0.066732
  13 H :    0.033551
  14 H :    0.016615
  15 H :    0.024237
  16 S :    0.415478
  17 C :   -0.185346
  18 C :   -0.074987
  19 C :   -0.065832
  20 C :   -0.203302
  21 H :    0.023372
  22 C :   -0.020679
  23 H :    0.029804
  24 H :    0.033064
  25 C :   -0.045901
  26 H :    0.016618
  27 H :    0.024578
  28 C :   -0.065290
  29 H :    0.031561
  30 H :    0.022141
  31 H :    0.028631
  32 H :    0.026947
  33 H :    0.025157

  Mayer bond orders larger than 0.100000
B(  0-S ,  1-C ) :   1.1676 B(  0-S ,  4-C ) :   1.1675 B(  1-C ,  2-C ) :   1.5743
B(  1-C , 32-H ) :   0.9730 B(  2-C ,  3-C ) :   1.2535 B(  2-C ,  6-C ) :   1.0276
B(  3-C ,  4-C ) :   1.5646 B(  3-C ,  5-H ) :   0.9900 B(  4-C , 20-C ) :   1.0301
B(  6-C ,  7-H ) :   0.9363 B(  6-C ,  8-H ) :   0.9377 B(  6-C ,  9-C ) :   1.0731
B(  9-C , 10-H ) :   0.9615 B(  9-C , 11-H ) :   0.9576 B(  9-C , 12-C ) :   1.0774
B( 12-C , 13-H ) :   0.9705 B( 12-C , 14-H ) :   0.9718 B( 12-C , 15-H ) :   0.9776
B( 16-S , 17-C ) :   1.1762 B( 16-S , 20-C ) :   1.1597 B( 17-C , 18-C ) :   1.5657
B( 17-C , 20-C ) :   0.1055 B( 17-C , 33-H ) :   0.9780 B( 18-C , 19-C ) :   1.2538
B( 18-C , 21-H ) :   1.0019 B( 19-C , 20-C ) :   1.5661 B( 19-C , 22-C ) :   1.0430
B( 22-C , 23-H ) :   0.9386 B( 22-C , 24-H ) :   0.9324 B( 22-C , 25-C ) :   1.0647
B( 25-C , 26-H ) :   0.9582 B( 25-C , 27-H ) :   0.9554 B( 25-C , 28-C ) :   1.0806
B( 28-C , 29-H ) :   0.9730 B( 28-C , 30-H ) :   0.9735 B( 28-C , 31-H ) :   0.9692

Dispersion correction           -0.013857390
FINAL SINGLE POINT ENERGY     -1339.859328214392

DIPOLE MOMENT
-------------
                                X             Y             Z
Electronic contribution:    -11.86349      23.34480      12.14363
Nuclear contribution   :     11.81566     -23.93954     -12.48651
                        -----------------------------------------
Total Dipole Moment    :     -0.04784      -0.59473      -0.34289
                        -----------------------------------------
Magnitude (a.u.)       :      0.68816
Magnitude (Debye)      :      1.74917

Rotational constants in cm-1:     0.018485     0.008654     0.006525
Rotational constants in MHz :   554.180186   259.432599   195.603028

                             ****ORCA TERMINATED NORMALLY****
TOTAL RUN TIME: 0 days 0 hours 0 minutes 34 seconds 687 msec
