                         Program Version 4.2.1 -  RELEASE  -
|  1> ! wB97X-D3 SP def2-SVP
|  2> %pal
|  3> nprocs 16
|  4> end
|  5>
|  6> * xyz 0 1
|  7> S 	 48.0019 	 14.1816 	 85.361
|  8> C 	 46.7865 	 14.4396 	 84.0805
|  9> C 	 46.5654 	 13.2178 	 83.4742
| 10> C 	 47.5174 	 12.1787 	 83.8533
| 11> C 	 48.4386 	 12.5649 	 84.803
| 12> H 	 47.493 	 11.1253 	 83.5866
| 13> C 	 45.4602 	 12.8822 	 82.5168
| 14> H 	 45.8567 	 12.246 	 81.7025
| 15> H 	 45.1681 	 13.7564 	 81.9427
| 16> C 	 44.1554 	 12.4293 	 83.246
| 17> H 	 44.2118 	 11.6727 	 83.9871
| 18> H 	 43.7747 	 13.3464 	 83.7198
| 19> C 	 43.1283 	 11.8522 	 82.2547
| 20> H 	 43.5574 	 11.1211 	 81.6072
| 21> H 	 42.2593 	 11.5081 	 82.8477
| 22> H 	 42.6165 	 12.5774 	 81.6245
| 23> S 	 51.073 	 12.2171 	 85.5332
| 24> C 	 51.5139 	 10.6885 	 86.1901
| 25> C 	 50.4159 	 9.98888 	 86.6542
| 26> C 	 49.1894 	 10.4926 	 86.1923
| 27> C 	 49.3698 	 11.6848 	 85.4621
| 28> H 	 50.5808 	 9.13668 	 87.2284
| 29> C 	 47.8538 	 9.79944 	 86.4414
| 30> H 	 47.1453 	 10.1634 	 85.7029
| 31> H 	 47.4196 	 10.1145 	 87.3672
| 32> C 	 47.7547 	 8.24868 	 86.2372
| 33> H 	 47.1576 	 7.87425 	 87.0132
| 34> H 	 48.6917 	 7.84175 	 86.5633
| 35> C 	 47.2763 	 7.72744 	 84.828
| 36> H 	 46.4964 	 8.31774 	 84.4322
| 37> H 	 47.0876 	 6.72274 	 84.8549
| 38> H 	 48.0725 	 7.94843 	 84.0951
| 39> H 	 46.1233 	 15.2419 	 83.909
| 40> H 	 52.5524 	 10.2993 	 86.3326
| 41> *
| 42>
| 43>                          ****END OF INPUT****

CARTESIAN COORDINATES (ANGSTROEM)
---------------------------------
  S     48.001900   14.181600   85.361000
  C     46.786500   14.439600   84.080500
  C     46.565400   13.217800   83.474200
  C     47.517400   12.178700   83.853300
  C     48.438600   12.564900   84.803000
  H     47.493000   11.125300   83.586600
  C     45.460200   12.882200   82.516800
  H     45.856700   12.246000   81.702500
  H     45.168100   13.756400   81.942700
  C     44.155400   12.429300   83.246000
  H     44.211800   11.672700   83.987100
  H     43.774700   13.346400   83.719800
  C     43.128300   11.852200   82.254700
  H     43.557400   11.121100   81.607200
  H     42.259300   11.508100   82.847700
  H     42.616500   12.577400   81.624500
  S     51.073000   12.217100   85.533200
  C     51.513900   10.688500   86.190100
  C     50.415900    9.988880   86.654200
  C     49.189400   10.492600   86.192300
  C     49.369800   11.684800   85.462100
  H     50.580800    9.136680   87.228400
  C     47.853800    9.799440   86.441400
  H     47.145300   10.163400   85.702900
  H     47.419600   10.114500   87.367200
  C     47.754700    8.248680   86.237200
  H     47.157600    7.874250   87.013200
  H     48.691700    7.841750   86.563300
  C     47.276300    7.727440   84.828000
  H     46.496400    8.317740   84.432200
  H     47.087600    6.722740   84.854900
  H     48.072500    7.948430   84.095100
  H     46.123300   15.241900   83.909000
  H     52.552400   10.299300   86.332600

 Total Charge           Charge          ....    0
 Multiplicity           Mult            ....    1
 Number of Electrons    NEL             ....  134
 Basis Dimension        Dim             ....  322

ORBITAL ENERGIES
----------------

  NO   OCC          E(Eh)            E(eV)
   0   2.0000     -88.967225     -2420.9213
   1   2.0000     -88.962229     -2420.7853
   2   2.0000     -10.328611      -281.0558
   3   2.0000     -10.327577      -281.0276
   4   2.0000     -10.320450      -280.8337
   5   2.0000     -10.313043      -280.6322
   6   2.0000     -10.309317      -280.5308
   7   2.0000     -10.301134      -280.3081
   8   2.0000     -10.292489      -280.0729
   9   2.0000     -10.291708      -280.0516
  10   2.0000     -10.291414      -280.0436
  11   2.0000     -10.289181      -279.9828
  12   2.0000     -10.288177      -279.9555
  13   2.0000     -10.285575      -279.8847
  14   2.0000     -10.277159      -279.6557
  15   2.0000     -10.276524      -279.6384
  16   2.0000      -8.081974      -219.9217
  17   2.0000      -8.076082      -219.7614
  18   2.0000      -6.040317      -164.3654
  19   2.0000      -6.036614      -164.2646
  20   2.0000      -6.034828      -164.2160
  21   2.0000      -6.032771      -164.1600
  22   2.0000      -6.030804      -164.1065
  23   2.0000      -6.026509      -163.9896
  24   2.0000      -1.004209       -27.3259
  25   2.0000      -0.980726       -26.6869
  26   2.0000      -0.909333       -24.7442
  27   2.0000      -0.905366       -24.6363
  28   2.0000      -0.870924       -23.6990
  29   2.0000      -0.852573       -23.1997
  30   2.0000      -0.841641       -22.9022
  31   2.0000      -0.814423       -22.1616
  32   2.0000      -0.787413       -21.4266
  33   2.0000      -0.771356       -20.9897
  34   2.0000      -0.717409       -19.5217
  35   2.0000      -0.704506       -19.1706
  36   2.0000      -0.701072       -19.0771
  37   2.0000      -0.657050       -17.8792
  38   2.0000      -0.641182       -17.4474
  39   2.0000      -0.616598       -16.7785
  40   2.0000      -0.598897       -16.2968
  41   2.0000      -0.568317       -15.4647
  42   2.0000      -0.562657       -15.3107
  43   2.0000      -0.560117       -15.2415
  44   2.0000      -0.531615       -14.4660
  45   2.0000      -0.528486       -14.3808
  46   2.0000      -0.522420       -14.2158
  47   2.0000      -0.513336       -13.9686
  48   2.0000      -0.505752       -13.7622
  49   2.0000      -0.501365       -13.6428
  50   2.0000      -0.496983       -13.5236
  51   2.0000      -0.474516       -12.9122
  52   2.0000      -0.469848       -12.7852
  53   2.0000      -0.467866       -12.7313
  54   2.0000      -0.456279       -12.4160
  55   2.0000      -0.451560       -12.2876
  56   2.0000      -0.446492       -12.1497
  57   2.0000      -0.443240       -12.0612
  58   2.0000      -0.435101       -11.8397
  59   2.0000      -0.421655       -11.4738
  60   2.0000      -0.420035       -11.4297
  61   2.0000      -0.415916       -11.3177
  62   2.0000      -0.409571       -11.1450
  63   2.0000      -0.340746        -9.2722
  64   2.0000      -0.334019        -9.0891
  65   2.0000      -0.322020        -8.7626
  66   2.0000      -0.293829        -7.9955
  67   0.0000       0.030247         0.8231
  68   0.0000       0.058761         1.5990
  69   0.0000       0.110136         2.9970
  70   0.0000       0.117031         3.1846
  71   0.0000       0.129247         3.5170

MULLIKEN ATOMIC CHARGES
-----------------------
   0 S :    0.093312
   1 C :   -0.080346
   2 C :   -0.102291
   3 C :    0.023248
   4 C :   -0.116207
   5 H :    0.010666
   6 C :    0.039724
   7 H :    0.031701
   8 H :    0.013731
   9 C :   -0.054043
  10 H :    0.028365
  11 H :    0.027788
  12 C :   -0.047124
  13 H :    0.033590
  14 H :    0.031814
  15 H :    0.019988
  16 S :    0.121235
  17 C :   -0.101302
  18 C :   -0.033266
  19 C :    0.008041
  20 C :   -0.206294
  21 H :   -0.002425
  22 C :    0.077120
  23 H :    0.002567
  24 H :    0.037779
  25 C :   -0.056918
  26 H :    0.007084
  27 H :    0.007809
  28 C :   -0.002930
  29 H :    0.020394
  30 H :    0.029803
  31 H :    0.033487
  32 H :    0.031347
  33 H :    0.072552
Sum of atomic charges:    0.0000000

LOEWDIN ATOMIC CHARGES
----------------------
   0 S :    0.380428
   1 C :   -0.188018
   2 C :   -0.058689
   3 C :   -0.067205
   4 C :   -0.191294
   5 H :    0.029115
   6 C :   -0.039491
   7 H :    0.031541
   8 H :    0.029665
   9 C :   -0.030794
  10 H :    0.018611
  11 H :    0.028046
  12 C :   -0.067681
  13 H :    0.021085
  14 H :    0.030690
  15 H :    0.021667
  16 S :    0.411809
  17 C :   -0.190079
  18 C :   -0.071091
  19 C :   -0.042130
  20 C :   -0.195867
  21 H :    0.020740
  22 C :   -0.029328
  23 H :    0.029393
  24 H :    0.034771
  25 C :   -0.034390
  26 H :    0.017940
  27 H :    0.017403
  28 C :   -0.050738
  29 H :    0.019403
  30 H :    0.016946
  31 H :    0.032981
  32 H :    0.024498
  33 H :    0.040061

  Mayer bond orders larger than 0.100000
B(  0-S ,  1-C ) :   1.1075 B(  0-S ,  4-C ) :   1.1384 B(  1-C ,  2-C ) :   1.6298
B(  1-C , 32-H ) :   0.9729 B(  2-C ,  3-C ) :   1.2126 B(  2-C ,  6-C ) :   1.0418
B(  3-C ,  4-C ) :   1.5848 B(  3-C ,  5-H ) :   0.9958 B(  4-C , 20-C ) :   1.0585
B(  6-C ,  7-H ) :   0.9502 B(  6-C ,  8-H ) :   0.9378 B(  6-C ,  9-C ) :   1.0413
B(  9-C , 10-H ) :   0.9672 B(  9-C , 11-H ) :   0.9540 B(  9-C , 12-C ) :   1.0787
B( 12-C , 13-H ) :   0.9775 B( 12-C , 14-H ) :   0.9740 B( 12-C , 15-H ) :   0.9741
B( 16-S , 17-C ) :   1.1742 B( 16-S , 20-C ) :   1.1375 B( 17-C , 18-C ) :   1.5925
B( 17-C , 20-C ) :   0.1094 B( 17-C , 33-H ) :   0.9610 B( 18-C , 19-C ) :   1.2509
B( 18-C , 21-H ) :   0.9987 B( 19-C , 20-C ) :   1.5590 B( 19-C , 22-C ) :   1.0384
B( 22-C , 23-H ) :   0.9369 B( 22-C , 24-H ) :   0.9290 B( 22-C , 25-C ) :   1.0571
B( 25-C , 26-H ) :   0.9517 B( 25-C , 27-H ) :   0.9579 B( 25-C , 28-C ) :   1.0742
B( 28-C , 29-H ) :   0.9735 B( 28-C , 30-H ) :   0.9757 B( 28-C , 31-H ) :   0.9764

Dispersion correction           -0.014292833
FINAL SINGLE POINT ENERGY     -1339.853548678273

DIPOLE MOMENT
-------------
                                X             Y             Z
Electronic contribution:     25.01370      18.39046       8.91560
Nuclear contribution   :    -25.54907     -19.07170      -8.90773
                        -----------------------------------------
Total Dipole Moment    :     -0.53536      -0.68124       0.00787
                        -----------------------------------------
Magnitude (a.u.)       :      0.86647
Magnitude (Debye)      :      2.20238

Rotational constants in cm-1:     0.017668     0.009169     0.006523
Rotational constants in MHz :   529.685808   274.880712   195.539748

                             ****ORCA TERMINATED NORMALLY****
TOTAL RUN TIME: 0 days 0 hours 0 minutes 30 seconds 824 msec
