                         Program Version 4.2.1 -  RELEASE  -
|  1> ! wB97X-D3 SP def2-SVP
|  2> %pal
|  3> nprocs 16
|  4> end
|  5>
|  6> * xyz 0 1
|  7> S 	 11.2864 	 -14.3648 	 77.3027
|  8> C 	 11.2552 	 -12.6346 	 77.1413
|  9> C 	 12.1874 	 -11.9811 	 77.8685
| 10> C 	 13.0542 	 -12.9541 	 78.4331
| 11> C 	 12.7313 	 -14.3122 	 78.2741
| 12> H 	 13.8132 	 -12.6915 	 79.1353
| 13> C 	 12.3346 	 -10.4806 	 77.8746
| 14> H 	 12.5641 	 -10.0738 	 76.9252
| 15> H 	 13.077 	 -10.1709 	 78.5673
| 16> C 	 11.1295 	 -9.70452 	 78.491
| 17> H 	 11.219 	 -8.69662 	 78.4502
| 18> H 	 10.3993 	 -9.94502 	 77.7149
| 19> C 	 10.6685 	 -10.3631 	 79.8085
| 20> H 	 11.3977 	 -10.1254 	 80.5641
| 21> H 	 9.76821 	 -9.95737 	 80.2116
| 22> H 	 10.6476 	 -11.4524 	 79.7777
| 23> S 	 12.5217 	 -16.4014 	 80.0764
| 24> C 	 13.9532 	 -17.4647 	 80.3348
| 25> C 	 14.7952 	 -17.1817 	 79.3012
| 26> C 	 14.564 	 -16.0692 	 78.4661
| 27> C 	 13.3547 	 -15.4538 	 78.8535
| 28> H 	 15.6999 	 -17.8304 	 79.1838
| 29> C 	 15.5894 	 -15.4977 	 77.4411
| 30> H 	 15.0274 	 -15.0722 	 76.5552
| 31> H 	 16.0229 	 -16.3461 	 76.9162
| 32> C 	 16.7401 	 -14.5834 	 77.9891
| 33> H 	 17.3749 	 -15.1193 	 78.6466
| 34> H 	 16.3271 	 -13.7407 	 78.6731
| 35> C 	 17.5963 	 -13.9857 	 76.8157
| 36> H 	 18.0291 	 -12.9674 	 77.0825
| 37> H 	 16.9864 	 -13.6837 	 76.016
| 38> H 	 18.3771 	 -14.6102 	 76.3994
| 39> H 	 10.4912 	 -12.1379 	 76.5745
| 40> H 	 13.9385 	 -18.3626 	 80.9749
| 41> *
| 42>
| 43>                          ****END OF INPUT****

CARTESIAN COORDINATES (ANGSTROEM)
---------------------------------
  S     11.286400  -14.364800   77.302700
  C     11.255200  -12.634600   77.141300
  C     12.187400  -11.981100   77.868500
  C     13.054200  -12.954100   78.433100
  C     12.731300  -14.312200   78.274100
  H     13.813200  -12.691500   79.135300
  C     12.334600  -10.480600   77.874600
  H     12.564100  -10.073800   76.925200
  H     13.077000  -10.170900   78.567300
  C     11.129500   -9.704520   78.491000
  H     11.219000   -8.696620   78.450200
  H     10.399300   -9.945020   77.714900
  C     10.668500  -10.363100   79.808500
  H     11.397700  -10.125400   80.564100
  H      9.768210   -9.957370   80.211600
  H     10.647600  -11.452400   79.777700
  S     12.521700  -16.401400   80.076400
  C     13.953200  -17.464700   80.334800
  C     14.795200  -17.181700   79.301200
  C     14.564000  -16.069200   78.466100
  C     13.354700  -15.453800   78.853500
  H     15.699900  -17.830400   79.183800
  C     15.589400  -15.497700   77.441100
  H     15.027400  -15.072200   76.555200
  H     16.022900  -16.346100   76.916200
  C     16.740100  -14.583400   77.989100
  H     17.374900  -15.119300   78.646600
  H     16.327100  -13.740700   78.673100
  C     17.596300  -13.985700   76.815700
  H     18.029100  -12.967400   77.082500
  H     16.986400  -13.683700   76.016000
  H     18.377100  -14.610200   76.399400
  H     10.491200  -12.137900   76.574500
  H     13.938500  -18.362600   80.974900

 Total Charge           Charge          ....    0
 Multiplicity           Mult            ....    1
 Number of Electrons    NEL             ....  134
 Basis Dimension        Dim             ....  322

ORBITAL ENERGIES
----------------

  NO   OCC          E(Eh)            E(eV)
   0   2.0000     -88.965930     -2420.8860
   1   2.0000     -88.963909     -2420.8310
   2   2.0000     -10.329019      -281.0669
   3   2.0000     -10.326616      -281.0015
   4   2.0000     -10.322341      -280.8852
   5   2.0000     -10.309041      -280.5233
   6   2.0000     -10.306982      -280.4672
   7   2.0000     -10.301551      -280.3195
   8   2.0000     -10.298068      -280.2247
   9   2.0000     -10.297572      -280.2112
  10   2.0000     -10.295675      -280.1596
  11   2.0000     -10.293010      -280.0871
  12   2.0000     -10.287540      -279.9382
  13   2.0000     -10.280381      -279.7434
  14   2.0000     -10.279970      -279.7322
  15   2.0000     -10.270959      -279.4870
  16   2.0000      -8.081068      -219.8970
  17   2.0000      -8.077939      -219.8119
  18   2.0000      -6.039448      -164.3417
  19   2.0000      -6.036499      -164.2615
  20   2.0000      -6.035437      -164.2326
  21   2.0000      -6.032524      -164.1533
  22   2.0000      -6.032015      -164.1395
  23   2.0000      -6.028679      -164.0487
  24   2.0000      -1.008139       -27.4329
  25   2.0000      -0.984908       -26.8007
  26   2.0000      -0.916853       -24.9488
  27   2.0000      -0.895311       -24.3627
  28   2.0000      -0.872114       -23.7314
  29   2.0000      -0.845746       -23.0139
  30   2.0000      -0.842812       -22.9341
  31   2.0000      -0.811694       -22.0873
  32   2.0000      -0.786921       -21.4132
  33   2.0000      -0.772576       -21.0229
  34   2.0000      -0.710681       -19.3386
  35   2.0000      -0.709955       -19.3189
  36   2.0000      -0.701124       -19.0786
  37   2.0000      -0.654226       -17.8024
  38   2.0000      -0.642366       -17.4797
  39   2.0000      -0.613474       -16.6935
  40   2.0000      -0.593719       -16.1559
  41   2.0000      -0.579689       -15.7741
  42   2.0000      -0.560588       -15.2544
  43   2.0000      -0.552077       -15.0228
  44   2.0000      -0.542524       -14.7628
  45   2.0000      -0.520008       -14.1501
  46   2.0000      -0.516744       -14.0613
  47   2.0000      -0.508952       -13.8493
  48   2.0000      -0.498589       -13.5673
  49   2.0000      -0.495822       -13.4920
  50   2.0000      -0.494066       -13.4442
  51   2.0000      -0.478322       -13.0158
  52   2.0000      -0.470391       -12.8000
  53   2.0000      -0.461994       -12.5715
  54   2.0000      -0.458548       -12.4777
  55   2.0000      -0.451284       -12.2801
  56   2.0000      -0.442830       -12.0500
  57   2.0000      -0.439773       -11.9668
  58   2.0000      -0.434219       -11.8157
  59   2.0000      -0.430496       -11.7144
  60   2.0000      -0.419747       -11.4219
  61   2.0000      -0.412516       -11.2251
  62   2.0000      -0.397196       -10.8082
  63   2.0000      -0.339330        -9.2336
  64   2.0000      -0.333358        -9.0711
  65   2.0000      -0.326888        -8.8951
  66   2.0000      -0.301767        -8.2115
  67   0.0000       0.033464         0.9106
  68   0.0000       0.054924         1.4946
  69   0.0000       0.112912         3.0725
  70   0.0000       0.127508         3.4697
  71   0.0000       0.129203         3.5158

MULLIKEN ATOMIC CHARGES
-----------------------
   0 S :    0.124163
   1 C :   -0.128952
   2 C :   -0.098714
   3 C :    0.046576
   4 C :   -0.175823
   5 H :   -0.001563
   6 C :    0.106508
   7 H :    0.034197
   8 H :    0.002834
   9 C :   -0.054325
  10 H :    0.010784
  11 H :    0.008231
  12 C :   -0.034481
  13 H :    0.014016
  14 H :    0.028062
  15 H :    0.055485
  16 S :    0.094482
  17 C :   -0.105275
  18 C :   -0.047661
  19 C :   -0.005909
  20 C :   -0.186041
  21 H :    0.029053
  22 C :    0.055679
  23 H :    0.039866
  24 H :    0.016122
  25 C :   -0.051893
  26 H :    0.023475
  27 H :    0.043248
  28 C :   -0.055180
  29 H :    0.034786
  30 H :    0.016473
  31 H :    0.042097
  32 H :    0.043310
  33 H :    0.076372
Sum of atomic charges:    0.0000000

LOEWDIN ATOMIC CHARGES
----------------------
   0 S :    0.419206
   1 C :   -0.185298
   2 C :   -0.071733
   3 C :   -0.051424
   4 C :   -0.208211
   5 H :    0.022647
   6 C :   -0.019118
   7 H :    0.028471
   8 H :    0.022421
   9 C :   -0.027268
  10 H :    0.009572
  11 H :    0.017775
  12 C :   -0.061052
  13 H :    0.021609
  14 H :    0.022554
  15 H :    0.033284
  16 S :    0.382840
  17 C :   -0.180985
  18 C :   -0.075708
  19 C :   -0.057508
  20 C :   -0.195831
  21 H :    0.035205
  22 C :   -0.037360
  23 H :    0.039162
  24 H :    0.029751
  25 C :   -0.036392
  26 H :    0.018056
  27 H :    0.034547
  28 C :   -0.071187
  29 H :    0.036300
  30 H :    0.017931
  31 H :    0.025368
  32 H :    0.022168
  33 H :    0.040205

  Mayer bond orders larger than 0.100000
B(  0-S ,  1-C ) :   1.1645 B(  0-S ,  4-C ) :   1.1453 B(  1-C ,  2-C ) :   1.5858
B(  1-C , 32-H ) :   0.9661 B(  2-C ,  3-C ) :   1.2733 B(  2-C ,  6-C ) :   1.0166
B(  3-C ,  4-C ) :   1.5641 B(  3-C ,  5-H ) :   0.9907 B(  4-C , 20-C ) :   1.0702
B(  6-C ,  7-H ) :   0.9470 B(  6-C ,  8-H ) :   0.9393 B(  6-C ,  9-C ) :   1.0577
B(  9-C , 10-H ) :   0.9625 B(  9-C , 11-H ) :   0.9577 B(  9-C , 12-C ) :   1.0696
B( 12-C , 13-H ) :   0.9751 B( 12-C , 14-H ) :   0.9744 B( 12-C , 15-H ) :   0.9690
B( 16-S , 17-C ) :   1.1234 B( 16-S , 20-C ) :   1.1627 B( 17-C , 18-C ) :   1.6119
B( 17-C , 20-C ) :   0.1101 B( 17-C , 33-H ) :   0.9663 B( 18-C , 19-C ) :   1.2631
B( 18-C , 21-H ) :   0.9731 B( 19-C , 20-C ) :   1.5532 B( 19-C , 22-C ) :   1.0483
B( 22-C , 23-H ) :   0.9325 B( 22-C , 24-H ) :   0.9313 B( 22-C , 25-C ) :   1.0480
B( 25-C , 26-H ) :   0.9576 B( 25-C , 27-H ) :   0.9593 B( 25-C , 28-C ) :   1.0641
B( 28-C , 29-H ) :   0.9751 B( 28-C , 30-H ) :   0.9763 B( 28-C , 31-H ) :   0.9789

Dispersion correction           -0.014554931
FINAL SINGLE POINT ENERGY     -1339.856944533100

DIPOLE MOMENT
-------------
                                X             Y             Z
Electronic contribution:    -12.88272     -19.55002       3.17411
Nuclear contribution   :     13.30315      19.90184      -3.31955
                        -----------------------------------------
Total Dipole Moment    :      0.42043       0.35182      -0.14544
                        -----------------------------------------
Magnitude (a.u.)       :      0.56718
Magnitude (Debye)      :      1.44165

Rotational constants in cm-1:     0.018019     0.008746     0.006918
Rotational constants in MHz :   540.208106   262.200931   207.395510

                             ****ORCA TERMINATED NORMALLY****
TOTAL RUN TIME: 0 days 0 hours 0 minutes 29 seconds 470 msec
