                         Program Version 4.2.1 -  RELEASE  -
|  1> ! wB97X-D3 SP def2-SVP
|  2> %pal
|  3> nprocs 16
|  4> end
|  5>
|  6> * xyz 0 1
|  7> S 	 -2.97367 	 -13.8409 	 83.947
|  8> C 	 -1.94019 	 -14.2054 	 82.6153
|  9> C 	 -0.649982 	 -13.6818 	 82.8344
| 10> C 	 -0.472254 	 -13.2709 	 84.1452
| 11> C 	 -1.60489 	 -13.2776 	 84.9301
| 12> H 	 0.512415 	 -13.0296 	 84.5045
| 13> C 	 0.589358 	 -13.709 	 81.8873
| 14> H 	 1.16421 	 -12.7727 	 82.0656
| 15> H 	 0.011643 	 -13.6609 	 80.9761
| 16> C 	 1.53677 	 -14.8535 	 82.0458
| 17> H 	 1.91916 	 -14.865 	 83.0383
| 18> H 	 0.930373 	 -15.7464 	 81.869
| 19> C 	 2.71996 	 -14.8961 	 81.1506
| 20> H 	 3.4777 	 -15.6194 	 81.524
| 21> H 	 2.57039 	 -15.3391 	 80.2464
| 22> H 	 3.2616 	 -13.9215 	 81.1457
| 23> S 	 -2.33183 	 -14.3658 	 87.372
| 24> C 	 -2.23264 	 -13.3357 	 88.7347
| 25> C 	 -1.90449 	 -12.0769 	 88.43
| 26> C 	 -1.58549 	 -11.8934 	 87.1025
| 27> C 	 -1.76085 	 -13.0435 	 86.3424
| 28> H 	 -1.82317 	 -11.4446 	 89.2994
| 29> C 	 -1.178 	 -10.5235 	 86.6099
| 30> H 	 -0.463556 	 -10.5528 	 85.8093
| 31> H 	 -0.643122 	 -10.0658 	 87.4879
| 32> C 	 -2.45945 	 -9.69866 	 86.1235
| 33> H 	 -2.96196 	 -10.1292 	 85.3445
| 34> H 	 -2.06214 	 -8.79298 	 85.6849
| 35> C 	 -3.43219 	 -9.25192 	 87.2216
| 36> H 	 -3.0207 	 -8.44981 	 87.8513
| 37> H 	 -3.73025 	 -9.98382 	 87.9408
| 38> H 	 -4.37047 	 -8.86925 	 86.7799
| 39> H 	 -2.4664 	 -14.5545 	 81.7005
| 40> H 	 -2.45621 	 -13.5608 	 89.7258
| 41> *
| 42>
| 43>                          ****END OF INPUT****

CARTESIAN COORDINATES (ANGSTROEM)
---------------------------------
  S     -2.973670  -13.840900   83.947000
  C     -1.940190  -14.205400   82.615300
  C     -0.649982  -13.681800   82.834400
  C     -0.472254  -13.270900   84.145200
  C     -1.604890  -13.277600   84.930100
  H      0.512415  -13.029600   84.504500
  C      0.589358  -13.709000   81.887300
  H      1.164210  -12.772700   82.065600
  H      0.011643  -13.660900   80.976100
  C      1.536770  -14.853500   82.045800
  H      1.919160  -14.865000   83.038300
  H      0.930373  -15.746400   81.869000
  C      2.719960  -14.896100   81.150600
  H      3.477700  -15.619400   81.524000
  H      2.570390  -15.339100   80.246400
  H      3.261600  -13.921500   81.145700
  S     -2.331830  -14.365800   87.372000
  C     -2.232640  -13.335700   88.734700
  C     -1.904490  -12.076900   88.430000
  C     -1.585490  -11.893400   87.102500
  C     -1.760850  -13.043500   86.342400
  H     -1.823170  -11.444600   89.299400
  C     -1.178000  -10.523500   86.609900
  H     -0.463556  -10.552800   85.809300
  H     -0.643122  -10.065800   87.487900
  C     -2.459450   -9.698660   86.123500
  H     -2.961960  -10.129200   85.344500
  H     -2.062140   -8.792980   85.684900
  C     -3.432190   -9.251920   87.221600
  H     -3.020700   -8.449810   87.851300
  H     -3.730250   -9.983820   87.940800
  H     -4.370470   -8.869250   86.779900
  H     -2.466400  -14.554500   81.700500
  H     -2.456210  -13.560800   89.725800

 Total Charge           Charge          ....    0
 Multiplicity           Mult            ....    1
 Number of Electrons    NEL             ....  134
 Basis Dimension        Dim             ....  322

ORBITAL ENERGIES
----------------

  NO   OCC          E(Eh)            E(eV)
   0   2.0000     -88.964219     -2420.8395
   1   2.0000     -88.963766     -2420.8272
   2   2.0000     -10.326313      -280.9933
   3   2.0000     -10.321207      -280.8543
   4   2.0000     -10.318440      -280.7790
   5   2.0000     -10.302125      -280.3351
   6   2.0000     -10.300079      -280.2794
   7   2.0000     -10.296729      -280.1882
   8   2.0000     -10.294986      -280.1408
   9   2.0000     -10.291550      -280.0473
  10   2.0000     -10.287259      -279.9305
  11   2.0000     -10.280462      -279.7456
  12   2.0000     -10.278934      -279.7040
  13   2.0000     -10.278208      -279.6843
  14   2.0000     -10.272874      -279.5391
  15   2.0000     -10.271642      -279.5056
  16   2.0000      -8.079146      -219.8447
  17   2.0000      -8.078944      -219.8393
  18   2.0000      -6.037515      -164.2891
  19   2.0000      -6.037316      -164.2837
  20   2.0000      -6.033526      -164.1806
  21   2.0000      -6.033425      -164.1779
  22   2.0000      -6.030148      -164.0887
  23   2.0000      -6.029792      -164.0790
  24   2.0000      -1.010674       -27.5018
  25   2.0000      -0.989857       -26.9354
  26   2.0000      -0.917067       -24.9547
  27   2.0000      -0.902170       -24.5493
  28   2.0000      -0.873318       -23.7642
  29   2.0000      -0.855254       -23.2727
  30   2.0000      -0.849164       -23.1069
  31   2.0000      -0.816712       -22.2239
  32   2.0000      -0.785459       -21.3734
  33   2.0000      -0.770680       -20.9713
  34   2.0000      -0.713505       -19.4154
  35   2.0000      -0.699901       -19.0453
  36   2.0000      -0.694677       -18.9031
  37   2.0000      -0.658077       -17.9072
  38   2.0000      -0.642302       -17.4779
  39   2.0000      -0.626688       -17.0530
  40   2.0000      -0.594676       -16.1820
  41   2.0000      -0.583228       -15.8704
  42   2.0000      -0.561432       -15.2773
  43   2.0000      -0.545548       -14.8451
  44   2.0000      -0.537376       -14.6228
  45   2.0000      -0.525072       -14.2879
  46   2.0000      -0.514205       -13.9922
  47   2.0000      -0.512920       -13.9573
  48   2.0000      -0.508850       -13.8465
  49   2.0000      -0.498405       -13.5623
  50   2.0000      -0.487328       -13.2609
  51   2.0000      -0.479528       -13.0486
  52   2.0000      -0.475684       -12.9440
  53   2.0000      -0.471419       -12.8280
  54   2.0000      -0.458255       -12.4698
  55   2.0000      -0.446542       -12.1510
  56   2.0000      -0.441251       -12.0071
  57   2.0000      -0.435738       -11.8570
  58   2.0000      -0.429626       -11.6907
  59   2.0000      -0.425498       -11.5784
  60   2.0000      -0.421325       -11.4648
  61   2.0000      -0.413228       -11.2445
  62   2.0000      -0.409587       -11.1454
  63   2.0000      -0.344958        -9.3868
  64   2.0000      -0.332943        -9.0598
  65   2.0000      -0.328184        -8.9303
  66   2.0000      -0.292244        -7.9524
  67   0.0000       0.033024         0.8986
  68   0.0000       0.064285         1.7493
  69   0.0000       0.112915         3.0726
  70   0.0000       0.129028         3.5110
  71   0.0000       0.140693         3.8285

MULLIKEN ATOMIC CHARGES
-----------------------
   0 S :    0.107944
   1 C :   -0.168375
   2 C :   -0.092276
   3 C :    0.049984
   4 C :   -0.170871
   5 H :    0.003845
   6 C :    0.064845
   7 H :    0.022129
   8 H :    0.022060
   9 C :   -0.035144
  10 H :    0.017378
  11 H :    0.021951
  12 C :   -0.011540
  13 H :    0.021302
  14 H :    0.010484
  15 H :    0.031989
  16 S :    0.122193
  17 C :   -0.053528
  18 C :   -0.061015
  19 C :    0.007751
  20 C :   -0.180124
  21 H :    0.011536
  22 C :    0.075574
  23 H :    0.015810
  24 H :    0.031023
  25 C :   -0.010396
  26 H :    0.013710
  27 H :    0.020484
  28 C :   -0.067405
  29 H :    0.023966
  30 H :    0.029549
  31 H :    0.034406
  32 H :    0.071219
  33 H :    0.019541
Sum of atomic charges:    0.0000000

LOEWDIN ATOMIC CHARGES
----------------------
   0 S :    0.409006
   1 C :   -0.213692
   2 C :   -0.066607
   3 C :   -0.059032
   4 C :   -0.189853
   5 H :    0.029413
   6 C :   -0.028575
   7 H :    0.030474
   8 H :    0.028916
   9 C :   -0.044130
  10 H :    0.022610
  11 H :    0.028910
  12 C :   -0.063391
  13 H :    0.034171
  14 H :    0.011696
  15 H :    0.029963
  16 S :    0.416276
  17 C :   -0.180723
  18 C :   -0.081449
  19 C :   -0.052043
  20 C :   -0.204483
  21 H :    0.033669
  22 C :   -0.023407
  23 H :    0.024843
  24 H :    0.036070
  25 C :   -0.023139
  26 H :    0.014007
  27 H :    0.025231
  28 C :   -0.069821
  29 H :    0.024651
  30 H :    0.019116
  31 H :    0.030774
  32 H :    0.032755
  33 H :    0.017796

  Mayer bond orders larger than 0.100000
B(  0-S ,  1-C ) :   1.1685 B(  0-S ,  4-C ) :   1.1569 B(  1-C ,  2-C ) :   1.5488
B(  1-C ,  4-C ) :   0.1122 B(  1-C , 32-H ) :   0.9671 B(  2-C ,  3-C ) :   1.2856
B(  2-C ,  6-C ) :   1.0095 B(  3-C ,  4-C ) :   1.5544 B(  3-C ,  5-H ) :   0.9956
B(  4-C , 20-C ) :   1.0466 B(  6-C ,  7-H ) :   0.9347 B(  6-C ,  8-H ) :   0.9414
B(  6-C ,  9-C ) :   1.0814 B(  9-C , 10-H ) :   0.9507 B(  9-C , 11-H ) :   0.9468
B(  9-C , 12-C ) :   1.1014 B( 12-C , 13-H ) :   0.9664 B( 12-C , 14-H ) :   0.9727
B( 12-C , 15-H ) :   0.9688 B( 16-S , 17-C ) :   1.1616 B( 16-S , 20-C ) :   1.1416
B( 17-C , 18-C ) :   1.6328 B( 17-C , 33-H ) :   0.9647 B( 18-C , 19-C ) :   1.2422
B( 18-C , 21-H ) :   0.9910 B( 19-C , 20-C ) :   1.5786 B( 19-C , 22-C ) :   1.0430
B( 22-C , 23-H ) :   0.9311 B( 22-C , 24-H ) :   0.9416 B( 22-C , 25-C ) :   1.0610
B( 25-C , 26-H ) :   0.9608 B( 25-C , 27-H ) :   0.9547 B( 25-C , 28-C ) :   1.0759
B( 28-C , 29-H ) :   0.9765 B( 28-C , 30-H ) :   0.9748 B( 28-C , 31-H ) :   0.9730

Dispersion correction           -0.014148698
FINAL SINGLE POINT ENERGY     -1339.861729939547

DIPOLE MOMENT
-------------
                                X             Y             Z
Electronic contribution:    -13.96679     -12.06954       9.07181
Nuclear contribution   :     14.35232      12.36578      -9.11832
                        -----------------------------------------
Total Dipole Moment    :      0.38552       0.29624      -0.04651
                        -----------------------------------------
Magnitude (a.u.)       :      0.48842
Magnitude (Debye)      :      1.24146

Rotational constants in cm-1:     0.021875     0.007242     0.006787
Rotational constants in MHz :   655.810107   217.097965   203.477082

                             ****ORCA TERMINATED NORMALLY****
TOTAL RUN TIME: 0 days 0 hours 0 minutes 31 seconds 345 msec
