                         Program Version 4.2.1 -  RELEASE  -
|  1> ! wB97X-D3 SP def2-SVP
|  2> %pal
|  3> nprocs 16
|  4> end
|  5>
|  6> * xyz 0 1
|  7> S 	 -45.05 	 25.5886 	 84.3625
|  8> C 	 -46.0053 	 25.8099 	 85.8231
|  9> C 	 -45.227 	 25.3309 	 86.8862
| 10> C 	 -43.8974 	 25.0537 	 86.4441
| 11> C 	 -43.5947 	 25.3849 	 85.1409
| 12> H 	 -43.1113 	 24.5745 	 87.0559
| 13> C 	 -45.8028 	 24.9731 	 88.2495
| 14> H 	 -46.1603 	 23.9779 	 88.2047
| 15> H 	 -46.7364 	 25.6771 	 88.3792
| 16> C 	 -44.9785 	 25.2268 	 89.5242
| 17> H 	 -45.5722 	 24.6475 	 90.2955
| 18> H 	 -44.0705 	 24.696 	 89.6531
| 19> C 	 -44.8672 	 26.6644 	 89.904
| 20> H 	 -44.3465 	 27.225 	 89.0994
| 21> H 	 -45.8209 	 27.1376 	 89.9141
| 22> H 	 -44.3397 	 26.92 	 90.8392
| 23> S 	 -42.3649 	 24.7442 	 82.8419
| 24> C 	 -40.6594 	 24.7527 	 82.6181
| 25> C 	 -39.9945 	 25.2536 	 83.7285
| 26> C 	 -40.9365 	 25.4961 	 84.8194
| 27> C 	 -42.2772 	 25.3032 	 84.4735
| 28> H 	 -38.9663 	 25.4314 	 83.6619
| 29> C 	 -40.4417 	 25.8483 	 86.2488
| 30> H 	 -41.1004 	 26.6274 	 86.6963
| 31> H 	 -39.5946 	 26.3821 	 86.1852
| 32> C 	 -40.0661 	 24.6403 	 87.18
| 33> H 	 -39.4121 	 24.0499 	 86.618
| 34> H 	 -40.9926 	 24.039 	 87.3383
| 35> C 	 -39.5479 	 25.1329 	 88.6089
| 36> H 	 -38.8459 	 25.9873 	 88.5999
| 37> H 	 -39.0709 	 24.2392 	 89.1864
| 38> H 	 -40.3761 	 25.4352 	 89.2534
| 39> H 	 -47.0552 	 26.0984 	 85.9274
| 40> H 	 -40.1386 	 24.4385 	 81.7882
| 41> *
| 42>
| 43>                          ****END OF INPUT****

CARTESIAN COORDINATES (ANGSTROEM)
---------------------------------
  S    -45.050000   25.588600   84.362500
  C    -46.005300   25.809900   85.823100
  C    -45.227000   25.330900   86.886200
  C    -43.897400   25.053700   86.444100
  C    -43.594700   25.384900   85.140900
  H    -43.111300   24.574500   87.055900
  C    -45.802800   24.973100   88.249500
  H    -46.160300   23.977900   88.204700
  H    -46.736400   25.677100   88.379200
  C    -44.978500   25.226800   89.524200
  H    -45.572200   24.647500   90.295500
  H    -44.070500   24.696000   89.653100
  C    -44.867200   26.664400   89.904000
  H    -44.346500   27.225000   89.099400
  H    -45.820900   27.137600   89.914100
  H    -44.339700   26.920000   90.839200
  S    -42.364900   24.744200   82.841900
  C    -40.659400   24.752700   82.618100
  C    -39.994500   25.253600   83.728500
  C    -40.936500   25.496100   84.819400
  C    -42.277200   25.303200   84.473500
  H    -38.966300   25.431400   83.661900
  C    -40.441700   25.848300   86.248800
  H    -41.100400   26.627400   86.696300
  H    -39.594600   26.382100   86.185200
  C    -40.066100   24.640300   87.180000
  H    -39.412100   24.049900   86.618000
  H    -40.992600   24.039000   87.338300
  C    -39.547900   25.132900   88.608900
  H    -38.845900   25.987300   88.599900
  H    -39.070900   24.239200   89.186400
  H    -40.376100   25.435200   89.253400
  H    -47.055200   26.098400   85.927400
  H    -40.138600   24.438500   81.788200

 Total Charge           Charge          ....    0
 Multiplicity           Mult            ....    1
 Number of Electrons    NEL             ....  134
 Basis Dimension        Dim             ....  322

ORBITAL ENERGIES
----------------

  NO   OCC          E(Eh)            E(eV)
   0   2.0000     -88.965360     -2420.8705
   1   2.0000     -88.964517     -2420.8476
   2   2.0000     -10.332348      -281.1575
   3   2.0000     -10.328033      -281.0401
   4   2.0000     -10.316663      -280.7307
   5   2.0000     -10.313105      -280.6338
   6   2.0000     -10.312914      -280.6287
   7   2.0000     -10.303428      -280.3705
   8   2.0000     -10.302296      -280.3397
   9   2.0000     -10.296368      -280.1784
  10   2.0000     -10.294836      -280.1367
  11   2.0000     -10.294444      -280.1261
  12   2.0000     -10.290890      -280.0293
  13   2.0000     -10.287506      -279.9373
  14   2.0000     -10.286417      -279.9076
  15   2.0000     -10.275314      -279.6055
  16   2.0000      -8.081237      -219.9016
  17   2.0000      -8.080689      -219.8867
  18   2.0000      -6.039737      -164.3496
  19   2.0000      -6.039186      -164.3346
  20   2.0000      -6.035463      -164.2333
  21   2.0000      -6.035089      -164.2231
  22   2.0000      -6.032063      -164.1408
  23   2.0000      -6.031234      -164.1182
  24   2.0000      -1.017026       -27.6747
  25   2.0000      -0.990953       -26.9652
  26   2.0000      -0.915110       -24.9014
  27   2.0000      -0.900359       -24.5000
  28   2.0000      -0.874314       -23.7913
  29   2.0000      -0.845502       -23.0073
  30   2.0000      -0.841760       -22.9055
  31   2.0000      -0.817899       -22.2562
  32   2.0000      -0.783208       -21.3122
  33   2.0000      -0.774484       -21.0748
  34   2.0000      -0.713165       -19.4062
  35   2.0000      -0.705439       -19.1960
  36   2.0000      -0.695195       -18.9172
  37   2.0000      -0.668501       -18.1908
  38   2.0000      -0.638072       -17.3628
  39   2.0000      -0.619655       -16.8617
  40   2.0000      -0.593836       -16.1591
  41   2.0000      -0.574668       -15.6375
  42   2.0000      -0.565759       -15.3951
  43   2.0000      -0.558412       -15.1952
  44   2.0000      -0.532650       -14.4942
  45   2.0000      -0.521768       -14.1980
  46   2.0000      -0.517192       -14.0735
  47   2.0000      -0.515213       -14.0197
  48   2.0000      -0.506681       -13.7875
  49   2.0000      -0.502104       -13.6629
  50   2.0000      -0.488032       -13.2800
  51   2.0000      -0.481164       -13.0931
  52   2.0000      -0.472952       -12.8697
  53   2.0000      -0.469102       -12.7649
  54   2.0000      -0.458546       -12.4777
  55   2.0000      -0.451557       -12.2875
  56   2.0000      -0.449939       -12.2435
  57   2.0000      -0.439708       -11.9651
  58   2.0000      -0.432820       -11.7776
  59   2.0000      -0.426680       -11.6105
  60   2.0000      -0.421571       -11.4715
  61   2.0000      -0.412361       -11.2209
  62   2.0000      -0.400897       -10.9090
  63   2.0000      -0.357562        -9.7298
  64   2.0000      -0.331166        -9.0115
  65   2.0000      -0.322418        -8.7734
  66   2.0000      -0.288630        -7.8540
  67   0.0000       0.023573         0.6414
  68   0.0000       0.076062         2.0697
  69   0.0000       0.103603         2.8192
  70   0.0000       0.119770         3.2591
  71   0.0000       0.122274         3.3272

MULLIKEN ATOMIC CHARGES
-----------------------
   0 S :    0.103374
   1 C :   -0.124286
   2 C :   -0.079586
   3 C :   -0.009223
   4 C :   -0.089916
   5 H :    0.003306
   6 C :    0.024550
   7 H :    0.045301
   8 H :    0.032463
   9 C :   -0.057011
  10 H :    0.022008
  11 H :    0.018717
  12 C :   -0.037203
  13 H :    0.033388
  14 H :    0.014132
  15 H :    0.041573
  16 S :    0.096136
  17 C :   -0.052432
  18 C :   -0.019553
  19 C :   -0.080484
  20 C :   -0.119790
  21 H :    0.005250
  22 C :    0.082933
  23 H :    0.032562
  24 H :   -0.025029
  25 C :   -0.033187
  26 H :    0.018247
  27 H :    0.031763
  28 C :   -0.093972
  29 H :    0.042411
  30 H :    0.050959
  31 H :    0.038887
  32 H :    0.056263
  33 H :    0.027450
Sum of atomic charges:   -0.0000000

LOEWDIN ATOMIC CHARGES
----------------------
   0 S :    0.436659
   1 C :   -0.203299
   2 C :   -0.067967
   3 C :   -0.080347
   4 C :   -0.218929
   5 H :    0.029378
   6 C :   -0.028479
   7 H :    0.031229
   8 H :    0.042773
   9 C :   -0.051452
  10 H :    0.031851
  11 H :    0.017377
  12 C :   -0.069127
  13 H :    0.031078
  14 H :    0.019807
  15 H :    0.030539
  16 S :    0.426161
  17 C :   -0.178178
  18 C :   -0.063036
  19 C :   -0.052442
  20 C :   -0.196112
  21 H :    0.025222
  22 C :   -0.033097
  23 H :    0.035463
  24 H :    0.009176
  25 C :   -0.027133
  26 H :    0.015559
  27 H :    0.023936
  28 C :   -0.076460
  29 H :    0.025284
  30 H :    0.038358
  31 H :    0.026241
  32 H :    0.034949
  33 H :    0.015020

  Mayer bond orders larger than 0.100000
B(  0-S ,  1-C ) :   1.1442 B(  0-S ,  4-C ) :   1.1821 B(  1-C ,  2-C ) :   1.5603
B(  1-C ,  4-C ) :   0.1068 B(  1-C , 32-H ) :   0.9729 B(  2-C ,  3-C ) :   1.2778
B(  2-C ,  6-C ) :   1.0139 B(  3-C ,  4-C ) :   1.5147 B(  3-C ,  5-H ) :   0.9956
B(  4-C , 20-C ) :   1.0377 B(  6-C ,  7-H ) :   0.9403 B(  6-C ,  8-H ) :   0.9440
B(  6-C ,  9-C ) :   1.0736 B(  9-C , 10-H ) :   0.9471 B(  9-C , 11-H ) :   0.9525
B(  9-C , 12-C ) :   1.0784 B( 12-C , 13-H ) :   0.9733 B( 12-C , 14-H ) :   0.9689
B( 12-C , 15-H ) :   0.9733 B( 16-S , 17-C ) :   1.1715 B( 16-S , 20-C ) :   1.1432
B( 17-C , 18-C ) :   1.6028 B( 17-C , 33-H ) :   0.9761 B( 18-C , 19-C ) :   1.2326
B( 18-C , 21-H ) :   1.0022 B( 19-C , 20-C ) :   1.5998 B( 19-C , 22-C ) :   1.0497
B( 22-C , 23-H ) :   0.9393 B( 22-C , 24-H ) :   0.9215 B( 22-C , 25-C ) :   1.0469
B( 25-C , 26-H ) :   0.9561 B( 25-C , 27-H ) :   0.9580 B( 25-C , 28-C ) :   1.0578
B( 28-C , 29-H ) :   0.9786 B( 28-C , 30-H ) :   0.9761 B( 28-C , 31-H ) :   0.9774

Dispersion correction           -0.014226828
FINAL SINGLE POINT ENERGY     -1339.845853511987

DIPOLE MOMENT
-------------
                                X             Y             Z
Electronic contribution:     -7.01189      -2.08075     -32.03516
Nuclear contribution   :      7.31525       1.94300      32.63027
                        -----------------------------------------
Total Dipole Moment    :      0.30336      -0.13775       0.59511
                        -----------------------------------------
Magnitude (a.u.)       :      0.68203
Magnitude (Debye)      :      1.73358

Rotational constants in cm-1:     0.016777     0.010184     0.006639
Rotational constants in MHz :   502.957429   305.319752   199.027655

                             ****ORCA TERMINATED NORMALLY****
TOTAL RUN TIME: 0 days 0 hours 0 minutes 30 seconds 612 msec
