                         Program Version 4.2.1 -  RELEASE  -
|  1> ! wB97X-D3 SP def2-SVP
|  2> %pal
|  3> nprocs 16
|  4> end
|  5>
|  6> * xyz 0 1
|  7> S 	 -69.0031 	 39.8632 	 125.417
|  8> C 	 -70.0286 	 41.2677 	 125.665
|  9> C 	 -70.725 	 41.1598 	 126.81
| 10> C 	 -70.2716 	 39.9995 	 127.548
| 11> C 	 -69.268 	 39.2617 	 126.945
| 12> H 	 -70.6137 	 39.7249 	 128.481
| 13> C 	 -71.9611 	 41.9803 	 127.223
| 14> H 	 -71.9289 	 42.2194 	 128.3
| 15> H 	 -72.9075 	 41.4976 	 127.04
| 16> C 	 -72.1248 	 43.3184 	 126.425
| 17> H 	 -71.2265 	 43.8697 	 126.639
| 18> H 	 -72.1548 	 43.0941 	 125.354
| 19> C 	 -73.3784 	 44.0143 	 126.78
| 20> H 	 -74.2781 	 43.415 	 126.495
| 21> H 	 -73.4172 	 44.1652 	 127.923
| 22> H 	 -73.4114 	 44.9703 	 126.353
| 23> S 	 -69.4581 	 36.5731 	 126.871
| 24> C 	 -68.5405 	 35.5908 	 127.985
| 25> C 	 -67.8438 	 36.3646 	 128.875
| 26> C 	 -67.9319 	 37.7558 	 128.607
| 27> C 	 -68.7796 	 37.9949 	 127.493
| 28> H 	 -67.3521 	 36.0015 	 129.792
| 29> C 	 -67.2289 	 38.7873 	 129.466
| 30> H 	 -67.4735 	 38.4022 	 130.462
| 31> H 	 -67.7781 	 39.6626 	 129.175
| 32> C 	 -65.7554 	 38.9565 	 129.168
| 33> H 	 -65.4855 	 39.3835 	 128.183
| 34> H 	 -65.3333 	 37.922 	 129.159
| 35> C 	 -65.1296 	 39.8779 	 130.233
| 36> H 	 -65.5871 	 40.8321 	 130.306
| 37> H 	 -64.0488 	 40.14 	 130.061
| 38> H 	 -65.1224 	 39.3786 	 131.22
| 39> H 	 -70.119 	 42.1105 	 124.987
| 40> H 	 -68.5416 	 34.5166 	 128.02
| 41> *
| 42>
| 43>                          ****END OF INPUT****

CARTESIAN COORDINATES (ANGSTROEM)
---------------------------------
  S    -69.003100   39.863200  125.417000
  C    -70.028600   41.267700  125.665000
  C    -70.725000   41.159800  126.810000
  C    -70.271600   39.999500  127.548000
  C    -69.268000   39.261700  126.945000
  H    -70.613700   39.724900  128.481000
  C    -71.961100   41.980300  127.223000
  H    -71.928900   42.219400  128.300000
  H    -72.907500   41.497600  127.040000
  C    -72.124800   43.318400  126.425000
  H    -71.226500   43.869700  126.639000
  H    -72.154800   43.094100  125.354000
  C    -73.378400   44.014300  126.780000
  H    -74.278100   43.415000  126.495000
  H    -73.417200   44.165200  127.923000
  H    -73.411400   44.970300  126.353000
  S    -69.458100   36.573100  126.871000
  C    -68.540500   35.590800  127.985000
  C    -67.843800   36.364600  128.875000
  C    -67.931900   37.755800  128.607000
  C    -68.779600   37.994900  127.493000
  H    -67.352100   36.001500  129.792000
  C    -67.228900   38.787300  129.466000
  H    -67.473500   38.402200  130.462000
  H    -67.778100   39.662600  129.175000
  C    -65.755400   38.956500  129.168000
  H    -65.485500   39.383500  128.183000
  H    -65.333300   37.922000  129.159000
  C    -65.129600   39.877900  130.233000
  H    -65.587100   40.832100  130.306000
  H    -64.048800   40.140000  130.061000
  H    -65.122400   39.378600  131.220000
  H    -70.119000   42.110500  124.987000
  H    -68.541600   34.516600  128.020000

 Total Charge           Charge          ....    0
 Multiplicity           Mult            ....    1
 Number of Electrons    NEL             ....  134
 Basis Dimension        Dim             ....  322

ORBITAL ENERGIES
----------------

  NO   OCC          E(Eh)            E(eV)
   0   2.0000     -88.965940     -2420.8863
   1   2.0000     -88.963495     -2420.8198
   2   2.0000     -10.322316      -280.8845
   3   2.0000     -10.320896      -280.8459
   4   2.0000     -10.313497      -280.6445
   5   2.0000     -10.310560      -280.5646
   6   2.0000     -10.299916      -280.2750
   7   2.0000     -10.298271      -280.2302
   8   2.0000     -10.296170      -280.1730
   9   2.0000     -10.290818      -280.0274
  10   2.0000     -10.289102      -279.9807
  11   2.0000     -10.286913      -279.9211
  12   2.0000     -10.284858      -279.8652
  13   2.0000     -10.284253      -279.8488
  14   2.0000     -10.282403      -279.7984
  15   2.0000     -10.277083      -279.6537
  16   2.0000      -8.081701      -219.9143
  17   2.0000      -8.079870      -219.8644
  18   2.0000      -6.040062      -164.3584
  19   2.0000      -6.038330      -164.3113
  20   2.0000      -6.035989      -164.2476
  21   2.0000      -6.034084      -164.1958
  22   2.0000      -6.032636      -164.1564
  23   2.0000      -6.030627      -164.1017
  24   2.0000      -1.015888       -27.6437
  25   2.0000      -0.991537       -26.9811
  26   2.0000      -0.917076       -24.9549
  27   2.0000      -0.911292       -24.7975
  28   2.0000      -0.874628       -23.7999
  29   2.0000      -0.850087       -23.1320
  30   2.0000      -0.848460       -23.0878
  31   2.0000      -0.813013       -22.1232
  32   2.0000      -0.782775       -21.3004
  33   2.0000      -0.769788       -20.9470
  34   2.0000      -0.708126       -19.2691
  35   2.0000      -0.699656       -19.0386
  36   2.0000      -0.688966       -18.7477
  37   2.0000      -0.661352       -17.9963
  38   2.0000      -0.645614       -17.5680
  39   2.0000      -0.613564       -16.6959
  40   2.0000      -0.593299       -16.1445
  41   2.0000      -0.577025       -15.7016
  42   2.0000      -0.574047       -15.6206
  43   2.0000      -0.565449       -15.3867
  44   2.0000      -0.527880       -14.3643
  45   2.0000      -0.520828       -14.1724
  46   2.0000      -0.515977       -14.0404
  47   2.0000      -0.514720       -14.0062
  48   2.0000      -0.507427       -13.8078
  49   2.0000      -0.502207       -13.6658
  50   2.0000      -0.494145       -13.4464
  51   2.0000      -0.480570       -13.0770
  52   2.0000      -0.474762       -12.9189
  53   2.0000      -0.468860       -12.7583
  54   2.0000      -0.455665       -12.3993
  55   2.0000      -0.453323       -12.3356
  56   2.0000      -0.447588       -12.1795
  57   2.0000      -0.434643       -11.8273
  58   2.0000      -0.426932       -11.6174
  59   2.0000      -0.425370       -11.5749
  60   2.0000      -0.420315       -11.4374
  61   2.0000      -0.415478       -11.3057
  62   2.0000      -0.414184       -11.2705
  63   2.0000      -0.338797        -9.2191
  64   2.0000      -0.333005        -9.0615
  65   2.0000      -0.322038        -8.7631
  66   2.0000      -0.302656        -8.2357
  67   0.0000       0.047928         1.3042
  68   0.0000       0.063702         1.7334
  69   0.0000       0.117009         3.1840
  70   0.0000       0.118170         3.2156
  71   0.0000       0.141168         3.8414

MULLIKEN ATOMIC CHARGES
-----------------------
   0 S :    0.119653
   1 C :   -0.144398
   2 C :   -0.048812
   3 C :    0.062741
   4 C :   -0.170865
   5 H :   -0.027178
   6 C :    0.049485
   7 H :    0.031530
   8 H :    0.036624
   9 C :   -0.120639
  10 H :    0.031153
  11 H :    0.035150
  12 C :   -0.026339
  13 H :    0.040245
  14 H :    0.030122
  15 H :    0.027934
  16 S :    0.131391
  17 C :   -0.086750
  18 C :   -0.038590
  19 C :   -0.072728
  20 C :   -0.179444
  21 H :    0.024427
  22 C :    0.105215
  23 H :    0.031175
  24 H :    0.020398
  25 C :   -0.068281
  26 H :    0.039038
  27 H :    0.029303
  28 C :   -0.050479
  29 H :    0.027915
  30 H :    0.033335
  31 H :    0.029209
  32 H :    0.048881
  33 H :    0.049576
Sum of atomic charges:    0.0000000

LOEWDIN ATOMIC CHARGES
----------------------
   0 S :    0.438677
   1 C :   -0.195056
   2 C :   -0.065425
   3 C :   -0.051992
   4 C :   -0.234473
   5 H :    0.013404
   6 C :   -0.025399
   7 H :    0.030904
   8 H :    0.030781
   9 C :   -0.047637
  10 H :    0.020909
  11 H :    0.023459
  12 C :   -0.063745
  13 H :    0.031111
  14 H :    0.031969
  15 H :    0.019974
  16 S :    0.441045
  17 C :   -0.189587
  18 C :   -0.077180
  19 C :   -0.055607
  20 C :   -0.224077
  21 H :    0.034970
  22 C :   -0.029821
  23 H :    0.036062
  24 H :    0.029877
  25 C :   -0.040984
  26 H :    0.031495
  27 H :    0.026749
  28 C :   -0.070895
  29 H :    0.020286
  30 H :    0.029337
  31 H :    0.025591
  32 H :    0.028694
  33 H :    0.026587

  Mayer bond orders larger than 0.100000
B(  0-S ,  1-C ) :   1.1363 B(  0-S ,  4-C ) :   1.1717 B(  1-C ,  2-C ) :   1.6260
B(  1-C , 32-H ) :   0.9630 B(  2-C ,  3-C ) :   1.2415 B(  2-C ,  6-C ) :   1.0063
B(  3-C ,  4-C ) :   1.5617 B(  3-C ,  5-H ) :   1.0125 B(  4-C , 20-C ) :   0.9943
B(  6-C ,  7-H ) :   0.9407 B(  6-C ,  8-H ) :   0.9450 B(  6-C ,  9-C ) :   1.0726
B(  9-C , 10-H ) :   0.9568 B(  9-C , 11-H ) :   0.9443 B(  9-C , 12-C ) :   1.1013
B( 12-C , 13-H ) :   0.9694 B( 12-C , 14-H ) :   0.9702 B( 12-C , 15-H ) :   0.9680
B( 16-S , 17-C ) :   1.1623 B( 16-S , 20-C ) :   1.1850 B( 17-C , 18-C ) :   1.5861
B( 17-C , 20-C ) :   0.1017 B( 17-C , 33-H ) :   0.9701 B( 18-C , 19-C ) :   1.2825
B( 18-C , 21-H ) :   0.9805 B( 19-C , 20-C ) :   1.5711 B( 19-C , 22-C ) :   1.0179
B( 22-C , 23-H ) :   0.9380 B( 22-C , 24-H ) :   0.9178 B( 22-C , 25-C ) :   1.0739
B( 25-C , 26-H ) :   0.9529 B( 25-C , 27-H ) :   0.9581 B( 25-C , 28-C ) :   1.0771
B( 28-C , 29-H ) :   0.9738 B( 28-C , 30-H ) :   0.9750 B( 28-C , 31-H ) :   0.9761

Dispersion correction           -0.013388477
FINAL SINGLE POINT ENERGY     -1339.876148501705

DIPOLE MOMENT
-------------
                                X             Y             Z
Electronic contribution:      0.54307     -20.26785     -13.36814
Nuclear contribution   :     -0.75808      20.58522      13.78507
                        -----------------------------------------
Total Dipole Moment    :     -0.21501       0.31738       0.41694
                        -----------------------------------------
Magnitude (a.u.)       :      0.56639
Magnitude (Debye)      :      1.43964

Rotational constants in cm-1:     0.020100     0.007206     0.006119
Rotational constants in MHz :   602.584422   216.019247   183.437320

                             ****ORCA TERMINATED NORMALLY****
TOTAL RUN TIME: 0 days 0 hours 0 minutes 32 seconds 583 msec
