                         Program Version 4.2.1 -  RELEASE  -
|  1> ! wB97X-D3 SP def2-SVP
|  2> %pal
|  3> nprocs 16
|  4> end
|  5>
|  6> * xyz 0 1
|  7> S 	 44.1539 	 19.048 	 86.7241
|  8> C 	 42.509 	 19.3997 	 87.1664
|  9> C 	 41.5964 	 18.5604 	 86.58
| 10> C 	 42.239 	 17.6901 	 85.6664
| 11> C 	 43.5992 	 17.602 	 85.8277
| 12> H 	 41.8077 	 17.0211 	 84.9528
| 13> C 	 40.0676 	 18.6248 	 86.708
| 14> H 	 39.9625 	 18.8566 	 87.7295
| 15> H 	 39.945 	 17.5269 	 86.5087
| 16> C 	 39.2158 	 19.4979 	 85.8404
| 17> H 	 39.2512 	 20.4796 	 86.1825
| 18> H 	 39.5799 	 19.5529 	 84.7844
| 19> C 	 37.6983 	 19.2711 	 85.8787
| 20> H 	 37.3692 	 19.0427 	 86.8757
| 21> H 	 37.2016 	 20.1904 	 85.4299
| 22> H 	 37.3972 	 18.3687 	 85.3251
| 23> S 	 45.5671 	 17.8706 	 83.9536
| 24> C 	 46.5867 	 16.5497 	 83.4148
| 25> C 	 46.0363 	 15.3776 	 83.855
| 26> C 	 44.8985 	 15.5388 	 84.7483
| 27> C 	 44.5356 	 16.8605 	 84.9893
| 28> H 	 46.4278 	 14.5395 	 83.3728
| 29> C 	 43.9759 	 14.3778 	 85.1648
| 30> H 	 44.0743 	 13.585 	 84.3646
| 31> H 	 42.9211 	 14.6381 	 85.0661
| 32> C 	 44.2067 	 13.8582 	 86.5897
| 33> H 	 44.0062 	 14.7046 	 87.3175
| 34> H 	 45.2492 	 13.511 	 86.633
| 35> C 	 43.4288 	 12.619 	 86.9341
| 36> H 	 43.8251 	 11.859 	 86.2796
| 37> H 	 42.3415 	 12.656 	 86.742
| 38> H 	 43.7583 	 12.3488 	 87.9444
| 39> H 	 42.2525 	 20.2259 	 87.8298
| 40> H 	 47.2618 	 16.5577 	 82.5688
| 41> *
| 42>
| 43>                          ****END OF INPUT****

CARTESIAN COORDINATES (ANGSTROEM)
---------------------------------
  S     44.153900   19.048000   86.724100
  C     42.509000   19.399700   87.166400
  C     41.596400   18.560400   86.580000
  C     42.239000   17.690100   85.666400
  C     43.599200   17.602000   85.827700
  H     41.807700   17.021100   84.952800
  C     40.067600   18.624800   86.708000
  H     39.962500   18.856600   87.729500
  H     39.945000   17.526900   86.508700
  C     39.215800   19.497900   85.840400
  H     39.251200   20.479600   86.182500
  H     39.579900   19.552900   84.784400
  C     37.698300   19.271100   85.878700
  H     37.369200   19.042700   86.875700
  H     37.201600   20.190400   85.429900
  H     37.397200   18.368700   85.325100
  S     45.567100   17.870600   83.953600
  C     46.586700   16.549700   83.414800
  C     46.036300   15.377600   83.855000
  C     44.898500   15.538800   84.748300
  C     44.535600   16.860500   84.989300
  H     46.427800   14.539500   83.372800
  C     43.975900   14.377800   85.164800
  H     44.074300   13.585000   84.364600
  H     42.921100   14.638100   85.066100
  C     44.206700   13.858200   86.589700
  H     44.006200   14.704600   87.317500
  H     45.249200   13.511000   86.633000
  C     43.428800   12.619000   86.934100
  H     43.825100   11.859000   86.279600
  H     42.341500   12.656000   86.742000
  H     43.758300   12.348800   87.944400
  H     42.252500   20.225900   87.829800
  H     47.261800   16.557700   82.568800

 Total Charge           Charge          ....    0
 Multiplicity           Mult            ....    1
 Number of Electrons    NEL             ....  134
 Basis Dimension        Dim             ....  322

ORBITAL ENERGIES
----------------

  NO   OCC          E(Eh)            E(eV)
   0   2.0000     -88.966431     -2420.8997
   1   2.0000     -88.958303     -2420.6785
   2   2.0000     -10.331733      -281.1408
   3   2.0000     -10.330037      -281.0946
   4   2.0000     -10.316092      -280.7151
   5   2.0000     -10.314656      -280.6761
   6   2.0000     -10.309054      -280.5236
   7   2.0000     -10.301465      -280.3171
   8   2.0000     -10.294840      -280.1368
   9   2.0000     -10.293622      -280.1037
  10   2.0000     -10.293327      -280.0957
  11   2.0000     -10.291560      -280.0476
  12   2.0000     -10.284834      -279.8646
  13   2.0000     -10.284638      -279.8592
  14   2.0000     -10.284318      -279.8505
  15   2.0000     -10.274505      -279.5835
  16   2.0000      -8.080900      -219.8925
  17   2.0000      -8.072862      -219.6737
  18   2.0000      -6.039407      -164.3406
  19   2.0000      -6.035594      -164.2369
  20   2.0000      -6.031493      -164.1253
  21   2.0000      -6.031476      -164.1248
  22   2.0000      -6.027267      -164.0103
  23   2.0000      -6.023589      -163.9102
  24   2.0000      -1.006808       -27.3966
  25   2.0000      -0.983458       -26.7613
  26   2.0000      -0.915650       -24.9161
  27   2.0000      -0.906090       -24.6560
  28   2.0000      -0.874754       -23.8033
  29   2.0000      -0.854885       -23.2626
  30   2.0000      -0.844248       -22.9731
  31   2.0000      -0.821347       -22.3500
  32   2.0000      -0.782111       -21.2823
  33   2.0000      -0.768705       -20.9175
  34   2.0000      -0.707410       -19.2496
  35   2.0000      -0.704582       -19.1727
  36   2.0000      -0.683295       -18.5934
  37   2.0000      -0.659835       -17.9550
  38   2.0000      -0.646314       -17.5871
  39   2.0000      -0.623449       -16.9649
  40   2.0000      -0.590710       -16.0740
  41   2.0000      -0.570904       -15.5351
  42   2.0000      -0.568585       -15.4720
  43   2.0000      -0.560076       -15.2404
  44   2.0000      -0.534731       -14.5508
  45   2.0000      -0.528898       -14.3921
  46   2.0000      -0.521254       -14.1840
  47   2.0000      -0.513231       -13.9657
  48   2.0000      -0.502790       -13.6816
  49   2.0000      -0.498033       -13.5522
  50   2.0000      -0.495475       -13.4826
  51   2.0000      -0.477222       -12.9859
  52   2.0000      -0.471568       -12.8320
  53   2.0000      -0.464459       -12.6386
  54   2.0000      -0.457845       -12.4586
  55   2.0000      -0.452832       -12.3222
  56   2.0000      -0.441287       -12.0080
  57   2.0000      -0.437672       -11.9097
  58   2.0000      -0.428785       -11.6678
  59   2.0000      -0.421607       -11.4725
  60   2.0000      -0.415533       -11.3072
  61   2.0000      -0.410271       -11.1641
  62   2.0000      -0.407438       -11.0870
  63   2.0000      -0.346789        -9.4366
  64   2.0000      -0.328895        -8.9497
  65   2.0000      -0.322995        -8.7892
  66   2.0000      -0.298638        -8.1264
  67   0.0000       0.028165         0.7664
  68   0.0000       0.058711         1.5976
  69   0.0000       0.106034         2.8853
  70   0.0000       0.119149         3.2422
  71   0.0000       0.127426         3.4674

MULLIKEN ATOMIC CHARGES
-----------------------
   0 S :    0.108844
   1 C :   -0.124034
   2 C :   -0.092640
   3 C :    0.023098
   4 C :   -0.133314
   5 H :    0.016286
   6 C :    0.085603
   7 H :    0.016029
   8 H :    0.029713
   9 C :   -0.019667
  10 H :    0.006522
  11 H :    0.033414
  12 C :   -0.071535
  13 H :    0.025099
  14 H :    0.052917
  15 H :    0.030933
  16 S :    0.077399
  17 C :   -0.087140
  18 C :   -0.030615
  19 C :   -0.001315
  20 C :   -0.165477
  21 H :    0.000294
  22 C :    0.012319
  23 H :    0.022601
  24 H :    0.017567
  25 C :   -0.098815
  26 H :    0.052031
  27 H :    0.029034
  28 C :   -0.018667
  29 H :    0.014255
  30 H :    0.036026
  31 H :    0.038418
  32 H :    0.051783
  33 H :    0.063032
Sum of atomic charges:    0.0000000

LOEWDIN ATOMIC CHARGES
----------------------
   0 S :    0.397487
   1 C :   -0.189517
   2 C :   -0.070513
   3 C :   -0.049043
   4 C :   -0.189530
   5 H :    0.029351
   6 C :   -0.031417
   7 H :    0.027099
   8 H :    0.038679
   9 C :   -0.045255
  10 H :    0.018132
  11 H :    0.030894
  12 C :   -0.064032
  13 H :    0.021228
  14 H :    0.038366
  15 H :    0.022967
  16 S :    0.386336
  17 C :   -0.185485
  18 C :   -0.069154
  19 C :   -0.056853
  20 C :   -0.185964
  21 H :    0.023052
  22 C :   -0.039259
  23 H :    0.031745
  24 H :    0.023685
  25 C :   -0.047269
  26 H :    0.031820
  27 H :    0.027574
  28 C :   -0.066799
  29 H :    0.022002
  30 H :    0.024611
  31 H :    0.031426
  32 H :    0.029636
  33 H :    0.033999

  Mayer bond orders larger than 0.100000
B(  0-S ,  1-C ) :   1.1493 B(  0-S ,  4-C ) :   1.1318 B(  1-C ,  2-C ) :   1.6104
B(  1-C , 32-H ) :   0.9664 B(  2-C ,  3-C ) :   1.2367 B(  2-C ,  6-C ) :   0.9906
B(  3-C ,  4-C ) :   1.5983 B(  3-C ,  5-H ) :   0.9864 B(  4-C , 20-C ) :   1.0304
B(  6-C ,  7-H ) :   0.9295 B(  6-C ,  8-H ) :   0.9444 B(  6-C ,  9-C ) :   1.0774
B(  9-C , 10-H ) :   0.9482 B(  9-C , 11-H ) :   0.9550 B(  9-C , 12-C ) :   1.0743
B( 12-C , 13-H ) :   0.9740 B( 12-C , 14-H ) :   0.9760 B( 12-C , 15-H ) :   0.9765
B( 16-S , 17-C ) :   1.1460 B( 16-S , 20-C ) :   1.1408 B( 17-C , 18-C ) :   1.6308
B( 17-C , 33-H ) :   0.9627 B( 18-C , 19-C ) :   1.2233 B( 18-C , 21-H ) :   0.9978
B( 19-C , 20-C ) :   1.6092 B( 19-C , 22-C ) :   1.0254 B( 22-C , 23-H ) :   0.9425
B( 22-C , 24-H ) :   0.9466 B( 22-C , 25-C ) :   1.0625 B( 25-C , 26-H ) :   0.9545
B( 25-C , 27-H ) :   0.9556 B( 25-C , 28-C ) :   1.0832 B( 28-C , 29-H ) :   0.9719
B( 28-C , 30-H ) :   0.9733 B( 28-C , 31-H ) :   0.9721

Dispersion correction           -0.013344183
FINAL SINGLE POINT ENERGY     -1339.851649687686

DIPOLE MOMENT
-------------
                                X             Y             Z
Electronic contribution:     23.25571      13.34609      -4.98002
Nuclear contribution   :    -23.84833     -13.61568       4.80813
                        -----------------------------------------
Total Dipole Moment    :     -0.59262      -0.26959      -0.17189
                        -----------------------------------------
Magnitude (a.u.)       :      0.67337
Magnitude (Debye)      :      1.71156

Rotational constants in cm-1:     0.017580     0.007866     0.006389
Rotational constants in MHz :   527.026414   235.825094   191.550518

                             ****ORCA TERMINATED NORMALLY****
TOTAL RUN TIME: 0 days 0 hours 0 minutes 28 seconds 659 msec
