                         Program Version 4.2.1 -  RELEASE  -
|  1> ! wB97X-D3 SP def2-SVP
|  2> %pal
|  3> nprocs 16
|  4> end
|  5>
|  6> * xyz 0 1
|  7> S 	 -88.6538 	 49.8566 	 133.35
|  8> C 	 -90.3143 	 50.2197 	 133.725
|  9> C 	 -91.1405 	 50.0107 	 132.634
| 10> C 	 -90.3747 	 49.798 	 131.47
| 11> C 	 -89.0242 	 49.7306 	 131.614
| 12> H 	 -90.8772 	 49.6508 	 130.533
| 13> C 	 -92.6678 	 50.1572 	 132.705
| 14> H 	 -93.1762 	 49.4987 	 133.441
| 15> H 	 -93.1044 	 49.9754 	 131.744
| 16> C 	 -93.1825 	 51.5777 	 133.002
| 17> H 	 -94.2984 	 51.5327 	 133.001
| 18> H 	 -92.8344 	 51.9097 	 133.951
| 19> C 	 -92.8105 	 52.5943 	 131.913
| 20> H 	 -91.7534 	 52.8036 	 132.056
| 21> H 	 -92.8959 	 52.2456 	 130.883
| 22> H 	 -93.275 	 53.5583 	 132.06
| 23> S 	 -86.6436 	 48.43 	 131.177
| 24> C 	 -85.9605 	 48.4128 	 129.558
| 25> C 	 -86.8825 	 48.9921 	 128.69
| 26> C 	 -88.0762 	 49.5093 	 129.253
| 27> C 	 -88.0965 	 49.2737 	 130.613
| 28> H 	 -86.65 	 49.019 	 127.667
| 29> C 	 -89.0212 	 50.412 	 128.411
| 30> H 	 -89.6172 	 50.9783 	 129.159
| 31> H 	 -89.6325 	 49.7775 	 127.742
| 32> C 	 -88.4448 	 51.4147 	 127.335
| 33> H 	 -89.296 	 52.0591 	 126.979
| 34> H 	 -88.0147 	 50.945 	 126.438
| 35> C 	 -87.3447 	 52.276 	 127.853
| 36> H 	 -86.5631 	 51.6301 	 128.322
| 37> H 	 -87.6284 	 52.9654 	 128.629
| 38> H 	 -86.9882 	 52.8439 	 126.998
| 39> H 	 -90.6891 	 50.1949 	 134.728
| 40> H 	 -84.9695 	 48.0218 	 129.205
| 41> *
| 42>
| 43>                          ****END OF INPUT****

CARTESIAN COORDINATES (ANGSTROEM)
---------------------------------
  S    -88.653800   49.856600  133.350000
  C    -90.314300   50.219700  133.725000
  C    -91.140500   50.010700  132.634000
  C    -90.374700   49.798000  131.470000
  C    -89.024200   49.730600  131.614000
  H    -90.877200   49.650800  130.533000
  C    -92.667800   50.157200  132.705000
  H    -93.176200   49.498700  133.441000
  H    -93.104400   49.975400  131.744000
  C    -93.182500   51.577700  133.002000
  H    -94.298400   51.532700  133.001000
  H    -92.834400   51.909700  133.951000
  C    -92.810500   52.594300  131.913000
  H    -91.753400   52.803600  132.056000
  H    -92.895900   52.245600  130.883000
  H    -93.275000   53.558300  132.060000
  S    -86.643600   48.430000  131.177000
  C    -85.960500   48.412800  129.558000
  C    -86.882500   48.992100  128.690000
  C    -88.076200   49.509300  129.253000
  C    -88.096500   49.273700  130.613000
  H    -86.650000   49.019000  127.667000
  C    -89.021200   50.412000  128.411000
  H    -89.617200   50.978300  129.159000
  H    -89.632500   49.777500  127.742000
  C    -88.444800   51.414700  127.335000
  H    -89.296000   52.059100  126.979000
  H    -88.014700   50.945000  126.438000
  C    -87.344700   52.276000  127.853000
  H    -86.563100   51.630100  128.322000
  H    -87.628400   52.965400  128.629000
  H    -86.988200   52.843900  126.998000
  H    -90.689100   50.194900  134.728000
  H    -84.969500   48.021800  129.205000

 Total Charge           Charge          ....    0
 Multiplicity           Mult            ....    1
 Number of Electrons    NEL             ....  134
 Basis Dimension        Dim             ....  322

ORBITAL ENERGIES
----------------

  NO   OCC          E(Eh)            E(eV)
   0   2.0000     -88.968598     -2420.9586
   1   2.0000     -88.968197     -2420.9477
   2   2.0000     -10.331026      -281.1215
   3   2.0000     -10.329960      -281.0925
   4   2.0000     -10.323868      -280.9267
   5   2.0000     -10.312830      -280.6264
   6   2.0000     -10.305609      -280.4299
   7   2.0000     -10.303231      -280.3652
   8   2.0000     -10.302101      -280.3344
   9   2.0000     -10.295589      -280.1572
  10   2.0000     -10.292465      -280.0722
  11   2.0000     -10.290619      -280.0220
  12   2.0000     -10.290618      -280.0219
  13   2.0000     -10.287055      -279.9250
  14   2.0000     -10.272549      -279.5303
  15   2.0000     -10.268909      -279.4312
  16   2.0000      -8.082782      -219.9437
  17   2.0000      -8.082584      -219.9383
  18   2.0000      -6.041435      -164.3958
  19   2.0000      -6.041155      -164.3882
  20   2.0000      -6.037393      -164.2858
  21   2.0000      -6.037217      -164.2810
  22   2.0000      -6.033382      -164.1767
  23   2.0000      -6.033215      -164.1721
  24   2.0000      -1.009853       -27.4795
  25   2.0000      -0.985506       -26.8170
  26   2.0000      -0.912389       -24.8274
  27   2.0000      -0.905762       -24.6470
  28   2.0000      -0.872951       -23.7542
  29   2.0000      -0.854617       -23.2553
  30   2.0000      -0.844036       -22.9674
  31   2.0000      -0.814096       -22.1527
  32   2.0000      -0.784993       -21.3608
  33   2.0000      -0.775302       -21.0970
  34   2.0000      -0.707612       -19.2551
  35   2.0000      -0.699637       -19.0381
  36   2.0000      -0.688555       -18.7365
  37   2.0000      -0.663104       -18.0440
  38   2.0000      -0.638809       -17.3829
  39   2.0000      -0.621856       -16.9216
  40   2.0000      -0.590999       -16.0819
  41   2.0000      -0.577165       -15.7054
  42   2.0000      -0.552280       -15.0283
  43   2.0000      -0.550403       -14.9772
  44   2.0000      -0.545776       -14.8513
  45   2.0000      -0.536425       -14.5969
  46   2.0000      -0.525112       -14.2890
  47   2.0000      -0.507590       -13.8122
  48   2.0000      -0.504450       -13.7268
  49   2.0000      -0.501370       -13.6430
  50   2.0000      -0.496807       -13.5188
  51   2.0000      -0.477315       -12.9884
  52   2.0000      -0.469350       -12.7717
  53   2.0000      -0.464009       -12.6263
  54   2.0000      -0.460114       -12.5203
  55   2.0000      -0.443367       -12.0646
  56   2.0000      -0.442063       -12.0291
  57   2.0000      -0.436936       -11.8896
  58   2.0000      -0.433031       -11.7834
  59   2.0000      -0.424646       -11.5552
  60   2.0000      -0.419233       -11.4079
  61   2.0000      -0.412996       -11.2382
  62   2.0000      -0.411846       -11.2069
  63   2.0000      -0.362196        -9.8559
  64   2.0000      -0.334966        -9.1149
  65   2.0000      -0.331398        -9.0178
  66   2.0000      -0.284245        -7.7347
  67   0.0000       0.016864         0.4589
  68   0.0000       0.075512         2.0548
  69   0.0000       0.101199         2.7538
  70   0.0000       0.121364         3.3025
  71   0.0000       0.133538         3.6337

MULLIKEN ATOMIC CHARGES
-----------------------
   0 S :    0.099413
   1 C :   -0.106255
   2 C :   -0.097722
   3 C :    0.003961
   4 C :   -0.106122
   5 H :    0.004854
   6 C :    0.071216
   7 H :    0.043934
   8 H :    0.007488
   9 C :   -0.076142
  10 H :    0.033849
  11 H :    0.020967
  12 C :   -0.057241
  13 H :    0.032448
  14 H :    0.027568
  15 H :    0.033788
  16 S :    0.101935
  17 C :   -0.107294
  18 C :   -0.027782
  19 C :   -0.048744
  20 C :   -0.147324
  21 H :   -0.002750
  22 C :    0.062388
  23 H :    0.042850
  24 H :    0.042964
  25 C :   -0.105107
  26 H :    0.040774
  27 H :    0.030052
  28 C :   -0.047565
  29 H :    0.043194
  30 H :    0.026673
  31 H :    0.032054
  32 H :    0.050892
  33 H :    0.076785
Sum of atomic charges:   -0.0000000

LOEWDIN ATOMIC CHARGES
----------------------
   0 S :    0.397763
   1 C :   -0.194331
   2 C :   -0.062500
   3 C :   -0.062880
   4 C :   -0.184012
   5 H :    0.028150
   6 C :   -0.029759
   7 H :    0.037148
   8 H :    0.024202
   9 C :   -0.033951
  10 H :    0.026231
  11 H :    0.015060
  12 C :   -0.070215
  13 H :    0.027413
  14 H :    0.022574
  15 H :    0.025653
  16 S :    0.392557
  17 C :   -0.195583
  18 C :   -0.066288
  19 C :   -0.064147
  20 C :   -0.179668
  21 H :    0.020283
  22 C :   -0.033428
  23 H :    0.034445
  24 H :    0.037637
  25 C :   -0.047129
  26 H :    0.033595
  27 H :    0.023260
  28 C :   -0.071747
  29 H :    0.032129
  30 H :    0.020846
  31 H :    0.025935
  32 H :    0.025359
  33 H :    0.045399

  Mayer bond orders larger than 0.100000
B(  0-S ,  1-C ) :   1.1482 B(  0-S ,  4-C ) :   1.1321 B(  1-C ,  2-C ) :   1.5868
B(  1-C , 32-H ) :   0.9652 B(  2-C ,  3-C ) :   1.2873 B(  2-C ,  6-C ) :   1.0224
B(  3-C ,  4-C ) :   1.5331 B(  3-C ,  5-H ) :   0.9932 B(  4-C , 20-C ) :   1.0960
B(  6-C ,  7-H ) :   0.9413 B(  6-C ,  8-H ) :   0.9419 B(  6-C ,  9-C ) :   1.0747
B(  9-C , 10-H ) :   0.9585 B(  9-C , 11-H ) :   0.9569 B(  9-C , 12-C ) :   1.0732
B( 12-C , 13-H ) :   0.9727 B( 12-C , 14-H ) :   0.9766 B( 12-C , 15-H ) :   0.9740
B( 16-S , 17-C ) :   1.1343 B( 16-S , 20-C ) :   1.1325 B( 17-C , 18-C ) :   1.6115
B( 17-C , 33-H ) :   0.9627 B( 18-C , 19-C ) :   1.2482 B( 18-C , 21-H ) :   0.9914
B( 19-C , 20-C ) :   1.5922 B( 19-C , 22-C ) :   1.0320 B( 22-C , 23-H ) :   0.9355
B( 22-C , 24-H ) :   0.9316 B( 22-C , 25-C ) :   1.0696 B( 25-C , 26-H ) :   0.9512
B( 25-C , 27-H ) :   0.9523 B( 25-C , 28-C ) :   1.0896 B( 28-C , 29-H ) :   0.9672
B( 28-C , 30-H ) :   0.9741 B( 28-C , 31-H ) :   0.9730

Dispersion correction           -0.014512463
FINAL SINGLE POINT ENERGY     -1339.880078875830

DIPOLE MOMENT
-------------
                                X             Y             Z
Electronic contribution:     17.16751     -17.10458      13.44861
Nuclear contribution   :    -17.61380      17.27575     -13.89095
                        -----------------------------------------
Total Dipole Moment    :     -0.44628       0.17117      -0.44235
                        -----------------------------------------
Magnitude (a.u.)       :      0.65126
Magnitude (Debye)      :      1.65537

Rotational constants in cm-1:     0.019448     0.008995     0.006744
Rotational constants in MHz :   583.025772   269.665477   202.182209

                             ****ORCA TERMINATED NORMALLY****
TOTAL RUN TIME: 0 days 0 hours 0 minutes 34 seconds 707 msec
