                         Program Version 4.2.1 -  RELEASE  -
|  1> ! wB97X-D3 SP def2-SVP
|  2> %pal
|  3> nprocs 16
|  4> end
|  5>
|  6> * xyz 0 1
|  7> S 	 -71.3154 	 36.3388 	 115.828
|  8> C 	 -73.0575 	 36.486 	 116.161
|  9> C 	 -73.717 	 35.8467 	 115.134
| 10> C 	 -72.8283 	 35.3371 	 114.111
| 11> C 	 -71.487 	 35.4477 	 114.348
| 12> H 	 -73.157 	 34.8595 	 113.197
| 13> C 	 -75.2146 	 35.7595 	 115.047
| 14> H 	 -75.5164 	 35.242 	 115.916
| 15> H 	 -75.5565 	 35.0612 	 114.209
| 16> C 	 -76.0376 	 37.0908 	 114.983
| 17> H 	 -75.6247 	 37.7081 	 115.767
| 18> H 	 -75.8081 	 37.6709 	 114.095
| 19> C 	 -77.5525 	 36.898 	 115.138
| 20> H 	 -77.7815 	 36.1993 	 115.996
| 21> H 	 -78.1848 	 37.7029 	 115.457
| 22> H 	 -78.0592 	 36.3639 	 114.231
| 23> S 	 -69.438 	 33.6239 	 113.991
| 24> C 	 -68.1339 	 33.988 	 112.888
| 25> C 	 -68.6324 	 34.8475 	 111.898
| 26> C 	 -69.8199 	 35.4849 	 112.312
| 27> C 	 -70.3276 	 35.0123 	 113.509
| 28> H 	 -68.1304 	 35.0947 	 111.05
| 29> C 	 -70.3696 	 36.637 	 111.564
| 30> H 	 -71.4545 	 36.5212 	 111.385
| 31> H 	 -69.8511 	 36.7156 	 110.656
| 32> C 	 -70.0969 	 38.0328 	 112.225
| 33> H 	 -69.0083 	 38.2941 	 112.257
| 34> H 	 -70.2231 	 37.8965 	 113.26
| 35> C 	 -70.9106 	 39.2411 	 111.715
| 36> H 	 -71.9698 	 39.0611 	 111.762
| 37> H 	 -70.6656 	 39.3418 	 110.647
| 38> H 	 -70.572 	 40.1589 	 112.158
| 39> H 	 -73.5293 	 37.1793 	 116.766
| 40> H 	 -67.2392 	 33.2882 	 112.723
| 41> *
| 42>
| 43>                          ****END OF INPUT****

CARTESIAN COORDINATES (ANGSTROEM)
---------------------------------
  S    -71.315400   36.338800  115.828000
  C    -73.057500   36.486000  116.161000
  C    -73.717000   35.846700  115.134000
  C    -72.828300   35.337100  114.111000
  C    -71.487000   35.447700  114.348000
  H    -73.157000   34.859500  113.197000
  C    -75.214600   35.759500  115.047000
  H    -75.516400   35.242000  115.916000
  H    -75.556500   35.061200  114.209000
  C    -76.037600   37.090800  114.983000
  H    -75.624700   37.708100  115.767000
  H    -75.808100   37.670900  114.095000
  C    -77.552500   36.898000  115.138000
  H    -77.781500   36.199300  115.996000
  H    -78.184800   37.702900  115.457000
  H    -78.059200   36.363900  114.231000
  S    -69.438000   33.623900  113.991000
  C    -68.133900   33.988000  112.888000
  C    -68.632400   34.847500  111.898000
  C    -69.819900   35.484900  112.312000
  C    -70.327600   35.012300  113.509000
  H    -68.130400   35.094700  111.050000
  C    -70.369600   36.637000  111.564000
  H    -71.454500   36.521200  111.385000
  H    -69.851100   36.715600  110.656000
  C    -70.096900   38.032800  112.225000
  H    -69.008300   38.294100  112.257000
  H    -70.223100   37.896500  113.260000
  C    -70.910600   39.241100  111.715000
  H    -71.969800   39.061100  111.762000
  H    -70.665600   39.341800  110.647000
  H    -70.572000   40.158900  112.158000
  H    -73.529300   37.179300  116.766000
  H    -67.239200   33.288200  112.723000

 Total Charge           Charge          ....    0
 Multiplicity           Mult            ....    1
 Number of Electrons    NEL             ....  134
 Basis Dimension        Dim             ....  322

ORBITAL ENERGIES
----------------

  NO   OCC          E(Eh)            E(eV)
   0   2.0000     -88.965892     -2420.8850
   1   2.0000     -88.964406     -2420.8446
   2   2.0000     -10.333566      -281.1906
   3   2.0000     -10.327130      -281.0155
   4   2.0000     -10.325832      -280.9802
   5   2.0000     -10.313951      -280.6569
   6   2.0000     -10.305132      -280.4169
   7   2.0000     -10.299415      -280.2613
   8   2.0000     -10.295740      -280.1613
   9   2.0000     -10.295309      -280.1496
  10   2.0000     -10.294119      -280.1172
  11   2.0000     -10.291852      -280.0555
  12   2.0000     -10.290663      -280.0232
  13   2.0000     -10.285491      -279.8824
  14   2.0000     -10.279623      -279.7228
  15   2.0000     -10.274603      -279.5862
  16   2.0000      -8.081293      -219.9032
  17   2.0000      -8.078615      -219.8303
  18   2.0000      -6.039723      -164.3492
  19   2.0000      -6.037216      -164.2810
  20   2.0000      -6.035725      -164.2404
  21   2.0000      -6.033006      -164.1664
  22   2.0000      -6.032059      -164.1407
  23   2.0000      -6.029427      -164.0690
  24   2.0000      -1.010920       -27.5085
  25   2.0000      -0.989898       -26.9365
  26   2.0000      -0.910438       -24.7743
  27   2.0000      -0.906513       -24.6675
  28   2.0000      -0.869184       -23.6517
  29   2.0000      -0.851064       -23.1586
  30   2.0000      -0.843293       -22.9472
  31   2.0000      -0.819739       -22.3062
  32   2.0000      -0.780855       -21.2481
  33   2.0000      -0.771526       -20.9943
  34   2.0000      -0.712093       -19.3770
  35   2.0000      -0.705533       -19.1985
  36   2.0000      -0.691944       -18.8288
  37   2.0000      -0.671418       -18.2702
  38   2.0000      -0.645279       -17.5589
  39   2.0000      -0.617718       -16.8090
  40   2.0000      -0.596376       -16.2282
  41   2.0000      -0.578955       -15.7542
  42   2.0000      -0.560689       -15.2571
  43   2.0000      -0.555099       -15.1050
  44   2.0000      -0.527286       -14.3482
  45   2.0000      -0.522099       -14.2070
  46   2.0000      -0.518387       -14.1060
  47   2.0000      -0.513870       -13.9831
  48   2.0000      -0.504322       -13.7233
  49   2.0000      -0.503773       -13.7083
  50   2.0000      -0.495753       -13.4901
  51   2.0000      -0.482343       -13.1252
  52   2.0000      -0.474813       -12.9203
  53   2.0000      -0.466307       -12.6889
  54   2.0000      -0.458102       -12.4656
  55   2.0000      -0.452063       -12.3012
  56   2.0000      -0.441154       -12.0044
  57   2.0000      -0.439216       -11.9517
  58   2.0000      -0.430614       -11.7176
  59   2.0000      -0.425369       -11.5749
  60   2.0000      -0.420811       -11.4508
  61   2.0000      -0.413435       -11.2501
  62   2.0000      -0.403733       -10.9861
  63   2.0000      -0.335147        -9.1198
  64   2.0000      -0.330634        -8.9970
  65   2.0000      -0.326290        -8.8788
  66   2.0000      -0.309324        -8.4171
  67   0.0000       0.033509         0.9118
  68   0.0000       0.049989         1.3603
  69   0.0000       0.107770         2.9326
  70   0.0000       0.125228         3.4076
  71   0.0000       0.126914         3.4535

MULLIKEN ATOMIC CHARGES
-----------------------
   0 S :    0.104923
   1 C :   -0.092608
   2 C :   -0.092189
   3 C :    0.049907
   4 C :   -0.152651
   5 H :    0.005265
   6 C :    0.043457
   7 H :    0.025531
   8 H :    0.030605
   9 C :   -0.041725
  10 H :    0.013921
  11 H :    0.033931
  12 C :   -0.086381
  13 H :    0.022998
  14 H :    0.037228
  15 H :    0.048953
  16 S :    0.123551
  17 C :   -0.119554
  18 C :    0.003432
  19 C :   -0.040311
  20 C :   -0.179282
  21 H :   -0.017429
  22 C :    0.115593
  23 H :    0.029518
  24 H :   -0.001277
  25 C :   -0.088892
  26 H :    0.019717
  27 H :    0.003843
  28 C :   -0.013058
  29 H :    0.034984
  30 H :    0.018566
  31 H :    0.034512
  32 H :    0.036336
  33 H :    0.088584
Sum of atomic charges:    0.0000000

LOEWDIN ATOMIC CHARGES
----------------------
   0 S :    0.407298
   1 C :   -0.179402
   2 C :   -0.060584
   3 C :   -0.065207
   4 C :   -0.199851
   5 H :    0.029323
   6 C :   -0.035662
   7 H :    0.028114
   8 H :    0.035755
   9 C :   -0.039285
  10 H :    0.020096
  11 H :    0.025653
  12 C :   -0.082543
  13 H :    0.029205
  14 H :    0.024906
  15 H :    0.037181
  16 S :    0.432066
  17 C :   -0.196919
  18 C :   -0.056302
  19 C :   -0.055952
  20 C :   -0.213295
  21 H :    0.014290
  22 C :   -0.027279
  23 H :    0.033647
  24 H :    0.021591
  25 C :   -0.041360
  26 H :    0.027552
  27 H :    0.007592
  28 C :   -0.059748
  29 H :    0.023317
  30 H :    0.024736
  31 H :    0.027359
  32 H :    0.017919
  33 H :    0.045788

  Mayer bond orders larger than 0.100000
B(  0-S ,  1-C ) :   1.1357 B(  0-S ,  4-C ) :   1.1547 B(  1-C ,  2-C ) :   1.6000
B(  1-C , 32-H ) :   0.9789 B(  2-C ,  3-C ) :   1.2414 B(  2-C ,  6-C ) :   1.0217
B(  3-C ,  4-C ) :   1.5908 B(  3-C ,  5-H ) :   0.9977 B(  4-C , 20-C ) :   0.9888
B(  6-C ,  7-H ) :   0.9351 B(  6-C ,  8-H ) :   0.9475 B(  6-C ,  9-C ) :   1.0545
B(  9-C , 10-H ) :   0.9543 B(  9-C , 11-H ) :   0.9575 B(  9-C , 12-C ) :   1.0712
B( 12-C , 13-H ) :   0.9717 B( 12-C , 14-H ) :   0.9755 B( 12-C , 15-H ) :   0.9752
B( 16-S , 17-C ) :   1.1773 B( 16-S , 20-C ) :   1.1737 B( 17-C , 18-C ) :   1.5518
B( 17-C , 20-C ) :   0.1086 B( 17-C , 33-H ) :   0.9564 B( 18-C , 19-C ) :   1.2906
B( 18-C , 21-H ) :   1.0005 B( 19-C , 20-C ) :   1.5553 B( 19-C , 22-C ) :   1.0711
B( 22-C , 23-H ) :   0.9294 B( 22-C , 24-H ) :   0.9201 B( 22-C , 25-C ) :   1.0513
B( 25-C , 26-H ) :   0.9506 B( 25-C , 27-H ) :   0.9578 B( 25-C , 28-C ) :   1.0807
B( 28-C , 29-H ) :   0.9762 B( 28-C , 30-H ) :   0.9744 B( 28-C , 31-H ) :   0.9719

Dispersion correction           -0.014285831
FINAL SINGLE POINT ENERGY     -1339.856143042326

DIPOLE MOMENT
-------------
                                X             Y             Z
Electronic contribution:     20.74380     -16.74011       8.63612
Nuclear contribution   :    -21.15490      16.98542      -9.07421
                        -----------------------------------------
Total Dipole Moment    :     -0.41110       0.24531      -0.43809
                        -----------------------------------------
Magnitude (a.u.)       :      0.64892
Magnitude (Debye)      :      1.64944

Rotational constants in cm-1:     0.020799     0.007719     0.006536
Rotational constants in MHz :   623.526510   231.418127   195.944120

                             ****ORCA TERMINATED NORMALLY****
TOTAL RUN TIME: 0 days 0 hours 0 minutes 33 seconds 584 msec
