                         Program Version 4.2.1 -  RELEASE  -
|  1> ! wB97X-D3 SP def2-SVP
|  2> %pal
|  3> nprocs 16
|  4> end
|  5>
|  6> * xyz 0 1
|  7> S 	 18.4457 	 3.1389 	 71.8032
|  8> C 	 19.0932 	 2.47171 	 70.3743
|  9> C 	 20.3516 	 2.99524 	 70.0991
| 10> C 	 20.8039 	 3.9549 	 71.0592
| 11> C 	 19.8996 	 4.14216 	 72.0398
| 12> H 	 21.7907 	 4.36672 	 71.0753
| 13> C 	 21.2699 	 2.48227 	 69.004
| 14> H 	 21.7719 	 3.28991 	 68.563
| 15> H 	 20.658 	 2.05416 	 68.2396
| 16> C 	 22.3801 	 1.49757 	 69.5456
| 17> H 	 23.1856 	 1.39687 	 68.7666
| 18> H 	 22.8505 	 2.08675 	 70.3845
| 19> C 	 21.9248 	 0.166886 	 70.1353
| 20> H 	 22.7608 	 -0.542073 	 70.0407
| 21> H 	 21.6732 	 0.214837 	 71.113
| 22> H 	 21.0513 	 -0.295986 	 69.6379
| 23> S 	 19.6001 	 4.04872 	 74.8679
| 24> C 	 20.1241 	 5.43624 	 75.6991
| 25> C 	 20.6661 	 6.36827 	 74.8482
| 26> C 	 20.7561 	 5.98441 	 73.4881
| 27> C 	 20.0022 	 4.83491 	 73.2994
| 28> H 	 20.9409 	 7.30761 	 75.2669
| 29> C 	 21.3916 	 6.93644 	 72.4523
| 30> H 	 22.1382 	 6.4776 	 71.8345
| 31> H 	 21.868 	 7.75686 	 72.9886
| 32> C 	 20.3656 	 7.49969 	 71.4829
| 33> H 	 19.9331 	 6.695 	 70.8641
| 34> H 	 20.8458 	 8.2545 	 70.8771
| 35> C 	 19.2404 	 8.28075 	 72.2222
| 36> H 	 19.651 	 9.14941 	 72.7595
| 37> H 	 18.8504 	 7.63442 	 73.0593
| 38> H 	 18.4185 	 8.62326 	 71.5174
| 39> H 	 18.6598 	 1.64589 	 69.8383
| 40> H 	 19.9152 	 5.70058 	 76.7549
| 41> *
| 42>
| 43>                          ****END OF INPUT****

CARTESIAN COORDINATES (ANGSTROEM)
---------------------------------
  S     18.445700    3.138900   71.803200
  C     19.093200    2.471710   70.374300
  C     20.351600    2.995240   70.099100
  C     20.803900    3.954900   71.059200
  C     19.899600    4.142160   72.039800
  H     21.790700    4.366720   71.075300
  C     21.269900    2.482270   69.004000
  H     21.771900    3.289910   68.563000
  H     20.658000    2.054160   68.239600
  C     22.380100    1.497570   69.545600
  H     23.185600    1.396870   68.766600
  H     22.850500    2.086750   70.384500
  C     21.924800    0.166886   70.135300
  H     22.760800   -0.542073   70.040700
  H     21.673200    0.214837   71.113000
  H     21.051300   -0.295986   69.637900
  S     19.600100    4.048720   74.867900
  C     20.124100    5.436240   75.699100
  C     20.666100    6.368270   74.848200
  C     20.756100    5.984410   73.488100
  C     20.002200    4.834910   73.299400
  H     20.940900    7.307610   75.266900
  C     21.391600    6.936440   72.452300
  H     22.138200    6.477600   71.834500
  H     21.868000    7.756860   72.988600
  C     20.365600    7.499690   71.482900
  H     19.933100    6.695000   70.864100
  H     20.845800    8.254500   70.877100
  C     19.240400    8.280750   72.222200
  H     19.651000    9.149410   72.759500
  H     18.850400    7.634420   73.059300
  H     18.418500    8.623260   71.517400
  H     18.659800    1.645890   69.838300
  H     19.915200    5.700580   76.754900

 Total Charge           Charge          ....    0
 Multiplicity           Mult            ....    1
 Number of Electrons    NEL             ....  134
 Basis Dimension        Dim             ....  322

ORBITAL ENERGIES
----------------

  NO   OCC          E(Eh)            E(eV)
   0   2.0000     -88.969891     -2420.9938
   1   2.0000     -88.962597     -2420.7953
   2   2.0000     -10.327048      -281.0133
   3   2.0000     -10.326407      -280.9958
   4   2.0000     -10.314125      -280.6616
   5   2.0000     -10.310235      -280.5558
   6   2.0000     -10.303956      -280.3849
   7   2.0000     -10.299250      -280.2568
   8   2.0000     -10.295761      -280.1619
   9   2.0000     -10.294858      -280.1373
  10   2.0000     -10.291794      -280.0540
  11   2.0000     -10.287859      -279.9469
  12   2.0000     -10.285985      -279.8959
  13   2.0000     -10.282636      -279.8048
  14   2.0000     -10.278403      -279.6896
  15   2.0000     -10.270362      -279.4708
  16   2.0000      -8.084470      -219.9896
  17   2.0000      -8.078023      -219.8142
  18   2.0000      -6.043090      -164.4408
  19   2.0000      -6.039039      -164.3306
  20   2.0000      -6.036442      -164.2599
  21   2.0000      -6.035075      -164.2227
  22   2.0000      -6.032434      -164.1509
  23   2.0000      -6.028844      -164.0532
  24   2.0000      -1.010776       -27.5046
  25   2.0000      -0.988256       -26.8918
  26   2.0000      -0.912073       -24.8188
  27   2.0000      -0.906008       -24.6537
  28   2.0000      -0.870810       -23.6960
  29   2.0000      -0.851407       -23.1680
  30   2.0000      -0.844053       -22.9679
  31   2.0000      -0.814470       -22.1629
  32   2.0000      -0.785572       -21.3765
  33   2.0000      -0.773510       -21.0483
  34   2.0000      -0.710598       -19.3364
  35   2.0000      -0.695192       -18.9171
  36   2.0000      -0.682854       -18.5814
  37   2.0000      -0.660910       -17.9843
  38   2.0000      -0.640464       -17.4279
  39   2.0000      -0.626704       -17.0535
  40   2.0000      -0.596493       -16.2314
  41   2.0000      -0.565267       -15.3817
  42   2.0000      -0.556205       -15.1351
  43   2.0000      -0.545292       -14.8382
  44   2.0000      -0.544486       -14.8162
  45   2.0000      -0.540263       -14.7013
  46   2.0000      -0.516820       -14.0634
  47   2.0000      -0.506333       -13.7780
  48   2.0000      -0.503663       -13.7054
  49   2.0000      -0.498974       -13.5778
  50   2.0000      -0.492296       -13.3961
  51   2.0000      -0.477379       -12.9902
  52   2.0000      -0.470969       -12.8157
  53   2.0000      -0.466810       -12.7026
  54   2.0000      -0.459752       -12.5105
  55   2.0000      -0.446749       -12.1567
  56   2.0000      -0.439820       -11.9681
  57   2.0000      -0.434176       -11.8145
  58   2.0000      -0.433757       -11.8031
  59   2.0000      -0.426150       -11.5961
  60   2.0000      -0.420328       -11.4377
  61   2.0000      -0.414855       -11.2888
  62   2.0000      -0.412300       -11.2192
  63   2.0000      -0.357287        -9.7223
  64   2.0000      -0.334647        -9.1062
  65   2.0000      -0.328687        -8.9440
  66   2.0000      -0.286183        -7.7874
  67   0.0000       0.022860         0.6221
  68   0.0000       0.074827         2.0361
  69   0.0000       0.109672         2.9843
  70   0.0000       0.119342         3.2475
  71   0.0000       0.131094         3.5673

MULLIKEN ATOMIC CHARGES
-----------------------
   0 S :    0.096384
   1 C :   -0.102468
   2 C :   -0.121602
   3 C :    0.019562
   4 C :   -0.157528
   5 H :    0.008731
   6 C :    0.115488
   7 H :    0.006938
   8 H :    0.013056
   9 C :   -0.119061
  10 H :    0.041127
  11 H :    0.029452
  12 C :   -0.006267
  13 H :    0.032322
  14 H :    0.019426
  15 H :    0.024290
  16 S :    0.122129
  17 C :   -0.094631
  18 C :   -0.037308
  19 C :   -0.057240
  20 C :   -0.113740
  21 H :    0.001587
  22 C :    0.092737
  23 H :    0.025822
  24 H :    0.017950
  25 C :   -0.079281
  26 H :    0.057058
  27 H :    0.027346
  28 C :   -0.099729
  29 H :    0.021130
  30 H :    0.052373
  31 H :    0.051916
  32 H :    0.044280
  33 H :    0.067753
Sum of atomic charges:   -0.0000000

LOEWDIN ATOMIC CHARGES
----------------------
   0 S :    0.403018
   1 C :   -0.209600
   2 C :   -0.060856
   3 C :   -0.060438
   4 C :   -0.173548
   5 H :    0.030655
   6 C :   -0.025992
   7 H :    0.022963
   8 H :    0.023078
   9 C :   -0.042285
  10 H :    0.026811
  11 H :    0.028609
  12 C :   -0.062468
  13 H :    0.033253
  14 H :    0.013002
  15 H :    0.026491
  16 S :    0.410014
  17 C :   -0.208435
  18 C :   -0.073066
  19 C :   -0.049423
  20 C :   -0.191931
  21 H :    0.023631
  22 C :   -0.023545
  23 H :    0.026541
  24 H :    0.030737
  25 C :   -0.040161
  26 H :    0.028991
  27 H :    0.022113
  28 C :   -0.078277
  29 H :    0.019685
  30 H :    0.030780
  31 H :    0.033046
  32 H :    0.026761
  33 H :    0.039843

  Mayer bond orders larger than 0.100000
B(  0-S ,  1-C ) :   1.1379 B(  0-S ,  4-C ) :   1.1423 B(  1-C ,  2-C ) :   1.6153
B(  1-C , 32-H ) :   0.9695 B(  2-C ,  3-C ) :   1.2305 B(  2-C ,  6-C ) :   1.0375
B(  3-C ,  4-C ) :   1.5824 B(  3-C ,  5-H ) :   0.9938 B(  4-C , 20-C ) :   1.0599
B(  6-C ,  7-H ) :   0.9319 B(  6-C ,  8-H ) :   0.9421 B(  6-C ,  9-C ) :   1.0642
B(  9-C , 10-H ) :   0.9636 B(  9-C , 11-H ) :   0.9565 B(  9-C , 12-C ) :   1.0642
B( 12-C , 13-H ) :   0.9730 B( 12-C , 14-H ) :   0.9747 B( 12-C , 15-H ) :   0.9772
B( 16-S , 17-C ) :   1.1520 B( 16-S , 20-C ) :   1.1326 B( 17-C , 18-C ) :   1.6242
B( 17-C , 33-H ) :   0.9567 B( 18-C , 19-C ) :   1.2348 B( 18-C , 21-H ) :   0.9925
B( 19-C , 20-C ) :   1.5847 B( 19-C , 22-C ) :   1.0356 B( 22-C , 23-H ) :   0.9317
B( 22-C , 24-H ) :   0.9362 B( 22-C , 25-C ) :   1.0802 B( 25-C , 26-H ) :   0.9521
B( 25-C , 27-H ) :   0.9558 B( 25-C , 28-C ) :   1.0673 B( 28-C , 29-H ) :   0.9749
B( 28-C , 30-H ) :   0.9730 B( 28-C , 31-H ) :   0.9748

Dispersion correction           -0.015624696
FINAL SINGLE POINT ENERGY     -1339.882766259840

DIPOLE MOMENT
-------------
                                X             Y             Z
Electronic contribution:    -11.83502      -4.45151      14.61356
Nuclear contribution   :     12.35728       4.62642     -14.82559
                        -----------------------------------------
Total Dipole Moment    :      0.52226       0.17491      -0.21203
                        -----------------------------------------
Magnitude (a.u.)       :      0.59017
Magnitude (Debye)      :      1.50009

Rotational constants in cm-1:     0.020935     0.008883     0.007804
Rotational constants in MHz :   627.624813   266.304245   233.960824

                             ****ORCA TERMINATED NORMALLY****
TOTAL RUN TIME: 0 days 0 hours 0 minutes 37 seconds 214 msec
