                         Program Version 4.2.1 -  RELEASE  -
|  1> ! wB97X-D3 SP def2-SVP
|  2> %pal
|  3> nprocs 16
|  4> end
|  5>
|  6> * xyz 0 1
|  7> S 	 1.54648 	 -4.42747 	 79.2269
|  8> C 	 1.27629 	 -6.15092 	 78.7905
|  9> C 	 -0.0667346 	 -6.40612 	 78.8938
| 10> C 	 -0.788012 	 -5.50372 	 79.768
| 11> C 	 -0.0745653 	 -4.32914 	 80.0015
| 12> H 	 -1.89476 	 -5.58259 	 79.9424
| 13> C 	 -0.661054 	 -7.67005 	 78.5205
| 14> H 	 -0.0719782 	 -8.20653 	 77.8185
| 15> H 	 -1.52898 	 -7.452 	 77.8439
| 16> C 	 -0.998306 	 -8.68114 	 79.6678
| 17> H 	 -1.63246 	 -9.414 	 79.1631
| 18> H 	 -0.0481012 	 -9.10689 	 80.0864
| 19> C 	 -1.70926 	 -8.25916 	 81.0258
| 20> H 	 -1.70312 	 -9.12412 	 81.6511
| 21> H 	 -1.23191 	 -7.53342 	 81.5478
| 22> H 	 -2.74274 	 -7.9261 	 80.7827
| 23> S 	 0.742677 	 -2.81119 	 82.1264
| 24> C 	 -0.307012 	 -1.78587 	 82.9359
| 25> C 	 -1.41662 	 -1.52242 	 82.1941
| 26> C 	 -1.60399 	 -2.38414 	 81.0419
| 27> C 	 -0.470139 	 -3.2494 	 80.9018
| 28> H 	 -1.96491 	 -0.619788 	 82.4442
| 29> C 	 -2.75667 	 -2.21516 	 79.9995
| 30> H 	 -2.93944 	 -3.17518 	 79.5217
| 31> H 	 -2.3632 	 -1.57309 	 79.2109
| 32> C 	 -4.08079 	 -1.65676 	 80.576
| 33> H 	 -4.825 	 -1.4709 	 79.8268
| 34> H 	 -3.86143 	 -0.658283 	 80.967
| 35> C 	 -4.70496 	 -2.57377 	 81.634
| 36> H 	 -4.78136 	 -3.65672 	 81.2648
| 37> H 	 -5.77175 	 -2.3272 	 81.8558
| 38> H 	 -4.13158 	 -2.66095 	 82.6488
| 39> H 	 2.04295 	 -6.84036 	 78.4428
| 40> H 	 0.0116241 	 -1.0771 	 83.8004
| 41> *
| 42>
| 43>                          ****END OF INPUT****

CARTESIAN COORDINATES (ANGSTROEM)
---------------------------------
  S      1.546480   -4.427470   79.226900
  C      1.276290   -6.150920   78.790500
  C     -0.066735   -6.406120   78.893800
  C     -0.788012   -5.503720   79.768000
  C     -0.074565   -4.329140   80.001500
  H     -1.894760   -5.582590   79.942400
  C     -0.661054   -7.670050   78.520500
  H     -0.071978   -8.206530   77.818500
  H     -1.528980   -7.452000   77.843900
  C     -0.998306   -8.681140   79.667800
  H     -1.632460   -9.414000   79.163100
  H     -0.048101   -9.106890   80.086400
  C     -1.709260   -8.259160   81.025800
  H     -1.703120   -9.124120   81.651100
  H     -1.231910   -7.533420   81.547800
  H     -2.742740   -7.926100   80.782700
  S      0.742677   -2.811190   82.126400
  C     -0.307012   -1.785870   82.935900
  C     -1.416620   -1.522420   82.194100
  C     -1.603990   -2.384140   81.041900
  C     -0.470139   -3.249400   80.901800
  H     -1.964910   -0.619788   82.444200
  C     -2.756670   -2.215160   79.999500
  H     -2.939440   -3.175180   79.521700
  H     -2.363200   -1.573090   79.210900
  C     -4.080790   -1.656760   80.576000
  H     -4.825000   -1.470900   79.826800
  H     -3.861430   -0.658283   80.967000
  C     -4.704960   -2.573770   81.634000
  H     -4.781360   -3.656720   81.264800
  H     -5.771750   -2.327200   81.855800
  H     -4.131580   -2.660950   82.648800
  H      2.042950   -6.840360   78.442800
  H      0.011624   -1.077100   83.800400

 Total Charge           Charge          ....    0
 Multiplicity           Mult            ....    1
 Number of Electrons    NEL             ....  134
 Basis Dimension        Dim             ....  322

ORBITAL ENERGIES
----------------

  NO   OCC          E(Eh)            E(eV)
   0   2.0000     -88.962913     -2420.8039
   1   2.0000     -88.962604     -2420.7955
   2   2.0000     -10.336227      -281.2630
   3   2.0000     -10.332767      -281.1689
   4   2.0000     -10.317671      -280.7581
   5   2.0000     -10.316877      -280.7365
   6   2.0000     -10.316214      -280.7185
   7   2.0000     -10.299330      -280.2590
   8   2.0000     -10.298556      -280.2380
   9   2.0000     -10.295991      -280.1682
  10   2.0000     -10.294652      -280.1317
  11   2.0000     -10.292756      -280.0801
  12   2.0000     -10.291761      -280.0531
  13   2.0000     -10.290958      -280.0312
  14   2.0000     -10.287227      -279.9297
  15   2.0000     -10.271178      -279.4930
  16   2.0000      -8.078447      -219.8257
  17   2.0000      -8.076336      -219.7683
  18   2.0000      -6.036771      -164.2689
  19   2.0000      -6.035139      -164.2245
  20   2.0000      -6.032810      -164.1611
  21   2.0000      -6.031177      -164.1167
  22   2.0000      -6.029275      -164.0649
  23   2.0000      -6.026690      -163.9946
  24   2.0000      -1.002787       -27.2872
  25   2.0000      -0.981025       -26.6951
  26   2.0000      -0.907229       -24.6869
  27   2.0000      -0.906195       -24.6588
  28   2.0000      -0.865568       -23.5533
  29   2.0000      -0.843719       -22.9588
  30   2.0000      -0.837113       -22.7790
  31   2.0000      -0.815252       -22.1841
  32   2.0000      -0.784563       -21.3491
  33   2.0000      -0.771133       -20.9836
  34   2.0000      -0.707552       -19.2535
  35   2.0000      -0.698302       -19.0018
  36   2.0000      -0.693060       -18.8591
  37   2.0000      -0.646639       -17.5959
  38   2.0000      -0.633010       -17.2251
  39   2.0000      -0.616678       -16.7807
  40   2.0000      -0.594051       -16.1649
  41   2.0000      -0.569144       -15.4872
  42   2.0000      -0.552166       -15.0252
  43   2.0000      -0.547410       -14.8958
  44   2.0000      -0.537477       -14.6255
  45   2.0000      -0.533202       -14.5092
  46   2.0000      -0.515200       -14.0193
  47   2.0000      -0.505501       -13.7554
  48   2.0000      -0.503582       -13.7032
  49   2.0000      -0.495416       -13.4809
  50   2.0000      -0.490840       -13.3564
  51   2.0000      -0.474873       -12.9220
  52   2.0000      -0.471454       -12.8289
  53   2.0000      -0.459226       -12.4962
  54   2.0000      -0.453510       -12.3406
  55   2.0000      -0.447229       -12.1697
  56   2.0000      -0.443334       -12.0637
  57   2.0000      -0.441853       -12.0234
  58   2.0000      -0.437299       -11.8995
  59   2.0000      -0.422546       -11.4981
  60   2.0000      -0.415608       -11.3093
  61   2.0000      -0.415208       -11.2984
  62   2.0000      -0.402838       -10.9618
  63   2.0000      -0.343190        -9.3387
  64   2.0000      -0.326367        -8.8809
  65   2.0000      -0.323262        -8.7964
  66   2.0000      -0.290806        -7.9132
  67   0.0000       0.023168         0.6304
  68   0.0000       0.068554         1.8654
  69   0.0000       0.097514         2.6535
  70   0.0000       0.119624         3.2551
  71   0.0000       0.134107         3.6492

MULLIKEN ATOMIC CHARGES
-----------------------
   0 S :    0.087165
   1 C :   -0.143172
   2 C :   -0.063795
   3 C :   -0.000623
   4 C :   -0.131148
   5 H :    0.044682
   6 C :    0.058335
   7 H :    0.002618
   8 H :    0.030122
   9 C :   -0.099360
  10 H :    0.035576
  11 H :    0.036148
  12 C :   -0.024127
  13 H :    0.030145
  14 H :    0.028334
  15 H :    0.028827
  16 S :    0.114797
  17 C :   -0.109363
  18 C :   -0.067202
  19 C :   -0.031659
  20 C :   -0.175976
  21 H :    0.026240
  22 C :    0.077460
  23 H :    0.019296
  24 H :    0.050205
  25 C :   -0.045763
  26 H :    0.027814
  27 H :    0.027551
  28 C :   -0.120195
  29 H :    0.033619
  30 H :    0.040971
  31 H :    0.062309
  32 H :    0.060784
  33 H :    0.089385
Sum of atomic charges:    0.0000000

LOEWDIN ATOMIC CHARGES
----------------------
   0 S :    0.352463
   1 C :   -0.179749
   2 C :   -0.068805
   3 C :   -0.064105
   4 C :   -0.177234
   5 H :    0.042588
   6 C :   -0.046868
   7 H :    0.026185
   8 H :    0.038195
   9 C :   -0.033350
  10 H :    0.025513
  11 H :    0.029657
  12 C :   -0.057097
  13 H :    0.026773
  14 H :    0.010573
  15 H :    0.024449
  16 S :    0.431230
  17 C :   -0.223403
  18 C :   -0.087543
  19 C :   -0.044480
  20 C :   -0.196976
  21 H :    0.031958
  22 C :   -0.025789
  23 H :    0.027346
  24 H :    0.038650
  25 C :   -0.045563
  26 H :    0.025931
  27 H :    0.023411
  28 C :   -0.085473
  29 H :    0.029493
  30 H :    0.027714
  31 H :    0.038115
  32 H :    0.033565
  33 H :    0.052625

  Mayer bond orders larger than 0.100000
B(  0-S ,  1-C ) :   1.1044 B(  0-S ,  4-C ) :   1.1274 B(  1-C ,  2-C ) :   1.6177
B(  1-C , 32-H ) :   0.9713 B(  2-C ,  3-C ) :   1.2028 B(  2-C ,  6-C ) :   1.0671
B(  3-C ,  4-C ) :   1.5975 B(  3-C ,  5-H ) :   0.9736 B(  4-C , 20-C ) :   1.0606
B(  6-C ,  7-H ) :   0.9333 B(  6-C ,  8-H ) :   0.9253 B(  6-C ,  9-C ) :   1.0555
B(  9-C , 10-H ) :   0.9565 B(  9-C , 11-H ) :   0.9581 B(  9-C , 12-C ) :   1.0849
B( 12-C , 13-H ) :   0.9711 B( 12-C , 14-H ) :   0.9690 B( 12-C , 15-H ) :   0.9752
B( 16-S , 17-C ) :   1.1805 B( 16-S , 20-C ) :   1.1536 B( 17-C , 18-C ) :   1.6037
B( 17-C , 33-H ) :   0.9482 B( 18-C , 19-C ) :   1.2520 B( 18-C , 21-H ) :   0.9827
B( 19-C , 20-C ) :   1.5556 B( 19-C , 22-C ) :   1.0183 B( 22-C , 23-H ) :   0.9383
B( 22-C , 24-H ) :   0.9381 B( 22-C , 25-C ) :   1.0789 B( 25-C , 26-H ) :   0.9544
B( 25-C , 27-H ) :   0.9485 B( 25-C , 28-C ) :   1.0688 B( 28-C , 29-H ) :   0.9731
B( 28-C , 30-H ) :   0.9756 B( 28-C , 31-H ) :   0.9711

Dispersion correction           -0.014476539
FINAL SINGLE POINT ENERGY     -1339.847844215418

DIPOLE MOMENT
-------------
                                X             Y             Z
Electronic contribution:     23.94182      10.73069      -0.05390
Nuclear contribution   :    -24.50516     -10.78589      -0.08224
                        -----------------------------------------
Total Dipole Moment    :     -0.56335      -0.05520      -0.13614
                        -----------------------------------------
Magnitude (a.u.)       :      0.58219
Magnitude (Debye)      :      1.47980

Rotational constants in cm-1:     0.017800     0.008992     0.007190
Rotational constants in MHz :   533.643464   269.558638   215.545888

                             ****ORCA TERMINATED NORMALLY****
TOTAL RUN TIME: 0 days 0 hours 0 minutes 35 seconds 435 msec
