                         Program Version 4.2.1 -  RELEASE  -
|  1> ! wB97X-D3 SP def2-SVP
|  2> %pal
|  3> nprocs 16
|  4> end
|  5>
|  6> * xyz 0 1
|  7> S 	 -37.1271 	 53.6102 	 105.096
|  8> C 	 -38.0819 	 52.3844 	 104.294
|  9> C 	 -37.7044 	 52.3197 	 102.919
| 10> C 	 -36.724 	 53.3593 	 102.557
| 11> C 	 -36.4769 	 54.2372 	 103.589
| 12> H 	 -36.1921 	 53.5549 	 101.569
| 13> C 	 -38.3454 	 51.4643 	 101.869
| 14> H 	 -38.9829 	 52.0708 	 101.22
| 15> H 	 -38.9826 	 50.8073 	 102.416
| 16> C 	 -37.4334 	 50.5173 	 101.002
| 17> H 	 -36.9593 	 51.1769 	 100.311
| 18> H 	 -36.6044 	 50.0463 	 101.583
| 19> C 	 -38.2432 	 49.4303 	 100.29
| 20> H 	 -37.5378 	 48.767 	 99.8877
| 21> H 	 -38.88 	 48.8489 	 100.942
| 22> H 	 -38.9684 	 49.8304 	 99.5502
| 23> S 	 -33.9291 	 55.1379 	 103.316
| 24> C 	 -33.5831 	 56.7634 	 103.019
| 25> C 	 -34.7417 	 57.5903 	 103.153
| 26> C 	 -35.9001 	 56.7479 	 103.437
| 27> C 	 -35.6288 	 55.4171 	 103.514
| 28> H 	 -34.6423 	 58.6675 	 103.124
| 29> C 	 -37.2825 	 57.3569 	 103.68
| 30> H 	 -37.9843 	 56.5241 	 103.943
| 31> H 	 -37.7572 	 57.8527 	 102.789
| 32> C 	 -37.3169 	 58.3544 	 104.898
| 33> H 	 -36.5717 	 59.1509 	 104.763
| 34> H 	 -37.0765 	 57.7017 	 105.789
| 35> C 	 -38.6775 	 59.0524 	 105.121
| 36> H 	 -39.046 	 59.6828 	 104.292
| 37> H 	 -38.6433 	 59.7762 	 105.901
| 38> H 	 -39.4511 	 58.3553 	 105.422
| 39> H 	 -38.6893 	 51.6594 	 104.873
| 40> H 	 -32.5657 	 57.0849 	 102.779
| 41> *
| 42>
| 43>                          ****END OF INPUT****

CARTESIAN COORDINATES (ANGSTROEM)
---------------------------------
  S    -37.127100   53.610200  105.096000
  C    -38.081900   52.384400  104.294000
  C    -37.704400   52.319700  102.919000
  C    -36.724000   53.359300  102.557000
  C    -36.476900   54.237200  103.589000
  H    -36.192100   53.554900  101.569000
  C    -38.345400   51.464300  101.869000
  H    -38.982900   52.070800  101.220000
  H    -38.982600   50.807300  102.416000
  C    -37.433400   50.517300  101.002000
  H    -36.959300   51.176900  100.311000
  H    -36.604400   50.046300  101.583000
  C    -38.243200   49.430300  100.290000
  H    -37.537800   48.767000   99.887700
  H    -38.880000   48.848900  100.942000
  H    -38.968400   49.830400   99.550200
  S    -33.929100   55.137900  103.316000
  C    -33.583100   56.763400  103.019000
  C    -34.741700   57.590300  103.153000
  C    -35.900100   56.747900  103.437000
  C    -35.628800   55.417100  103.514000
  H    -34.642300   58.667500  103.124000
  C    -37.282500   57.356900  103.680000
  H    -37.984300   56.524100  103.943000
  H    -37.757200   57.852700  102.789000
  C    -37.316900   58.354400  104.898000
  H    -36.571700   59.150900  104.763000
  H    -37.076500   57.701700  105.789000
  C    -38.677500   59.052400  105.121000
  H    -39.046000   59.682800  104.292000
  H    -38.643300   59.776200  105.901000
  H    -39.451100   58.355300  105.422000
  H    -38.689300   51.659400  104.873000
  H    -32.565700   57.084900  102.779000

 Total Charge           Charge          ....    0
 Multiplicity           Mult            ....    1
 Number of Electrons    NEL             ....  134
 Basis Dimension        Dim             ....  322

ORBITAL ENERGIES
----------------

  NO   OCC          E(Eh)            E(eV)
   0   2.0000     -88.964172     -2420.8382
   1   2.0000     -88.963330     -2420.8153
   2   2.0000     -10.328569      -281.0546
   3   2.0000     -10.323560      -280.9184
   4   2.0000     -10.320454      -280.8338
   5   2.0000     -10.320155      -280.8257
   6   2.0000     -10.311149      -280.5806
   7   2.0000     -10.306085      -280.4428
   8   2.0000     -10.302555      -280.3468
   9   2.0000     -10.301040      -280.3055
  10   2.0000     -10.294858      -280.1373
  11   2.0000     -10.292321      -280.0683
  12   2.0000     -10.289137      -279.9817
  13   2.0000     -10.288792      -279.9723
  14   2.0000     -10.276619      -279.6410
  15   2.0000     -10.274258      -279.5768
  16   2.0000      -8.079710      -219.8601
  17   2.0000      -8.078743      -219.8338
  18   2.0000      -6.037976      -164.3017
  19   2.0000      -6.037257      -164.2821
  20   2.0000      -6.033840      -164.1891
  21   2.0000      -6.033222      -164.1723
  22   2.0000      -6.030764      -164.1054
  23   2.0000      -6.029558      -164.0726
  24   2.0000      -1.008090       -27.4315
  25   2.0000      -0.981154       -26.6986
  26   2.0000      -0.907398       -24.6915
  27   2.0000      -0.898729       -24.4557
  28   2.0000      -0.868690       -23.6383
  29   2.0000      -0.847430       -23.0598
  30   2.0000      -0.846010       -23.0211
  31   2.0000      -0.810934       -22.0666
  32   2.0000      -0.778717       -21.1900
  33   2.0000      -0.768094       -20.9009
  34   2.0000      -0.706408       -19.2223
  35   2.0000      -0.694969       -18.9111
  36   2.0000      -0.687403       -18.7052
  37   2.0000      -0.661034       -17.9877
  38   2.0000      -0.640131       -17.4188
  39   2.0000      -0.611599       -16.6425
  40   2.0000      -0.593601       -16.1527
  41   2.0000      -0.570104       -15.5133
  42   2.0000      -0.559637       -15.2285
  43   2.0000      -0.555681       -15.1208
  44   2.0000      -0.530911       -14.4468
  45   2.0000      -0.520182       -14.1549
  46   2.0000      -0.512851       -13.9554
  47   2.0000      -0.508681       -13.8419
  48   2.0000      -0.505433       -13.7535
  49   2.0000      -0.500410       -13.6168
  50   2.0000      -0.489899       -13.3308
  51   2.0000      -0.472262       -12.8509
  52   2.0000      -0.469840       -12.7850
  53   2.0000      -0.465181       -12.6582
  54   2.0000      -0.459652       -12.5078
  55   2.0000      -0.450941       -12.2707
  56   2.0000      -0.444592       -12.0980
  57   2.0000      -0.435373       -11.8471
  58   2.0000      -0.424950       -11.5635
  59   2.0000      -0.423113       -11.5135
  60   2.0000      -0.418531       -11.3888
  61   2.0000      -0.417146       -11.3511
  62   2.0000      -0.411481       -11.1970
  63   2.0000      -0.336313        -9.1515
  64   2.0000      -0.325122        -8.8470
  65   2.0000      -0.322223        -8.7681
  66   2.0000      -0.307182        -8.3589
  67   0.0000       0.040970         1.1148
  68   0.0000       0.061066         1.6617
  69   0.0000       0.107471         2.9244
  70   0.0000       0.116033         3.1574
  71   0.0000       0.130119         3.5407

MULLIKEN ATOMIC CHARGES
-----------------------
   0 S :    0.106623
   1 C :   -0.130719
   2 C :   -0.097892
   3 C :    0.021044
   4 C :   -0.172676
   5 H :    0.050056
   6 C :    0.067983
   7 H :    0.044444
   8 H :   -0.004012
   9 C :   -0.091414
  10 H :    0.025611
  11 H :    0.039454
  12 C :   -0.026731
  13 H :    0.028606
  14 H :    0.021378
  15 H :    0.034830
  16 S :    0.127142
  17 C :   -0.113484
  18 C :   -0.036564
  19 C :    0.006024
  20 C :   -0.183979
  21 H :    0.027190
  22 C :    0.029741
  23 H :    0.032512
  24 H :    0.039781
  25 C :   -0.106418
  26 H :    0.034060
  27 H :    0.045850
  28 C :   -0.037334
  29 H :    0.028821
  30 H :    0.019695
  31 H :    0.032166
  32 H :    0.070936
  33 H :    0.067274
Sum of atomic charges:   -0.0000000

LOEWDIN ATOMIC CHARGES
----------------------
   0 S :    0.399651
   1 C :   -0.206736
   2 C :   -0.059421
   3 C :   -0.065035
   4 C :   -0.200263
   5 H :    0.046599
   6 C :   -0.034445
   7 H :    0.035040
   8 H :    0.020931
   9 C :   -0.036400
  10 H :    0.017741
  11 H :    0.030449
  12 C :   -0.061486
  13 H :    0.022286
  14 H :    0.022311
  15 H :    0.030119
  16 S :    0.443858
  17 C :   -0.201665
  18 C :   -0.073646
  19 C :   -0.050684
  20 C :   -0.219427
  21 H :    0.031649
  22 C :   -0.039396
  23 H :    0.030968
  24 H :    0.032722
  25 C :   -0.040520
  26 H :    0.020487
  27 H :    0.034022
  28 C :   -0.071318
  29 H :    0.027303
  30 H :    0.022270
  31 H :    0.024993
  32 H :    0.036826
  33 H :    0.030218

  Mayer bond orders larger than 0.100000
B(  0-S ,  1-C ) :   1.1402 B(  0-S ,  4-C ) :   1.1445 B(  1-C ,  2-C ) :   1.5985
B(  1-C , 32-H ) :   0.9647 B(  2-C ,  3-C ) :   1.2059 B(  2-C ,  6-C ) :   1.0433
B(  3-C ,  4-C ) :   1.6144 B(  3-C ,  5-H ) :   0.9803 B(  4-C , 20-C ) :   1.0007
B(  6-C ,  7-H ) :   0.9416 B(  6-C ,  8-H ) :   0.9403 B(  6-C ,  9-C ) :   1.0468
B(  9-C , 10-H ) :   0.9536 B(  9-C , 11-H ) :   0.9616 B(  9-C , 12-C ) :   1.0880
B( 12-C , 13-H ) :   0.9746 B( 12-C , 14-H ) :   0.9745 B( 12-C , 15-H ) :   0.9733
B( 16-S , 17-C ) :   1.2010 B( 16-S , 20-C ) :   1.1479 B( 17-C , 18-C ) :   1.5643
B( 17-C , 33-H ) :   0.9675 B( 18-C , 19-C ) :   1.2320 B( 18-C , 21-H ) :   0.9964
B( 19-C , 20-C ) :   1.6182 B( 19-C , 22-C ) :   1.0431 B( 22-C , 23-H ) :   0.9382
B( 22-C , 24-H ) :   0.9410 B( 22-C , 25-C ) :   1.0479 B( 25-C , 26-H ) :   0.9607
B( 25-C , 27-H ) :   0.9548 B( 25-C , 28-C ) :   1.0867 B( 28-C , 29-H ) :   0.9722
B( 28-C , 30-H ) :   0.9725 B( 28-C , 31-H ) :   0.9749

Dispersion correction           -0.013616001
FINAL SINGLE POINT ENERGY     -1339.880731536699

DIPOLE MOMENT
-------------
                                X             Y             Z
Electronic contribution:     16.04431       0.58490       8.49640
Nuclear contribution   :    -16.22893      -0.57454      -8.82728
                        -----------------------------------------
Total Dipole Moment    :     -0.18462       0.01036      -0.33089
                        -----------------------------------------
Magnitude (a.u.)       :      0.37905
Magnitude (Debye)      :      0.96346

Rotational constants in cm-1:     0.020340     0.007173     0.006129
Rotational constants in MHz :   609.791823   215.052471   183.733317

                             ****ORCA TERMINATED NORMALLY****
TOTAL RUN TIME: 0 days 0 hours 0 minutes 29 seconds 487 msec
