                         Program Version 4.2.1 -  RELEASE  -
|  1> ! wB97X-D3 SP def2-SVP
|  2> %pal
|  3> nprocs 16
|  4> end
|  5>
|  6> * xyz 0 1
|  7> S 	 -12.6979 	 38.0715 	 55.1659
|  8> C 	 -12.0413 	 39.5848 	 54.5382
|  9> C 	 -12.4709 	 39.913 	 53.2833
| 10> C 	 -13.5064 	 39.0194 	 52.8484
| 11> C 	 -13.7888 	 37.9501 	 53.7446
| 12> H 	 -14.01 	 39.0294 	 51.873
| 13> C 	 -11.9005 	 40.9781 	 52.4056
| 14> H 	 -11.8725 	 40.5621 	 51.3274
| 15> H 	 -10.8232 	 41.1509 	 52.7519
| 16> C 	 -12.6835 	 42.237 	 52.1251
| 17> H 	 -12.1663 	 42.6883 	 51.2793
| 18> H 	 -13.7178 	 42.0558 	 51.8047
| 19> C 	 -12.8182 	 43.344 	 53.1534
| 20> H 	 -13.3908 	 43.0336 	 54.0685
| 21> H 	 -11.8385 	 43.6835 	 53.6658
| 22> H 	 -13.2248 	 44.235 	 52.619
| 23> S 	 -15.4708 	 36.2526 	 55.0733
| 24> C 	 -16.1855 	 34.8871 	 54.1886
| 25> C 	 -16.0022 	 35.0185 	 52.8263
| 26> C 	 -15.1206 	 36.1342 	 52.5251
| 27> C 	 -14.6633 	 36.8313 	 53.6162
| 28> H 	 -16.4422 	 34.3066 	 52.1387
| 29> C 	 -14.782 	 36.4053 	 51.0927
| 30> H 	 -14.7714 	 35.4613 	 50.6724
| 31> H 	 -13.8081 	 36.7955 	 51.0305
| 32> C 	 -15.6814 	 37.3718 	 50.3582
| 33> H 	 -15.774 	 38.2259 	 50.9955
| 34> H 	 -16.6895 	 37.0221 	 50.2604
| 35> C 	 -15.1863 	 37.8294 	 49.0021
| 36> H 	 -15.1593 	 37.1083 	 48.2322
| 37> H 	 -14.192 	 38.2812 	 48.9412
| 38> H 	 -15.9367 	 38.6114 	 48.6639
| 39> H 	 -11.2093 	 40.1434 	 54.928
| 40> H 	 -16.6685 	 34.0118 	 54.6227
| 41> *
| 42>
| 43>                          ****END OF INPUT****

CARTESIAN COORDINATES (ANGSTROEM)
---------------------------------
  S    -12.697900   38.071500   55.165900
  C    -12.041300   39.584800   54.538200
  C    -12.470900   39.913000   53.283300
  C    -13.506400   39.019400   52.848400
  C    -13.788800   37.950100   53.744600
  H    -14.010000   39.029400   51.873000
  C    -11.900500   40.978100   52.405600
  H    -11.872500   40.562100   51.327400
  H    -10.823200   41.150900   52.751900
  C    -12.683500   42.237000   52.125100
  H    -12.166300   42.688300   51.279300
  H    -13.717800   42.055800   51.804700
  C    -12.818200   43.344000   53.153400
  H    -13.390800   43.033600   54.068500
  H    -11.838500   43.683500   53.665800
  H    -13.224800   44.235000   52.619000
  S    -15.470800   36.252600   55.073300
  C    -16.185500   34.887100   54.188600
  C    -16.002200   35.018500   52.826300
  C    -15.120600   36.134200   52.525100
  C    -14.663300   36.831300   53.616200
  H    -16.442200   34.306600   52.138700
  C    -14.782000   36.405300   51.092700
  H    -14.771400   35.461300   50.672400
  H    -13.808100   36.795500   51.030500
  C    -15.681400   37.371800   50.358200
  H    -15.774000   38.225900   50.995500
  H    -16.689500   37.022100   50.260400
  C    -15.186300   37.829400   49.002100
  H    -15.159300   37.108300   48.232200
  H    -14.192000   38.281200   48.941200
  H    -15.936700   38.611400   48.663900
  H    -11.209300   40.143400   54.928000
  H    -16.668500   34.011800   54.622700

 Total Charge           Charge          ....    0
 Multiplicity           Mult            ....    1
 Number of Electrons    NEL             ....  134
 Basis Dimension        Dim             ....  322

ORBITAL ENERGIES
----------------

  NO   OCC          E(Eh)            E(eV)
   0   2.0000     -88.969473     -2420.9824
   1   2.0000     -88.964235     -2420.8399
   2   2.0000     -10.336885      -281.2809
   3   2.0000     -10.325469      -280.9703
   4   2.0000     -10.321272      -280.8561
   5   2.0000     -10.313438      -280.6429
   6   2.0000     -10.305708      -280.4326
   7   2.0000     -10.302299      -280.3398
   8   2.0000     -10.302027      -280.3324
   9   2.0000     -10.300610      -280.2938
  10   2.0000     -10.297655      -280.2134
  11   2.0000     -10.288814      -279.9729
  12   2.0000     -10.286397      -279.9071
  13   2.0000     -10.282677      -279.8059
  14   2.0000     -10.280976      -279.7596
  15   2.0000     -10.276377      -279.6344
  16   2.0000      -8.083034      -219.9505
  17   2.0000      -8.078533      -219.8281
  18   2.0000      -6.041666      -164.4021
  19   2.0000      -6.037774      -164.2962
  20   2.0000      -6.037218      -164.2811
  21   2.0000      -6.033645      -164.1838
  22   2.0000      -6.033197      -164.1716
  23   2.0000      -6.029020      -164.0580
  24   2.0000      -1.003922       -27.3181
  25   2.0000      -0.979718       -26.6595
  26   2.0000      -0.918148       -24.9841
  27   2.0000      -0.913980       -24.8707
  28   2.0000      -0.873912       -23.7804
  29   2.0000      -0.854022       -23.2391
  30   2.0000      -0.845135       -22.9973
  31   2.0000      -0.814517       -22.1641
  32   2.0000      -0.784795       -21.3553
  33   2.0000      -0.775846       -21.1118
  34   2.0000      -0.715316       -19.4648
  35   2.0000      -0.703262       -19.1367
  36   2.0000      -0.691780       -18.8243
  37   2.0000      -0.667107       -18.1529
  38   2.0000      -0.635359       -17.2890
  39   2.0000      -0.618804       -16.8385
  40   2.0000      -0.595562       -16.2061
  41   2.0000      -0.572413       -15.5761
  42   2.0000      -0.568368       -15.4661
  43   2.0000      -0.549576       -14.9547
  44   2.0000      -0.536579       -14.6011
  45   2.0000      -0.531172       -14.4539
  46   2.0000      -0.528903       -14.3922
  47   2.0000      -0.510807       -13.8998
  48   2.0000      -0.506471       -13.7818
  49   2.0000      -0.497992       -13.5510
  50   2.0000      -0.491530       -13.3752
  51   2.0000      -0.484403       -13.1813
  52   2.0000      -0.472271       -12.8512
  53   2.0000      -0.468583       -12.7508
  54   2.0000      -0.453791       -12.3483
  55   2.0000      -0.450730       -12.2650
  56   2.0000      -0.440742       -11.9932
  57   2.0000      -0.438881       -11.9426
  58   2.0000      -0.432163       -11.7597
  59   2.0000      -0.424796       -11.5593
  60   2.0000      -0.421822       -11.4784
  61   2.0000      -0.415574       -11.3083
  62   2.0000      -0.411113       -11.1869
  63   2.0000      -0.354617        -9.6496
  64   2.0000      -0.331606        -9.0235
  65   2.0000      -0.328844        -8.9483
  66   2.0000      -0.286422        -7.7939
  67   0.0000       0.018332         0.4988
  68   0.0000       0.076330         2.0770
  69   0.0000       0.094687         2.5766
  70   0.0000       0.107565         2.9270
  71   0.0000       0.130619         3.5543

MULLIKEN ATOMIC CHARGES
-----------------------
   0 S :    0.107371
   1 C :   -0.097620
   2 C :   -0.065577
   3 C :    0.017959
   4 C :   -0.147020
   5 H :    0.003077
   6 C :    0.017281
   7 H :    0.043143
   8 H :    0.039182
   9 C :   -0.058464
  10 H :    0.028056
  11 H :    0.032823
  12 C :   -0.094674
  13 H :    0.047217
  14 H :    0.025418
  15 H :    0.047488
  16 S :    0.093134
  17 C :   -0.092877
  18 C :   -0.029084
  19 C :   -0.082680
  20 C :   -0.116524
  21 H :    0.024262
  22 C :    0.129245
  23 H :   -0.003391
  24 H :    0.000263
  25 C :   -0.037473
  26 H :    0.016141
  27 H :    0.014140
  28 C :   -0.045697
  29 H :    0.020563
  30 H :    0.027553
  31 H :    0.039205
  32 H :    0.034901
  33 H :    0.062657
Sum of atomic charges:   -0.0000000

LOEWDIN ATOMIC CHARGES
----------------------
   0 S :    0.384960
   1 C :   -0.189572
   2 C :   -0.071444
   3 C :   -0.060143
   4 C :   -0.175082
   5 H :    0.030271
   6 C :   -0.041343
   7 H :    0.048046
   8 H :    0.039482
   9 C :   -0.051711
  10 H :    0.027524
  11 H :    0.030149
  12 C :   -0.082849
  13 H :    0.029472
  14 H :    0.025863
  15 H :    0.033137
  16 S :    0.382396
  17 C :   -0.172958
  18 C :   -0.068818
  19 C :   -0.048720
  20 C :   -0.199118
  21 H :    0.034381
  22 C :   -0.026547
  23 H :    0.020195
  24 H :    0.023400
  25 C :   -0.035922
  26 H :    0.019732
  27 H :    0.023858
  28 C :   -0.065824
  29 H :    0.016984
  30 H :    0.023435
  31 H :    0.037649
  32 H :    0.025885
  33 H :    0.033231

  Mayer bond orders larger than 0.100000
B(  0-S ,  1-C ) :   1.1233 B(  0-S ,  4-C ) :   1.1320 B(  1-C ,  2-C ) :   1.6364
B(  1-C , 32-H ) :   0.9596 B(  2-C ,  3-C ) :   1.2259 B(  2-C ,  6-C ) :   1.0296
B(  3-C ,  4-C ) :   1.5650 B(  3-C ,  5-H ) :   0.9819 B(  4-C , 20-C ) :   1.0936
B(  6-C ,  7-H ) :   0.9363 B(  6-C ,  8-H ) :   0.9387 B(  6-C ,  9-C ) :   1.0712
B(  9-C , 10-H ) :   0.9538 B(  9-C , 11-H ) :   0.9497 B(  9-C , 12-C ) :   1.0809
B( 12-C , 13-H ) :   0.9743 B( 12-C , 14-H ) :   0.9728 B( 12-C , 15-H ) :   0.9718
B( 16-S , 17-C ) :   1.1380 B( 16-S , 20-C ) :   1.1084 B( 17-C , 18-C ) :   1.6303
B( 17-C , 33-H ) :   0.9649 B( 18-C , 19-C ) :   1.2147 B( 18-C , 21-H ) :   0.9901
B( 19-C , 20-C ) :   1.6108 B( 19-C , 22-C ) :   1.0608 B( 22-C , 23-H ) :   0.9183
B( 22-C , 24-H ) :   0.9218 B( 22-C , 25-C ) :   1.0690 B( 25-C , 26-H ) :   0.9504
B( 25-C , 27-H ) :   0.9430 B( 25-C , 28-C ) :   1.0870 B( 28-C , 29-H ) :   0.9747
B( 28-C , 30-H ) :   0.9724 B( 28-C , 31-H ) :   0.9727

Dispersion correction           -0.014213219
FINAL SINGLE POINT ENERGY     -1339.872659367501

DIPOLE MOMENT
-------------
                                X             Y             Z
Electronic contribution:     -1.28145     -18.62531      24.35758
Nuclear contribution   :      1.30463      18.71961     -25.17653
                        -----------------------------------------
Total Dipole Moment    :      0.02318       0.09430      -0.81895
                        -----------------------------------------
Magnitude (a.u.)       :      0.82468
Magnitude (Debye)      :      2.09618

Rotational constants in cm-1:     0.018148     0.009104     0.006583
Rotational constants in MHz :   544.057447   272.919038   197.355866

                             ****ORCA TERMINATED NORMALLY****
TOTAL RUN TIME: 0 days 0 hours 0 minutes 35 seconds 527 msec
