                         Program Version 4.2.1 -  RELEASE  -
|  1> ! wB97X-D3 SP def2-SVP
|  2> %pal
|  3> nprocs 16
|  4> end
|  5>
|  6> * xyz 0 1
|  7> S 	 -91.5012 	 53.549 	 122.8
|  8> C 	 -91.4415 	 52.1158 	 121.846
|  9> C 	 -92.5707 	 51.3191 	 122.099
| 10> C 	 -93.544 	 52.0114 	 122.887
| 11> C 	 -93.1392 	 53.2645 	 123.282
| 12> H 	 -94.4493 	 51.6373 	 123.295
| 13> C 	 -92.792 	 49.9648 	 121.53
| 14> H 	 -92.3567 	 49.7093 	 120.554
| 15> H 	 -93.8579 	 49.8788 	 121.388
| 16> C 	 -92.352 	 48.908 	 122.526
| 17> H 	 -91.2953 	 48.9848 	 122.72
| 18> H 	 -92.7963 	 49.1645 	 123.503
| 19> C 	 -92.5517 	 47.4066 	 122.013
| 20> H 	 -93.6095 	 47.149 	 121.789
| 21> H 	 -91.934 	 47.1778 	 121.065
| 22> H 	 -92.2529 	 46.6149 	 122.742
| 23> S 	 -94.9391 	 55.298 	 123.621
| 24> C 	 -95.5491 	 55.5796 	 125.264
| 25> C 	 -94.7119 	 54.9827 	 126.203
| 26> C 	 -93.7083 	 54.207 	 125.614
| 27> C 	 -93.804 	 54.1628 	 124.235
| 28> H 	 -94.817 	 55.1259 	 127.259
| 29> C 	 -92.7229 	 53.3657 	 126.368
| 30> H 	 -92.176 	 52.817 	 125.646
| 31> H 	 -93.2675 	 52.7022 	 127.098
| 32> C 	 -91.6395 	 54.0667 	 127.18
| 33> H 	 -91.0571 	 53.2337 	 127.572
| 34> H 	 -91.9944 	 54.6671 	 128.065
| 35> C 	 -90.7989 	 55.0038 	 126.339
| 36> H 	 -90.0814 	 55.5587 	 126.926
| 37> H 	 -91.2752 	 55.7663 	 125.739
| 38> H 	 -90.1773 	 54.4453 	 125.705
| 39> H 	 -90.6136 	 51.8505 	 121.26
| 40> H 	 -96.4129 	 56.145 	 125.579
| 41> *
| 42>
| 43>                          ****END OF INPUT****

CARTESIAN COORDINATES (ANGSTROEM)
---------------------------------
  S    -91.501200   53.549000  122.800000
  C    -91.441500   52.115800  121.846000
  C    -92.570700   51.319100  122.099000
  C    -93.544000   52.011400  122.887000
  C    -93.139200   53.264500  123.282000
  H    -94.449300   51.637300  123.295000
  C    -92.792000   49.964800  121.530000
  H    -92.356700   49.709300  120.554000
  H    -93.857900   49.878800  121.388000
  C    -92.352000   48.908000  122.526000
  H    -91.295300   48.984800  122.720000
  H    -92.796300   49.164500  123.503000
  C    -92.551700   47.406600  122.013000
  H    -93.609500   47.149000  121.789000
  H    -91.934000   47.177800  121.065000
  H    -92.252900   46.614900  122.742000
  S    -94.939100   55.298000  123.621000
  C    -95.549100   55.579600  125.264000
  C    -94.711900   54.982700  126.203000
  C    -93.708300   54.207000  125.614000
  C    -93.804000   54.162800  124.235000
  H    -94.817000   55.125900  127.259000
  C    -92.722900   53.365700  126.368000
  H    -92.176000   52.817000  125.646000
  H    -93.267500   52.702200  127.098000
  C    -91.639500   54.066700  127.180000
  H    -91.057100   53.233700  127.572000
  H    -91.994400   54.667100  128.065000
  C    -90.798900   55.003800  126.339000
  H    -90.081400   55.558700  126.926000
  H    -91.275200   55.766300  125.739000
  H    -90.177300   54.445300  125.705000
  H    -90.613600   51.850500  121.260000
  H    -96.412900   56.145000  125.579000

 Total Charge           Charge          ....    0
 Multiplicity           Mult            ....    1
 Number of Electrons    NEL             ....  134
 Basis Dimension        Dim             ....  322

ORBITAL ENERGIES
----------------

  NO   OCC          E(Eh)            E(eV)
   0   2.0000     -88.967310     -2420.9236
   1   2.0000     -88.965111     -2420.8638
   2   2.0000     -10.325490      -280.9709
   3   2.0000     -10.320039      -280.8225
   4   2.0000     -10.318763      -280.7878
   5   2.0000     -10.311839      -280.5994
   6   2.0000     -10.303615      -280.3756
   7   2.0000     -10.295146      -280.1452
   8   2.0000     -10.293881      -280.1108
   9   2.0000     -10.293490      -280.1001
  10   2.0000     -10.290360      -280.0149
  11   2.0000     -10.290153      -280.0093
  12   2.0000     -10.288411      -279.9619
  13   2.0000     -10.285616      -279.8858
  14   2.0000     -10.285335      -279.8782
  15   2.0000     -10.262143      -279.2471
  16   2.0000      -8.081995      -219.9223
  17   2.0000      -8.080354      -219.8776
  18   2.0000      -6.040421      -164.3682
  19   2.0000      -6.038686      -164.3210
  20   2.0000      -6.036553      -164.2630
  21   2.0000      -6.034645      -164.2110
  22   2.0000      -6.032805      -164.1610
  23   2.0000      -6.031412      -164.1231
  24   2.0000      -1.011182       -27.5157
  25   2.0000      -0.988536       -26.8994
  26   2.0000      -0.913617       -24.8608
  27   2.0000      -0.911169       -24.7942
  28   2.0000      -0.867606       -23.6088
  29   2.0000      -0.849677       -23.1209
  30   2.0000      -0.845096       -22.9962
  31   2.0000      -0.814896       -22.1745
  32   2.0000      -0.782605       -21.2958
  33   2.0000      -0.770134       -20.9564
  34   2.0000      -0.703860       -19.1530
  35   2.0000      -0.700937       -19.0735
  36   2.0000      -0.693330       -18.8665
  37   2.0000      -0.661962       -18.0129
  38   2.0000      -0.652921       -17.7669
  39   2.0000      -0.621038       -16.8993
  40   2.0000      -0.595363       -16.2006
  41   2.0000      -0.570270       -15.5178
  42   2.0000      -0.557216       -15.1626
  43   2.0000      -0.554022       -15.0757
  44   2.0000      -0.542504       -14.7623
  45   2.0000      -0.522897       -14.2288
  46   2.0000      -0.516363       -14.0509
  47   2.0000      -0.511899       -13.9295
  48   2.0000      -0.504470       -13.7273
  49   2.0000      -0.498500       -13.5649
  50   2.0000      -0.490584       -13.3495
  51   2.0000      -0.474407       -12.9093
  52   2.0000      -0.467753       -12.7282
  53   2.0000      -0.465721       -12.6729
  54   2.0000      -0.459916       -12.5149
  55   2.0000      -0.449873       -12.2417
  56   2.0000      -0.446962       -12.1624
  57   2.0000      -0.437732       -11.9113
  58   2.0000      -0.432002       -11.7554
  59   2.0000      -0.428568       -11.6619
  60   2.0000      -0.420455       -11.4412
  61   2.0000      -0.413265       -11.2455
  62   2.0000      -0.410184       -11.1617
  63   2.0000      -0.337759        -9.1909
  64   2.0000      -0.331993        -9.0340
  65   2.0000      -0.317040        -8.6271
  66   2.0000      -0.308088        -8.3835
  67   0.0000       0.043410         1.1812
  68   0.0000       0.052037         1.4160
  69   0.0000       0.110720         3.0129
  70   0.0000       0.120911         3.2901
  71   0.0000       0.131738         3.5848

MULLIKEN ATOMIC CHARGES
-----------------------
   0 S :    0.119118
   1 C :   -0.093712
   2 C :   -0.098097
   3 C :    0.077072
   4 C :   -0.190180
   5 H :    0.001724
   6 C :    0.086064
   7 H :    0.024067
   8 H :    0.018894
   9 C :   -0.072206
  10 H :    0.022682
  11 H :    0.027732
  12 C :   -0.093914
  13 H :    0.035923
  14 H :    0.044934
  15 H :    0.044132
  16 S :    0.127326
  17 C :   -0.094470
  18 C :   -0.029698
  19 C :   -0.002029
  20 C :   -0.206633
  21 H :    0.010722
  22 C :    0.087972
  23 H :    0.011301
  24 H :    0.037415
  25 C :   -0.076238
  26 H :    0.031308
  27 H :    0.030852
  28 C :   -0.027001
  29 H :    0.015153
  30 H :    0.039573
  31 H :    0.005671
  32 H :    0.031376
  33 H :    0.053166
Sum of atomic charges:   -0.0000000

LOEWDIN ATOMIC CHARGES
----------------------
   0 S :    0.432598
   1 C :   -0.194653
   2 C :   -0.058333
   3 C :   -0.051486
   4 C :   -0.206399
   5 H :    0.029429
   6 C :   -0.034911
   7 H :    0.031467
   8 H :    0.029247
   9 C :   -0.039649
  10 H :    0.021205
  11 H :    0.025600
  12 C :   -0.083110
  13 H :    0.023734
  14 H :    0.033928
  15 H :    0.030025
  16 S :    0.418855
  17 C :   -0.178355
  18 C :   -0.064922
  19 C :   -0.058746
  20 C :   -0.219382
  21 H :    0.029714
  22 C :   -0.030244
  23 H :    0.022160
  24 H :    0.037465
  25 C :   -0.040437
  26 H :    0.028425
  27 H :    0.022889
  28 C :   -0.068253
  29 H :    0.024807
  30 H :    0.026660
  31 H :    0.013811
  32 H :    0.017822
  33 H :    0.029041

  Mayer bond orders larger than 0.100000
B(  0-S ,  1-C ) :   1.1585 B(  0-S ,  4-C ) :   1.1731 B(  1-C ,  2-C ) :   1.5686
B(  1-C , 32-H ) :   0.9820 B(  2-C ,  3-C ) :   1.2494 B(  2-C ,  6-C ) :   1.0325
B(  3-C ,  4-C ) :   1.5813 B(  3-C ,  5-H ) :   0.9999 B(  4-C , 20-C ) :   0.9857
B(  6-C ,  7-H ) :   0.9460 B(  6-C ,  8-H ) :   0.9371 B(  6-C ,  9-C ) :   1.0524
B(  9-C , 10-H ) :   0.9578 B(  9-C , 11-H ) :   0.9571 B(  9-C , 12-C ) :   1.0604
B( 12-C , 13-H ) :   0.9782 B( 12-C , 14-H ) :   0.9740 B( 12-C , 15-H ) :   0.9769
B( 16-S , 17-C ) :   1.1563 B( 16-S , 20-C ) :   1.1605 B( 17-C , 18-C ) :   1.5891
B( 17-C , 20-C ) :   0.1050 B( 17-C , 33-H ) :   0.9704 B( 18-C , 19-C ) :   1.2588
B( 18-C , 21-H ) :   0.9937 B( 19-C , 20-C ) :   1.5766 B( 19-C , 22-C ) :   1.0544
B( 22-C , 23-H ) :   0.9231 B( 22-C , 24-H ) :   0.9338 B( 22-C , 25-C ) :   1.0739
B( 25-C , 26-H ) :   0.9545 B( 25-C , 27-H ) :   0.9577 B( 25-C , 28-C ) :   1.0746
B( 28-C , 29-H ) :   0.9693 B( 28-C , 30-H ) :   0.9752 B( 28-C , 31-H ) :   0.9709

Dispersion correction           -0.015215054
FINAL SINGLE POINT ENERGY     -1339.881229976698

DIPOLE MOMENT
-------------
                                X             Y             Z
Electronic contribution:     -8.68778      19.77249      -7.15508
Nuclear contribution   :      8.75213     -20.26555       7.46894
                        -----------------------------------------
Total Dipole Moment    :      0.06435      -0.49306       0.31386
                        -----------------------------------------
Magnitude (a.u.)       :      0.58801
Magnitude (Debye)      :      1.49461

Rotational constants in cm-1:     0.020975     0.007897     0.007222
Rotational constants in MHz :   628.817613   236.754516   216.512693

                             ****ORCA TERMINATED NORMALLY****
TOTAL RUN TIME: 0 days 0 hours 0 minutes 34 seconds 712 msec
