                         Program Version 4.2.1 -  RELEASE  -
|  1> ! wB97X-D3 SP def2-SVP
|  2> %pal
|  3> nprocs 16
|  4> end
|  5>
|  6> * xyz 0 1
|  7> S 	 -69.1743 	 38.8481 	 115.32
|  8> C 	 -69.3978 	 37.2579 	 115.998
|  9> C 	 -69.5129 	 36.2619 	 115.079
| 10> C 	 -69.3689 	 36.7222 	 113.719
| 11> C 	 -69.1252 	 38.0698 	 113.7
| 12> H 	 -69.3728 	 36.1224 	 112.896
| 13> C 	 -69.4722 	 34.7526 	 115.37
| 14> H 	 -70.1711 	 34.2305 	 114.641
| 15> H 	 -69.9473 	 34.5444 	 116.358
| 16> C 	 -68.1524 	 33.976 	 115.308
| 17> H 	 -68.2709 	 32.9429 	 115.657
| 18> H 	 -67.8538 	 34.13 	 114.245
| 19> C 	 -67.0393 	 34.6957 	 116.153
| 20> H 	 -66.154 	 34.0042 	 116.1
| 21> H 	 -66.763 	 35.6254 	 115.799
| 22> H 	 -67.3862 	 34.8246 	 117.195
| 23> S 	 -69.9953 	 40.077 	 112.027
| 24> C 	 -69.0382 	 40.7221 	 110.774
| 25> C 	 -67.8797 	 39.9879 	 110.668
| 26> C 	 -67.7363 	 38.8682 	 111.574
| 27> C 	 -68.7939 	 38.8725 	 112.487
| 28> H 	 -67.1903 	 40.195 	 109.921
| 29> C 	 -66.5307 	 37.9662 	 111.636
| 30> H 	 -66.3139 	 37.7643 	 110.595
| 31> H 	 -66.7144 	 36.9673 	 112.078
| 32> C 	 -65.3733 	 38.6262 	 112.28
| 33> H 	 -65.3534 	 39.6296 	 112.01
| 34> H 	 -64.4579 	 38.196 	 111.945
| 35> C 	 -65.4403 	 38.4705 	 113.798
| 36> H 	 -65.441 	 37.4079 	 114.106
| 37> H 	 -66.2889 	 38.9181 	 114.174
| 38> H 	 -64.637 	 38.9907 	 114.306
| 39> H 	 -69.317 	 37.1087 	 117.033
| 40> H 	 -69.1545 	 41.6631 	 110.249
| 41> *
| 42>
| 43>                          ****END OF INPUT****

CARTESIAN COORDINATES (ANGSTROEM)
---------------------------------
  S    -69.174300   38.848100  115.320000
  C    -69.397800   37.257900  115.998000
  C    -69.512900   36.261900  115.079000
  C    -69.368900   36.722200  113.719000
  C    -69.125200   38.069800  113.700000
  H    -69.372800   36.122400  112.896000
  C    -69.472200   34.752600  115.370000
  H    -70.171100   34.230500  114.641000
  H    -69.947300   34.544400  116.358000
  C    -68.152400   33.976000  115.308000
  H    -68.270900   32.942900  115.657000
  H    -67.853800   34.130000  114.245000
  C    -67.039300   34.695700  116.153000
  H    -66.154000   34.004200  116.100000
  H    -66.763000   35.625400  115.799000
  H    -67.386200   34.824600  117.195000
  S    -69.995300   40.077000  112.027000
  C    -69.038200   40.722100  110.774000
  C    -67.879700   39.987900  110.668000
  C    -67.736300   38.868200  111.574000
  C    -68.793900   38.872500  112.487000
  H    -67.190300   40.195000  109.921000
  C    -66.530700   37.966200  111.636000
  H    -66.313900   37.764300  110.595000
  H    -66.714400   36.967300  112.078000
  C    -65.373300   38.626200  112.280000
  H    -65.353400   39.629600  112.010000
  H    -64.457900   38.196000  111.945000
  C    -65.440300   38.470500  113.798000
  H    -65.441000   37.407900  114.106000
  H    -66.288900   38.918100  114.174000
  H    -64.637000   38.990700  114.306000
  H    -69.317000   37.108700  117.033000
  H    -69.154500   41.663100  110.249000

 Total Charge           Charge          ....    0
 Multiplicity           Mult            ....    1
 Number of Electrons    NEL             ....  134
 Basis Dimension        Dim             ....  322

ORBITAL ENERGIES
----------------

  NO   OCC          E(Eh)            E(eV)
   0   2.0000     -88.970969     -2421.0232
   1   2.0000     -88.960614     -2420.7414
   2   2.0000     -10.335718      -281.2492
   3   2.0000     -10.326837      -281.0075
   4   2.0000     -10.312636      -280.6211
   5   2.0000     -10.311768      -280.5975
   6   2.0000     -10.305625      -280.4303
   7   2.0000     -10.302873      -280.3554
   8   2.0000     -10.298301      -280.2310
   9   2.0000     -10.295020      -280.1417
  10   2.0000     -10.293123      -280.0901
  11   2.0000     -10.287919      -279.9485
  12   2.0000     -10.287547      -279.9384
  13   2.0000     -10.276986      -279.6510
  14   2.0000     -10.271102      -279.4909
  15   2.0000     -10.263506      -279.2842
  16   2.0000      -8.084876      -220.0007
  17   2.0000      -8.076146      -219.7631
  18   2.0000      -6.043446      -164.4505
  19   2.0000      -6.039656      -164.3474
  20   2.0000      -6.035445      -164.2328
  21   2.0000      -6.034617      -164.2103
  22   2.0000      -6.030389      -164.0952
  23   2.0000      -6.027039      -164.0041
  24   2.0000      -1.005196       -27.3528
  25   2.0000      -0.986081       -26.8326
  26   2.0000      -0.920673       -25.0528
  27   2.0000      -0.906510       -24.6674
  28   2.0000      -0.867047       -23.5935
  29   2.0000      -0.850971       -23.1561
  30   2.0000      -0.845561       -23.0089
  31   2.0000      -0.813223       -22.1289
  32   2.0000      -0.783902       -21.3310
  33   2.0000      -0.775676       -21.1072
  34   2.0000      -0.707785       -19.2598
  35   2.0000      -0.697170       -18.9710
  36   2.0000      -0.692686       -18.8490
  37   2.0000      -0.660254       -17.9664
  38   2.0000      -0.651124       -17.7180
  39   2.0000      -0.622842       -16.9484
  40   2.0000      -0.604610       -16.4523
  41   2.0000      -0.569225       -15.4894
  42   2.0000      -0.557258       -15.1638
  43   2.0000      -0.556613       -15.1462
  44   2.0000      -0.543276       -14.7833
  45   2.0000      -0.535716       -14.5776
  46   2.0000      -0.518329       -14.1045
  47   2.0000      -0.512400       -13.9431
  48   2.0000      -0.503034       -13.6883
  49   2.0000      -0.494641       -13.4599
  50   2.0000      -0.491169       -13.3654
  51   2.0000      -0.477314       -12.9884
  52   2.0000      -0.471725       -12.8363
  53   2.0000      -0.466039       -12.6816
  54   2.0000      -0.461545       -12.5593
  55   2.0000      -0.455806       -12.4031
  56   2.0000      -0.440179       -11.9779
  57   2.0000      -0.437368       -11.9014
  58   2.0000      -0.434195       -11.8150
  59   2.0000      -0.428307       -11.6548
  60   2.0000      -0.420852       -11.4520
  61   2.0000      -0.410242       -11.1632
  62   2.0000      -0.408636       -11.1196
  63   2.0000      -0.343257        -9.3405
  64   2.0000      -0.331431        -9.0187
  65   2.0000      -0.326000        -8.8709
  66   2.0000      -0.303625        -8.2620
  67   0.0000       0.036387         0.9901
  68   0.0000       0.061862         1.6834
  69   0.0000       0.109354         2.9757
  70   0.0000       0.116352         3.1661
  71   0.0000       0.124353         3.3838

MULLIKEN ATOMIC CHARGES
-----------------------
   0 S :    0.114849
   1 C :   -0.101379
   2 C :   -0.061597
   3 C :    0.088186
   4 C :   -0.147896
   5 H :   -0.019572
   6 C :   -0.000003
   7 H :    0.035679
   8 H :    0.024516
   9 C :   -0.062770
  10 H :    0.049599
  11 H :    0.029741
  12 C :   -0.059406
  13 H :    0.039930
  14 H :    0.032074
  15 H :    0.027108
  16 S :    0.104700
  17 C :   -0.071256
  18 C :   -0.037891
  19 C :   -0.037183
  20 C :   -0.195924
  21 H :   -0.009686
  22 C :    0.079936
  23 H :    0.015379
  24 H :    0.019235
  25 C :   -0.002465
  26 H :    0.004845
  27 H :    0.013090
  28 C :   -0.018538
  29 H :    0.031179
  30 H :    0.001269
  31 H :    0.022704
  32 H :    0.029570
  33 H :    0.061977
Sum of atomic charges:    0.0000000

LOEWDIN ATOMIC CHARGES
----------------------
   0 S :    0.392806
   1 C :   -0.180468
   2 C :   -0.063219
   3 C :   -0.036406
   4 C :   -0.172705
   5 H :    0.018671
   6 C :   -0.045390
   7 H :    0.034304
   8 H :    0.026665
   9 C :   -0.039053
  10 H :    0.031380
  11 H :    0.026229
  12 C :   -0.063094
  13 H :    0.031594
  14 H :    0.011908
  15 H :    0.023543
  16 S :    0.416340
  17 C :   -0.202487
  18 C :   -0.069696
  19 C :   -0.051494
  20 C :   -0.201007
  21 H :    0.016179
  22 C :   -0.030685
  23 H :    0.031114
  24 H :    0.031493
  25 C :   -0.029387
  26 H :    0.016992
  27 H :    0.019501
  28 C :   -0.054767
  29 H :    0.026387
  30 H :    0.007143
  31 H :    0.024622
  32 H :    0.016613
  33 H :    0.036376

  Mayer bond orders larger than 0.100000
B(  0-S ,  1-C ) :   1.1266 B(  0-S ,  4-C ) :   1.1370 B(  1-C ,  2-C ) :   1.6514
B(  1-C , 32-H ) :   0.9728 B(  2-C ,  3-C ) :   1.1869 B(  2-C ,  6-C ) :   1.0296
B(  3-C ,  4-C ) :   1.6139 B(  3-C ,  5-H ) :   1.0151 B(  4-C , 20-C ) :   0.9963
B(  6-C ,  7-H ) :   0.9425 B(  6-C ,  8-H ) :   0.9427 B(  6-C ,  9-C ) :   1.0671
B(  9-C , 10-H ) :   0.9550 B(  9-C , 11-H ) :   0.9542 B(  9-C , 12-C ) :   1.0744
B( 12-C , 13-H ) :   0.9763 B( 12-C , 14-H ) :   0.9745 B( 12-C , 15-H ) :   0.9753
B( 16-S , 17-C ) :   1.1557 B( 16-S , 20-C ) :   1.1617 B( 17-C , 18-C ) :   1.6079
B( 17-C , 33-H ) :   0.9655 B( 18-C , 19-C ) :   1.2408 B( 18-C , 21-H ) :   0.9930
B( 19-C , 20-C ) :   1.5882 B( 19-C , 22-C ) :   1.0540 B( 22-C , 23-H ) :   0.9156
B( 22-C , 24-H ) :   0.9364 B( 22-C , 25-C ) :   1.0838 B( 25-C , 26-H ) :   0.9482
B( 25-C , 27-H ) :   0.9485 B( 25-C , 28-C ) :   1.0854 B( 28-C , 29-H ) :   0.9738
B( 28-C , 30-H ) :   0.9713 B( 28-C , 31-H ) :   0.9681

Dispersion correction           -0.016531499
FINAL SINGLE POINT ENERGY     -1339.875476167834

DIPOLE MOMENT
-------------
                                X             Y             Z
Electronic contribution:    -18.62211      18.56900      -5.19325
Nuclear contribution   :     19.11670     -18.98660       5.10109
                        -----------------------------------------
Total Dipole Moment    :      0.49459      -0.41760      -0.09215
                        -----------------------------------------
Magnitude (a.u.)       :      0.65384
Magnitude (Debye)      :      1.66192

Rotational constants in cm-1:     0.021311     0.009535     0.007926
Rotational constants in MHz :   638.900820   285.841753   237.629676

                             ****ORCA TERMINATED NORMALLY****
TOTAL RUN TIME: 0 days 0 hours 0 minutes 33 seconds 202 msec
