                         Program Version 4.2.1 -  RELEASE  -
|  1> ! wB97X-D3 SP def2-SVP
|  2> %pal
|  3> nprocs 16
|  4> end
|  5>
|  6> * xyz 0 1
|  7> S 	 6.52074 	 25.9513 	 66.8403
|  8> C 	 6.4279 	 24.1924 	 66.8276
|  9> C 	 6.5705 	 23.6993 	 65.5162
| 10> C 	 6.3887 	 24.7539 	 64.5677
| 11> C 	 6.27836 	 26.0689 	 65.0671
| 12> H 	 6.2578 	 24.6021 	 63.4787
| 13> C 	 6.58407 	 22.2773 	 65.0731
| 14> H 	 5.81165 	 22.1298 	 64.3459
| 15> H 	 6.35069 	 21.6978 	 65.9795
| 16> C 	 7.98572 	 22.0014 	 64.5085
| 17> H 	 7.90947 	 21.2107 	 63.7244
| 18> H 	 8.29363 	 22.8744 	 63.9703
| 19> C 	 9.01271 	 21.5648 	 65.634
| 20> H 	 8.77016 	 22.1295 	 66.5025
| 21> H 	 8.88692 	 20.4855 	 65.8137
| 22> H 	 10.0973 	 21.7457 	 65.4292
| 23> S 	 4.49915 	 28.0927 	 64.9605
| 24> C 	 4.74596 	 29.4224 	 63.8249
| 25> C 	 5.86132 	 29.1876 	 63.0436
| 26> C 	 6.58041 	 27.944 	 63.3443
| 27> C 	 5.90638 	 27.2713 	 64.3431
| 28> H 	 6.09987 	 29.9458 	 62.3123
| 29> C 	 7.9367 	 27.5914 	 62.7108
| 30> H 	 8.2337 	 26.5512 	 62.9218
| 31> H 	 8.73085 	 28.2032 	 63.1742
| 32> C 	 7.96959 	 27.7261 	 61.2115
| 33> H 	 7.69147 	 28.6997 	 60.9894
| 34> H 	 7.24113 	 27.0557 	 60.8627
| 35> C 	 9.31115 	 27.2697 	 60.6589
| 36> H 	 10.1692 	 27.9142 	 60.7728
| 37> H 	 9.09158 	 27.1531 	 59.6144
| 38> H 	 9.63668 	 26.2506 	 61.0333
| 39> H 	 6.45933 	 23.5592 	 67.6886
| 40> H 	 4.14204 	 30.3294 	 63.7833
| 41> *
| 42>
| 43>                          ****END OF INPUT****

CARTESIAN COORDINATES (ANGSTROEM)
---------------------------------
  S      6.520740   25.951300   66.840300
  C      6.427900   24.192400   66.827600
  C      6.570500   23.699300   65.516200
  C      6.388700   24.753900   64.567700
  C      6.278360   26.068900   65.067100
  H      6.257800   24.602100   63.478700
  C      6.584070   22.277300   65.073100
  H      5.811650   22.129800   64.345900
  H      6.350690   21.697800   65.979500
  C      7.985720   22.001400   64.508500
  H      7.909470   21.210700   63.724400
  H      8.293630   22.874400   63.970300
  C      9.012710   21.564800   65.634000
  H      8.770160   22.129500   66.502500
  H      8.886920   20.485500   65.813700
  H     10.097300   21.745700   65.429200
  S      4.499150   28.092700   64.960500
  C      4.745960   29.422400   63.824900
  C      5.861320   29.187600   63.043600
  C      6.580410   27.944000   63.344300
  C      5.906380   27.271300   64.343100
  H      6.099870   29.945800   62.312300
  C      7.936700   27.591400   62.710800
  H      8.233700   26.551200   62.921800
  H      8.730850   28.203200   63.174200
  C      7.969590   27.726100   61.211500
  H      7.691470   28.699700   60.989400
  H      7.241130   27.055700   60.862700
  C      9.311150   27.269700   60.658900
  H     10.169200   27.914200   60.772800
  H      9.091580   27.153100   59.614400
  H      9.636680   26.250600   61.033300
  H      6.459330   23.559200   67.688600
  H      4.142040   30.329400   63.783300

 Total Charge           Charge          ....    0
 Multiplicity           Mult            ....    1
 Number of Electrons    NEL             ....  134
 Basis Dimension        Dim             ....  322

ORBITAL ENERGIES
----------------

  NO   OCC          E(Eh)            E(eV)
   0   2.0000     -88.964736     -2420.8535
   1   2.0000     -88.964624     -2420.8505
   2   2.0000     -10.331936      -281.1463
   3   2.0000     -10.326684      -281.0034
   4   2.0000     -10.320693      -280.8403
   5   2.0000     -10.316955      -280.7386
   6   2.0000     -10.310166      -280.5539
   7   2.0000     -10.301049      -280.3058
   8   2.0000     -10.298451      -280.2351
   9   2.0000     -10.296833      -280.1911
  10   2.0000     -10.291445      -280.0445
  11   2.0000     -10.290985      -280.0319
  12   2.0000     -10.290468      -280.0179
  13   2.0000     -10.282172      -279.7921
  14   2.0000     -10.280169      -279.7376
  15   2.0000     -10.276127      -279.6276
  16   2.0000      -8.079539      -219.8554
  17   2.0000      -8.078296      -219.8216
  18   2.0000      -6.038155      -164.3066
  19   2.0000      -6.036924      -164.2730
  20   2.0000      -6.033974      -164.1928
  21   2.0000      -6.032982      -164.1658
  22   2.0000      -6.030210      -164.0904
  23   2.0000      -6.028954      -164.0562
  24   2.0000      -1.001351       -27.2481
  25   2.0000      -0.978025       -26.6134
  26   2.0000      -0.917817       -24.9751
  27   2.0000      -0.912570       -24.8323
  28   2.0000      -0.865952       -23.5637
  29   2.0000      -0.849570       -23.1180
  30   2.0000      -0.837871       -22.7996
  31   2.0000      -0.810377       -22.0515
  32   2.0000      -0.781052       -21.2535
  33   2.0000      -0.772503       -21.0209
  34   2.0000      -0.710714       -19.3395
  35   2.0000      -0.702552       -19.1174
  36   2.0000      -0.694816       -18.9069
  37   2.0000      -0.656540       -17.8654
  38   2.0000      -0.638236       -17.3673
  39   2.0000      -0.617380       -16.7998
  40   2.0000      -0.599275       -16.3071
  41   2.0000      -0.576796       -15.6954
  42   2.0000      -0.572943       -15.5906
  43   2.0000      -0.549034       -14.9400
  44   2.0000      -0.531378       -14.4595
  45   2.0000      -0.526769       -14.3341
  46   2.0000      -0.514985       -14.0135
  47   2.0000      -0.512616       -13.9490
  48   2.0000      -0.507394       -13.8069
  49   2.0000      -0.495429       -13.4813
  50   2.0000      -0.487624       -13.2689
  51   2.0000      -0.476091       -12.9551
  52   2.0000      -0.470651       -12.8071
  53   2.0000      -0.463672       -12.6172
  54   2.0000      -0.457536       -12.4502
  55   2.0000      -0.448751       -12.2111
  56   2.0000      -0.438437       -11.9305
  57   2.0000      -0.436077       -11.8663
  58   2.0000      -0.433814       -11.8047
  59   2.0000      -0.430277       -11.7084
  60   2.0000      -0.428780       -11.6677
  61   2.0000      -0.418537       -11.3890
  62   2.0000      -0.411690       -11.2027
  63   2.0000      -0.340727        -9.2716
  64   2.0000      -0.331094        -9.0095
  65   2.0000      -0.323869        -8.8129
  66   2.0000      -0.295901        -8.0519
  67   0.0000       0.027807         0.7567
  68   0.0000       0.068099         1.8531
  69   0.0000       0.112682         3.0662
  70   0.0000       0.120331         3.2744
  71   0.0000       0.121693         3.3114

MULLIKEN ATOMIC CHARGES
-----------------------
   0 S :    0.107210
   1 C :   -0.113118
   2 C :   -0.115204
   3 C :    0.030492
   4 C :   -0.167440
   5 H :    0.022205
   6 C :    0.070414
   7 H :    0.032903
   8 H :    0.023287
   9 C :   -0.073136
  10 H :    0.028369
  11 H :    0.026351
  12 C :   -0.049630
  13 H :    0.021085
  14 H :    0.039932
  15 H :    0.044817
  16 S :    0.113050
  17 C :   -0.101929
  18 C :   -0.047002
  19 C :   -0.005160
  20 C :   -0.181091
  21 H :    0.021381
  22 C :    0.072707
  23 H :    0.011399
  24 H :    0.040079
  25 C :   -0.050965
  26 H :    0.015035
  27 H :    0.018445
  28 C :   -0.041203
  29 H :    0.036342
  30 H :    0.029500
  31 H :    0.032011
  32 H :    0.045068
  33 H :    0.063797
Sum of atomic charges:   -0.0000000

LOEWDIN ATOMIC CHARGES
----------------------
   0 S :    0.381389
   1 C :   -0.192307
   2 C :   -0.065990
   3 C :   -0.063268
   4 C :   -0.189146
   5 H :    0.032254
   6 C :   -0.027717
   7 H :    0.030864
   8 H :    0.031603
   9 C :   -0.036008
  10 H :    0.023180
  11 H :    0.018970
  12 C :   -0.064282
  13 H :    0.017441
  14 H :    0.028507
  15 H :    0.031971
  16 S :    0.404988
  17 C :   -0.180771
  18 C :   -0.072128
  19 C :   -0.048090
  20 C :   -0.204148
  21 H :    0.028988
  22 C :   -0.029341
  23 H :    0.027403
  24 H :    0.034728
  25 C :   -0.031039
  26 H :    0.013582
  27 H :    0.022908
  28 C :   -0.062944
  29 H :    0.023109
  30 H :    0.026727
  31 H :    0.031899
  32 H :    0.023159
  33 H :    0.033510

  Mayer bond orders larger than 0.100000
B(  0-S ,  1-C ) :   1.1418 B(  0-S ,  4-C ) :   1.1345 B(  1-C ,  2-C ) :   1.5859
B(  1-C ,  4-C ) :   0.1000 B(  1-C , 32-H ) :   0.9679 B(  2-C ,  3-C ) :   1.2435
B(  2-C ,  6-C ) :   1.0325 B(  3-C ,  4-C ) :   1.5806 B(  3-C ,  5-H ) :   0.9798
B(  4-C , 20-C ) :   1.0512 B(  6-C ,  7-H ) :   0.9446 B(  6-C ,  8-H ) :   0.9469
B(  6-C ,  9-C ) :   1.0464 B(  9-C , 10-H ) :   0.9596 B(  9-C , 11-H ) :   0.9634
B(  9-C , 12-C ) :   1.0569 B( 12-C , 13-H ) :   0.9784 B( 12-C , 14-H ) :   0.9788
B( 12-C , 15-H ) :   0.9775 B( 16-S , 17-C ) :   1.1368 B( 16-S , 20-C ) :   1.1425
B( 17-C , 18-C ) :   1.6490 B( 17-C , 33-H ) :   0.9662 B( 18-C , 19-C ) :   1.1923
B( 18-C , 21-H ) :   0.9866 B( 19-C , 20-C ) :   1.6193 B( 19-C , 22-C ) :   1.0382
B( 22-C , 23-H ) :   0.9329 B( 22-C , 24-H ) :   0.9350 B( 22-C , 25-C ) :   1.0626
B( 25-C , 26-H ) :   0.9535 B( 25-C , 27-H ) :   0.9547 B( 25-C , 28-C ) :   1.0890
B( 28-C , 29-H ) :   0.9755 B( 28-C , 30-H ) :   0.9745 B( 28-C , 31-H ) :   0.9702

Dispersion correction           -0.013861799
FINAL SINGLE POINT ENERGY     -1339.875847505122

DIPOLE MOMENT
-------------
                                X             Y             Z
Electronic contribution:    -18.66956      15.30599      16.36784
Nuclear contribution   :     18.93870     -15.47674     -16.92538
                        -----------------------------------------
Total Dipole Moment    :      0.26914      -0.17075      -0.55754
                        -----------------------------------------
Magnitude (a.u.)       :      0.64222
Magnitude (Debye)      :      1.63239

Rotational constants in cm-1:     0.017239     0.008989     0.006433
Rotational constants in MHz :   516.797773   269.488772   192.845334

                             ****ORCA TERMINATED NORMALLY****
TOTAL RUN TIME: 0 days 0 hours 0 minutes 34 seconds 597 msec
