                         Program Version 4.2.1 -  RELEASE  -
|  1> ! wB97X-D3 SP def2-SVP
|  2> %pal
|  3> nprocs 16
|  4> end
|  5>
|  6> * xyz 0 1
|  7> S 	 -1.0804 	 -15.5346 	 76.7094
|  8> C 	 -2.29172 	 -16.0518 	 75.5637
|  9> C 	 -2.97286 	 -15.0606 	 74.9285
| 10> C 	 -2.52513 	 -13.7886 	 75.4324
| 11> C 	 -1.6353 	 -13.8934 	 76.5334
| 12> H 	 -2.90709 	 -12.8551 	 75.0791
| 13> C 	 -3.8778 	 -15.2029 	 73.6949
| 14> H 	 -4.54019 	 -14.3923 	 73.5374
| 15> H 	 -4.54985 	 -16.1064 	 73.7734
| 16> C 	 -3.122 	 -15.4648 	 72.3131
| 17> H 	 -2.30628 	 -16.202 	 72.455
| 18> H 	 -3.79177 	 -15.8842 	 71.5568
| 19> C 	 -2.50956 	 -14.1213 	 71.8202
| 20> H 	 -1.78607 	 -13.6481 	 72.5037
| 21> H 	 -2.08979 	 -14.2123 	 70.7576
| 22> H 	 -3.37327 	 -13.5168 	 71.6588
| 23> S 	 0.698412 	 -12.5498 	 76.8858
| 24> C 	 0.832189 	 -11.0838 	 77.8303
| 25> C 	 -0.403347 	 -10.7015 	 78.2604
| 26> C 	 -1.37064 	 -11.7382 	 78.0573
| 27> C 	 -1.00015 	 -12.7988 	 77.2532
| 28> H 	 -0.433246 	 -9.75704 	 78.7675
| 29> C 	 -2.78903 	 -11.541 	 78.6094
| 30> H 	 -3.164 	 -12.4751 	 79.0649
| 31> H 	 -3.4918 	 -11.3502 	 77.8181
| 32> C 	 -2.86112 	 -10.5491 	 79.7751
| 33> H 	 -2.41973 	 -9.5368 	 79.6013
| 34> H 	 -2.39959 	 -10.8965 	 80.6731
| 35> C 	 -4.31027 	 -10.4219 	 80.3253
| 36> H 	 -4.52134 	 -9.52042 	 80.8565
| 37> H 	 -4.42336 	 -11.1876 	 81.0309
| 38> H 	 -5.08172 	 -10.5274 	 79.5922
| 39> H 	 -2.25009 	 -17.0748 	 75.157
| 40> H 	 1.65371 	 -10.436 	 77.9073
| 41> *
| 42>
| 43>                          ****END OF INPUT****

CARTESIAN COORDINATES (ANGSTROEM)
---------------------------------
  S     -1.080400  -15.534600   76.709400
  C     -2.291720  -16.051800   75.563700
  C     -2.972860  -15.060600   74.928500
  C     -2.525130  -13.788600   75.432400
  C     -1.635300  -13.893400   76.533400
  H     -2.907090  -12.855100   75.079100
  C     -3.877800  -15.202900   73.694900
  H     -4.540190  -14.392300   73.537400
  H     -4.549850  -16.106400   73.773400
  C     -3.122000  -15.464800   72.313100
  H     -2.306280  -16.202000   72.455000
  H     -3.791770  -15.884200   71.556800
  C     -2.509560  -14.121300   71.820200
  H     -1.786070  -13.648100   72.503700
  H     -2.089790  -14.212300   70.757600
  H     -3.373270  -13.516800   71.658800
  S      0.698412  -12.549800   76.885800
  C      0.832189  -11.083800   77.830300
  C     -0.403347  -10.701500   78.260400
  C     -1.370640  -11.738200   78.057300
  C     -1.000150  -12.798800   77.253200
  H     -0.433246   -9.757040   78.767500
  C     -2.789030  -11.541000   78.609400
  H     -3.164000  -12.475100   79.064900
  H     -3.491800  -11.350200   77.818100
  C     -2.861120  -10.549100   79.775100
  H     -2.419730   -9.536800   79.601300
  H     -2.399590  -10.896500   80.673100
  C     -4.310270  -10.421900   80.325300
  H     -4.521340   -9.520420   80.856500
  H     -4.423360  -11.187600   81.030900
  H     -5.081720  -10.527400   79.592200
  H     -2.250090  -17.074800   75.157000
  H      1.653710  -10.436000   77.907300

 Total Charge           Charge          ....    0
 Multiplicity           Mult            ....    1
 Number of Electrons    NEL             ....  134
 Basis Dimension        Dim             ....  322

ORBITAL ENERGIES
----------------

  NO   OCC          E(Eh)            E(eV)
   0   2.0000     -88.971064     -2421.0257
   1   2.0000     -88.957989     -2420.6699
   2   2.0000     -10.335051      -281.2310
   3   2.0000     -10.325358      -280.9673
   4   2.0000     -10.314637      -280.6755
   5   2.0000     -10.310863      -280.5729
   6   2.0000     -10.305671      -280.4316
   7   2.0000     -10.305078      -280.4154
   8   2.0000     -10.301730      -280.3243
   9   2.0000     -10.300948      -280.3030
  10   2.0000     -10.295483      -280.1543
  11   2.0000     -10.289305      -279.9862
  12   2.0000     -10.289210      -279.9836
  13   2.0000     -10.284349      -279.8514
  14   2.0000     -10.281455      -279.7726
  15   2.0000     -10.266004      -279.3522
  16   2.0000      -8.085966      -220.0303
  17   2.0000      -8.073115      -219.6806
  18   2.0000      -6.044394      -164.4763
  19   2.0000      -6.040537      -164.3714
  20   2.0000      -6.036711      -164.2672
  21   2.0000      -6.031638      -164.1292
  22   2.0000      -6.027445      -164.0151
  23   2.0000      -6.023916      -163.9191
  24   2.0000      -1.007877       -27.4257
  25   2.0000      -0.986500       -26.8440
  26   2.0000      -0.907099       -24.6834
  27   2.0000      -0.904675       -24.6175
  28   2.0000      -0.871675       -23.7195
  29   2.0000      -0.848567       -23.0907
  30   2.0000      -0.843096       -22.9418
  31   2.0000      -0.814976       -22.1766
  32   2.0000      -0.780752       -21.2454
  33   2.0000      -0.770955       -20.9787
  34   2.0000      -0.706897       -19.2357
  35   2.0000      -0.702675       -19.1208
  36   2.0000      -0.698794       -19.0151
  37   2.0000      -0.654139       -17.8000
  38   2.0000      -0.640844       -17.4383
  39   2.0000      -0.619380       -16.8542
  40   2.0000      -0.597266       -16.2524
  41   2.0000      -0.579805       -15.7773
  42   2.0000      -0.564119       -15.3504
  43   2.0000      -0.547943       -14.9103
  44   2.0000      -0.539442       -14.6790
  45   2.0000      -0.525439       -14.2979
  46   2.0000      -0.513019       -13.9600
  47   2.0000      -0.508001       -13.8234
  48   2.0000      -0.505292       -13.7497
  49   2.0000      -0.500291       -13.6136
  50   2.0000      -0.489843       -13.3293
  51   2.0000      -0.474776       -12.9193
  52   2.0000      -0.468382       -12.7453
  53   2.0000      -0.462518       -12.5857
  54   2.0000      -0.460295       -12.5253
  55   2.0000      -0.448927       -12.2159
  56   2.0000      -0.446798       -12.1580
  57   2.0000      -0.436143       -11.8681
  58   2.0000      -0.434346       -11.8191
  59   2.0000      -0.426536       -11.6066
  60   2.0000      -0.420428       -11.4404
  61   2.0000      -0.415440       -11.3047
  62   2.0000      -0.405246       -11.0273
  63   2.0000      -0.339464        -9.2373
  64   2.0000      -0.333784        -9.0827
  65   2.0000      -0.323680        -8.8078
  66   2.0000      -0.301805        -8.2125
  67   0.0000       0.030543         0.8311
  68   0.0000       0.061005         1.6600
  69   0.0000       0.110182         2.9982
  70   0.0000       0.122589         3.3358
  71   0.0000       0.132828         3.6144

MULLIKEN ATOMIC CHARGES
-----------------------
   0 S :    0.128274
   1 C :   -0.122823
   2 C :   -0.066805
   3 C :    0.054872
   4 C :   -0.181273
   5 H :    0.005655
   6 C :    0.047012
   7 H :    0.016259
   8 H :    0.038048
   9 C :   -0.081011
  10 H :    0.033223
  11 H :    0.036449
  12 C :   -0.080473
  13 H :    0.061280
  14 H :    0.041768
  15 H :    0.015703
  16 S :    0.084042
  17 C :   -0.058454
  18 C :   -0.046277
  19 C :   -0.048001
  20 C :   -0.123153
  21 H :    0.020699
  22 C :    0.079069
  23 H :    0.029797
  24 H :    0.033787
  25 C :   -0.120715
  26 H :    0.038240
  27 H :    0.028835
  28 C :   -0.009202
  29 H :    0.020375
  30 H :    0.013926
  31 H :    0.018339
  32 H :    0.056947
  33 H :    0.035588
Sum of atomic charges:   -0.0000000

LOEWDIN ATOMIC CHARGES
----------------------
   0 S :    0.422661
   1 C :   -0.194160
   2 C :   -0.066772
   3 C :   -0.044829
   4 C :   -0.207364
   5 H :    0.025516
   6 C :   -0.029111
   7 H :    0.021377
   8 H :    0.039042
   9 C :   -0.036513
  10 H :    0.022195
  11 H :    0.024598
  12 C :   -0.075478
  13 H :    0.030979
  14 H :    0.033456
  15 H :    0.016964
  16 S :    0.398574
  17 C :   -0.171884
  18 C :   -0.074548
  19 C :   -0.055489
  20 C :   -0.204522
  21 H :    0.032985
  22 C :   -0.030865
  23 H :    0.038153
  24 H :    0.028723
  25 C :   -0.044010
  26 H :    0.020819
  27 H :    0.024824
  28 C :   -0.056622
  29 H :    0.023568
  30 H :    0.017918
  31 H :    0.018196
  32 H :    0.029972
  33 H :    0.021644

  Mayer bond orders larger than 0.100000
B(  0-S ,  1-C ) :   1.1521 B(  0-S ,  4-C ) :   1.1630 B(  1-C ,  2-C ) :   1.6195
B(  1-C , 32-H ) :   0.9563 B(  2-C ,  3-C ) :   1.2549 B(  2-C ,  6-C ) :   1.0313
B(  3-C ,  4-C ) :   1.5535 B(  3-C ,  5-H ) :   0.9943 B(  4-C , 20-C ) :   1.0274
B(  6-C ,  7-H ) :   0.9479 B(  6-C ,  8-H ) :   0.9423 B(  6-C ,  9-C ) :   1.0539
B(  9-C , 10-H ) :   0.9602 B(  9-C , 11-H ) :   0.9588 B(  9-C , 12-C ) :   1.0672
B( 12-C , 13-H ) :   0.9766 B( 12-C , 14-H ) :   0.9731 B( 12-C , 15-H ) :   0.9763
B( 16-S , 17-C ) :   1.1612 B( 16-S , 20-C ) :   1.1308 B( 17-C , 18-C ) :   1.6236
B( 17-C , 33-H ) :   0.9670 B( 18-C , 19-C ) :   1.2307 B( 18-C , 21-H ) :   0.9909
B( 19-C , 20-C ) :   1.6221 B( 19-C , 22-C ) :   1.0263 B( 22-C , 23-H ) :   0.9395
B( 22-C , 24-H ) :   0.9364 B( 22-C , 25-C ) :   1.0691 B( 25-C , 26-H ) :   0.9540
B( 25-C , 27-H ) :   0.9648 B( 25-C , 28-C ) :   1.0695 B( 28-C , 29-H ) :   0.9732
B( 28-C , 30-H ) :   0.9801 B( 28-C , 31-H ) :   0.9763

Dispersion correction           -0.013640761
FINAL SINGLE POINT ENERGY     -1339.861842081285

DIPOLE MOMENT
-------------
                                X             Y             Z
Electronic contribution:     18.98400      -8.45281       5.09709
Nuclear contribution   :    -19.42880       8.73666      -5.34750
                        -----------------------------------------
Total Dipole Moment    :     -0.44480       0.28385      -0.25041
                        -----------------------------------------
Magnitude (a.u.)       :      0.58406
Magnitude (Debye)      :      1.48456

Rotational constants in cm-1:     0.019557     0.007429     0.006581
Rotational constants in MHz :   586.312851   222.701737   197.284857

                             ****ORCA TERMINATED NORMALLY****
TOTAL RUN TIME: 0 days 0 hours 0 minutes 32 seconds 775 msec
