                         Program Version 4.2.1 -  RELEASE  -
|  1> ! wB97X-D3 SP def2-SVP
|  2> %pal
|  3> nprocs 16
|  4> end
|  5>
|  6> * xyz 0 1
|  7> S 	 44.9921 	 12.448 	 74.9444
|  8> C 	 43.4139 	 12.0767 	 74.1699
|  9> C 	 42.5811 	 13.1645 	 74.1199
| 10> C 	 43.1915 	 14.3147 	 74.7046
| 11> C 	 44.4077 	 14.0681 	 75.2658
| 12> H 	 42.701 	 15.3015 	 74.7774
| 13> C 	 41.2194 	 13.2136 	 73.5384
| 14> H 	 40.4675 	 13.3496 	 74.3577
| 15> H 	 41.0504 	 12.0972 	 73.2621
| 16> C 	 40.9171 	 14.0973 	 72.2976
| 17> H 	 41.2504 	 15.1099 	 72.5941
| 18> H 	 41.376 	 13.7043 	 71.3503
| 19> C 	 39.4015 	 14.0872 	 72.0316
| 20> H 	 38.8951 	 14.0964 	 73.0071
| 21> H 	 39.1989 	 15.0021 	 71.4838
| 22> H 	 39.0199 	 13.166 	 71.4803
| 23> S 	 46.8761 	 15.3327 	 75.2771
| 24> C 	 47.2358 	 16.4832 	 76.4515
| 25> C 	 46.0939 	 16.9276 	 77.0265
| 26> C 	 44.9945 	 16.0729 	 76.8322
| 27> C 	 45.2236 	 15.1013 	 75.9328
| 28> H 	 46.1426 	 17.7685 	 77.7129
| 29> C 	 43.5855 	 16.4079 	 77.2628
| 30> H 	 43.6312 	 16.6979 	 78.3263
| 31> H 	 43.0193 	 15.442 	 77.2645
| 32> C 	 42.85 	 17.5076 	 76.5673
| 33> H 	 43.2009 	 17.3691 	 75.4968
| 34> H 	 43.1869 	 18.4535 	 76.8895
| 35> C 	 41.3363 	 17.4367 	 76.6284
| 36> H 	 40.9059 	 17.5289 	 77.6153
| 37> H 	 41.0168 	 16.4393 	 76.2938
| 38> H 	 40.9183 	 18.2484 	 76.0509
| 39> H 	 43.1873 	 11.0908 	 73.6755
| 40> H 	 48.105 	 17.0573 	 76.507
| 41> *
| 42>
| 43>                          ****END OF INPUT****

CARTESIAN COORDINATES (ANGSTROEM)
---------------------------------
  S     44.992100   12.448000   74.944400
  C     43.413900   12.076700   74.169900
  C     42.581100   13.164500   74.119900
  C     43.191500   14.314700   74.704600
  C     44.407700   14.068100   75.265800
  H     42.701000   15.301500   74.777400
  C     41.219400   13.213600   73.538400
  H     40.467500   13.349600   74.357700
  H     41.050400   12.097200   73.262100
  C     40.917100   14.097300   72.297600
  H     41.250400   15.109900   72.594100
  H     41.376000   13.704300   71.350300
  C     39.401500   14.087200   72.031600
  H     38.895100   14.096400   73.007100
  H     39.198900   15.002100   71.483800
  H     39.019900   13.166000   71.480300
  S     46.876100   15.332700   75.277100
  C     47.235800   16.483200   76.451500
  C     46.093900   16.927600   77.026500
  C     44.994500   16.072900   76.832200
  C     45.223600   15.101300   75.932800
  H     46.142600   17.768500   77.712900
  C     43.585500   16.407900   77.262800
  H     43.631200   16.697900   78.326300
  H     43.019300   15.442000   77.264500
  C     42.850000   17.507600   76.567300
  H     43.200900   17.369100   75.496800
  H     43.186900   18.453500   76.889500
  C     41.336300   17.436700   76.628400
  H     40.905900   17.528900   77.615300
  H     41.016800   16.439300   76.293800
  H     40.918300   18.248400   76.050900
  H     43.187300   11.090800   73.675500
  H     48.105000   17.057300   76.507000

 Total Charge           Charge          ....    0
 Multiplicity           Mult            ....    1
 Number of Electrons    NEL             ....  134
 Basis Dimension        Dim             ....  322

ORBITAL ENERGIES
----------------

  NO   OCC          E(Eh)            E(eV)
   0   2.0000     -88.969414     -2420.9808
   1   2.0000     -88.957835     -2420.6658
   2   2.0000     -10.330191      -281.0988
   3   2.0000     -10.323522      -280.9173
   4   2.0000     -10.321082      -280.8509
   5   2.0000     -10.304498      -280.3996
   6   2.0000     -10.301015      -280.3049
   7   2.0000     -10.299240      -280.2566
   8   2.0000     -10.298170      -280.2275
   9   2.0000     -10.294548      -280.1289
  10   2.0000     -10.293587      -280.1028
  11   2.0000     -10.287475      -279.9364
  12   2.0000     -10.285587      -279.8850
  13   2.0000     -10.285552      -279.8841
  14   2.0000     -10.285313      -279.8776
  15   2.0000     -10.280656      -279.7509
  16   2.0000      -8.083307      -219.9580
  17   2.0000      -8.073905      -219.7021
  18   2.0000      -6.041877      -164.4078
  19   2.0000      -6.038122      -164.3056
  20   2.0000      -6.033850      -164.1894
  21   2.0000      -6.032290      -164.1470
  22   2.0000      -6.028392      -164.0409
  23   2.0000      -6.024525      -163.9357
  24   2.0000      -1.013291       -27.5731
  25   2.0000      -0.989629       -26.9292
  26   2.0000      -0.917468       -24.9656
  27   2.0000      -0.912219       -24.8228
  28   2.0000      -0.872181       -23.7332
  29   2.0000      -0.857489       -23.3335
  30   2.0000      -0.846704       -23.0400
  31   2.0000      -0.816005       -22.2046
  32   2.0000      -0.784332       -21.3428
  33   2.0000      -0.771011       -20.9803
  34   2.0000      -0.706896       -19.2356
  35   2.0000      -0.699207       -19.0264
  36   2.0000      -0.693972       -18.8840
  37   2.0000      -0.662172       -18.0186
  38   2.0000      -0.637240       -17.3402
  39   2.0000      -0.622112       -16.9285
  40   2.0000      -0.598460       -16.2849
  41   2.0000      -0.573791       -15.6137
  42   2.0000      -0.570764       -15.5313
  43   2.0000      -0.559679       -15.2296
  44   2.0000      -0.531385       -14.4597
  45   2.0000      -0.528628       -14.3847
  46   2.0000      -0.519328       -14.1316
  47   2.0000      -0.512017       -13.9327
  48   2.0000      -0.506641       -13.7864
  49   2.0000      -0.500828       -13.6282
  50   2.0000      -0.489896       -13.3308
  51   2.0000      -0.477844       -13.0028
  52   2.0000      -0.470713       -12.8088
  53   2.0000      -0.464301       -12.6343
  54   2.0000      -0.458376       -12.4730
  55   2.0000      -0.454546       -12.3688
  56   2.0000      -0.451205       -12.2779
  57   2.0000      -0.437640       -11.9088
  58   2.0000      -0.432101       -11.7581
  59   2.0000      -0.425733       -11.5848
  60   2.0000      -0.422114       -11.4863
  61   2.0000      -0.411567       -11.1993
  62   2.0000      -0.407141       -11.0789
  63   2.0000      -0.346307        -9.4235
  64   2.0000      -0.334468        -9.1013
  65   2.0000      -0.327495        -8.9116
  66   2.0000      -0.298246        -8.1157
  67   0.0000       0.030729         0.8362
  68   0.0000       0.073067         1.9883
  69   0.0000       0.105846         2.8802
  70   0.0000       0.115597         3.1456
  71   0.0000       0.125485         3.4146

MULLIKEN ATOMIC CHARGES
-----------------------
   0 S :    0.115345
   1 C :   -0.150253
   2 C :   -0.040861
   3 C :    0.009814
   4 C :   -0.125103
   5 H :    0.009544
   6 C :   -0.012421
   7 H :    0.045624
   8 H :    0.017031
   9 C :   -0.066837
  10 H :    0.037870
  11 H :    0.051744
  12 C :   -0.064217
  13 H :    0.025769
  14 H :    0.041386
  15 H :    0.050348
  16 S :    0.088911
  17 C :   -0.044001
  18 C :   -0.059182
  19 C :   -0.037817
  20 C :   -0.145821
  21 H :    0.017173
  22 C :    0.025742
  23 H :    0.015549
  24 H :    0.035033
  25 C :   -0.055022
  26 H :    0.035270
  27 H :    0.014351
  28 C :   -0.023743
  29 H :    0.025998
  30 H :    0.021594
  31 H :    0.038453
  32 H :    0.065269
  33 H :    0.037462
Sum of atomic charges:   -0.0000000

LOEWDIN ATOMIC CHARGES
----------------------
   0 S :    0.388016
   1 C :   -0.187267
   2 C :   -0.071744
   3 C :   -0.061994
   4 C :   -0.190887
   5 H :    0.034397
   6 C :   -0.048574
   7 H :    0.035990
   8 H :    0.035379
   9 C :   -0.039735
  10 H :    0.025376
  11 H :    0.036255
  12 C :   -0.070116
  13 H :    0.022654
  14 H :    0.027413
  15 H :    0.034027
  16 S :    0.404611
  17 C :   -0.189019
  18 C :   -0.074413
  19 C :   -0.067308
  20 C :   -0.173870
  21 H :    0.030237
  22 C :   -0.040095
  23 H :    0.027530
  24 H :    0.034068
  25 C :   -0.042595
  26 H :    0.027141
  27 H :    0.017725
  28 C :   -0.059159
  29 H :    0.024239
  30 H :    0.023000
  31 H :    0.029025
  32 H :    0.038586
  33 H :    0.021107

  Mayer bond orders larger than 0.100000
B(  0-S ,  1-C ) :   1.1147 B(  0-S ,  4-C ) :   1.1429 B(  1-C ,  2-C ) :   1.6444
B(  1-C , 32-H ) :   0.9536 B(  2-C ,  3-C ) :   1.2143 B(  2-C ,  6-C ) :   1.0313
B(  3-C ,  4-C ) :   1.5901 B(  3-C ,  5-H ) :   0.9847 B(  4-C , 20-C ) :   1.0173
B(  6-C ,  7-H ) :   0.9360 B(  6-C ,  8-H ) :   0.9365 B(  6-C ,  9-C ) :   1.0571
B(  9-C , 10-H ) :   0.9578 B(  9-C , 11-H ) :   0.9542 B(  9-C , 12-C ) :   1.0737
B( 12-C , 13-H ) :   0.9749 B( 12-C , 14-H ) :   0.9744 B( 12-C , 15-H ) :   0.9765
B( 16-S , 17-C ) :   1.1651 B( 16-S , 20-C ) :   1.1364 B( 17-C , 18-C ) :   1.6139
B( 17-C , 33-H ) :   0.9689 B( 18-C , 19-C ) :   1.2313 B( 18-C , 21-H ) :   0.9895
B( 19-C , 20-C ) :   1.6307 B( 19-C , 22-C ) :   1.0707 B( 22-C , 23-H ) :   0.9179
B( 22-C , 24-H ) :   0.9363 B( 22-C , 25-C ) :   1.0533 B( 25-C , 26-H ) :   0.9544
B( 25-C , 27-H ) :   0.9442 B( 25-C , 28-C ) :   1.0898 B( 28-C , 29-H ) :   0.9720
B( 28-C , 30-H ) :   0.9711 B( 28-C , 31-H ) :   0.9719

Dispersion correction           -0.014539582
FINAL SINGLE POINT ENERGY     -1339.872201319552

DIPOLE MOMENT
-------------
                                X             Y             Z
Electronic contribution:     30.30376     -10.50555       4.29125
Nuclear contribution   :    -30.96629      10.96776      -4.38185
                        -----------------------------------------
Total Dipole Moment    :     -0.66252       0.46221      -0.09060
                        -----------------------------------------
Magnitude (a.u.)       :      0.81289
Magnitude (Debye)      :      2.06620

Rotational constants in cm-1:     0.017969     0.009371     0.006815
Rotational constants in MHz :   538.695458   280.928062   204.299731

                             ****ORCA TERMINATED NORMALLY****
TOTAL RUN TIME: 0 days 0 hours 0 minutes 29 seconds 45 msec
