                         Program Version 4.2.1 -  RELEASE  -
|  1> ! wB97X-D3 SP def2-SVP
|  2> %pal
|  3> nprocs 16
|  4> end
|  5>
|  6> * xyz 0 1
|  7> S 	 49.6284 	 6.35189 	 82.8553
|  8> C 	 49.1016 	 6.84971 	 84.4329
|  9> C 	 48.4627 	 5.81241 	 85.046
| 10> C 	 48.7923 	 4.52681 	 84.4682
| 11> C 	 49.345 	 4.70045 	 83.2505
| 12> H 	 48.5044 	 3.54759 	 84.7832
| 13> C 	 47.658 	 5.89471 	 86.3355
| 14> H 	 46.839 	 5.1629 	 86.2205
| 15> H 	 47.2203 	 6.92184 	 86.3638
| 16> C 	 48.4529 	 5.57256 	 87.6
| 17> H 	 47.882 	 5.79842 	 88.4499
| 18> H 	 48.6371 	 4.48072 	 87.5637
| 19> C 	 49.8291 	 6.25711 	 87.7543
| 20> H 	 49.8344 	 7.2974 	 87.7811
| 21> H 	 50.3411 	 5.89235 	 88.7158
| 22> H 	 50.5464 	 5.98335 	 86.9527
| 23> S 	 50.7446 	 4.35123 	 80.9091
| 24> C 	 50.7523 	 2.77588 	 80.1079
| 25> C 	 49.8736 	 1.92309 	 80.7176
| 26> C 	 49.3603 	 2.38447 	 81.9811
| 27> C 	 49.75 	 3.72712 	 82.2411
| 28> H 	 49.6625 	 0.937852 	 80.2726
| 29> C 	 48.4337 	 1.50808 	 82.7012
| 30> H 	 47.8171 	 0.907071 	 82.0751
| 31> H 	 47.6959 	 2.20407 	 83.1412
| 32> C 	 48.9266 	 0.614019 	 83.828
| 33> H 	 49.5663 	 1.19359 	 84.5722
| 34> H 	 49.5186 	 -0.219683 	 83.3989
| 35> C 	 47.8153 	 -0.00413671 	 84.6813
| 36> H 	 48.2581 	 -0.678458 	 85.4493
| 37> H 	 47.1605 	 -0.626214 	 84.0243
| 38> H 	 47.2311 	 0.771277 	 85.1633
| 39> H 	 49.0414 	 7.87813 	 84.6511
| 40> H 	 51.3282 	 2.57271 	 79.2247
| 41> *
| 42>
| 43>                          ****END OF INPUT****

CARTESIAN COORDINATES (ANGSTROEM)
---------------------------------
  S     49.628400    6.351890   82.855300
  C     49.101600    6.849710   84.432900
  C     48.462700    5.812410   85.046000
  C     48.792300    4.526810   84.468200
  C     49.345000    4.700450   83.250500
  H     48.504400    3.547590   84.783200
  C     47.658000    5.894710   86.335500
  H     46.839000    5.162900   86.220500
  H     47.220300    6.921840   86.363800
  C     48.452900    5.572560   87.600000
  H     47.882000    5.798420   88.449900
  H     48.637100    4.480720   87.563700
  C     49.829100    6.257110   87.754300
  H     49.834400    7.297400   87.781100
  H     50.341100    5.892350   88.715800
  H     50.546400    5.983350   86.952700
  S     50.744600    4.351230   80.909100
  C     50.752300    2.775880   80.107900
  C     49.873600    1.923090   80.717600
  C     49.360300    2.384470   81.981100
  C     49.750000    3.727120   82.241100
  H     49.662500    0.937852   80.272600
  C     48.433700    1.508080   82.701200
  H     47.817100    0.907071   82.075100
  H     47.695900    2.204070   83.141200
  C     48.926600    0.614019   83.828000
  H     49.566300    1.193590   84.572200
  H     49.518600   -0.219683   83.398900
  C     47.815300   -0.004137   84.681300
  H     48.258100   -0.678458   85.449300
  H     47.160500   -0.626214   84.024300
  H     47.231100    0.771277   85.163300
  H     49.041400    7.878130   84.651100
  H     51.328200    2.572710   79.224700

 Total Charge           Charge          ....    0
 Multiplicity           Mult            ....    1
 Number of Electrons    NEL             ....  134
 Basis Dimension        Dim             ....  322

ORBITAL ENERGIES
----------------

  NO   OCC          E(Eh)            E(eV)
   0   2.0000     -88.965117     -2420.8639
   1   2.0000     -88.959775     -2420.7185
   2   2.0000     -10.333605      -281.1917
   3   2.0000     -10.326238      -280.9912
   4   2.0000     -10.317668      -280.7580
   5   2.0000     -10.307669      -280.4859
   6   2.0000     -10.307127      -280.4712
   7   2.0000     -10.301861      -280.3279
   8   2.0000     -10.295457      -280.1536
   9   2.0000     -10.294789      -280.1355
  10   2.0000     -10.294363      -280.1238
  11   2.0000     -10.290650      -280.0228
  12   2.0000     -10.289316      -279.9865
  13   2.0000     -10.286277      -279.9038
  14   2.0000     -10.285837      -279.8919
  15   2.0000     -10.276319      -279.6329
  16   2.0000      -8.079363      -219.8506
  17   2.0000      -8.076118      -219.7623
  18   2.0000      -6.038001      -164.3024
  19   2.0000      -6.034657      -164.2114
  20   2.0000      -6.034014      -164.1939
  21   2.0000      -6.030605      -164.1011
  22   2.0000      -6.029927      -164.0827
  23   2.0000      -6.026542      -163.9905
  24   2.0000      -1.013463       -27.5777
  25   2.0000      -0.984199       -26.7814
  26   2.0000      -0.916731       -24.9455
  27   2.0000      -0.910606       -24.7788
  28   2.0000      -0.869928       -23.6719
  29   2.0000      -0.857021       -23.3207
  30   2.0000      -0.844615       -22.9832
  31   2.0000      -0.816818       -22.2267
  32   2.0000      -0.783073       -21.3085
  33   2.0000      -0.774224       -21.0677
  34   2.0000      -0.708013       -19.2660
  35   2.0000      -0.699555       -19.0359
  36   2.0000      -0.690684       -18.7945
  37   2.0000      -0.664131       -18.0719
  38   2.0000      -0.644949       -17.5499
  39   2.0000      -0.621493       -16.9117
  40   2.0000      -0.601616       -16.3708
  41   2.0000      -0.573469       -15.6049
  42   2.0000      -0.560330       -15.2474
  43   2.0000      -0.550997       -14.9934
  44   2.0000      -0.540387       -14.7047
  45   2.0000      -0.526926       -14.3384
  46   2.0000      -0.521235       -14.1835
  47   2.0000      -0.516463       -14.0537
  48   2.0000      -0.508786       -13.8448
  49   2.0000      -0.501515       -13.6469
  50   2.0000      -0.492404       -13.3990
  51   2.0000      -0.485781       -13.2188
  52   2.0000      -0.471317       -12.8252
  53   2.0000      -0.464944       -12.6518
  54   2.0000      -0.455450       -12.3934
  55   2.0000      -0.452553       -12.3146
  56   2.0000      -0.442911       -12.0522
  57   2.0000      -0.434548       -11.8246
  58   2.0000      -0.431940       -11.7537
  59   2.0000      -0.425157       -11.5691
  60   2.0000      -0.418687       -11.3931
  61   2.0000      -0.417802       -11.3690
  62   2.0000      -0.410257       -11.1637
  63   2.0000      -0.362684        -9.8691
  64   2.0000      -0.335044        -9.1170
  65   2.0000      -0.324274        -8.8240
  66   2.0000      -0.283198        -7.7062
  67   0.0000       0.019116         0.5202
  68   0.0000       0.080866         2.2005
  69   0.0000       0.091897         2.5006
  70   0.0000       0.120457         3.2778
  71   0.0000       0.123968         3.3733

MULLIKEN ATOMIC CHARGES
-----------------------
   0 S :    0.080493
   1 C :   -0.101067
   2 C :   -0.104570
   3 C :   -0.005401
   4 C :   -0.078633
   5 H :   -0.012860
   6 C :    0.061150
   7 H :    0.033110
   8 H :    0.027899
   9 C :   -0.041597
  10 H :    0.026513
  11 H :    0.028967
  12 C :   -0.074897
  13 H :    0.018098
  14 H :    0.037783
  15 H :    0.047905
  16 S :    0.080525
  17 C :   -0.078684
  18 C :   -0.033198
  19 C :   -0.028125
  20 C :   -0.106137
  21 H :    0.027057
  22 C :    0.046361
  23 H :    0.010101
  24 H :    0.011412
  25 C :   -0.090377
  26 H :    0.040565
  27 H :    0.033596
  28 C :   -0.059400
  29 H :    0.047294
  30 H :    0.031872
  31 H :    0.030856
  32 H :    0.037447
  33 H :    0.055940
Sum of atomic charges:    0.0000000

LOEWDIN ATOMIC CHARGES
----------------------
   0 S :    0.404636
   1 C :   -0.192950
   2 C :   -0.052935
   3 C :   -0.072098
   4 C :   -0.180412
   5 H :    0.025451
   6 C :   -0.034922
   7 H :    0.034187
   8 H :    0.031110
   9 C :   -0.036883
  10 H :    0.018720
  11 H :    0.028190
  12 C :   -0.070251
  13 H :    0.010967
  14 H :    0.035258
  15 H :    0.030951
  16 S :    0.381781
  17 C :   -0.174129
  18 C :   -0.069476
  19 C :   -0.053372
  20 C :   -0.183296
  21 H :    0.035327
  22 C :   -0.043283
  23 H :    0.028241
  24 H :    0.031479
  25 C :   -0.044967
  26 H :    0.028371
  27 H :    0.025922
  28 C :   -0.066699
  29 H :    0.033220
  30 H :    0.025504
  31 H :    0.020301
  32 H :    0.017883
  33 H :    0.028175

  Mayer bond orders larger than 0.100000
B(  0-S ,  1-C ) :   1.1222 B(  0-S ,  4-C ) :   1.1439 B(  1-C ,  2-C ) :   1.6294
B(  1-C , 32-H ) :   0.9769 B(  2-C ,  3-C ) :   1.1808 B(  2-C ,  6-C ) :   1.0331
B(  3-C ,  4-C ) :   1.6138 B(  3-C ,  5-H ) :   0.9921 B(  4-C , 20-C ) :   1.0747
B(  6-C ,  7-H ) :   0.9405 B(  6-C ,  8-H ) :   0.9395 B(  6-C ,  9-C ) :   1.0713
B(  9-C , 10-H ) :   0.9571 B(  9-C , 11-H ) :   0.9531 B(  9-C , 12-C ) :   1.0817
B( 12-C , 13-H ) :   0.9782 B( 12-C , 14-H ) :   0.9736 B( 12-C , 15-H ) :   0.9694
B( 16-S , 17-C ) :   1.1374 B( 16-S , 20-C ) :   1.1350 B( 17-C , 18-C ) :   1.6134
B( 17-C , 33-H ) :   0.9718 B( 18-C , 19-C ) :   1.2455 B( 18-C , 21-H ) :   0.9856
B( 19-C , 20-C ) :   1.5575 B( 19-C , 22-C ) :   1.0567 B( 22-C , 23-H ) :   0.9283
B( 22-C , 24-H ) :   0.9241 B( 22-C , 25-C ) :   1.0649 B( 25-C , 26-H ) :   0.9536
B( 25-C , 27-H ) :   0.9507 B( 25-C , 28-C ) :   1.0833 B( 28-C , 29-H ) :   0.9734
B( 28-C , 30-H ) :   0.9731 B( 28-C , 31-H ) :   0.9752

Dispersion correction           -0.014429668
FINAL SINGLE POINT ENERGY     -1339.882049546461

DIPOLE MOMENT
-------------
                                X             Y             Z
Electronic contribution:      9.50800      13.07512     -24.27375
Nuclear contribution   :     -9.90693     -13.53482      24.56449
                        -----------------------------------------
Total Dipole Moment    :     -0.39893      -0.45970       0.29074
                        -----------------------------------------
Magnitude (a.u.)       :      0.67454
Magnitude (Debye)      :      1.71454

Rotational constants in cm-1:     0.017582     0.009728     0.006701
Rotational constants in MHz :   527.081025   291.650333   200.898789

                             ****ORCA TERMINATED NORMALLY****
TOTAL RUN TIME: 0 days 0 hours 0 minutes 30 seconds 763 msec
