                         Program Version 4.2.1 -  RELEASE  -
|  1> ! wB97X-D3 SP def2-SVP
|  2> %pal
|  3> nprocs 16
|  4> end
|  5>
|  6> * xyz 0 1
|  7> S 	 -38.6968 	 -0.153143 	 99.2164
|  8> C 	 -37.2147 	 -1.08526 	 99.1186
|  9> C 	 -36.0687 	 -0.329848 	 99.292
| 10> C 	 -36.4265 	 1.03984 	 99.4796
| 11> C 	 -37.7764 	 1.31518 	 99.4155
| 12> H 	 -35.6258 	 1.80349 	 99.6551
| 13> C 	 -34.6559 	 -0.798118 	 99.4616
| 14> H 	 -34.503 	 -1.83311 	 99.4429
| 15> H 	 -34.4838 	 -0.673728 	 100.495
| 16> C 	 -33.6016 	 0.0502049 	 98.8048
| 17> H 	 -33.6313 	 1.05024 	 99.3446
| 18> H 	 -32.6213 	 -0.382142 	 99.0834
| 19> C 	 -33.8221 	 0.257863 	 97.2567
| 20> H 	 -33.3359 	 1.19867 	 96.9879
| 21> H 	 -33.3026 	 -0.508932 	 96.6896
| 22> H 	 -34.8478 	 0.35801 	 97.074
| 23> S 	 -40.0629 	 2.63289 	 100.18
| 24> C 	 -40.1428 	 4.35235 	 100.262
| 25> C 	 -39.1435 	 4.91187 	 99.4942
| 26> C 	 -38.0926 	 3.94396 	 99.2178
| 27> C 	 -38.4336 	 2.64715 	 99.5372
| 28> H 	 -39.0636 	 6.00322 	 99.2836
| 29> C 	 -36.8816 	 4.37029 	 98.453
| 30> H 	 -36.0135 	 4.02265 	 98.9562
| 31> H 	 -36.9446 	 5.45805 	 98.4914
| 32> C 	 -36.8612 	 3.86427 	 96.9584
| 33> H 	 -37.7378 	 4.23459 	 96.4013
| 34> H 	 -36.9233 	 2.85037 	 97.1665
| 35> C 	 -35.5252 	 4.16378 	 96.2271
| 36> H 	 -35.4184 	 5.16795 	 95.8888
| 37> H 	 -35.5839 	 3.53045 	 95.355
| 38> H 	 -34.6141 	 3.78152 	 96.8297
| 39> H 	 -37.2552 	 -2.14493 	 98.8562
| 40> H 	 -40.916 	 4.9769 	 100.627
| 41> *
| 42>
| 43>                          ****END OF INPUT****

CARTESIAN COORDINATES (ANGSTROEM)
---------------------------------
  S    -38.696800   -0.153143   99.216400
  C    -37.214700   -1.085260   99.118600
  C    -36.068700   -0.329848   99.292000
  C    -36.426500    1.039840   99.479600
  C    -37.776400    1.315180   99.415500
  H    -35.625800    1.803490   99.655100
  C    -34.655900   -0.798118   99.461600
  H    -34.503000   -1.833110   99.442900
  H    -34.483800   -0.673728  100.495000
  C    -33.601600    0.050205   98.804800
  H    -33.631300    1.050240   99.344600
  H    -32.621300   -0.382142   99.083400
  C    -33.822100    0.257863   97.256700
  H    -33.335900    1.198670   96.987900
  H    -33.302600   -0.508932   96.689600
  H    -34.847800    0.358010   97.074000
  S    -40.062900    2.632890  100.180000
  C    -40.142800    4.352350  100.262000
  C    -39.143500    4.911870   99.494200
  C    -38.092600    3.943960   99.217800
  C    -38.433600    2.647150   99.537200
  H    -39.063600    6.003220   99.283600
  C    -36.881600    4.370290   98.453000
  H    -36.013500    4.022650   98.956200
  H    -36.944600    5.458050   98.491400
  C    -36.861200    3.864270   96.958400
  H    -37.737800    4.234590   96.401300
  H    -36.923300    2.850370   97.166500
  C    -35.525200    4.163780   96.227100
  H    -35.418400    5.167950   95.888800
  H    -35.583900    3.530450   95.355000
  H    -34.614100    3.781520   96.829700
  H    -37.255200   -2.144930   98.856200
  H    -40.916000    4.976900  100.627000

 Total Charge           Charge          ....    0
 Multiplicity           Mult            ....    1
 Number of Electrons    NEL             ....  134
 Basis Dimension        Dim             ....  322

ORBITAL ENERGIES
----------------

  NO   OCC          E(Eh)            E(eV)
   0   2.0000     -88.968674     -2420.9607
   1   2.0000     -88.963301     -2420.8145
   2   2.0000     -10.336103      -281.2597
   3   2.0000     -10.328196      -281.0445
   4   2.0000     -10.315048      -280.6867
   5   2.0000     -10.314051      -280.6596
   6   2.0000     -10.302989      -280.3586
   7   2.0000     -10.300450      -280.2895
   8   2.0000     -10.297288      -280.2035
   9   2.0000     -10.296833      -280.1911
  10   2.0000     -10.296227      -280.1746
  11   2.0000     -10.284189      -279.8470
  12   2.0000     -10.283450      -279.8269
  13   2.0000     -10.282301      -279.7956
  14   2.0000     -10.281184      -279.7653
  15   2.0000     -10.275455      -279.6093
  16   2.0000      -8.083513      -219.9636
  17   2.0000      -8.078667      -219.8317
  18   2.0000      -6.042115      -164.4143
  19   2.0000      -6.038109      -164.3053
  20   2.0000      -6.037300      -164.2833
  21   2.0000      -6.034078      -164.1956
  22   2.0000      -6.033177      -164.1711
  23   2.0000      -6.029184      -164.0624
  24   2.0000      -1.009049       -27.4576
  25   2.0000      -0.987934       -26.8830
  26   2.0000      -0.919760       -25.0279
  27   2.0000      -0.906398       -24.6644
  28   2.0000      -0.866371       -23.5752
  29   2.0000      -0.849735       -23.1225
  30   2.0000      -0.842145       -22.9159
  31   2.0000      -0.816682       -22.2230
  32   2.0000      -0.790130       -21.5005
  33   2.0000      -0.772821       -21.0295
  34   2.0000      -0.709408       -19.3040
  35   2.0000      -0.700364       -19.0579
  36   2.0000      -0.689093       -18.7512
  37   2.0000      -0.663629       -18.0583
  38   2.0000      -0.639618       -17.4049
  39   2.0000      -0.629228       -17.1222
  40   2.0000      -0.591365       -16.0919
  41   2.0000      -0.569135       -15.4869
  42   2.0000      -0.566652       -15.4194
  43   2.0000      -0.552087       -15.0230
  44   2.0000      -0.541233       -14.7277
  45   2.0000      -0.518813       -14.1176
  46   2.0000      -0.515286       -14.0216
  47   2.0000      -0.509337       -13.8598
  48   2.0000      -0.507430       -13.8079
  49   2.0000      -0.498288       -13.5591
  50   2.0000      -0.491557       -13.3759
  51   2.0000      -0.487997       -13.2791
  52   2.0000      -0.473748       -12.8913
  53   2.0000      -0.464467       -12.6388
  54   2.0000      -0.461469       -12.5572
  55   2.0000      -0.454491       -12.3673
  56   2.0000      -0.449129       -12.2214
  57   2.0000      -0.436353       -11.8738
  58   2.0000      -0.434910       -11.8345
  59   2.0000      -0.426526       -11.6063
  60   2.0000      -0.416293       -11.3279
  61   2.0000      -0.414246       -11.2722
  62   2.0000      -0.411980       -11.2105
  63   2.0000      -0.358120        -9.7449
  64   2.0000      -0.333988        -9.0883
  65   2.0000      -0.323538        -8.8039
  66   2.0000      -0.285335        -7.7644
  67   0.0000       0.025761         0.7010
  68   0.0000       0.073353         1.9960
  69   0.0000       0.102845         2.7986
  70   0.0000       0.117393         3.1944
  71   0.0000       0.119830         3.2608

MULLIKEN ATOMIC CHARGES
-----------------------
   0 S :    0.106857
   1 C :   -0.145433
   2 C :   -0.081285
   3 C :   -0.039162
   4 C :   -0.092364
   5 H :    0.021580
   6 C :    0.135125
   7 H :   -0.001096
   8 H :    0.023352
   9 C :   -0.134567
  10 H :    0.031183
  11 H :    0.032264
  12 C :   -0.015408
  13 H :    0.027896
  14 H :    0.037962
  15 H :    0.040858
  16 S :    0.090070
  17 C :   -0.058983
  18 C :   -0.054855
  19 C :   -0.097789
  20 C :   -0.119708
  21 H :    0.038266
  22 C :    0.077015
  23 H :    0.013086
  24 H :    0.006580
  25 C :   -0.062958
  26 H :    0.038285
  27 H :    0.021541
  28 C :   -0.043055
  29 H :    0.036107
  30 H :    0.031477
  31 H :    0.038628
  32 H :    0.053617
  33 H :    0.044915
Sum of atomic charges:   -0.0000000

LOEWDIN ATOMIC CHARGES
----------------------
   0 S :    0.402456
   1 C :   -0.198414
   2 C :   -0.059363
   3 C :   -0.077829
   4 C :   -0.188030
   5 H :    0.034227
   6 C :   -0.036436
   7 H :    0.023592
   8 H :    0.039613
   9 C :   -0.041405
  10 H :    0.024669
  11 H :    0.027920
  12 C :   -0.058864
  13 H :    0.027130
  14 H :    0.028451
  15 H :    0.019754
  16 S :    0.407160
  17 C :   -0.185677
  18 C :   -0.074052
  19 C :   -0.061246
  20 C :   -0.193620
  21 H :    0.038015
  22 C :   -0.029317
  23 H :    0.021116
  24 H :    0.023812
  25 C :   -0.028159
  26 H :    0.029384
  27 H :    0.015468
  28 C :   -0.065974
  29 H :    0.019707
  30 H :    0.027103
  31 H :    0.033951
  32 H :    0.028531
  33 H :    0.026329

  Mayer bond orders larger than 0.100000
B(  0-S ,  1-C ) :   1.1298 B(  0-S ,  4-C ) :   1.1534 B(  1-C ,  2-C ) :   1.6124
B(  1-C , 32-H ) :   0.9644 B(  2-C ,  3-C ) :   1.2386 B(  2-C ,  6-C ) :   1.0183
B(  3-C ,  4-C ) :   1.5751 B(  3-C ,  5-H ) :   0.9844 B(  4-C , 20-C ) :   1.0425
B(  6-C ,  7-H ) :   0.9371 B(  6-C ,  8-H ) :   0.9236 B(  6-C ,  9-C ) :   1.0738
B(  9-C , 10-H ) :   0.9545 B(  9-C , 11-H ) :   0.9536 B(  9-C , 12-C ) :   1.0645
B( 12-C , 13-H ) :   0.9752 B( 12-C , 14-H ) :   0.9755 B( 12-C , 15-H ) :   0.9751
B( 16-S , 17-C ) :   1.1616 B( 16-S , 20-C ) :   1.1229 B( 17-C , 18-C ) :   1.6131
B( 17-C , 33-H ) :   0.9695 B( 18-C , 19-C ) :   1.2473 B( 18-C , 21-H ) :   0.9751
B( 19-C , 20-C ) :   1.5964 B( 19-C , 22-C ) :   1.0591 B( 22-C , 23-H ) :   0.9296
B( 22-C , 24-H ) :   0.9269 B( 22-C , 25-C ) :   1.0542 B( 25-C , 26-H ) :   0.9543
B( 25-C , 27-H ) :   0.9577 B( 25-C , 28-C ) :   1.0861 B( 28-C , 29-H ) :   0.9771
B( 28-C , 30-H ) :   0.9729 B( 28-C , 31-H ) :   0.9702

Dispersion correction           -0.015562105
FINAL SINGLE POINT ENERGY     -1339.868530737843

DIPOLE MOMENT
-------------
                                X             Y             Z
Electronic contribution:    -27.24246      -5.09870      13.81924
Nuclear contribution   :     27.86096       5.27003     -13.99028
                        -----------------------------------------
Total Dipole Moment    :      0.61849       0.17133      -0.17104
                        -----------------------------------------
Magnitude (a.u.)       :      0.66418
Magnitude (Debye)      :      1.68822

Rotational constants in cm-1:     0.018353     0.010465     0.007361
Rotational constants in MHz :   550.222406   313.731414   220.668155

                             ****ORCA TERMINATED NORMALLY****
TOTAL RUN TIME: 0 days 0 hours 0 minutes 32 seconds 766 msec
