                         Program Version 4.2.1 -  RELEASE  -
|  1> ! wB97X-D3 SP def2-SVP
|  2> %pal
|  3> nprocs 16
|  4> end
|  5>
|  6> * xyz 0 1
|  7> S 	 -71.8211 	 40.4195 	 137.324
|  8> C 	 -71.9155 	 39.3671 	 135.873
|  9> C 	 -70.6623 	 38.9775 	 135.456
| 10> C 	 -69.6499 	 39.341 	 136.358
| 11> C 	 -70.0623 	 40.1945 	 137.387
| 12> H 	 -68.6109 	 39.0348 	 136.314
| 13> C 	 -70.5402 	 38.0433 	 134.316
| 14> H 	 -71.4372 	 37.4207 	 134.372
| 15> H 	 -69.6317 	 37.4617 	 134.419
| 16> C 	 -70.4432 	 38.7039 	 132.903
| 17> H 	 -71.3084 	 39.1232 	 132.57
| 18> H 	 -69.7301 	 39.5125 	 133.028
| 19> C 	 -69.8994 	 37.7337 	 131.842
| 20> H 	 -68.8198 	 37.7194 	 131.823
| 21> H 	 -70.3293 	 36.7412 	 131.691
| 22> H 	 -69.9563 	 38.1761 	 130.797
| 23> S 	 -68.4388 	 39.6978 	 139.483
| 24> C 	 -67.6929 	 41.0649 	 140.359
| 25> C 	 -68.3296 	 42.22 	 139.982
| 26> C 	 -69.2186 	 42.0896 	 138.921
| 27> C 	 -69.3087 	 40.8002 	 138.487
| 28> H 	 -68.0815 	 43.1108 	 140.544
| 29> C 	 -69.7635 	 43.324 	 138.233
| 30> H 	 -70.7734 	 43.1412 	 137.767
| 31> H 	 -69.0693 	 43.4974 	 137.462
| 32> C 	 -69.85 	 44.5081 	 139.113
| 33> H 	 -68.8286 	 44.8676 	 139.322
| 34> H 	 -70.4498 	 44.2539 	 140.019
| 35> C 	 -70.5947 	 45.5979 	 138.33
| 36> H 	 -71.6326 	 45.4152 	 138.134
| 37> H 	 -70.0304 	 46.1006 	 137.492
| 38> H 	 -70.5613 	 46.4166 	 139.067
| 39> H 	 -72.8491 	 39.1743 	 135.347
| 40> H 	 -67.117 	 41.0294 	 141.322
| 41> *
| 42>
| 43>                          ****END OF INPUT****

CARTESIAN COORDINATES (ANGSTROEM)
---------------------------------
  S    -71.821100   40.419500  137.324000
  C    -71.915500   39.367100  135.873000
  C    -70.662300   38.977500  135.456000
  C    -69.649900   39.341000  136.358000
  C    -70.062300   40.194500  137.387000
  H    -68.610900   39.034800  136.314000
  C    -70.540200   38.043300  134.316000
  H    -71.437200   37.420700  134.372000
  H    -69.631700   37.461700  134.419000
  C    -70.443200   38.703900  132.903000
  H    -71.308400   39.123200  132.570000
  H    -69.730100   39.512500  133.028000
  C    -69.899400   37.733700  131.842000
  H    -68.819800   37.719400  131.823000
  H    -70.329300   36.741200  131.691000
  H    -69.956300   38.176100  130.797000
  S    -68.438800   39.697800  139.483000
  C    -67.692900   41.064900  140.359000
  C    -68.329600   42.220000  139.982000
  C    -69.218600   42.089600  138.921000
  C    -69.308700   40.800200  138.487000
  H    -68.081500   43.110800  140.544000
  C    -69.763500   43.324000  138.233000
  H    -70.773400   43.141200  137.767000
  H    -69.069300   43.497400  137.462000
  C    -69.850000   44.508100  139.113000
  H    -68.828600   44.867600  139.322000
  H    -70.449800   44.253900  140.019000
  C    -70.594700   45.597900  138.330000
  H    -71.632600   45.415200  138.134000
  H    -70.030400   46.100600  137.492000
  H    -70.561300   46.416600  139.067000
  H    -72.849100   39.174300  135.347000
  H    -67.117000   41.029400  141.322000

 Total Charge           Charge          ....    0
 Multiplicity           Mult            ....    1
 Number of Electrons    NEL             ....  134
 Basis Dimension        Dim             ....  322

ORBITAL ENERGIES
----------------

  NO   OCC          E(Eh)            E(eV)
   0   2.0000     -88.965620     -2420.8776
   1   2.0000     -88.964048     -2420.8348
   2   2.0000     -10.332415      -281.1593
   3   2.0000     -10.321048      -280.8500
   4   2.0000     -10.317285      -280.7476
   5   2.0000     -10.315022      -280.6860
   6   2.0000     -10.296160      -280.1728
   7   2.0000     -10.295451      -280.1535
   8   2.0000     -10.292729      -280.0794
   9   2.0000     -10.289029      -279.9787
  10   2.0000     -10.287559      -279.9387
  11   2.0000     -10.287044      -279.9247
  12   2.0000     -10.281995      -279.7873
  13   2.0000     -10.280973      -279.7595
  14   2.0000     -10.280905      -279.7576
  15   2.0000     -10.278882      -279.7026
  16   2.0000      -8.078992      -219.8406
  17   2.0000      -8.078646      -219.8311
  18   2.0000      -6.037481      -164.2882
  19   2.0000      -6.037102      -164.2779
  20   2.0000      -6.033671      -164.1845
  21   2.0000      -6.033211      -164.1720
  22   2.0000      -6.029884      -164.0815
  23   2.0000      -6.029411      -164.0686
  24   2.0000      -1.008209       -27.4348
  25   2.0000      -0.983681       -26.7673
  26   2.0000      -0.919399       -25.0181
  27   2.0000      -0.911465       -24.8022
  28   2.0000      -0.868879       -23.6434
  29   2.0000      -0.852203       -23.1896
  30   2.0000      -0.843684       -22.9578
  31   2.0000      -0.816031       -22.2053
  32   2.0000      -0.781313       -21.2606
  33   2.0000      -0.768335       -20.9075
  34   2.0000      -0.709396       -19.3037
  35   2.0000      -0.702631       -19.1196
  36   2.0000      -0.695575       -18.9276
  37   2.0000      -0.656538       -17.8653
  38   2.0000      -0.636217       -17.3123
  39   2.0000      -0.615846       -16.7580
  40   2.0000      -0.596346       -16.2274
  41   2.0000      -0.584462       -15.9040
  42   2.0000      -0.573407       -15.6032
  43   2.0000      -0.562087       -15.2952
  44   2.0000      -0.524282       -14.2664
  45   2.0000      -0.521642       -14.1946
  46   2.0000      -0.516145       -14.0450
  47   2.0000      -0.512277       -13.9398
  48   2.0000      -0.503318       -13.6960
  49   2.0000      -0.497863       -13.5475
  50   2.0000      -0.488609       -13.2957
  51   2.0000      -0.480283       -13.0692
  52   2.0000      -0.469698       -12.7811
  53   2.0000      -0.465708       -12.6726
  54   2.0000      -0.458611       -12.4794
  55   2.0000      -0.447405       -12.1745
  56   2.0000      -0.442457       -12.0399
  57   2.0000      -0.433717       -11.8021
  58   2.0000      -0.429061       -11.6754
  59   2.0000      -0.427168       -11.6238
  60   2.0000      -0.422225       -11.4893
  61   2.0000      -0.418516       -11.3884
  62   2.0000      -0.405965       -11.0469
  63   2.0000      -0.340745        -9.2722
  64   2.0000      -0.333793        -9.0830
  65   2.0000      -0.329782        -8.9738
  66   2.0000      -0.291669        -7.9367
  67   0.0000       0.029078         0.7913
  68   0.0000       0.066318         1.8046
  69   0.0000       0.109406         2.9771
  70   0.0000       0.119385         3.2486
  71   0.0000       0.127564         3.4712

MULLIKEN ATOMIC CHARGES
-----------------------
   0 S :    0.101299
   1 C :   -0.139664
   2 C :   -0.064569
   3 C :    0.029207
   4 C :   -0.161016
   5 H :    0.012053
   6 C :    0.065256
   7 H :    0.033053
   8 H :    0.017697
   9 C :   -0.009350
  10 H :    0.007053
  11 H :    0.023609
  12 C :   -0.081032
  13 H :    0.024623
  14 H :    0.044449
  15 H :    0.021517
  16 S :    0.110960
  17 C :   -0.103443
  18 C :   -0.075781
  19 C :   -0.005232
  20 C :   -0.167369
  21 H :    0.022282
  22 C :    0.105148
  23 H :    0.022273
  24 H :    0.027279
  25 C :   -0.132862
  26 H :    0.037716
  27 H :    0.045038
  28 C :   -0.035017
  29 H :    0.041390
  30 H :    0.040601
  31 H :    0.016941
  32 H :    0.053281
  33 H :    0.072614
Sum of atomic charges:   -0.0000000

LOEWDIN ATOMIC CHARGES
----------------------
   0 S :    0.384611
   1 C :   -0.181233
   2 C :   -0.069502
   3 C :   -0.063871
   4 C :   -0.181317
   5 H :    0.032305
   6 C :   -0.026124
   7 H :    0.033921
   8 H :    0.030215
   9 C :   -0.025661
  10 H :    0.008119
  11 H :    0.028579
  12 C :   -0.081895
  13 H :    0.024597
  14 H :    0.026451
  15 H :    0.034136
  16 S :    0.408991
  17 C :   -0.190931
  18 C :   -0.072935
  19 C :   -0.067686
  20 C :   -0.207501
  21 H :    0.032318
  22 C :   -0.033545
  23 H :    0.027654
  24 H :    0.030940
  25 C :   -0.045103
  26 H :    0.027513
  27 H :    0.032886
  28 C :   -0.069609
  29 H :    0.023155
  30 H :    0.033659
  31 H :    0.026840
  32 H :    0.028071
  33 H :    0.041951

  Mayer bond orders larger than 0.100000
B(  0-S ,  1-C ) :   1.1343 B(  0-S ,  4-C ) :   1.1521 B(  1-C ,  2-C ) :   1.5982
B(  1-C ,  4-C ) :   0.1051 B(  1-C , 32-H ) :   0.9686 B(  2-C ,  3-C ) :   1.2430
B(  2-C ,  6-C ) :   1.0299 B(  3-C ,  4-C ) :   1.5663 B(  3-C ,  5-H ) :   0.9944
B(  4-C , 20-C ) :   1.0259 B(  6-C ,  7-H ) :   0.9414 B(  6-C ,  8-H ) :   0.9433
B(  6-C ,  9-C ) :   1.0512 B(  9-C , 10-H ) :   0.9601 B(  9-C , 11-H ) :   0.9550
B(  9-C , 12-C ) :   1.0850 B( 12-C , 13-H ) :   0.9727 B( 12-C , 14-H ) :   0.9771
B( 12-C , 15-H ) :   0.9687 B( 16-S , 17-C ) :   1.1393 B( 16-S , 20-C ) :   1.1606
B( 17-C , 18-C ) :   1.6166 B( 17-C , 20-C ) :   0.1024 B( 17-C , 33-H ) :   0.9552
B( 18-C , 19-C ) :   1.2524 B( 18-C , 21-H ) :   0.9844 B( 19-C , 20-C ) :   1.5868
B( 19-C , 22-C ) :   1.0277 B( 22-C , 23-H ) :   0.9294 B( 22-C , 24-H ) :   0.9208
B( 22-C , 25-C ) :   1.0940 B( 25-C , 26-H ) :   0.9333 B( 25-C , 27-H ) :   0.9581
B( 25-C , 28-C ) :   1.0981 B( 28-C , 29-H ) :   0.9725 B( 28-C , 30-H ) :   0.9691
B( 28-C , 31-H ) :   0.9700

Dispersion correction           -0.013338474
FINAL SINGLE POINT ENERGY     -1339.863572286234

DIPOLE MOMENT
-------------
                                X             Y             Z
Electronic contribution:      0.50344      -9.11306      18.10443
Nuclear contribution   :     -0.42094       9.40588     -18.40401
                        -----------------------------------------
Total Dipole Moment    :      0.08250       0.29282      -0.29958
                        -----------------------------------------
Magnitude (a.u.)       :      0.42696
Magnitude (Debye)      :      1.08524

Rotational constants in cm-1:     0.020779     0.007086     0.006066
Rotational constants in MHz :   622.948551   212.430865   181.860950

                             ****ORCA TERMINATED NORMALLY****
TOTAL RUN TIME: 0 days 0 hours 0 minutes 33 seconds 525 msec
