                         Program Version 4.2.1 -  RELEASE  -
|  1> ! wB97X-D3 SP def2-SVP
|  2> %pal
|  3> nprocs 16
|  4> end
|  5>
|  6> * xyz 0 1
|  7> S 	 -67.4099 	 51.8653 	 123.616
|  8> C 	 -67.3723 	 51.4424 	 125.328
|  9> C 	 -68.6966 	 51.476 	 125.758
| 10> C 	 -69.6584 	 51.7631 	 124.783
| 11> C 	 -69.1554 	 51.9142 	 123.507
| 12> H 	 -70.7146 	 51.7554 	 125.013
| 13> C 	 -69.1989 	 51.2496 	 127.157
| 14> H 	 -70.2529 	 50.85 	 127.064
| 15> H 	 -69.3013 	 52.2481 	 127.589
| 16> C 	 -68.305 	 50.4239 	 127.984
| 17> H 	 -68.0537 	 49.4762 	 127.485
| 18> H 	 -67.4272 	 50.9454 	 128.282
| 19> C 	 -69.0408 	 49.9589 	 129.208
| 20> H 	 -69.1883 	 50.8279 	 129.868
| 21> H 	 -69.9615 	 49.4833 	 128.962
| 22> H 	 -68.369 	 49.2339 	 129.694
| 23> S 	 -69.3545 	 53.4409 	 121.379
| 24> C 	 -70.4707 	 53.2009 	 120.053
| 25> C 	 -71.245 	 52.0996 	 120.376
| 26> C 	 -70.9015 	 51.5361 	 121.633
| 27> C 	 -69.772 	 51.9942 	 122.222
| 28> H 	 -72.0467 	 51.8208 	 119.746
| 29> C 	 -71.6488 	 50.3681 	 122.211
| 30> H 	 -72.6958 	 50.4679 	 122.227
| 31> H 	 -71.5534 	 50.2862 	 123.302
| 32> C 	 -71.3209 	 48.9609 	 121.682
| 33> H 	 -70.2653 	 48.8894 	 121.383
| 34> H 	 -71.9056 	 48.8415 	 120.806
| 35> C 	 -71.6801 	 47.738 	 122.615
| 36> H 	 -71.4458 	 46.7652 	 122.175
| 37> H 	 -72.6854 	 47.7957 	 123.071
| 38> H 	 -70.9446 	 47.6845 	 123.474
| 39> H 	 -66.4805 	 51.2327 	 125.944
| 40> H 	 -70.6366 	 53.8992 	 119.256
| 41> *
| 42>
| 43>                          ****END OF INPUT****

CARTESIAN COORDINATES (ANGSTROEM)
---------------------------------
  S    -67.409900   51.865300  123.616000
  C    -67.372300   51.442400  125.328000
  C    -68.696600   51.476000  125.758000
  C    -69.658400   51.763100  124.783000
  C    -69.155400   51.914200  123.507000
  H    -70.714600   51.755400  125.013000
  C    -69.198900   51.249600  127.157000
  H    -70.252900   50.850000  127.064000
  H    -69.301300   52.248100  127.589000
  C    -68.305000   50.423900  127.984000
  H    -68.053700   49.476200  127.485000
  H    -67.427200   50.945400  128.282000
  C    -69.040800   49.958900  129.208000
  H    -69.188300   50.827900  129.868000
  H    -69.961500   49.483300  128.962000
  H    -68.369000   49.233900  129.694000
  S    -69.354500   53.440900  121.379000
  C    -70.470700   53.200900  120.053000
  C    -71.245000   52.099600  120.376000
  C    -70.901500   51.536100  121.633000
  C    -69.772000   51.994200  122.222000
  H    -72.046700   51.820800  119.746000
  C    -71.648800   50.368100  122.211000
  H    -72.695800   50.467900  122.227000
  H    -71.553400   50.286200  123.302000
  C    -71.320900   48.960900  121.682000
  H    -70.265300   48.889400  121.383000
  H    -71.905600   48.841500  120.806000
  C    -71.680100   47.738000  122.615000
  H    -71.445800   46.765200  122.175000
  H    -72.685400   47.795700  123.071000
  H    -70.944600   47.684500  123.474000
  H    -66.480500   51.232700  125.944000
  H    -70.636600   53.899200  119.256000

 Total Charge           Charge          ....    0
 Multiplicity           Mult            ....    1
 Number of Electrons    NEL             ....  134
 Basis Dimension        Dim             ....  322

ORBITAL ENERGIES
----------------

  NO   OCC          E(Eh)            E(eV)
   0   2.0000     -88.963211     -2420.8120
   1   2.0000     -88.959162     -2420.7019
   2   2.0000     -10.330513      -281.1076
   3   2.0000     -10.322213      -280.8817
   4   2.0000     -10.319968      -280.8206
   5   2.0000     -10.318185      -280.7721
   6   2.0000     -10.302283      -280.3394
   7   2.0000     -10.295435      -280.1530
   8   2.0000     -10.293980      -280.1134
   9   2.0000     -10.289945      -280.0037
  10   2.0000     -10.288973      -279.9772
  11   2.0000     -10.285460      -279.8816
  12   2.0000     -10.283273      -279.8221
  13   2.0000     -10.282517      -279.8015
  14   2.0000     -10.277878      -279.6753
  15   2.0000     -10.274656      -279.5876
  16   2.0000      -8.077729      -219.8062
  17   2.0000      -8.074925      -219.7299
  18   2.0000      -6.036322      -164.2567
  19   2.0000      -6.033458      -164.1787
  20   2.0000      -6.032105      -164.1419
  21   2.0000      -6.029083      -164.0597
  22   2.0000      -6.028546      -164.0451
  23   2.0000      -6.025736      -163.9686
  24   2.0000      -1.016975       -27.6733
  25   2.0000      -0.990119       -26.9425
  26   2.0000      -0.926393       -25.2084
  27   2.0000      -0.904162       -24.6035
  28   2.0000      -0.879081       -23.9210
  29   2.0000      -0.852966       -23.2104
  30   2.0000      -0.843254       -22.9461
  31   2.0000      -0.818264       -22.2661
  32   2.0000      -0.779394       -21.2084
  33   2.0000      -0.771687       -20.9987
  34   2.0000      -0.713113       -19.4048
  35   2.0000      -0.701233       -19.0815
  36   2.0000      -0.693813       -18.8796
  37   2.0000      -0.671108       -18.2618
  38   2.0000      -0.639391       -17.3987
  39   2.0000      -0.621306       -16.9066
  40   2.0000      -0.603891       -16.4327
  41   2.0000      -0.585399       -15.9295
  42   2.0000      -0.573537       -15.6067
  43   2.0000      -0.556042       -15.1307
  44   2.0000      -0.529502       -14.4085
  45   2.0000      -0.525857       -14.3093
  46   2.0000      -0.524942       -14.2844
  47   2.0000      -0.518952       -14.1214
  48   2.0000      -0.510085       -13.8801
  49   2.0000      -0.502606       -13.6766
  50   2.0000      -0.489470       -13.3192
  51   2.0000      -0.487205       -13.2575
  52   2.0000      -0.479756       -13.0548
  53   2.0000      -0.460976       -12.5438
  54   2.0000      -0.456077       -12.4105
  55   2.0000      -0.446565       -12.1516
  56   2.0000      -0.439572       -11.9614
  57   2.0000      -0.436369       -11.8742
  58   2.0000      -0.431148       -11.7321
  59   2.0000      -0.426338       -11.6012
  60   2.0000      -0.414735       -11.2855
  61   2.0000      -0.407612       -11.0917
  62   2.0000      -0.403765       -10.9870
  63   2.0000      -0.351974        -9.5777
  64   2.0000      -0.328600        -8.9417
  65   2.0000      -0.326522        -8.8851
  66   2.0000      -0.294872        -8.0239
  67   0.0000       0.027312         0.7432
  68   0.0000       0.067721         1.8428
  69   0.0000       0.113903         3.0995
  70   0.0000       0.121919         3.3176
  71   0.0000       0.134561         3.6616

MULLIKEN ATOMIC CHARGES
-----------------------
   0 S :    0.103444
   1 C :   -0.131777
   2 C :   -0.102652
   3 C :    0.024611
   4 C :   -0.131292
   5 H :    0.012539
   6 C :    0.045543
   7 H :    0.025947
   8 H :    0.040477
   9 C :   -0.081021
  10 H :    0.031177
  11 H :    0.026135
  12 C :   -0.027797
  13 H :    0.027428
  14 H :    0.026631
  15 H :    0.030705
  16 S :    0.083186
  17 C :   -0.078884
  18 C :   -0.011850
  19 C :   -0.057685
  20 C :   -0.080128
  21 H :    0.007030
  22 C :    0.066944
  23 H :    0.001800
  24 H :   -0.005557
  25 C :   -0.047011
  26 H :    0.037319
  27 H :    0.018121
  28 C :   -0.089151
  29 H :    0.037672
  30 H :    0.041990
  31 H :    0.031164
  32 H :    0.064459
  33 H :    0.060483
Sum of atomic charges:   -0.0000000

LOEWDIN ATOMIC CHARGES
----------------------
   0 S :    0.408044
   1 C :   -0.206875
   2 C :   -0.067027
   3 C :   -0.066600
   4 C :   -0.191929
   5 H :    0.029677
   6 C :   -0.036581
   7 H :    0.033832
   8 H :    0.038023
   9 C :   -0.046915
  10 H :    0.027877
  11 H :    0.021700
  12 C :   -0.054990
  13 H :    0.024367
  14 H :    0.018582
  15 H :    0.027281
  16 S :    0.420632
  17 C :   -0.175041
  18 C :   -0.065699
  19 C :   -0.059057
  20 C :   -0.202335
  21 H :    0.027279
  22 C :   -0.039902
  23 H :    0.022838
  24 H :    0.027683
  25 C :   -0.034574
  26 H :    0.028463
  27 H :    0.015035
  28 C :   -0.076926
  29 H :    0.028869
  30 H :    0.025834
  31 H :    0.029185
  32 H :    0.039043
  33 H :    0.030210

  Mayer bond orders larger than 0.100000
B(  0-S ,  1-C ) :   1.1272 B(  0-S ,  4-C ) :   1.1654 B(  1-C ,  2-C ) :   1.5733
B(  1-C ,  4-C ) :   0.1096 B(  1-C , 32-H ) :   0.9711 B(  2-C ,  3-C ) :   1.2811
B(  2-C ,  6-C ) :   1.0119 B(  3-C ,  4-C ) :   1.5405 B(  3-C ,  5-H ) :   0.9970
B(  4-C , 20-C ) :   1.0056 B(  6-C ,  7-H ) :   0.9486 B(  6-C ,  8-H ) :   0.9187
B(  6-C ,  9-C ) :   1.0929 B(  9-C , 10-H ) :   0.9606 B(  9-C , 11-H ) :   0.9363
B(  9-C , 12-C ) :   1.0966 B( 12-C , 13-H ) :   0.9713 B( 12-C , 14-H ) :   0.9770
B( 12-C , 15-H ) :   0.9739 B( 16-S , 17-C ) :   1.1741 B( 16-S , 20-C ) :   1.1428
B( 17-C , 18-C ) :   1.5646 B( 17-C , 20-C ) :   0.1063 B( 17-C , 33-H ) :   0.9741
B( 18-C , 19-C ) :   1.2474 B( 18-C , 21-H ) :   1.0053 B( 19-C , 20-C ) :   1.5929
B( 19-C , 22-C ) :   1.0653 B( 22-C , 23-H ) :   0.9228 B( 22-C , 24-H ) :   0.9359
B( 22-C , 25-C ) :   1.0504 B( 25-C , 26-H ) :   0.9592 B( 25-C , 27-H ) :   0.9574
B( 25-C , 28-C ) :   1.0795 B( 28-C , 29-H ) :   0.9741 B( 28-C , 30-H ) :   0.9768
B( 28-C , 31-H ) :   0.9731

Dispersion correction           -0.013567218
FINAL SINGLE POINT ENERGY     -1339.864558270023

DIPOLE MOMENT
-------------
                                X             Y             Z
Electronic contribution:     11.19030      20.53748     -18.98255
Nuclear contribution   :    -11.72220     -20.80968      19.37105
                        -----------------------------------------
Total Dipole Moment    :     -0.53190      -0.27220       0.38850
                        -----------------------------------------
Magnitude (a.u.)       :      0.71270
Magnitude (Debye)      :      1.81153

Rotational constants in cm-1:     0.019467     0.008289     0.006451
Rotational constants in MHz :   583.617451   248.497381   193.392696

                             ****ORCA TERMINATED NORMALLY****
TOTAL RUN TIME: 0 days 0 hours 0 minutes 33 seconds 389 msec
