                         Program Version 4.2.1 -  RELEASE  -
|  1> ! wB97X-D3 SP def2-SVP
|  2> %pal
|  3> nprocs 16
|  4> end
|  5>
|  6> * xyz 0 1
|  7> S 	 54.1611 	 23.7916 	 37.1645
|  8> C 	 54.9291 	 25.3866 	 36.7676
|  9> C 	 54.6634 	 26.2524 	 37.7691
| 10> C 	 53.7858 	 25.7506 	 38.7549
| 11> C 	 53.3763 	 24.4218 	 38.5965
| 12> H 	 53.4374 	 26.2778 	 39.583
| 13> C 	 55.1776 	 27.73 	 37.7776
| 14> H 	 56.193 	 27.7045 	 37.5083
| 15> H 	 55.1685 	 28.1043 	 38.7819
| 16> C 	 54.3346 	 28.6873 	 36.8591
| 17> H 	 54.2932 	 28.2382 	 35.8351
| 18> H 	 53.3085 	 28.8978 	 37.2862
| 19> C 	 54.9163 	 30.0534 	 36.8032
| 20> H 	 54.7037 	 30.6762 	 37.6433
| 21> H 	 56.0143 	 29.9978 	 36.635
| 22> H 	 54.5415 	 30.5842 	 35.9358
| 23> S 	 53.5503 	 22.1808 	 40.1295
| 24> C 	 52.186 	 21.7177 	 41.1609
| 25> C 	 51.1858 	 22.6658 	 41.1918
| 26> C 	 51.4781 	 23.6583 	 40.231
| 27> C 	 52.6804 	 23.5485 	 39.5678
| 28> H 	 50.3757 	 22.5141 	 41.8542
| 29> C 	 50.444 	 24.6862 	 39.9753
| 30> H 	 49.6858 	 24.1671 	 39.394
| 31> H 	 50.8692 	 25.4186 	 39.3484
| 32> C 	 49.7834 	 25.3663 	 41.201
| 33> H 	 50.5363 	 25.9578 	 41.6705
| 34> H 	 49.5983 	 24.6942 	 41.9521
| 35> C 	 48.5447 	 26.2882 	 40.9486
| 36> H 	 47.7623 	 25.8416 	 40.2512
| 37> H 	 48.8893 	 27.2055 	 40.4913
| 38> H 	 48.1057 	 26.3595 	 41.8751
| 39> H 	 55.5459 	 25.7361 	 35.9771
| 40> H 	 52.092 	 20.8295 	 41.7927
| 41> *
| 42>
| 43>                          ****END OF INPUT****

CARTESIAN COORDINATES (ANGSTROEM)
---------------------------------
  S     54.161100   23.791600   37.164500
  C     54.929100   25.386600   36.767600
  C     54.663400   26.252400   37.769100
  C     53.785800   25.750600   38.754900
  C     53.376300   24.421800   38.596500
  H     53.437400   26.277800   39.583000
  C     55.177600   27.730000   37.777600
  H     56.193000   27.704500   37.508300
  H     55.168500   28.104300   38.781900
  C     54.334600   28.687300   36.859100
  H     54.293200   28.238200   35.835100
  H     53.308500   28.897800   37.286200
  C     54.916300   30.053400   36.803200
  H     54.703700   30.676200   37.643300
  H     56.014300   29.997800   36.635000
  H     54.541500   30.584200   35.935800
  S     53.550300   22.180800   40.129500
  C     52.186000   21.717700   41.160900
  C     51.185800   22.665800   41.191800
  C     51.478100   23.658300   40.231000
  C     52.680400   23.548500   39.567800
  H     50.375700   22.514100   41.854200
  C     50.444000   24.686200   39.975300
  H     49.685800   24.167100   39.394000
  H     50.869200   25.418600   39.348400
  C     49.783400   25.366300   41.201000
  H     50.536300   25.957800   41.670500
  H     49.598300   24.694200   41.952100
  C     48.544700   26.288200   40.948600
  H     47.762300   25.841600   40.251200
  H     48.889300   27.205500   40.491300
  H     48.105700   26.359500   41.875100
  H     55.545900   25.736100   35.977100
  H     52.092000   20.829500   41.792700

 Total Charge           Charge          ....    0
 Multiplicity           Mult            ....    1
 Number of Electrons    NEL             ....  134
 Basis Dimension        Dim             ....  322

ORBITAL ENERGIES
----------------

  NO   OCC          E(Eh)            E(eV)
   0   2.0000     -88.966891     -2420.9122
   1   2.0000     -88.966313     -2420.8965
   2   2.0000     -10.334320      -281.2111
   3   2.0000     -10.324469      -280.9431
   4   2.0000     -10.318158      -280.7714
   5   2.0000     -10.312823      -280.6262
   6   2.0000     -10.297905      -280.2202
   7   2.0000     -10.297073      -280.1976
   8   2.0000     -10.294244      -280.1206
   9   2.0000     -10.292254      -280.0665
  10   2.0000     -10.289641      -279.9954
  11   2.0000     -10.288869      -279.9744
  12   2.0000     -10.279220      -279.7118
  13   2.0000     -10.278733      -279.6985
  14   2.0000     -10.278114      -279.6817
  15   2.0000     -10.274456      -279.5822
  16   2.0000      -8.081246      -219.9019
  17   2.0000      -8.080373      -219.8781
  18   2.0000      -6.039731      -164.3494
  19   2.0000      -6.039100      -164.3323
  20   2.0000      -6.035780      -164.2419
  21   2.0000      -6.034945      -164.2192
  22   2.0000      -6.031941      -164.1374
  23   2.0000      -6.031044      -164.1130
  24   2.0000      -1.008514       -27.4431
  25   2.0000      -0.984455       -26.7884
  26   2.0000      -0.911519       -24.8037
  27   2.0000      -0.907845       -24.7037
  28   2.0000      -0.874273       -23.7902
  29   2.0000      -0.852408       -23.1952
  30   2.0000      -0.844698       -22.9854
  31   2.0000      -0.819643       -22.3036
  32   2.0000      -0.783463       -21.3191
  33   2.0000      -0.772623       -21.0242
  34   2.0000      -0.712687       -19.3932
  35   2.0000      -0.702621       -19.1193
  36   2.0000      -0.694811       -18.9068
  37   2.0000      -0.663067       -18.0430
  38   2.0000      -0.640146       -17.4193
  39   2.0000      -0.620093       -16.8736
  40   2.0000      -0.594920       -16.1886
  41   2.0000      -0.577319       -15.7096
  42   2.0000      -0.569512       -15.4972
  43   2.0000      -0.561149       -15.2697
  44   2.0000      -0.533202       -14.5092
  45   2.0000      -0.524489       -14.2721
  46   2.0000      -0.519563       -14.1380
  47   2.0000      -0.514842       -14.0096
  48   2.0000      -0.507224       -13.8023
  49   2.0000      -0.501831       -13.6555
  50   2.0000      -0.496336       -13.5060
  51   2.0000      -0.476677       -12.9710
  52   2.0000      -0.472896       -12.8682
  53   2.0000      -0.466911       -12.7053
  54   2.0000      -0.460711       -12.5366
  55   2.0000      -0.452805       -12.3215
  56   2.0000      -0.445438       -12.1210
  57   2.0000      -0.432383       -11.7658
  58   2.0000      -0.426259       -11.5991
  59   2.0000      -0.423723       -11.5301
  60   2.0000      -0.422544       -11.4980
  61   2.0000      -0.418151       -11.3785
  62   2.0000      -0.415554       -11.3078
  63   2.0000      -0.346354        -9.4248
  64   2.0000      -0.333738        -9.0815
  65   2.0000      -0.327515        -8.9121
  66   2.0000      -0.294463        -8.0127
  67   0.0000       0.032089         0.8732
  68   0.0000       0.068473         1.8633
  69   0.0000       0.109655         2.9839
  70   0.0000       0.121066         3.2944
  71   0.0000       0.132631         3.6091

MULLIKEN ATOMIC CHARGES
-----------------------
   0 S :    0.100875
   1 C :   -0.097036
   2 C :   -0.091692
   3 C :    0.073139
   4 C :   -0.167460
   5 H :   -0.019846
   6 C :    0.085634
   7 H :    0.014075
   8 H :    0.013443
   9 C :   -0.090266
  10 H :    0.038081
  11 H :    0.040962
  12 C :   -0.036738
  13 H :    0.032176
  14 H :    0.022593
  15 H :    0.028941
  16 S :    0.116618
  17 C :   -0.096608
  18 C :   -0.034444
  19 C :   -0.048532
  20 C :   -0.135538
  21 H :    0.015157
  22 C :    0.116349
  23 H :    0.031270
  24 H :    0.000562
  25 C :   -0.076528
  26 H :    0.012389
  27 H :   -0.003161
  28 C :   -0.023638
  29 H :    0.035874
  30 H :    0.039718
  31 H :    0.022092
  32 H :    0.027731
  33 H :    0.053806
Sum of atomic charges:   -0.0000000

LOEWDIN ATOMIC CHARGES
----------------------
   0 S :    0.385516
   1 C :   -0.177980
   2 C :   -0.062856
   3 C :   -0.057759
   4 C :   -0.190794
   5 H :    0.018583
   6 C :   -0.021307
   7 H :    0.021687
   8 H :    0.026091
   9 C :   -0.042892
  10 H :    0.028096
  11 H :    0.034313
  12 C :   -0.070287
  13 H :    0.021246
  14 H :    0.024426
  15 H :    0.027839
  16 S :    0.416134
  17 C :   -0.173128
  18 C :   -0.066690
  19 C :   -0.056475
  20 C :   -0.216922
  21 H :    0.030452
  22 C :   -0.028006
  23 H :    0.034418
  24 H :    0.019828
  25 C :   -0.033148
  26 H :    0.023113
  27 H :    0.006516
  28 C :   -0.053845
  29 H :    0.032006
  30 H :    0.025878
  31 H :    0.017265
  32 H :    0.027703
  33 H :    0.030980

  Mayer bond orders larger than 0.100000
B(  0-S ,  1-C ) :   1.1139 B(  0-S ,  4-C ) :   1.1511 B(  1-C ,  2-C ) :   1.6368
B(  1-C ,  4-C ) :   0.1012 B(  1-C , 32-H ) :   0.9690 B(  2-C ,  3-C ) :   1.2512
B(  2-C ,  6-C ) :   1.0141 B(  3-C ,  4-C ) :   1.5598 B(  3-C ,  5-H ) :   1.0041
B(  4-C , 20-C ) :   1.0136 B(  6-C ,  7-H ) :   0.9397 B(  6-C ,  8-H ) :   0.9428
B(  6-C ,  9-C ) :   1.0651 B(  9-C , 10-H ) :   0.9583 B(  9-C , 11-H ) :   0.9553
B(  9-C , 12-C ) :   1.0879 B( 12-C , 13-H ) :   0.9756 B( 12-C , 14-H ) :   0.9708
B( 12-C , 15-H ) :   0.9699 B( 16-S , 17-C ) :   1.1607 B( 16-S , 20-C ) :   1.1336
B( 17-C , 18-C ) :   1.6246 B( 17-C , 33-H ) :   0.9613 B( 18-C , 19-C ) :   1.2191
B( 18-C , 21-H ) :   1.0006 B( 19-C , 20-C ) :   1.6098 B( 19-C , 22-C ) :   1.0556
B( 22-C , 23-H ) :   0.9282 B( 22-C , 24-H ) :   0.9283 B( 22-C , 25-C ) :   1.0545
B( 25-C , 26-H ) :   0.9493 B( 25-C , 27-H ) :   0.9591 B( 25-C , 28-C ) :   1.0805
B( 28-C , 29-H ) :   0.9776 B( 28-C , 30-H ) :   0.9787 B( 28-C , 31-H ) :   0.9746

Dispersion correction           -0.013285493
FINAL SINGLE POINT ENERGY     -1339.858575440407

DIPOLE MOMENT
-------------
                                X             Y             Z
Electronic contribution:     11.03600     -28.56242      -1.50694
Nuclear contribution   :    -11.30348      29.20006       1.82652
                        -----------------------------------------
Total Dipole Moment    :     -0.26748       0.63764       0.31958
                        -----------------------------------------
Magnitude (a.u.)       :      0.76175
Magnitude (Debye)      :      1.93622

Rotational constants in cm-1:     0.017258     0.008136     0.005923
Rotational constants in MHz :   517.372954   243.904766   177.562028

                             ****ORCA TERMINATED NORMALLY****
TOTAL RUN TIME: 0 days 0 hours 0 minutes 29 seconds 174 msec
