                         Program Version 4.2.1 -  RELEASE  -
|  1> ! wB97X-D3 SP def2-SVP
|  2> %pal
|  3> nprocs 16
|  4> end
|  5>
|  6> * xyz 0 1
|  7> S 	 42.1115 	 24.094 	 81.9227
|  8> C 	 41.3254 	 24.0927 	 80.3091
|  9> C 	 41.9 	 23.1818 	 79.4765
| 10> C 	 42.9205 	 22.3968 	 80.144
| 11> C 	 43.1551 	 22.7532 	 81.4245
| 12> H 	 43.5004 	 21.5754 	 79.7224
| 13> C 	 41.4679 	 22.7626 	 78.0809
| 14> H 	 40.7707 	 23.5992 	 77.719
| 15> H 	 40.9887 	 21.8028 	 78.2837
| 16> C 	 42.6492 	 22.4588 	 77.0808
| 17> H 	 43.3335 	 23.3882 	 76.8991
| 18> H 	 43.3165 	 21.7344 	 77.5355
| 19> C 	 42.1309 	 22.037 	 75.6982
| 20> H 	 42.8967 	 21.4041 	 75.2523
| 21> H 	 41.2282 	 21.4963 	 75.8175
| 22> H 	 41.9758 	 22.9009 	 75.041
| 23> S 	 44.9701 	 23.3002 	 83.3011
| 24> C 	 45.7816 	 21.9773 	 84.1711
| 25> C 	 45.5404 	 20.7664 	 83.5671
| 26> C 	 44.4831 	 20.8189 	 82.5459
| 27> C 	 44.1025 	 22.1909 	 82.3684
| 28> H 	 45.9402 	 19.8468 	 83.9903
| 29> C 	 43.7558 	 19.5742 	 82.0128
| 30> H 	 44.3102 	 18.6804 	 81.7301
| 31> H 	 43.2657 	 19.9263 	 81.1188
| 32> C 	 42.7553 	 18.9966 	 83.0053
| 33> H 	 42.1786 	 19.8612 	 83.3231
| 34> H 	 43.2417 	 18.6026 	 83.9075
| 35> C 	 41.8981 	 17.8183 	 82.3736
| 36> H 	 41.1447 	 17.3891 	 83.1082
| 37> H 	 42.4962 	 16.9915 	 82.0054
| 38> H 	 41.294 	 18.2075 	 81.5236
| 39> H 	 40.3652 	 24.6437 	 80.0734
| 40> H 	 46.5801 	 22.2145 	 84.8922
| 41> *
| 42>
| 43>                          ****END OF INPUT****

CARTESIAN COORDINATES (ANGSTROEM)
---------------------------------
  S     42.111500   24.094000   81.922700
  C     41.325400   24.092700   80.309100
  C     41.900000   23.181800   79.476500
  C     42.920500   22.396800   80.144000
  C     43.155100   22.753200   81.424500
  H     43.500400   21.575400   79.722400
  C     41.467900   22.762600   78.080900
  H     40.770700   23.599200   77.719000
  H     40.988700   21.802800   78.283700
  C     42.649200   22.458800   77.080800
  H     43.333500   23.388200   76.899100
  H     43.316500   21.734400   77.535500
  C     42.130900   22.037000   75.698200
  H     42.896700   21.404100   75.252300
  H     41.228200   21.496300   75.817500
  H     41.975800   22.900900   75.041000
  S     44.970100   23.300200   83.301100
  C     45.781600   21.977300   84.171100
  C     45.540400   20.766400   83.567100
  C     44.483100   20.818900   82.545900
  C     44.102500   22.190900   82.368400
  H     45.940200   19.846800   83.990300
  C     43.755800   19.574200   82.012800
  H     44.310200   18.680400   81.730100
  H     43.265700   19.926300   81.118800
  C     42.755300   18.996600   83.005300
  H     42.178600   19.861200   83.323100
  H     43.241700   18.602600   83.907500
  C     41.898100   17.818300   82.373600
  H     41.144700   17.389100   83.108200
  H     42.496200   16.991500   82.005400
  H     41.294000   18.207500   81.523600
  H     40.365200   24.643700   80.073400
  H     46.580100   22.214500   84.892200

 Total Charge           Charge          ....    0
 Multiplicity           Mult            ....    1
 Number of Electrons    NEL             ....  134
 Basis Dimension        Dim             ....  322

ORBITAL ENERGIES
----------------

  NO   OCC          E(Eh)            E(eV)
   0   2.0000     -88.967845     -2420.9381
   1   2.0000     -88.963180     -2420.8112
   2   2.0000     -10.329652      -281.0841
   3   2.0000     -10.327668      -281.0301
   4   2.0000     -10.319860      -280.8177
   5   2.0000     -10.318939      -280.7926
   6   2.0000     -10.313884      -280.6551
   7   2.0000     -10.304133      -280.3897
   8   2.0000     -10.302241      -280.3382
   9   2.0000     -10.300468      -280.2900
  10   2.0000     -10.297914      -280.2205
  11   2.0000     -10.292413      -280.0708
  12   2.0000     -10.291492      -280.0457
  13   2.0000     -10.288322      -279.9595
  14   2.0000     -10.287368      -279.9335
  15   2.0000     -10.277689      -279.6701
  16   2.0000      -8.083364      -219.9595
  17   2.0000      -8.077214      -219.7922
  18   2.0000      -6.041685      -164.4026
  19   2.0000      -6.037807      -164.2971
  20   2.0000      -6.035921      -164.2458
  21   2.0000      -6.034215      -164.1993
  22   2.0000      -6.031994      -164.1389
  23   2.0000      -6.027616      -164.0198
  24   2.0000      -1.007873       -27.4256
  25   2.0000      -0.980355       -26.6768
  26   2.0000      -0.908528       -24.7223
  27   2.0000      -0.906183       -24.6585
  28   2.0000      -0.871939       -23.7267
  29   2.0000      -0.846719       -23.0404
  30   2.0000      -0.842032       -22.9128
  31   2.0000      -0.814715       -22.1695
  32   2.0000      -0.779181       -21.2026
  33   2.0000      -0.768739       -20.9185
  34   2.0000      -0.707230       -19.2447
  35   2.0000      -0.695991       -18.9389
  36   2.0000      -0.688881       -18.7454
  37   2.0000      -0.661402       -17.9977
  38   2.0000      -0.634616       -17.2688
  39   2.0000      -0.619731       -16.8637
  40   2.0000      -0.597453       -16.2575
  41   2.0000      -0.567999       -15.4560
  42   2.0000      -0.566905       -15.4263
  43   2.0000      -0.554487       -15.0884
  44   2.0000      -0.525429       -14.2977
  45   2.0000      -0.518547       -14.1104
  46   2.0000      -0.514516       -14.0007
  47   2.0000      -0.508615       -13.8401
  48   2.0000      -0.503370       -13.6974
  49   2.0000      -0.498636       -13.5686
  50   2.0000      -0.493346       -13.4246
  51   2.0000      -0.482003       -13.1160
  52   2.0000      -0.471031       -12.8174
  53   2.0000      -0.464397       -12.6369
  54   2.0000      -0.456875       -12.4322
  55   2.0000      -0.449121       -12.2212
  56   2.0000      -0.444844       -12.1048
  57   2.0000      -0.437385       -11.9019
  58   2.0000      -0.432600       -11.7717
  59   2.0000      -0.427618       -11.6361
  60   2.0000      -0.421247       -11.4627
  61   2.0000      -0.413707       -11.2575
  62   2.0000      -0.411475       -11.1968
  63   2.0000      -0.356320        -9.6960
  64   2.0000      -0.331202        -9.0125
  65   2.0000      -0.328314        -8.9339
  66   2.0000      -0.289066        -7.8659
  67   0.0000       0.027173         0.7394
  68   0.0000       0.076456         2.0805
  69   0.0000       0.100751         2.7416
  70   0.0000       0.111082         3.0227
  71   0.0000       0.133044         3.6203

MULLIKEN ATOMIC CHARGES
-----------------------
   0 S :    0.086317
   1 C :   -0.158491
   2 C :   -0.055743
   3 C :   -0.011848
   4 C :   -0.125109
   5 H :    0.028017
   6 C :    0.040896
   7 H :    0.043566
   8 H :    0.048881
   9 C :   -0.145589
  10 H :    0.046917
  11 H :    0.033274
  12 C :   -0.010643
  13 H :    0.033307
  14 H :    0.022313
  15 H :    0.042165
  16 S :    0.110173
  17 C :   -0.109771
  18 C :   -0.018779
  19 C :   -0.057346
  20 C :   -0.143650
  21 H :    0.028047
  22 C :    0.083332
  23 H :    0.021634
  24 H :   -0.003669
  25 C :   -0.074957
  26 H :    0.035144
  27 H :    0.031733
  28 C :   -0.082551
  29 H :    0.048827
  30 H :    0.034947
  31 H :    0.037787
  32 H :    0.069955
  33 H :    0.070910
Sum of atomic charges:    0.0000000

LOEWDIN ATOMIC CHARGES
----------------------
   0 S :    0.363844
   1 C :   -0.196772
   2 C :   -0.064942
   3 C :   -0.071106
   4 C :   -0.179745
   5 H :    0.031551
   6 C :   -0.035279
   7 H :    0.038891
   8 H :    0.037745
   9 C :   -0.047861
  10 H :    0.035702
  11 H :    0.018134
  12 C :   -0.062213
  13 H :    0.029643
  14 H :    0.018366
  15 H :    0.030113
  16 S :    0.423154
  17 C :   -0.187044
  18 C :   -0.062625
  19 C :   -0.054625
  20 C :   -0.212869
  21 H :    0.033286
  22 C :   -0.036354
  23 H :    0.030289
  24 H :    0.023520
  25 C :   -0.037613
  26 H :    0.025447
  27 H :    0.023142
  28 C :   -0.074092
  29 H :    0.034893
  30 H :    0.021976
  31 H :    0.027599
  32 H :    0.043015
  33 H :    0.032828

  Mayer bond orders larger than 0.100000
B(  0-S ,  1-C ) :   1.0981 B(  0-S ,  4-C ) :   1.1214 B(  1-C ,  2-C ) :   1.6788
B(  1-C , 32-H ) :   0.9582 B(  2-C ,  3-C ) :   1.1774 B(  2-C ,  6-C ) :   1.0179
B(  3-C ,  4-C ) :   1.6524 B(  3-C ,  5-H ) :   0.9794 B(  4-C , 20-C ) :   1.0315
B(  6-C ,  7-H ) :   0.9479 B(  6-C ,  8-H ) :   0.9329 B(  6-C ,  9-C ) :   1.0572
B(  9-C , 10-H ) :   0.9592 B(  9-C , 11-H ) :   0.9575 B(  9-C , 12-C ) :   1.0757
B( 12-C , 13-H ) :   0.9742 B( 12-C , 14-H ) :   0.9747 B( 12-C , 15-H ) :   0.9771
B( 16-S , 17-C ) :   1.1296 B( 16-S , 20-C ) :   1.1820 B( 17-C , 18-C ) :   1.6275
B( 17-C , 33-H ) :   0.9660 B( 18-C , 19-C ) :   1.2311 B( 18-C , 21-H ) :   0.9833
B( 19-C , 20-C ) :   1.5557 B( 19-C , 22-C ) :   1.0511 B( 22-C , 23-H ) :   0.9385
B( 22-C , 24-H ) :   0.9269 B( 22-C , 25-C ) :   1.0582 B( 25-C , 26-H ) :   0.9561
B( 25-C , 27-H ) :   0.9583 B( 25-C , 28-C ) :   1.0681 B( 28-C , 29-H ) :   0.9762
B( 28-C , 30-H ) :   0.9752 B( 28-C , 31-H ) :   0.9775

Dispersion correction           -0.013726330
FINAL SINGLE POINT ENERGY     -1339.876260195604

DIPOLE MOMENT
-------------
                                X             Y             Z
Electronic contribution:      8.30019      20.72131      19.20811
Nuclear contribution   :     -8.37044     -21.34629     -19.60977
                        -----------------------------------------
Total Dipole Moment    :     -0.07026      -0.62498      -0.40167
                        -----------------------------------------
Magnitude (a.u.)       :      0.74624
Magnitude (Debye)      :      1.89678

Rotational constants in cm-1:     0.016516     0.008682     0.006902
Rotational constants in MHz :   495.149988   260.277822   206.930175

                             ****ORCA TERMINATED NORMALLY****
TOTAL RUN TIME: 0 days 0 hours 0 minutes 28 seconds 566 msec
