                         Program Version 4.2.1 -  RELEASE  -
|  1> ! wB97X-D3 SP def2-SVP
|  2> %pal
|  3> nprocs 16
|  4> end
|  5>
|  6> * xyz 0 1
|  7> S 	 -35.6007 	 74.411 	 150.385
|  8> C 	 -34.0617 	 75.2914 	 150.599
|  9> C 	 -33.3612 	 74.819 	 151.751
| 10> C 	 -34.1014 	 73.8124 	 152.448
| 11> C 	 -35.3673 	 73.5258 	 151.898
| 12> H 	 -33.6983 	 73.2876 	 153.298
| 13> C 	 -32.0395 	 75.2898 	 152.167
| 14> H 	 -32.0545 	 75.1579 	 153.256
| 15> H 	 -31.8496 	 76.3372 	 151.925
| 16> C 	 -30.781 	 74.5375 	 151.595
| 17> H 	 -30.853 	 74.6154 	 150.482
| 18> H 	 -29.8341 	 75.0127 	 151.825
| 19> C 	 -30.468 	 73.1894 	 152.188
| 20> H 	 -29.7017 	 72.5624 	 151.675
| 21> H 	 -29.9571 	 73.3669 	 153.239
| 22> H 	 -31.3415 	 72.4926 	 152.238
| 23> S 	 -36.9552 	 71.2643 	 151.588
| 24> C 	 -37.9213 	 70.6838 	 152.94
| 25> C 	 -37.8514 	 71.6238 	 154.004
| 26> C 	 -37.0243 	 72.7414 	 153.744
| 27> C 	 -36.39 	 72.6811 	 152.489
| 28> H 	 -38.2338 	 71.3571 	 155.005
| 29> C 	 -36.9283 	 73.8105 	 154.797
| 30> H 	 -37.8215 	 74.0242 	 155.251
| 31> H 	 -36.7027 	 74.736 	 154.165
| 32> C 	 -35.7219 	 73.5987 	 155.916
| 33> H 	 -34.7843 	 73.7316 	 155.418
| 34> H 	 -35.5348 	 72.5353 	 156.299
| 35> C 	 -35.797 	 74.568 	 157.09
| 36> H 	 -35.026 	 74.2676 	 157.713
| 37> H 	 -36.741 	 74.4226 	 157.668
| 38> H 	 -35.7467 	 75.5756 	 156.895
| 39> H 	 -33.6464 	 75.9813 	 149.902
| 40> H 	 -38.2324 	 69.639 	 153.047
| 41> *
| 42>
| 43>                          ****END OF INPUT****

CARTESIAN COORDINATES (ANGSTROEM)
---------------------------------
  S    -35.600700   74.411000  150.385000
  C    -34.061700   75.291400  150.599000
  C    -33.361200   74.819000  151.751000
  C    -34.101400   73.812400  152.448000
  C    -35.367300   73.525800  151.898000
  H    -33.698300   73.287600  153.298000
  C    -32.039500   75.289800  152.167000
  H    -32.054500   75.157900  153.256000
  H    -31.849600   76.337200  151.925000
  C    -30.781000   74.537500  151.595000
  H    -30.853000   74.615400  150.482000
  H    -29.834100   75.012700  151.825000
  C    -30.468000   73.189400  152.188000
  H    -29.701700   72.562400  151.675000
  H    -29.957100   73.366900  153.239000
  H    -31.341500   72.492600  152.238000
  S    -36.955200   71.264300  151.588000
  C    -37.921300   70.683800  152.940000
  C    -37.851400   71.623800  154.004000
  C    -37.024300   72.741400  153.744000
  C    -36.390000   72.681100  152.489000
  H    -38.233800   71.357100  155.005000
  C    -36.928300   73.810500  154.797000
  H    -37.821500   74.024200  155.251000
  H    -36.702700   74.736000  154.165000
  C    -35.721900   73.598700  155.916000
  H    -34.784300   73.731600  155.418000
  H    -35.534800   72.535300  156.299000
  C    -35.797000   74.568000  157.090000
  H    -35.026000   74.267600  157.713000
  H    -36.741000   74.422600  157.668000
  H    -35.746700   75.575600  156.895000
  H    -33.646400   75.981300  149.902000
  H    -38.232400   69.639000  153.047000

 Total Charge           Charge          ....    0
 Multiplicity           Mult            ....    1
 Number of Electrons    NEL             ....  134
 Basis Dimension        Dim             ....  322

ORBITAL ENERGIES
----------------

  NO   OCC          E(Eh)            E(eV)
   0   2.0000     -88.970956     -2421.0228
   1   2.0000     -88.966826     -2420.9104
   2   2.0000     -10.335394      -281.2404
   3   2.0000     -10.330816      -281.1158
   4   2.0000     -10.323387      -280.9136
   5   2.0000     -10.320493      -280.8349
   6   2.0000     -10.305269      -280.4206
   7   2.0000     -10.305125      -280.4167
   8   2.0000     -10.299181      -280.2550
   9   2.0000     -10.297556      -280.2108
  10   2.0000     -10.297357      -280.2053
  11   2.0000     -10.295510      -280.1551
  12   2.0000     -10.294742      -280.1342
  13   2.0000     -10.291595      -280.0485
  14   2.0000     -10.291189      -280.0375
  15   2.0000     -10.269475      -279.4466
  16   2.0000      -8.084431      -219.9886
  17   2.0000      -8.080962      -219.8942
  18   2.0000      -6.042925      -164.4364
  19   2.0000      -6.039416      -164.3409
  20   2.0000      -6.039068      -164.3314
  21   2.0000      -6.035421      -164.2322
  22   2.0000      -6.035334      -164.2298
  23   2.0000      -6.031944      -164.1375
  24   2.0000      -0.998552       -27.1720
  25   2.0000      -0.975939       -26.5566
  26   2.0000      -0.912210       -24.8225
  27   2.0000      -0.897175       -24.4134
  28   2.0000      -0.864379       -23.5209
  29   2.0000      -0.856192       -23.2982
  30   2.0000      -0.847824       -23.0705
  31   2.0000      -0.810495       -22.0547
  32   2.0000      -0.781455       -21.2645
  33   2.0000      -0.767475       -20.8841
  34   2.0000      -0.708976       -19.2922
  35   2.0000      -0.701034       -19.0761
  36   2.0000      -0.695776       -18.9330
  37   2.0000      -0.660713       -17.9789
  38   2.0000      -0.639060       -17.3897
  39   2.0000      -0.615675       -16.7534
  40   2.0000      -0.591021       -16.0825
  41   2.0000      -0.569707       -15.5025
  42   2.0000      -0.553334       -15.0570
  43   2.0000      -0.547578       -14.9004
  44   2.0000      -0.545297       -14.8383
  45   2.0000      -0.533843       -14.5266
  46   2.0000      -0.515575       -14.0295
  47   2.0000      -0.507787       -13.8176
  48   2.0000      -0.501828       -13.6554
  49   2.0000      -0.499673       -13.5968
  50   2.0000      -0.497181       -13.5290
  51   2.0000      -0.477196       -12.9852
  52   2.0000      -0.469799       -12.7839
  53   2.0000      -0.466711       -12.6999
  54   2.0000      -0.455651       -12.3989
  55   2.0000      -0.449191       -12.2231
  56   2.0000      -0.441328       -12.0092
  57   2.0000      -0.433849       -11.8056
  58   2.0000      -0.428387       -11.6570
  59   2.0000      -0.425620       -11.5817
  60   2.0000      -0.421491       -11.4693
  61   2.0000      -0.411230       -11.1901
  62   2.0000      -0.409724       -11.1491
  63   2.0000      -0.338396        -9.2082
  64   2.0000      -0.330068        -8.9816
  65   2.0000      -0.328483        -8.9385
  66   2.0000      -0.290904        -7.9159
  67   0.0000       0.025556         0.6954
  68   0.0000       0.051046         1.3890
  69   0.0000       0.111206         3.0261
  70   0.0000       0.113393         3.0856
  71   0.0000       0.124192         3.3794

MULLIKEN ATOMIC CHARGES
-----------------------
   0 S :    0.117160
   1 C :   -0.109351
   2 C :   -0.092108
   3 C :    0.042640
   4 C :   -0.161114
   5 H :    0.018767
   6 C :    0.057583
   7 H :    0.022298
   8 H :    0.032874
   9 C :   -0.052291
  10 H :    0.032408
  11 H :    0.026911
  12 C :   -0.119331
  13 H :    0.041718
  14 H :    0.043734
  15 H :    0.044018
  16 S :    0.103881
  17 C :   -0.112712
  18 C :   -0.048635
  19 C :   -0.021750
  20 C :   -0.169596
  21 H :    0.034872
  22 C :    0.077999
  23 H :    0.006841
  24 H :    0.044333
  25 C :   -0.095410
  26 H :    0.008174
  27 H :    0.035816
  28 C :    0.003930
  29 H :    0.017961
  30 H :    0.027513
  31 H :    0.021851
  32 H :    0.041504
  33 H :    0.077510
Sum of atomic charges:    0.0000000

LOEWDIN ATOMIC CHARGES
----------------------
   0 S :    0.396365
   1 C :   -0.184864
   2 C :   -0.062150
   3 C :   -0.056103
   4 C :   -0.194529
   5 H :    0.028683
   6 C :   -0.034944
   7 H :    0.032304
   8 H :    0.036619
   9 C :   -0.047957
  10 H :    0.025941
  11 H :    0.026422
  12 C :   -0.085231
  13 H :    0.031144
  14 H :    0.036717
  15 H :    0.024198
  16 S :    0.400552
  17 C :   -0.191899
  18 C :   -0.071765
  19 C :   -0.056176
  20 C :   -0.201122
  21 H :    0.036026
  22 C :   -0.024364
  23 H :    0.014966
  24 H :    0.045701
  25 C :   -0.037463
  26 H :    0.014936
  27 H :    0.032068
  28 C :   -0.057586
  29 H :    0.021558
  30 H :    0.029484
  31 H :    0.014774
  32 H :    0.022022
  33 H :    0.035672

  Mayer bond orders larger than 0.100000
B(  0-S ,  1-C ) :   1.1431 B(  0-S ,  4-C ) :   1.1558 B(  1-C ,  2-C ) :   1.5678
B(  1-C ,  4-C ) :   0.1088 B(  1-C , 32-H ) :   0.9730 B(  2-C ,  3-C ) :   1.2655
B(  2-C ,  6-C ) :   1.0426 B(  3-C ,  4-C ) :   1.5408 B(  3-C ,  5-H ) :   0.9873
B(  4-C , 20-C ) :   1.0423 B(  6-C ,  7-H ) :   0.9377 B(  6-C ,  8-H ) :   0.9379
B(  6-C ,  9-C ) :   1.0609 B(  9-C , 10-H ) :   0.9551 B(  9-C , 11-H ) :   0.9580
B(  9-C , 12-C ) :   1.0666 B( 12-C , 13-H ) :   0.9710 B( 12-C , 14-H ) :   0.9741
B( 12-C , 15-H ) :   0.9752 B( 16-S , 17-C ) :   1.1695 B( 16-S , 20-C ) :   1.1451
B( 17-C , 18-C ) :   1.5732 B( 17-C , 20-C ) :   0.1115 B( 17-C , 33-H ) :   0.9643
B( 18-C , 19-C ) :   1.2740 B( 18-C , 21-H ) :   0.9810 B( 19-C , 20-C ) :   1.5608
B( 19-C , 22-C ) :   1.0476 B( 22-C , 23-H ) :   0.9491 B( 22-C , 24-H ) :   0.9319
B( 22-C , 25-C ) :   1.0263 B( 25-C , 26-H ) :   0.9510 B( 25-C , 27-H ) :   0.9645
B( 25-C , 28-C ) :   1.0864 B( 28-C , 29-H ) :   0.9693 B( 28-C , 30-H ) :   0.9740
B( 28-C , 31-H ) :   0.9758

Dispersion correction           -0.014459219
FINAL SINGLE POINT ENERGY     -1339.851787691732

DIPOLE MOMENT
-------------
                                X             Y             Z
Electronic contribution:    -19.15044      -7.14280     -20.19751
Nuclear contribution   :     19.69384       7.25827      20.79910
                        -----------------------------------------
Total Dipole Moment    :      0.54340       0.11547       0.60159
                        -----------------------------------------
Magnitude (a.u.)       :      0.81886
Magnitude (Debye)      :      2.08137

Rotational constants in cm-1:     0.016178     0.009069     0.007134
Rotational constants in MHz :   485.013043   271.890485   213.863326

                             ****ORCA TERMINATED NORMALLY****
TOTAL RUN TIME: 0 days 0 hours 0 minutes 34 seconds 209 msec
