                         Program Version 4.2.1 -  RELEASE  -
|  1> ! wB97X-D3 SP def2-SVP
|  2> %pal
|  3> nprocs 16
|  4> end
|  5>
|  6> * xyz 0 1
|  7> S 	 39.2969 	 29.2118 	 56.5359
|  8> C 	 38.5047 	 30.0987 	 55.1793
|  9> C 	 37.1797 	 30.3089 	 55.4239
| 10> C 	 36.9046 	 30.169 	 56.8553
| 11> C 	 37.9906 	 29.7276 	 57.6186
| 12> H 	 35.9572 	 30.4166 	 57.2229
| 13> C 	 36.1381 	 30.6342 	 54.3504
| 14> H 	 35.1222 	 30.7324 	 54.7384
| 15> H 	 36.1904 	 29.7807 	 53.6549
| 16> C 	 36.4639 	 31.9524 	 53.6732
| 17> H 	 36.7973 	 32.6466 	 54.4488
| 18> H 	 37.2343 	 31.6511 	 52.9516
| 19> C 	 35.3239 	 32.6053 	 52.9402
| 20> H 	 34.6437 	 33.0461 	 53.648
| 21> H 	 35.6743 	 33.434 	 52.3153
| 22> H 	 34.7222 	 31.8948 	 52.3372
| 23> S 	 39.3496 	 28.1885 	 59.3482
| 24> C 	 39.2949 	 28.5417 	 61.1209
| 25> C 	 38.1918 	 29.3794 	 61.3391
| 26> C 	 37.5235 	 29.8769 	 60.2181
| 27> C 	 38.1111 	 29.409 	 59.0725
| 28> H 	 37.9631 	 29.5725 	 62.3183
| 29> C 	 36.3293 	 30.8377 	 60.2376
| 30> H 	 35.7928 	 30.8476 	 61.2291
| 31> H 	 35.7434 	 30.2844 	 59.5643
| 32> C 	 36.6026 	 32.2564 	 59.7508
| 33> H 	 37.3157 	 32.2639 	 58.9386
| 34> H 	 37.1606 	 32.7307 	 60.604
| 35> C 	 35.3881 	 33.151 	 59.4272
| 36> H 	 34.8265 	 33.2802 	 60.3109
| 37> H 	 34.8576 	 32.6377 	 58.5972
| 38> H 	 35.694 	 34.1744 	 59.1541
| 39> H 	 38.8011 	 30.1231 	 54.1372
| 40> H 	 40.0867 	 28.1261 	 61.7708
| 41> *
| 42>
| 43>                          ****END OF INPUT****

CARTESIAN COORDINATES (ANGSTROEM)
---------------------------------
  S     39.296900   29.211800   56.535900
  C     38.504700   30.098700   55.179300
  C     37.179700   30.308900   55.423900
  C     36.904600   30.169000   56.855300
  C     37.990600   29.727600   57.618600
  H     35.957200   30.416600   57.222900
  C     36.138100   30.634200   54.350400
  H     35.122200   30.732400   54.738400
  H     36.190400   29.780700   53.654900
  C     36.463900   31.952400   53.673200
  H     36.797300   32.646600   54.448800
  H     37.234300   31.651100   52.951600
  C     35.323900   32.605300   52.940200
  H     34.643700   33.046100   53.648000
  H     35.674300   33.434000   52.315300
  H     34.722200   31.894800   52.337200
  S     39.349600   28.188500   59.348200
  C     39.294900   28.541700   61.120900
  C     38.191800   29.379400   61.339100
  C     37.523500   29.876900   60.218100
  C     38.111100   29.409000   59.072500
  H     37.963100   29.572500   62.318300
  C     36.329300   30.837700   60.237600
  H     35.792800   30.847600   61.229100
  H     35.743400   30.284400   59.564300
  C     36.602600   32.256400   59.750800
  H     37.315700   32.263900   58.938600
  H     37.160600   32.730700   60.604000
  C     35.388100   33.151000   59.427200
  H     34.826500   33.280200   60.310900
  H     34.857600   32.637700   58.597200
  H     35.694000   34.174400   59.154100
  H     38.801100   30.123100   54.137200
  H     40.086700   28.126100   61.770800

 Total Charge           Charge          ....    0
 Multiplicity           Mult            ....    1
 Number of Electrons    NEL             ....  134
 Basis Dimension        Dim             ....  322

ORBITAL ENERGIES
----------------

  NO   OCC          E(Eh)            E(eV)
   0   2.0000     -88.965642     -2420.8782
   1   2.0000     -88.962442     -2420.7911
   2   2.0000     -10.338482      -281.3244
   3   2.0000     -10.330218      -281.0995
   4   2.0000     -10.325797      -280.9792
   5   2.0000     -10.310664      -280.5674
   6   2.0000     -10.303998      -280.3860
   7   2.0000     -10.302506      -280.3454
   8   2.0000     -10.296816      -280.1906
   9   2.0000     -10.295891      -280.1654
  10   2.0000     -10.295838      -280.1640
  11   2.0000     -10.292148      -280.0636
  12   2.0000     -10.286615      -279.9130
  13   2.0000     -10.285761      -279.8898
  14   2.0000     -10.281445      -279.7723
  15   2.0000     -10.279383      -279.7162
  16   2.0000      -8.079081      -219.8430
  17   2.0000      -8.076808      -219.7811
  18   2.0000      -6.037993      -164.3021
  19   2.0000      -6.035304      -164.2290
  20   2.0000      -6.034130      -164.1970
  21   2.0000      -6.031515      -164.1259
  22   2.0000      -6.029092      -164.0599
  23   2.0000      -6.027458      -164.0155
  24   2.0000      -1.003475       -27.3059
  25   2.0000      -0.978150       -26.6168
  26   2.0000      -0.918772       -25.0011
  27   2.0000      -0.908818       -24.7302
  28   2.0000      -0.869158       -23.6510
  29   2.0000      -0.852418       -23.1955
  30   2.0000      -0.839115       -22.8335
  31   2.0000      -0.815780       -22.1985
  32   2.0000      -0.784844       -21.3567
  33   2.0000      -0.775463       -21.1014
  34   2.0000      -0.706355       -19.2209
  35   2.0000      -0.698317       -19.0022
  36   2.0000      -0.690488       -18.7891
  37   2.0000      -0.672153       -18.2902
  38   2.0000      -0.631434       -17.1822
  39   2.0000      -0.620977       -16.8976
  40   2.0000      -0.594306       -16.1719
  41   2.0000      -0.579141       -15.7592
  42   2.0000      -0.572837       -15.5877
  43   2.0000      -0.562978       -15.3194
  44   2.0000      -0.533524       -14.5179
  45   2.0000      -0.526315       -14.3218
  46   2.0000      -0.520464       -14.1625
  47   2.0000      -0.515275       -14.0213
  48   2.0000      -0.499348       -13.5880
  49   2.0000      -0.497350       -13.5336
  50   2.0000      -0.489551       -13.3214
  51   2.0000      -0.484973       -13.1968
  52   2.0000      -0.472585       -12.8597
  53   2.0000      -0.466741       -12.7007
  54   2.0000      -0.459742       -12.5102
  55   2.0000      -0.447378       -12.1738
  56   2.0000      -0.444612       -12.0985
  57   2.0000      -0.438983       -11.9453
  58   2.0000      -0.431823       -11.7505
  59   2.0000      -0.427504       -11.6330
  60   2.0000      -0.414911       -11.2903
  61   2.0000      -0.414266       -11.2728
  62   2.0000      -0.411297       -11.1920
  63   2.0000      -0.352574        -9.5940
  64   2.0000      -0.336518        -9.1571
  65   2.0000      -0.323007        -8.7895
  66   2.0000      -0.282667        -7.6917
  67   0.0000       0.012619         0.3434
  68   0.0000       0.063534         1.7288
  69   0.0000       0.088933         2.4200
  70   0.0000       0.125093         3.4040
  71   0.0000       0.132323         3.6007

MULLIKEN ATOMIC CHARGES
-----------------------
   0 S :    0.085931
   1 C :   -0.099171
   2 C :   -0.127887
   3 C :    0.031210
   4 C :   -0.081301
   5 H :   -0.021938
   6 C :    0.072825
   7 H :    0.014585
   8 H :    0.045276
   9 C :   -0.102518
  10 H :    0.046193
  11 H :    0.032794
  12 C :   -0.037648
  13 H :    0.023867
  14 H :    0.039993
  15 H :    0.030647
  16 S :    0.065317
  17 C :   -0.117945
  18 C :   -0.005141
  19 C :   -0.033633
  20 C :   -0.142854
  21 H :   -0.018001
  22 C :    0.086735
  23 H :    0.030802
  24 H :    0.016670
  25 C :   -0.100333
  26 H :    0.040928
  27 H :    0.026491
  28 C :   -0.021766
  29 H :    0.024846
  30 H :    0.035457
  31 H :    0.039073
  32 H :    0.040495
  33 H :    0.080001
Sum of atomic charges:   -0.0000000

LOEWDIN ATOMIC CHARGES
----------------------
   0 S :    0.367562
   1 C :   -0.187885
   2 C :   -0.053151
   3 C :   -0.062108
   4 C :   -0.174532
   5 H :    0.014438
   6 C :   -0.030261
   7 H :    0.025573
   8 H :    0.036615
   9 C :   -0.045227
  10 H :    0.030907
  11 H :    0.025076
  12 C :   -0.067963
  13 H :    0.021840
  14 H :    0.030758
  15 H :    0.026658
  16 S :    0.369396
  17 C :   -0.170137
  18 C :   -0.055802
  19 C :   -0.059434
  20 C :   -0.176825
  21 H :    0.016521
  22 C :   -0.028261
  23 H :    0.037372
  24 H :    0.022381
  25 C :   -0.046315
  26 H :    0.023246
  27 H :    0.028359
  28 C :   -0.059852
  29 H :    0.018843
  30 H :    0.027123
  31 H :    0.032072
  32 H :    0.025782
  33 H :    0.037233

  Mayer bond orders larger than 0.100000
B(  0-S ,  1-C ) :   1.0983 B(  0-S ,  4-C ) :   1.1325 B(  1-C ,  2-C ) :   1.6604
B(  1-C , 32-H ) :   0.9639 B(  2-C ,  3-C ) :   1.2202 B(  2-C ,  6-C ) :   1.0169
B(  3-C ,  4-C ) :   1.5570 B(  3-C ,  5-H ) :   1.0041 B(  4-C , 20-C ) :   1.0539
B(  6-C ,  7-H ) :   0.9478 B(  6-C ,  8-H ) :   0.9337 B(  6-C ,  9-C ) :   1.0601
B(  9-C , 10-H ) :   0.9611 B(  9-C , 11-H ) :   0.9509 B(  9-C , 12-C ) :   1.1006
B( 12-C , 13-H ) :   0.9718 B( 12-C , 14-H ) :   0.9722 B( 12-C , 15-H ) :   0.9708
B( 16-S , 17-C ) :   1.1327 B( 16-S , 20-C ) :   1.1441 B( 17-C , 18-C ) :   1.5786
B( 17-C , 20-C ) :   0.1061 B( 17-C , 33-H ) :   0.9723 B( 18-C , 19-C ) :   1.2462
B( 18-C , 21-H ) :   1.0074 B( 19-C , 20-C ) :   1.6011 B( 19-C , 22-C ) :   1.0031
B( 22-C , 23-H ) :   0.9354 B( 22-C , 24-H ) :   0.9346 B( 22-C , 25-C ) :   1.0607
B( 25-C , 26-H ) :   0.9598 B( 25-C , 27-H ) :   0.9507 B( 25-C , 28-C ) :   1.0781
B( 28-C , 29-H ) :   0.9746 B( 28-C , 30-H ) :   0.9768 B( 28-C , 31-H ) :   0.9725

Dispersion correction           -0.014191852
FINAL SINGLE POINT ENERGY     -1339.851494063870

DIPOLE MOMENT
-------------
                                X             Y             Z
Electronic contribution:     21.04587     -22.10247       9.84492
Nuclear contribution   :    -21.65490      22.51490      -9.85590
                        -----------------------------------------
Total Dipole Moment    :     -0.60903       0.41243      -0.01097
                        -----------------------------------------
Magnitude (a.u.)       :      0.73562
Magnitude (Debye)      :      1.86980

Rotational constants in cm-1:     0.020052     0.008649     0.006294
Rotational constants in MHz :   601.150538   259.298833   188.697873

                             ****ORCA TERMINATED NORMALLY****
TOTAL RUN TIME: 0 days 0 hours 0 minutes 32 seconds 744 msec
