                         Program Version 4.2.1 -  RELEASE  -
|  1> ! wB97X-D3 SP def2-SVP
|  2> %pal
|  3> nprocs 16
|  4> end
|  5>
|  6> * xyz 0 1
|  7> S 	 -47.7952 	 31.5217 	 96.647
|  8> C 	 -48.1397 	 33.0431 	 95.7912
|  9> C 	 -48.5495 	 34.0368 	 96.6339
| 10> C 	 -48.5532 	 33.722 	 98.0089
| 11> C 	 -48.0963 	 32.4212 	 98.2745
| 12> H 	 -48.5582 	 34.402 	 98.8651
| 13> C 	 -48.7359 	 35.4709 	 96.1443
| 14> H 	 -48.0726 	 35.66 	 95.2252
| 15> H 	 -48.2901 	 36.2385 	 96.8555
| 16> C 	 -50.152 	 35.7671 	 95.7948
| 17> H 	 -50.2627 	 36.7164 	 95.3493
| 18> H 	 -50.399 	 35.056 	 95.0208
| 19> C 	 -51.0704 	 35.6488 	 97.0556
| 20> H 	 -50.6005 	 36.2307 	 97.8943
| 21> H 	 -52.0529 	 35.9154 	 96.8047
| 22> H 	 -51.094 	 34.5794 	 97.4088
| 23> S 	 -46.1811 	 31.036 	 99.7387
| 24> C 	 -46.4215 	 30.7951 	 101.422
| 25> C 	 -47.6619 	 31.3043 	 101.847
| 26> C 	 -48.3967 	 31.9991 	 100.833
| 27> C 	 -47.7267 	 31.8733 	 99.5728
| 28> H 	 -48.0052 	 31.1494 	 102.839
| 29> C 	 -49.7728 	 32.5484 	 100.995
| 30> H 	 -50.36 	 31.7253 	 101.385
| 31> H 	 -50.104 	 32.7981 	 100.028
| 32> C 	 -49.9415 	 33.6812 	 102.066
| 33> H 	 -49.8034 	 33.1837 	 102.993
| 34> H 	 -50.9605 	 34.0075 	 102.149
| 35> C 	 -49.0379 	 34.8494 	 101.929
| 36> H 	 -49.332 	 35.6128 	 102.769
| 37> H 	 -49.2211 	 35.4333 	 101.068
| 38> H 	 -47.9506 	 34.4916 	 101.993
| 39> H 	 -47.8942 	 33.2787 	 94.79
| 40> H 	 -45.729 	 30.1599 	 102.013
| 41> *
| 42>
| 43>                          ****END OF INPUT****

CARTESIAN COORDINATES (ANGSTROEM)
---------------------------------
  S    -47.795200   31.521700   96.647000
  C    -48.139700   33.043100   95.791200
  C    -48.549500   34.036800   96.633900
  C    -48.553200   33.722000   98.008900
  C    -48.096300   32.421200   98.274500
  H    -48.558200   34.402000   98.865100
  C    -48.735900   35.470900   96.144300
  H    -48.072600   35.660000   95.225200
  H    -48.290100   36.238500   96.855500
  C    -50.152000   35.767100   95.794800
  H    -50.262700   36.716400   95.349300
  H    -50.399000   35.056000   95.020800
  C    -51.070400   35.648800   97.055600
  H    -50.600500   36.230700   97.894300
  H    -52.052900   35.915400   96.804700
  H    -51.094000   34.579400   97.408800
  S    -46.181100   31.036000   99.738700
  C    -46.421500   30.795100  101.422000
  C    -47.661900   31.304300  101.847000
  C    -48.396700   31.999100  100.833000
  C    -47.726700   31.873300   99.572800
  H    -48.005200   31.149400  102.839000
  C    -49.772800   32.548400  100.995000
  H    -50.360000   31.725300  101.385000
  H    -50.104000   32.798100  100.028000
  C    -49.941500   33.681200  102.066000
  H    -49.803400   33.183700  102.993000
  H    -50.960500   34.007500  102.149000
  C    -49.037900   34.849400  101.929000
  H    -49.332000   35.612800  102.769000
  H    -49.221100   35.433300  101.068000
  H    -47.950600   34.491600  101.993000
  H    -47.894200   33.278700   94.790000
  H    -45.729000   30.159900  102.013000

 Total Charge           Charge          ....    0
 Multiplicity           Mult            ....    1
 Number of Electrons    NEL             ....  134
 Basis Dimension        Dim             ....  322

ORBITAL ENERGIES
----------------

  NO   OCC          E(Eh)            E(eV)
   0   2.0000     -88.969548     -2420.9845
   1   2.0000     -88.967621     -2420.9320
   2   2.0000     -10.341939      -281.4185
   3   2.0000     -10.331884      -281.1448
   4   2.0000     -10.324093      -280.9328
   5   2.0000     -10.312682      -280.6224
   6   2.0000     -10.309883      -280.5462
   7   2.0000     -10.299546      -280.2649
   8   2.0000     -10.299212      -280.2558
   9   2.0000     -10.297638      -280.2130
  10   2.0000     -10.297053      -280.1970
  11   2.0000     -10.287176      -279.9283
  12   2.0000     -10.285276      -279.8766
  13   2.0000     -10.282496      -279.8009
  14   2.0000     -10.279481      -279.7189
  15   2.0000     -10.278427      -279.6902
  16   2.0000      -8.084479      -219.9898
  17   2.0000      -8.079919      -219.8658
  18   2.0000      -6.042869      -164.4348
  19   2.0000      -6.038832      -164.3250
  20   2.0000      -6.038700      -164.3214
  21   2.0000      -6.035463      -164.2333
  22   2.0000      -6.034958      -164.2196
  23   2.0000      -6.030357      -164.0944
  24   2.0000      -0.999656       -27.2020
  25   2.0000      -0.977258       -26.5925
  26   2.0000      -0.915683       -24.9170
  27   2.0000      -0.910823       -24.7848
  28   2.0000      -0.867629       -23.6094
  29   2.0000      -0.855662       -23.2837
  30   2.0000      -0.839396       -22.8411
  31   2.0000      -0.812217       -22.1015
  32   2.0000      -0.785070       -21.3628
  33   2.0000      -0.768100       -20.9011
  34   2.0000      -0.710125       -19.3235
  35   2.0000      -0.701828       -19.0977
  36   2.0000      -0.694219       -18.8907
  37   2.0000      -0.657842       -17.9008
  38   2.0000      -0.638331       -17.3699
  39   2.0000      -0.613120       -16.6838
  40   2.0000      -0.594898       -16.1880
  41   2.0000      -0.573213       -15.5979
  42   2.0000      -0.556212       -15.1353
  43   2.0000      -0.552843       -15.0436
  44   2.0000      -0.550963       -14.9925
  45   2.0000      -0.534220       -14.5369
  46   2.0000      -0.520788       -14.1714
  47   2.0000      -0.509072       -13.8525
  48   2.0000      -0.499723       -13.5981
  49   2.0000      -0.491684       -13.3794
  50   2.0000      -0.489730       -13.3262
  51   2.0000      -0.477357       -12.9895
  52   2.0000      -0.472560       -12.8590
  53   2.0000      -0.465685       -12.6719
  54   2.0000      -0.461901       -12.5690
  55   2.0000      -0.448137       -12.1944
  56   2.0000      -0.443906       -12.0793
  57   2.0000      -0.436870       -11.8878
  58   2.0000      -0.431207       -11.7338
  59   2.0000      -0.423702       -11.5295
  60   2.0000      -0.418202       -11.3799
  61   2.0000      -0.415249       -11.2995
  62   2.0000      -0.411650       -11.2016
  63   2.0000      -0.350806        -9.5459
  64   2.0000      -0.332620        -9.0510
  65   2.0000      -0.331937        -9.0325
  66   2.0000      -0.284165        -7.7325
  67   0.0000       0.014638         0.3983
  68   0.0000       0.068294         1.8584
  69   0.0000       0.101589         2.7644
  70   0.0000       0.116467         3.1692
  71   0.0000       0.120445         3.2775

MULLIKEN ATOMIC CHARGES
-----------------------
   0 S :    0.081865
   1 C :   -0.088139
   2 C :   -0.072664
   3 C :    0.027857
   4 C :   -0.155047
   5 H :    0.025249
   6 C :   -0.025208
   7 H :    0.030935
   8 H :    0.039056
   9 C :   -0.016883
  10 H :    0.018746
  11 H :    0.018309
  12 C :   -0.065852
  13 H :    0.033935
  14 H :    0.030356
  15 H :    0.051546
  16 S :    0.124375
  17 C :   -0.110633
  18 C :   -0.022657
  19 C :   -0.060533
  20 C :   -0.165458
  21 H :    0.007648
  22 C :    0.100384
  23 H :    0.034150
  24 H :    0.010357
  25 C :   -0.049403
  26 H :    0.011540
  27 H :    0.020637
  28 C :   -0.080557
  29 H :    0.040425
  30 H :    0.030232
  31 H :    0.065361
  32 H :    0.033591
  33 H :    0.076481
Sum of atomic charges:    0.0000000

LOEWDIN ATOMIC CHARGES
----------------------
   0 S :    0.332623
   1 C :   -0.177691
   2 C :   -0.065593
   3 C :   -0.062090
   4 C :   -0.145956
   5 H :    0.037037
   6 C :   -0.039433
   7 H :    0.033934
   8 H :    0.031051
   9 C :   -0.039150
  10 H :    0.016526
  11 H :    0.023342
  12 C :   -0.063728
  13 H :    0.027972
  14 H :    0.016413
  15 H :    0.033097
  16 S :    0.425391
  17 C :   -0.199107
  18 C :   -0.069950
  19 C :   -0.047670
  20 C :   -0.205455
  21 H :    0.024483
  22 C :   -0.025466
  23 H :    0.038902
  24 H :    0.020369
  25 C :   -0.041164
  26 H :    0.018226
  27 H :    0.023939
  28 C :   -0.075099
  29 H :    0.040230
  30 H :    0.014122
  31 H :    0.039677
  32 H :    0.023118
  33 H :    0.037097

  Mayer bond orders larger than 0.100000
B(  0-S ,  1-C ) :   1.1105 B(  0-S ,  4-C ) :   1.1073 B(  1-C ,  2-C ) :   1.6656
B(  1-C , 32-H ) :   0.9609 B(  2-C ,  3-C ) :   1.2189 B(  2-C ,  6-C ) :   1.0062
B(  3-C ,  4-C ) :   1.5899 B(  3-C ,  5-H ) :   0.9789 B(  4-C , 20-C ) :   1.0876
B(  6-C ,  7-H ) :   0.9472 B(  6-C ,  8-H ) :   0.9501 B(  6-C ,  9-C ) :   1.0752
B(  9-C , 10-H ) :   0.9539 B(  9-C , 11-H ) :   0.9493 B(  9-C , 12-C ) :   1.0758
B( 12-C , 13-H ) :   0.9741 B( 12-C , 14-H ) :   0.9747 B( 12-C , 15-H ) :   0.9695
B( 16-S , 17-C ) :   1.1778 B( 16-S , 20-C ) :   1.1526 B( 17-C , 18-C ) :   1.5624
B( 17-C , 20-C ) :   0.1014 B( 17-C , 33-H ) :   0.9644 B( 18-C , 19-C ) :   1.2629
B( 18-C , 21-H ) :   0.9966 B( 19-C , 20-C ) :   1.5158 B( 19-C , 22-C ) :   1.0480
B( 22-C , 23-H ) :   0.9320 B( 22-C , 24-H ) :   0.9323 B( 22-C , 25-C ) :   1.0614
B( 25-C , 26-H ) :   0.9518 B( 25-C , 27-H ) :   0.9524 B( 25-C , 28-C ) :   1.0957
B( 28-C , 29-H ) :   0.9663 B( 28-C , 30-H ) :   0.9681 B( 28-C , 31-H ) :   0.9657

Dispersion correction           -0.015434516
FINAL SINGLE POINT ENERGY     -1339.868204610569

DIPOLE MOMENT
-------------
                                X             Y             Z
Electronic contribution:     17.38057     -22.61087      -5.87431
Nuclear contribution   :    -17.63123      23.05617       6.23144
                        -----------------------------------------
Total Dipole Moment    :     -0.25066       0.44530       0.35712
                        -----------------------------------------
Magnitude (a.u.)       :      0.62343
Magnitude (Debye)      :      1.58463

Rotational constants in cm-1:     0.018285     0.010103     0.007064
Rotational constants in MHz :   548.178142   302.866140   211.770641

                             ****ORCA TERMINATED NORMALLY****
TOTAL RUN TIME: 0 days 0 hours 0 minutes 34 seconds 53 msec
