                         Program Version 4.2.1 -  RELEASE  -
|  1> ! wB97X-D3 SP def2-SVP
|  2> %pal
|  3> nprocs 16
|  4> end
|  5>
|  6> * xyz 0 1
|  7> S 	 24.3122 	 -0.249275 	 86.0891
|  8> C 	 25.0443 	 1.23011 	 85.789
|  9> C 	 24.0778 	 2.22349 	 85.7078
| 10> C 	 22.7363 	 1.80964 	 86.0494
| 11> C 	 22.7357 	 0.432635 	 86.2411
| 12> H 	 21.8029 	 2.30429 	 86.1319
| 13> C 	 24.4175 	 3.67278 	 85.4501
| 14> H 	 25.3553 	 3.63528 	 84.9495
| 15> H 	 24.5738 	 4.18523 	 86.4218
| 16> C 	 23.4129 	 4.58053 	 84.6886
| 17> H 	 23.2823 	 4.14955 	 83.6907
| 18> H 	 22.4141 	 4.59747 	 85.141
| 19> C 	 23.9833 	 6.00684 	 84.4728
| 20> H 	 23.8842 	 6.5376 	 85.4548
| 21> H 	 24.9987 	 5.98848 	 84.0442
| 22> H 	 23.3465 	 6.62413 	 83.7551
| 23> S 	 21.7454 	 -0.941763 	 88.3776
| 24> C 	 20.2049 	 -1.68811 	 88.251
| 25> C 	 19.6752 	 -1.56259 	 86.9814
| 26> C 	 20.5312 	 -0.787318 	 86.13
| 27> C 	 21.6735 	 -0.373761 	 86.7756
| 28> H 	 18.69 	 -1.89447 	 86.693
| 29> C 	 20.156 	 -0.429812 	 84.693
| 30> H 	 20.4003 	 0.636792 	 84.6103
| 31> H 	 19.0802 	 -0.559127 	 84.5121
| 32> C 	 20.9679 	 -1.12453 	 83.5122
| 33> H 	 20.6877 	 -2.14636 	 83.3601
| 34> H 	 22.0017 	 -1.16804 	 83.9152
| 35> C 	 20.966 	 -0.433149 	 82.1653
| 36> H 	 21.7746 	 -0.945375 	 81.5654
| 37> H 	 21.1886 	 0.597594 	 82.2913
| 38> H 	 20.0148 	 -0.517631 	 81.5782
| 39> H 	 26.0835 	 1.35375 	 85.8299
| 40> H 	 19.5707 	 -1.94566 	 89.096
| 41> *
| 42>
| 43>                          ****END OF INPUT****

CARTESIAN COORDINATES (ANGSTROEM)
---------------------------------
  S     24.312200   -0.249275   86.089100
  C     25.044300    1.230110   85.789000
  C     24.077800    2.223490   85.707800
  C     22.736300    1.809640   86.049400
  C     22.735700    0.432635   86.241100
  H     21.802900    2.304290   86.131900
  C     24.417500    3.672780   85.450100
  H     25.355300    3.635280   84.949500
  H     24.573800    4.185230   86.421800
  C     23.412900    4.580530   84.688600
  H     23.282300    4.149550   83.690700
  H     22.414100    4.597470   85.141000
  C     23.983300    6.006840   84.472800
  H     23.884200    6.537600   85.454800
  H     24.998700    5.988480   84.044200
  H     23.346500    6.624130   83.755100
  S     21.745400   -0.941763   88.377600
  C     20.204900   -1.688110   88.251000
  C     19.675200   -1.562590   86.981400
  C     20.531200   -0.787318   86.130000
  C     21.673500   -0.373761   86.775600
  H     18.690000   -1.894470   86.693000
  C     20.156000   -0.429812   84.693000
  H     20.400300    0.636792   84.610300
  H     19.080200   -0.559127   84.512100
  C     20.967900   -1.124530   83.512200
  H     20.687700   -2.146360   83.360100
  H     22.001700   -1.168040   83.915200
  C     20.966000   -0.433149   82.165300
  H     21.774600   -0.945375   81.565400
  H     21.188600    0.597594   82.291300
  H     20.014800   -0.517631   81.578200
  H     26.083500    1.353750   85.829900
  H     19.570700   -1.945660   89.096000

 Total Charge           Charge          ....    0
 Multiplicity           Mult            ....    1
 Number of Electrons    NEL             ....  134
 Basis Dimension        Dim             ....  322

ORBITAL ENERGIES
----------------

  NO   OCC          E(Eh)            E(eV)
   0   2.0000     -88.966421     -2420.8994
   1   2.0000     -88.964194     -2420.8388
   2   2.0000     -10.323238      -280.9096
   3   2.0000     -10.315752      -280.7059
   4   2.0000     -10.313289      -280.6389
   5   2.0000     -10.305755      -280.4339
   6   2.0000     -10.303397      -280.3697
   7   2.0000     -10.299522      -280.2642
   8   2.0000     -10.295288      -280.1490
   9   2.0000     -10.292812      -280.0817
  10   2.0000     -10.292238      -280.0660
  11   2.0000     -10.290270      -280.0125
  12   2.0000     -10.290053      -280.0066
  13   2.0000     -10.288042      -279.9518
  14   2.0000     -10.281644      -279.7778
  15   2.0000     -10.277730      -279.6713
  16   2.0000      -8.082537      -219.9370
  17   2.0000      -8.080675      -219.8864
  18   2.0000      -6.040886      -164.3809
  19   2.0000      -6.038944      -164.3280
  20   2.0000      -6.036794      -164.2695
  21   2.0000      -6.034729      -164.2133
  22   2.0000      -6.033434      -164.1781
  23   2.0000      -6.031792      -164.1334
  24   2.0000      -1.017719       -27.6935
  25   2.0000      -0.993422       -27.0324
  26   2.0000      -0.907808       -24.7027
  27   2.0000      -0.899678       -24.4815
  28   2.0000      -0.874876       -23.8066
  29   2.0000      -0.853226       -23.2175
  30   2.0000      -0.848820       -23.0976
  31   2.0000      -0.817707       -22.2509
  32   2.0000      -0.778358       -21.1802
  33   2.0000      -0.765007       -20.8169
  34   2.0000      -0.708406       -19.2767
  35   2.0000      -0.692156       -18.8345
  36   2.0000      -0.687836       -18.7170
  37   2.0000      -0.663365       -18.0511
  38   2.0000      -0.654972       -17.8227
  39   2.0000      -0.615619       -16.7518
  40   2.0000      -0.592676       -16.1275
  41   2.0000      -0.571349       -15.5472
  42   2.0000      -0.566012       -15.4020
  43   2.0000      -0.559119       -15.2144
  44   2.0000      -0.530218       -14.4280
  45   2.0000      -0.517492       -14.0817
  46   2.0000      -0.513289       -13.9673
  47   2.0000      -0.512574       -13.9478
  48   2.0000      -0.502606       -13.6766
  49   2.0000      -0.500847       -13.6287
  50   2.0000      -0.496272       -13.5042
  51   2.0000      -0.483229       -13.1493
  52   2.0000      -0.474045       -12.8994
  53   2.0000      -0.466659       -12.6984
  54   2.0000      -0.459520       -12.5042
  55   2.0000      -0.450444       -12.2572
  56   2.0000      -0.444157       -12.0861
  57   2.0000      -0.435306       -11.8453
  58   2.0000      -0.429255       -11.6806
  59   2.0000      -0.424493       -11.5510
  60   2.0000      -0.419922       -11.4267
  61   2.0000      -0.416541       -11.3346
  62   2.0000      -0.407480       -11.0881
  63   2.0000      -0.343725        -9.3532
  64   2.0000      -0.330140        -8.9836
  65   2.0000      -0.322274        -8.7695
  66   2.0000      -0.300565        -8.1788
  67   0.0000       0.041926         1.1409
  68   0.0000       0.061219         1.6658
  69   0.0000       0.117063         3.1854
  70   0.0000       0.126373         3.4388
  71   0.0000       0.133320         3.6278

MULLIKEN ATOMIC CHARGES
-----------------------
   0 S :    0.129835
   1 C :   -0.109449
   2 C :   -0.077516
   3 C :    0.064216
   4 C :   -0.206615
   5 H :    0.009835
   6 C :    0.066437
   7 H :    0.008637
   8 H :    0.038770
   9 C :   -0.093634
  10 H :    0.028505
  11 H :    0.037352
  12 C :   -0.084952
  13 H :    0.042263
  14 H :    0.045036
  15 H :    0.042600
  16 S :    0.140933
  17 C :   -0.098327
  18 C :   -0.031385
  19 C :   -0.041047
  20 C :   -0.179065
  21 H :    0.012701
  22 C :    0.089756
  23 H :    0.012918
  24 H :    0.021566
  25 C :   -0.075664
  26 H :    0.022235
  27 H :    0.028604
  28 C :   -0.056423
  29 H :    0.044828
  30 H :    0.026560
  31 H :    0.039240
  32 H :    0.035544
  33 H :    0.065707
Sum of atomic charges:    0.0000000

LOEWDIN ATOMIC CHARGES
----------------------
   0 S :    0.451460
   1 C :   -0.219210
   2 C :   -0.058868
   3 C :   -0.055204
   4 C :   -0.201898
   5 H :    0.030199
   6 C :   -0.036970
   7 H :    0.023661
   8 H :    0.035000
   9 C :   -0.045283
  10 H :    0.022586
  11 H :    0.023361
  12 C :   -0.072853
  13 H :    0.029215
  14 H :    0.028095
  15 H :    0.032454
  16 S :    0.448216
  17 C :   -0.203162
  18 C :   -0.066978
  19 C :   -0.055469
  20 C :   -0.232073
  21 H :    0.029322
  22 C :   -0.033786
  23 H :    0.030183
  24 H :    0.026999
  25 C :   -0.041839
  26 H :    0.018165
  27 H :    0.025126
  28 C :   -0.068059
  29 H :    0.038056
  30 H :    0.017906
  31 H :    0.027654
  32 H :    0.020497
  33 H :    0.033497

  Mayer bond orders larger than 0.100000
B(  0-S ,  1-C ) :   1.1593 B(  0-S ,  4-C ) :   1.1837 B(  1-C ,  2-C ) :   1.5785
B(  1-C , 32-H ) :   0.9820 B(  2-C ,  3-C ) :   1.2293 B(  2-C ,  6-C ) :   1.0299
B(  3-C ,  4-C ) :   1.5708 B(  3-C ,  5-H ) :   0.9957 B(  4-C , 20-C ) :   1.0061
B(  6-C ,  7-H ) :   0.9405 B(  6-C ,  8-H ) :   0.9349 B(  6-C ,  9-C ) :   1.0635
B(  9-C , 10-H ) :   0.9581 B(  9-C , 11-H ) :   0.9526 B(  9-C , 12-C ) :   1.0825
B( 12-C , 13-H ) :   0.9755 B( 12-C , 14-H ) :   0.9743 B( 12-C , 15-H ) :   0.9750
B( 16-S , 17-C ) :   1.1717 B( 16-S , 20-C ) :   1.1659 B( 17-C , 18-C ) :   1.5833
B( 17-C , 33-H ) :   0.9628 B( 18-C , 19-C ) :   1.2757 B( 18-C , 21-H ) :   0.9902
B( 19-C , 20-C ) :   1.5786 B( 19-C , 22-C ) :   1.0495 B( 22-C , 23-H ) :   0.9246
B( 22-C , 24-H ) :   0.9369 B( 22-C , 25-C ) :   1.0520 B( 25-C , 26-H ) :   0.9546
B( 25-C , 27-H ) :   0.9566 B( 25-C , 28-C ) :   1.0867 B( 28-C , 29-H ) :   0.9712
B( 28-C , 30-H ) :   0.9737 B( 28-C , 31-H ) :   0.9753

Dispersion correction           -0.014316328
FINAL SINGLE POINT ENERGY     -1339.885857550762

DIPOLE MOMENT
-------------
                                X             Y             Z
Electronic contribution:      3.60804     -18.58256      21.19741
Nuclear contribution   :     -3.83564      19.01850     -21.38652
                        -----------------------------------------
Total Dipole Moment    :     -0.22760       0.43595      -0.18911
                        -----------------------------------------
Magnitude (a.u.)       :      0.52689
Magnitude (Debye)      :      1.33925

Rotational constants in cm-1:     0.018202     0.008500     0.007226
Rotational constants in MHz :   545.690757   254.829253   216.630275

                             ****ORCA TERMINATED NORMALLY****
TOTAL RUN TIME: 0 days 0 hours 0 minutes 33 seconds 92 msec
