                         Program Version 4.2.1 -  RELEASE  -
|  1> ! wB97X-D3 SP def2-SVP
|  2> %pal
|  3> nprocs 16
|  4> end
|  5>
|  6> * xyz 0 1
|  7> S 	 -1.75585 	 -13.4296 	 93.8826
|  8> C 	 -3.43162 	 -13.9624 	 94.2683
|  9> C 	 -4.15009 	 -14.1959 	 93.1209
| 10> C 	 -3.39889 	 -13.8619 	 91.9218
| 11> C 	 -2.13296 	 -13.4016 	 92.1573
| 12> H 	 -3.87695 	 -13.9396 	 90.9144
| 13> C 	 -5.6268 	 -14.7107 	 93.0239
| 14> H 	 -5.77915 	 -15.2246 	 93.9736
| 15> H 	 -5.52244 	 -15.3893 	 92.2033
| 16> C 	 -6.72416 	 -13.7539 	 92.7889
| 17> H 	 -6.53529 	 -13.3425 	 91.7864
| 18> H 	 -7.70872 	 -14.2273 	 92.8459
| 19> C 	 -6.85365 	 -12.6773 	 93.9201
| 20> H 	 -7.75971 	 -12.1559 	 93.8229
| 21> H 	 -6.84264 	 -13.1637 	 94.9599
| 22> H 	 -6.01716 	 -12.0171 	 93.8781
| 23> S 	 -0.410763 	 -11.3173 	 91.4196
| 24> C 	 0.205632 	 -11.3685 	 89.8093
| 25> C 	 -0.185706 	 -12.4149 	 89.0692
| 26> C 	 -1.095 	 -13.2233 	 89.8329
| 27> C 	 -1.27296 	 -12.7874 	 91.0979
| 28> H 	 0.0216282 	 -12.4733 	 88.0007
| 29> C 	 -1.85343 	 -14.2447 	 89.0921
| 30> H 	 -2.26928 	 -14.9744 	 89.759
| 31> H 	 -1.21334 	 -14.7844 	 88.45
| 32> C 	 -2.94261 	 -13.6472 	 88.2052
| 33> H 	 -2.44369 	 -13.2413 	 87.307
| 34> H 	 -3.49809 	 -12.8846 	 88.7235
| 35> C 	 -3.97267 	 -14.6643 	 87.7308
| 36> H 	 -4.47921 	 -15.0009 	 88.5878
| 37> H 	 -3.61789 	 -15.5627 	 87.2435
| 38> H 	 -4.66441 	 -14.0853 	 87.0833
| 39> H 	 -3.82942 	 -14.0978 	 95.267
| 40> H 	 0.672391 	 -10.4712 	 89.3918
| 41> *
| 42>
| 43>                          ****END OF INPUT****

CARTESIAN COORDINATES (ANGSTROEM)
---------------------------------
  S     -1.755850  -13.429600   93.882600
  C     -3.431620  -13.962400   94.268300
  C     -4.150090  -14.195900   93.120900
  C     -3.398890  -13.861900   91.921800
  C     -2.132960  -13.401600   92.157300
  H     -3.876950  -13.939600   90.914400
  C     -5.626800  -14.710700   93.023900
  H     -5.779150  -15.224600   93.973600
  H     -5.522440  -15.389300   92.203300
  C     -6.724160  -13.753900   92.788900
  H     -6.535290  -13.342500   91.786400
  H     -7.708720  -14.227300   92.845900
  C     -6.853650  -12.677300   93.920100
  H     -7.759710  -12.155900   93.822900
  H     -6.842640  -13.163700   94.959900
  H     -6.017160  -12.017100   93.878100
  S     -0.410763  -11.317300   91.419600
  C      0.205632  -11.368500   89.809300
  C     -0.185706  -12.414900   89.069200
  C     -1.095000  -13.223300   89.832900
  C     -1.272960  -12.787400   91.097900
  H      0.021628  -12.473300   88.000700
  C     -1.853430  -14.244700   89.092100
  H     -2.269280  -14.974400   89.759000
  H     -1.213340  -14.784400   88.450000
  C     -2.942610  -13.647200   88.205200
  H     -2.443690  -13.241300   87.307000
  H     -3.498090  -12.884600   88.723500
  C     -3.972670  -14.664300   87.730800
  H     -4.479210  -15.000900   88.587800
  H     -3.617890  -15.562700   87.243500
  H     -4.664410  -14.085300   87.083300
  H     -3.829420  -14.097800   95.267000
  H      0.672391  -10.471200   89.391800

 Total Charge           Charge          ....    0
 Multiplicity           Mult            ....    1
 Number of Electrons    NEL             ....  134
 Basis Dimension        Dim             ....  322

ORBITAL ENERGIES
----------------

  NO   OCC          E(Eh)            E(eV)
   0   2.0000     -88.967510     -2420.9290
   1   2.0000     -88.964377     -2420.8438
   2   2.0000     -10.333624      -281.1922
   3   2.0000     -10.322971      -280.9023
   4   2.0000     -10.317178      -280.7447
   5   2.0000     -10.311881      -280.6005
   6   2.0000     -10.303785      -280.3802
   7   2.0000     -10.296416      -280.1797
   8   2.0000     -10.294664      -280.1321
   9   2.0000     -10.290888      -280.0293
  10   2.0000     -10.290102      -280.0079
  11   2.0000     -10.288062      -279.9524
  12   2.0000     -10.286826      -279.9188
  13   2.0000     -10.279810      -279.7278
  14   2.0000     -10.277419      -279.6628
  15   2.0000     -10.277043      -279.6526
  16   2.0000      -8.081086      -219.8975
  17   2.0000      -8.080285      -219.8757
  18   2.0000      -6.039858      -164.3529
  19   2.0000      -6.038712      -164.3217
  20   2.0000      -6.035873      -164.2445
  21   2.0000      -6.034853      -164.2167
  22   2.0000      -6.031516      -164.1259
  23   2.0000      -6.030844      -164.1076
  24   2.0000      -1.011846       -27.5337
  25   2.0000      -0.983030       -26.7496
  26   2.0000      -0.920251       -25.0413
  27   2.0000      -0.914357       -24.8809
  28   2.0000      -0.868046       -23.6207
  29   2.0000      -0.858810       -23.3694
  30   2.0000      -0.840653       -22.8753
  31   2.0000      -0.815631       -22.1944
  32   2.0000      -0.786741       -21.4083
  33   2.0000      -0.778968       -21.1968
  34   2.0000      -0.704368       -19.1668
  35   2.0000      -0.697210       -18.9720
  36   2.0000      -0.693993       -18.8845
  37   2.0000      -0.665211       -18.1013
  38   2.0000      -0.631441       -17.1824
  39   2.0000      -0.623403       -16.9636
  40   2.0000      -0.602458       -16.3937
  41   2.0000      -0.576701       -15.6928
  42   2.0000      -0.566768       -15.4226
  43   2.0000      -0.555406       -15.1134
  44   2.0000      -0.551729       -15.0133
  45   2.0000      -0.534751       -14.5513
  46   2.0000      -0.520606       -14.1664
  47   2.0000      -0.510671       -13.8961
  48   2.0000      -0.499741       -13.5986
  49   2.0000      -0.496664       -13.5149
  50   2.0000      -0.482969       -13.1422
  51   2.0000      -0.479970       -13.0607
  52   2.0000      -0.473769       -12.8919
  53   2.0000      -0.465502       -12.6670
  54   2.0000      -0.457989       -12.4625
  55   2.0000      -0.455499       -12.3948
  56   2.0000      -0.447735       -12.1835
  57   2.0000      -0.439750       -11.9662
  58   2.0000      -0.437074       -11.8934
  59   2.0000      -0.430345       -11.7103
  60   2.0000      -0.425402       -11.5758
  61   2.0000      -0.419649       -11.4192
  62   2.0000      -0.403130       -10.9697
  63   2.0000      -0.355302        -9.6683
  64   2.0000      -0.332014        -9.0346
  65   2.0000      -0.330815        -9.0019
  66   2.0000      -0.293207        -7.9786
  67   0.0000       0.035109         0.9554
  68   0.0000       0.077368         2.1053
  69   0.0000       0.103785         2.8241
  70   0.0000       0.117279         3.1913
  71   0.0000       0.126023         3.4292

MULLIKEN ATOMIC CHARGES
-----------------------
   0 S :    0.097303
   1 C :   -0.139110
   2 C :   -0.100641
   3 C :   -0.012957
   4 C :   -0.109767
   5 H :    0.013561
   6 C :    0.089519
   7 H :    0.016061
   8 H :    0.023769
   9 C :   -0.053928
  10 H :    0.027641
  11 H :    0.036829
  12 C :   -0.058141
  13 H :    0.028905
  14 H :    0.028331
  15 H :    0.040717
  16 S :    0.111306
  17 C :   -0.096592
  18 C :   -0.018919
  19 C :   -0.061476
  20 C :   -0.136082
  21 H :    0.026715
  22 C :    0.095957
  23 H :    0.009640
  24 H :    0.005737
  25 C :   -0.094390
  26 H :    0.028632
  27 H :    0.034205
  28 C :   -0.017956
  29 H :    0.007644
  30 H :    0.030401
  31 H :    0.041063
  32 H :    0.046130
  33 H :    0.059891
Sum of atomic charges:   -0.0000000

LOEWDIN ATOMIC CHARGES
----------------------
   0 S :    0.371305
   1 C :   -0.185173
   2 C :   -0.058995
   3 C :   -0.077398
   4 C :   -0.176710
   5 H :    0.034644
   6 C :   -0.027394
   7 H :    0.028006
   8 H :    0.028723
   9 C :   -0.041815
  10 H :    0.024977
  11 H :    0.029632
  12 C :   -0.059949
  13 H :    0.017869
  14 H :    0.031058
  15 H :    0.021406
  16 S :    0.411882
  17 C :   -0.182953
  18 C :   -0.068403
  19 C :   -0.054165
  20 C :   -0.201265
  21 H :    0.037254
  22 C :   -0.032635
  23 H :    0.022561
  24 H :    0.025837
  25 C :   -0.034309
  26 H :    0.024789
  27 H :    0.021904
  28 C :   -0.059010
  29 H :    0.013318
  30 H :    0.023439
  31 H :    0.033507
  32 H :    0.028590
  33 H :    0.029474

  Mayer bond orders larger than 0.100000
B(  0-S ,  1-C ) :   1.1067 B(  0-S ,  4-C ) :   1.1355 B(  1-C ,  2-C ) :   1.6526
B(  1-C , 32-H ) :   0.9676 B(  2-C ,  3-C ) :   1.2183 B(  2-C ,  6-C ) :   0.9968
B(  3-C ,  4-C ) :   1.5997 B(  3-C ,  5-H ) :   0.9792 B(  4-C , 20-C ) :   1.0185
B(  6-C ,  7-H ) :   0.9379 B(  6-C ,  8-H ) :   0.9392 B(  6-C ,  9-C ) :   1.0940
B(  9-C , 10-H ) :   0.9511 B(  9-C , 11-H ) :   0.9539 B(  9-C , 12-C ) :   1.0673
B( 12-C , 13-H ) :   0.9769 B( 12-C , 14-H ) :   0.9744 B( 12-C , 15-H ) :   0.9774
B( 16-S , 17-C ) :   1.1561 B( 16-S , 20-C ) :   1.1201 B( 17-C , 18-C ) :   1.6411
B( 17-C , 33-H ) :   0.9586 B( 18-C , 19-C ) :   1.2009 B( 18-C , 21-H ) :   0.9927
B( 19-C , 20-C ) :   1.6519 B( 19-C , 22-C ) :   1.0776 B( 22-C , 23-H ) :   0.9268
B( 22-C , 24-H ) :   0.9143 B( 22-C , 25-C ) :   1.0611 B( 25-C , 26-H ) :   0.9495
B( 25-C , 27-H ) :   0.9562 B( 25-C , 28-C ) :   1.0906 B( 28-C , 29-H ) :   0.9737
B( 28-C , 30-H ) :   0.9719 B( 28-C , 31-H ) :   0.9726

Dispersion correction           -0.014879229
FINAL SINGLE POINT ENERGY     -1339.880007817421

DIPOLE MOMENT
-------------
                                X             Y             Z
Electronic contribution:     25.19542       8.40078      11.59369
Nuclear contribution   :    -25.80748      -8.50212     -12.16532
                        -----------------------------------------
Total Dipole Moment    :     -0.61206      -0.10135      -0.57162
                        -----------------------------------------
Magnitude (a.u.)       :      0.84359
Magnitude (Debye)      :      2.14423

Rotational constants in cm-1:     0.017716     0.009618     0.007088
Rotational constants in MHz :   531.109044   288.333408   212.496457

                             ****ORCA TERMINATED NORMALLY****
TOTAL RUN TIME: 0 days 0 hours 0 minutes 35 seconds 751 msec
