                         Program Version 4.2.1 -  RELEASE  -
|  1> ! wB97X-D3 SP def2-SVP
|  2> %pal
|  3> nprocs 16
|  4> end
|  5>
|  6> * xyz 0 1
|  7> S 	 -97.4879 	 44.4144 	 125.254
|  8> C 	 -98.3435 	 43.1313 	 126.079
|  9> C 	 -97.5616 	 42.0263 	 126.067
| 10> C 	 -96.4516 	 42.0563 	 125.185
| 11> C 	 -96.2874 	 43.2761 	 124.704
| 12> H 	 -95.7095 	 41.2874 	 124.975
| 13> C 	 -97.927 	 40.7609 	 126.804
| 14> H 	 -98.0717 	 39.9691 	 126.085
| 15> H 	 -98.7966 	 40.8798 	 127.554
| 16> C 	 -96.7684 	 40.4067 	 127.668
| 17> H 	 -95.8734 	 40.2433 	 127.033
| 18> H 	 -96.4967 	 41.2048 	 128.257
| 19> C 	 -97.0152 	 39.1967 	 128.606
| 20> H 	 -97.3168 	 38.2662 	 128.013
| 21> H 	 -96.0976 	 38.8343 	 129.177
| 22> H 	 -97.843 	 39.4448 	 129.283
| 23> S 	 -95.2165 	 43.9663 	 122.311
| 24> C 	 -93.5481 	 44.4094 	 122.248
| 25> C 	 -92.8782 	 44.3725 	 123.437
| 26> C 	 -93.7504 	 44.01 	 124.57
| 27> C 	 -95.0636 	 43.702 	 124.062
| 28> H 	 -91.8157 	 44.5541 	 123.525
| 29> C 	 -93.4045 	 43.9518 	 126.066
| 30> H 	 -92.3687 	 43.6918 	 126.191
| 31> H 	 -93.9212 	 43.1115 	 126.483
| 32> C 	 -93.7911 	 45.1823 	 126.894
| 33> H 	 -94.7855 	 45.4334 	 126.646
| 34> H 	 -93.0934 	 45.9965 	 126.532
| 35> C 	 -93.5955 	 45.0792 	 128.416
| 36> H 	 -93.5076 	 46.1387 	 128.852
| 37> H 	 -92.6504 	 44.5359 	 128.621
| 38> H 	 -94.4039 	 44.5272 	 128.982
| 39> H 	 -99.2012 	 43.2805 	 126.769
| 40> H 	 -93.1892 	 44.5452 	 121.253
| 41> *
| 42>
| 43>                          ****END OF INPUT****

CARTESIAN COORDINATES (ANGSTROEM)
---------------------------------
  S    -97.487900   44.414400  125.254000
  C    -98.343500   43.131300  126.079000
  C    -97.561600   42.026300  126.067000
  C    -96.451600   42.056300  125.185000
  C    -96.287400   43.276100  124.704000
  H    -95.709500   41.287400  124.975000
  C    -97.927000   40.760900  126.804000
  H    -98.071700   39.969100  126.085000
  H    -98.796600   40.879800  127.554000
  C    -96.768400   40.406700  127.668000
  H    -95.873400   40.243300  127.033000
  H    -96.496700   41.204800  128.257000
  C    -97.015200   39.196700  128.606000
  H    -97.316800   38.266200  128.013000
  H    -96.097600   38.834300  129.177000
  H    -97.843000   39.444800  129.283000
  S    -95.216500   43.966300  122.311000
  C    -93.548100   44.409400  122.248000
  C    -92.878200   44.372500  123.437000
  C    -93.750400   44.010000  124.570000
  C    -95.063600   43.702000  124.062000
  H    -91.815700   44.554100  123.525000
  C    -93.404500   43.951800  126.066000
  H    -92.368700   43.691800  126.191000
  H    -93.921200   43.111500  126.483000
  C    -93.791100   45.182300  126.894000
  H    -94.785500   45.433400  126.646000
  H    -93.093400   45.996500  126.532000
  C    -93.595500   45.079200  128.416000
  H    -93.507600   46.138700  128.852000
  H    -92.650400   44.535900  128.621000
  H    -94.403900   44.527200  128.982000
  H    -99.201200   43.280500  126.769000
  H    -93.189200   44.545200  121.253000

 Total Charge           Charge          ....    0
 Multiplicity           Mult            ....    1
 Number of Electrons    NEL             ....  134
 Basis Dimension        Dim             ....  322

ORBITAL ENERGIES
----------------

  NO   OCC          E(Eh)            E(eV)
   0   2.0000     -88.963277     -2420.8138
   1   2.0000     -88.962893     -2420.8034
   2   2.0000     -10.327670      -281.0302
   3   2.0000     -10.319618      -280.8111
   4   2.0000     -10.317430      -280.7516
   5   2.0000     -10.313652      -280.6487
   6   2.0000     -10.312312      -280.6123
   7   2.0000     -10.299815      -280.2722
   8   2.0000     -10.296325      -280.1772
   9   2.0000     -10.292112      -280.0626
  10   2.0000     -10.290058      -280.0067
  11   2.0000     -10.289656      -279.9958
  12   2.0000     -10.289282      -279.9856
  13   2.0000     -10.288704      -279.9699
  14   2.0000     -10.284277      -279.8494
  15   2.0000     -10.278580      -279.6944
  16   2.0000      -8.078480      -219.8266
  17   2.0000      -8.077924      -219.8115
  18   2.0000      -6.036749      -164.2683
  19   2.0000      -6.036440      -164.2599
  20   2.0000      -6.032992      -164.1661
  21   2.0000      -6.032512      -164.1530
  22   2.0000      -6.029412      -164.0686
  23   2.0000      -6.028503      -164.0439
  24   2.0000      -1.013597       -27.5814
  25   2.0000      -0.982392       -26.7322
  26   2.0000      -0.920100       -25.0372
  27   2.0000      -0.906022       -24.6541
  28   2.0000      -0.873210       -23.7613
  29   2.0000      -0.848390       -23.0859
  30   2.0000      -0.844952       -22.9923
  31   2.0000      -0.814942       -22.1757
  32   2.0000      -0.780957       -21.2509
  33   2.0000      -0.766729       -20.8638
  34   2.0000      -0.705518       -19.1981
  35   2.0000      -0.693045       -18.8587
  36   2.0000      -0.689049       -18.7500
  37   2.0000      -0.659549       -17.9472
  38   2.0000      -0.646394       -17.5893
  39   2.0000      -0.623431       -16.9644
  40   2.0000      -0.599518       -16.3137
  41   2.0000      -0.574166       -15.6238
  42   2.0000      -0.567338       -15.4381
  43   2.0000      -0.555114       -15.1054
  44   2.0000      -0.521282       -14.1848
  45   2.0000      -0.519504       -14.1364
  46   2.0000      -0.516208       -14.0467
  47   2.0000      -0.511681       -13.9235
  48   2.0000      -0.506594       -13.7851
  49   2.0000      -0.500469       -13.6185
  50   2.0000      -0.489335       -13.3155
  51   2.0000      -0.481128       -13.0922
  52   2.0000      -0.466823       -12.7029
  53   2.0000      -0.463737       -12.6189
  54   2.0000      -0.457233       -12.4419
  55   2.0000      -0.451271       -12.2797
  56   2.0000      -0.449026       -12.2186
  57   2.0000      -0.434120       -11.8130
  58   2.0000      -0.432070       -11.7572
  59   2.0000      -0.426687       -11.6107
  60   2.0000      -0.420255       -11.4357
  61   2.0000      -0.413479       -11.2513
  62   2.0000      -0.412361       -11.2209
  63   2.0000      -0.338717        -9.2169
  64   2.0000      -0.331019        -9.0075
  65   2.0000      -0.323866        -8.8128
  66   2.0000      -0.308034        -8.3820
  67   0.0000       0.044670         1.2155
  68   0.0000       0.056821         1.5462
  69   0.0000       0.114231         3.1084
  70   0.0000       0.119552         3.2532
  71   0.0000       0.124396         3.3850

MULLIKEN ATOMIC CHARGES
-----------------------
   0 S :    0.103542
   1 C :   -0.122362
   2 C :   -0.096797
   3 C :    0.041963
   4 C :   -0.121428
   5 H :    0.028114
   6 C :    0.082616
   7 H :    0.033426
   8 H :    0.027208
   9 C :   -0.095658
  10 H :    0.024831
  11 H :    0.011810
  12 C :   -0.070769
  13 H :    0.032740
  14 H :    0.048288
  15 H :    0.036506
  16 S :    0.102024
  17 C :   -0.078926
  18 C :   -0.022815
  19 C :   -0.032274
  20 C :   -0.229751
  21 H :    0.021451
  22 C :    0.100321
  23 H :    0.009685
  24 H :    0.009918
  25 C :   -0.051743
  26 H :    0.017929
  27 H :    0.031794
  28 C :   -0.086480
  29 H :    0.051780
  30 H :    0.030441
  31 H :    0.047547
  32 H :    0.063022
  33 H :    0.052048
Sum of atomic charges:   -0.0000000

LOEWDIN ATOMIC CHARGES
----------------------
   0 S :    0.400133
   1 C :   -0.202590
   2 C :   -0.063264
   3 C :   -0.059883
   4 C :   -0.199841
   5 H :    0.040379
   6 C :   -0.028874
   7 H :    0.030215
   8 H :    0.035697
   9 C :   -0.046492
  10 H :    0.022753
  11 H :    0.013017
  12 C :   -0.075858
  13 H :    0.028913
  14 H :    0.033874
  15 H :    0.023756
  16 S :    0.405882
  17 C :   -0.182555
  18 C :   -0.072797
  19 C :   -0.038232
  20 C :   -0.194562
  21 H :    0.033059
  22 C :   -0.033207
  23 H :    0.025041
  24 H :    0.026893
  25 C :   -0.038880
  26 H :    0.013009
  27 H :    0.030491
  28 C :   -0.077405
  29 H :    0.038182
  30 H :    0.024668
  31 H :    0.029794
  32 H :    0.039029
  33 H :    0.019655

  Mayer bond orders larger than 0.100000
B(  0-S ,  1-C ) :   1.1074 B(  0-S ,  4-C ) :   1.1511 B(  1-C ,  2-C ) :   1.6605
B(  1-C , 32-H ) :   0.9648 B(  2-C ,  3-C ) :   1.1780 B(  2-C ,  6-C ) :   1.0332
B(  3-C ,  4-C ) :   1.6278 B(  3-C ,  5-H ) :   0.9945 B(  4-C , 20-C ) :   1.0042
B(  6-C ,  7-H ) :   0.9352 B(  6-C ,  8-H ) :   0.9467 B(  6-C ,  9-C ) :   1.0546
B(  9-C , 10-H ) :   0.9502 B(  9-C , 11-H ) :   0.9547 B(  9-C , 12-C ) :   1.0822
B( 12-C , 13-H ) :   0.9734 B( 12-C , 14-H ) :   0.9743 B( 12-C , 15-H ) :   0.9728
B( 16-S , 17-C ) :   1.1624 B( 16-S , 20-C ) :   1.1594 B( 17-C , 18-C ) :   1.6056
B( 17-C , 33-H ) :   0.9722 B( 18-C , 19-C ) :   1.2223 B( 18-C , 21-H ) :   0.9936
B( 19-C , 20-C ) :   1.5926 B( 19-C , 22-C ) :   1.0472 B( 22-C , 23-H ) :   0.9253
B( 22-C , 24-H ) :   0.9273 B( 22-C , 25-C ) :   1.0672 B( 25-C , 26-H ) :   0.9535
B( 25-C , 27-H ) :   0.9553 B( 25-C , 28-C ) :   1.0760 B( 28-C , 29-H ) :   0.9750
B( 28-C , 30-H ) :   0.9734 B( 28-C , 31-H ) :   0.9743

Dispersion correction           -0.014845680
FINAL SINGLE POINT ENERGY     -1339.873675402296

DIPOLE MOMENT
-------------
                                X             Y             Z
Electronic contribution:     -6.23671      11.51673     -25.92419
Nuclear contribution   :      6.58412     -11.85616      26.39017
                        -----------------------------------------
Total Dipole Moment    :      0.34742      -0.33944       0.46598
                        -----------------------------------------
Magnitude (a.u.)       :      0.67309
Magnitude (Debye)      :      1.71087

Rotational constants in cm-1:     0.017587     0.009126     0.007693
Rotational constants in MHz :   527.245460   273.605347   230.634651

                             ****ORCA TERMINATED NORMALLY****
TOTAL RUN TIME: 0 days 0 hours 0 minutes 32 seconds 562 msec
