                         Program Version 4.2.1 -  RELEASE  -
|  1> ! wB97X-D3 SP def2-SVP
|  2> %pal
|  3> nprocs 16
|  4> end
|  5>
|  6> * xyz 0 1
|  7> S 	 7.82486 	 -13.1265 	 66.2431
|  8> C 	 7.95701 	 -14.8006 	 65.8207
|  9> C 	 8.8856 	 -15.4706 	 66.6441
| 10> C 	 9.54009 	 -14.5995 	 67.5135
| 11> C 	 9.27015 	 -13.2377 	 67.2768
| 12> H 	 10.2225 	 -14.8995 	 68.3422
| 13> C 	 8.96071 	 -17.0496 	 66.769
| 14> H 	 8.007 	 -17.48 	 66.3004
| 15> H 	 8.89765 	 -17.1754 	 67.8569
| 16> C 	 10.1702 	 -17.7265 	 66.2484
| 17> H 	 11.0671 	 -17.094 	 66.4197
| 18> H 	 10.4873 	 -18.6313 	 66.8534
| 19> C 	 10.1966 	 -18.0177 	 64.7128
| 20> H 	 9.37479 	 -18.657 	 64.4104
| 21> H 	 10.12 	 -17.1047 	 64.1402
| 22> H 	 11.1303 	 -18.4974 	 64.4283
| 23> S 	 8.54819 	 -10.8394 	 68.5266
| 24> C 	 9.83268 	 -9.83605 	 69.1593
| 25> C 	 11.0732 	 -10.4215 	 69.0855
| 26> C 	 11.0946 	 -11.6647 	 68.3745
| 27> C 	 9.7782 	 -12.068 	 67.9761
| 28> H 	 11.9439 	 -9.82705 	 69.4794
| 29> C 	 12.3938 	 -12.4179 	 68.071
| 30> H 	 12.2465 	 -13.4966 	 68.1557
| 31> H 	 13.1557 	 -12.1947 	 68.8365
| 32> C 	 13.1236 	 -12.1372 	 66.7415
| 33> H 	 13.9335 	 -12.8414 	 66.5826
| 34> H 	 13.6995 	 -11.2232 	 67.0167
| 35> C 	 12.2648 	 -11.8426 	 65.4331
| 36> H 	 11.4812 	 -11.1043 	 65.7026
| 37> H 	 11.7915 	 -12.6957 	 65.0334
| 38> H 	 12.9193 	 -11.4946 	 64.597
| 39> H 	 7.26478 	 -15.269 	 65.1575
| 40> H 	 9.65849 	 -8.93734 	 69.7181
| 41> *
| 42>
| 43>                          ****END OF INPUT****

CARTESIAN COORDINATES (ANGSTROEM)
---------------------------------
  S      7.824860  -13.126500   66.243100
  C      7.957010  -14.800600   65.820700
  C      8.885600  -15.470600   66.644100
  C      9.540090  -14.599500   67.513500
  C      9.270150  -13.237700   67.276800
  H     10.222500  -14.899500   68.342200
  C      8.960710  -17.049600   66.769000
  H      8.007000  -17.480000   66.300400
  H      8.897650  -17.175400   67.856900
  C     10.170200  -17.726500   66.248400
  H     11.067100  -17.094000   66.419700
  H     10.487300  -18.631300   66.853400
  C     10.196600  -18.017700   64.712800
  H      9.374790  -18.657000   64.410400
  H     10.120000  -17.104700   64.140200
  H     11.130300  -18.497400   64.428300
  S      8.548190  -10.839400   68.526600
  C      9.832680   -9.836050   69.159300
  C     11.073200  -10.421500   69.085500
  C     11.094600  -11.664700   68.374500
  C      9.778200  -12.068000   67.976100
  H     11.943900   -9.827050   69.479400
  C     12.393800  -12.417900   68.071000
  H     12.246500  -13.496600   68.155700
  H     13.155700  -12.194700   68.836500
  C     13.123600  -12.137200   66.741500
  H     13.933500  -12.841400   66.582600
  H     13.699500  -11.223200   67.016700
  C     12.264800  -11.842600   65.433100
  H     11.481200  -11.104300   65.702600
  H     11.791500  -12.695700   65.033400
  H     12.919300  -11.494600   64.597000
  H      7.264780  -15.269000   65.157500
  H      9.658490   -8.937340   69.718100

 Total Charge           Charge          ....    0
 Multiplicity           Mult            ....    1
 Number of Electrons    NEL             ....  134
 Basis Dimension        Dim             ....  322

ORBITAL ENERGIES
----------------

  NO   OCC          E(Eh)            E(eV)
   0   2.0000     -88.969541     -2420.9843
   1   2.0000     -88.968512     -2420.9563
   2   2.0000     -10.338735      -281.3313
   3   2.0000     -10.335333      -281.2387
   4   2.0000     -10.316825      -280.7351
   5   2.0000     -10.315928      -280.7107
   6   2.0000     -10.314963      -280.6844
   7   2.0000     -10.306111      -280.4435
   8   2.0000     -10.302982      -280.3584
   9   2.0000     -10.300248      -280.2840
  10   2.0000     -10.299538      -280.2647
  11   2.0000     -10.295245      -280.1478
  12   2.0000     -10.291408      -280.0434
  13   2.0000     -10.288811      -279.9728
  14   2.0000     -10.276987      -279.6510
  15   2.0000     -10.274678      -279.5882
  16   2.0000      -8.083958      -219.9757
  17   2.0000      -8.082232      -219.9287
  18   2.0000      -6.042352      -164.4207
  19   2.0000      -6.040762      -164.3775
  20   2.0000      -6.038601      -164.3187
  21   2.0000      -6.036970      -164.2743
  22   2.0000      -6.034771      -164.2145
  23   2.0000      -6.032935      -164.1645
  24   2.0000      -1.001347       -27.2480
  25   2.0000      -0.978527       -26.6271
  26   2.0000      -0.907935       -24.7062
  27   2.0000      -0.899174       -24.4678
  28   2.0000      -0.866033       -23.5659
  29   2.0000      -0.849291       -23.1104
  30   2.0000      -0.838457       -22.8156
  31   2.0000      -0.808019       -21.9873
  32   2.0000      -0.785118       -21.3642
  33   2.0000      -0.774352       -21.0712
  34   2.0000      -0.710004       -19.3202
  35   2.0000      -0.692696       -18.8492
  36   2.0000      -0.689487       -18.7619
  37   2.0000      -0.653065       -17.7708
  38   2.0000      -0.639526       -17.4024
  39   2.0000      -0.619616       -16.8606
  40   2.0000      -0.589686       -16.0462
  41   2.0000      -0.561312       -15.2741
  42   2.0000      -0.553168       -15.0525
  43   2.0000      -0.544377       -14.8132
  44   2.0000      -0.539081       -14.6691
  45   2.0000      -0.531071       -14.4512
  46   2.0000      -0.517567       -14.0837
  47   2.0000      -0.502599       -13.6764
  48   2.0000      -0.498040       -13.5524
  49   2.0000      -0.495142       -13.4735
  50   2.0000      -0.481629       -13.1058
  51   2.0000      -0.479511       -13.0481
  52   2.0000      -0.470591       -12.8054
  53   2.0000      -0.468231       -12.7412
  54   2.0000      -0.458896       -12.4872
  55   2.0000      -0.448047       -12.1920
  56   2.0000      -0.445466       -12.1218
  57   2.0000      -0.441223       -12.0063
  58   2.0000      -0.435564       -11.8523
  59   2.0000      -0.423730       -11.5303
  60   2.0000      -0.417221       -11.3531
  61   2.0000      -0.404530       -11.0078
  62   2.0000      -0.404021       -10.9940
  63   2.0000      -0.352366        -9.5884
  64   2.0000      -0.336242        -9.1496
  65   2.0000      -0.332684        -9.0528
  66   2.0000      -0.280386        -7.6297
  67   0.0000       0.014032         0.3818
  68   0.0000       0.065096         1.7714
  69   0.0000       0.096579         2.6280
  70   0.0000       0.120418         3.2768
  71   0.0000       0.125803         3.4233

MULLIKEN ATOMIC CHARGES
-----------------------
   0 S :    0.106786
   1 C :   -0.110795
   2 C :   -0.089462
   3 C :    0.009436
   4 C :   -0.151140
   5 H :    0.039565
   6 C :    0.058953
   7 H :    0.034746
   8 H :    0.036151
   9 C :   -0.088639
  10 H :    0.023415
  11 H :    0.035597
  12 C :   -0.045178
  13 H :    0.027211
  14 H :    0.033884
  15 H :    0.033629
  16 S :    0.093012
  17 C :   -0.085135
  18 C :   -0.055416
  19 C :   -0.038624
  20 C :   -0.155847
  21 H :    0.041924
  22 C :    0.069852
  23 H :    0.020374
  24 H :    0.024704
  25 C :   -0.092976
  26 H :    0.027369
  27 H :    0.020336
  28 C :   -0.047674
  29 H :    0.056822
  30 H :    0.031740
  31 H :    0.037512
  32 H :    0.044132
  33 H :    0.053738
Sum of atomic charges:    0.0000000

LOEWDIN ATOMIC CHARGES
----------------------
   0 S :    0.407968
   1 C :   -0.198952
   2 C :   -0.066559
   3 C :   -0.065492
   4 C :   -0.189223
   5 H :    0.039847
   6 C :   -0.031458
   7 H :    0.035756
   8 H :    0.037246
   9 C :   -0.058179
  10 H :    0.027175
  11 H :    0.030456
  12 C :   -0.062730
  13 H :    0.020503
  14 H :    0.025224
  15 H :    0.027102
  16 S :    0.375617
  17 C :   -0.182850
  18 C :   -0.079617
  19 C :   -0.051845
  20 C :   -0.175406
  21 H :    0.043661
  22 C :   -0.037044
  23 H :    0.025229
  24 H :    0.035495
  25 C :   -0.043606
  26 H :    0.022579
  27 H :    0.023701
  28 C :   -0.067189
  29 H :    0.034031
  30 H :    0.018091
  31 H :    0.031783
  32 H :    0.021659
  33 H :    0.027026

  Mayer bond orders larger than 0.100000
B(  0-S ,  1-C ) :   1.1616 B(  0-S ,  4-C ) :   1.1556 B(  1-C ,  2-C ) :   1.5556
B(  1-C ,  4-C ) :   0.1143 B(  1-C , 32-H ) :   0.9743 B(  2-C ,  3-C ) :   1.3010
B(  2-C ,  6-C ) :   1.0028 B(  3-C ,  4-C ) :   1.5199 B(  3-C ,  5-H ) :   0.9791
B(  4-C , 20-C ) :   1.0980 B(  6-C ,  7-H ) :   0.9506 B(  6-C ,  8-H ) :   0.9402
B(  6-C ,  9-C ) :   1.0660 B(  9-C , 10-H ) :   0.9535 B(  9-C , 11-H ) :   0.9548
B(  9-C , 12-C ) :   1.0736 B( 12-C , 13-H ) :   0.9778 B( 12-C , 14-H ) :   0.9766
B( 12-C , 15-H ) :   0.9749 B( 16-S , 17-C ) :   1.1443 B( 16-S , 20-C ) :   1.1287
B( 17-C , 18-C ) :   1.6334 B( 17-C , 20-C ) :   0.1011 B( 17-C , 33-H ) :   0.9643
B( 18-C , 19-C ) :   1.2356 B( 18-C , 21-H ) :   0.9782 B( 19-C , 20-C ) :   1.5700
B( 19-C , 22-C ) :   1.0415 B( 22-C , 23-H ) :   0.9360 B( 22-C , 24-H ) :   0.9403
B( 22-C , 25-C ) :   1.0595 B( 25-C , 26-H ) :   0.9565 B( 25-C , 27-H ) :   0.9612
B( 25-C , 28-C ) :   1.0734 B( 28-C , 29-H ) :   0.9701 B( 28-C , 30-H ) :   0.9782
B( 28-C , 31-H ) :   0.9748

Dispersion correction           -0.014797952
FINAL SINGLE POINT ENERGY     -1339.873897339702

DIPOLE MOMENT
-------------
                                X             Y             Z
Electronic contribution:    -18.96636      18.00405       9.40241
Nuclear contribution   :     19.40033     -18.37541      -9.22090
                        -----------------------------------------
Total Dipole Moment    :      0.43397      -0.37136       0.18151
                        -----------------------------------------
Magnitude (a.u.)       :      0.59932
Magnitude (Debye)      :      1.52335

Rotational constants in cm-1:     0.020579     0.008600     0.007004
Rotational constants in MHz :   616.956668   257.807916   209.974707

                             ****ORCA TERMINATED NORMALLY****
TOTAL RUN TIME: 0 days 0 hours 0 minutes 34 seconds 992 msec
