                         Program Version 4.2.1 -  RELEASE  -
|  1> ! wB97X-D3 SP def2-SVP
|  2> %pal
|  3> nprocs 16
|  4> end
|  5>
|  6> * xyz 0 1
|  7> S 	 32.1519 	 3.53289 	 65.9154
|  8> C 	 32.328 	 5.01102 	 66.8651
|  9> C 	 31.2261 	 5.85223 	 66.7149
| 10> C 	 30.2547 	 5.19059 	 65.8486
| 11> C 	 30.5696 	 3.8964 	 65.3767
| 12> H 	 29.2647 	 5.64651 	 65.5897
| 13> C 	 31.2056 	 7.31164 	 67.1944
| 14> H 	 31.953 	 7.52078 	 67.9664
| 15> H 	 30.2763 	 7.42111 	 67.7428
| 16> C 	 31.1133 	 8.3344 	 66.0666
| 17> H 	 30.5327 	 7.97783 	 65.3122
| 18> H 	 30.6031 	 9.24145 	 66.4608
| 19> C 	 32.425 	 8.71972 	 65.4707
| 20> H 	 33.057 	 9.33655 	 66.1127
| 21> H 	 32.9459 	 7.78067 	 65.2705
| 22> H 	 32.4479 	 9.36687 	 64.6265
| 23> S 	 30.6227 	 2.06582 	 63.2948
| 24> C 	 29.0824 	 1.67849 	 62.6309
| 25> C 	 28.0159 	 2.0717 	 63.4338
| 26> C 	 28.4039 	 2.86936 	 64.5297
| 27> C 	 29.7949 	 3.01961 	 64.5801
| 28> H 	 26.9789 	 1.97328 	 63.1218
| 29> C 	 27.4081 	 3.53995 	 65.5325
| 30> H 	 27.8573 	 3.96104 	 66.4227
| 31> H 	 26.7611 	 2.70311 	 65.8754
| 32> C 	 26.5662 	 4.68843 	 64.9391
| 33> H 	 25.9695 	 4.36518 	 64.1014
| 34> H 	 27.2523 	 5.34429 	 64.5213
| 35> C 	 25.7682 	 5.48345 	 65.9369
| 36> H 	 24.9449 	 4.90242 	 66.4426
| 37> H 	 25.3443 	 6.26818 	 65.4204
| 38> H 	 26.4561 	 5.97924 	 66.5703
| 39> H 	 33.2788 	 5.19843 	 67.4042
| 40> H 	 28.8357 	 1.2296 	 61.6634
| 41> *
| 42>
| 43>                          ****END OF INPUT****

CARTESIAN COORDINATES (ANGSTROEM)
---------------------------------
  S     32.151900    3.532890   65.915400
  C     32.328000    5.011020   66.865100
  C     31.226100    5.852230   66.714900
  C     30.254700    5.190590   65.848600
  C     30.569600    3.896400   65.376700
  H     29.264700    5.646510   65.589700
  C     31.205600    7.311640   67.194400
  H     31.953000    7.520780   67.966400
  H     30.276300    7.421110   67.742800
  C     31.113300    8.334400   66.066600
  H     30.532700    7.977830   65.312200
  H     30.603100    9.241450   66.460800
  C     32.425000    8.719720   65.470700
  H     33.057000    9.336550   66.112700
  H     32.945900    7.780670   65.270500
  H     32.447900    9.366870   64.626500
  S     30.622700    2.065820   63.294800
  C     29.082400    1.678490   62.630900
  C     28.015900    2.071700   63.433800
  C     28.403900    2.869360   64.529700
  C     29.794900    3.019610   64.580100
  H     26.978900    1.973280   63.121800
  C     27.408100    3.539950   65.532500
  H     27.857300    3.961040   66.422700
  H     26.761100    2.703110   65.875400
  C     26.566200    4.688430   64.939100
  H     25.969500    4.365180   64.101400
  H     27.252300    5.344290   64.521300
  C     25.768200    5.483450   65.936900
  H     24.944900    4.902420   66.442600
  H     25.344300    6.268180   65.420400
  H     26.456100    5.979240   66.570300
  H     33.278800    5.198430   67.404200
  H     28.835700    1.229600   61.663400

 Total Charge           Charge          ....    0
 Multiplicity           Mult            ....    1
 Number of Electrons    NEL             ....  134
 Basis Dimension        Dim             ....  322

ORBITAL ENERGIES
----------------

  NO   OCC          E(Eh)            E(eV)
   0   2.0000     -88.972684     -2421.0698
   1   2.0000     -88.962402     -2420.7900
   2   2.0000     -10.329378      -281.0767
   3   2.0000     -10.329006      -281.0666
   4   2.0000     -10.321386      -280.8592
   5   2.0000     -10.318525      -280.7813
   6   2.0000     -10.309787      -280.5436
   7   2.0000     -10.308949      -280.5208
   8   2.0000     -10.301819      -280.3268
   9   2.0000     -10.296675      -280.1868
  10   2.0000     -10.296220      -280.1744
  11   2.0000     -10.295201      -280.1467
  12   2.0000     -10.279465      -279.7185
  13   2.0000     -10.279230      -279.7121
  14   2.0000     -10.274233      -279.5761
  15   2.0000     -10.267836      -279.4020
  16   2.0000      -8.086973      -220.0577
  17   2.0000      -8.077866      -219.8099
  18   2.0000      -6.045464      -164.5054
  19   2.0000      -6.041653      -164.4017
  20   2.0000      -6.037671      -164.2934
  21   2.0000      -6.036379      -164.2582
  22   2.0000      -6.032152      -164.1432
  23   2.0000      -6.028711      -164.0496
  24   2.0000      -1.007482       -27.4150
  25   2.0000      -0.982260       -26.7286
  26   2.0000      -0.918022       -24.9806
  27   2.0000      -0.913904       -24.8686
  28   2.0000      -0.873228       -23.7617
  29   2.0000      -0.860099       -23.4045
  30   2.0000      -0.841070       -22.8867
  31   2.0000      -0.808400       -21.9977
  32   2.0000      -0.790043       -21.4982
  33   2.0000      -0.777329       -21.1522
  34   2.0000      -0.712688       -19.3932
  35   2.0000      -0.701155       -19.0794
  36   2.0000      -0.694610       -18.9013
  37   2.0000      -0.661087       -17.9891
  38   2.0000      -0.639066       -17.3899
  39   2.0000      -0.618288       -16.8245
  40   2.0000      -0.599118       -16.3028
  41   2.0000      -0.573213       -15.5979
  42   2.0000      -0.573075       -15.5942
  43   2.0000      -0.554839       -15.0979
  44   2.0000      -0.534709       -14.5502
  45   2.0000      -0.525979       -14.3126
  46   2.0000      -0.520572       -14.1655
  47   2.0000      -0.512424       -13.9438
  48   2.0000      -0.506910       -13.7937
  49   2.0000      -0.499691       -13.5973
  50   2.0000      -0.493747       -13.4355
  51   2.0000      -0.479699       -13.0533
  52   2.0000      -0.475874       -12.9492
  53   2.0000      -0.465242       -12.6599
  54   2.0000      -0.459317       -12.4986
  55   2.0000      -0.454915       -12.3789
  56   2.0000      -0.444704       -12.1010
  57   2.0000      -0.437507       -11.9052
  58   2.0000      -0.433512       -11.7965
  59   2.0000      -0.428075       -11.6485
  60   2.0000      -0.426912       -11.6169
  61   2.0000      -0.417510       -11.3610
  62   2.0000      -0.408703       -11.1214
  63   2.0000      -0.355541        -9.6748
  64   2.0000      -0.338784        -9.2188
  65   2.0000      -0.326718        -8.8905
  66   2.0000      -0.280652        -7.6369
  67   0.0000       0.021067         0.5733
  68   0.0000       0.071118         1.9352
  69   0.0000       0.105904         2.8818
  70   0.0000       0.116518         3.1706
  71   0.0000       0.127572         3.4714

MULLIKEN ATOMIC CHARGES
-----------------------
   0 S :    0.091852
   1 C :   -0.149311
   2 C :   -0.080832
   3 C :   -0.013191
   4 C :   -0.135293
   5 H :    0.009157
   6 C :    0.075263
   7 H :    0.025416
   8 H :    0.021163
   9 C :   -0.024436
  10 H :    0.008277
  11 H :    0.024720
  12 C :   -0.037734
  13 H :    0.012696
  14 H :    0.033184
  15 H :    0.021947
  16 S :    0.123304
  17 C :   -0.087807
  18 C :   -0.041097
  19 C :   -0.034941
  20 C :   -0.143191
  21 H :    0.020248
  22 C :    0.059624
  23 H :    0.022773
  24 H :    0.035114
  25 C :   -0.074301
  26 H :    0.017361
  27 H :    0.007102
  28 C :    0.012033
  29 H :    0.046758
  30 H :    0.010071
  31 H :    0.013949
  32 H :    0.066865
  33 H :    0.063256
Sum of atomic charges:    0.0000000

LOEWDIN ATOMIC CHARGES
----------------------
   0 S :    0.408207
   1 C :   -0.200163
   2 C :   -0.062469
   3 C :   -0.079845
   4 C :   -0.205382
   5 H :    0.028713
   6 C :   -0.026475
   7 H :    0.032868
   8 H :    0.033497
   9 C :   -0.033308
  10 H :    0.013493
  11 H :    0.027383
  12 C :   -0.067152
  13 H :    0.022092
  14 H :    0.028825
  15 H :    0.021958
  16 S :    0.401900
  17 C :   -0.191658
  18 C :   -0.074501
  19 C :   -0.043511
  20 C :   -0.187124
  21 H :    0.032257
  22 C :   -0.026547
  23 H :    0.027012
  24 H :    0.034559
  25 C :   -0.038675
  26 H :    0.019228
  27 H :    0.013585
  28 C :   -0.054242
  29 H :    0.034121
  30 H :    0.019615
  31 H :    0.021256
  32 H :    0.033773
  33 H :    0.036712

  Mayer bond orders larger than 0.100000
B(  0-S ,  1-C ) :   1.1433 B(  0-S ,  4-C ) :   1.1545 B(  1-C ,  2-C ) :   1.5838
B(  1-C , 32-H ) :   0.9675 B(  2-C ,  3-C ) :   1.2539 B(  2-C ,  6-C ) :   1.0288
B(  3-C ,  4-C ) :   1.5384 B(  3-C ,  5-H ) :   0.9782 B(  4-C , 20-C ) :   1.1017
B(  6-C ,  7-H ) :   0.9492 B(  6-C ,  8-H ) :   0.9269 B(  6-C ,  9-C ) :   1.0690
B(  9-C , 10-H ) :   0.9528 B(  9-C , 11-H ) :   0.9525 B(  9-C , 12-C ) :   1.0817
B( 12-C , 13-H ) :   0.9726 B( 12-C , 14-H ) :   0.9746 B( 12-C , 15-H ) :   0.9719
B( 16-S , 17-C ) :   1.1613 B( 16-S , 20-C ) :   1.1164 B( 17-C , 18-C ) :   1.6055
B( 17-C , 20-C ) :   0.1024 B( 17-C , 33-H ) :   0.9621 B( 18-C , 19-C ) :   1.2569
B( 18-C , 21-H ) :   0.9846 B( 19-C , 20-C ) :   1.5840 B( 19-C , 22-C ) :   1.0324
B( 22-C , 23-H ) :   0.9389 B( 22-C , 24-H ) :   0.9331 B( 22-C , 25-C ) :   1.0580
B( 25-C , 26-H ) :   0.9496 B( 25-C , 27-H ) :   0.9474 B( 25-C , 28-C ) :   1.1031
B( 28-C , 29-H ) :   0.9735 B( 28-C , 30-H ) :   0.9659 B( 28-C , 31-H ) :   0.9668

Dispersion correction           -0.014417344
FINAL SINGLE POINT ENERGY     -1339.868824902374

DIPOLE MOMENT
-------------
                                X             Y             Z
Electronic contribution:     14.03449     -25.02121      -6.87101
Nuclear contribution   :    -14.61179      25.60899       6.84016
                        -----------------------------------------
Total Dipole Moment    :     -0.57730       0.58777      -0.03085
                        -----------------------------------------
Magnitude (a.u.)       :      0.82444
Magnitude (Debye)      :      2.09557

Rotational constants in cm-1:     0.016822     0.009554     0.006978
Rotational constants in MHz :   504.313285   286.433272   209.191256

                             ****ORCA TERMINATED NORMALLY****
TOTAL RUN TIME: 0 days 0 hours 0 minutes 30 seconds 790 msec
