                         Program Version 4.2.1 -  RELEASE  -
|  1> ! wB97X-D3 SP def2-SVP
|  2> %pal
|  3> nprocs 16
|  4> end
|  5>
|  6> * xyz 0 1
|  7> S 	 1.49326 	 16.7248 	 87.8551
|  8> C 	 -0.0326798 	 16.7427 	 87.0378
|  9> C 	 -1.11049 	 16.4918 	 87.8769
| 10> C 	 -0.640552 	 16.314 	 89.1603
| 11> C 	 0.718674 	 16.2374 	 89.2806
| 12> H 	 -1.37837 	 16.1877 	 89.9627
| 13> C 	 -2.53601 	 16.743 	 87.4831
| 14> H 	 -3.21117 	 16.4897 	 88.3379
| 15> H 	 -2.70025 	 16.15 	 86.5936
| 16> C 	 -2.89276 	 18.2799 	 87.2145
| 17> H 	 -2.85995 	 18.8615 	 88.1416
| 18> H 	 -2.04842 	 18.7034 	 86.5846
| 19> C 	 -4.18544 	 18.4496 	 86.4337
| 20> H 	 -4.51548 	 19.5103 	 86.3126
| 21> H 	 -4.15239 	 17.9991 	 85.448
| 22> H 	 -5.08303 	 18.0068 	 86.931
| 23> S 	 1.86843 	 17.0752 	 91.5483
| 24> C 	 2.40471 	 15.9045 	 92.7183
| 25> C 	 2.06114 	 14.6176 	 92.3211
| 26> C 	 1.51461 	 14.5579 	 91.0253
| 27> C 	 1.44296 	 15.8344 	 90.4526
| 28> H 	 2.26178 	 13.8474 	 93.0718
| 29> C 	 0.90282 	 13.3304 	 90.4417
| 30> H 	 0.288132 	 13.5755 	 89.5914
| 31> H 	 0.260779 	 12.8005 	 91.0759
| 32> C 	 1.90389 	 12.3624 	 89.747
| 33> H 	 2.60462 	 12.9495 	 89.2241
| 34> H 	 1.47725 	 11.7473 	 88.9398
| 35> C 	 2.70878 	 11.5005 	 90.6986
| 36> H 	 3.24071 	 10.8631 	 90.0183
| 37> H 	 2.09464 	 10.7844 	 91.2266
| 38> H 	 3.27116 	 12.0534 	 91.4162
| 39> H 	 -0.0931573 	 17.1553 	 86.0791
| 40> H 	 2.92566 	 16.0778 	 93.6299
| 41> *
| 42>
| 43>                          ****END OF INPUT****

CARTESIAN COORDINATES (ANGSTROEM)
---------------------------------
  S      1.493260   16.724800   87.855100
  C     -0.032680   16.742700   87.037800
  C     -1.110490   16.491800   87.876900
  C     -0.640552   16.314000   89.160300
  C      0.718674   16.237400   89.280600
  H     -1.378370   16.187700   89.962700
  C     -2.536010   16.743000   87.483100
  H     -3.211170   16.489700   88.337900
  H     -2.700250   16.150000   86.593600
  C     -2.892760   18.279900   87.214500
  H     -2.859950   18.861500   88.141600
  H     -2.048420   18.703400   86.584600
  C     -4.185440   18.449600   86.433700
  H     -4.515480   19.510300   86.312600
  H     -4.152390   17.999100   85.448000
  H     -5.083030   18.006800   86.931000
  S      1.868430   17.075200   91.548300
  C      2.404710   15.904500   92.718300
  C      2.061140   14.617600   92.321100
  C      1.514610   14.557900   91.025300
  C      1.442960   15.834400   90.452600
  H      2.261780   13.847400   93.071800
  C      0.902820   13.330400   90.441700
  H      0.288132   13.575500   89.591400
  H      0.260779   12.800500   91.075900
  C      1.903890   12.362400   89.747000
  H      2.604620   12.949500   89.224100
  H      1.477250   11.747300   88.939800
  C      2.708780   11.500500   90.698600
  H      3.240710   10.863100   90.018300
  H      2.094640   10.784400   91.226600
  H      3.271160   12.053400   91.416200
  H     -0.093157   17.155300   86.079100
  H      2.925660   16.077800   93.629900

 Total Charge           Charge          ....    0
 Multiplicity           Mult            ....    1
 Number of Electrons    NEL             ....  134
 Basis Dimension        Dim             ....  322

ORBITAL ENERGIES
----------------

  NO   OCC          E(Eh)            E(eV)
   0   2.0000     -88.966929     -2420.9132
   1   2.0000     -88.965736     -2420.8808
   2   2.0000     -10.317190      -280.7450
   3   2.0000     -10.316146      -280.7166
   4   2.0000     -10.311591      -280.5926
   5   2.0000     -10.305518      -280.4274
   6   2.0000     -10.300469      -280.2900
   7   2.0000     -10.298403      -280.2338
   8   2.0000     -10.296597      -280.1847
   9   2.0000     -10.292873      -280.0833
  10   2.0000     -10.291138      -280.0361
  11   2.0000     -10.286316      -279.9049
  12   2.0000     -10.283954      -279.8406
  13   2.0000     -10.277212      -279.6571
  14   2.0000     -10.275133      -279.6006
  15   2.0000     -10.264341      -279.3069
  16   2.0000      -8.083049      -219.9509
  17   2.0000      -8.081226      -219.9013
  18   2.0000      -6.041111      -164.3870
  19   2.0000      -6.039561      -164.3448
  20   2.0000      -6.037420      -164.2866
  21   2.0000      -6.035582      -164.2365
  22   2.0000      -6.034151      -164.1976
  23   2.0000      -6.032174      -164.1438
  24   2.0000      -1.018092       -27.7037
  25   2.0000      -0.992223       -26.9998
  26   2.0000      -0.909599       -24.7514
  27   2.0000      -0.908327       -24.7168
  28   2.0000      -0.869723       -23.6664
  29   2.0000      -0.855560       -23.2810
  30   2.0000      -0.850961       -23.1558
  31   2.0000      -0.813832       -22.1455
  32   2.0000      -0.785480       -21.3740
  33   2.0000      -0.770535       -20.9673
  34   2.0000      -0.705676       -19.2024
  35   2.0000      -0.701598       -19.0915
  36   2.0000      -0.691167       -18.8076
  37   2.0000      -0.658830       -17.9277
  38   2.0000      -0.644342       -17.5334
  39   2.0000      -0.625964       -17.0333
  40   2.0000      -0.599905       -16.3242
  41   2.0000      -0.571560       -15.5529
  42   2.0000      -0.558306       -15.1923
  43   2.0000      -0.550400       -14.9772
  44   2.0000      -0.540150       -14.6982
  45   2.0000      -0.521368       -14.1872
  46   2.0000      -0.519941       -14.1483
  47   2.0000      -0.511516       -13.9191
  48   2.0000      -0.503980       -13.7140
  49   2.0000      -0.501006       -13.6331
  50   2.0000      -0.486635       -13.2420
  51   2.0000      -0.482003       -13.1160
  52   2.0000      -0.474814       -12.9203
  53   2.0000      -0.464687       -12.6448
  54   2.0000      -0.459638       -12.5074
  55   2.0000      -0.452415       -12.3108
  56   2.0000      -0.440184       -11.9780
  57   2.0000      -0.438268       -11.9259
  58   2.0000      -0.434889       -11.8339
  59   2.0000      -0.434468       -11.8225
  60   2.0000      -0.419796       -11.4232
  61   2.0000      -0.411285       -11.1916
  62   2.0000      -0.405228       -11.0268
  63   2.0000      -0.338395        -9.2082
  64   2.0000      -0.332365        -9.0441
  65   2.0000      -0.313492        -8.5306
  66   2.0000      -0.307160        -8.3582
  67   0.0000       0.042618         1.1597
  68   0.0000       0.055328         1.5055
  69   0.0000       0.115001         3.1293
  70   0.0000       0.119878         3.2621
  71   0.0000       0.135771         3.6945

MULLIKEN ATOMIC CHARGES
-----------------------
   0 S :    0.138004
   1 C :   -0.120994
   2 C :   -0.072746
   3 C :    0.040734
   4 C :   -0.195186
   5 H :    0.010379
   6 C :    0.052660
   7 H :    0.032944
   8 H :    0.035580
   9 C :   -0.088530
  10 H :    0.037764
  11 H :    0.032386
  12 C :   -0.060246
  13 H :    0.040219
  14 H :    0.033046
  15 H :    0.029102
  16 S :    0.129823
  17 C :   -0.092731
  18 C :   -0.064545
  19 C :    0.015356
  20 C :   -0.170549
  21 H :    0.026275
  22 C :    0.107393
  23 H :    0.018685
  24 H :    0.013382
  25 C :   -0.085305
  26 H :    0.009847
  27 H :    0.025592
  28 C :   -0.010316
  29 H :    0.020540
  30 H :    0.009528
  31 H :    0.031967
  32 H :    0.027716
  33 H :    0.042227
Sum of atomic charges:    0.0000000

LOEWDIN ATOMIC CHARGES
----------------------
   0 S :    0.451741
   1 C :   -0.192128
   2 C :   -0.071385
   3 C :   -0.059301
   4 C :   -0.229838
   5 H :    0.033463
   6 C :   -0.029212
   7 H :    0.034516
   8 H :    0.032691
   9 C :   -0.041838
  10 H :    0.026320
  11 H :    0.026726
  12 C :   -0.077263
  13 H :    0.032021
  14 H :    0.024172
  15 H :    0.026769
  16 S :    0.438611
  17 C :   -0.190881
  18 C :   -0.073378
  19 C :   -0.049304
  20 C :   -0.219967
  21 H :    0.034909
  22 C :   -0.028510
  23 H :    0.033974
  24 H :    0.022005
  25 C :   -0.034262
  26 H :    0.018004
  27 H :    0.025176
  28 C :   -0.061765
  29 H :    0.026545
  30 H :    0.018453
  31 H :    0.019719
  32 H :    0.009642
  33 H :    0.023573

  Mayer bond orders larger than 0.100000
B(  0-S ,  1-C ) :   1.1804 B(  0-S ,  4-C ) :   1.1879 B(  1-C ,  2-C ) :   1.5401
B(  1-C ,  4-C ) :   0.1097 B(  1-C , 32-H ) :   0.9765 B(  2-C ,  3-C ) :   1.3220
B(  2-C ,  6-C ) :   1.0318 B(  3-C ,  4-C ) :   1.5206 B(  3-C ,  5-H ) :   0.9965
B(  4-C , 20-C ) :   0.9913 B(  6-C ,  7-H ) :   0.9428 B(  6-C ,  8-H ) :   0.9371
B(  6-C ,  9-C ) :   1.0475 B(  9-C , 10-H ) :   0.9578 B(  9-C , 11-H ) :   0.9594
B(  9-C , 12-C ) :   1.0775 B( 12-C , 13-H ) :   0.9725 B( 12-C , 14-H ) :   0.9748
B( 12-C , 15-H ) :   0.9728 B( 16-S , 17-C ) :   1.1664 B( 16-S , 20-C ) :   1.1853
B( 17-C , 18-C ) :   1.5962 B( 17-C , 20-C ) :   0.1103 B( 17-C , 33-H ) :   0.9707
B( 18-C , 19-C ) :   1.2467 B( 18-C , 21-H ) :   0.9901 B( 19-C , 20-C ) :   1.5646
B( 19-C , 22-C ) :   1.0568 B( 22-C , 23-H ) :   0.9161 B( 22-C , 24-H ) :   0.9452
B( 22-C , 25-C ) :   1.0656 B( 25-C , 26-H ) :   0.9489 B( 25-C , 27-H ) :   0.9594
B( 25-C , 28-C ) :   1.0877 B( 28-C , 29-H ) :   0.9711 B( 28-C , 30-H ) :   0.9735
B( 28-C , 31-H ) :   0.9735

Dispersion correction           -0.014360174
FINAL SINGLE POINT ENERGY     -1339.869755796344

DIPOLE MOMENT
-------------
                                X             Y             Z
Electronic contribution:     15.28930      10.84463       7.29062
Nuclear contribution   :    -15.79486     -10.96813      -7.31068
                        -----------------------------------------
Total Dipole Moment    :     -0.50556      -0.12350      -0.02006
                        -----------------------------------------
Magnitude (a.u.)       :      0.52082
Magnitude (Debye)      :      1.32381

Rotational constants in cm-1:     0.022947     0.007261     0.006472
Rotational constants in MHz :   687.928892   217.670321   194.020259

                             ****ORCA TERMINATED NORMALLY****
TOTAL RUN TIME: 0 days 0 hours 0 minutes 35 seconds 9 msec
