                         Program Version 4.2.1 -  RELEASE  -
|  1> ! wB97X-D3 SP def2-SVP
|  2> %pal
|  3> nprocs 16
|  4> end
|  5>
|  6> * xyz 0 1
|  7> S 	 -38.4245 	 44.472 	 96.6674
|  8> C 	 -39.2576 	 45.4758 	 97.8164
|  9> C 	 -39.6445 	 44.6934 	 98.9091
| 10> C 	 -38.9578 	 43.4316 	 98.9585
| 11> C 	 -38.248 	 43.0897 	 97.8205
| 12> H 	 -38.8902 	 42.772 	 99.8091
| 13> C 	 -40.3542 	 45.2734 	 100.066
| 14> H 	 -40.0277 	 46.3453 	 100.214
| 15> H 	 -40.007 	 44.7237 	 100.974
| 16> C 	 -41.8867 	 45.0072 	 100.133
| 17> H 	 -42.0621 	 43.8992 	 100.142
| 18> H 	 -42.2191 	 45.1976 	 101.16
| 19> C 	 -42.8859 	 45.7519 	 99.1543
| 20> H 	 -42.7777 	 46.8129 	 99.1308
| 21> H 	 -42.8101 	 45.3812 	 98.1483
| 22> H 	 -43.9643 	 45.6269 	 99.3112
| 23> S 	 -35.807 	 42.2634 	 97.0209
| 24> C 	 -35.4733 	 40.5571 	 96.789
| 25> C 	 -36.4877 	 39.8299 	 97.3853
| 26> C 	 -37.6097 	 40.5845 	 97.9229
| 27> C 	 -37.4529 	 41.8858 	 97.6427
| 28> H 	 -36.4234 	 38.7742 	 97.3324
| 29> C 	 -38.8612 	 39.9426 	 98.5034
| 30> H 	 -39.3178 	 40.55 	 99.295
| 31> H 	 -38.4862 	 39.0299 	 99.0511
| 32> C 	 -39.8366 	 39.2999 	 97.5681
| 33> H 	 -39.3352 	 38.6541 	 96.8958
| 34> H 	 -40.2003 	 40.1427 	 96.9538
| 35> C 	 -41.0679 	 38.6915 	 98.2145
| 36> H 	 -41.7975 	 38.5913 	 97.4155
| 37> H 	 -41.5757 	 39.3622 	 98.9348
| 38> H 	 -40.6063 	 37.8719 	 98.6546
| 39> H 	 -39.5924 	 46.4985 	 97.5255
| 40> H 	 -34.6391 	 40.0101 	 96.4811
| 41> *
| 42>
| 43>                          ****END OF INPUT****

CARTESIAN COORDINATES (ANGSTROEM)
---------------------------------
  S    -38.424500   44.472000   96.667400
  C    -39.257600   45.475800   97.816400
  C    -39.644500   44.693400   98.909100
  C    -38.957800   43.431600   98.958500
  C    -38.248000   43.089700   97.820500
  H    -38.890200   42.772000   99.809100
  C    -40.354200   45.273400  100.066000
  H    -40.027700   46.345300  100.214000
  H    -40.007000   44.723700  100.974000
  C    -41.886700   45.007200  100.133000
  H    -42.062100   43.899200  100.142000
  H    -42.219100   45.197600  101.160000
  C    -42.885900   45.751900   99.154300
  H    -42.777700   46.812900   99.130800
  H    -42.810100   45.381200   98.148300
  H    -43.964300   45.626900   99.311200
  S    -35.807000   42.263400   97.020900
  C    -35.473300   40.557100   96.789000
  C    -36.487700   39.829900   97.385300
  C    -37.609700   40.584500   97.922900
  C    -37.452900   41.885800   97.642700
  H    -36.423400   38.774200   97.332400
  C    -38.861200   39.942600   98.503400
  H    -39.317800   40.550000   99.295000
  H    -38.486200   39.029900   99.051100
  C    -39.836600   39.299900   97.568100
  H    -39.335200   38.654100   96.895800
  H    -40.200300   40.142700   96.953800
  C    -41.067900   38.691500   98.214500
  H    -41.797500   38.591300   97.415500
  H    -41.575700   39.362200   98.934800
  H    -40.606300   37.871900   98.654600
  H    -39.592400   46.498500   97.525500
  H    -34.639100   40.010100   96.481100

 Total Charge           Charge          ....    0
 Multiplicity           Mult            ....    1
 Number of Electrons    NEL             ....  134
 Basis Dimension        Dim             ....  322

ORBITAL ENERGIES
----------------

  NO   OCC          E(Eh)            E(eV)
   0   2.0000     -88.965294     -2420.8687
   1   2.0000     -88.962346     -2420.7885
   2   2.0000     -10.333500      -281.1888
   3   2.0000     -10.329027      -281.0671
   4   2.0000     -10.321001      -280.8487
   5   2.0000     -10.313773      -280.6520
   6   2.0000     -10.306539      -280.4552
   7   2.0000     -10.302525      -280.3460
   8   2.0000     -10.298792      -280.2444
   9   2.0000     -10.297517      -280.2097
  10   2.0000     -10.296483      -280.1815
  11   2.0000     -10.295960      -280.1673
  12   2.0000     -10.293201      -280.0922
  13   2.0000     -10.278753      -279.6991
  14   2.0000     -10.277023      -279.6520
  15   2.0000     -10.276022      -279.6248
  16   2.0000      -8.079196      -219.8461
  17   2.0000      -8.076438      -219.7711
  18   2.0000      -6.037821      -164.2975
  19   2.0000      -6.035213      -164.2265
  20   2.0000      -6.033680      -164.1848
  21   2.0000      -6.031090      -164.1143
  22   2.0000      -6.029995      -164.0845
  23   2.0000      -6.026863      -163.9993
  24   2.0000      -1.003950       -27.3189
  25   2.0000      -0.981854       -26.7176
  26   2.0000      -0.918115       -24.9832
  27   2.0000      -0.904417       -24.6104
  28   2.0000      -0.871633       -23.7183
  29   2.0000      -0.853459       -23.2238
  30   2.0000      -0.842546       -22.9268
  31   2.0000      -0.816179       -22.2094
  32   2.0000      -0.785086       -21.3633
  33   2.0000      -0.776363       -21.1259
  34   2.0000      -0.711468       -19.3600
  35   2.0000      -0.698717       -19.0131
  36   2.0000      -0.694678       -18.9032
  37   2.0000      -0.665342       -18.1049
  38   2.0000      -0.642366       -17.4797
  39   2.0000      -0.616728       -16.7820
  40   2.0000      -0.596134       -16.2216
  41   2.0000      -0.580736       -15.8026
  42   2.0000      -0.564826       -15.3697
  43   2.0000      -0.541380       -14.7317
  44   2.0000      -0.536524       -14.5996
  45   2.0000      -0.527136       -14.3441
  46   2.0000      -0.521483       -14.1903
  47   2.0000      -0.517629       -14.0854
  48   2.0000      -0.508189       -13.8285
  49   2.0000      -0.498331       -13.5603
  50   2.0000      -0.487216       -13.2578
  51   2.0000      -0.486399       -13.2356
  52   2.0000      -0.480706       -13.0807
  53   2.0000      -0.464166       -12.6306
  54   2.0000      -0.461231       -12.5507
  55   2.0000      -0.445089       -12.1115
  56   2.0000      -0.436477       -11.8771
  57   2.0000      -0.434317       -11.8184
  58   2.0000      -0.432693       -11.7742
  59   2.0000      -0.426984       -11.6188
  60   2.0000      -0.420957       -11.4548
  61   2.0000      -0.408015       -11.1026
  62   2.0000      -0.397969       -10.8293
  63   2.0000      -0.352445        -9.5905
  64   2.0000      -0.331940        -9.0325
  65   2.0000      -0.323471        -8.8021
  66   2.0000      -0.293755        -7.9935
  67   0.0000       0.022457         0.6111
  68   0.0000       0.072616         1.9760
  69   0.0000       0.102373         2.7857
  70   0.0000       0.115258         3.1363
  71   0.0000       0.126646         3.4462

MULLIKEN ATOMIC CHARGES
-----------------------
   0 S :    0.107847
   1 C :   -0.146473
   2 C :   -0.042590
   3 C :    0.013347
   4 C :   -0.124575
   5 H :    0.017433
   6 C :    0.015444
   7 H :    0.047520
   8 H :    0.025964
   9 C :   -0.072232
  10 H :    0.025813
  11 H :    0.022859
  12 C :   -0.041337
  13 H :    0.023677
  14 H :    0.028589
  15 H :    0.028067
  16 S :    0.092297
  17 C :   -0.039048
  18 C :   -0.063316
  19 C :    0.007039
  20 C :   -0.178927
  21 H :    0.003408
  22 C :    0.045122
  23 H :    0.018468
  24 H :    0.011277
  25 C :   -0.072187
  26 H :    0.018931
  27 H :    0.020223
  28 C :   -0.001792
  29 H :    0.041716
  30 H :    0.032462
  31 H :    0.023414
  32 H :    0.078285
  33 H :    0.033275
Sum of atomic charges:   -0.0000000

LOEWDIN ATOMIC CHARGES
----------------------
   0 S :    0.387870
   1 C :   -0.197519
   2 C :   -0.072885
   3 C :   -0.058074
   4 C :   -0.185610
   5 H :    0.028707
   6 C :   -0.040338
   7 H :    0.039068
   8 H :    0.038047
   9 C :   -0.044384
  10 H :    0.029351
  11 H :    0.022902
  12 C :   -0.075139
  13 H :    0.020078
  14 H :    0.023524
  15 H :    0.030865
  16 S :    0.379584
  17 C :   -0.177118
  18 C :   -0.063431
  19 C :   -0.055205
  20 C :   -0.167807
  21 H :    0.021086
  22 C :   -0.035609
  23 H :    0.027667
  24 H :    0.032926
  25 C :   -0.041276
  26 H :    0.018817
  27 H :    0.022346
  28 C :   -0.054132
  29 H :    0.033564
  30 H :    0.029968
  31 H :    0.017816
  32 H :    0.039950
  33 H :    0.024393

  Mayer bond orders larger than 0.100000
B(  0-S ,  1-C ) :   1.1501 B(  0-S ,  4-C ) :   1.1314 B(  1-C ,  2-C ) :   1.5711
B(  1-C , 32-H ) :   0.9657 B(  2-C ,  3-C ) :   1.2430 B(  2-C ,  6-C ) :   1.0344
B(  3-C ,  4-C ) :   1.5800 B(  3-C ,  5-H ) :   0.9860 B(  4-C , 20-C ) :   1.0590
B(  6-C ,  7-H ) :   0.9526 B(  6-C ,  8-H ) :   0.9394 B(  6-C ,  9-C ) :   1.0623
B(  9-C , 10-H ) :   0.9554 B(  9-C , 11-H ) :   0.9585 B(  9-C , 12-C ) :   1.0591
B( 12-C , 13-H ) :   0.9784 B( 12-C , 14-H ) :   0.9774 B( 12-C , 15-H ) :   0.9752
B( 16-S , 17-C ) :   1.1172 B( 16-S , 20-C ) :   1.1193 B( 17-C , 18-C ) :   1.6686
B( 17-C , 33-H ) :   0.9704 B( 18-C , 19-C ) :   1.1823 B( 18-C , 21-H ) :   0.9874
B( 19-C , 20-C ) :   1.6544 B( 19-C , 22-C ) :   1.0456 B( 22-C , 23-H ) :   0.9360
B( 22-C , 24-H ) :   0.9219 B( 22-C , 25-C ) :   1.0722 B( 25-C , 26-H ) :   0.9538
B( 25-C , 27-H ) :   0.9505 B( 25-C , 28-C ) :   1.0674 B( 28-C , 29-H ) :   0.9719
B( 28-C , 30-H ) :   0.9735 B( 28-C , 31-H ) :   0.9806

Dispersion correction           -0.013745141
FINAL SINGLE POINT ENERGY     -1339.850311644087

DIPOLE MOMENT
-------------
                                X             Y             Z
Electronic contribution:     25.91699       6.42428     -12.36473
Nuclear contribution   :    -26.38167      -6.73010      12.79463
                        -----------------------------------------
Total Dipole Moment    :     -0.46469      -0.30582       0.42990
                        -----------------------------------------
Magnitude (a.u.)       :      0.70304
Magnitude (Debye)      :      1.78699

Rotational constants in cm-1:     0.017916     0.008779     0.006471
Rotational constants in MHz :   537.118584   263.199427   194.008235

                             ****ORCA TERMINATED NORMALLY****
TOTAL RUN TIME: 0 days 0 hours 0 minutes 27 seconds 636 msec
