                         Program Version 4.2.1 -  RELEASE  -
|  1> ! wB97X-D3 SP def2-SVP
|  2> %pal
|  3> nprocs 16
|  4> end
|  5>
|  6> * xyz 0 1
|  7> S 	 -3.62379 	 -19.4069 	 57.2426
|  8> C 	 -2.15464 	 -18.5788 	 56.7373
|  9> C 	 -2.3751 	 -17.9116 	 55.5149
| 10> C 	 -3.78714 	 -17.8025 	 55.297
| 11> C 	 -4.61204 	 -18.4389 	 56.2195
| 12> H 	 -4.17739 	 -17.1703 	 54.5307
| 13> C 	 -1.24448 	 -17.3331 	 54.6563
| 14> H 	 -0.475957 	 -17.0462 	 55.3996
| 15> H 	 -1.65874 	 -16.4513 	 54.2675
| 16> C 	 -0.632492 	 -18.2918 	 53.5775
| 17> H 	 0.185991 	 -17.7876 	 53.1469
| 18> H 	 -0.13017 	 -19.1569 	 54.0387
| 19> C 	 -1.72057 	 -18.6403 	 52.5286
| 20> H 	 -1.35695 	 -19.1859 	 51.552
| 21> H 	 -2.50887 	 -19.2421 	 52.8897
| 22> H 	 -2.17294 	 -17.7045 	 52.1612
| 23> S 	 -6.65203 	 -20.1434 	 55.7088
| 24> C 	 -8.31984 	 -19.6201 	 56.0735
| 25> C 	 -8.33138 	 -18.3486 	 56.4581
| 26> C 	 -7.02847 	 -17.8375 	 56.7461
| 27> C 	 -6.06207 	 -18.6047 	 56.1566
| 28> H 	 -9.25311 	 -17.7927 	 56.7481
| 29> C 	 -6.8312 	 -16.5304 	 57.51
| 30> H 	 -6.16794 	 -16.4729 	 58.3535
| 31> H 	 -7.90139 	 -16.4533 	 57.9328
| 32> C 	 -6.4075 	 -15.2614 	 56.6307
| 33> H 	 -7.3258 	 -14.8761 	 56.1138
| 34> H 	 -5.85316 	 -15.7293 	 55.8025
| 35> C 	 -5.51436 	 -14.2733 	 57.3335
| 36> H 	 -5.29651 	 -13.4346 	 56.6348
| 37> H 	 -4.55528 	 -14.7748 	 57.5887
| 38> H 	 -6.0578 	 -13.8522 	 58.1586
| 39> H 	 -1.13171 	 -18.8342 	 57.122
| 40> H 	 -9.12585 	 -20.3315 	 56.0705
| 41> *
| 42>
| 43>                          ****END OF INPUT****

CARTESIAN COORDINATES (ANGSTROEM)
---------------------------------
  S     -3.623790  -19.406900   57.242600
  C     -2.154640  -18.578800   56.737300
  C     -2.375100  -17.911600   55.514900
  C     -3.787140  -17.802500   55.297000
  C     -4.612040  -18.438900   56.219500
  H     -4.177390  -17.170300   54.530700
  C     -1.244480  -17.333100   54.656300
  H     -0.475957  -17.046200   55.399600
  H     -1.658740  -16.451300   54.267500
  C     -0.632492  -18.291800   53.577500
  H      0.185991  -17.787600   53.146900
  H     -0.130170  -19.156900   54.038700
  C     -1.720570  -18.640300   52.528600
  H     -1.356950  -19.185900   51.552000
  H     -2.508870  -19.242100   52.889700
  H     -2.172940  -17.704500   52.161200
  S     -6.652030  -20.143400   55.708800
  C     -8.319840  -19.620100   56.073500
  C     -8.331380  -18.348600   56.458100
  C     -7.028470  -17.837500   56.746100
  C     -6.062070  -18.604700   56.156600
  H     -9.253110  -17.792700   56.748100
  C     -6.831200  -16.530400   57.510000
  H     -6.167940  -16.472900   58.353500
  H     -7.901390  -16.453300   57.932800
  C     -6.407500  -15.261400   56.630700
  H     -7.325800  -14.876100   56.113800
  H     -5.853160  -15.729300   55.802500
  C     -5.514360  -14.273300   57.333500
  H     -5.296510  -13.434600   56.634800
  H     -4.555280  -14.774800   57.588700
  H     -6.057800  -13.852200   58.158600
  H     -1.131710  -18.834200   57.122000
  H     -9.125850  -20.331500   56.070500

 Total Charge           Charge          ....    0
 Multiplicity           Mult            ....    1
 Number of Electrons    NEL             ....  134
 Basis Dimension        Dim             ....  322

ORBITAL ENERGIES
----------------

  NO   OCC          E(Eh)            E(eV)
   0   2.0000     -88.964395     -2420.8442
   1   2.0000     -88.961416     -2420.7632
   2   2.0000     -10.326038      -280.9858
   3   2.0000     -10.318918      -280.7920
   4   2.0000     -10.318031      -280.7679
   5   2.0000     -10.315159      -280.6897
   6   2.0000     -10.303966      -280.3852
   7   2.0000     -10.300187      -280.2823
   8   2.0000     -10.295794      -280.1628
   9   2.0000     -10.295763      -280.1619
  10   2.0000     -10.293635      -280.1040
  11   2.0000     -10.293287      -280.0946
  12   2.0000     -10.292117      -280.0627
  13   2.0000     -10.286466      -279.9090
  14   2.0000     -10.284467      -279.8546
  15   2.0000     -10.279322      -279.7146
  16   2.0000      -8.079395      -219.8515
  17   2.0000      -8.076950      -219.7850
  18   2.0000      -6.037814      -164.2973
  19   2.0000      -6.035477      -164.2337
  20   2.0000      -6.033896      -164.1907
  21   2.0000      -6.031434      -164.1237
  22   2.0000      -6.030190      -164.0898
  23   2.0000      -6.027549      -164.0179
  24   2.0000      -1.012621       -27.5548
  25   2.0000      -0.986940       -26.8560
  26   2.0000      -0.909034       -24.7361
  27   2.0000      -0.899412       -24.4742
  28   2.0000      -0.870658       -23.6918
  29   2.0000      -0.849358       -23.1122
  30   2.0000      -0.842102       -22.9148
  31   2.0000      -0.815502       -22.1909
  32   2.0000      -0.779781       -21.2189
  33   2.0000      -0.767193       -20.8764
  34   2.0000      -0.711664       -19.3654
  35   2.0000      -0.700684       -19.0666
  36   2.0000      -0.686464       -18.6796
  37   2.0000      -0.662998       -18.0411
  38   2.0000      -0.637118       -17.3369
  39   2.0000      -0.615074       -16.7370
  40   2.0000      -0.601424       -16.3656
  41   2.0000      -0.569337       -15.4924
  42   2.0000      -0.555546       -15.1172
  43   2.0000      -0.543359       -14.7856
  44   2.0000      -0.541074       -14.7234
  45   2.0000      -0.521669       -14.1953
  46   2.0000      -0.513271       -13.9668
  47   2.0000      -0.509544       -13.8654
  48   2.0000      -0.505493       -13.7552
  49   2.0000      -0.490781       -13.3548
  50   2.0000      -0.489099       -13.3091
  51   2.0000      -0.478938       -13.0326
  52   2.0000      -0.473474       -12.8839
  53   2.0000      -0.464638       -12.6434
  54   2.0000      -0.455036       -12.3822
  55   2.0000      -0.446456       -12.1487
  56   2.0000      -0.441008       -12.0004
  57   2.0000      -0.438860       -11.9420
  58   2.0000      -0.433089       -11.7850
  59   2.0000      -0.430449       -11.7131
  60   2.0000      -0.420058       -11.4304
  61   2.0000      -0.416751       -11.3404
  62   2.0000      -0.403363       -10.9761
  63   2.0000      -0.339989        -9.2516
  64   2.0000      -0.326410        -8.8821
  65   2.0000      -0.322543        -8.7769
  66   2.0000      -0.303334        -8.2541
  67   0.0000       0.038950         1.0599
  68   0.0000       0.054418         1.4808
  69   0.0000       0.110180         2.9982
  70   0.0000       0.122184         3.3248
  71   0.0000       0.128700         3.5021

MULLIKEN ATOMIC CHARGES
-----------------------
   0 S :    0.118447
   1 C :   -0.137469
   2 C :   -0.123114
   3 C :    0.039572
   4 C :   -0.155431
   5 H :    0.004652
   6 C :    0.058902
   7 H :    0.031088
   8 H :    0.014695
   9 C :   -0.005491
  10 H :    0.021467
  11 H :    0.029932
  12 C :   -0.091317
  13 H :    0.046021
  14 H :    0.046599
  15 H :    0.026920
  16 S :    0.094486
  17 C :   -0.092883
  18 C :   -0.002331
  19 C :   -0.068099
  20 C :   -0.154962
  21 H :    0.033725
  22 C :    0.048135
  23 H :    0.028635
  24 H :    0.023743
  25 C :   -0.089985
  26 H :    0.030586
  27 H :    0.019772
  28 C :   -0.045957
  29 H :    0.038168
  30 H :    0.053998
  31 H :    0.036699
  32 H :    0.064229
  33 H :    0.056571
Sum of atomic charges:   -0.0000000

LOEWDIN ATOMIC CHARGES
----------------------
   0 S :    0.417777
   1 C :   -0.205419
   2 C :   -0.063612
   3 C :   -0.062716
   4 C :   -0.209540
   5 H :    0.022773
   6 C :   -0.025202
   7 H :    0.036987
   8 H :    0.020994
   9 C :   -0.031576
  10 H :    0.019594
  11 H :    0.027577
  12 C :   -0.072334
  13 H :    0.037123
  14 H :    0.020840
  15 H :    0.025072
  16 S :    0.400571
  17 C :   -0.164364
  18 C :   -0.073489
  19 C :   -0.057334
  20 C :   -0.215844
  21 H :    0.039702
  22 C :   -0.035032
  23 H :    0.027584
  24 H :    0.035898
  25 C :   -0.048655
  26 H :    0.025656
  27 H :    0.021034
  28 C :   -0.068404
  29 H :    0.033602
  30 H :    0.035840
  31 H :    0.023013
  32 H :    0.034491
  33 H :    0.027392

  Mayer bond orders larger than 0.100000
B(  0-S ,  1-C ) :   1.1573 B(  0-S ,  4-C ) :   1.1677 B(  1-C ,  2-C ) :   1.5815
B(  1-C ,  4-C ) :   0.1061 B(  1-C , 32-H ) :   0.9608 B(  2-C ,  3-C ) :   1.2700
B(  2-C ,  6-C ) :   1.0079 B(  3-C ,  4-C ) :   1.5481 B(  3-C ,  5-H ) :   0.9942
B(  4-C , 20-C ) :   1.0205 B(  6-C ,  7-H ) :   0.9404 B(  6-C ,  8-H ) :   0.9459
B(  6-C ,  9-C ) :   1.0673 B(  9-C , 10-H ) :   0.9561 B(  9-C , 11-H ) :   0.9561
B(  9-C , 12-C ) :   1.0593 B( 12-C , 13-H ) :   0.9747 B( 12-C , 14-H ) :   0.9786
B( 12-C , 15-H ) :   0.9755 B( 16-S , 17-C ) :   1.1372 B( 16-S , 20-C ) :   1.1476
B( 17-C , 18-C ) :   1.6376 B( 17-C , 33-H ) :   0.9715 B( 18-C , 19-C ) :   1.2383
B( 18-C , 21-H ) :   0.9725 B( 19-C , 20-C ) :   1.6166 B( 19-C , 22-C ) :   1.0428
B( 22-C , 23-H ) :   0.9452 B( 22-C , 24-H ) :   0.9315 B( 22-C , 25-C ) :   1.0321
B( 25-C , 26-H ) :   0.9524 B( 25-C , 27-H ) :   0.9635 B( 25-C , 28-C ) :   1.0849
B( 28-C , 29-H ) :   0.9694 B( 28-C , 30-H ) :   0.9702 B( 28-C , 31-H ) :   0.9752

Dispersion correction           -0.014864801
FINAL SINGLE POINT ENERGY     -1339.857801464907

DIPOLE MOMENT
-------------
                                X             Y             Z
Electronic contribution:     -9.54173     -19.10805       8.12990
Nuclear contribution   :      9.67168      19.50784      -8.26969
                        -----------------------------------------
Total Dipole Moment    :      0.12995       0.39979      -0.13979
                        -----------------------------------------
Magnitude (a.u.)       :      0.44301
Magnitude (Debye)      :      1.12605

Rotational constants in cm-1:     0.018399     0.009095     0.007507
Rotational constants in MHz :   551.584285   272.651982   225.050330

                             ****ORCA TERMINATED NORMALLY****
TOTAL RUN TIME: 0 days 0 hours 0 minutes 30 seconds 493 msec
