                         Program Version 4.2.1 -  RELEASE  -
|  1> ! wB97X-D3 SP def2-SVP
|  2> %pal
|  3> nprocs 16
|  4> end
|  5>
|  6> * xyz 0 1
|  7> S 	 0.808631 	 -14.7649 	 79.9198
|  8> C 	 0.838712 	 -16.3172 	 79.0994
|  9> C 	 -0.409818 	 -16.5241 	 78.5464
| 10> C 	 -1.3935 	 -15.6102 	 79.0618
| 11> C 	 -0.913672 	 -14.6979 	 79.9253
| 12> H 	 -2.4769 	 -15.5378 	 78.8027
| 13> C 	 -0.83505 	 -17.6093 	 77.5959
| 14> H 	 -1.94284 	 -17.658 	 77.6146
| 15> H 	 -0.605222 	 -18.6456 	 77.903
| 16> C 	 -0.219827 	 -17.4355 	 76.1658
| 17> H 	 0.871494 	 -17.5705 	 76.2908
| 18> H 	 -0.636573 	 -18.1995 	 75.5042
| 19> C 	 -0.686921 	 -16.1421 	 75.6149
| 20> H 	 -0.46545 	 -16.2329 	 74.5126
| 21> H 	 -1.78923 	 -16.0297 	 75.6172
| 22> H 	 -0.242087 	 -15.3574 	 76.1496
| 23> S 	 -0.687294 	 -12.1635 	 80.9483
| 24> C 	 -2.13513 	 -11.2012 	 81.2558
| 25> C 	 -3.24093 	 -11.9616 	 81.159
| 26> C 	 -3.01077 	 -13.3491 	 80.8511
| 27> C 	 -1.62536 	 -13.5499 	 80.4694
| 28> H 	 -4.18272 	 -11.4666 	 81.1728
| 29> C 	 -4.16196 	 -14.3538 	 80.7021
| 30> H 	 -4.74535 	 -14.3449 	 81.574
| 31> H 	 -3.76738 	 -15.3285 	 80.6693
| 32> C 	 -5.19426 	 -14.0014 	 79.6515
| 33> H 	 -4.61564 	 -13.8931 	 78.7736
| 34> H 	 -5.63708 	 -13.0395 	 79.8742
| 35> C 	 -6.32714 	 -15.1742 	 79.5084
| 36> H 	 -7.05296 	 -14.8968 	 78.7441
| 37> H 	 -6.90524 	 -15.2251 	 80.4101
| 38> H 	 -6.0843 	 -16.1881 	 79.218
| 39> H 	 1.75759 	 -16.8034 	 78.7348
| 40> H 	 -2.08819 	 -10.1454 	 81.23
| 41> *
| 42>
| 43>                          ****END OF INPUT****

CARTESIAN COORDINATES (ANGSTROEM)
---------------------------------
  S      0.808631  -14.764900   79.919800
  C      0.838712  -16.317200   79.099400
  C     -0.409818  -16.524100   78.546400
  C     -1.393500  -15.610200   79.061800
  C     -0.913672  -14.697900   79.925300
  H     -2.476900  -15.537800   78.802700
  C     -0.835050  -17.609300   77.595900
  H     -1.942840  -17.658000   77.614600
  H     -0.605222  -18.645600   77.903000
  C     -0.219827  -17.435500   76.165800
  H      0.871494  -17.570500   76.290800
  H     -0.636573  -18.199500   75.504200
  C     -0.686921  -16.142100   75.614900
  H     -0.465450  -16.232900   74.512600
  H     -1.789230  -16.029700   75.617200
  H     -0.242087  -15.357400   76.149600
  S     -0.687294  -12.163500   80.948300
  C     -2.135130  -11.201200   81.255800
  C     -3.240930  -11.961600   81.159000
  C     -3.010770  -13.349100   80.851100
  C     -1.625360  -13.549900   80.469400
  H     -4.182720  -11.466600   81.172800
  C     -4.161960  -14.353800   80.702100
  H     -4.745350  -14.344900   81.574000
  H     -3.767380  -15.328500   80.669300
  C     -5.194260  -14.001400   79.651500
  H     -4.615640  -13.893100   78.773600
  H     -5.637080  -13.039500   79.874200
  C     -6.327140  -15.174200   79.508400
  H     -7.052960  -14.896800   78.744100
  H     -6.905240  -15.225100   80.410100
  H     -6.084300  -16.188100   79.218000
  H      1.757590  -16.803400   78.734800
  H     -2.088190  -10.145400   81.230000

 Total Charge           Charge          ....    0
 Multiplicity           Mult            ....    1
 Number of Electrons    NEL             ....  134
 Basis Dimension        Dim             ....  322

ORBITAL ENERGIES
----------------

  NO   OCC          E(Eh)            E(eV)
   0   2.0000     -88.963663     -2420.8243
   1   2.0000     -88.963476     -2420.8193
   2   2.0000     -10.336511      -281.2708
   3   2.0000     -10.326609      -281.0013
   4   2.0000     -10.317898      -280.7643
   5   2.0000     -10.313079      -280.6332
   6   2.0000     -10.312928      -280.6290
   7   2.0000     -10.304345      -280.3955
   8   2.0000     -10.293791      -280.1083
   9   2.0000     -10.293192      -280.0920
  10   2.0000     -10.293042      -280.0879
  11   2.0000     -10.291832      -280.0550
  12   2.0000     -10.286811      -279.9184
  13   2.0000     -10.285898      -279.8935
  14   2.0000     -10.284257      -279.8488
  15   2.0000     -10.272044      -279.5165
  16   2.0000      -8.079148      -219.8448
  17   2.0000      -8.078587      -219.8295
  18   2.0000      -6.037801      -164.2969
  19   2.0000      -6.037156      -164.2794
  20   2.0000      -6.033737      -164.1863
  21   2.0000      -6.033098      -164.1689
  22   2.0000      -6.029503      -164.0711
  23   2.0000      -6.029217      -164.0633
  24   2.0000      -1.013270       -27.5725
  25   2.0000      -0.986698       -26.8494
  26   2.0000      -0.917043       -24.9540
  27   2.0000      -0.910586       -24.7783
  28   2.0000      -0.875439       -23.8219
  29   2.0000      -0.849748       -23.1228
  30   2.0000      -0.840383       -22.8680
  31   2.0000      -0.819331       -22.2951
  32   2.0000      -0.783809       -21.3285
  33   2.0000      -0.774060       -21.0632
  34   2.0000      -0.715440       -19.4681
  35   2.0000      -0.704847       -19.1799
  36   2.0000      -0.695215       -18.9178
  37   2.0000      -0.661972       -18.0132
  38   2.0000      -0.636721       -17.3260
  39   2.0000      -0.615601       -16.7514
  40   2.0000      -0.601574       -16.3697
  41   2.0000      -0.583476       -15.8772
  42   2.0000      -0.571624       -15.5547
  43   2.0000      -0.552050       -15.0221
  44   2.0000      -0.540055       -14.6956
  45   2.0000      -0.524080       -14.2609
  46   2.0000      -0.513554       -13.9745
  47   2.0000      -0.509849       -13.8737
  48   2.0000      -0.506214       -13.7748
  49   2.0000      -0.499878       -13.6024
  50   2.0000      -0.491962       -13.3870
  51   2.0000      -0.488352       -13.2887
  52   2.0000      -0.478107       -13.0100
  53   2.0000      -0.469737       -12.7822
  54   2.0000      -0.463534       -12.6134
  55   2.0000      -0.452188       -12.3047
  56   2.0000      -0.444085       -12.0842
  57   2.0000      -0.437892       -11.9156
  58   2.0000      -0.430143       -11.7048
  59   2.0000      -0.426114       -11.5952
  60   2.0000      -0.422058       -11.4848
  61   2.0000      -0.412954       -11.2371
  62   2.0000      -0.406172       -11.0525
  63   2.0000      -0.364694        -9.9238
  64   2.0000      -0.335061        -9.1175
  65   2.0000      -0.322535        -8.7766
  66   2.0000      -0.284165        -7.7325
  67   0.0000       0.015436         0.4200
  68   0.0000       0.079287         2.1575
  69   0.0000       0.093462         2.5432
  70   0.0000       0.113048         3.0762
  71   0.0000       0.129762         3.5310

MULLIKEN ATOMIC CHARGES
-----------------------
   0 S :    0.079175
   1 C :   -0.102967
   2 C :   -0.090652
   3 C :   -0.042258
   4 C :   -0.068610
   5 H :    0.028104
   6 C :    0.023866
   7 H :    0.019844
   8 H :    0.033195
   9 C :   -0.077894
  10 H :    0.039525
  11 H :    0.027354
  12 C :   -0.040183
  13 H :    0.034987
  14 H :    0.027191
  15 H :    0.046038
  16 S :    0.077025
  17 C :   -0.071903
  18 C :   -0.026370
  19 C :   -0.054124
  20 C :   -0.144573
  21 H :    0.016418
  22 C :    0.101647
  23 H :    0.004201
  24 H :    0.014210
  25 C :   -0.059118
  26 H :    0.021472
  27 H :    0.031541
  28 C :   -0.056474
  29 H :    0.030341
  30 H :    0.027960
  31 H :    0.035273
  32 H :    0.063524
  33 H :    0.052234
Sum of atomic charges:   -0.0000000

LOEWDIN ATOMIC CHARGES
----------------------
   0 S :    0.402907
   1 C :   -0.197468
   2 C :   -0.062128
   3 C :   -0.076129
   4 C :   -0.194746
   5 H :    0.038911
   6 C :   -0.041022
   7 H :    0.028268
   8 H :    0.031447
   9 C :   -0.039588
  10 H :    0.026256
  11 H :    0.024129
  12 C :   -0.065321
  13 H :    0.032873
  14 H :    0.027907
  15 H :    0.020115
  16 S :    0.391556
  17 C :   -0.172271
  18 C :   -0.066006
  19 C :   -0.050833
  20 C :   -0.187286
  21 H :    0.029195
  22 C :   -0.033274
  23 H :    0.026100
  24 H :    0.022885
  25 C :   -0.023350
  26 H :    0.014697
  27 H :    0.024738
  28 C :   -0.068149
  29 H :    0.028038
  30 H :    0.022446
  31 H :    0.025594
  32 H :    0.035723
  33 H :    0.023787

  Mayer bond orders larger than 0.100000
B(  0-S ,  1-C ) :   1.1260 B(  0-S ,  4-C ) :   1.1431 B(  1-C ,  2-C ) :   1.6079
B(  1-C , 32-H ) :   0.9668 B(  2-C ,  3-C ) :   1.2319 B(  2-C ,  6-C ) :   1.0159
B(  3-C ,  4-C ) :   1.5782 B(  3-C ,  5-H ) :   0.9875 B(  4-C , 20-C ) :   1.0833
B(  6-C ,  7-H ) :   0.9490 B(  6-C ,  8-H ) :   0.9456 B(  6-C ,  9-C ) :   1.0650
B(  9-C , 10-H ) :   0.9572 B(  9-C , 11-H ) :   0.9566 B(  9-C , 12-C ) :   1.0765
B( 12-C , 13-H ) :   0.9730 B( 12-C , 14-H ) :   0.9723 B( 12-C , 15-H ) :   0.9731
B( 16-S , 17-C ) :   1.1317 B( 16-S , 20-C ) :   1.1520 B( 17-C , 18-C ) :   1.6428
B( 17-C , 33-H ) :   0.9700 B( 18-C , 19-C ) :   1.2181 B( 18-C , 21-H ) :   0.9902
B( 19-C , 20-C ) :   1.5450 B( 19-C , 22-C ) :   1.0622 B( 22-C , 23-H ) :   0.9201
B( 22-C , 24-H ) :   0.9362 B( 22-C , 25-C ) :   1.0531 B( 25-C , 26-H ) :   0.9631
B( 25-C , 27-H ) :   0.9530 B( 25-C , 28-C ) :   1.0613 B( 28-C , 29-H ) :   0.9772
B( 28-C , 30-H ) :   0.9776 B( 28-C , 31-H ) :   0.9811

Dispersion correction           -0.014382455
FINAL SINGLE POINT ENERGY     -1339.852267503193

DIPOLE MOMENT
-------------
                                X             Y             Z
Electronic contribution:     19.97544      13.88942      16.67211
Nuclear contribution   :    -20.65248     -14.09234     -17.18581
                        -----------------------------------------
Total Dipole Moment    :     -0.67704      -0.20291      -0.51370
                        -----------------------------------------
Magnitude (a.u.)       :      0.87375
Magnitude (Debye)      :      2.22090

Rotational constants in cm-1:     0.016805     0.009728     0.006828
Rotational constants in MHz :   503.798675   291.641436   204.709002

                             ****ORCA TERMINATED NORMALLY****
TOTAL RUN TIME: 0 days 0 hours 0 minutes 33 seconds 680 msec
