                         Program Version 4.2.1 -  RELEASE  -
|  1> ! wB97X-D3 SP def2-SVP
|  2> %pal
|  3> nprocs 16
|  4> end
|  5>
|  6> * xyz 0 1
|  7> S 	 -36.065 	 -0.4728 	 102.871
|  8> C 	 -36.24 	 -2.22532 	 103.213
|  9> C 	 -35.7557 	 -3.03876 	 102.212
| 10> C 	 -35.1487 	 -2.19234 	 101.195
| 11> C 	 -35.1683 	 -0.800847 	 101.418
| 12> H 	 -34.7039 	 -2.53247 	 100.301
| 13> C 	 -35.8529 	 -4.54273 	 102.024
| 14> H 	 -35.874 	 -4.88515 	 103.031
| 15> H 	 -34.9893 	 -5.02178 	 101.618
| 16> C 	 -37.0629 	 -4.97919 	 101.193
| 17> H 	 -37.1167 	 -4.34082 	 100.304
| 18> H 	 -37.0593 	 -6.00674 	 100.914
| 19> C 	 -38.4191 	 -4.83034 	 101.902
| 20> H 	 -38.6298 	 -3.77024 	 102.04
| 21> H 	 -39.2046 	 -5.29073 	 101.289
| 22> H 	 -38.3155 	 -5.36864 	 102.812
| 23> S 	 -33.2059 	 1.06802 	 101.038
| 24> C 	 -32.8286 	 1.58885 	 99.449
| 25> C 	 -33.8605 	 1.2483 	 98.6362
| 26> C 	 -34.8435 	 0.321514 	 99.1653
| 27> C 	 -34.6168 	 0.192644 	 100.556
| 28> H 	 -33.8999 	 1.56961 	 97.6255
| 29> C 	 -35.9987 	 -0.33131 	 98.3614
| 30> H 	 -36.4047 	 0.400757 	 97.6387
| 31> H 	 -36.8228 	 -0.565127 	 99.0721
| 32> C 	 -35.6045 	 -1.571 	 97.5761
| 33> H 	 -36.471 	 -2.19904 	 97.3405
| 34> H 	 -35.1304 	 -2.23578 	 98.3061
| 35> C 	 -34.7328 	 -1.51019 	 96.2697
| 36> H 	 -33.7366 	 -1.04926 	 96.4293
| 37> H 	 -35.3369 	 -1.11369 	 95.4901
| 38> H 	 -34.4991 	 -2.55544 	 95.8488
| 39> H 	 -36.5581 	 -2.67358 	 104.114
| 40> H 	 -31.9578 	 2.25462 	 99.1343
| 41> *
| 42>
| 43>                          ****END OF INPUT****

CARTESIAN COORDINATES (ANGSTROEM)
---------------------------------
  S    -36.065000   -0.472800  102.871000
  C    -36.240000   -2.225320  103.213000
  C    -35.755700   -3.038760  102.212000
  C    -35.148700   -2.192340  101.195000
  C    -35.168300   -0.800847  101.418000
  H    -34.703900   -2.532470  100.301000
  C    -35.852900   -4.542730  102.024000
  H    -35.874000   -4.885150  103.031000
  H    -34.989300   -5.021780  101.618000
  C    -37.062900   -4.979190  101.193000
  H    -37.116700   -4.340820  100.304000
  H    -37.059300   -6.006740  100.914000
  C    -38.419100   -4.830340  101.902000
  H    -38.629800   -3.770240  102.040000
  H    -39.204600   -5.290730  101.289000
  H    -38.315500   -5.368640  102.812000
  S    -33.205900    1.068020  101.038000
  C    -32.828600    1.588850   99.449000
  C    -33.860500    1.248300   98.636200
  C    -34.843500    0.321514   99.165300
  C    -34.616800    0.192644  100.556000
  H    -33.899900    1.569610   97.625500
  C    -35.998700   -0.331310   98.361400
  H    -36.404700    0.400757   97.638700
  H    -36.822800   -0.565127   99.072100
  C    -35.604500   -1.571000   97.576100
  H    -36.471000   -2.199040   97.340500
  H    -35.130400   -2.235780   98.306100
  C    -34.732800   -1.510190   96.269700
  H    -33.736600   -1.049260   96.429300
  H    -35.336900   -1.113690   95.490100
  H    -34.499100   -2.555440   95.848800
  H    -36.558100   -2.673580  104.114000
  H    -31.957800    2.254620   99.134300

 Total Charge           Charge          ....    0
 Multiplicity           Mult            ....    1
 Number of Electrons    NEL             ....  134
 Basis Dimension        Dim             ....  322

ORBITAL ENERGIES
----------------

  NO   OCC          E(Eh)            E(eV)
   0   2.0000     -88.968026     -2420.9431
   1   2.0000     -88.964569     -2420.8490
   2   2.0000     -10.327326      -281.0208
   3   2.0000     -10.324128      -280.9338
   4   2.0000     -10.320752      -280.8419
   5   2.0000     -10.315470      -280.6982
   6   2.0000     -10.310082      -280.5516
   7   2.0000     -10.305062      -280.4150
   8   2.0000     -10.301710      -280.3238
   9   2.0000     -10.291754      -280.0529
  10   2.0000     -10.291542      -280.0471
  11   2.0000     -10.290671      -280.0234
  12   2.0000     -10.289335      -279.9870
  13   2.0000     -10.287773      -279.9445
  14   2.0000     -10.283934      -279.8401
  15   2.0000     -10.271796      -279.5098
  16   2.0000      -8.082049      -219.9237
  17   2.0000      -8.080425      -219.8795
  18   2.0000      -6.040672      -164.3750
  19   2.0000      -6.038890      -164.3265
  20   2.0000      -6.036683      -164.2665
  21   2.0000      -6.034626      -164.2105
  22   2.0000      -6.032705      -164.1583
  23   2.0000      -6.031284      -164.1196
  24   2.0000      -1.008672       -27.4474
  25   2.0000      -0.982051       -26.7230
  26   2.0000      -0.916221       -24.9316
  27   2.0000      -0.904840       -24.6220
  28   2.0000      -0.872811       -23.7504
  29   2.0000      -0.845896       -23.0180
  30   2.0000      -0.842651       -22.9297
  31   2.0000      -0.810295       -22.0492
  32   2.0000      -0.789058       -21.4714
  33   2.0000      -0.779404       -21.2087
  34   2.0000      -0.710182       -19.3250
  35   2.0000      -0.697196       -18.9717
  36   2.0000      -0.690601       -18.7922
  37   2.0000      -0.658461       -17.9176
  38   2.0000      -0.641127       -17.4460
  39   2.0000      -0.616008       -16.7624
  40   2.0000      -0.595630       -16.2079
  41   2.0000      -0.576036       -15.6747
  42   2.0000      -0.552249       -15.0275
  43   2.0000      -0.550981       -14.9929
  44   2.0000      -0.548052       -14.9132
  45   2.0000      -0.543544       -14.7906
  46   2.0000      -0.519523       -14.1369
  47   2.0000      -0.511213       -13.9108
  48   2.0000      -0.500092       -13.6082
  49   2.0000      -0.498450       -13.5635
  50   2.0000      -0.491004       -13.3609
  51   2.0000      -0.484907       -13.1950
  52   2.0000      -0.472339       -12.8530
  53   2.0000      -0.463406       -12.6099
  54   2.0000      -0.456818       -12.4307
  55   2.0000      -0.445057       -12.1106
  56   2.0000      -0.439890       -11.9700
  57   2.0000      -0.438267       -11.9259
  58   2.0000      -0.431994       -11.7552
  59   2.0000      -0.423393       -11.5211
  60   2.0000      -0.420037       -11.4298
  61   2.0000      -0.417655       -11.3650
  62   2.0000      -0.410584       -11.1726
  63   2.0000      -0.340983        -9.2786
  64   2.0000      -0.332383        -9.0446
  65   2.0000      -0.324706        -8.8357
  66   2.0000      -0.300228        -8.1696
  67   0.0000       0.033640         0.9154
  68   0.0000       0.064287         1.7493
  69   0.0000       0.114038         3.1031
  70   0.0000       0.116875         3.1803
  71   0.0000       0.125142         3.4053

MULLIKEN ATOMIC CHARGES
-----------------------
   0 S :    0.112502
   1 C :   -0.102039
   2 C :   -0.107084
   3 C :    0.042004
   4 C :   -0.162142
   5 H :   -0.013442
   6 C :    0.114898
   7 H :    0.006180
   8 H :    0.024955
   9 C :   -0.067969
  10 H :    0.027656
  11 H :    0.026026
  12 C :   -0.055107
  13 H :    0.043647
  14 H :    0.035999
  15 H :    0.019459
  16 S :    0.120321
  17 C :   -0.113955
  18 C :   -0.019032
  19 C :   -0.054759
  20 C :   -0.159444
  21 H :    0.003168
  22 C :    0.082065
  23 H :    0.028944
  24 H :    0.045867
  25 C :   -0.078941
  26 H :    0.024928
  27 H :    0.005105
  28 C :   -0.062707
  29 H :    0.051733
  30 H :    0.030306
  31 H :    0.035778
  32 H :    0.026998
  33 H :    0.088083
Sum of atomic charges:    0.0000000

LOEWDIN ATOMIC CHARGES
----------------------
   0 S :    0.394637
   1 C :   -0.179761
   2 C :   -0.055381
   3 C :   -0.053020
   4 C :   -0.205021
   5 H :    0.015385
   6 C :   -0.026100
   7 H :    0.025508
   8 H :    0.031595
   9 C :   -0.035165
  10 H :    0.024583
  11 H :    0.020373
  12 C :   -0.060332
  13 H :    0.025195
  14 H :    0.027777
  15 H :    0.016953
  16 S :    0.434214
  17 C :   -0.208211
  18 C :   -0.075528
  19 C :   -0.044488
  20 C :   -0.219772
  21 H :    0.022020
  22 C :   -0.031172
  23 H :    0.032929
  24 H :    0.042707
  25 C :   -0.051800
  26 H :    0.027576
  27 H :    0.018951
  28 C :   -0.071707
  29 H :    0.029297
  30 H :    0.019073
  31 H :    0.037367
  32 H :    0.019070
  33 H :    0.052250

  Mayer bond orders larger than 0.100000
B(  0-S ,  1-C ) :   1.1299 B(  0-S ,  4-C ) :   1.1342 B(  1-C ,  2-C ) :   1.6368
B(  1-C , 32-H ) :   0.9644 B(  2-C ,  3-C ) :   1.2252 B(  2-C ,  6-C ) :   1.0195
B(  3-C ,  4-C ) :   1.5856 B(  3-C ,  5-H ) :   0.9957 B(  4-C , 20-C ) :   1.0312
B(  6-C ,  7-H ) :   0.9347 B(  6-C ,  8-H ) :   0.9398 B(  6-C ,  9-C ) :   1.0657
B(  9-C , 10-H ) :   0.9564 B(  9-C , 11-H ) :   0.9587 B(  9-C , 12-C ) :   1.0799
B( 12-C , 13-H ) :   0.9771 B( 12-C , 14-H ) :   0.9746 B( 12-C , 15-H ) :   0.9765
B( 16-S , 17-C ) :   1.1633 B( 16-S , 20-C ) :   1.1626 B( 17-C , 18-C ) :   1.5933
B( 17-C , 33-H ) :   0.9585 B( 18-C , 19-C ) :   1.2549 B( 18-C , 21-H ) :   0.9899
B( 19-C , 20-C ) :   1.5664 B( 19-C , 22-C ) :   1.0377 B( 22-C , 23-H ) :   0.9412
B( 22-C , 24-H ) :   0.9294 B( 22-C , 25-C ) :   1.0672 B( 25-C , 26-H ) :   0.9492
B( 25-C , 27-H ) :   0.9499 B( 25-C , 28-C ) :   1.0761 B( 28-C , 29-H ) :   0.9743
B( 28-C , 30-H ) :   0.9757 B( 28-C , 31-H ) :   0.9715

Dispersion correction           -0.015341439
FINAL SINGLE POINT ENERGY     -1339.870915337447

DIPOLE MOMENT
-------------
                                X             Y             Z
Electronic contribution:     11.11634      21.97523      16.33964
Nuclear contribution   :    -11.18678     -22.50331     -16.91940
                        -----------------------------------------
Total Dipole Moment    :     -0.07044      -0.52807      -0.57977
                        -----------------------------------------
Magnitude (a.u.)       :      0.78737
Magnitude (Debye)      :      2.00134

Rotational constants in cm-1:     0.018802     0.009452     0.006975
Rotational constants in MHz :   563.679035   283.365488   209.116386

                             ****ORCA TERMINATED NORMALLY****
TOTAL RUN TIME: 0 days 0 hours 0 minutes 31 seconds 187 msec
