                         Program Version 4.2.1 -  RELEASE  -
|  1> ! wB97X-D3 SP def2-SVP
|  2> %pal
|  3> nprocs 16
|  4> end
|  5>
|  6> * xyz 0 1
|  7> S 	 0.353588 	 -4.06227 	 86.8144
|  8> C 	 0.936308 	 -5.69406 	 86.9541
|  9> C 	 -0.0630018 	 -6.50846 	 87.2895
| 10> C 	 -1.39691 	 -5.87554 	 87.2558
| 11> C 	 -1.36951 	 -4.50811 	 87.0008
| 12> H 	 -2.27855 	 -6.44864 	 87.5053
| 13> C 	 0.0582098 	 -8.02301 	 87.3734
| 14> H 	 0.580133 	 -8.37595 	 86.488
| 15> H 	 -0.913542 	 -8.44382 	 87.2363
| 16> C 	 0.893018 	 -8.54148 	 88.5714
| 17> H 	 1.02277 	 -9.57547 	 88.4399
| 18> H 	 1.92792 	 -8.05275 	 88.49
| 19> C 	 0.184827 	 -8.29853 	 89.928
| 20> H 	 -0.789905 	 -8.79503 	 89.9096
| 21> H 	 0.623564 	 -8.68738 	 90.8878
| 22> H 	 0.0752414 	 -7.2458 	 90.1315
| 23> S 	 -3.69405 	 -3.66396 	 86.0058
| 24> C 	 -4.50774 	 -2.27344 	 86.7597
| 25> C 	 -3.70066 	 -1.74574 	 87.7451
| 26> C 	 -2.52621 	 -2.49801 	 87.9917
| 27> C 	 -2.39187 	 -3.49374 	 87.076
| 28> H 	 -4.01532 	 -0.868721 	 88.2923
| 29> C 	 -1.60388 	 -2.24658 	 89.1042
| 30> H 	 -1.42536 	 -1.18673 	 89.1322
| 31> H 	 -0.679103 	 -2.64673 	 88.8423
| 32> C 	 -1.91894 	 -2.90172 	 90.5107
| 33> H 	 -1.06005 	 -2.84767 	 91.1881
| 34> H 	 -2.14992 	 -3.92072 	 90.3544
| 35> C 	 -3.01052 	 -2.14458 	 91.2109
| 36> H 	 -3.27718 	 -2.66465 	 92.1353
| 37> H 	 -3.88144 	 -2.03644 	 90.5048
| 38> H 	 -2.69544 	 -1.07808 	 91.4748
| 39> H 	 1.91091 	 -6.08071 	 86.7327
| 40> H 	 -5.50946 	 -1.90641 	 86.5803
| 41> *
| 42>
| 43>                          ****END OF INPUT****

CARTESIAN COORDINATES (ANGSTROEM)
---------------------------------
  S      0.353588   -4.062270   86.814400
  C      0.936308   -5.694060   86.954100
  C     -0.063002   -6.508460   87.289500
  C     -1.396910   -5.875540   87.255800
  C     -1.369510   -4.508110   87.000800
  H     -2.278550   -6.448640   87.505300
  C      0.058210   -8.023010   87.373400
  H      0.580133   -8.375950   86.488000
  H     -0.913542   -8.443820   87.236300
  C      0.893018   -8.541480   88.571400
  H      1.022770   -9.575470   88.439900
  H      1.927920   -8.052750   88.490000
  C      0.184827   -8.298530   89.928000
  H     -0.789905   -8.795030   89.909600
  H      0.623564   -8.687380   90.887800
  H      0.075241   -7.245800   90.131500
  S     -3.694050   -3.663960   86.005800
  C     -4.507740   -2.273440   86.759700
  C     -3.700660   -1.745740   87.745100
  C     -2.526210   -2.498010   87.991700
  C     -2.391870   -3.493740   87.076000
  H     -4.015320   -0.868721   88.292300
  C     -1.603880   -2.246580   89.104200
  H     -1.425360   -1.186730   89.132200
  H     -0.679103   -2.646730   88.842300
  C     -1.918940   -2.901720   90.510700
  H     -1.060050   -2.847670   91.188100
  H     -2.149920   -3.920720   90.354400
  C     -3.010520   -2.144580   91.210900
  H     -3.277180   -2.664650   92.135300
  H     -3.881440   -2.036440   90.504800
  H     -2.695440   -1.078080   91.474800
  H      1.910910   -6.080710   86.732700
  H     -5.509460   -1.906410   86.580300

 Total Charge           Charge          ....    0
 Multiplicity           Mult            ....    1
 Number of Electrons    NEL             ....  134
 Basis Dimension        Dim             ....  322

ORBITAL ENERGIES
----------------

  NO   OCC          E(Eh)            E(eV)
   0   2.0000     -88.967968     -2420.9415
   1   2.0000     -88.962516     -2420.7931
   2   2.0000     -10.334374      -281.2126
   3   2.0000     -10.319086      -280.7966
   4   2.0000     -10.318147      -280.7711
   5   2.0000     -10.309320      -280.5309
   6   2.0000     -10.300840      -280.3001
   7   2.0000     -10.296773      -280.1894
   8   2.0000     -10.294355      -280.1236
   9   2.0000     -10.293678      -280.1052
  10   2.0000     -10.292383      -280.0700
  11   2.0000     -10.289958      -280.0040
  12   2.0000     -10.281599      -279.7765
  13   2.0000     -10.279553      -279.7209
  14   2.0000     -10.279208      -279.7115
  15   2.0000     -10.276856      -279.6475
  16   2.0000      -8.083175      -219.9544
  17   2.0000      -8.076648      -219.7768
  18   2.0000      -6.041681      -164.4025
  19   2.0000      -6.037552      -164.2901
  20   2.0000      -6.035426      -164.2323
  21   2.0000      -6.033955      -164.1923
  22   2.0000      -6.031132      -164.1155
  23   2.0000      -6.027229      -164.0092
  24   2.0000      -1.013798       -27.5868
  25   2.0000      -0.986980       -26.8571
  26   2.0000      -0.910499       -24.7759
  27   2.0000      -0.909135       -24.7388
  28   2.0000      -0.874526       -23.7971
  29   2.0000      -0.853999       -23.2385
  30   2.0000      -0.838700       -22.8222
  31   2.0000      -0.819117       -22.2893
  32   2.0000      -0.781681       -21.2706
  33   2.0000      -0.772357       -21.0169
  34   2.0000      -0.710210       -19.3258
  35   2.0000      -0.704536       -19.1714
  36   2.0000      -0.692254       -18.8372
  37   2.0000      -0.668826       -18.1997
  38   2.0000      -0.638874       -17.3847
  39   2.0000      -0.613321       -16.6893
  40   2.0000      -0.594264       -16.1708
  41   2.0000      -0.578857       -15.7515
  42   2.0000      -0.552992       -15.0477
  43   2.0000      -0.549121       -14.9423
  44   2.0000      -0.543566       -14.7912
  45   2.0000      -0.542071       -14.7505
  46   2.0000      -0.521090       -14.1796
  47   2.0000      -0.514149       -13.9907
  48   2.0000      -0.503913       -13.7122
  49   2.0000      -0.499111       -13.5815
  50   2.0000      -0.481704       -13.1078
  51   2.0000      -0.480199       -13.0669
  52   2.0000      -0.471842       -12.8395
  53   2.0000      -0.467020       -12.7083
  54   2.0000      -0.462058       -12.5732
  55   2.0000      -0.442112       -12.0305
  56   2.0000      -0.440619       -11.9899
  57   2.0000      -0.436364       -11.8741
  58   2.0000      -0.434073       -11.8117
  59   2.0000      -0.426709       -11.6114
  60   2.0000      -0.423498       -11.5240
  61   2.0000      -0.412319       -11.2198
  62   2.0000      -0.408465       -11.1149
  63   2.0000      -0.346434        -9.4269
  64   2.0000      -0.334824        -9.1110
  65   2.0000      -0.324611        -8.8331
  66   2.0000      -0.299044        -8.1374
  67   0.0000       0.035029         0.9532
  68   0.0000       0.065268         1.7760
  69   0.0000       0.113674         3.0932
  70   0.0000       0.118869         3.2346
  71   0.0000       0.127098         3.4585

MULLIKEN ATOMIC CHARGES
-----------------------
   0 S :    0.094412
   1 C :   -0.098675
   2 C :   -0.102230
   3 C :    0.049567
   4 C :   -0.160200
   5 H :    0.013150
   6 C :    0.045418
   7 H :    0.029065
   8 H :    0.010785
   9 C :   -0.050890
  10 H :    0.022850
  11 H :    0.037612
  12 C :   -0.070164
  13 H :    0.027107
  14 H :    0.036612
  15 H :    0.038711
  16 S :    0.123229
  17 C :   -0.098322
  18 C :   -0.033317
  19 C :   -0.038443
  20 C :   -0.156878
  21 H :    0.019018
  22 C :    0.115968
  23 H :    0.015603
  24 H :   -0.015613
  25 C :   -0.028950
  26 H :    0.031227
  27 H :    0.023940
  28 C :   -0.077757
  29 H :    0.037259
  30 H :    0.032754
  31 H :    0.031926
  32 H :    0.040814
  33 H :    0.054411
Sum of atomic charges:   -0.0000000

LOEWDIN ATOMIC CHARGES
----------------------
   0 S :    0.397487
   1 C :   -0.190976
   2 C :   -0.070700
   3 C :   -0.058244
   4 C :   -0.178727
   5 H :    0.028922
   6 C :   -0.030713
   7 H :    0.033749
   8 H :    0.023416
   9 C :   -0.034861
  10 H :    0.016443
  11 H :    0.030732
  12 C :   -0.075689
  13 H :    0.025667
  14 H :    0.030375
  15 H :    0.023749
  16 S :    0.427743
  17 C :   -0.181868
  18 C :   -0.063733
  19 C :   -0.061264
  20 C :   -0.218475
  21 H :    0.030833
  22 C :   -0.030245
  23 H :    0.030101
  24 H :    0.010529
  25 C :   -0.027382
  26 H :    0.027056
  27 H :    0.020444
  28 C :   -0.074277
  29 H :    0.024193
  30 H :    0.025837
  31 H :    0.028630
  32 H :    0.030461
  33 H :    0.030788

  Mayer bond orders larger than 0.100000
B(  0-S ,  1-C ) :   1.1229 B(  0-S ,  4-C ) :   1.1336 B(  1-C ,  2-C ) :   1.6552
B(  1-C , 32-H ) :   0.9671 B(  2-C ,  3-C ) :   1.2137 B(  2-C ,  6-C ) :   1.0129
B(  3-C ,  4-C ) :   1.5962 B(  3-C ,  5-H ) :   0.9938 B(  4-C , 20-C ) :   1.0037
B(  6-C ,  7-H ) :   0.9438 B(  6-C ,  8-H ) :   0.9472 B(  6-C ,  9-C ) :   1.0686
B(  9-C , 10-H ) :   0.9573 B(  9-C , 11-H ) :   0.9567 B(  9-C , 12-C ) :   1.0629
B( 12-C , 13-H ) :   0.9743 B( 12-C , 14-H ) :   0.9766 B( 12-C , 15-H ) :   0.9785
B( 16-S , 17-C ) :   1.1420 B( 16-S , 20-C ) :   1.1587 B( 17-C , 18-C ) :   1.6128
B( 17-C , 33-H ) :   0.9690 B( 18-C , 19-C ) :   1.2375 B( 18-C , 21-H ) :   0.9849
B( 19-C , 20-C ) :   1.5927 B( 19-C , 22-C ) :   1.0619 B( 22-C , 23-H ) :   0.9265
B( 22-C , 24-H ) :   0.9013 B( 22-C , 25-C ) :   1.0651 B( 25-C , 26-H ) :   0.9554
B( 25-C , 27-H ) :   0.9520 B( 25-C , 28-C ) :   1.0853 B( 28-C , 29-H ) :   0.9713
B( 28-C , 30-H ) :   0.9726 B( 28-C , 31-H ) :   0.9735

Dispersion correction           -0.014982386
FINAL SINGLE POINT ENERGY     -1339.877650494120

DIPOLE MOMENT
-------------
                                X             Y             Z
Electronic contribution:     -4.18026       9.59445     -22.01211
Nuclear contribution   :      4.15944      -9.95026      22.39831
                        -----------------------------------------
Total Dipole Moment    :     -0.02082      -0.35581       0.38620
                        -----------------------------------------
Magnitude (a.u.)       :      0.52553
Magnitude (Debye)      :      1.33580

Rotational constants in cm-1:     0.020030     0.008588     0.007361
Rotational constants in MHz :   600.499206   257.450015   220.668254

                             ****ORCA TERMINATED NORMALLY****
TOTAL RUN TIME: 0 days 0 hours 0 minutes 36 seconds 122 msec
