                         Program Version 4.2.1 -  RELEASE  -
|  1> ! wB97X-D3 SP def2-SVP
|  2> %pal
|  3> nprocs 16
|  4> end
|  5>
|  6> * xyz 0 1
|  7> S 	 15.5143 	 25.4556 	 62.8575
|  8> C 	 16.3767 	 24.044 	 62.3912
|  9> C 	 15.612 	 22.9442 	 62.6813
| 10> C 	 14.2793 	 23.2416 	 63.04
| 11> C 	 14.0015 	 24.6028 	 63.1137
| 12> H 	 13.5506 	 22.4238 	 63.1663
| 13> C 	 16.0623 	 21.4696 	 62.6041
| 14> H 	 16.6529 	 21.1951 	 61.6873
| 15> H 	 15.2325 	 20.7708 	 62.4804
| 16> C 	 16.87 	 21.0584 	 63.8274
| 17> H 	 17.3041 	 20.0486 	 63.6417
| 18> H 	 17.7808 	 21.6725 	 63.8595
| 19> C 	 16.1276 	 21.1124 	 65.1868
| 20> H 	 15.4167 	 20.3198 	 65.2389
| 21> H 	 16.9041 	 20.9852 	 65.9434
| 22> H 	 15.5684 	 22.0487 	 65.3687
| 23> S 	 13.0247 	 26.9179 	 64.3246
| 24> C 	 11.3268 	 27.0515 	 64.3809
| 25> C 	 10.6655 	 25.9396 	 64.0307
| 26> C 	 11.4601 	 24.9625 	 63.4637
| 27> C 	 12.7771 	 25.3263 	 63.5201
| 28> H 	 9.57906 	 25.9375 	 64.1682
| 29> C 	 10.9354 	 23.6322 	 62.8242
| 30> H 	 11.1324 	 22.8836 	 63.6108
| 31> H 	 11.504 	 23.338 	 61.9675
| 32> C 	 9.47642 	 23.5769 	 62.4443
| 33> H 	 9.12195 	 24.5618 	 62.0776
| 34> H 	 8.84814 	 23.5575 	 63.337
| 35> C 	 9.17986 	 22.3954 	 61.4953
| 36> H 	 9.72253 	 22.5213 	 60.5992
| 37> H 	 8.10181 	 22.3771 	 61.352
| 38> H 	 9.48823 	 21.5331 	 61.9959
| 39> H 	 17.4141 	 24.0273 	 61.9571
| 40> H 	 10.9292 	 27.7517 	 65.0406
| 41> *
| 42>
| 43>                          ****END OF INPUT****

CARTESIAN COORDINATES (ANGSTROEM)
---------------------------------
  S     15.514300   25.455600   62.857500
  C     16.376700   24.044000   62.391200
  C     15.612000   22.944200   62.681300
  C     14.279300   23.241600   63.040000
  C     14.001500   24.602800   63.113700
  H     13.550600   22.423800   63.166300
  C     16.062300   21.469600   62.604100
  H     16.652900   21.195100   61.687300
  H     15.232500   20.770800   62.480400
  C     16.870000   21.058400   63.827400
  H     17.304100   20.048600   63.641700
  H     17.780800   21.672500   63.859500
  C     16.127600   21.112400   65.186800
  H     15.416700   20.319800   65.238900
  H     16.904100   20.985200   65.943400
  H     15.568400   22.048700   65.368700
  S     13.024700   26.917900   64.324600
  C     11.326800   27.051500   64.380900
  C     10.665500   25.939600   64.030700
  C     11.460100   24.962500   63.463700
  C     12.777100   25.326300   63.520100
  H      9.579060   25.937500   64.168200
  C     10.935400   23.632200   62.824200
  H     11.132400   22.883600   63.610800
  H     11.504000   23.338000   61.967500
  C      9.476420   23.576900   62.444300
  H      9.121950   24.561800   62.077600
  H      8.848140   23.557500   63.337000
  C      9.179860   22.395400   61.495300
  H      9.722530   22.521300   60.599200
  H      8.101810   22.377100   61.352000
  H      9.488230   21.533100   61.995900
  H     17.414100   24.027300   61.957100
  H     10.929200   27.751700   65.040600

 Total Charge           Charge          ....    0
 Multiplicity           Mult            ....    1
 Number of Electrons    NEL             ....  134
 Basis Dimension        Dim             ....  322

ORBITAL ENERGIES
----------------

  NO   OCC          E(Eh)            E(eV)
   0   2.0000     -88.964964     -2420.8598
   1   2.0000     -88.963999     -2420.8335
   2   2.0000     -10.332649      -281.1657
   3   2.0000     -10.329604      -281.0828
   4   2.0000     -10.314766      -280.6790
   5   2.0000     -10.302991      -280.3586
   6   2.0000     -10.302451      -280.3439
   7   2.0000     -10.297943      -280.2213
   8   2.0000     -10.295732      -280.1611
   9   2.0000     -10.293835      -280.1095
  10   2.0000     -10.293676      -280.1052
  11   2.0000     -10.287833      -279.9462
  12   2.0000     -10.287113      -279.9266
  13   2.0000     -10.286310      -279.9047
  14   2.0000     -10.275373      -279.6071
  15   2.0000     -10.274187      -279.5748
  16   2.0000      -8.080311      -219.8764
  17   2.0000      -8.079219      -219.8467
  18   2.0000      -6.038607      -164.3189
  19   2.0000      -6.037800      -164.2969
  20   2.0000      -6.035029      -164.2215
  21   2.0000      -6.033597      -164.1825
  22   2.0000      -6.030966      -164.1109
  23   2.0000      -6.029939      -164.0830
  24   2.0000      -1.012606       -27.5544
  25   2.0000      -0.993125       -27.0243
  26   2.0000      -0.914282       -24.8789
  27   2.0000      -0.906585       -24.6694
  28   2.0000      -0.868480       -23.6325
  29   2.0000      -0.859019       -23.3751
  30   2.0000      -0.841610       -22.9014
  31   2.0000      -0.812794       -22.1172
  32   2.0000      -0.789005       -21.4699
  33   2.0000      -0.776224       -21.1221
  34   2.0000      -0.709118       -19.2961
  35   2.0000      -0.701533       -19.0897
  36   2.0000      -0.692907       -18.8550
  37   2.0000      -0.656246       -17.8574
  38   2.0000      -0.633300       -17.2330
  39   2.0000      -0.621296       -16.9063
  40   2.0000      -0.606271       -16.4975
  41   2.0000      -0.571200       -15.5431
  42   2.0000      -0.570412       -15.5217
  43   2.0000      -0.544112       -14.8060
  44   2.0000      -0.538595       -14.6559
  45   2.0000      -0.531405       -14.4603
  46   2.0000      -0.517854       -14.0915
  47   2.0000      -0.507769       -13.8171
  48   2.0000      -0.502943       -13.6858
  49   2.0000      -0.496206       -13.5025
  50   2.0000      -0.491595       -13.3770
  51   2.0000      -0.485155       -13.2017
  52   2.0000      -0.474305       -12.9065
  53   2.0000      -0.466350       -12.6900
  54   2.0000      -0.464746       -12.6464
  55   2.0000      -0.456149       -12.4124
  56   2.0000      -0.441502       -12.0139
  57   2.0000      -0.436253       -11.8710
  58   2.0000      -0.432227       -11.7615
  59   2.0000      -0.425053       -11.5663
  60   2.0000      -0.419370       -11.4116
  61   2.0000      -0.413072       -11.2403
  62   2.0000      -0.407744       -11.0953
  63   2.0000      -0.360978        -9.8227
  64   2.0000      -0.339676        -9.2431
  65   2.0000      -0.330393        -8.9904
  66   2.0000      -0.282505        -7.6874
  67   0.0000       0.022448         0.6108
  68   0.0000       0.076834         2.0908
  69   0.0000       0.100080         2.7233
  70   0.0000       0.126304         3.4369
  71   0.0000       0.139276         3.7899

MULLIKEN ATOMIC CHARGES
-----------------------
   0 S :    0.096095
   1 C :   -0.137803
   2 C :   -0.072980
   3 C :   -0.007236
   4 C :   -0.121649
   5 H :    0.014120
   6 C :    0.039139
   7 H :    0.031548
   8 H :    0.014832
   9 C :   -0.088840
  10 H :    0.026510
  11 H :    0.022294
  12 C :   -0.041416
  13 H :    0.020825
  14 H :    0.036088
  15 H :    0.052568
  16 S :    0.094288
  17 C :   -0.042403
  18 C :   -0.077258
  19 C :   -0.030976
  20 C :   -0.136601
  21 H :    0.022479
  22 C :    0.060354
  23 H :    0.046723
  24 H :    0.029977
  25 C :   -0.107068
  26 H :    0.024971
  27 H :    0.017634
  28 C :    0.016772
  29 H :    0.034598
  30 H :    0.035938
  31 H :    0.018074
  32 H :    0.072314
  33 H :    0.036090
Sum of atomic charges:    0.0000000

LOEWDIN ATOMIC CHARGES
----------------------
   0 S :    0.412753
   1 C :   -0.213501
   2 C :   -0.069107
   3 C :   -0.076652
   4 C :   -0.185843
   5 H :    0.032256
   6 C :   -0.039005
   7 H :    0.035235
   8 H :    0.024015
   9 C :   -0.045609
  10 H :    0.025195
  11 H :    0.020227
  12 C :   -0.063831
  13 H :    0.018044
  14 H :    0.029406
  15 H :    0.031874
  16 S :    0.397201
  17 C :   -0.186487
  18 C :   -0.075036
  19 C :   -0.054460
  20 C :   -0.171975
  21 H :    0.036470
  22 C :   -0.027492
  23 H :    0.036806
  24 H :    0.027635
  25 C :   -0.049288
  26 H :    0.022763
  27 H :    0.020245
  28 C :   -0.044926
  29 H :    0.022682
  30 H :    0.031301
  31 H :    0.018843
  32 H :    0.044947
  33 H :    0.015311

  Mayer bond orders larger than 0.100000
B(  0-S ,  1-C ) :   1.1456 B(  0-S ,  4-C ) :   1.1627 B(  1-C ,  2-C ) :   1.5897
B(  1-C ,  4-C ) :   0.1017 B(  1-C , 32-H ) :   0.9638 B(  2-C ,  3-C ) :   1.2812
B(  2-C ,  6-C ) :   1.0118 B(  3-C ,  4-C ) :   1.5165 B(  3-C ,  5-H ) :   0.9902
B(  4-C , 20-C ) :   1.0639 B(  6-C ,  7-H ) :   0.9444 B(  6-C ,  8-H ) :   0.9469
B(  6-C ,  9-C ) :   1.0760 B(  9-C , 10-H ) :   0.9535 B(  9-C , 11-H ) :   0.9589
B(  9-C , 12-C ) :   1.0685 B( 12-C , 13-H ) :   0.9762 B( 12-C , 14-H ) :   0.9741
B( 12-C , 15-H ) :   0.9747 B( 16-S , 17-C ) :   1.1545 B( 16-S , 20-C ) :   1.1388
B( 17-C , 18-C ) :   1.6324 B( 17-C , 33-H ) :   0.9593 B( 18-C , 19-C ) :   1.2489
B( 18-C , 21-H ) :   0.9853 B( 19-C , 20-C ) :   1.6326 B( 19-C , 22-C ) :   1.0097
B( 22-C , 23-H ) :   0.9214 B( 22-C , 24-H ) :   0.9444 B( 22-C , 25-C ) :   1.0757
B( 25-C , 26-H ) :   0.9566 B( 25-C , 27-H ) :   0.9414 B( 25-C , 28-C ) :   1.0788
B( 28-C , 29-H ) :   0.9770 B( 28-C , 30-H ) :   0.9714 B( 28-C , 31-H ) :   0.9731

Dispersion correction           -0.013943426
FINAL SINGLE POINT ENERGY     -1339.878702469555

DIPOLE MOMENT
-------------
                                X             Y             Z
Electronic contribution:      7.53077      26.07484       1.99534
Nuclear contribution   :     -7.86820     -26.73317      -1.96609
                        -----------------------------------------
Total Dipole Moment    :     -0.33743      -0.65834       0.02925
                        -----------------------------------------
Magnitude (a.u.)       :      0.74035
Magnitude (Debye)      :      1.88183

Rotational constants in cm-1:     0.017148     0.008907     0.006697
Rotational constants in MHz :   514.095210   267.019548   200.784020

                             ****ORCA TERMINATED NORMALLY****
TOTAL RUN TIME: 0 days 0 hours 0 minutes 34 seconds 913 msec
