                         Program Version 4.2.1 -  RELEASE  -
|  1> ! wB97X-D3 SP def2-SVP
|  2> %pal
|  3> nprocs 16
|  4> end
|  5>
|  6> * xyz 0 1
|  7> S 	 -35.0188 	 57.1433 	 103.877
|  8> C 	 -35.4908 	 55.8167 	 102.756
|  9> C 	 -34.3881 	 55.087 	 102.29
| 10> C 	 -33.1979 	 55.5857 	 102.867
| 11> C 	 -33.3484 	 56.6113 	 103.81
| 12> H 	 -32.2599 	 55.1545 	 102.714
| 13> C 	 -34.3634 	 53.7138 	 101.588
| 14> H 	 -35.3942 	 53.3637 	 101.689
| 15> H 	 -33.7424 	 53.0304 	 102.151
| 16> C 	 -33.8696 	 53.7947 	 100.182
| 17> H 	 -32.9271 	 54.4301 	 100.052
| 18> H 	 -33.5598 	 52.7936 	 99.861
| 19> C 	 -34.9336 	 54.2877 	 99.2585
| 20> H 	 -35.7986 	 53.6419 	 99.3852
| 21> H 	 -35.281 	 55.2664 	 99.5154
| 22> H 	 -34.6589 	 54.2214 	 98.2184
| 23> S 	 -32.7193 	 57.2369 	 106.387
| 24> C 	 -31.0547 	 57.6844 	 106.714
| 25> C 	 -30.3087 	 57.8488 	 105.543
| 26> C 	 -31.078 	 57.5214 	 104.416
| 27> C 	 -32.3264 	 57.0477 	 104.737
| 28> H 	 -29.3737 	 58.3465 	 105.617
| 29> C 	 -30.645 	 57.8256 	 102.983
| 30> H 	 -30.7016 	 56.9131 	 102.31
| 31> H 	 -29.5784 	 58.014 	 102.972
| 32> C 	 -31.3187 	 59.0151 	 102.255
| 33> H 	 -31.3258 	 59.9695 	 102.805
| 34> H 	 -32.4039 	 58.8009 	 102.009
| 35> C 	 -30.5206 	 59.2049 	 100.917
| 36> H 	 -29.4749 	 58.9475 	 100.93
| 37> H 	 -30.7764 	 60.2038 	 100.501
| 38> H 	 -30.985 	 58.4993 	 100.217
| 39> H 	 -36.4492 	 55.4108 	 102.546
| 40> H 	 -30.7645 	 57.9975 	 107.716
| 41> *
| 42>
| 43>                          ****END OF INPUT****

CARTESIAN COORDINATES (ANGSTROEM)
---------------------------------
  S    -35.018800   57.143300  103.877000
  C    -35.490800   55.816700  102.756000
  C    -34.388100   55.087000  102.290000
  C    -33.197900   55.585700  102.867000
  C    -33.348400   56.611300  103.810000
  H    -32.259900   55.154500  102.714000
  C    -34.363400   53.713800  101.588000
  H    -35.394200   53.363700  101.689000
  H    -33.742400   53.030400  102.151000
  C    -33.869600   53.794700  100.182000
  H    -32.927100   54.430100  100.052000
  H    -33.559800   52.793600   99.861000
  C    -34.933600   54.287700   99.258500
  H    -35.798600   53.641900   99.385200
  H    -35.281000   55.266400   99.515400
  H    -34.658900   54.221400   98.218400
  S    -32.719300   57.236900  106.387000
  C    -31.054700   57.684400  106.714000
  C    -30.308700   57.848800  105.543000
  C    -31.078000   57.521400  104.416000
  C    -32.326400   57.047700  104.737000
  H    -29.373700   58.346500  105.617000
  C    -30.645000   57.825600  102.983000
  H    -30.701600   56.913100  102.310000
  H    -29.578400   58.014000  102.972000
  C    -31.318700   59.015100  102.255000
  H    -31.325800   59.969500  102.805000
  H    -32.403900   58.800900  102.009000
  C    -30.520600   59.204900  100.917000
  H    -29.474900   58.947500  100.930000
  H    -30.776400   60.203800  100.501000
  H    -30.985000   58.499300  100.217000
  H    -36.449200   55.410800  102.546000
  H    -30.764500   57.997500  107.716000

 Total Charge           Charge          ....    0
 Multiplicity           Mult            ....    1
 Number of Electrons    NEL             ....  134
 Basis Dimension        Dim             ....  322

ORBITAL ENERGIES
----------------

  NO   OCC          E(Eh)            E(eV)
   0   2.0000     -88.971864     -2421.0475
   1   2.0000     -88.968616     -2420.9591
   2   2.0000     -10.328909      -281.0639
   3   2.0000     -10.318985      -280.7939
   4   2.0000     -10.318783      -280.7884
   5   2.0000     -10.315271      -280.6928
   6   2.0000     -10.301098      -280.3071
   7   2.0000     -10.298715      -280.2423
   8   2.0000     -10.294837      -280.1368
   9   2.0000     -10.294004      -280.1141
  10   2.0000     -10.293983      -280.1135
  11   2.0000     -10.290454      -280.0175
  12   2.0000     -10.287657      -279.9414
  13   2.0000     -10.286424      -279.9078
  14   2.0000     -10.277704      -279.6705
  15   2.0000     -10.268761      -279.4272
  16   2.0000      -8.085147      -220.0080
  17   2.0000      -8.084067      -219.9787
  18   2.0000      -6.043830      -164.4610
  19   2.0000      -6.042269      -164.4185
  20   2.0000      -6.039879      -164.3535
  21   2.0000      -6.038621      -164.3192
  22   2.0000      -6.035804      -164.2426
  23   2.0000      -6.034966      -164.2198
  24   2.0000      -1.010935       -27.5089
  25   2.0000      -0.981223       -26.7004
  26   2.0000      -0.920430       -25.0462
  27   2.0000      -0.902475       -24.5576
  28   2.0000      -0.869987       -23.6735
  29   2.0000      -0.851951       -23.1828
  30   2.0000      -0.846854       -23.0441
  31   2.0000      -0.808979       -22.0134
  32   2.0000      -0.784050       -21.3351
  33   2.0000      -0.768773       -20.9194
  34   2.0000      -0.707207       -19.2441
  35   2.0000      -0.695688       -18.9306
  36   2.0000      -0.691074       -18.8051
  37   2.0000      -0.667514       -18.1640
  38   2.0000      -0.636383       -17.3169
  39   2.0000      -0.622148       -16.9295
  40   2.0000      -0.598295       -16.2804
  41   2.0000      -0.573098       -15.5948
  42   2.0000      -0.560237       -15.2448
  43   2.0000      -0.551193       -14.9987
  44   2.0000      -0.540222       -14.7002
  45   2.0000      -0.525317       -14.2946
  46   2.0000      -0.519990       -14.1497
  47   2.0000      -0.511108       -13.9079
  48   2.0000      -0.499365       -13.5884
  49   2.0000      -0.492694       -13.4069
  50   2.0000      -0.486809       -13.2467
  51   2.0000      -0.480335       -13.0706
  52   2.0000      -0.469284       -12.7699
  53   2.0000      -0.460358       -12.5270
  54   2.0000      -0.456112       -12.4114
  55   2.0000      -0.451835       -12.2950
  56   2.0000      -0.446013       -12.1366
  57   2.0000      -0.440822       -11.9954
  58   2.0000      -0.435246       -11.8436
  59   2.0000      -0.431488       -11.7414
  60   2.0000      -0.417333       -11.3562
  61   2.0000      -0.411669       -11.2021
  62   2.0000      -0.410535       -11.1712
  63   2.0000      -0.345631        -9.4051
  64   2.0000      -0.334403        -9.0996
  65   2.0000      -0.333382        -9.0718
  66   2.0000      -0.285204        -7.7608
  67   0.0000       0.022688         0.6174
  68   0.0000       0.067964         1.8494
  69   0.0000       0.109727         2.9858
  70   0.0000       0.118056         3.2125
  71   0.0000       0.130176         3.5423

MULLIKEN ATOMIC CHARGES
-----------------------
   0 S :    0.112709
   1 C :   -0.106068
   2 C :   -0.098399
   3 C :    0.045445
   4 C :   -0.152670
   5 H :   -0.012992
   6 C :    0.068425
   7 H :    0.017508
   8 H :    0.034964
   9 C :   -0.075628
  10 H :    0.038495
  11 H :    0.022492
  12 C :   -0.019532
  13 H :    0.010813
  14 H :    0.027204
  15 H :    0.032714
  16 S :    0.120322
  17 C :   -0.110985
  18 C :   -0.016933
  19 C :   -0.011748
  20 C :   -0.150392
  21 H :    0.013601
  22 C :    0.039552
  23 H :    0.029654
  24 H :    0.008026
  25 C :   -0.086180
  26 H :    0.037853
  27 H :    0.051764
  28 C :   -0.060083
  29 H :    0.035727
  30 H :    0.039870
  31 H :    0.027002
  32 H :    0.029158
  33 H :    0.058311
Sum of atomic charges:    0.0000000

LOEWDIN ATOMIC CHARGES
----------------------
   0 S :    0.384859
   1 C :   -0.190999
   2 C :   -0.055897
   3 C :   -0.054935
   4 C :   -0.186814
   5 H :    0.017199
   6 C :   -0.022075
   7 H :    0.030177
   8 H :    0.032726
   9 C :   -0.047647
  10 H :    0.031193
  11 H :    0.022785
  12 C :   -0.060738
  13 H :    0.022445
  14 H :    0.021851
  15 H :    0.024769
  16 S :    0.429007
  17 C :   -0.183087
  18 C :   -0.062575
  19 C :   -0.060907
  20 C :   -0.215134
  21 H :    0.031073
  22 C :   -0.037151
  23 H :    0.035857
  24 H :    0.024232
  25 C :   -0.039678
  26 H :    0.022804
  27 H :    0.032568
  28 C :   -0.070189
  29 H :    0.020929
  30 H :    0.030265
  31 H :    0.027198
  32 H :    0.020017
  33 H :    0.025872

  Mayer bond orders larger than 0.100000
B(  0-S ,  1-C ) :   1.1197 B(  0-S ,  4-C ) :   1.1315 B(  1-C ,  2-C ) :   1.6190
B(  1-C , 32-H ) :   0.9628 B(  2-C ,  3-C ) :   1.2523 B(  2-C ,  6-C ) :   1.0095
B(  3-C ,  4-C ) :   1.5713 B(  3-C ,  5-H ) :   0.9940 B(  4-C , 20-C ) :   1.0673
B(  6-C ,  7-H ) :   0.9442 B(  6-C ,  8-H ) :   0.9477 B(  6-C ,  9-C ) :   1.0663
B(  9-C , 10-H ) :   0.9540 B(  9-C , 11-H ) :   0.9511 B(  9-C , 12-C ) :   1.0835
B( 12-C , 13-H ) :   0.9699 B( 12-C , 14-H ) :   0.9740 B( 12-C , 15-H ) :   0.9726
B( 16-S , 17-C ) :   1.1724 B( 16-S , 20-C ) :   1.1529 B( 17-C , 18-C ) :   1.5695
B( 17-C , 33-H ) :   0.9678 B( 18-C , 19-C ) :   1.2765 B( 18-C , 21-H ) :   0.9983
B( 19-C , 20-C ) :   1.5581 B( 19-C , 22-C ) :   1.0387 B( 22-C , 23-H ) :   0.9317
B( 22-C , 24-H ) :   0.9386 B( 22-C , 25-C ) :   1.0542 B( 25-C , 26-H ) :   0.9633
B( 25-C , 27-H ) :   0.9544 B( 25-C , 28-C ) :   1.0617 B( 28-C , 29-H ) :   0.9768
B( 28-C , 30-H ) :   0.9751 B( 28-C , 31-H ) :   0.9774

Dispersion correction           -0.014610897
FINAL SINGLE POINT ENERGY     -1339.873268372051

DIPOLE MOMENT
-------------
                                X             Y             Z
Electronic contribution:     -6.73705       4.58767      27.47727
Nuclear contribution   :      7.07081      -4.78648     -27.78973
                        -----------------------------------------
Total Dipole Moment    :      0.33376      -0.19881      -0.31246
                        -----------------------------------------
Magnitude (a.u.)       :      0.49855
Magnitude (Debye)      :      1.26722

Rotational constants in cm-1:     0.018876     0.009024     0.007193
Rotational constants in MHz :   565.897587   270.539167   215.647415

                             ****ORCA TERMINATED NORMALLY****
TOTAL RUN TIME: 0 days 0 hours 0 minutes 28 seconds 988 msec
