                         Program Version 4.2.1 -  RELEASE  -
|  1> ! wB97X-D3 SP def2-SVP
|  2> %pal
|  3> nprocs 16
|  4> end
|  5>
|  6> * xyz 0 1
|  7> S 	 37.2416 	 30.5613 	 56.1781
|  8> C 	 37.8018 	 31.1636 	 54.6139
|  9> C 	 37.6972 	 32.4916 	 54.4902
| 10> C 	 37.2989 	 33.0558 	 55.7649
| 11> C 	 37.1172 	 32.1636 	 56.7937
| 12> H 	 37.2603 	 34.1096 	 55.9842
| 13> C 	 38.1855 	 33.3795 	 53.3531
| 14> H 	 38.2671 	 32.7862 	 52.4436
| 15> H 	 39.1523 	 33.7866 	 53.4152
| 16> C 	 37.2535 	 34.5893 	 53.1515
| 17> H 	 36.3202 	 34.0725 	 53.0711
| 18> H 	 37.2941 	 35.2526 	 54.0087
| 19> C 	 37.4231 	 35.3664 	 51.814
| 20> H 	 38.4683 	 35.8674 	 51.6921
| 21> H 	 37.3489 	 34.6905 	 51.0424
| 22> H 	 36.6979 	 36.1539 	 51.6033
| 23> S 	 37.4881 	 31.3566 	 59.4165
| 24> C 	 36.2925 	 31.9186 	 60.5871
| 25> C 	 35.5249 	 32.9618 	 60.0661
| 26> C 	 35.9293 	 33.2931 	 58.7713
| 27> C 	 36.8328 	 32.4707 	 58.2154
| 28> H 	 34.7392 	 33.3543 	 60.6671
| 29> C 	 35.1637 	 34.4367 	 58.052
| 30> H 	 34.0977 	 34.3448 	 58.3004
| 31> H 	 35.2005 	 34.3179 	 56.9605
| 32> C 	 35.5967 	 35.7909 	 58.5778
| 33> H 	 36.712 	 35.8894 	 58.4833
| 34> H 	 35.1526 	 36.0083 	 59.5939
| 35> C 	 35.1051 	 36.9083 	 57.6322
| 36> H 	 35.6934 	 36.918 	 56.698
| 37> H 	 35.3527 	 37.8444 	 58.1336
| 38> H 	 34.0044 	 36.6742 	 57.4024
| 39> H 	 38.0865 	 30.4287 	 53.9035
| 40> H 	 36.1575 	 31.6371 	 61.5813
| 41> *
| 42>
| 43>                          ****END OF INPUT****

CARTESIAN COORDINATES (ANGSTROEM)
---------------------------------
  S     37.241600   30.561300   56.178100
  C     37.801800   31.163600   54.613900
  C     37.697200   32.491600   54.490200
  C     37.298900   33.055800   55.764900
  C     37.117200   32.163600   56.793700
  H     37.260300   34.109600   55.984200
  C     38.185500   33.379500   53.353100
  H     38.267100   32.786200   52.443600
  H     39.152300   33.786600   53.415200
  C     37.253500   34.589300   53.151500
  H     36.320200   34.072500   53.071100
  H     37.294100   35.252600   54.008700
  C     37.423100   35.366400   51.814000
  H     38.468300   35.867400   51.692100
  H     37.348900   34.690500   51.042400
  H     36.697900   36.153900   51.603300
  S     37.488100   31.356600   59.416500
  C     36.292500   31.918600   60.587100
  C     35.524900   32.961800   60.066100
  C     35.929300   33.293100   58.771300
  C     36.832800   32.470700   58.215400
  H     34.739200   33.354300   60.667100
  C     35.163700   34.436700   58.052000
  H     34.097700   34.344800   58.300400
  H     35.200500   34.317900   56.960500
  C     35.596700   35.790900   58.577800
  H     36.712000   35.889400   58.483300
  H     35.152600   36.008300   59.593900
  C     35.105100   36.908300   57.632200
  H     35.693400   36.918000   56.698000
  H     35.352700   37.844400   58.133600
  H     34.004400   36.674200   57.402400
  H     38.086500   30.428700   53.903500
  H     36.157500   31.637100   61.581300

 Total Charge           Charge          ....    0
 Multiplicity           Mult            ....    1
 Number of Electrons    NEL             ....  134
 Basis Dimension        Dim             ....  322

ORBITAL ENERGIES
----------------

  NO   OCC          E(Eh)            E(eV)
   0   2.0000     -88.966764     -2420.9087
   1   2.0000     -88.962525     -2420.7934
   2   2.0000     -10.328776      -281.0603
   3   2.0000     -10.325170      -280.9622
   4   2.0000     -10.316153      -280.7168
   5   2.0000     -10.310311      -280.5578
   6   2.0000     -10.302233      -280.3380
   7   2.0000     -10.298722      -280.2425
   8   2.0000     -10.293088      -280.0892
   9   2.0000     -10.292214      -280.0654
  10   2.0000     -10.291414      -280.0436
  11   2.0000     -10.290682      -280.0237
  12   2.0000     -10.289992      -280.0049
  13   2.0000     -10.286689      -279.9150
  14   2.0000     -10.285277      -279.8766
  15   2.0000     -10.282541      -279.8022
  16   2.0000      -8.081031      -219.8960
  17   2.0000      -8.077914      -219.8112
  18   2.0000      -6.039603      -164.3460
  19   2.0000      -6.036459      -164.2604
  20   2.0000      -6.035637      -164.2380
  21   2.0000      -6.032402      -164.1500
  22   2.0000      -6.031716      -164.1313
  23   2.0000      -6.028508      -164.0440
  24   2.0000      -1.010938       -27.5090
  25   2.0000      -0.989235       -26.9184
  26   2.0000      -0.914392       -24.8819
  27   2.0000      -0.909990       -24.7621
  28   2.0000      -0.871096       -23.7037
  29   2.0000      -0.852356       -23.1938
  30   2.0000      -0.842514       -22.9260
  31   2.0000      -0.816191       -22.2097
  32   2.0000      -0.785361       -21.3708
  33   2.0000      -0.774588       -21.0776
  34   2.0000      -0.710185       -19.3251
  35   2.0000      -0.694756       -18.9053
  36   2.0000      -0.685468       -18.6525
  37   2.0000      -0.666611       -18.1394
  38   2.0000      -0.649251       -17.6670
  39   2.0000      -0.623776       -16.9738
  40   2.0000      -0.595588       -16.2068
  41   2.0000      -0.580602       -15.7990
  42   2.0000      -0.572348       -15.5744
  43   2.0000      -0.565864       -15.3979
  44   2.0000      -0.530842       -14.4449
  45   2.0000      -0.526605       -14.3297
  46   2.0000      -0.515916       -14.0388
  47   2.0000      -0.513535       -13.9740
  48   2.0000      -0.500626       -13.6227
  49   2.0000      -0.495788       -13.4911
  50   2.0000      -0.492488       -13.4013
  51   2.0000      -0.480956       -13.0875
  52   2.0000      -0.474585       -12.9141
  53   2.0000      -0.469693       -12.7810
  54   2.0000      -0.459305       -12.4983
  55   2.0000      -0.450776       -12.2662
  56   2.0000      -0.441011       -12.0005
  57   2.0000      -0.437129       -11.8949
  58   2.0000      -0.433249       -11.7893
  59   2.0000      -0.424745       -11.5579
  60   2.0000      -0.419429       -11.4132
  61   2.0000      -0.416535       -11.3345
  62   2.0000      -0.406535       -11.0624
  63   2.0000      -0.353644        -9.6231
  64   2.0000      -0.335914        -9.1407
  65   2.0000      -0.329352        -8.9621
  66   2.0000      -0.292069        -7.9476
  67   0.0000       0.028614         0.7786
  68   0.0000       0.076975         2.0946
  69   0.0000       0.112018         3.0482
  70   0.0000       0.117462         3.1963
  71   0.0000       0.122446         3.3319

MULLIKEN ATOMIC CHARGES
-----------------------
   0 S :    0.100754
   1 C :   -0.149175
   2 C :   -0.013556
   3 C :   -0.011968
   4 C :   -0.117222
   5 H :    0.003890
   6 C :    0.093842
   7 H :    0.008041
   8 H :    0.027104
   9 C :   -0.112360
  10 H :    0.030907
  11 H :    0.042803
  12 C :   -0.035136
  13 H :    0.033628
  14 H :    0.009029
  15 H :    0.040217
  16 S :    0.101942
  17 C :   -0.067757
  18 C :   -0.037975
  19 C :   -0.008682
  20 C :   -0.150661
  21 H :    0.013129
  22 C :    0.047559
  23 H :    0.022694
  24 H :    0.027076
  25 C :   -0.108624
  26 H :    0.042125
  27 H :    0.048435
  28 C :   -0.064890
  29 H :    0.033408
  30 H :    0.039148
  31 H :    0.043653
  32 H :    0.036539
  33 H :    0.032084
Sum of atomic charges:   -0.0000000

LOEWDIN ATOMIC CHARGES
----------------------
   0 S :    0.400721
   1 C :   -0.174503
   2 C :   -0.062081
   3 C :   -0.070617
   4 C :   -0.191665
   5 H :    0.022768
   6 C :   -0.023571
   7 H :    0.028500
   8 H :    0.024451
   9 C :   -0.037427
  10 H :    0.025103
  11 H :    0.020634
  12 C :   -0.065286
  13 H :    0.032101
  14 H :    0.011419
  15 H :    0.028578
  16 S :    0.392126
  17 C :   -0.164927
  18 C :   -0.062851
  19 C :   -0.053445
  20 C :   -0.193530
  21 H :    0.029710
  22 C :   -0.033547
  23 H :    0.030465
  24 H :    0.027493
  25 C :   -0.048260
  26 H :    0.030108
  27 H :    0.031333
  28 C :   -0.071140
  29 H :    0.022886
  30 H :    0.025992
  31 H :    0.031554
  32 H :    0.019267
  33 H :    0.017642

  Mayer bond orders larger than 0.100000
B(  0-S ,  1-C ) :   1.1285 B(  0-S ,  4-C ) :   1.1455 B(  1-C ,  2-C ) :   1.6327
B(  1-C , 32-H ) :   0.9770 B(  2-C ,  3-C ) :   1.1997 B(  2-C ,  6-C ) :   1.0274
B(  3-C ,  4-C ) :   1.6083 B(  3-C ,  5-H ) :   0.9940 B(  4-C , 20-C ) :   1.0303
B(  6-C ,  7-H ) :   0.9388 B(  6-C ,  8-H ) :   0.9418 B(  6-C ,  9-C ) :   1.0475
B(  9-C , 10-H ) :   0.9634 B(  9-C , 11-H ) :   0.9545 B(  9-C , 12-C ) :   1.0827
B( 12-C , 13-H ) :   0.9733 B( 12-C , 14-H ) :   0.9735 B( 12-C , 15-H ) :   0.9758
B( 16-S , 17-C ) :   1.1496 B( 16-S , 20-C ) :   1.1174 B( 17-C , 18-C ) :   1.6139
B( 17-C , 33-H ) :   0.9725 B( 18-C , 19-C ) :   1.2417 B( 18-C , 21-H ) :   0.9983
B( 19-C , 20-C ) :   1.6188 B( 19-C , 22-C ) :   1.0295 B( 22-C , 23-H ) :   0.9293
B( 22-C , 24-H ) :   0.9422 B( 22-C , 25-C ) :   1.0616 B( 25-C , 26-H ) :   0.9572
B( 25-C , 27-H ) :   0.9532 B( 25-C , 28-C ) :   1.0810 B( 28-C , 29-H ) :   0.9777
B( 28-C , 30-H ) :   0.9742 B( 28-C , 31-H ) :   0.9700

Dispersion correction           -0.013866245
FINAL SINGLE POINT ENERGY     -1339.862979586507

DIPOLE MOMENT
-------------
                                X             Y             Z
Electronic contribution:      6.20028     -28.15296      16.64187
Nuclear contribution   :     -6.43617      28.69573     -16.83692
                        -----------------------------------------
Total Dipole Moment    :     -0.23589       0.54277      -0.19505
                        -----------------------------------------
Magnitude (a.u.)       :      0.62313
Magnitude (Debye)      :      1.58388

Rotational constants in cm-1:     0.017070     0.009529     0.006372
Rotational constants in MHz :   511.756889   285.682269   191.017753

                             ****ORCA TERMINATED NORMALLY****
TOTAL RUN TIME: 0 days 0 hours 0 minutes 35 seconds 417 msec
