                         Program Version 4.2.1 -  RELEASE  -
|  1> ! wB97X-D3 SP def2-SVP
|  2> %pal
|  3> nprocs 16
|  4> end
|  5>
|  6> * xyz 0 1
|  7> S 	 -92.0239 	 55.348 	 126.34
|  8> C 	 -90.6523 	 54.3026 	 125.769
|  9> C 	 -91.1423 	 53.0384 	 125.4
| 10> C 	 -92.5298 	 52.9692 	 125.462
| 11> C 	 -93.121 	 54.1329 	 125.895
| 12> H 	 -93.2175 	 52.1284 	 125.25
| 13> C 	 -90.305 	 51.8772 	 124.873
| 14> H 	 -90.6214 	 51.0138 	 125.512
| 15> H 	 -89.2857 	 52.1907 	 125.219
| 16> C 	 -90.4024 	 51.7011 	 123.36
| 17> H 	 -90.2996 	 52.699 	 123.03
| 18> H 	 -89.3997 	 51.2305 	 123.06
| 19> C 	 -91.477 	 50.8426 	 122.788
| 20> H 	 -91.3749 	 49.8255 	 123.181
| 21> H 	 -92.3739 	 51.3055 	 123.155
| 22> H 	 -91.5399 	 50.8178 	 121.702
| 23> S 	 -95.5892 	 53.3414 	 126.873
| 24> C 	 -96.9649 	 54.3132 	 126.637
| 25> C 	 -96.8178 	 55.1736 	 125.6
| 26> C 	 -95.3945 	 55.372 	 125.341
| 27> C 	 -94.614 	 54.3569 	 125.894
| 28> H 	 -97.6631 	 55.717 	 125.17
| 29> C 	 -94.7855 	 56.4223 	 124.481
| 30> H 	 -94.1545 	 57.1066 	 125.045
| 31> H 	 -95.5944 	 57.1023 	 124.264
| 32> C 	 -94.103 	 56.0702 	 123.131
| 33> H 	 -94.7982 	 55.4058 	 122.667
| 34> H 	 -93.1527 	 55.5383 	 123.344
| 35> C 	 -93.9345 	 57.3122 	 122.305
| 36> H 	 -93.7084 	 57.0127 	 121.263
| 37> H 	 -93.0579 	 57.8204 	 122.672
| 38> H 	 -94.8672 	 57.9293 	 122.403
| 39> H 	 -89.5934 	 54.6131 	 125.668
| 40> H 	 -97.9275 	 53.989 	 127.005
| 41> *
| 42>
| 43>                          ****END OF INPUT****

CARTESIAN COORDINATES (ANGSTROEM)
---------------------------------
  S    -92.023900   55.348000  126.340000
  C    -90.652300   54.302600  125.769000
  C    -91.142300   53.038400  125.400000
  C    -92.529800   52.969200  125.462000
  C    -93.121000   54.132900  125.895000
  H    -93.217500   52.128400  125.250000
  C    -90.305000   51.877200  124.873000
  H    -90.621400   51.013800  125.512000
  H    -89.285700   52.190700  125.219000
  C    -90.402400   51.701100  123.360000
  H    -90.299600   52.699000  123.030000
  H    -89.399700   51.230500  123.060000
  C    -91.477000   50.842600  122.788000
  H    -91.374900   49.825500  123.181000
  H    -92.373900   51.305500  123.155000
  H    -91.539900   50.817800  121.702000
  S    -95.589200   53.341400  126.873000
  C    -96.964900   54.313200  126.637000
  C    -96.817800   55.173600  125.600000
  C    -95.394500   55.372000  125.341000
  C    -94.614000   54.356900  125.894000
  H    -97.663100   55.717000  125.170000
  C    -94.785500   56.422300  124.481000
  H    -94.154500   57.106600  125.045000
  H    -95.594400   57.102300  124.264000
  C    -94.103000   56.070200  123.131000
  H    -94.798200   55.405800  122.667000
  H    -93.152700   55.538300  123.344000
  C    -93.934500   57.312200  122.305000
  H    -93.708400   57.012700  121.263000
  H    -93.057900   57.820400  122.672000
  H    -94.867200   57.929300  122.403000
  H    -89.593400   54.613100  125.668000
  H    -97.927500   53.989000  127.005000

 Total Charge           Charge          ....    0
 Multiplicity           Mult            ....    1
 Number of Electrons    NEL             ....  134
 Basis Dimension        Dim             ....  322

ORBITAL ENERGIES
----------------

  NO   OCC          E(Eh)            E(eV)
   0   2.0000     -88.971561     -2421.0392
   1   2.0000     -88.961459     -2420.7644
   2   2.0000     -10.328627      -281.0562
   3   2.0000     -10.323108      -280.9060
   4   2.0000     -10.320954      -280.8474
   5   2.0000     -10.310099      -280.5520
   6   2.0000     -10.303514      -280.3729
   7   2.0000     -10.300877      -280.3011
   8   2.0000     -10.298117      -280.2260
   9   2.0000     -10.297519      -280.2097
  10   2.0000     -10.289064      -279.9797
  11   2.0000     -10.286019      -279.8968
  12   2.0000     -10.281136      -279.7639
  13   2.0000     -10.277900      -279.6759
  14   2.0000     -10.277299      -279.6595
  15   2.0000     -10.276941      -279.6498
  16   2.0000      -8.085542      -220.0188
  17   2.0000      -8.077984      -219.8131
  18   2.0000      -6.044007      -164.4658
  19   2.0000      -6.040169      -164.3614
  20   2.0000      -6.036376      -164.2582
  21   2.0000      -6.036347      -164.2573
  22   2.0000      -6.032224      -164.1452
  23   2.0000      -6.028815      -164.0524
  24   2.0000      -1.012114       -27.5410
  25   2.0000      -0.990196       -26.9446
  26   2.0000      -0.917434       -24.9646
  27   2.0000      -0.910237       -24.7688
  28   2.0000      -0.867561       -23.6075
  29   2.0000      -0.854277       -23.2461
  30   2.0000      -0.848587       -23.0912
  31   2.0000      -0.816707       -22.2237
  32   2.0000      -0.784831       -21.3563
  33   2.0000      -0.768022       -20.8989
  34   2.0000      -0.700981       -19.0747
  35   2.0000      -0.700347       -19.0574
  36   2.0000      -0.686255       -18.6739
  37   2.0000      -0.663678       -18.0596
  38   2.0000      -0.633704       -17.2440
  39   2.0000      -0.615532       -16.7495
  40   2.0000      -0.597606       -16.2617
  41   2.0000      -0.574646       -15.6369
  42   2.0000      -0.567467       -15.4416
  43   2.0000      -0.549700       -14.9581
  44   2.0000      -0.542255       -14.7555
  45   2.0000      -0.523767       -14.2524
  46   2.0000      -0.515383       -14.0243
  47   2.0000      -0.509867       -13.8742
  48   2.0000      -0.505039       -13.7428
  49   2.0000      -0.497745       -13.5443
  50   2.0000      -0.488015       -13.2796
  51   2.0000      -0.484043       -13.1715
  52   2.0000      -0.471110       -12.8196
  53   2.0000      -0.463861       -12.6223
  54   2.0000      -0.457632       -12.4528
  55   2.0000      -0.453198       -12.3321
  56   2.0000      -0.450779       -12.2663
  57   2.0000      -0.437916       -11.9163
  58   2.0000      -0.427896       -11.6436
  59   2.0000      -0.427025       -11.6200
  60   2.0000      -0.421414       -11.4673
  61   2.0000      -0.412044       -11.2123
  62   2.0000      -0.400193       -10.8898
  63   2.0000      -0.342316        -9.3149
  64   2.0000      -0.337232        -9.1766
  65   2.0000      -0.323382        -8.7997
  66   2.0000      -0.295654        -8.0452
  67   0.0000       0.033710         0.9173
  68   0.0000       0.069643         1.8951
  69   0.0000       0.108907         2.9635
  70   0.0000       0.115057         3.1309
  71   0.0000       0.128736         3.5031

MULLIKEN ATOMIC CHARGES
-----------------------
   0 S :    0.124142
   1 C :   -0.165578
   2 C :   -0.088165
   3 C :   -0.000087
   4 C :   -0.140836
   5 H :    0.027629
   6 C :    0.041787
   7 H :    0.041538
   8 H :    0.024115
   9 C :   -0.059374
  10 H :    0.016798
  11 H :    0.026786
  12 C :    0.000608
  13 H :    0.035056
  14 H :    0.016645
  15 H :    0.041115
  16 S :    0.109771
  17 C :   -0.083028
  18 C :   -0.027855
  19 C :   -0.072047
  20 C :   -0.139862
  21 H :    0.031356
  22 C :    0.036218
  23 H :    0.021815
  24 H :   -0.012908
  25 C :   -0.047038
  26 H :    0.018108
  27 H :    0.047228
  28 C :   -0.046643
  29 H :    0.039169
  30 H :    0.031579
  31 H :    0.038629
  32 H :    0.059279
  33 H :    0.054048
Sum of atomic charges:    0.0000000

LOEWDIN ATOMIC CHARGES
----------------------
   0 S :    0.417354
   1 C :   -0.202398
   2 C :   -0.062184
   3 C :   -0.083162
   4 C :   -0.201260
   5 H :    0.035973
   6 C :   -0.031937
   7 H :    0.035656
   8 H :    0.035541
   9 C :   -0.045340
  10 H :    0.020216
  11 H :    0.028864
  12 C :   -0.060294
  13 H :    0.030493
  14 H :    0.022095
  15 H :    0.031012
  16 S :    0.435616
  17 C :   -0.197417
  18 C :   -0.068162
  19 C :   -0.057699
  20 C :   -0.210688
  21 H :    0.036528
  22 C :   -0.048019
  23 H :    0.026219
  24 H :    0.022805
  25 C :   -0.036400
  26 H :    0.017972
  27 H :    0.028408
  28 C :   -0.064819
  29 H :    0.030276
  30 H :    0.024958
  31 H :    0.030605
  32 H :    0.033750
  33 H :    0.025440

  Mayer bond orders larger than 0.100000
B(  0-S ,  1-C ) :   1.1231 B(  0-S ,  4-C ) :   1.1800 B(  1-C ,  2-C ) :   1.5925
B(  1-C ,  4-C ) :   0.1007 B(  1-C , 32-H ) :   0.9653 B(  2-C ,  3-C ) :   1.2468
B(  2-C ,  6-C ) :   1.0177 B(  3-C ,  4-C ) :   1.5722 B(  3-C ,  5-H ) :   0.9845
B(  4-C , 20-C ) :   0.9792 B(  6-C ,  7-H ) :   0.9417 B(  6-C ,  8-H ) :   0.9373
B(  6-C ,  9-C ) :   1.0546 B(  9-C , 10-H ) :   0.9512 B(  9-C , 11-H ) :   0.9542
B(  9-C , 12-C ) :   1.0753 B( 12-C , 13-H ) :   0.9714 B( 12-C , 14-H ) :   0.9711
B( 12-C , 15-H ) :   0.9689 B( 16-S , 17-C ) :   1.1790 B( 16-S , 20-C ) :   1.1528
B( 17-C , 18-C ) :   1.6119 B( 17-C , 33-H ) :   0.9614 B( 18-C , 19-C ) :   1.2302
B( 18-C , 21-H ) :   0.9854 B( 19-C , 20-C ) :   1.5912 B( 19-C , 22-C ) :   1.0649
B( 22-C , 23-H ) :   0.9225 B( 22-C , 24-H ) :   0.9204 B( 22-C , 25-C ) :   1.0573
B( 25-C , 26-H ) :   0.9555 B( 25-C , 27-H ) :   0.9492 B( 25-C , 28-C ) :   1.0866
B( 28-C , 29-H ) :   0.9725 B( 28-C , 30-H ) :   0.9750 B( 28-C , 31-H ) :   0.9725

Dispersion correction           -0.015064214
FINAL SINGLE POINT ENERGY     -1339.868588332505

DIPOLE MOMENT
-------------
                                X             Y             Z
Electronic contribution:     -8.13259       1.69301      21.80368
Nuclear contribution   :      8.14058      -1.76802     -22.29059
                        -----------------------------------------
Total Dipole Moment    :      0.00799      -0.07502      -0.48691
                        -----------------------------------------
Magnitude (a.u.)       :      0.49272
Magnitude (Debye)      :      1.25240

Rotational constants in cm-1:     0.017231     0.009371     0.008128
Rotational constants in MHz :   516.568946   280.943040   243.667220

                             ****ORCA TERMINATED NORMALLY****
TOTAL RUN TIME: 0 days 0 hours 0 minutes 32 seconds 424 msec
