                         Program Version 4.2.1 -  RELEASE  -
|  1> ! wB97X-D3 SP def2-SVP
|  2> %pal
|  3> nprocs 16
|  4> end
|  5>
|  6> * xyz 0 1
|  7> S 	 -114.195 	 47.443 	 135.635
|  8> C 	 -114.065 	 46.5187 	 134.157
|  9> C 	 -114.392 	 47.2794 	 133.04
| 10> C 	 -114.817 	 48.5929 	 133.39
| 11> C 	 -114.832 	 48.8809 	 134.763
| 12> H 	 -115.15 	 49.2582 	 132.577
| 13> C 	 -114.601 	 46.7917 	 131.637
| 14> H 	 -113.567 	 46.4824 	 131.313
| 15> H 	 -114.764 	 47.6237 	 130.963
| 16> C 	 -115.6 	 45.6166 	 131.42
| 17> H 	 -115.612 	 45.3534 	 130.382
| 18> H 	 -115.169 	 44.8388 	 132.024
| 19> C 	 -117.046 	 45.999 	 131.761
| 20> H 	 -117.606 	 45.0975 	 131.875
| 21> H 	 -117.2 	 46.7093 	 132.637
| 22> H 	 -117.672 	 46.4496 	 131.003
| 23> S 	 -116.889 	 49.8353 	 136.217
| 24> C 	 -117.037 	 51.4786 	 136.648
| 25> C 	 -116.091 	 52.2261 	 135.986
| 26> C 	 -115.118 	 51.4092 	 135.279
| 27> C 	 -115.358 	 50.0683 	 135.383
| 28> H 	 -116.082 	 53.3094 	 136.065
| 29> C 	 -114.093 	 52.1282 	 134.407
| 30> H 	 -113.188 	 51.5362 	 134.296
| 31> H 	 -113.869 	 53.088 	 134.857
| 32> C 	 -114.536 	 52.5377 	 133.012
| 33> H 	 -115.256 	 53.2573 	 133.193
| 34> H 	 -115.111 	 51.7167 	 132.583
| 35> C 	 -113.509 	 53.1376 	 132.07
| 36> H 	 -113.923 	 53.4825 	 131.057
| 37> H 	 -112.662 	 52.5482 	 131.828
| 38> H 	 -113.083 	 54.0703 	 132.437
| 39> H 	 -113.704 	 45.5245 	 134.078
| 40> H 	 -117.728 	 51.8021 	 137.367
| 41> *
| 42>
| 43>                          ****END OF INPUT****

CARTESIAN COORDINATES (ANGSTROEM)
---------------------------------
  S    -114.195000   47.443000  135.635000
  C    -114.065000   46.518700  134.157000
  C    -114.392000   47.279400  133.040000
  C    -114.817000   48.592900  133.390000
  C    -114.832000   48.880900  134.763000
  H    -115.150000   49.258200  132.577000
  C    -114.601000   46.791700  131.637000
  H    -113.567000   46.482400  131.313000
  H    -114.764000   47.623700  130.963000
  C    -115.600000   45.616600  131.420000
  H    -115.612000   45.353400  130.382000
  H    -115.169000   44.838800  132.024000
  C    -117.046000   45.999000  131.761000
  H    -117.606000   45.097500  131.875000
  H    -117.200000   46.709300  132.637000
  H    -117.672000   46.449600  131.003000
  S    -116.889000   49.835300  136.217000
  C    -117.037000   51.478600  136.648000
  C    -116.091000   52.226100  135.986000
  C    -115.118000   51.409200  135.279000
  C    -115.358000   50.068300  135.383000
  H    -116.082000   53.309400  136.065000
  C    -114.093000   52.128200  134.407000
  H    -113.188000   51.536200  134.296000
  H    -113.869000   53.088000  134.857000
  C    -114.536000   52.537700  133.012000
  H    -115.256000   53.257300  133.193000
  H    -115.111000   51.716700  132.583000
  C    -113.509000   53.137600  132.070000
  H    -113.923000   53.482500  131.057000
  H    -112.662000   52.548200  131.828000
  H    -113.083000   54.070300  132.437000
  H    -113.704000   45.524500  134.078000
  H    -117.728000   51.802100  137.367000

 Total Charge           Charge          ....    0
 Multiplicity           Mult            ....    1
 Number of Electrons    NEL             ....  134
 Basis Dimension        Dim             ....  322

ORBITAL ENERGIES
----------------

  NO   OCC          E(Eh)            E(eV)
   0   2.0000     -88.969841     -2420.9925
   1   2.0000     -88.958482     -2420.6834
   2   2.0000     -10.334186      -281.2075
   3   2.0000     -10.324710      -280.9497
   4   2.0000     -10.315248      -280.6922
   5   2.0000     -10.312062      -280.6055
   6   2.0000     -10.306020      -280.4411
   7   2.0000     -10.298249      -280.2296
   8   2.0000     -10.297931      -280.2210
   9   2.0000     -10.294473      -280.1269
  10   2.0000     -10.293154      -280.0909
  11   2.0000     -10.290120      -280.0084
  12   2.0000     -10.287316      -279.9321
  13   2.0000     -10.281403      -279.7712
  14   2.0000     -10.277964      -279.6776
  15   2.0000     -10.275456      -279.6094
  16   2.0000      -8.083502      -219.9633
  17   2.0000      -8.074576      -219.7204
  18   2.0000      -6.042088      -164.4136
  19   2.0000      -6.038071      -164.3043
  20   2.0000      -6.034313      -164.2020
  21   2.0000      -6.033014      -164.1666
  22   2.0000      -6.028894      -164.0546
  23   2.0000      -6.025305      -163.9569
  24   2.0000      -1.007098       -27.4045
  25   2.0000      -0.983416       -26.7601
  26   2.0000      -0.912932       -24.8422
  27   2.0000      -0.909499       -24.7487
  28   2.0000      -0.871449       -23.7133
  29   2.0000      -0.850509       -23.1435
  30   2.0000      -0.846686       -23.0395
  31   2.0000      -0.811425       -22.0800
  32   2.0000      -0.784086       -21.3361
  33   2.0000      -0.775488       -21.1021
  34   2.0000      -0.712087       -19.3769
  35   2.0000      -0.706220       -19.2172
  36   2.0000      -0.697444       -18.9784
  37   2.0000      -0.667508       -18.1638
  38   2.0000      -0.637637       -17.3510
  39   2.0000      -0.614402       -16.7187
  40   2.0000      -0.598207       -16.2780
  41   2.0000      -0.576179       -15.6786
  42   2.0000      -0.569851       -15.5064
  43   2.0000      -0.549517       -14.9531
  44   2.0000      -0.543057       -14.7773
  45   2.0000      -0.523082       -14.2338
  46   2.0000      -0.516842       -14.0640
  47   2.0000      -0.509171       -13.8552
  48   2.0000      -0.505515       -13.7558
  49   2.0000      -0.499916       -13.6034
  50   2.0000      -0.490444       -13.3457
  51   2.0000      -0.480699       -13.0805
  52   2.0000      -0.476776       -12.9737
  53   2.0000      -0.465509       -12.6671
  54   2.0000      -0.462362       -12.5815
  55   2.0000      -0.450897       -12.2695
  56   2.0000      -0.441007       -12.0004
  57   2.0000      -0.431262       -11.7352
  58   2.0000      -0.425097       -11.5675
  59   2.0000      -0.424386       -11.5481
  60   2.0000      -0.420341       -11.4381
  61   2.0000      -0.415640       -11.3101
  62   2.0000      -0.412249       -11.2179
  63   2.0000      -0.339820        -9.2470
  64   2.0000      -0.329176        -8.9573
  65   2.0000      -0.324187        -8.8216
  66   2.0000      -0.302140        -8.2216
  67   0.0000       0.028550         0.7769
  68   0.0000       0.064000         1.7415
  69   0.0000       0.112507         3.0615
  70   0.0000       0.119388         3.2487
  71   0.0000       0.131425         3.5763

MULLIKEN ATOMIC CHARGES
-----------------------
   0 S :    0.125202
   1 C :   -0.117635
   2 C :   -0.091935
   3 C :    0.036117
   4 C :   -0.163838
   5 H :    0.022057
   6 C :    0.024269
   7 H :    0.031161
   8 H :    0.011983
   9 C :   -0.002989
  10 H :    0.029883
  11 H :    0.026452
  12 C :   -0.073992
  13 H :    0.023413
  14 H :    0.055241
  15 H :    0.020880
  16 S :    0.096416
  17 C :   -0.067047
  18 C :   -0.044929
  19 C :   -0.031634
  20 C :   -0.154800
  21 H :    0.022190
  22 C :    0.074098
  23 H :    0.025462
  24 H :    0.008918
  25 C :   -0.022739
  26 H :   -0.003416
  27 H :    0.016810
  28 C :   -0.044774
  29 H :    0.038229
  30 H :    0.026237
  31 H :    0.018965
  32 H :    0.039699
  33 H :    0.046046
Sum of atomic charges:   -0.0000000

LOEWDIN ATOMIC CHARGES
----------------------
   0 S :    0.401299
   1 C :   -0.190090
   2 C :   -0.072080
   3 C :   -0.052906
   4 C :   -0.196245
   5 H :    0.033855
   6 C :   -0.039081
   7 H :    0.036700
   8 H :    0.023880
   9 C :   -0.027218
  10 H :    0.027445
  11 H :    0.022449
  12 C :   -0.078920
  13 H :    0.024843
  14 H :    0.036835
  15 H :    0.024826
  16 S :    0.418826
  17 C :   -0.182624
  18 C :   -0.074976
  19 C :   -0.050106
  20 C :   -0.199506
  21 H :    0.030754
  22 C :   -0.026486
  23 H :    0.028152
  24 H :    0.027466
  25 C :   -0.039587
  26 H :    0.014776
  27 H :    0.020496
  28 C :   -0.067490
  29 H :    0.038288
  30 H :    0.018513
  31 H :    0.024377
  32 H :    0.022500
  33 H :    0.021036

  Mayer bond orders larger than 0.100000
B(  0-S ,  1-C ) :   1.1522 B(  0-S ,  4-C ) :   1.1426 B(  1-C ,  2-C ) :   1.5834
B(  1-C ,  4-C ) :   0.1033 B(  1-C , 32-H ) :   0.9699 B(  2-C ,  3-C ) :   1.2791
B(  2-C ,  6-C ) :   1.0264 B(  3-C ,  4-C ) :   1.5469 B(  3-C ,  5-H ) :   0.9844
B(  4-C , 20-C ) :   1.0404 B(  6-C ,  7-H ) :   0.9309 B(  6-C ,  8-H ) :   0.9443
B(  6-C ,  9-C ) :   1.0729 B(  9-C , 10-H ) :   0.9515 B(  9-C , 11-H ) :   0.9587
B(  9-C , 12-C ) :   1.0668 B( 12-C , 13-H ) :   0.9715 B( 12-C , 14-H ) :   0.9779
B( 12-C , 15-H ) :   0.9736 B( 16-S , 17-C ) :   1.1727 B( 16-S , 20-C ) :   1.1409
B( 17-C , 18-C ) :   1.5878 B( 17-C , 33-H ) :   0.9774 B( 18-C , 19-C ) :   1.2273
B( 18-C , 21-H ) :   0.9927 B( 19-C , 20-C ) :   1.6148 B( 19-C , 22-C ) :   1.0675
B( 22-C , 23-H ) :   0.9350 B( 22-C , 24-H ) :   0.9299 B( 22-C , 25-C ) :   1.0629
B( 25-C , 26-H ) :   0.9453 B( 25-C , 27-H ) :   0.9514 B( 25-C , 28-C ) :   1.0847
B( 28-C , 29-H ) :   0.9715 B( 28-C , 30-H ) :   0.9771 B( 28-C , 31-H ) :   0.9705

Dispersion correction           -0.014491623
FINAL SINGLE POINT ENERGY     -1339.870055592416

DIPOLE MOMENT
-------------
                                X             Y             Z
Electronic contribution:     -2.12127      -4.82169      24.00346
Nuclear contribution   :      2.07923       5.02923     -24.63531
                        -----------------------------------------
Total Dipole Moment    :     -0.04204       0.20753      -0.63185
                        -----------------------------------------
Magnitude (a.u.)       :      0.66639
Magnitude (Debye)      :      1.69383

Rotational constants in cm-1:     0.017263     0.008906     0.007284
Rotational constants in MHz :   517.542590   267.000330   218.365429

                             ****ORCA TERMINATED NORMALLY****
TOTAL RUN TIME: 0 days 0 hours 0 minutes 33 seconds 430 msec
