                         Program Version 4.2.1 -  RELEASE  -
|  1> ! wB97X-D3 SP def2-SVP
|  2> %pal
|  3> nprocs 16
|  4> end
|  5>
|  6> * xyz 0 1
|  7> S 	 3.55489 	 -9.99028 	 99.0925
|  8> C 	 4.59772 	 -8.79947 	 98.4075
|  9> C 	 5.63188 	 -9.33987 	 97.6762
| 10> C 	 5.57724 	 -10.8024 	 97.7605
| 11> C 	 4.55342 	 -11.3305 	 98.5736
| 12> H 	 6.24707 	 -11.4777 	 97.3085
| 13> C 	 6.71782 	 -8.65237 	 96.9555
| 14> H 	 6.42686 	 -7.64961 	 96.7244
| 15> H 	 6.79256 	 -9.17616 	 95.9922
| 16> C 	 8.12055 	 -8.77949 	 97.6462
| 17> H 	 7.98071 	 -8.27952 	 98.5915
| 18> H 	 8.49918 	 -9.7877 	 97.7944
| 19> C 	 9.22284 	 -8.05952 	 96.8614
| 20> H 	 9.05217 	 -6.99195 	 96.8063
| 21> H 	 10.2479 	 -8.3622 	 97.1567
| 22> H 	 9.12507 	 -8.40909 	 95.8523
| 23> S 	 2.95496 	 -13.4491 	 98.327
| 24> C 	 3.40371 	 -15.0173 	 98.8492
| 25> C 	 4.55336 	 -15.0086 	 99.613
| 26> C 	 5.1793 	 -13.7139 	 99.6081
| 27> C 	 4.38432 	 -12.7388 	 98.9734
| 28> H 	 4.79701 	 -15.8846 	 100.191
| 29> C 	 6.45345 	 -13.5071 	 100.431
| 30> H 	 6.66765 	 -14.4923 	 100.852
| 31> H 	 6.21524 	 -12.9334 	 101.261
| 32> C 	 7.76824 	 -12.9481 	 99.752
| 33> H 	 7.52864 	 -11.9555 	 99.3724
| 34> H 	 8.19247 	 -13.4871 	 98.9112
| 35> C 	 8.91159 	 -12.7437 	 100.801
| 36> H 	 8.77089 	 -11.9446 	 101.555
| 37> H 	 9.76241 	 -12.3868 	 100.288
| 38> H 	 9.3043 	 -13.5321 	 101.354
| 39> H 	 4.36753 	 -7.76993 	 98.4547
| 40> H 	 2.71888 	 -15.8447 	 98.7164
| 41> *
| 42>
| 43>                          ****END OF INPUT****

CARTESIAN COORDINATES (ANGSTROEM)
---------------------------------
  S      3.554890   -9.990280   99.092500
  C      4.597720   -8.799470   98.407500
  C      5.631880   -9.339870   97.676200
  C      5.577240  -10.802400   97.760500
  C      4.553420  -11.330500   98.573600
  H      6.247070  -11.477700   97.308500
  C      6.717820   -8.652370   96.955500
  H      6.426860   -7.649610   96.724400
  H      6.792560   -9.176160   95.992200
  C      8.120550   -8.779490   97.646200
  H      7.980710   -8.279520   98.591500
  H      8.499180   -9.787700   97.794400
  C      9.222840   -8.059520   96.861400
  H      9.052170   -6.991950   96.806300
  H     10.247900   -8.362200   97.156700
  H      9.125070   -8.409090   95.852300
  S      2.954960  -13.449100   98.327000
  C      3.403710  -15.017300   98.849200
  C      4.553360  -15.008600   99.613000
  C      5.179300  -13.713900   99.608100
  C      4.384320  -12.738800   98.973400
  H      4.797010  -15.884600  100.191000
  C      6.453450  -13.507100  100.431000
  H      6.667650  -14.492300  100.852000
  H      6.215240  -12.933400  101.261000
  C      7.768240  -12.948100   99.752000
  H      7.528640  -11.955500   99.372400
  H      8.192470  -13.487100   98.911200
  C      8.911590  -12.743700  100.801000
  H      8.770890  -11.944600  101.555000
  H      9.762410  -12.386800  100.288000
  H      9.304300  -13.532100  101.354000
  H      4.367530   -7.769930   98.454700
  H      2.718880  -15.844700   98.716400

 Total Charge           Charge          ....    0
 Multiplicity           Mult            ....    1
 Number of Electrons    NEL             ....  134
 Basis Dimension        Dim             ....  322

ORBITAL ENERGIES
----------------

  NO   OCC          E(Eh)            E(eV)
   0   2.0000     -88.963865     -2420.8298
   1   2.0000     -88.962350     -2420.7886
   2   2.0000     -10.331586      -281.1368
   3   2.0000     -10.327421      -281.0234
   4   2.0000     -10.313732      -280.6509
   5   2.0000     -10.309831      -280.5448
   6   2.0000     -10.309477      -280.5351
   7   2.0000     -10.301540      -280.3192
   8   2.0000     -10.294186      -280.1190
   9   2.0000     -10.293422      -280.0982
  10   2.0000     -10.292883      -280.0836
  11   2.0000     -10.291885      -280.0564
  12   2.0000     -10.288865      -279.9743
  13   2.0000     -10.288494      -279.9642
  14   2.0000     -10.277553      -279.6664
  15   2.0000     -10.269891      -279.4579
  16   2.0000      -8.079042      -219.8419
  17   2.0000      -8.078638      -219.8309
  18   2.0000      -6.037644      -164.2926
  19   2.0000      -6.036963      -164.2741
  20   2.0000      -6.033345      -164.1757
  21   2.0000      -6.032736      -164.1591
  22   2.0000      -6.029832      -164.0801
  23   2.0000      -6.029694      -164.0763
  24   2.0000      -1.007062       -27.4035
  25   2.0000      -0.985819       -26.8255
  26   2.0000      -0.913846       -24.8670
  27   2.0000      -0.899571       -24.4786
  28   2.0000      -0.870676       -23.6923
  29   2.0000      -0.850544       -23.1445
  30   2.0000      -0.848656       -23.0931
  31   2.0000      -0.813956       -22.1489
  32   2.0000      -0.782447       -21.2915
  33   2.0000      -0.772705       -21.0264
  34   2.0000      -0.712549       -19.3894
  35   2.0000      -0.704683       -19.1754
  36   2.0000      -0.692129       -18.8338
  37   2.0000      -0.663851       -18.0643
  38   2.0000      -0.646967       -17.6049
  39   2.0000      -0.618686       -16.8353
  40   2.0000      -0.595104       -16.1936
  41   2.0000      -0.571050       -15.5391
  42   2.0000      -0.566858       -15.4250
  43   2.0000      -0.555612       -15.1190
  44   2.0000      -0.528927       -14.3928
  45   2.0000      -0.518839       -14.1183
  46   2.0000      -0.515339       -14.0231
  47   2.0000      -0.509847       -13.8736
  48   2.0000      -0.507913       -13.8210
  49   2.0000      -0.503637       -13.7047
  50   2.0000      -0.493358       -13.4249
  51   2.0000      -0.480712       -13.0809
  52   2.0000      -0.473605       -12.8874
  53   2.0000      -0.463689       -12.6176
  54   2.0000      -0.458329       -12.4718
  55   2.0000      -0.450427       -12.2568
  56   2.0000      -0.446878       -12.1602
  57   2.0000      -0.438990       -11.9455
  58   2.0000      -0.436505       -11.8779
  59   2.0000      -0.424273       -11.5450
  60   2.0000      -0.423630       -11.5276
  61   2.0000      -0.418086       -11.3767
  62   2.0000      -0.415067       -11.2945
  63   2.0000      -0.341397        -9.2899
  64   2.0000      -0.327094        -8.9007
  65   2.0000      -0.323625        -8.8063
  66   2.0000      -0.299056        -8.1377
  67   0.0000       0.038414         1.0453
  68   0.0000       0.065414         1.7800
  69   0.0000       0.114627         3.1192
  70   0.0000       0.121457         3.3050
  71   0.0000       0.131671         3.5830

MULLIKEN ATOMIC CHARGES
-----------------------
   0 S :    0.111502
   1 C :   -0.108916
   2 C :   -0.087982
   3 C :    0.054096
   4 C :   -0.157886
   5 H :   -0.005168
   6 C :    0.079680
   7 H :    0.012342
   8 H :    0.027189
   9 C :   -0.081344
  10 H :    0.030124
  11 H :    0.038970
  12 C :   -0.029736
  13 H :    0.031017
  14 H :    0.041496
  15 H :    0.010135
  16 S :    0.111661
  17 C :   -0.096246
  18 C :   -0.041279
  19 C :   -0.034198
  20 C :   -0.167410
  21 H :    0.025027
  22 C :    0.102796
  23 H :    0.006299
  24 H :    0.024449
  25 C :   -0.071530
  26 H :    0.038921
  27 H :    0.033889
  28 C :   -0.037011
  29 H :    0.025747
  30 H :    0.007989
  31 H :    0.015302
  32 H :    0.032123
  33 H :    0.057952
Sum of atomic charges:   -0.0000000

LOEWDIN ATOMIC CHARGES
----------------------
   0 S :    0.412414
   1 C :   -0.198094
   2 C :   -0.063855
   3 C :   -0.050710
   4 C :   -0.207665
   5 H :    0.019409
   6 C :   -0.031247
   7 H :    0.026630
   8 H :    0.035255
   9 C :   -0.033462
  10 H :    0.022165
  11 H :    0.025772
  12 C :   -0.066588
  13 H :    0.023414
  14 H :    0.030895
  15 H :    0.019824
  16 S :    0.440763
  17 C :   -0.193678
  18 C :   -0.074312
  19 C :   -0.050582
  20 C :   -0.213537
  21 H :    0.033842
  22 C :   -0.023197
  23 H :    0.028532
  24 H :    0.026872
  25 C :   -0.030799
  26 H :    0.025161
  27 H :    0.024670
  28 C :   -0.068898
  29 H :    0.028876
  30 H :    0.021758
  31 H :    0.014175
  32 H :    0.019978
  33 H :    0.026220

  Mayer bond orders larger than 0.100000
B(  0-S ,  1-C ) :   1.1468 B(  0-S ,  4-C ) :   1.1528 B(  1-C ,  2-C ) :   1.6010
B(  1-C , 32-H ) :   0.9740 B(  2-C ,  3-C ) :   1.2231 B(  2-C ,  6-C ) :   1.0498
B(  3-C ,  4-C ) :   1.5786 B(  3-C ,  5-H ) :   0.9991 B(  4-C , 20-C ) :   1.0041
B(  6-C ,  7-H ) :   0.9389 B(  6-C ,  8-H ) :   0.9259 B(  6-C ,  9-C ) :   1.0552
B(  9-C , 10-H ) :   0.9590 B(  9-C , 11-H ) :   0.9559 B(  9-C , 12-C ) :   1.0838
B( 12-C , 13-H ) :   0.9750 B( 12-C , 14-H ) :   0.9748 B( 12-C , 15-H ) :   0.9702
B( 16-S , 17-C ) :   1.1886 B( 16-S , 20-C ) :   1.1711 B( 17-C , 18-C ) :   1.5807
B( 17-C , 20-C ) :   0.1016 B( 17-C , 33-H ) :   0.9669 B( 18-C , 19-C ) :   1.2577
B( 18-C , 21-H ) :   0.9917 B( 19-C , 20-C ) :   1.5769 B( 19-C , 22-C ) :   1.0316
B( 22-C , 23-H ) :   0.9361 B( 22-C , 24-H ) :   0.9397 B( 22-C , 25-C ) :   1.0558
B( 25-C , 26-H ) :   0.9488 B( 25-C , 27-H ) :   0.9615 B( 25-C , 28-C ) :   1.0792
B( 28-C , 29-H ) :   0.9746 B( 28-C , 30-H ) :   0.9703 B( 28-C , 31-H ) :   0.9780

Dispersion correction           -0.014376532
FINAL SINGLE POINT ENERGY     -1339.874370790189

DIPOLE MOMENT
-------------
                                X             Y             Z
Electronic contribution:    -32.00217      -7.10196      -0.38433
Nuclear contribution   :     32.61654       7.09084       0.37635
                        -----------------------------------------
Total Dipole Moment    :      0.61438      -0.01112      -0.00798
                        -----------------------------------------
Magnitude (a.u.)       :      0.61453
Magnitude (Debye)      :      1.56201

Rotational constants in cm-1:     0.017549     0.009258     0.006775
Rotational constants in MHz :   526.114189   277.550755   203.107622

                             ****ORCA TERMINATED NORMALLY****
TOTAL RUN TIME: 0 days 0 hours 0 minutes 34 seconds 23 msec
