                         Program Version 4.2.1 -  RELEASE  -
|  1> ! wB97X-D3 SP def2-SVP
|  2> %pal
|  3> nprocs 16
|  4> end
|  5>
|  6> * xyz 0 1
|  7> S 	 -10.7858 	 -2.44825 	 77.5119
|  8> C 	 -9.43368 	 -2.40602 	 78.6234
|  9> C 	 -9.67143 	 -3.13397 	 79.8
| 10> C 	 -10.948 	 -3.82247 	 79.7967
| 11> C 	 -11.5634 	 -3.62459 	 78.5429
| 12> H 	 -11.3865 	 -4.41579 	 80.5924
| 13> C 	 -8.70338 	 -3.19393 	 80.9592
| 14> H 	 -7.76765 	 -3.77305 	 80.7329
| 15> H 	 -9.21456 	 -3.82227 	 81.7069
| 16> C 	 -8.4121 	 -1.71217 	 81.495
| 17> H 	 -7.85649 	 -1.14731 	 80.6576
| 18> H 	 -9.25349 	 -1.11669 	 81.749
| 19> C 	 -7.55544 	 -1.63281 	 82.7309
| 20> H 	 -6.68087 	 -2.22445 	 82.651
| 21> H 	 -7.38544 	 -0.567196 	 82.9208
| 22> H 	 -8.20915 	 -2.09835 	 83.5105
| 23> S 	 -14.1501 	 -2.83024 	 78.2054
| 24> C 	 -15.3791 	 -4.05487 	 77.9625
| 25> C 	 -14.8119 	 -5.30988 	 77.8651
| 26> C 	 -13.3791 	 -5.352 	 78.162
| 27> C 	 -12.8878 	 -4.079 	 78.2386
| 28> H 	 -15.4899 	 -6.14942 	 77.7212
| 29> C 	 -12.5537 	 -6.6589 	 78.0106
| 30> H 	 -11.5505 	 -6.43267 	 77.736
| 31> H 	 -12.8902 	 -6.91826 	 76.947
| 32> C 	 -12.6766 	 -7.7181 	 79.0373
| 33> H 	 -12.3935 	 -8.66148 	 78.571
| 34> H 	 -13.6892 	 -7.96242 	 79.3126
| 35> C 	 -11.7682 	 -7.42716 	 80.2323
| 36> H 	 -11.9557 	 -8.06645 	 81.0614
| 37> H 	 -11.8893 	 -6.40581 	 80.7072
| 38> H 	 -10.7558 	 -7.52136 	 79.8515
| 39> H 	 -8.69053 	 -1.6806 	 78.5759
| 40> H 	 -16.3723 	 -3.83084 	 77.9435
| 41> *
| 42>
| 43>                          ****END OF INPUT****

CARTESIAN COORDINATES (ANGSTROEM)
---------------------------------
  S    -10.785800   -2.448250   77.511900
  C     -9.433680   -2.406020   78.623400
  C     -9.671430   -3.133970   79.800000
  C    -10.948000   -3.822470   79.796700
  C    -11.563400   -3.624590   78.542900
  H    -11.386500   -4.415790   80.592400
  C     -8.703380   -3.193930   80.959200
  H     -7.767650   -3.773050   80.732900
  H     -9.214560   -3.822270   81.706900
  C     -8.412100   -1.712170   81.495000
  H     -7.856490   -1.147310   80.657600
  H     -9.253490   -1.116690   81.749000
  C     -7.555440   -1.632810   82.730900
  H     -6.680870   -2.224450   82.651000
  H     -7.385440   -0.567196   82.920800
  H     -8.209150   -2.098350   83.510500
  S    -14.150100   -2.830240   78.205400
  C    -15.379100   -4.054870   77.962500
  C    -14.811900   -5.309880   77.865100
  C    -13.379100   -5.352000   78.162000
  C    -12.887800   -4.079000   78.238600
  H    -15.489900   -6.149420   77.721200
  C    -12.553700   -6.658900   78.010600
  H    -11.550500   -6.432670   77.736000
  H    -12.890200   -6.918260   76.947000
  C    -12.676600   -7.718100   79.037300
  H    -12.393500   -8.661480   78.571000
  H    -13.689200   -7.962420   79.312600
  C    -11.768200   -7.427160   80.232300
  H    -11.955700   -8.066450   81.061400
  H    -11.889300   -6.405810   80.707200
  H    -10.755800   -7.521360   79.851500
  H     -8.690530   -1.680600   78.575900
  H    -16.372300   -3.830840   77.943500

 Total Charge           Charge          ....    0
 Multiplicity           Mult            ....    1
 Number of Electrons    NEL             ....  134
 Basis Dimension        Dim             ....  322

ORBITAL ENERGIES
----------------

  NO   OCC          E(Eh)            E(eV)
   0   2.0000     -88.968764     -2420.9631
   1   2.0000     -88.958866     -2420.6938
   2   2.0000     -10.325762      -280.9783
   3   2.0000     -10.318862      -280.7905
   4   2.0000     -10.309597      -280.5384
   5   2.0000     -10.306019      -280.4410
   6   2.0000     -10.304459      -280.3986
   7   2.0000     -10.303015      -280.3593
   8   2.0000     -10.301038      -280.3055
   9   2.0000     -10.298971      -280.2492
  10   2.0000     -10.294314      -280.1225
  11   2.0000     -10.293137      -280.0905
  12   2.0000     -10.291548      -280.0473
  13   2.0000     -10.284628      -279.8590
  14   2.0000     -10.279110      -279.7088
  15   2.0000     -10.275472      -279.6098
  16   2.0000      -8.083278      -219.9572
  17   2.0000      -8.073702      -219.6966
  18   2.0000      -6.041609      -164.4005
  19   2.0000      -6.037901      -164.2996
  20   2.0000      -6.034179      -164.1984
  21   2.0000      -6.032295      -164.1471
  22   2.0000      -6.028249      -164.0370
  23   2.0000      -6.024325      -163.9302
  24   2.0000      -1.002393       -27.2765
  25   2.0000      -0.976055       -26.5598
  26   2.0000      -0.913236       -24.8504
  27   2.0000      -0.906482       -24.6666
  28   2.0000      -0.868303       -23.6277
  29   2.0000      -0.853864       -23.2348
  30   2.0000      -0.844984       -22.9932
  31   2.0000      -0.809983       -22.0408
  32   2.0000      -0.781907       -21.2768
  33   2.0000      -0.768562       -20.9136
  34   2.0000      -0.709474       -19.3058
  35   2.0000      -0.701768       -19.0961
  36   2.0000      -0.690813       -18.7980
  37   2.0000      -0.658325       -17.9139
  38   2.0000      -0.642186       -17.4748
  39   2.0000      -0.612237       -16.6598
  40   2.0000      -0.600021       -16.3274
  41   2.0000      -0.562945       -15.3185
  42   2.0000      -0.557346       -15.1662
  43   2.0000      -0.554785       -15.0965
  44   2.0000      -0.542006       -14.7487
  45   2.0000      -0.534115       -14.5340
  46   2.0000      -0.520209       -14.1556
  47   2.0000      -0.510761       -13.8985
  48   2.0000      -0.507629       -13.8133
  49   2.0000      -0.492974       -13.4145
  50   2.0000      -0.484888       -13.1945
  51   2.0000      -0.477333       -12.9889
  52   2.0000      -0.470197       -12.7947
  53   2.0000      -0.463959       -12.6250
  54   2.0000      -0.454295       -12.3620
  55   2.0000      -0.447834       -12.1862
  56   2.0000      -0.442559       -12.0426
  57   2.0000      -0.441447       -12.0124
  58   2.0000      -0.436098       -11.8668
  59   2.0000      -0.423833       -11.5331
  60   2.0000      -0.417554       -11.3622
  61   2.0000      -0.411196       -11.1892
  62   2.0000      -0.408312       -11.1107
  63   2.0000      -0.338848        -9.2205
  64   2.0000      -0.327806        -8.9201
  65   2.0000      -0.324144        -8.8204
  66   2.0000      -0.294179        -8.0050
  67   0.0000       0.035307         0.9607
  68   0.0000       0.063492         1.7277
  69   0.0000       0.111654         3.0383
  70   0.0000       0.121487         3.3058
  71   0.0000       0.124753         3.3947

MULLIKEN ATOMIC CHARGES
-----------------------
   0 S :    0.117207
   1 C :   -0.086307
   2 C :   -0.098738
   3 C :    0.043913
   4 C :   -0.173077
   5 H :    0.024304
   6 C :    0.056057
   7 H :    0.054665
   8 H :    0.015096
   9 C :   -0.134302
  10 H :    0.035110
  11 H :    0.033694
  12 C :   -0.015883
  13 H :    0.022867
  14 H :    0.042498
  15 H :    0.028546
  16 S :    0.093896
  17 C :   -0.063983
  18 C :   -0.027360
  19 C :   -0.024937
  20 C :   -0.163632
  21 H :    0.021451
  22 C :    0.021862
  23 H :    0.013466
  24 H :    0.038633
  25 C :   -0.004427
  26 H :    0.021576
  27 H :    0.015793
  28 C :   -0.040280
  29 H :    0.025442
  30 H :    0.024694
  31 H :    0.035291
  32 H :    0.024422
  33 H :    0.022445
Sum of atomic charges:   -0.0000000

LOEWDIN ATOMIC CHARGES
----------------------
   0 S :    0.415647
   1 C :   -0.197508
   2 C :   -0.055265
   3 C :   -0.052633
   4 C :   -0.197130
   5 H :    0.031932
   6 C :   -0.037063
   7 H :    0.040641
   8 H :    0.026919
   9 C :   -0.041159
  10 H :    0.025167
  11 H :    0.022514
  12 C :   -0.063552
  13 H :    0.015783
  14 H :    0.030933
  15 H :    0.029072
  16 S :    0.381518
  17 C :   -0.166400
  18 C :   -0.069092
  19 C :   -0.054290
  20 C :   -0.196661
  21 H :    0.030130
  22 C :   -0.034006
  23 H :    0.026775
  24 H :    0.045107
  25 C :   -0.042881
  26 H :    0.029834
  27 H :    0.021329
  28 C :   -0.060668
  29 H :    0.020587
  30 H :    0.028252
  31 H :    0.028117
  32 H :    0.009308
  33 H :    0.008740

  Mayer bond orders larger than 0.100000
B(  0-S ,  1-C ) :   1.1349 B(  0-S ,  4-C ) :   1.1694 B(  1-C ,  2-C ) :   1.6010
B(  1-C , 32-H ) :   0.9739 B(  2-C ,  3-C ) :   1.2512 B(  2-C ,  6-C ) :   1.0247
B(  3-C ,  4-C ) :   1.5529 B(  3-C ,  5-H ) :   0.9848 B(  4-C , 20-C ) :   1.0309
B(  6-C ,  7-H ) :   0.9402 B(  6-C ,  8-H ) :   0.9441 B(  6-C ,  9-C ) :   1.0414
B(  9-C , 10-H ) :   0.9552 B(  9-C , 11-H ) :   0.9644 B(  9-C , 12-C ) :   1.0876
B( 12-C , 13-H ) :   0.9731 B( 12-C , 14-H ) :   0.9729 B( 12-C , 15-H ) :   0.9746
B( 16-S , 17-C ) :   1.1365 B( 16-S , 20-C ) :   1.1268 B( 17-C , 18-C ) :   1.6455
B( 17-C , 33-H ) :   0.9821 B( 18-C , 19-C ) :   1.1906 B( 18-C , 21-H ) :   0.9848
B( 19-C , 20-C ) :   1.6435 B( 19-C , 22-C ) :   1.0222 B( 22-C , 23-H ) :   0.9402
B( 22-C , 24-H ) :   0.9410 B( 22-C , 25-C ) :   1.0625 B( 25-C , 26-H ) :   0.9460
B( 25-C , 27-H ) :   0.9564 B( 25-C , 28-C ) :   1.0713 B( 28-C , 29-H ) :   0.9689
B( 28-C , 30-H ) :   0.9740 B( 28-C , 31-H ) :   0.9754

Dispersion correction           -0.014573301
FINAL SINGLE POINT ENERGY     -1339.861408249024

DIPOLE MOMENT
-------------
                                X             Y             Z
Electronic contribution:    -14.91062      11.58775     -18.39468
Nuclear contribution   :     15.02398     -12.00795      18.81409
                        -----------------------------------------
Total Dipole Moment    :      0.11335      -0.42020       0.41940
                        -----------------------------------------
Magnitude (a.u.)       :      0.60441
Magnitude (Debye)      :      1.53629

Rotational constants in cm-1:     0.020011     0.008188     0.006697
Rotational constants in MHz :   599.910024   245.470553   200.771321

                             ****ORCA TERMINATED NORMALLY****
TOTAL RUN TIME: 0 days 0 hours 0 minutes 32 seconds 125 msec
