                         Program Version 4.2.1 -  RELEASE  -
|  1> ! wB97X-D3 SP def2-SVP
|  2> %pal
|  3> nprocs 16
|  4> end
|  5>
|  6> * xyz 0 1
|  7> S 	 39.5744 	 13.1185 	 70.3415
|  8> C 	 37.9136 	 12.7592 	 70.2596
|  9> C 	 37.2574 	 13.6409 	 69.4848
| 10> C 	 38.1396 	 14.5574 	 68.85
| 11> C 	 39.4113 	 14.5141 	 69.2517
| 12> H 	 37.7912 	 15.2561 	 68.1329
| 13> C 	 35.7326 	 13.6817 	 69.3065
| 14> H 	 35.56 	 14.631 	 68.8485
| 15> H 	 35.2462 	 13.8129 	 70.3631
| 16> C 	 35.1363 	 12.6179 	 68.4207
| 17> H 	 35.8461 	 12.3467 	 67.6481
| 18> H 	 34.925 	 11.7846 	 68.981
| 19> C 	 33.8489 	 13.0745 	 67.8
| 20> H 	 33.6863 	 12.4675 	 66.8452
| 21> H 	 32.9875 	 12.9924 	 68.5063
| 22> H 	 33.8918 	 14.1379 	 67.5144
| 23> S 	 40.4133 	 16.0347 	 67.0603
| 24> C 	 42.1491 	 16.4937 	 67.1236
| 25> C 	 42.5557 	 16.5251 	 68.4652
| 26> C 	 41.6951 	 15.7828 	 69.3156
| 27> C 	 40.5112 	 15.3899 	 68.6988
| 28> H 	 43.5056 	 16.928 	 68.7831
| 29> C 	 42.1652 	 15.4492 	 70.76
| 30> H 	 43.2326 	 15.7393 	 70.9458
| 31> H 	 42.056 	 14.3407 	 70.9021
| 32> C 	 41.486 	 16.2902 	 71.8966
| 33> H 	 40.449 	 16.1343 	 71.7702
| 34> H 	 41.6391 	 17.3664 	 71.6968
| 35> C 	 41.9174 	 15.8911 	 73.3616
| 36> H 	 41.6031 	 16.6822 	 74.0694
| 37> H 	 42.9476 	 15.9201 	 73.3612
| 38> H 	 41.5284 	 14.9246 	 73.6959
| 39> H 	 37.3295 	 11.9099 	 70.6701
| 40> H 	 42.6312 	 17.0333 	 66.3297
| 41> *
| 42>
| 43>                          ****END OF INPUT****

CARTESIAN COORDINATES (ANGSTROEM)
---------------------------------
  S     39.574400   13.118500   70.341500
  C     37.913600   12.759200   70.259600
  C     37.257400   13.640900   69.484800
  C     38.139600   14.557400   68.850000
  C     39.411300   14.514100   69.251700
  H     37.791200   15.256100   68.132900
  C     35.732600   13.681700   69.306500
  H     35.560000   14.631000   68.848500
  H     35.246200   13.812900   70.363100
  C     35.136300   12.617900   68.420700
  H     35.846100   12.346700   67.648100
  H     34.925000   11.784600   68.981000
  C     33.848900   13.074500   67.800000
  H     33.686300   12.467500   66.845200
  H     32.987500   12.992400   68.506300
  H     33.891800   14.137900   67.514400
  S     40.413300   16.034700   67.060300
  C     42.149100   16.493700   67.123600
  C     42.555700   16.525100   68.465200
  C     41.695100   15.782800   69.315600
  C     40.511200   15.389900   68.698800
  H     43.505600   16.928000   68.783100
  C     42.165200   15.449200   70.760000
  H     43.232600   15.739300   70.945800
  H     42.056000   14.340700   70.902100
  C     41.486000   16.290200   71.896600
  H     40.449000   16.134300   71.770200
  H     41.639100   17.366400   71.696800
  C     41.917400   15.891100   73.361600
  H     41.603100   16.682200   74.069400
  H     42.947600   15.920100   73.361200
  H     41.528400   14.924600   73.695900
  H     37.329500   11.909900   70.670100
  H     42.631200   17.033300   66.329700

 Total Charge           Charge          ....    0
 Multiplicity           Mult            ....    1
 Number of Electrons    NEL             ....  134
 Basis Dimension        Dim             ....  322

ORBITAL ENERGIES
----------------

  NO   OCC          E(Eh)            E(eV)
   0   2.0000     -88.969540     -2420.9843
   1   2.0000     -88.967953     -2420.9411
   2   2.0000     -10.335766      -281.2505
   3   2.0000     -10.331351      -281.1304
   4   2.0000     -10.323574      -280.9187
   5   2.0000     -10.308016      -280.4954
   6   2.0000     -10.305626      -280.4303
   7   2.0000     -10.300947      -280.3030
   8   2.0000     -10.299042      -280.2512
   9   2.0000     -10.294131      -280.1175
  10   2.0000     -10.291495      -280.0458
  11   2.0000     -10.284561      -279.8571
  12   2.0000     -10.284268      -279.8491
  13   2.0000     -10.283387      -279.8252
  14   2.0000     -10.276019      -279.6247
  15   2.0000     -10.275667      -279.6151
  16   2.0000      -8.083090      -219.9521
  17   2.0000      -8.082516      -219.9364
  18   2.0000      -6.041810      -164.4060
  19   2.0000      -6.041261      -164.3911
  20   2.0000      -6.037998      -164.3023
  21   2.0000      -6.037019      -164.2756
  22   2.0000      -6.033489      -164.1796
  23   2.0000      -6.033052      -164.1677
  24   2.0000      -1.010347       -27.4929
  25   2.0000      -0.985920       -26.8282
  26   2.0000      -0.917218       -24.9588
  27   2.0000      -0.896456       -24.3938
  28   2.0000      -0.871140       -23.7049
  29   2.0000      -0.852846       -23.2071
  30   2.0000      -0.843819       -22.9615
  31   2.0000      -0.816190       -22.2097
  32   2.0000      -0.777133       -21.1469
  33   2.0000      -0.768297       -20.9064
  34   2.0000      -0.706142       -19.2151
  35   2.0000      -0.701975       -19.1017
  36   2.0000      -0.689132       -18.7522
  37   2.0000      -0.668806       -18.1991
  38   2.0000      -0.638418       -17.3722
  39   2.0000      -0.614693       -16.7266
  40   2.0000      -0.592279       -16.1167
  41   2.0000      -0.573006       -15.5923
  42   2.0000      -0.569969       -15.5096
  43   2.0000      -0.561856       -15.2889
  44   2.0000      -0.529820       -14.4171
  45   2.0000      -0.515419       -14.0253
  46   2.0000      -0.515025       -14.0145
  47   2.0000      -0.506900       -13.7935
  48   2.0000      -0.504800       -13.7363
  49   2.0000      -0.496010       -13.4971
  50   2.0000      -0.488831       -13.3018
  51   2.0000      -0.483542       -13.1578
  52   2.0000      -0.476001       -12.9526
  53   2.0000      -0.467046       -12.7090
  54   2.0000      -0.456128       -12.4119
  55   2.0000      -0.450186       -12.2502
  56   2.0000      -0.443125       -12.0580
  57   2.0000      -0.437324       -11.9002
  58   2.0000      -0.431955       -11.7541
  59   2.0000      -0.421099       -11.4587
  60   2.0000      -0.419172       -11.4063
  61   2.0000      -0.415270       -11.3001
  62   2.0000      -0.410781       -11.1779
  63   2.0000      -0.360950        -9.8220
  64   2.0000      -0.331750        -9.0274
  65   2.0000      -0.330211        -8.9855
  66   2.0000      -0.288437        -7.8488
  67   0.0000       0.022973         0.6251
  68   0.0000       0.073222         1.9925
  69   0.0000       0.100984         2.7479
  70   0.0000       0.119914         3.2630
  71   0.0000       0.124204         3.3797

MULLIKEN ATOMIC CHARGES
-----------------------
   0 S :    0.100887
   1 C :   -0.111436
   2 C :   -0.115085
   3 C :   -0.013200
   4 C :   -0.077540
   5 H :   -0.004334
   6 C :    0.041988
   7 H :   -0.002875
   8 H :    0.052677
   9 C :    0.000217
  10 H :    0.034390
  11 H :    0.010462
  12 C :   -0.091787
  13 H :    0.047130
  14 H :    0.039381
  15 H :    0.029154
  16 S :    0.088328
  17 C :   -0.090891
  18 C :   -0.017891
  19 C :   -0.060971
  20 C :   -0.124951
  21 H :    0.021899
  22 C :    0.009506
  23 H :    0.024913
  24 H :    0.050363
  25 C :   -0.080716
  26 H :    0.023196
  27 H :    0.030226
  28 C :   -0.019390
  29 H :    0.037788
  30 H :    0.009215
  31 H :    0.043518
  32 H :    0.054403
  33 H :    0.061426
Sum of atomic charges:    0.0000000

LOEWDIN ATOMIC CHARGES
----------------------
   0 S :    0.413580
   1 C :   -0.214030
   2 C :   -0.072959
   3 C :   -0.069792
   4 C :   -0.175937
   5 H :    0.021851
   6 C :   -0.033830
   7 H :    0.020125
   8 H :    0.043861
   9 C :   -0.041255
  10 H :    0.029728
  11 H :    0.014977
  12 C :   -0.069169
  13 H :    0.036069
  14 H :    0.028538
  15 H :    0.022064
  16 S :    0.382939
  17 C :   -0.169536
  18 C :   -0.057962
  19 C :   -0.063355
  20 C :   -0.181412
  21 H :    0.030553
  22 C :   -0.039134
  23 H :    0.030838
  24 H :    0.028961
  25 C :   -0.038426
  26 H :    0.012985
  27 H :    0.026114
  28 C :   -0.058079
  29 H :    0.032928
  30 H :    0.010676
  31 H :    0.029287
  32 H :    0.043062
  33 H :    0.025742

  Mayer bond orders larger than 0.100000
B(  0-S ,  1-C ) :   1.1342 B(  0-S ,  4-C ) :   1.1236 B(  1-C ,  2-C ) :   1.6429
B(  1-C , 32-H ) :   0.9583 B(  2-C ,  3-C ) :   1.2532 B(  2-C ,  6-C ) :   1.0144
B(  3-C ,  4-C ) :   1.5844 B(  3-C ,  5-H ) :   1.0006 B(  4-C , 20-C ) :   1.0522
B(  6-C ,  7-H ) :   0.9416 B(  6-C ,  8-H ) :   0.9380 B(  6-C ,  9-C ) :   1.0590
B(  9-C , 10-H ) :   0.9573 B(  9-C , 11-H ) :   0.9457 B(  9-C , 12-C ) :   1.0880
B( 12-C , 13-H ) :   0.9752 B( 12-C , 14-H ) :   0.9748 B( 12-C , 15-H ) :   0.9777
B( 16-S , 17-C ) :   1.1365 B( 16-S , 20-C ) :   1.1360 B( 17-C , 18-C ) :   1.6043
B( 17-C , 20-C ) :   0.1035 B( 17-C , 33-H ) :   0.9676 B( 18-C , 19-C ) :   1.2636
B( 18-C , 21-H ) :   0.9828 B( 19-C , 20-C ) :   1.5779 B( 19-C , 22-C ) :   1.0307
B( 22-C , 23-H ) :   0.9423 B( 22-C , 24-H ) :   0.9398 B( 22-C , 25-C ) :   1.0468
B( 25-C , 26-H ) :   0.9610 B( 25-C , 27-H ) :   0.9570 B( 25-C , 28-C ) :   1.0730
B( 28-C , 29-H ) :   0.9745 B( 28-C , 30-H ) :   0.9759 B( 28-C , 31-H ) :   0.9771

Dispersion correction           -0.013826159
FINAL SINGLE POINT ENERGY     -1339.861340936827

DIPOLE MOMENT
-------------
                                X             Y             Z
Electronic contribution:     11.79723       0.44912     -10.38060
Nuclear contribution   :    -11.98127      -0.32872      10.51301
                        -----------------------------------------
Total Dipole Moment    :     -0.18405       0.12040       0.13241
                        -----------------------------------------
Magnitude (a.u.)       :      0.25671
Magnitude (Debye)      :      0.65251

Rotational constants in cm-1:     0.020021     0.007852     0.006109
Rotational constants in MHz :   600.211714   235.405096   183.135463

                             ****ORCA TERMINATED NORMALLY****
TOTAL RUN TIME: 0 days 0 hours 0 minutes 30 seconds 738 msec
