                         Program Version 4.2.1 -  RELEASE  -
|  1> ! wB97X-D3 SP def2-SVP
|  2> %pal
|  3> nprocs 16
|  4> end
|  5>
|  6> * xyz 0 1
|  7> S 	 34.7798 	 22.7054 	 46.149
|  8> C 	 35.1816 	 23.9644 	 47.2491
|  9> C 	 35.4552 	 23.5091 	 48.5429
| 10> C 	 35.4561 	 22.0767 	 48.5637
| 11> C 	 34.9974 	 21.5126 	 47.4149
| 12> H 	 35.6858 	 21.4516 	 49.4574
| 13> C 	 35.895 	 24.3126 	 49.7221
| 14> H 	 36.0894 	 25.3515 	 49.4528
| 15> H 	 36.8371 	 23.8775 	 50.1701
| 16> C 	 34.7905 	 24.4811 	 50.8287
| 17> H 	 34.1351 	 25.2854 	 50.4664
| 18> H 	 34.179 	 23.5681 	 50.8068
| 19> C 	 35.3358 	 24.8167 	 52.1872
| 20> H 	 35.8283 	 23.9243 	 52.6455
| 21> H 	 35.9864 	 25.6228 	 52.3161
| 22> H 	 34.4875 	 25.0385 	 52.8371
| 23> S 	 33.2361 	 19.6685 	 46.5868
| 24> C 	 33.5241 	 18.0014 	 46.6804
| 25> C 	 34.7675 	 17.7984 	 47.1892
| 26> C 	 35.5585 	 18.9207 	 47.4837
| 27> C 	 34.8317 	 20.075 	 47.1641
| 28> H 	 35.0097 	 16.7663 	 47.3988
| 29> C 	 37.0127 	 18.8367 	 47.8849
| 30> H 	 37.2376 	 17.7509 	 48.0561
| 31> H 	 37.1376 	 19.2242 	 48.862
| 32> C 	 38.0511 	 19.3278 	 46.8512
| 33> H 	 37.8176 	 20.4029 	 46.6558
| 34> H 	 37.8495 	 18.7856 	 45.9182
| 35> C 	 39.5079 	 18.9277 	 47.1028
| 36> H 	 40.1922 	 18.9815 	 46.2509
| 37> H 	 39.6833 	 17.955 	 47.4834
| 38> H 	 39.8995 	 19.5787 	 47.9507
| 39> H 	 35.2518 	 24.9996 	 47.0459
| 40> H 	 32.7976 	 17.2257 	 46.4125
| 41> *
| 42>
| 43>                          ****END OF INPUT****

CARTESIAN COORDINATES (ANGSTROEM)
---------------------------------
  S     34.779800   22.705400   46.149000
  C     35.181600   23.964400   47.249100
  C     35.455200   23.509100   48.542900
  C     35.456100   22.076700   48.563700
  C     34.997400   21.512600   47.414900
  H     35.685800   21.451600   49.457400
  C     35.895000   24.312600   49.722100
  H     36.089400   25.351500   49.452800
  H     36.837100   23.877500   50.170100
  C     34.790500   24.481100   50.828700
  H     34.135100   25.285400   50.466400
  H     34.179000   23.568100   50.806800
  C     35.335800   24.816700   52.187200
  H     35.828300   23.924300   52.645500
  H     35.986400   25.622800   52.316100
  H     34.487500   25.038500   52.837100
  S     33.236100   19.668500   46.586800
  C     33.524100   18.001400   46.680400
  C     34.767500   17.798400   47.189200
  C     35.558500   18.920700   47.483700
  C     34.831700   20.075000   47.164100
  H     35.009700   16.766300   47.398800
  C     37.012700   18.836700   47.884900
  H     37.237600   17.750900   48.056100
  H     37.137600   19.224200   48.862000
  C     38.051100   19.327800   46.851200
  H     37.817600   20.402900   46.655800
  H     37.849500   18.785600   45.918200
  C     39.507900   18.927700   47.102800
  H     40.192200   18.981500   46.250900
  H     39.683300   17.955000   47.483400
  H     39.899500   19.578700   47.950700
  H     35.251800   24.999600   47.045900
  H     32.797600   17.225700   46.412500

 Total Charge           Charge          ....    0
 Multiplicity           Mult            ....    1
 Number of Electrons    NEL             ....  134
 Basis Dimension        Dim             ....  322

ORBITAL ENERGIES
----------------

  NO   OCC          E(Eh)            E(eV)
   0   2.0000     -88.968664     -2420.9604
   1   2.0000     -88.961182     -2420.7568
   2   2.0000     -10.326698      -281.0037
   3   2.0000     -10.325864      -280.9811
   4   2.0000     -10.310630      -280.5665
   5   2.0000     -10.309488      -280.5354
   6   2.0000     -10.303364      -280.3688
   7   2.0000     -10.299956      -280.2760
   8   2.0000     -10.294452      -280.1263
   9   2.0000     -10.293567      -280.1022
  10   2.0000     -10.292504      -280.0733
  11   2.0000     -10.288939      -279.9763
  12   2.0000     -10.287768      -279.9444
  13   2.0000     -10.285837      -279.8919
  14   2.0000     -10.280028      -279.7338
  15   2.0000     -10.276009      -279.6244
  16   2.0000      -8.083737      -219.9697
  17   2.0000      -8.077332      -219.7954
  18   2.0000      -6.042277      -164.4187
  19   2.0000      -6.038214      -164.3081
  20   2.0000      -6.035575      -164.2364
  21   2.0000      -6.034419      -164.2049
  22   2.0000      -6.031487      -164.1251
  23   2.0000      -6.028428      -164.0419
  24   2.0000      -1.012674       -27.5563
  25   2.0000      -0.990809       -26.9613
  26   2.0000      -0.910638       -24.7797
  27   2.0000      -0.907233       -24.6871
  28   2.0000      -0.870265       -23.6811
  29   2.0000      -0.854949       -23.2643
  30   2.0000      -0.850033       -23.1306
  31   2.0000      -0.815390       -22.1879
  32   2.0000      -0.783907       -21.3312
  33   2.0000      -0.772630       -21.0243
  34   2.0000      -0.707266       -19.2457
  35   2.0000      -0.698432       -19.0053
  36   2.0000      -0.692687       -18.8490
  37   2.0000      -0.660840       -17.9824
  38   2.0000      -0.639378       -17.3984
  39   2.0000      -0.623103       -16.9555
  40   2.0000      -0.598021       -16.2730
  41   2.0000      -0.566265       -15.4089
  42   2.0000      -0.560640       -15.2558
  43   2.0000      -0.555512       -15.1162
  44   2.0000      -0.526740       -14.3333
  45   2.0000      -0.523425       -14.2431
  46   2.0000      -0.518995       -14.1226
  47   2.0000      -0.517131       -14.0718
  48   2.0000      -0.500650       -13.6234
  49   2.0000      -0.499845       -13.6015
  50   2.0000      -0.495588       -13.4856
  51   2.0000      -0.485330       -13.2065
  52   2.0000      -0.469649       -12.7798
  53   2.0000      -0.464701       -12.6452
  54   2.0000      -0.459020       -12.4906
  55   2.0000      -0.458606       -12.4793
  56   2.0000      -0.448201       -12.1962
  57   2.0000      -0.435411       -11.8481
  58   2.0000      -0.431651       -11.7458
  59   2.0000      -0.424641       -11.5551
  60   2.0000      -0.419093       -11.4041
  61   2.0000      -0.411950       -11.2097
  62   2.0000      -0.403801       -10.9880
  63   2.0000      -0.348697        -9.4885
  64   2.0000      -0.332574        -9.0498
  65   2.0000      -0.329093        -8.9551
  66   2.0000      -0.291562        -7.9338
  67   0.0000       0.035765         0.9732
  68   0.0000       0.072032         1.9601
  69   0.0000       0.114223         3.1082
  70   0.0000       0.121563         3.3079
  71   0.0000       0.140353         3.8192

MULLIKEN ATOMIC CHARGES
-----------------------
   0 S :    0.129103
   1 C :   -0.089689
   2 C :   -0.091383
   3 C :    0.005187
   4 C :   -0.140845
   5 H :    0.028553
   6 C :    0.035775
   7 H :    0.015942
   8 H :    0.041269
   9 C :   -0.086467
  10 H :    0.029155
  11 H :    0.035931
  12 C :   -0.029726
  13 H :    0.032714
  14 H :    0.023242
  15 H :    0.030629
  16 S :    0.105592
  17 C :   -0.092593
  18 C :   -0.057268
  19 C :   -0.010580
  20 C :   -0.177361
  21 H :    0.008913
  22 C :    0.091238
  23 H :    0.006923
  24 H :    0.014916
  25 C :   -0.070059
  26 H :    0.053721
  27 H :    0.029533
  28 C :   -0.050753
  29 H :    0.042020
  30 H :    0.016137
  31 H :    0.029714
  32 H :    0.026410
  33 H :    0.064104
Sum of atomic charges:   -0.0000000

LOEWDIN ATOMIC CHARGES
----------------------
   0 S :    0.418796
   1 C :   -0.200804
   2 C :   -0.064915
   3 C :   -0.063728
   4 C :   -0.202802
   5 H :    0.039070
   6 C :   -0.037486
   7 H :    0.027713
   8 H :    0.035776
   9 C :   -0.040749
  10 H :    0.025223
  11 H :    0.025319
  12 C :   -0.067154
  13 H :    0.030558
  14 H :    0.016861
  15 H :    0.031047
  16 S :    0.434506
  17 C :   -0.210043
  18 C :   -0.077283
  19 C :   -0.059994
  20 C :   -0.195745
  21 H :    0.028317
  22 C :   -0.031209
  23 H :    0.033095
  24 H :    0.021545
  25 C :   -0.042568
  26 H :    0.032718
  27 H :    0.028464
  28 C :   -0.071093
  29 H :    0.030104
  30 H :    0.019193
  31 H :    0.029915
  32 H :    0.020448
  33 H :    0.036908

  Mayer bond orders larger than 0.100000
B(  0-S ,  1-C ) :   1.1403 B(  0-S ,  4-C ) :   1.1459 B(  1-C ,  2-C ) :   1.6168
B(  1-C , 32-H ) :   0.9676 B(  2-C ,  3-C ) :   1.2268 B(  2-C ,  6-C ) :   1.0415
B(  3-C ,  4-C ) :   1.6051 B(  3-C ,  5-H ) :   0.9882 B(  4-C , 20-C ) :   1.0076
B(  6-C ,  7-H ) :   0.9388 B(  6-C ,  8-H ) :   0.9504 B(  6-C ,  9-C ) :   1.0376
B(  9-C , 10-H ) :   0.9556 B(  9-C , 11-H ) :   0.9641 B(  9-C , 12-C ) :   1.0840
B( 12-C , 13-H ) :   0.9733 B( 12-C , 14-H ) :   0.9747 B( 12-C , 15-H ) :   0.9697
B( 16-S , 17-C ) :   1.1657 B( 16-S , 20-C ) :   1.1849 B( 17-C , 18-C ) :   1.5861
B( 17-C , 20-C ) :   0.1036 B( 17-C , 33-H ) :   0.9669 B( 18-C , 19-C ) :   1.2711
B( 18-C , 21-H ) :   0.9901 B( 19-C , 20-C ) :   1.5441 B( 19-C , 22-C ) :   1.0485
B( 22-C , 23-H ) :   0.9291 B( 22-C , 24-H ) :   0.9226 B( 22-C , 25-C ) :   1.0573
B( 25-C , 26-H ) :   0.9576 B( 25-C , 27-H ) :   0.9550 B( 25-C , 28-C ) :   1.0749
B( 28-C , 29-H ) :   0.9776 B( 28-C , 30-H ) :   0.9718 B( 28-C , 31-H ) :   0.9743

Dispersion correction           -0.013831072
FINAL SINGLE POINT ENERGY     -1339.883609052649

DIPOLE MOMENT
-------------
                                X             Y             Z
Electronic contribution:    -18.34221      -3.97234     -18.41225
Nuclear contribution   :     18.68836       3.89720      18.90423
                        -----------------------------------------
Total Dipole Moment    :      0.34615      -0.07514       0.49199
                        -----------------------------------------
Magnitude (a.u.)       :      0.60623
Magnitude (Debye)      :      1.54092

Rotational constants in cm-1:     0.016987     0.008162     0.006995
Rotational constants in MHz :   509.263417   244.697840   209.693730

                             ****ORCA TERMINATED NORMALLY****
TOTAL RUN TIME: 0 days 0 hours 0 minutes 34 seconds 167 msec
