                         Program Version 4.2.1 -  RELEASE  -
|  1> ! wB97X-D3 SP def2-SVP
|  2> %pal
|  3> nprocs 16
|  4> end
|  5>
|  6> * xyz 0 1
|  7> S 	 12.3593 	 -6.48082 	 64.7191
|  8> C 	 12.2582 	 -6.41195 	 62.9659
|  9> C 	 13.011 	 -5.35895 	 62.5135
| 10> C 	 13.8858 	 -4.82818 	 63.5423
| 11> C 	 13.7502 	 -5.44216 	 64.82
| 12> H 	 14.6583 	 -4.1145 	 63.3948
| 13> C 	 13.0475 	 -4.88144 	 61.0284
| 14> H 	 13.9816 	 -5.34481 	 60.6471
| 15> H 	 13.1292 	 -3.80412 	 61.1523
| 16> C 	 11.7478 	 -4.995 	 60.2712
| 17> H 	 11.6161 	 -6.05988 	 60.1115
| 18> H 	 10.8724 	 -4.54137 	 60.8165
| 19> C 	 11.8861 	 -4.18377 	 58.9523
| 20> H 	 12.2003 	 -3.1387 	 59.1416
| 21> H 	 12.6809 	 -4.64797 	 58.4158
| 22> H 	 10.96 	 -4.19728 	 58.4238
| 23> S 	 15.1767 	 -6.66074 	 66.7504
| 24> C 	 15.8956 	 -5.69067 	 68.0839
| 25> C 	 15.7638 	 -4.32833 	 67.9039
| 26> C 	 14.9034 	 -4.06767 	 66.7671
| 27> C 	 14.5774 	 -5.19446 	 66.0171
| 28> H 	 16.1952 	 -3.58804 	 68.637
| 29> C 	 14.632 	 -2.63984 	 66.2887
| 30> H 	 14.706 	 -2.70053 	 65.2024
| 31> H 	 15.5371 	 -2.2683 	 66.6477
| 32> C 	 13.4855 	 -1.752 	 66.8901
| 33> H 	 13.7801 	 -0.709772 	 66.722
| 34> H 	 13.1341 	 -1.90465 	 67.9118
| 35> C 	 12.1634 	 -2.09964 	 66.179
| 36> H 	 11.3231 	 -1.51552 	 66.5059
| 37> H 	 11.9343 	 -3.16932 	 66.2926
| 38> H 	 12.1626 	 -1.83938 	 65.0796
| 39> H 	 11.7418 	 -7.08251 	 62.2216
| 40> H 	 16.3366 	 -6.17826 	 68.9056
| 41> *
| 42>
| 43>                          ****END OF INPUT****

CARTESIAN COORDINATES (ANGSTROEM)
---------------------------------
  S     12.359300   -6.480820   64.719100
  C     12.258200   -6.411950   62.965900
  C     13.011000   -5.358950   62.513500
  C     13.885800   -4.828180   63.542300
  C     13.750200   -5.442160   64.820000
  H     14.658300   -4.114500   63.394800
  C     13.047500   -4.881440   61.028400
  H     13.981600   -5.344810   60.647100
  H     13.129200   -3.804120   61.152300
  C     11.747800   -4.995000   60.271200
  H     11.616100   -6.059880   60.111500
  H     10.872400   -4.541370   60.816500
  C     11.886100   -4.183770   58.952300
  H     12.200300   -3.138700   59.141600
  H     12.680900   -4.647970   58.415800
  H     10.960000   -4.197280   58.423800
  S     15.176700   -6.660740   66.750400
  C     15.895600   -5.690670   68.083900
  C     15.763800   -4.328330   67.903900
  C     14.903400   -4.067670   66.767100
  C     14.577400   -5.194460   66.017100
  H     16.195200   -3.588040   68.637000
  C     14.632000   -2.639840   66.288700
  H     14.706000   -2.700530   65.202400
  H     15.537100   -2.268300   66.647700
  C     13.485500   -1.752000   66.890100
  H     13.780100   -0.709772   66.722000
  H     13.134100   -1.904650   67.911800
  C     12.163400   -2.099640   66.179000
  H     11.323100   -1.515520   66.505900
  H     11.934300   -3.169320   66.292600
  H     12.162600   -1.839380   65.079600
  H     11.741800   -7.082510   62.221600
  H     16.336600   -6.178260   68.905600

 Total Charge           Charge          ....    0
 Multiplicity           Mult            ....    1
 Number of Electrons    NEL             ....  134
 Basis Dimension        Dim             ....  322

ORBITAL ENERGIES
----------------

  NO   OCC          E(Eh)            E(eV)
   0   2.0000     -88.964545     -2420.8484
   1   2.0000     -88.963782     -2420.8276
   2   2.0000     -10.333646      -281.1928
   3   2.0000     -10.328401      -281.0501
   4   2.0000     -10.320555      -280.8366
   5   2.0000     -10.314171      -280.6629
   6   2.0000     -10.309239      -280.5287
   7   2.0000     -10.304903      -280.4107
   8   2.0000     -10.301069      -280.3063
   9   2.0000     -10.295243      -280.1478
  10   2.0000     -10.295089      -280.1436
  11   2.0000     -10.292096      -280.0622
  12   2.0000     -10.291178      -280.0372
  13   2.0000     -10.288519      -279.9648
  14   2.0000     -10.278067      -279.6804
  15   2.0000     -10.271898      -279.5126
  16   2.0000      -8.078857      -219.8369
  17   2.0000      -8.078200      -219.8190
  18   2.0000      -6.037528      -164.2895
  19   2.0000      -6.036698      -164.2669
  20   2.0000      -6.033360      -164.1761
  21   2.0000      -6.032786      -164.1605
  22   2.0000      -6.029504      -164.0711
  23   2.0000      -6.028942      -164.0559
  24   2.0000      -1.001218       -27.2445
  25   2.0000      -0.979447       -26.6521
  26   2.0000      -0.914580       -24.8870
  27   2.0000      -0.902528       -24.5590
  28   2.0000      -0.868503       -23.6332
  29   2.0000      -0.847368       -23.0581
  30   2.0000      -0.841828       -22.9073
  31   2.0000      -0.811741       -22.0886
  32   2.0000      -0.778946       -21.1962
  33   2.0000      -0.768811       -20.9204
  34   2.0000      -0.706871       -19.2349
  35   2.0000      -0.700027       -19.0487
  36   2.0000      -0.688994       -18.7485
  37   2.0000      -0.664436       -18.0802
  38   2.0000      -0.632087       -17.2000
  39   2.0000      -0.606798       -16.5118
  40   2.0000      -0.589800       -16.0493
  41   2.0000      -0.581769       -15.8307
  42   2.0000      -0.566914       -15.4265
  43   2.0000      -0.551866       -15.0170
  44   2.0000      -0.537478       -14.6255
  45   2.0000      -0.529830       -14.4174
  46   2.0000      -0.523827       -14.2541
  47   2.0000      -0.504747       -13.7349
  48   2.0000      -0.499215       -13.5843
  49   2.0000      -0.496649       -13.5145
  50   2.0000      -0.489203       -13.3119
  51   2.0000      -0.477432       -12.9916
  52   2.0000      -0.473500       -12.8846
  53   2.0000      -0.463395       -12.6096
  54   2.0000      -0.452963       -12.3258
  55   2.0000      -0.447851       -12.1866
  56   2.0000      -0.446112       -12.1393
  57   2.0000      -0.437484       -11.9046
  58   2.0000      -0.428007       -11.6467
  59   2.0000      -0.418228       -11.3806
  60   2.0000      -0.417147       -11.3512
  61   2.0000      -0.411617       -11.2007
  62   2.0000      -0.406729       -11.0676
  63   2.0000      -0.340996        -9.2790
  64   2.0000      -0.329892        -8.9768
  65   2.0000      -0.323118        -8.7925
  66   2.0000      -0.295090        -8.0298
  67   0.0000       0.025761         0.7010
  68   0.0000       0.070489         1.9181
  69   0.0000       0.108435         2.9507
  70   0.0000       0.115610         3.1459
  71   0.0000       0.125915         3.4263

MULLIKEN ATOMIC CHARGES
-----------------------
   0 S :    0.120749
   1 C :   -0.151813
   2 C :   -0.100576
   3 C :    0.033868
   4 C :   -0.138593
   5 H :    0.002230
   6 C :    0.037887
   7 H :    0.062739
   8 H :    0.023460
   9 C :   -0.106784
  10 H :    0.029859
  11 H :    0.050791
  12 C :   -0.022060
  13 H :    0.033169
  14 H :    0.022467
  15 H :    0.036699
  16 S :    0.095656
  17 C :   -0.083400
  18 C :   -0.036400
  19 C :   -0.063802
  20 C :   -0.175114
  21 H :    0.052333
  22 C :    0.092043
  23 H :    0.019486
  24 H :    0.000998
  25 C :   -0.037866
  26 H :    0.035999
  27 H :    0.040592
  28 C :   -0.083455
  29 H :    0.023452
  30 H :    0.045894
  31 H :    0.025263
  32 H :    0.070032
  33 H :    0.044198
Sum of atomic charges:   -0.0000000

LOEWDIN ATOMIC CHARGES
----------------------
   0 S :    0.405633
   1 C :   -0.215569
   2 C :   -0.065462
   3 C :   -0.065584
   4 C :   -0.203427
   5 H :    0.019616
   6 C :   -0.036619
   7 H :    0.041409
   8 H :    0.031152
   9 C :   -0.043412
  10 H :    0.018592
  11 H :    0.035675
  12 C :   -0.056908
  13 H :    0.027939
  14 H :    0.021280
  15 H :    0.022740
  16 S :    0.390515
  17 C :   -0.154424
  18 C :   -0.076513
  19 C :   -0.049980
  20 C :   -0.206369
  21 H :    0.047929
  22 C :   -0.027517
  23 H :    0.033336
  24 H :    0.023645
  25 C :   -0.036723
  26 H :    0.026494
  27 H :    0.032225
  28 C :   -0.072199
  29 H :    0.017747
  30 H :    0.028560
  31 H :    0.024070
  32 H :    0.045219
  33 H :    0.016932

  Mayer bond orders larger than 0.100000
B(  0-S ,  1-C ) :   1.1289 B(  0-S ,  4-C ) :   1.1528 B(  1-C ,  2-C ) :   1.6151
B(  1-C , 32-H ) :   0.9610 B(  2-C ,  3-C ) :   1.2526 B(  2-C ,  6-C ) :   0.9896
B(  3-C ,  4-C ) :   1.5507 B(  3-C ,  5-H ) :   0.9968 B(  4-C , 20-C ) :   1.0377
B(  6-C ,  7-H ) :   0.9413 B(  6-C ,  8-H ) :   0.9483 B(  6-C ,  9-C ) :   1.0682
B(  9-C , 10-H ) :   0.9489 B(  9-C , 11-H ) :   0.9598 B(  9-C , 12-C ) :   1.0823
B( 12-C , 13-H ) :   0.9758 B( 12-C , 14-H ) :   0.9736 B( 12-C , 15-H ) :   0.9748
B( 16-S , 17-C ) :   1.1522 B( 16-S , 20-C ) :   1.1299 B( 17-C , 18-C ) :   1.6239
B( 17-C , 33-H ) :   0.9735 B( 18-C , 19-C ) :   1.2258 B( 18-C , 21-H ) :   0.9757
B( 19-C , 20-C ) :   1.6074 B( 19-C , 22-C ) :   1.0068 B( 22-C , 23-H ) :   0.9445
B( 22-C , 24-H ) :   0.9294 B( 22-C , 25-C ) :   1.0496 B( 25-C , 26-H ) :   0.9563
B( 25-C , 27-H ) :   0.9638 B( 25-C , 28-C ) :   1.0665 B( 28-C , 29-H ) :   0.9759
B( 28-C , 30-H ) :   0.9771 B( 28-C , 31-H ) :   0.9758

Dispersion correction           -0.014268259
FINAL SINGLE POINT ENERGY     -1339.847752296090

DIPOLE MOMENT
-------------
                                X             Y             Z
Electronic contribution:      8.21140     -19.93498      17.34222
Nuclear contribution   :     -8.05737      20.49027     -17.62203
                        -----------------------------------------
Total Dipole Moment    :      0.15403       0.55529      -0.27981
                        -----------------------------------------
Magnitude (a.u.)       :      0.64059
Magnitude (Debye)      :      1.62826

Rotational constants in cm-1:     0.021644     0.007664     0.006421
Rotational constants in MHz :   648.873421   229.774497   192.489131

                             ****ORCA TERMINATED NORMALLY****
TOTAL RUN TIME: 0 days 0 hours 0 minutes 34 seconds 509 msec
