                         Program Version 4.2.1 -  RELEASE  -
|  1> ! wB97X-D3 SP def2-SVP
|  2> %pal
|  3> nprocs 16
|  4> end
|  5>
|  6> * xyz 0 1
|  7> S 	 9.09901 	 -5.58807 	 89.3799
|  8> C 	 9.83902 	 -4.74235 	 90.7487
|  9> C 	 11.1231 	 -4.37297 	 90.4235
| 10> C 	 11.422 	 -4.75646 	 89.0677
| 11> C 	 10.4301 	 -5.29986 	 88.3687
| 12> H 	 12.3327 	 -4.54553 	 88.5365
| 13> C 	 12.1013 	 -3.51898 	 91.2248
| 14> H 	 13.0953 	 -3.50038 	 90.6744
| 15> H 	 12.2588 	 -4.10492 	 92.1208
| 16> C 	 11.555 	 -2.08006 	 91.5002
| 17> H 	 11.4999 	 -1.56552 	 90.521
| 18> H 	 10.5484 	 -2.24117 	 92.0212
| 19> C 	 12.353 	 -1.11288 	 92.3122
| 20> H 	 12.2678 	 -1.34564 	 93.3533
| 21> H 	 13.4637 	 -1.09935 	 91.9761
| 22> H 	 12.0049 	 -0.054663 	 92.1285
| 23> S 	 11.9753 	 -6.82857 	 86.701
| 24> C 	 11.6754 	 -6.72626 	 84.9813
| 25> C 	 10.4588 	 -6.13978 	 84.7087
| 26> C 	 9.85109 	 -5.53677 	 85.8428
| 27> C 	 10.5649 	 -5.83 	 87.0187
| 28> H 	 10.3093 	 -6.05039 	 83.6804
| 29> C 	 8.64841 	 -4.57759 	 85.5723
| 30> H 	 8.94851 	 -3.77518 	 86.2377
| 31> H 	 7.80539 	 -5.11445 	 86.0298
| 32> C 	 8.29812 	 -4.23205 	 84.1741
| 33> H 	 7.9788 	 -5.13201 	 83.7045
| 34> H 	 9.17809 	 -3.75887 	 83.6346
| 35> C 	 7.33343 	 -3.12844 	 84.178
| 36> H 	 7.80194 	 -2.19883 	 84.4469
| 37> H 	 6.57984 	 -3.43013 	 84.8764
| 38> H 	 6.87367 	 -2.9499 	 83.1663
| 39> H 	 9.28195 	 -4.24859 	 91.5088
| 40> H 	 12.2852 	 -7.11878 	 84.1483
| 41> *
| 42>
| 43>                          ****END OF INPUT****

CARTESIAN COORDINATES (ANGSTROEM)
---------------------------------
  S      9.099010   -5.588070   89.379900
  C      9.839020   -4.742350   90.748700
  C     11.123100   -4.372970   90.423500
  C     11.422000   -4.756460   89.067700
  C     10.430100   -5.299860   88.368700
  H     12.332700   -4.545530   88.536500
  C     12.101300   -3.518980   91.224800
  H     13.095300   -3.500380   90.674400
  H     12.258800   -4.104920   92.120800
  C     11.555000   -2.080060   91.500200
  H     11.499900   -1.565520   90.521000
  H     10.548400   -2.241170   92.021200
  C     12.353000   -1.112880   92.312200
  H     12.267800   -1.345640   93.353300
  H     13.463700   -1.099350   91.976100
  H     12.004900   -0.054663   92.128500
  S     11.975300   -6.828570   86.701000
  C     11.675400   -6.726260   84.981300
  C     10.458800   -6.139780   84.708700
  C      9.851090   -5.536770   85.842800
  C     10.564900   -5.830000   87.018700
  H     10.309300   -6.050390   83.680400
  C      8.648410   -4.577590   85.572300
  H      8.948510   -3.775180   86.237700
  H      7.805390   -5.114450   86.029800
  C      8.298120   -4.232050   84.174100
  H      7.978800   -5.132010   83.704500
  H      9.178090   -3.758870   83.634600
  C      7.333430   -3.128440   84.178000
  H      7.801940   -2.198830   84.446900
  H      6.579840   -3.430130   84.876400
  H      6.873670   -2.949900   83.166300
  H      9.281950   -4.248590   91.508800
  H     12.285200   -7.118780   84.148300

 Total Charge           Charge          ....    0
 Multiplicity           Mult            ....    1
 Number of Electrons    NEL             ....  134
 Basis Dimension        Dim             ....  322

ORBITAL ENERGIES
----------------

  NO   OCC          E(Eh)            E(eV)
   0   2.0000     -88.967483     -2420.9283
   1   2.0000     -88.960020     -2420.7252
   2   2.0000     -10.325787      -280.9789
   3   2.0000     -10.317061      -280.7415
   4   2.0000     -10.315283      -280.6931
   5   2.0000     -10.309270      -280.5295
   6   2.0000     -10.307869      -280.4914
   7   2.0000     -10.301627      -280.3215
   8   2.0000     -10.299065      -280.2518
   9   2.0000     -10.295868      -280.1648
  10   2.0000     -10.291631      -280.0495
  11   2.0000     -10.286021      -279.8969
  12   2.0000     -10.283958      -279.8407
  13   2.0000     -10.283571      -279.8302
  14   2.0000     -10.281891      -279.7845
  15   2.0000     -10.274562      -279.5850
  16   2.0000      -8.081686      -219.9139
  17   2.0000      -8.075635      -219.7492
  18   2.0000      -6.040180      -164.3616
  19   2.0000      -6.036252      -164.2548
  20   2.0000      -6.034193      -164.1987
  21   2.0000      -6.032509      -164.1529
  22   2.0000      -6.030001      -164.0847
  23   2.0000      -6.026293      -163.9838
  24   2.0000      -1.011190       -27.5159
  25   2.0000      -0.985304       -26.8115
  26   2.0000      -0.925850       -25.1937
  27   2.0000      -0.910236       -24.7688
  28   2.0000      -0.871874       -23.7249
  29   2.0000      -0.856175       -23.2977
  30   2.0000      -0.847293       -23.0560
  31   2.0000      -0.816020       -22.2050
  32   2.0000      -0.784336       -21.3429
  33   2.0000      -0.771131       -20.9836
  34   2.0000      -0.705560       -19.1993
  35   2.0000      -0.696870       -18.9628
  36   2.0000      -0.690323       -18.7846
  37   2.0000      -0.653917       -17.7940
  38   2.0000      -0.635792       -17.3008
  39   2.0000      -0.614725       -16.7275
  40   2.0000      -0.595822       -16.2131
  41   2.0000      -0.587095       -15.9757
  42   2.0000      -0.572768       -15.5858
  43   2.0000      -0.565112       -15.3775
  44   2.0000      -0.532037       -14.4775
  45   2.0000      -0.526515       -14.3272
  46   2.0000      -0.519126       -14.1261
  47   2.0000      -0.513685       -13.9781
  48   2.0000      -0.508179       -13.8282
  49   2.0000      -0.503199       -13.6927
  50   2.0000      -0.492583       -13.4039
  51   2.0000      -0.482464       -13.1285
  52   2.0000      -0.466947       -12.7063
  53   2.0000      -0.464297       -12.6342
  54   2.0000      -0.459794       -12.5116
  55   2.0000      -0.449181       -12.2228
  56   2.0000      -0.440939       -11.9986
  57   2.0000      -0.432265       -11.7625
  58   2.0000      -0.430702       -11.7200
  59   2.0000      -0.422395       -11.4940
  60   2.0000      -0.418312       -11.3828
  61   2.0000      -0.413171       -11.2429
  62   2.0000      -0.409175       -11.1342
  63   2.0000      -0.337985        -9.1970
  64   2.0000      -0.334643        -9.1061
  65   2.0000      -0.326793        -8.8925
  66   2.0000      -0.297821        -8.1041
  67   0.0000       0.030099         0.8190
  68   0.0000       0.077158         2.0996
  69   0.0000       0.109616         2.9828
  70   0.0000       0.121287         3.3004
  71   0.0000       0.134236         3.6527

MULLIKEN ATOMIC CHARGES
-----------------------
   0 S :    0.097793
   1 C :   -0.125418
   2 C :   -0.084037
   3 C :   -0.015120
   4 C :   -0.125611
   5 H :    0.002068
   6 C :    0.071452
   7 H :    0.031388
   8 H :    0.035202
   9 C :   -0.112845
  10 H :    0.040502
  11 H :    0.039332
  12 C :   -0.057408
  13 H :    0.033234
  14 H :    0.038199
  15 H :    0.045598
  16 S :    0.124554
  17 C :   -0.114936
  18 C :   -0.032246
  19 C :   -0.038874
  20 C :   -0.174249
  21 H :    0.002634
  22 C :    0.059039
  23 H :    0.035985
  24 H :    0.038716
  25 C :   -0.074282
  26 H :    0.033784
  27 H :    0.035250
  28 C :   -0.006432
  29 H :    0.031612
  30 H :    0.019522
  31 H :    0.034923
  32 H :    0.048341
  33 H :    0.062332
Sum of atomic charges:   -0.0000000

LOEWDIN ATOMIC CHARGES
----------------------
   0 S :    0.412150
   1 C :   -0.195344
   2 C :   -0.053443
   3 C :   -0.076630
   4 C :   -0.215073
   5 H :    0.024087
   6 C :   -0.034716
   7 H :    0.035182
   8 H :    0.031001
   9 C :   -0.050847
  10 H :    0.031949
  11 H :    0.031184
  12 C :   -0.075378
  13 H :    0.018781
  14 H :    0.033594
  15 H :    0.034730
  16 S :    0.414762
  17 C :   -0.188897
  18 C :   -0.077560
  19 C :   -0.043816
  20 C :   -0.206945
  21 H :    0.023147
  22 C :   -0.030939
  23 H :    0.034783
  24 H :    0.038043
  25 C :   -0.049901
  26 H :    0.023263
  27 H :    0.032865
  28 C :   -0.055838
  29 H :    0.025473
  30 H :    0.020588
  31 H :    0.031458
  32 H :    0.022130
  33 H :    0.036156

  Mayer bond orders larger than 0.100000
B(  0-S ,  1-C ) :   1.1318 B(  0-S ,  4-C ) :   1.1519 B(  1-C ,  2-C ) :   1.6208
B(  1-C , 32-H ) :   0.9679 B(  2-C ,  3-C ) :   1.2337 B(  2-C ,  6-C ) :   1.0110
B(  3-C ,  4-C ) :   1.5989 B(  3-C ,  5-H ) :   1.0000 B(  4-C , 20-C ) :   1.0198
B(  6-C ,  7-H ) :   0.9429 B(  6-C ,  8-H ) :   0.9351 B(  6-C ,  9-C ) :   1.0577
B(  9-C , 10-H ) :   0.9583 B(  9-C , 11-H ) :   0.9541 B(  9-C , 12-C ) :   1.0919
B( 12-C , 13-H ) :   0.9743 B( 12-C , 14-H ) :   0.9687 B( 12-C , 15-H ) :   0.9736
B( 16-S , 17-C ) :   1.1581 B( 16-S , 20-C ) :   1.1414 B( 17-C , 18-C ) :   1.6259
B( 17-C , 33-H ) :   0.9565 B( 18-C , 19-C ) :   1.2440 B( 18-C , 21-H ) :   0.9884
B( 19-C , 20-C ) :   1.5909 B( 19-C , 22-C ) :   0.9963 B( 22-C , 23-H ) :   0.9361
B( 22-C , 24-H ) :   0.9171 B( 22-C , 25-C ) :   1.1046 B( 25-C , 26-H ) :   0.9357
B( 25-C , 27-H ) :   0.9494 B( 25-C , 28-C ) :   1.0870 B( 28-C , 29-H ) :   0.9755
B( 28-C , 30-H ) :   0.9675 B( 28-C , 31-H ) :   0.9688

Dispersion correction           -0.013294401
FINAL SINGLE POINT ENERGY     -1339.854867317772

DIPOLE MOMENT
-------------
                                X             Y             Z
Electronic contribution:      3.06364     -22.38897      -0.55970
Nuclear contribution   :     -2.98011      23.03140       0.26496
                        -----------------------------------------
Total Dipole Moment    :      0.08354       0.64243      -0.29474
                        -----------------------------------------
Magnitude (a.u.)       :      0.71174
Magnitude (Debye)      :      1.80910

Rotational constants in cm-1:     0.019195     0.007163     0.006230
Rotational constants in MHz :   575.440518   214.750617   186.758437

                             ****ORCA TERMINATED NORMALLY****
TOTAL RUN TIME: 0 days 0 hours 0 minutes 30 seconds 214 msec
