                         Program Version 4.2.1 -  RELEASE  -
|  1> ! wB97X-D3 SP def2-SVP
|  2> %pal
|  3> nprocs 16
|  4> end
|  5>
|  6> * xyz 0 1
|  7> S 	 31.0647 	 19.6434 	 68.7455
|  8> C 	 30.1253 	 18.1758 	 68.7988
|  9> C 	 30.3869 	 17.3612 	 69.8742
| 10> C 	 31.3456 	 17.9476 	 70.7614
| 11> C 	 31.8329 	 19.1775 	 70.308
| 12> H 	 31.6756 	 17.6177 	 71.7077
| 13> C 	 29.8947 	 15.9879 	 70.1906
| 14> H 	 28.7865 	 16.0621 	 70.2251
| 15> H 	 30.2676 	 15.6074 	 71.0869
| 16> C 	 30.3072 	 15.0229 	 69.1096
| 17> H 	 30.1046 	 15.3911 	 68.0975
| 18> H 	 31.4059 	 14.7754 	 69.1272
| 19> C 	 29.554 	 13.7236 	 69.3107
| 20> H 	 28.4648 	 13.8729 	 69.4593
| 21> H 	 29.75 	 13.0511 	 68.4347
| 22> H 	 29.8725 	 13.1827 	 70.198
| 23> S 	 32.8766 	 21.7923 	 71.0751
| 24> C 	 34.568 	 21.79 	 71.6564
| 25> C 	 35.0888 	 20.4858 	 71.7052
| 26> C 	 34.1873 	 19.4605 	 71.4133
| 27> C 	 32.9442 	 19.9909 	 70.92
| 28> H 	 36.139 	 20.3634 	 71.9944
| 29> C 	 34.6223 	 17.9647 	 71.4975
| 30> H 	 33.9 	 17.3496 	 72.0447
| 31> H 	 35.6081 	 17.7814 	 71.9116
| 32> C 	 34.5811 	 17.2847 	 70.0996
| 33> H 	 33.716 	 17.652 	 69.5595
| 34> H 	 34.278 	 16.2155 	 70.1829
| 35> C 	 35.889 	 17.675 	 69.2874
| 36> H 	 36.7786 	 17.3643 	 69.7308
| 37> H 	 35.8505 	 18.7151 	 69.053
| 38> H 	 35.6175 	 17.2803 	 68.271
| 39> H 	 29.3054 	 17.8865 	 68.0507
| 40> H 	 35.1226 	 22.6554 	 71.8314
| 41> *
| 42>
| 43>                          ****END OF INPUT****

CARTESIAN COORDINATES (ANGSTROEM)
---------------------------------
  S     31.064700   19.643400   68.745500
  C     30.125300   18.175800   68.798800
  C     30.386900   17.361200   69.874200
  C     31.345600   17.947600   70.761400
  C     31.832900   19.177500   70.308000
  H     31.675600   17.617700   71.707700
  C     29.894700   15.987900   70.190600
  H     28.786500   16.062100   70.225100
  H     30.267600   15.607400   71.086900
  C     30.307200   15.022900   69.109600
  H     30.104600   15.391100   68.097500
  H     31.405900   14.775400   69.127200
  C     29.554000   13.723600   69.310700
  H     28.464800   13.872900   69.459300
  H     29.750000   13.051100   68.434700
  H     29.872500   13.182700   70.198000
  S     32.876600   21.792300   71.075100
  C     34.568000   21.790000   71.656400
  C     35.088800   20.485800   71.705200
  C     34.187300   19.460500   71.413300
  C     32.944200   19.990900   70.920000
  H     36.139000   20.363400   71.994400
  C     34.622300   17.964700   71.497500
  H     33.900000   17.349600   72.044700
  H     35.608100   17.781400   71.911600
  C     34.581100   17.284700   70.099600
  H     33.716000   17.652000   69.559500
  H     34.278000   16.215500   70.182900
  C     35.889000   17.675000   69.287400
  H     36.778600   17.364300   69.730800
  H     35.850500   18.715100   69.053000
  H     35.617500   17.280300   68.271000
  H     29.305400   17.886500   68.050700
  H     35.122600   22.655400   71.831400

 Total Charge           Charge          ....    0
 Multiplicity           Mult            ....    1
 Number of Electrons    NEL             ....  134
 Basis Dimension        Dim             ....  322

ORBITAL ENERGIES
----------------

  NO   OCC          E(Eh)            E(eV)
   0   2.0000     -88.973697     -2421.0974
   1   2.0000     -88.970857     -2421.0201
   2   2.0000     -10.340327      -281.3746
   3   2.0000     -10.337203      -281.2896
   4   2.0000     -10.320037      -280.8225
   5   2.0000     -10.319137      -280.7980
   6   2.0000     -10.312236      -280.6102
   7   2.0000     -10.299659      -280.2680
   8   2.0000     -10.296888      -280.1926
   9   2.0000     -10.295881      -280.1652
  10   2.0000     -10.292874      -280.0833
  11   2.0000     -10.289319      -279.9866
  12   2.0000     -10.288430      -279.9624
  13   2.0000     -10.283424      -279.8262
  14   2.0000     -10.280763      -279.7538
  15   2.0000     -10.272728      -279.5351
  16   2.0000      -8.086340      -220.0405
  17   2.0000      -8.084546      -219.9917
  18   2.0000      -6.044871      -164.4893
  19   2.0000      -6.043116      -164.4415
  20   2.0000      -6.041182      -164.3889
  21   2.0000      -6.039267      -164.3368
  22   2.0000      -6.037179      -164.2800
  23   2.0000      -6.035239      -164.2272
  24   2.0000      -0.995905       -27.1000
  25   2.0000      -0.976317       -26.5669
  26   2.0000      -0.920801       -25.0563
  27   2.0000      -0.900110       -24.4932
  28   2.0000      -0.860386       -23.4123
  29   2.0000      -0.851723       -23.1765
  30   2.0000      -0.842321       -22.9207
  31   2.0000      -0.807546       -21.9744
  32   2.0000      -0.782728       -21.2991
  33   2.0000      -0.770267       -20.9600
  34   2.0000      -0.708098       -19.2683
  35   2.0000      -0.698730       -19.0134
  36   2.0000      -0.685472       -18.6526
  37   2.0000      -0.658726       -17.9248
  38   2.0000      -0.638469       -17.3736
  39   2.0000      -0.617617       -16.8062
  40   2.0000      -0.596769       -16.2389
  41   2.0000      -0.582699       -15.8561
  42   2.0000      -0.556180       -15.1344
  43   2.0000      -0.546789       -14.8789
  44   2.0000      -0.535423       -14.5696
  45   2.0000      -0.526051       -14.3146
  46   2.0000      -0.520919       -14.1749
  47   2.0000      -0.509785       -13.8720
  48   2.0000      -0.503381       -13.6977
  49   2.0000      -0.490193       -13.3388
  50   2.0000      -0.486158       -13.2290
  51   2.0000      -0.479875       -13.0581
  52   2.0000      -0.471168       -12.8211
  53   2.0000      -0.466661       -12.6985
  54   2.0000      -0.461021       -12.5450
  55   2.0000      -0.449222       -12.2239
  56   2.0000      -0.442535       -12.0420
  57   2.0000      -0.440641       -11.9905
  58   2.0000      -0.430391       -11.7115
  59   2.0000      -0.427948       -11.6451
  60   2.0000      -0.417382       -11.3575
  61   2.0000      -0.412945       -11.2368
  62   2.0000      -0.405465       -11.0333
  63   2.0000      -0.343773        -9.3545
  64   2.0000      -0.335570        -9.1313
  65   2.0000      -0.331249        -9.0138
  66   2.0000      -0.284451        -7.7403
  67   0.0000       0.017044         0.4638
  68   0.0000       0.067224         1.8293
  69   0.0000       0.103591         2.8188
  70   0.0000       0.116155         3.1607
  71   0.0000       0.130308         3.5459

MULLIKEN ATOMIC CHARGES
-----------------------
   0 S :    0.113989
   1 C :   -0.153826
   2 C :   -0.068016
   3 C :    0.012787
   4 C :   -0.160165
   5 H :   -0.001681
   6 C :    0.116838
   7 H :    0.036214
   8 H :    0.002318
   9 C :   -0.100464
  10 H :    0.029552
  11 H :    0.039389
  12 C :   -0.059014
  13 H :    0.030218
  14 H :    0.041692
  15 H :    0.024663
  16 S :    0.110631
  17 C :   -0.084560
  18 C :   -0.042370
  19 C :   -0.008096
  20 C :   -0.161939
  21 H :    0.026959
  22 C :    0.075974
  23 H :    0.021338
  24 H :    0.022982
  25 C :   -0.125241
  26 H :    0.043782
  27 H :    0.024772
  28 C :   -0.014816
  29 H :    0.032918
  30 H :    0.030859
  31 H :    0.032345
  32 H :    0.069597
  33 H :    0.040372
Sum of atomic charges:    0.0000000

LOEWDIN ATOMIC CHARGES
----------------------
   0 S :    0.389361
   1 C :   -0.215029
   2 C :   -0.063340
   3 C :   -0.057296
   4 C :   -0.174449
   5 H :    0.024341
   6 C :   -0.024211
   7 H :    0.037953
   8 H :    0.022218
   9 C :   -0.042082
  10 H :    0.021916
  11 H :    0.031860
  12 C :   -0.072319
  13 H :    0.024658
  14 H :    0.030933
  15 H :    0.021314
  16 S :    0.378661
  17 C :   -0.167919
  18 C :   -0.071191
  19 C :   -0.046754
  20 C :   -0.189833
  21 H :    0.035807
  22 C :   -0.029073
  23 H :    0.027914
  24 H :    0.027526
  25 C :   -0.044138
  26 H :    0.025016
  27 H :    0.022359
  28 C :   -0.060284
  29 H :    0.012716
  30 H :    0.026474
  31 H :    0.036509
  32 H :    0.043575
  33 H :    0.016805

  Mayer bond orders larger than 0.100000
B(  0-S ,  1-C ) :   1.1306 B(  0-S ,  4-C ) :   1.1363 B(  1-C ,  2-C ) :   1.6314
B(  1-C , 32-H ) :   0.9498 B(  2-C ,  3-C ) :   1.2265 B(  2-C ,  6-C ) :   1.0195
B(  3-C ,  4-C ) :   1.5781 B(  3-C ,  5-H ) :   1.0046 B(  4-C , 20-C ) :   1.0498
B(  6-C ,  7-H ) :   0.9325 B(  6-C ,  8-H ) :   0.9406 B(  6-C ,  9-C ) :   1.0696
B(  9-C , 10-H ) :   0.9602 B(  9-C , 11-H ) :   0.9494 B(  9-C , 12-C ) :   1.0833
B( 12-C , 13-H ) :   0.9744 B( 12-C , 14-H ) :   0.9726 B( 12-C , 15-H ) :   0.9716
B( 16-S , 17-C ) :   1.1486 B( 16-S , 20-C ) :   1.1465 B( 17-C , 18-C ) :   1.5855
B( 17-C , 20-C ) :   0.1168 B( 17-C , 33-H ) :   0.9750 B( 18-C , 19-C ) :   1.2826
B( 18-C , 21-H ) :   0.9836 B( 19-C , 20-C ) :   1.5325 B( 19-C , 22-C ) :   1.0351
B( 22-C , 23-H ) :   0.9371 B( 22-C , 24-H ) :   0.9483 B( 22-C , 25-C ) :   1.0591
B( 25-C , 26-H ) :   0.9564 B( 25-C , 27-H ) :   0.9593 B( 25-C , 28-C ) :   1.0591
B( 28-C , 29-H ) :   0.9816 B( 28-C , 30-H ) :   0.9744 B( 28-C , 31-H ) :   0.9722

Dispersion correction           -0.015417230
FINAL SINGLE POINT ENERGY     -1339.859917851468

DIPOLE MOMENT
-------------
                                X             Y             Z
Electronic contribution:     -3.30918      29.71827       2.85567
Nuclear contribution   :      3.47781     -30.34026      -2.74874
                        -----------------------------------------
Total Dipole Moment    :      0.16863      -0.62199       0.10693
                        -----------------------------------------
Magnitude (a.u.)       :      0.65325
Magnitude (Debye)      :      1.66044

Rotational constants in cm-1:     0.021985     0.008445     0.006919
Rotational constants in MHz :   659.095850   253.163539   207.412530

                             ****ORCA TERMINATED NORMALLY****
TOTAL RUN TIME: 0 days 0 hours 0 minutes 31 seconds 882 msec
