                         Program Version 4.2.1 -  RELEASE  -
|  1> ! wB97X-D3 SP def2-SVP
|  2> %pal
|  3> nprocs 16
|  4> end
|  5>
|  6> * xyz 0 1
|  7> S 	 0.0321631 	 10.3883 	 86.8114
|  8> C 	 -1.00965 	 10.4225 	 85.415
|  9> C 	 -0.467502 	 11.1969 	 84.4126
| 10> C 	 0.83244 	 11.5773 	 84.7528
| 11> C 	 1.32025 	 11.1902 	 85.9697
| 12> H 	 1.28363 	 12.1893 	 84.0799
| 13> C 	 -1.15626 	 11.5742 	 83.1459
| 14> H 	 -0.814484 	 12.5413 	 82.7594
| 15> H 	 -2.20974 	 11.7497 	 83.4978
| 16> C 	 -1.08367 	 10.5254 	 82.0268
| 17> H 	 -0.0762657 	 10.3435 	 81.6839
| 18> H 	 -1.32605 	 9.58171 	 82.4164
| 19> C 	 -1.95269 	 10.9594 	 80.749
| 20> H 	 -1.59304 	 10.4307 	 79.8099
| 21> H 	 -3.008 	 10.844 	 81.0464
| 22> H 	 -1.72318 	 12.009 	 80.6025
| 23> S 	 2.25899 	 12.2747 	 88.2819
| 24> C 	 3.72079 	 13.1199 	 88.3018
| 25> C 	 4.34476 	 13.0935 	 87.0778
| 26> C 	 3.82083 	 12.1728 	 86.1922
| 27> C 	 2.50457 	 11.7478 	 86.6127
| 28> H 	 5.25567 	 13.6472 	 87.0125
| 29> C 	 4.38498 	 12.0683 	 84.8382
| 30> H 	 3.75486 	 11.2976 	 84.2668
| 31> H 	 5.41043 	 11.8807 	 84.7505
| 32> C 	 4.22549 	 13.4103 	 84.0321
| 33> H 	 4.3916 	 14.2414 	 84.6511
| 34> H 	 3.21573 	 13.5754 	 83.8422
| 35> C 	 5.0353 	 13.3069 	 82.6558
| 36> H 	 5.93304 	 12.7465 	 82.6477
| 37> H 	 5.30538 	 14.3379 	 82.2899
| 38> H 	 4.49517 	 12.7937 	 81.8474
| 39> H 	 -1.93786 	 9.88315 	 85.1561
| 40> H 	 4.08988 	 13.7729 	 89.1093
| 41> *
| 42>
| 43>                          ****END OF INPUT****

CARTESIAN COORDINATES (ANGSTROEM)
---------------------------------
  S      0.032163   10.388300   86.811400
  C     -1.009650   10.422500   85.415000
  C     -0.467502   11.196900   84.412600
  C      0.832440   11.577300   84.752800
  C      1.320250   11.190200   85.969700
  H      1.283630   12.189300   84.079900
  C     -1.156260   11.574200   83.145900
  H     -0.814484   12.541300   82.759400
  H     -2.209740   11.749700   83.497800
  C     -1.083670   10.525400   82.026800
  H     -0.076266   10.343500   81.683900
  H     -1.326050    9.581710   82.416400
  C     -1.952690   10.959400   80.749000
  H     -1.593040   10.430700   79.809900
  H     -3.008000   10.844000   81.046400
  H     -1.723180   12.009000   80.602500
  S      2.258990   12.274700   88.281900
  C      3.720790   13.119900   88.301800
  C      4.344760   13.093500   87.077800
  C      3.820830   12.172800   86.192200
  C      2.504570   11.747800   86.612700
  H      5.255670   13.647200   87.012500
  C      4.384980   12.068300   84.838200
  H      3.754860   11.297600   84.266800
  H      5.410430   11.880700   84.750500
  C      4.225490   13.410300   84.032100
  H      4.391600   14.241400   84.651100
  H      3.215730   13.575400   83.842200
  C      5.035300   13.306900   82.655800
  H      5.933040   12.746500   82.647700
  H      5.305380   14.337900   82.289900
  H      4.495170   12.793700   81.847400
  H     -1.937860    9.883150   85.156100
  H      4.089880   13.772900   89.109300

 Total Charge           Charge          ....    0
 Multiplicity           Mult            ....    1
 Number of Electrons    NEL             ....  134
 Basis Dimension        Dim             ....  322

ORBITAL ENERGIES
----------------

  NO   OCC          E(Eh)            E(eV)
   0   2.0000     -88.970410     -2421.0079
   1   2.0000     -88.965696     -2420.8797
   2   2.0000     -10.334117      -281.2056
   3   2.0000     -10.330383      -281.1040
   4   2.0000     -10.313902      -280.6556
   5   2.0000     -10.310953      -280.5753
   6   2.0000     -10.303127      -280.3623
   7   2.0000     -10.297582      -280.2115
   8   2.0000     -10.292389      -280.0701
   9   2.0000     -10.290676      -280.0235
  10   2.0000     -10.289743      -279.9981
  11   2.0000     -10.286907      -279.9210
  12   2.0000     -10.285362      -279.8789
  13   2.0000     -10.284323      -279.8507
  14   2.0000     -10.283936      -279.8401
  15   2.0000     -10.280516      -279.7471
  16   2.0000      -8.085103      -220.0068
  17   2.0000      -8.081345      -219.9046
  18   2.0000      -6.043755      -164.4589
  19   2.0000      -6.039627      -164.3466
  20   2.0000      -6.039585      -164.3455
  21   2.0000      -6.035734      -164.2407
  22   2.0000      -6.035628      -164.2378
  23   2.0000      -6.032377      -164.1493
  24   2.0000      -1.014735       -27.6124
  25   2.0000      -0.993602       -27.0373
  26   2.0000      -0.915069       -24.9003
  27   2.0000      -0.910237       -24.7688
  28   2.0000      -0.869749       -23.6671
  29   2.0000      -0.852141       -23.1879
  30   2.0000      -0.847506       -23.0618
  31   2.0000      -0.814321       -22.1588
  32   2.0000      -0.781314       -21.2606
  33   2.0000      -0.769638       -20.9429
  34   2.0000      -0.719639       -19.5824
  35   2.0000      -0.709747       -19.3132
  36   2.0000      -0.703584       -19.1455
  37   2.0000      -0.662042       -18.0151
  38   2.0000      -0.634771       -17.2730
  39   2.0000      -0.633048       -17.2261
  40   2.0000      -0.602070       -16.3832
  41   2.0000      -0.577252       -15.7078
  42   2.0000      -0.562273       -15.3002
  43   2.0000      -0.553806       -15.0698
  44   2.0000      -0.529850       -14.4179
  45   2.0000      -0.522049       -14.2057
  46   2.0000      -0.513545       -13.9743
  47   2.0000      -0.511088       -13.9074
  48   2.0000      -0.505152       -13.7459
  49   2.0000      -0.499727       -13.5983
  50   2.0000      -0.491980       -13.3875
  51   2.0000      -0.482480       -13.1290
  52   2.0000      -0.470946       -12.8151
  53   2.0000      -0.465361       -12.6631
  54   2.0000      -0.459858       -12.5134
  55   2.0000      -0.450237       -12.2516
  56   2.0000      -0.447004       -12.1636
  57   2.0000      -0.444323       -12.0906
  58   2.0000      -0.439775       -11.9669
  59   2.0000      -0.430963       -11.7271
  60   2.0000      -0.422443       -11.4953
  61   2.0000      -0.417435       -11.3590
  62   2.0000      -0.414393       -11.2762
  63   2.0000      -0.355205        -9.6656
  64   2.0000      -0.335195        -9.1211
  65   2.0000      -0.329556        -8.9677
  66   2.0000      -0.279169        -7.5966
  67   0.0000       0.021405         0.5825
  68   0.0000       0.074357         2.0234
  69   0.0000       0.106190         2.8896
  70   0.0000       0.125014         3.4018
  71   0.0000       0.130000         3.5375

MULLIKEN ATOMIC CHARGES
-----------------------
   0 S :    0.113502
   1 C :   -0.116449
   2 C :   -0.120662
   3 C :    0.061523
   4 C :   -0.070442
   5 H :   -0.065911
   6 C :    0.038651
   7 H :    0.022226
   8 H :    0.034781
   9 C :   -0.043034
  10 H :    0.018695
  11 H :    0.008226
  12 C :   -0.061732
  13 H :    0.053633
  14 H :    0.047931
  15 H :    0.027077
  16 S :    0.108463
  17 C :   -0.093338
  18 C :   -0.060432
  19 C :    0.002117
  20 C :   -0.154561
  21 H :    0.017218
  22 C :    0.043833
  23 H :    0.040946
  24 H :    0.014820
  25 C :   -0.035318
  26 H :    0.010890
  27 H :    0.003165
  28 C :   -0.057173
  29 H :    0.021766
  30 H :    0.041477
  31 H :    0.032823
  32 H :    0.051277
  33 H :    0.064012
Sum of atomic charges:   -0.0000000

LOEWDIN ATOMIC CHARGES
----------------------
   0 S :    0.419097
   1 C :   -0.205667
   2 C :   -0.067905
   3 C :   -0.054845
   4 C :   -0.200628
   5 H :    0.009308
   6 C :   -0.034849
   7 H :    0.029432
   8 H :    0.038059
   9 C :   -0.035361
  10 H :    0.021994
  11 H :    0.012967
  12 C :   -0.067212
  13 H :    0.036283
  14 H :    0.029080
  15 H :    0.021819
  16 S :    0.429810
  17 C :   -0.210326
  18 C :   -0.076581
  19 C :   -0.058891
  20 C :   -0.185612
  21 H :    0.029671
  22 C :   -0.029923
  23 H :    0.039194
  24 H :    0.021453
  25 C :   -0.025819
  26 H :    0.016882
  27 H :    0.014361
  28 C :   -0.070404
  29 H :    0.017640
  30 H :    0.033096
  31 H :    0.028869
  32 H :    0.038415
  33 H :    0.036591

  Mayer bond orders larger than 0.100000
B(  0-S ,  1-C ) :   1.1470 B(  0-S ,  4-C ) :   1.1498 B(  1-C ,  2-C ) :   1.5872
B(  1-C , 32-H ) :   0.9565 B(  2-C ,  3-C ) :   1.3201 B(  2-C ,  6-C ) :   1.0175
B(  3-C ,  4-C ) :   1.4890 B(  3-C ,  5-H ) :   1.0116 B(  4-C , 20-C ) :   1.0649
B(  6-C ,  7-H ) :   0.9364 B(  6-C ,  8-H ) :   0.9422 B(  6-C ,  9-C ) :   1.0598
B(  9-C , 10-H ) :   0.9556 B(  9-C , 11-H ) :   0.9581 B(  9-C , 12-C ) :   1.0603
B( 12-C , 13-H ) :   0.9767 B( 12-C , 14-H ) :   0.9794 B( 12-C , 15-H ) :   0.9763
B( 16-S , 17-C ) :   1.1781 B( 16-S , 20-C ) :   1.1650 B( 17-C , 18-C ) :   1.5848
B( 17-C , 20-C ) :   0.1063 B( 17-C , 33-H ) :   0.9625 B( 18-C , 19-C ) :   1.2747
B( 18-C , 21-H ) :   0.9880 B( 19-C , 20-C ) :   1.5030 B( 19-C , 22-C ) :   1.0866
B( 22-C , 23-H ) :   0.9387 B( 22-C , 24-H ) :   0.9326 B( 22-C , 25-C ) :   1.0434
B( 25-C , 26-H ) :   0.9576 B( 25-C , 27-H ) :   0.9519 B( 25-C , 28-C ) :   1.0510
B( 28-C , 29-H ) :   0.9801 B( 28-C , 30-H ) :   0.9775 B( 28-C , 31-H ) :   0.9776

Dispersion correction           -0.013830348
FINAL SINGLE POINT ENERGY     -1339.841805436301

DIPOLE MOMENT
-------------
                                X             Y             Z
Electronic contribution:     -1.62961      -5.44976      32.19305
Nuclear contribution   :      1.70694       5.86276     -32.87358
                        -----------------------------------------
Total Dipole Moment    :      0.07732       0.41300      -0.68053
                        -----------------------------------------
Magnitude (a.u.)       :      0.79980
Magnitude (Debye)      :      2.03292

Rotational constants in cm-1:     0.017451     0.008925     0.006182
Rotational constants in MHz :   523.161043   267.558975   185.320310

                             ****ORCA TERMINATED NORMALLY****
TOTAL RUN TIME: 0 days 0 hours 0 minutes 34 seconds 253 msec
