                         Program Version 4.2.1 -  RELEASE  -
|  1> ! wB97X-D3 SP def2-SVP
|  2> %pal
|  3> nprocs 16
|  4> end
|  5>
|  6> * xyz 0 1
|  7> S 	 -40.9838 	 49.1851 	 104.174
|  8> C 	 -39.4758 	 49.1246 	 105.074
|  9> C 	 -38.6066 	 50.0998 	 104.692
| 10> C 	 -39.201 	 50.9817 	 103.683
| 11> C 	 -40.5204 	 50.6433 	 103.35
| 12> H 	 -38.6784 	 51.8319 	 103.183
| 13> C 	 -37.2199 	 50.2406 	 105.241
| 14> H 	 -37.1357 	 49.8102 	 106.227
| 15> H 	 -37.0558 	 51.4024 	 105.273
| 16> C 	 -35.98 	 49.6118 	 104.417
| 17> H 	 -35.0204 	 50.0114 	 104.748
| 18> H 	 -35.8811 	 48.5634 	 104.57
| 19> C 	 -36.1088 	 49.9781 	 102.924
| 20> H 	 -35.2775 	 49.6512 	 102.364
| 21> H 	 -37.0413 	 49.6339 	 102.479
| 22> H 	 -36.1722 	 51.0339 	 102.895
| 23> S 	 -42.3987 	 52.6435 	 103.347
| 24> C 	 -43.1041 	 53.1536 	 101.852
| 25> C 	 -42.6616 	 52.4356 	 100.807
| 26> C 	 -41.6671 	 51.484 	 101.152
| 27> C 	 -41.4459 	 51.4219 	 102.479
| 28> H 	 -43.0766 	 52.5571 	 99.8317
| 29> C 	 -41.1145 	 50.6184 	 100.057
| 30> H 	 -41.9693 	 50.1583 	 99.5715
| 31> H 	 -40.5859 	 49.787 	 100.515
| 32> C 	 -40.2011 	 51.2208 	 99.0514
| 33> H 	 -39.2859 	 51.5449 	 99.707
| 34> H 	 -40.493 	 52.0956 	 98.5122
| 35> C 	 -39.9681 	 50.1668 	 97.9154
| 36> H 	 -40.7954 	 50.011 	 97.2675
| 37> H 	 -39.6597 	 49.1933 	 98.3658
| 38> H 	 -39.1719 	 50.5161 	 97.3472
| 39> H 	 -39.2131 	 48.3836 	 105.83
| 40> H 	 -43.9663 	 53.7323 	 101.714
| 41> *
| 42>
| 43>                          ****END OF INPUT****

CARTESIAN COORDINATES (ANGSTROEM)
---------------------------------
  S    -40.983800   49.185100  104.174000
  C    -39.475800   49.124600  105.074000
  C    -38.606600   50.099800  104.692000
  C    -39.201000   50.981700  103.683000
  C    -40.520400   50.643300  103.350000
  H    -38.678400   51.831900  103.183000
  C    -37.219900   50.240600  105.241000
  H    -37.135700   49.810200  106.227000
  H    -37.055800   51.402400  105.273000
  C    -35.980000   49.611800  104.417000
  H    -35.020400   50.011400  104.748000
  H    -35.881100   48.563400  104.570000
  C    -36.108800   49.978100  102.924000
  H    -35.277500   49.651200  102.364000
  H    -37.041300   49.633900  102.479000
  H    -36.172200   51.033900  102.895000
  S    -42.398700   52.643500  103.347000
  C    -43.104100   53.153600  101.852000
  C    -42.661600   52.435600  100.807000
  C    -41.667100   51.484000  101.152000
  C    -41.445900   51.421900  102.479000
  H    -43.076600   52.557100   99.831700
  C    -41.114500   50.618400  100.057000
  H    -41.969300   50.158300   99.571500
  H    -40.585900   49.787000  100.515000
  C    -40.201100   51.220800   99.051400
  H    -39.285900   51.544900   99.707000
  H    -40.493000   52.095600   98.512200
  C    -39.968100   50.166800   97.915400
  H    -40.795400   50.011000   97.267500
  H    -39.659700   49.193300   98.365800
  H    -39.171900   50.516100   97.347200
  H    -39.213100   48.383600  105.830000
  H    -43.966300   53.732300  101.714000

 Total Charge           Charge          ....    0
 Multiplicity           Mult            ....    1
 Number of Electrons    NEL             ....  134
 Basis Dimension        Dim             ....  322

ORBITAL ENERGIES
----------------

  NO   OCC          E(Eh)            E(eV)
   0   2.0000     -88.966093     -2420.8905
   1   2.0000     -88.960861     -2420.7481
   2   2.0000     -10.332785      -281.1694
   3   2.0000     -10.325590      -280.9736
   4   2.0000     -10.313732      -280.6509
   5   2.0000     -10.306370      -280.4506
   6   2.0000     -10.303128      -280.3624
   7   2.0000     -10.302832      -280.3543
   8   2.0000     -10.301948      -280.3302
   9   2.0000     -10.295944      -280.1669
  10   2.0000     -10.291011      -280.0326
  11   2.0000     -10.289062      -279.9796
  12   2.0000     -10.284179      -279.8467
  13   2.0000     -10.282846      -279.8105
  14   2.0000     -10.275283      -279.6047
  15   2.0000     -10.267544      -279.3941
  16   2.0000      -8.080846      -219.8910
  17   2.0000      -8.075941      -219.7575
  18   2.0000      -6.039422      -164.3410
  19   2.0000      -6.035284      -164.2284
  20   2.0000      -6.034537      -164.2081
  21   2.0000      -6.031592      -164.1280
  22   2.0000      -6.030450      -164.0969
  23   2.0000      -6.026531      -163.9902
  24   2.0000      -1.007494       -27.4153
  25   2.0000      -0.986603       -26.8468
  26   2.0000      -0.915012       -24.8988
  27   2.0000      -0.904717       -24.6186
  28   2.0000      -0.868445       -23.6316
  29   2.0000      -0.851549       -23.1718
  30   2.0000      -0.843124       -22.9426
  31   2.0000      -0.815628       -22.1944
  32   2.0000      -0.783236       -21.3129
  33   2.0000      -0.773124       -21.0378
  34   2.0000      -0.706112       -19.2143
  35   2.0000      -0.703930       -19.1549
  36   2.0000      -0.695629       -18.9290
  37   2.0000      -0.664452       -18.0807
  38   2.0000      -0.636889       -17.3306
  39   2.0000      -0.612531       -16.6678
  40   2.0000      -0.600724       -16.3465
  41   2.0000      -0.568067       -15.4579
  42   2.0000      -0.564509       -15.3611
  43   2.0000      -0.549754       -14.9596
  44   2.0000      -0.544204       -14.8085
  45   2.0000      -0.526741       -14.3334
  46   2.0000      -0.519602       -14.1391
  47   2.0000      -0.513354       -13.9691
  48   2.0000      -0.509319       -13.8593
  49   2.0000      -0.496546       -13.5117
  50   2.0000      -0.489149       -13.3104
  51   2.0000      -0.471980       -12.8432
  52   2.0000      -0.470935       -12.8148
  53   2.0000      -0.459473       -12.5029
  54   2.0000      -0.456788       -12.4298
  55   2.0000      -0.451547       -12.2872
  56   2.0000      -0.444937       -12.1073
  57   2.0000      -0.442138       -12.0312
  58   2.0000      -0.436395       -11.8749
  59   2.0000      -0.425513       -11.5788
  60   2.0000      -0.420586       -11.4447
  61   2.0000      -0.416698       -11.3389
  62   2.0000      -0.407535       -11.0896
  63   2.0000      -0.334040        -9.0897
  64   2.0000      -0.324274        -8.8240
  65   2.0000      -0.323751        -8.8097
  66   2.0000      -0.319307        -8.6888
  67   0.0000       0.048260         1.3132
  68   0.0000       0.059405         1.6165
  69   0.0000       0.113646         3.0925
  70   0.0000       0.118786         3.2323
  71   0.0000       0.125619         3.4183

MULLIKEN ATOMIC CHARGES
-----------------------
   0 S :    0.118863
   1 C :   -0.120465
   2 C :   -0.081259
   3 C :    0.033764
   4 C :   -0.184635
   5 H :    0.031720
   6 C :    0.014978
   7 H :    0.026835
   8 H :    0.048608
   9 C :   -0.052301
  10 H :    0.026674
  11 H :    0.022866
  12 C :   -0.039302
  13 H :    0.027941
  14 H :    0.046910
  15 H :    0.009641
  16 S :    0.105103
  17 C :   -0.041392
  18 C :   -0.043734
  19 C :    0.018196
  20 C :   -0.197581
  21 H :    0.005582
  22 C :    0.071637
  23 H :    0.019633
  24 H :    0.017889
  25 C :   -0.103414
  26 H :    0.042831
  27 H :    0.026089
  28 C :   -0.019639
  29 H :    0.033765
  30 H :    0.029712
  31 H :    0.019961
  32 H :    0.048985
  33 H :    0.035539
Sum of atomic charges:    0.0000000

LOEWDIN ATOMIC CHARGES
----------------------
   0 S :    0.407858
   1 C :   -0.192025
   2 C :   -0.074214
   3 C :   -0.061820
   4 C :   -0.209114
   5 H :    0.037779
   6 C :   -0.034795
   7 H :    0.027902
   8 H :    0.043127
   9 C :   -0.029651
  10 H :    0.024586
  11 H :    0.014912
  12 C :   -0.060267
  13 H :    0.019649
  14 H :    0.026995
  15 H :    0.016740
  16 S :    0.399388
  17 C :   -0.177442
  18 C :   -0.067158
  19 C :   -0.055340
  20 C :   -0.192349
  21 H :    0.027616
  22 C :   -0.035800
  23 H :    0.029834
  24 H :    0.030529
  25 C :   -0.041351
  26 H :    0.036989
  27 H :    0.017202
  28 C :   -0.054214
  29 H :    0.022994
  30 H :    0.028781
  31 H :    0.017836
  32 H :    0.032365
  33 H :    0.022456

  Mayer bond orders larger than 0.100000
B(  0-S ,  1-C ) :   1.1318 B(  0-S ,  4-C ) :   1.1577 B(  1-C ,  2-C ) :   1.6369
B(  1-C , 32-H ) :   0.9642 B(  2-C ,  3-C ) :   1.2089 B(  2-C ,  6-C ) :   1.0298
B(  3-C ,  4-C ) :   1.5996 B(  3-C ,  5-H ) :   0.9871 B(  4-C , 20-C ) :   0.9820
B(  6-C ,  7-H ) :   0.9446 B(  6-C ,  8-H ) :   0.9431 B(  6-C ,  9-C ) :   1.0561
B(  9-C , 10-H ) :   0.9582 B(  9-C , 11-H ) :   0.9604 B(  9-C , 12-C ) :   1.0818
B( 12-C , 13-H ) :   0.9728 B( 12-C , 14-H ) :   0.9707 B( 12-C , 15-H ) :   0.9754
B( 16-S , 17-C ) :   1.1420 B( 16-S , 20-C ) :   1.1280 B( 17-C , 18-C ) :   1.6545
B( 17-C , 33-H ) :   0.9624 B( 18-C , 19-C ) :   1.2041 B( 18-C , 21-H ) :   0.9930
B( 19-C , 20-C ) :   1.6652 B( 19-C , 22-C ) :   1.0405 B( 22-C , 23-H ) :   0.9355
B( 22-C , 24-H ) :   0.9269 B( 22-C , 25-C ) :   1.0635 B( 25-C , 26-H ) :   0.9511
B( 25-C , 27-H ) :   0.9592 B( 25-C , 28-C ) :   1.0707 B( 28-C , 29-H ) :   0.9751
B( 28-C , 30-H ) :   0.9743 B( 28-C , 31-H ) :   0.9736

Dispersion correction           -0.014367806
FINAL SINGLE POINT ENERGY     -1339.872410961820

DIPOLE MOMENT
-------------
                                X             Y             Z
Electronic contribution:    -21.80053       4.31539      15.91701
Nuclear contribution   :     22.17742      -4.38554     -16.35149
                        -----------------------------------------
Total Dipole Moment    :      0.37689      -0.07015      -0.43448
                        -----------------------------------------
Magnitude (a.u.)       :      0.57943
Magnitude (Debye)      :      1.47280

Rotational constants in cm-1:     0.016987     0.009113     0.006970
Rotational constants in MHz :   509.260686   273.203368   208.966500

                             ****ORCA TERMINATED NORMALLY****
TOTAL RUN TIME: 0 days 0 hours 0 minutes 30 seconds 62 msec
