                         Program Version 4.2.1 -  RELEASE  -
|  1> ! wB97X-D3 SP def2-SVP
|  2> %pal
|  3> nprocs 16
|  4> end
|  5>
|  6> * xyz 0 1
|  7> S 	 1.75127 	 -24.7823 	 61.5712
|  8> C 	 0.954105 	 -26.3109 	 61.9812
|  9> C 	 0.9696 	 -27.1844 	 60.9177
| 10> C 	 1.51925 	 -26.6002 	 59.7141
| 11> C 	 1.88585 	 -25.2358 	 59.8751
| 12> H 	 1.65554 	 -27.0981 	 58.7689
| 13> C 	 0.446931 	 -28.5769 	 60.915
| 14> H 	 -0.145246 	 -28.6242 	 59.9921
| 15> H 	 -0.317936 	 -28.6604 	 61.7215
| 16> C 	 1.53475 	 -29.6849 	 60.9927
| 17> H 	 0.995104 	 -30.5801 	 60.8996
| 18> H 	 2.26229 	 -29.557 	 60.0822
| 19> C 	 2.37442 	 -29.6795 	 62.2726
| 20> H 	 2.88778 	 -28.7458 	 62.4755
| 21> H 	 1.69695 	 -29.9244 	 63.0971
| 22> H 	 3.17925 	 -30.3228 	 62.3043
| 23> S 	 1.39587 	 -24.0263 	 57.5449
| 24> C 	 2.5898 	 -23.0571 	 56.7359
| 25> C 	 3.76534 	 -22.9351 	 57.5173
| 26> C 	 3.62112 	 -23.7026 	 58.7086
| 27> C 	 2.40067 	 -24.3846 	 58.8207
| 28> H 	 4.62188 	 -22.3152 	 57.1354
| 29> C 	 4.68595 	 -23.768 	 59.8321
| 30> H 	 4.30554 	 -24.2374 	 60.6878
| 31> H 	 4.9395 	 -22.7746 	 60.0965
| 32> C 	 5.96746 	 -24.4376 	 59.3794
| 33> H 	 6.7659 	 -24.3346 	 60.1693
| 34> H 	 6.32243 	 -23.7928 	 58.5444
| 35> C 	 5.87397 	 -25.9002 	 58.8464
| 36> H 	 6.79502 	 -26.2674 	 58.4269
| 37> H 	 5.09461 	 -25.8019 	 58.0305
| 38> H 	 5.43323 	 -26.6023 	 59.5163
| 39> H 	 0.609798 	 -26.6038 	 62.9967
| 40> H 	 2.31116 	 -22.6049 	 55.7417
| 41> *
| 42>
| 43>                          ****END OF INPUT****

CARTESIAN COORDINATES (ANGSTROEM)
---------------------------------
  S      1.751270  -24.782300   61.571200
  C      0.954105  -26.310900   61.981200
  C      0.969600  -27.184400   60.917700
  C      1.519250  -26.600200   59.714100
  C      1.885850  -25.235800   59.875100
  H      1.655540  -27.098100   58.768900
  C      0.446931  -28.576900   60.915000
  H     -0.145246  -28.624200   59.992100
  H     -0.317936  -28.660400   61.721500
  C      1.534750  -29.684900   60.992700
  H      0.995104  -30.580100   60.899600
  H      2.262290  -29.557000   60.082200
  C      2.374420  -29.679500   62.272600
  H      2.887780  -28.745800   62.475500
  H      1.696950  -29.924400   63.097100
  H      3.179250  -30.322800   62.304300
  S      1.395870  -24.026300   57.544900
  C      2.589800  -23.057100   56.735900
  C      3.765340  -22.935100   57.517300
  C      3.621120  -23.702600   58.708600
  C      2.400670  -24.384600   58.820700
  H      4.621880  -22.315200   57.135400
  C      4.685950  -23.768000   59.832100
  H      4.305540  -24.237400   60.687800
  H      4.939500  -22.774600   60.096500
  C      5.967460  -24.437600   59.379400
  H      6.765900  -24.334600   60.169300
  H      6.322430  -23.792800   58.544400
  C      5.873970  -25.900200   58.846400
  H      6.795020  -26.267400   58.426900
  H      5.094610  -25.801900   58.030500
  H      5.433230  -26.602300   59.516300
  H      0.609798  -26.603800   62.996700
  H      2.311160  -22.604900   55.741700

 Total Charge           Charge          ....    0
 Multiplicity           Mult            ....    1
 Number of Electrons    NEL             ....  134
 Basis Dimension        Dim             ....  322

ORBITAL ENERGIES
----------------

  NO   OCC          E(Eh)            E(eV)
   0   2.0000     -88.968595     -2420.9585
   1   2.0000     -88.966919     -2420.9130
   2   2.0000     -10.334200      -281.2079
   3   2.0000     -10.324016      -280.9308
   4   2.0000     -10.319494      -280.8077
   5   2.0000     -10.317581      -280.7556
   6   2.0000     -10.306318      -280.4492
   7   2.0000     -10.304623      -280.4030
   8   2.0000     -10.299938      -280.2756
   9   2.0000     -10.298483      -280.2360
  10   2.0000     -10.295399      -280.1521
  11   2.0000     -10.294830      -280.1366
  12   2.0000     -10.286697      -279.9153
  13   2.0000     -10.279743      -279.7260
  14   2.0000     -10.271908      -279.5128
  15   2.0000     -10.271128      -279.4916
  16   2.0000      -8.083370      -219.9597
  17   2.0000      -8.082172      -219.9271
  18   2.0000      -6.041528      -164.3983
  19   2.0000      -6.040772      -164.3778
  20   2.0000      -6.037407      -164.2862
  21   2.0000      -6.036846      -164.2709
  22   2.0000      -6.034610      -164.2101
  23   2.0000      -6.032896      -164.1634
  24   2.0000      -1.011715       -27.5302
  25   2.0000      -0.982737       -26.7416
  26   2.0000      -0.911448       -24.8018
  27   2.0000      -0.906298       -24.6616
  28   2.0000      -0.869174       -23.6514
  29   2.0000      -0.848743       -23.0955
  30   2.0000      -0.839018       -22.8308
  31   2.0000      -0.809984       -22.0408
  32   2.0000      -0.785137       -21.3647
  33   2.0000      -0.775656       -21.1067
  34   2.0000      -0.706002       -19.2113
  35   2.0000      -0.698558       -19.0087
  36   2.0000      -0.688134       -18.7251
  37   2.0000      -0.656944       -17.8764
  38   2.0000      -0.635126       -17.2827
  39   2.0000      -0.616690       -16.7810
  40   2.0000      -0.595947       -16.2165
  41   2.0000      -0.567874       -15.4526
  42   2.0000      -0.553036       -15.0489
  43   2.0000      -0.550105       -14.9691
  44   2.0000      -0.541717       -14.7409
  45   2.0000      -0.535082       -14.5603
  46   2.0000      -0.515224       -14.0200
  47   2.0000      -0.512757       -13.9528
  48   2.0000      -0.499681       -13.5970
  49   2.0000      -0.493985       -13.4420
  50   2.0000      -0.493009       -13.4155
  51   2.0000      -0.479823       -13.0567
  52   2.0000      -0.469164       -12.7666
  53   2.0000      -0.460939       -12.5428
  54   2.0000      -0.459858       -12.5134
  55   2.0000      -0.447709       -12.1828
  56   2.0000      -0.445908       -12.1338
  57   2.0000      -0.440591       -11.9891
  58   2.0000      -0.437514       -11.9054
  59   2.0000      -0.422143       -11.4871
  60   2.0000      -0.417933       -11.3725
  61   2.0000      -0.413103       -11.2411
  62   2.0000      -0.403624       -10.9832
  63   2.0000      -0.342560        -9.3215
  64   2.0000      -0.332713        -9.0536
  65   2.0000      -0.326569        -8.8864
  66   2.0000      -0.295108        -8.0303
  67   0.0000       0.033329         0.9069
  68   0.0000       0.065950         1.7946
  69   0.0000       0.108140         2.9426
  70   0.0000       0.122670         3.3380
  71   0.0000       0.127372         3.4660

MULLIKEN ATOMIC CHARGES
-----------------------
   0 S :    0.113944
   1 C :   -0.135945
   2 C :   -0.081308
   3 C :    0.024630
   4 C :   -0.155859
   5 H :    0.015216
   6 C :    0.038293
   7 H :    0.035359
   8 H :    0.023480
   9 C :   -0.062724
  10 H :    0.027002
  11 H :    0.041549
  12 C :   -0.021044
  13 H :    0.033177
  14 H :    0.024510
  15 H :    0.015276
  16 S :    0.136066
  17 C :   -0.145191
  18 C :   -0.051081
  19 C :   -0.076279
  20 C :   -0.165411
  21 H :    0.051496
  22 C :    0.168876
  23 H :   -0.002266
  24 H :    0.016913
  25 C :   -0.128160
  26 H :    0.032895
  27 H :    0.022300
  28 C :   -0.039306
  29 H :    0.036930
  30 H :    0.036700
  31 H :    0.028902
  32 H :    0.058926
  33 H :    0.082133
Sum of atomic charges:   -0.0000000

LOEWDIN ATOMIC CHARGES
----------------------
   0 S :    0.400499
   1 C :   -0.199798
   2 C :   -0.066902
   3 C :   -0.058071
   4 C :   -0.191184
   5 H :    0.029011
   6 C :   -0.037279
   7 H :    0.036149
   8 H :    0.031131
   9 C :   -0.033578
  10 H :    0.017877
  11 H :    0.033609
  12 C :   -0.063737
  13 H :    0.028509
  14 H :    0.026513
  15 H :    0.016788
  16 S :    0.466545
  17 C :   -0.204830
  18 C :   -0.077843
  19 C :   -0.057618
  20 C :   -0.241696
  21 H :    0.046080
  22 C :   -0.022538
  23 H :    0.008919
  24 H :    0.029454
  25 C :   -0.045017
  26 H :    0.023168
  27 H :    0.022006
  28 C :   -0.067543
  29 H :    0.023800
  30 H :    0.033899
  31 H :    0.019493
  32 H :    0.036589
  33 H :    0.037595

  Mayer bond orders larger than 0.100000
B(  0-S ,  1-C ) :   1.1250 B(  0-S ,  4-C ) :   1.1474 B(  1-C ,  2-C ) :   1.6187
B(  1-C , 32-H ) :   0.9618 B(  2-C ,  3-C ) :   1.2290 B(  2-C ,  6-C ) :   1.0213
B(  3-C ,  4-C ) :   1.5628 B(  3-C ,  5-H ) :   0.9927 B(  4-C , 20-C ) :   1.0285
B(  6-C ,  7-H ) :   0.9395 B(  6-C ,  8-H ) :   0.9441 B(  6-C ,  9-C ) :   1.0622
B(  9-C , 10-H ) :   0.9580 B(  9-C , 11-H ) :   0.9561 B(  9-C , 12-C ) :   1.0738
B( 12-C , 13-H ) :   0.9718 B( 12-C , 14-H ) :   0.9741 B( 12-C , 15-H ) :   0.9723
B( 16-S , 17-C ) :   1.1979 B( 16-S , 20-C ) :   1.1932 B( 17-C , 18-C ) :   1.5355
B( 17-C , 20-C ) :   0.1074 B( 17-C , 33-H ) :   0.9637 B( 18-C , 19-C ) :   1.2806
B( 18-C , 21-H ) :   0.9873 B( 19-C , 20-C ) :   1.5299 B( 19-C , 22-C ) :   1.0329
B( 22-C , 23-H ) :   0.9270 B( 22-C , 24-H ) :   0.9298 B( 22-C , 25-C ) :   1.0752
B( 25-C , 26-H ) :   0.9562 B( 25-C , 27-H ) :   0.9584 B( 25-C , 28-C ) :   1.0679
B( 28-C , 29-H ) :   0.9754 B( 28-C , 30-H ) :   0.9702 B( 28-C , 31-H ) :   0.9774

Dispersion correction           -0.015454402
FINAL SINGLE POINT ENERGY     -1339.882409584114

DIPOLE MOMENT
-------------
                                X             Y             Z
Electronic contribution:    -13.54281      18.11692      -5.38059
Nuclear contribution   :     13.69397     -18.46279       5.34584
                        -----------------------------------------
Total Dipole Moment    :      0.15117      -0.34587      -0.03475
                        -----------------------------------------
Magnitude (a.u.)       :      0.37906
Magnitude (Debye)      :      0.96349

Rotational constants in cm-1:     0.020692     0.008656     0.007650
Rotational constants in MHz :   620.331722   259.500693   229.339159

                             ****ORCA TERMINATED NORMALLY****
TOTAL RUN TIME: 0 days 0 hours 0 minutes 33 seconds 906 msec
