                         Program Version 4.2.1 -  RELEASE  -
|  1> ! wB97X-D3 SP def2-SVP
|  2> %pal
|  3> nprocs 16
|  4> end
|  5>
|  6> * xyz 0 1
|  7> S 	 -7.59102 	 32.5347 	 34.8732
|  8> C 	 -6.86317 	 32.7718 	 33.2963
|  9> C 	 -7.77137 	 33.25 	 32.3599
| 10> C 	 -9.05877 	 33.3495 	 32.8639
| 11> C 	 -9.17215 	 33.097 	 34.2567
| 12> H 	 -9.89878 	 33.7257 	 32.3225
| 13> C 	 -7.35684 	 33.4542 	 30.9825
| 14> H 	 -6.32457 	 33.7002 	 30.7492
| 15> H 	 -7.90644 	 34.2745 	 30.5038
| 16> C 	 -7.66543 	 32.2409 	 30.0618
| 17> H 	 -7.06927 	 31.4153 	 30.3103
| 18> H 	 -8.70702 	 31.9711 	 30.0978
| 19> C 	 -7.2226 	 32.4284 	 28.5526
| 20> H 	 -7.60994 	 31.5996 	 27.9248
| 21> H 	 -7.43439 	 33.4413 	 28.1944
| 22> H 	 -6.11079 	 32.4524 	 28.7579
| 23> S 	 -9.57232 	 34.6051 	 36.451
| 24> C 	 -11.1959 	 35.1485 	 36.8793
| 25> C 	 -12.0903 	 34.2414 	 36.3663
| 26> C 	 -11.5651 	 33.4332 	 35.3243
| 27> C 	 -10.1914 	 33.5841 	 35.167
| 28> H 	 -13.0534 	 34.4074 	 36.8775
| 29> C 	 -12.5054 	 32.4361 	 34.6381
| 30> H 	 -13.1457 	 32.1496 	 35.4587
| 31> H 	 -12.063 	 31.4641 	 34.5142
| 32> C 	 -13.289 	 32.8865 	 33.4513
| 33> H 	 -13.8942 	 32.1368 	 32.9995
| 34> H 	 -12.6035 	 33.1929 	 32.6521
| 35> C 	 -14.2079 	 33.9662 	 33.7548
| 36> H 	 -14.9057 	 33.8523 	 34.5922
| 37> H 	 -14.9194 	 34.3213 	 32.9837
| 38> H 	 -13.6165 	 34.8346 	 33.9519
| 39> H 	 -5.74858 	 32.6711 	 33.0929
| 40> H 	 -11.5496 	 35.8977 	 37.5859
| 41> *
| 42>
| 43>                          ****END OF INPUT****

CARTESIAN COORDINATES (ANGSTROEM)
---------------------------------
  S     -7.591020   32.534700   34.873200
  C     -6.863170   32.771800   33.296300
  C     -7.771370   33.250000   32.359900
  C     -9.058770   33.349500   32.863900
  C     -9.172150   33.097000   34.256700
  H     -9.898780   33.725700   32.322500
  C     -7.356840   33.454200   30.982500
  H     -6.324570   33.700200   30.749200
  H     -7.906440   34.274500   30.503800
  C     -7.665430   32.240900   30.061800
  H     -7.069270   31.415300   30.310300
  H     -8.707020   31.971100   30.097800
  C     -7.222600   32.428400   28.552600
  H     -7.609940   31.599600   27.924800
  H     -7.434390   33.441300   28.194400
  H     -6.110790   32.452400   28.757900
  S     -9.572320   34.605100   36.451000
  C    -11.195900   35.148500   36.879300
  C    -12.090300   34.241400   36.366300
  C    -11.565100   33.433200   35.324300
  C    -10.191400   33.584100   35.167000
  H    -13.053400   34.407400   36.877500
  C    -12.505400   32.436100   34.638100
  H    -13.145700   32.149600   35.458700
  H    -12.063000   31.464100   34.514200
  C    -13.289000   32.886500   33.451300
  H    -13.894200   32.136800   32.999500
  H    -12.603500   33.192900   32.652100
  C    -14.207900   33.966200   33.754800
  H    -14.905700   33.852300   34.592200
  H    -14.919400   34.321300   32.983700
  H    -13.616500   34.834600   33.951900
  H     -5.748580   32.671100   33.092900
  H    -11.549600   35.897700   37.585900

 Total Charge           Charge          ....    0
 Multiplicity           Mult            ....    1
 Number of Electrons    NEL             ....  134
 Basis Dimension        Dim             ....  322

ORBITAL ENERGIES
----------------

  NO   OCC          E(Eh)            E(eV)
   0   2.0000     -88.970643     -2421.0143
   1   2.0000     -88.962451     -2420.7914
   2   2.0000     -10.337398      -281.2949
   3   2.0000     -10.331020      -281.1213
   4   2.0000     -10.319404      -280.8053
   5   2.0000     -10.314995      -280.6853
   6   2.0000     -10.308131      -280.4985
   7   2.0000     -10.298064      -280.2246
   8   2.0000     -10.296841      -280.1913
   9   2.0000     -10.292926      -280.0847
  10   2.0000     -10.290868      -280.0288
  11   2.0000     -10.287536      -279.9381
  12   2.0000     -10.285310      -279.8775
  13   2.0000     -10.280783      -279.7543
  14   2.0000     -10.276978      -279.6508
  15   2.0000     -10.266525      -279.3663
  16   2.0000      -8.084460      -219.9893
  17   2.0000      -8.077095      -219.7889
  18   2.0000      -6.042950      -164.4370
  19   2.0000      -6.039019      -164.3301
  20   2.0000      -6.035705      -164.2399
  21   2.0000      -6.035380      -164.2311
  22   2.0000      -6.031742      -164.1320
  23   2.0000      -6.027569      -164.0185
  24   2.0000      -1.007512       -27.4158
  25   2.0000      -0.985656       -26.8211
  26   2.0000      -0.921217       -25.0676
  27   2.0000      -0.914451       -24.8835
  28   2.0000      -0.870519       -23.6880
  29   2.0000      -0.852873       -23.2078
  30   2.0000      -0.847728       -23.0678
  31   2.0000      -0.817299       -22.2398
  32   2.0000      -0.783573       -21.3221
  33   2.0000      -0.770458       -20.9652
  34   2.0000      -0.713552       -19.4167
  35   2.0000      -0.697747       -18.9867
  36   2.0000      -0.693328       -18.8664
  37   2.0000      -0.657750       -17.8983
  38   2.0000      -0.641432       -17.4542
  39   2.0000      -0.625296       -17.0152
  40   2.0000      -0.595832       -16.2134
  41   2.0000      -0.574984       -15.6461
  42   2.0000      -0.566593       -15.4178
  43   2.0000      -0.557457       -15.1692
  44   2.0000      -0.551917       -15.0184
  45   2.0000      -0.526678       -14.3316
  46   2.0000      -0.523713       -14.2510
  47   2.0000      -0.506976       -13.7955
  48   2.0000      -0.505026       -13.7425
  49   2.0000      -0.500334       -13.6148
  50   2.0000      -0.497260       -13.5311
  51   2.0000      -0.481646       -13.1062
  52   2.0000      -0.470551       -12.8043
  53   2.0000      -0.462055       -12.5732
  54   2.0000      -0.458054       -12.4643
  55   2.0000      -0.442010       -12.0277
  56   2.0000      -0.439829       -11.9684
  57   2.0000      -0.432956       -11.7813
  58   2.0000      -0.428904       -11.6711
  59   2.0000      -0.421486       -11.4692
  60   2.0000      -0.418130       -11.3779
  61   2.0000      -0.414922       -11.2906
  62   2.0000      -0.407159       -11.0794
  63   2.0000      -0.348841        -9.4924
  64   2.0000      -0.333534        -9.0759
  65   2.0000      -0.327192        -8.9034
  66   2.0000      -0.285296        -7.7633
  67   0.0000       0.022397         0.6095
  68   0.0000       0.055583         1.5125
  69   0.0000       0.108419         2.9502
  70   0.0000       0.122120         3.3230
  71   0.0000       0.122901         3.3443

MULLIKEN ATOMIC CHARGES
-----------------------
   0 S :    0.106107
   1 C :   -0.144295
   2 C :   -0.043654
   3 C :    0.055498
   4 C :   -0.148853
   5 H :    0.004071
   6 C :    0.054599
   7 H :    0.011860
   8 H :    0.017467
   9 C :   -0.077948
  10 H :    0.017018
  11 H :    0.025242
  12 C :   -0.078798
  13 H :    0.063071
  14 H :    0.029742
  15 H :    0.031242
  16 S :    0.099431
  17 C :   -0.109874
  18 C :   -0.060665
  19 C :   -0.033533
  20 C :   -0.145154
  21 H :    0.033473
  22 C :    0.085208
  23 H :    0.009969
  24 H :    0.018461
  25 C :    0.011586
  26 H :    0.016691
  27 H :    0.022356
  28 C :   -0.071156
  29 H :    0.018295
  30 H :    0.025715
  31 H :    0.024934
  32 H :    0.074607
  33 H :    0.057287
Sum of atomic charges:    0.0000000

LOEWDIN ATOMIC CHARGES
----------------------
   0 S :    0.395557
   1 C :   -0.201621
   2 C :   -0.070588
   3 C :   -0.048528
   4 C :   -0.183215
   5 H :    0.028300
   6 C :   -0.034544
   7 H :    0.028732
   8 H :    0.031141
   9 C :   -0.031244
  10 H :    0.014623
  11 H :    0.015320
  12 C :   -0.072016
  13 H :    0.035053
  14 H :    0.018831
  15 H :    0.030861
  16 S :    0.396520
  17 C :   -0.185884
  18 C :   -0.078053
  19 C :   -0.059781
  20 C :   -0.190304
  21 H :    0.041192
  22 C :   -0.029975
  23 H :    0.033164
  24 H :    0.030824
  25 C :   -0.042709
  26 H :    0.023306
  27 H :    0.027841
  28 C :   -0.072811
  29 H :    0.022732
  30 H :    0.028162
  31 H :    0.021903
  32 H :    0.043085
  33 H :    0.034127

  Mayer bond orders larger than 0.100000
B(  0-S ,  1-C ) :   1.1416 B(  0-S ,  4-C ) :   1.1537 B(  1-C ,  2-C ) :   1.5707
B(  1-C ,  4-C ) :   0.1058 B(  1-C , 32-H ) :   0.9577 B(  2-C ,  3-C ) :   1.2870
B(  2-C ,  6-C ) :   1.0526 B(  3-C ,  4-C ) :   1.5223 B(  3-C ,  5-H ) :   0.9934
B(  4-C , 20-C ) :   1.0634 B(  6-C ,  7-H ) :   0.9428 B(  6-C ,  8-H ) :   0.9294
B(  6-C ,  9-C ) :   1.0566 B(  9-C , 10-H ) :   0.9640 B(  9-C , 11-H ) :   0.9596
B(  9-C , 12-C ) :   1.0556 B( 12-C , 13-H ) :   0.9736 B( 12-C , 14-H ) :   0.9782
B( 12-C , 15-H ) :   0.9820 B( 16-S , 17-C ) :   1.1397 B( 16-S , 20-C ) :   1.1345
B( 17-C , 18-C ) :   1.6425 B( 17-C , 20-C ) :   0.1011 B( 17-C , 33-H ) :   0.9656
B( 18-C , 19-C ) :   1.2099 B( 18-C , 21-H ) :   0.9860 B( 19-C , 20-C ) :   1.5935
B( 19-C , 22-C ) :   1.0160 B( 22-C , 23-H ) :   0.9363 B( 22-C , 24-H ) :   0.9345
B( 22-C , 25-C ) :   1.0774 B( 25-C , 26-H ) :   0.9473 B( 25-C , 27-H ) :   0.9474
B( 25-C , 28-C ) :   1.0886 B( 28-C , 29-H ) :   0.9708 B( 28-C , 30-H ) :   0.9687
B( 28-C , 31-H ) :   0.9689

Dispersion correction           -0.013889937
FINAL SINGLE POINT ENERGY     -1339.837226911952

DIPOLE MOMENT
-------------
                                X             Y             Z
Electronic contribution:     11.41992       2.94082      25.14388
Nuclear contribution   :    -11.77929      -2.89649     -25.51150
                        -----------------------------------------
Total Dipole Moment    :     -0.35936       0.04433      -0.36762
                        -----------------------------------------
Magnitude (a.u.)       :      0.51600
Magnitude (Debye)      :      1.31156

Rotational constants in cm-1:     0.019555     0.008131     0.006230
Rotational constants in MHz :   586.243146   243.772086   186.780081

                             ****ORCA TERMINATED NORMALLY****
TOTAL RUN TIME: 0 days 0 hours 0 minutes 33 seconds 378 msec
