                         Program Version 4.2.1 -  RELEASE  -
|  1> ! wB97X-D3 SP def2-SVP
|  2> %pal
|  3> nprocs 16
|  4> end
|  5>
|  6> * xyz 0 1
|  7> S 	 -74.2467 	 37.4711 	 120.554
|  8> C 	 -73.7061 	 36.5864 	 121.923
|  9> C 	 -72.5146 	 37.076 	 122.468
| 10> C 	 -72.0697 	 38.271 	 121.78
| 11> C 	 -72.8838 	 38.5773 	 120.716
| 12> H 	 -71.2424 	 38.9028 	 121.935
| 13> C 	 -71.7539 	 36.5393 	 123.687
| 14> H 	 -72.545 	 36.3666 	 124.471
| 15> H 	 -71.0987 	 37.2648 	 124.119
| 16> C 	 -70.9162 	 35.2484 	 123.411
| 17> H 	 -70.4344 	 34.9133 	 124.346
| 18> H 	 -71.5362 	 34.423 	 123.074
| 19> C 	 -69.8956 	 35.3794 	 122.28
| 20> H 	 -70.3979 	 35.6006 	 121.325
| 21> H 	 -69.257 	 36.1929 	 122.594
| 22> H 	 -69.3644 	 34.4528 	 122.061
| 23> S 	 -73.9668 	 41.0582 	 120.015
| 24> C 	 -73.118 	 42.1127 	 119.054
| 25> C 	 -71.8605 	 41.5475 	 118.75
| 26> C 	 -71.6617 	 40.1725 	 119.114
| 27> C 	 -72.7805 	 39.7164 	 119.872
| 28> H 	 -71.0652 	 42.0498 	 118.215
| 29> C 	 -70.4168 	 39.3163 	 118.821
| 30> H 	 -70.1678 	 39.536 	 117.767
| 31> H 	 -70.6186 	 38.229 	 118.757
| 32> C 	 -69.2797 	 39.6055 	 119.764
| 33> H 	 -69.6535 	 39.3216 	 120.686
| 34> H 	 -69.1705 	 40.7005 	 119.943
| 35> C 	 -67.905 	 38.963 	 119.506
| 36> H 	 -67.3604 	 39.4042 	 118.596
| 37> H 	 -68.0082 	 37.9025 	 119.318
| 38> H 	 -67.1253 	 39.1156 	 120.274
| 39> H 	 -74.0219 	 35.6215 	 122.17
| 40> H 	 -73.3731 	 43.1643 	 118.843
| 41> *
| 42>
| 43>                          ****END OF INPUT****

CARTESIAN COORDINATES (ANGSTROEM)
---------------------------------
  S    -74.246700   37.471100  120.554000
  C    -73.706100   36.586400  121.923000
  C    -72.514600   37.076000  122.468000
  C    -72.069700   38.271000  121.780000
  C    -72.883800   38.577300  120.716000
  H    -71.242400   38.902800  121.935000
  C    -71.753900   36.539300  123.687000
  H    -72.545000   36.366600  124.471000
  H    -71.098700   37.264800  124.119000
  C    -70.916200   35.248400  123.411000
  H    -70.434400   34.913300  124.346000
  H    -71.536200   34.423000  123.074000
  C    -69.895600   35.379400  122.280000
  H    -70.397900   35.600600  121.325000
  H    -69.257000   36.192900  122.594000
  H    -69.364400   34.452800  122.061000
  S    -73.966800   41.058200  120.015000
  C    -73.118000   42.112700  119.054000
  C    -71.860500   41.547500  118.750000
  C    -71.661700   40.172500  119.114000
  C    -72.780500   39.716400  119.872000
  H    -71.065200   42.049800  118.215000
  C    -70.416800   39.316300  118.821000
  H    -70.167800   39.536000  117.767000
  H    -70.618600   38.229000  118.757000
  C    -69.279700   39.605500  119.764000
  H    -69.653500   39.321600  120.686000
  H    -69.170500   40.700500  119.943000
  C    -67.905000   38.963000  119.506000
  H    -67.360400   39.404200  118.596000
  H    -68.008200   37.902500  119.318000
  H    -67.125300   39.115600  120.274000
  H    -74.021900   35.621500  122.170000
  H    -73.373100   43.164300  118.843000

 Total Charge           Charge          ....    0
 Multiplicity           Mult            ....    1
 Number of Electrons    NEL             ....  134
 Basis Dimension        Dim             ....  322

ORBITAL ENERGIES
----------------

  NO   OCC          E(Eh)            E(eV)
   0   2.0000     -88.967553     -2420.9302
   1   2.0000     -88.964822     -2420.8559
   2   2.0000     -10.325133      -280.9612
   3   2.0000     -10.324449      -280.9425
   4   2.0000     -10.319210      -280.8000
   5   2.0000     -10.310269      -280.5567
   6   2.0000     -10.309329      -280.5311
   7   2.0000     -10.306871      -280.4642
   8   2.0000     -10.298444      -280.2349
   9   2.0000     -10.297540      -280.2103
  10   2.0000     -10.295053      -280.1426
  11   2.0000     -10.293728      -280.1066
  12   2.0000     -10.288508      -279.9645
  13   2.0000     -10.287165      -279.9280
  14   2.0000     -10.284393      -279.8525
  15   2.0000     -10.276193      -279.6294
  16   2.0000      -8.082660      -219.9403
  17   2.0000      -8.080499      -219.8816
  18   2.0000      -6.041038      -164.3850
  19   2.0000      -6.038857      -164.3257
  20   2.0000      -6.037084      -164.2774
  21   2.0000      -6.034589      -164.2095
  22   2.0000      -6.033568      -164.1817
  23   2.0000      -6.031624      -164.1288
  24   2.0000      -1.006958       -27.4007
  25   2.0000      -0.984510       -26.7899
  26   2.0000      -0.913270       -24.8513
  27   2.0000      -0.907942       -24.7064
  28   2.0000      -0.872091       -23.7308
  29   2.0000      -0.850506       -23.1434
  30   2.0000      -0.847360       -23.0578
  31   2.0000      -0.808176       -21.9916
  32   2.0000      -0.786036       -21.3891
  33   2.0000      -0.771979       -21.0066
  34   2.0000      -0.708002       -19.2657
  35   2.0000      -0.699954       -19.0467
  36   2.0000      -0.696149       -18.9432
  37   2.0000      -0.659939       -17.9578
  38   2.0000      -0.645672       -17.5696
  39   2.0000      -0.611432       -16.6379
  40   2.0000      -0.598849       -16.2955
  41   2.0000      -0.575190       -15.6517
  42   2.0000      -0.556696       -15.1485
  43   2.0000      -0.551891       -15.0177
  44   2.0000      -0.539429       -14.6786
  45   2.0000      -0.525856       -14.3093
  46   2.0000      -0.519867       -14.1463
  47   2.0000      -0.514007       -13.9868
  48   2.0000      -0.506919       -13.7940
  49   2.0000      -0.498499       -13.5649
  50   2.0000      -0.492247       -13.3947
  51   2.0000      -0.475798       -12.9471
  52   2.0000      -0.472429       -12.8554
  53   2.0000      -0.465273       -12.6607
  54   2.0000      -0.459910       -12.5148
  55   2.0000      -0.450993       -12.2721
  56   2.0000      -0.446548       -12.1512
  57   2.0000      -0.439901       -11.9703
  58   2.0000      -0.436193       -11.8694
  59   2.0000      -0.422345       -11.4926
  60   2.0000      -0.419435       -11.4134
  61   2.0000      -0.414310       -11.2739
  62   2.0000      -0.408879       -11.1262
  63   2.0000      -0.343588        -9.3495
  64   2.0000      -0.333229        -9.0676
  65   2.0000      -0.325098        -8.8464
  66   2.0000      -0.293486        -7.9862
  67   0.0000       0.031912         0.8684
  68   0.0000       0.059776         1.6266
  69   0.0000       0.119877         3.2620
  70   0.0000       0.121024         3.2932
  71   0.0000       0.122931         3.3451

MULLIKEN ATOMIC CHARGES
-----------------------
   0 S :    0.125666
   1 C :   -0.072092
   2 C :   -0.120304
   3 C :    0.064633
   4 C :   -0.193786
   5 H :    0.004559
   6 C :    0.059942
   7 H :    0.045911
   8 H :    0.020295
   9 C :   -0.079204
  10 H :    0.034497
  11 H :    0.021083
  12 C :   -0.060373
  13 H :    0.042780
  14 H :    0.028247
  15 H :    0.037848
  16 S :    0.123430
  17 C :   -0.085002
  18 C :   -0.054769
  19 C :   -0.055394
  20 C :   -0.165741
  21 H :    0.012368
  22 C :    0.073735
  23 H :    0.022283
  24 H :    0.036719
  25 C :   -0.026981
  26 H :   -0.021542
  27 H :    0.024733
  28 C :   -0.056601
  29 H :    0.034748
  30 H :    0.032835
  31 H :    0.040170
  32 H :    0.028580
  33 H :    0.076726
Sum of atomic charges:    0.0000000

LOEWDIN ATOMIC CHARGES
----------------------
   0 S :    0.419596
   1 C :   -0.200663
   2 C :   -0.057238
   3 C :   -0.047131
   4 C :   -0.196238
   5 H :    0.024014
   6 C :   -0.032306
   7 H :    0.041422
   8 H :    0.025270
   9 C :   -0.042528
  10 H :    0.024605
  11 H :    0.019139
  12 C :   -0.067128
  13 H :    0.028698
  14 H :    0.020709
  15 H :    0.027828
  16 S :    0.435410
  17 C :   -0.221994
  18 C :   -0.080229
  19 C :   -0.046009
  20 C :   -0.204459
  21 H :    0.024952
  22 C :   -0.030837
  23 H :    0.030781
  24 H :    0.036422
  25 C :   -0.044704
  26 H :    0.010298
  27 H :    0.029965
  28 C :   -0.072190
  29 H :    0.032135
  30 H :    0.023279
  31 H :    0.030838
  32 H :    0.016312
  33 H :    0.041983

  Mayer bond orders larger than 0.100000
B(  0-S ,  1-C ) :   1.1488 B(  0-S ,  4-C ) :   1.1501 B(  1-C ,  2-C ) :   1.6200
B(  1-C , 32-H ) :   0.9668 B(  2-C ,  3-C ) :   1.2150 B(  2-C ,  6-C ) :   1.0136
B(  3-C ,  4-C ) :   1.5873 B(  3-C ,  5-H ) :   0.9947 B(  4-C , 20-C ) :   1.0466
B(  6-C ,  7-H ) :   0.9446 B(  6-C ,  8-H ) :   0.9480 B(  6-C ,  9-C ) :   1.0614
B(  9-C , 10-H ) :   0.9584 B(  9-C , 11-H ) :   0.9597 B(  9-C , 12-C ) :   1.0742
B( 12-C , 13-H ) :   0.9712 B( 12-C , 14-H ) :   0.9789 B( 12-C , 15-H ) :   0.9733
B( 16-S , 17-C ) :   1.1929 B( 16-S , 20-C ) :   1.1586 B( 17-C , 18-C ) :   1.5354
B( 17-C , 20-C ) :   0.1061 B( 17-C , 33-H ) :   0.9667 B( 18-C , 19-C ) :   1.3071
B( 18-C , 21-H ) :   0.9837 B( 19-C , 20-C ) :   1.5317 B( 19-C , 22-C ) :   1.0409
B( 22-C , 23-H ) :   0.9335 B( 22-C , 24-H ) :   0.9340 B( 22-C , 25-C ) :   1.0543
B( 25-C , 26-H ) :   0.9420 B( 25-C , 27-H ) :   0.9533 B( 25-C , 28-C ) :   1.0785
B( 28-C , 29-H ) :   0.9747 B( 28-C , 30-H ) :   0.9731 B( 28-C , 31-H ) :   0.9743

Dispersion correction           -0.015441229
FINAL SINGLE POINT ENERGY     -1339.877685838094

DIPOLE MOMENT
-------------
                                X             Y             Z
Electronic contribution:    -28.41404      11.87127      -5.64781
Nuclear contribution   :     29.08751     -11.99295       5.85837
                        -----------------------------------------
Total Dipole Moment    :      0.67347      -0.12167       0.21055
                        -----------------------------------------
Magnitude (a.u.)       :      0.71603
Magnitude (Debye)      :      1.82001

Rotational constants in cm-1:     0.017448     0.010241     0.007096
Rotational constants in MHz :   523.063868   307.015732   212.741939

                             ****ORCA TERMINATED NORMALLY****
TOTAL RUN TIME: 0 days 0 hours 0 minutes 34 seconds 953 msec
