                         Program Version 4.2.1 -  RELEASE  -
|  1> ! wB97X-D3 SP def2-SVP
|  2> %pal
|  3> nprocs 16
|  4> end
|  5>
|  6> * xyz 0 1
|  7> S 	 10.6298 	 24.9858 	 66.1788
|  8> C 	 11.8022 	 24.0429 	 67.1031
|  9> C 	 11.4823 	 22.6946 	 67.0471
| 10> C 	 10.2802 	 22.4428 	 66.2877
| 11> C 	 9.68765 	 23.6115 	 65.8105
| 12> H 	 9.87835 	 21.5155 	 66.0893
| 13> C 	 12.272 	 21.5896 	 67.697
| 14> H 	 11.5537 	 20.8317 	 67.9392
| 15> H 	 12.7549 	 21.9355 	 68.5445
| 16> C 	 13.3011 	 20.9903 	 66.7452
| 17> H 	 13.6032 	 20.0659 	 67.1438
| 18> H 	 12.7482 	 20.7971 	 65.8326
| 19> C 	 14.6229 	 21.7808 	 66.3531
| 20> H 	 14.3975 	 22.6394 	 65.5916
| 21> H 	 14.7913 	 22.2882 	 67.3418
| 22> H 	 15.4958 	 21.2043 	 66.0362
| 23> S 	 7.20572 	 24.8984 	 65.8791
| 24> C 	 5.97837 	 24.4128 	 64.7577
| 25> C 	 6.45327 	 23.4064 	 63.9731
| 26> C 	 7.8036 	 22.9828 	 64.1954
| 27> C 	 8.34761 	 23.644 	 65.2579
| 28> H 	 5.74102 	 22.8972 	 63.3457
| 29> C 	 8.38729 	 21.8448 	 63.367
| 30> H 	 9.45348 	 21.9711 	 63.1851
| 31> H 	 7.86798 	 21.9429 	 62.3998
| 32> C 	 8.09264 	 20.3853 	 63.94
| 33> H 	 7.07434 	 20.435 	 64.2688
| 34> H 	 8.63401 	 20.171 	 64.8274
| 35> C 	 8.37944 	 19.4601 	 62.7243
| 36> H 	 9.43127 	 19.6078 	 62.4908
| 37> H 	 7.843 	 19.8741 	 61.8798
| 38> H 	 8.08535 	 18.444 	 62.93
| 39> H 	 12.6576 	 24.4781 	 67.5537
| 40> H 	 5.03048 	 24.9071 	 64.7066
| 41> *
| 42>
| 43>                          ****END OF INPUT****

CARTESIAN COORDINATES (ANGSTROEM)
---------------------------------
  S     10.629800   24.985800   66.178800
  C     11.802200   24.042900   67.103100
  C     11.482300   22.694600   67.047100
  C     10.280200   22.442800   66.287700
  C      9.687650   23.611500   65.810500
  H      9.878350   21.515500   66.089300
  C     12.272000   21.589600   67.697000
  H     11.553700   20.831700   67.939200
  H     12.754900   21.935500   68.544500
  C     13.301100   20.990300   66.745200
  H     13.603200   20.065900   67.143800
  H     12.748200   20.797100   65.832600
  C     14.622900   21.780800   66.353100
  H     14.397500   22.639400   65.591600
  H     14.791300   22.288200   67.341800
  H     15.495800   21.204300   66.036200
  S      7.205720   24.898400   65.879100
  C      5.978370   24.412800   64.757700
  C      6.453270   23.406400   63.973100
  C      7.803600   22.982800   64.195400
  C      8.347610   23.644000   65.257900
  H      5.741020   22.897200   63.345700
  C      8.387290   21.844800   63.367000
  H      9.453480   21.971100   63.185100
  H      7.867980   21.942900   62.399800
  C      8.092640   20.385300   63.940000
  H      7.074340   20.435000   64.268800
  H      8.634010   20.171000   64.827400
  C      8.379440   19.460100   62.724300
  H      9.431270   19.607800   62.490800
  H      7.843000   19.874100   61.879800
  H      8.085350   18.444000   62.930000
  H     12.657600   24.478100   67.553700
  H      5.030480   24.907100   64.706600

 Total Charge           Charge          ....    0
 Multiplicity           Mult            ....    1
 Number of Electrons    NEL             ....  134
 Basis Dimension        Dim             ....  322

ORBITAL ENERGIES
----------------

  NO   OCC          E(Eh)            E(eV)
   0   2.0000     -88.966609     -2420.9045
   1   2.0000     -88.960355     -2420.7343
   2   2.0000     -10.326903      -281.0093
   3   2.0000     -10.326274      -280.9922
   4   2.0000     -10.313727      -280.6508
   5   2.0000     -10.312250      -280.6106
   6   2.0000     -10.301725      -280.3242
   7   2.0000     -10.301019      -280.3050
   8   2.0000     -10.296780      -280.1896
   9   2.0000     -10.292345      -280.0690
  10   2.0000     -10.289482      -279.9910
  11   2.0000     -10.289147      -279.9819
  12   2.0000     -10.288806      -279.9726
  13   2.0000     -10.285737      -279.8891
  14   2.0000     -10.283418      -279.8260
  15   2.0000     -10.280939      -279.7586
  16   2.0000      -8.081695      -219.9141
  17   2.0000      -8.075033      -219.7328
  18   2.0000      -6.040186      -164.3618
  19   2.0000      -6.036008      -164.2481
  20   2.0000      -6.033597      -164.1825
  21   2.0000      -6.032597      -164.1553
  22   2.0000      -6.029568      -164.0729
  23   2.0000      -6.025715      -163.9680
  24   2.0000      -1.007059       -27.4035
  25   2.0000      -0.984153       -26.7802
  26   2.0000      -0.915706       -24.9176
  27   2.0000      -0.907871       -24.7044
  28   2.0000      -0.868381       -23.6298
  29   2.0000      -0.850812       -23.1518
  30   2.0000      -0.842595       -22.9282
  31   2.0000      -0.810961       -22.0674
  32   2.0000      -0.782825       -21.3018
  33   2.0000      -0.772699       -21.0262
  34   2.0000      -0.713620       -19.4186
  35   2.0000      -0.703444       -19.1417
  36   2.0000      -0.696094       -18.9417
  37   2.0000      -0.663029       -18.0419
  38   2.0000      -0.646218       -17.5845
  39   2.0000      -0.623170       -16.9573
  40   2.0000      -0.599982       -16.3264
  41   2.0000      -0.570456       -15.5229
  42   2.0000      -0.565605       -15.3909
  43   2.0000      -0.553112       -15.0509
  44   2.0000      -0.542531       -14.7630
  45   2.0000      -0.531921       -14.4743
  46   2.0000      -0.518808       -14.1175
  47   2.0000      -0.509963       -13.8768
  48   2.0000      -0.504887       -13.7387
  49   2.0000      -0.500064       -13.6074
  50   2.0000      -0.488664       -13.2972
  51   2.0000      -0.479476       -13.0472
  52   2.0000      -0.474789       -12.9197
  53   2.0000      -0.465846       -12.6763
  54   2.0000      -0.456725       -12.4281
  55   2.0000      -0.456212       -12.4142
  56   2.0000      -0.446379       -12.1466
  57   2.0000      -0.443067       -12.0565
  58   2.0000      -0.436514       -11.8781
  59   2.0000      -0.429339       -11.6829
  60   2.0000      -0.417550       -11.3621
  61   2.0000      -0.413359       -11.2481
  62   2.0000      -0.407670       -11.0933
  63   2.0000      -0.348201        -9.4750
  64   2.0000      -0.331582        -9.0228
  65   2.0000      -0.326464        -8.8835
  66   2.0000      -0.292679        -7.9642
  67   0.0000       0.030262         0.8235
  68   0.0000       0.074164         2.0181
  69   0.0000       0.117550         3.1987
  70   0.0000       0.123781         3.3683
  71   0.0000       0.128758         3.5037

MULLIKEN ATOMIC CHARGES
-----------------------
   0 S :    0.117387
   1 C :   -0.130091
   2 C :   -0.093100
   3 C :    0.061977
   4 C :   -0.131769
   5 H :   -0.054879
   6 C :    0.129778
   7 H :    0.020777
   8 H :    0.004933
   9 C :   -0.059774
  10 H :    0.019252
  11 H :    0.017349
  12 C :   -0.094449
  13 H :    0.055706
  14 H :    0.023421
  15 H :    0.055876
  16 S :    0.088150
  17 C :   -0.089507
  18 C :   -0.029085
  19 C :   -0.021585
  20 C :   -0.159024
  21 H :    0.013186
  22 C :    0.017944
  23 H :    0.035295
  24 H :    0.025096
  25 C :   -0.054664
  26 H :    0.020803
  27 H :    0.031012
  28 C :   -0.011534
  29 H :    0.031447
  30 H :    0.023582
  31 H :    0.041423
  32 H :    0.038034
  33 H :    0.057034
Sum of atomic charges:    0.0000000

LOEWDIN ATOMIC CHARGES
----------------------
   0 S :    0.421867
   1 C :   -0.193531
   2 C :   -0.053183
   3 C :   -0.054281
   4 C :   -0.204263
   5 H :    0.011416
   6 C :   -0.019854
   7 H :    0.034846
   8 H :    0.018283
   9 C :   -0.035711
  10 H :    0.016090
  11 H :    0.019815
  12 C :   -0.078538
  13 H :    0.037363
  14 H :    0.025241
  15 H :    0.029133
  16 S :    0.379906
  17 C :   -0.181032
  18 C :   -0.076651
  19 C :   -0.060226
  20 C :   -0.175998
  21 H :    0.026991
  22 C :   -0.027077
  23 H :    0.028850
  24 H :    0.032574
  25 C :   -0.027816
  26 H :    0.019941
  27 H :    0.014712
  28 C :   -0.056215
  29 H :    0.028955
  30 H :    0.024775
  31 H :    0.023560
  32 H :    0.020965
  33 H :    0.029093

  Mayer bond orders larger than 0.100000
B(  0-S ,  1-C ) :   1.1304 B(  0-S ,  4-C ) :   1.1733 B(  1-C ,  2-C ) :   1.5887
B(  1-C , 32-H ) :   0.9789 B(  2-C ,  3-C ) :   1.2540 B(  2-C ,  6-C ) :   1.0323
B(  3-C ,  4-C ) :   1.5308 B(  3-C ,  5-H ) :   1.0075 B(  4-C , 20-C ) :   1.0523
B(  6-C ,  7-H ) :   0.9291 B(  6-C ,  8-H ) :   0.9360 B(  6-C ,  9-C ) :   1.0844
B(  9-C , 10-H ) :   0.9569 B(  9-C , 11-H ) :   0.9551 B(  9-C , 12-C ) :   1.0517
B( 12-C , 13-H ) :   0.9751 B( 12-C , 14-H ) :   0.9775 B( 12-C , 15-H ) :   0.9769
B( 16-S , 17-C ) :   1.1486 B( 16-S , 20-C ) :   1.1184 B( 17-C , 18-C ) :   1.6236
B( 17-C , 33-H ) :   0.9714 B( 18-C , 19-C ) :   1.2225 B( 18-C , 21-H ) :   0.9877
B( 19-C , 20-C ) :   1.6236 B( 19-C , 22-C ) :   1.0472 B( 22-C , 23-H ) :   0.9308
B( 22-C , 24-H ) :   0.9398 B( 22-C , 25-C ) :   1.0490 B( 25-C , 26-H ) :   0.9557
B( 25-C , 27-H ) :   0.9547 B( 25-C , 28-C ) :   1.0674 B( 28-C , 29-H ) :   0.9732
B( 28-C , 30-H ) :   0.9771 B( 28-C , 31-H ) :   0.9737

Dispersion correction           -0.014430570
FINAL SINGLE POINT ENERGY     -1339.873737758405

DIPOLE MOMENT
-------------
                                X             Y             Z
Electronic contribution:    -13.28563      25.11661       6.75861
Nuclear contribution   :     13.36528     -25.81657      -6.90488
                        -----------------------------------------
Total Dipole Moment    :      0.07965      -0.69996      -0.14626
                        -----------------------------------------
Magnitude (a.u.)       :      0.71950
Magnitude (Debye)      :      1.82883

Rotational constants in cm-1:     0.018055     0.009206     0.006552
Rotational constants in MHz :   541.268042   275.994496   196.426447

                             ****ORCA TERMINATED NORMALLY****
TOTAL RUN TIME: 0 days 0 hours 0 minutes 32 seconds 743 msec
