                         Program Version 4.2.1 -  RELEASE  -
|  1> ! wB97X-D3 SP def2-SVP
|  2> %pal
|  3> nprocs 16
|  4> end
|  5>
|  6> * xyz 0 1
|  7> S 	 8.05864 	 19.4722 	 54.2155
|  8> C 	 9.25914 	 20.1963 	 53.2513
|  9> C 	 9.89296 	 21.1683 	 54.0104
| 10> C 	 9.36949 	 21.3956 	 55.3715
| 11> C 	 8.23518 	 20.6533 	 55.5684
| 12> H 	 9.78113 	 22.0414 	 56.1555
| 13> C 	 11.1074 	 21.9256 	 53.5128
| 14> H 	 11.7833 	 21.2534 	 52.9159
| 15> H 	 11.7096 	 22.2119 	 54.353
| 16> C 	 10.7718 	 23.2286 	 52.7203
| 17> H 	 11.552 	 23.4338 	 52.0115
| 18> H 	 9.81471 	 22.8506 	 52.1745
| 19> C 	 10.3738 	 24.3527 	 53.7152
| 20> H 	 10.9598 	 24.4016 	 54.5842
| 21> H 	 10.4697 	 25.2884 	 53.15
| 22> H 	 9.28552 	 24.2444 	 53.9426
| 23> S 	 5.69275 	 20.3588 	 56.4735
| 24> C 	 5.31213 	 20.4987 	 58.1514
| 25> C 	 6.47021 	 20.5423 	 58.9091
| 26> C 	 7.58715 	 20.7069 	 58.0995
| 27> C 	 7.38922 	 20.5844 	 56.7495
| 28> H 	 6.49741 	 20.42 	 59.9608
| 29> C 	 8.98903 	 20.7565 	 58.6384
| 30> H 	 9.63631 	 20.4521 	 57.8388
| 31> H 	 9.08973 	 19.9948 	 59.4802
| 32> C 	 9.37422 	 22.0757 	 59.2599
| 33> H 	 8.77789 	 22.1997 	 60.178
| 34> H 	 8.97589 	 22.9058 	 58.6033
| 35> C 	 10.8791 	 22.3103 	 59.5758
| 36> H 	 11.2645 	 21.4545 	 60.0942
| 37> H 	 10.9636 	 23.2244 	 60.2733
| 38> H 	 11.5603 	 22.4926 	 58.7276
| 39> H 	 9.40996 	 19.8176 	 52.2459
| 40> H 	 4.34274 	 20.2001 	 58.6362
| 41> *
| 42>
| 43>                          ****END OF INPUT****

CARTESIAN COORDINATES (ANGSTROEM)
---------------------------------
  S      8.058640   19.472200   54.215500
  C      9.259140   20.196300   53.251300
  C      9.892960   21.168300   54.010400
  C      9.369490   21.395600   55.371500
  C      8.235180   20.653300   55.568400
  H      9.781130   22.041400   56.155500
  C     11.107400   21.925600   53.512800
  H     11.783300   21.253400   52.915900
  H     11.709600   22.211900   54.353000
  C     10.771800   23.228600   52.720300
  H     11.552000   23.433800   52.011500
  H      9.814710   22.850600   52.174500
  C     10.373800   24.352700   53.715200
  H     10.959800   24.401600   54.584200
  H     10.469700   25.288400   53.150000
  H      9.285520   24.244400   53.942600
  S      5.692750   20.358800   56.473500
  C      5.312130   20.498700   58.151400
  C      6.470210   20.542300   58.909100
  C      7.587150   20.706900   58.099500
  C      7.389220   20.584400   56.749500
  H      6.497410   20.420000   59.960800
  C      8.989030   20.756500   58.638400
  H      9.636310   20.452100   57.838800
  H      9.089730   19.994800   59.480200
  C      9.374220   22.075700   59.259900
  H      8.777890   22.199700   60.178000
  H      8.975890   22.905800   58.603300
  C     10.879100   22.310300   59.575800
  H     11.264500   21.454500   60.094200
  H     10.963600   23.224400   60.273300
  H     11.560300   22.492600   58.727600
  H      9.409960   19.817600   52.245900
  H      4.342740   20.200100   58.636200

 Total Charge           Charge          ....    0
 Multiplicity           Mult            ....    1
 Number of Electrons    NEL             ....  134
 Basis Dimension        Dim             ....  322

ORBITAL ENERGIES
----------------

  NO   OCC          E(Eh)            E(eV)
   0   2.0000     -88.965626     -2420.8778
   1   2.0000     -88.963102     -2420.8091
   2   2.0000     -10.335997      -281.2568
   3   2.0000     -10.324307      -280.9387
   4   2.0000     -10.319916      -280.8192
   5   2.0000     -10.316362      -280.7225
   6   2.0000     -10.307355      -280.4774
   7   2.0000     -10.303564      -280.3742
   8   2.0000     -10.296825      -280.1908
   9   2.0000     -10.291326      -280.0412
  10   2.0000     -10.290814      -280.0273
  11   2.0000     -10.290614      -280.0218
  12   2.0000     -10.288623      -279.9677
  13   2.0000     -10.287812      -279.9456
  14   2.0000     -10.287575      -279.9391
  15   2.0000     -10.276745      -279.6445
  16   2.0000      -8.081108      -219.8981
  17   2.0000      -8.078270      -219.8209
  18   2.0000      -6.039551      -164.3445
  19   2.0000      -6.036949      -164.2737
  20   2.0000      -6.035383      -164.2311
  21   2.0000      -6.032612      -164.1557
  22   2.0000      -6.031991      -164.1388
  23   2.0000      -6.028915      -164.0551
  24   2.0000      -1.014787       -27.6138
  25   2.0000      -0.989764       -26.9329
  26   2.0000      -0.911461       -24.8021
  27   2.0000      -0.905301       -24.6345
  28   2.0000      -0.876652       -23.8549
  29   2.0000      -0.852641       -23.2015
  30   2.0000      -0.840974       -22.8841
  31   2.0000      -0.819109       -22.2891
  32   2.0000      -0.779740       -21.2178
  33   2.0000      -0.766550       -20.8589
  34   2.0000      -0.702428       -19.1140
  35   2.0000      -0.698588       -19.0095
  36   2.0000      -0.692783       -18.8516
  37   2.0000      -0.669649       -18.2221
  38   2.0000      -0.648885       -17.6571
  39   2.0000      -0.614613       -16.7245
  40   2.0000      -0.594392       -16.1742
  41   2.0000      -0.574124       -15.6227
  42   2.0000      -0.561533       -15.2801
  43   2.0000      -0.547554       -14.8997
  44   2.0000      -0.538231       -14.6460
  45   2.0000      -0.528464       -14.3802
  46   2.0000      -0.521397       -14.1879
  47   2.0000      -0.511360       -13.9148
  48   2.0000      -0.509644       -13.8681
  49   2.0000      -0.502098       -13.6628
  50   2.0000      -0.488340       -13.2884
  51   2.0000      -0.483295       -13.1511
  52   2.0000      -0.477521       -12.9940
  53   2.0000      -0.468847       -12.7580
  54   2.0000      -0.461587       -12.5604
  55   2.0000      -0.445805       -12.1310
  56   2.0000      -0.437204       -11.8969
  57   2.0000      -0.433835       -11.8053
  58   2.0000      -0.427914       -11.6441
  59   2.0000      -0.423759       -11.5311
  60   2.0000      -0.418557       -11.3895
  61   2.0000      -0.409138       -11.1332
  62   2.0000      -0.406657       -11.0657
  63   2.0000      -0.359253        -9.7758
  64   2.0000      -0.333804        -9.0833
  65   2.0000      -0.325507        -8.8575
  66   2.0000      -0.291355        -7.9282
  67   0.0000       0.024104         0.6559
  68   0.0000       0.072101         1.9620
  69   0.0000       0.102800         2.7973
  70   0.0000       0.118856         3.2342
  71   0.0000       0.131400         3.5756

MULLIKEN ATOMIC CHARGES
-----------------------
   0 S :    0.093971
   1 C :   -0.113194
   2 C :   -0.103277
   3 C :    0.015778
   4 C :   -0.108156
   5 H :    0.029366
   6 C :    0.030854
   7 H :    0.031173
   8 H :    0.009671
   9 C :   -0.092709
  10 H :    0.035990
  11 H :    0.042250
  12 C :   -0.043092
  13 H :    0.024515
  14 H :    0.035352
  15 H :    0.052998
  16 S :    0.111160
  17 C :   -0.096345
  18 C :   -0.026122
  19 C :   -0.035912
  20 C :   -0.152234
  21 H :    0.008643
  22 C :    0.035385
  23 H :    0.023296
  24 H :    0.031903
  25 C :   -0.101704
  26 H :    0.026110
  27 H :    0.032816
  28 C :   -0.051249
  29 H :    0.026622
  30 H :    0.046888
  31 H :    0.038675
  32 H :    0.063657
  33 H :    0.076921
Sum of atomic charges:   -0.0000000

LOEWDIN ATOMIC CHARGES
----------------------
   0 S :    0.396751
   1 C :   -0.206936
   2 C :   -0.063825
   3 C :   -0.063329
   4 C :   -0.173449
   5 H :    0.039007
   6 C :   -0.041856
   7 H :    0.031268
   8 H :    0.018475
   9 C :   -0.042829
  10 H :    0.018067
  11 H :    0.035834
  12 C :   -0.065798
  13 H :    0.013331
  14 H :    0.029933
  15 H :    0.037915
  16 S :    0.431367
  17 C :   -0.200288
  18 C :   -0.066358
  19 C :   -0.060569
  20 C :   -0.205482
  21 H :    0.028405
  22 C :   -0.037029
  23 H :    0.024061
  24 H :    0.035773
  25 C :   -0.052309
  26 H :    0.025205
  27 H :    0.024897
  28 C :   -0.071285
  29 H :    0.020522
  30 H :    0.038299
  31 H :    0.025215
  32 H :    0.034686
  33 H :    0.042330

  Mayer bond orders larger than 0.100000
B(  0-S ,  1-C ) :   1.1373 B(  0-S ,  4-C ) :   1.1442 B(  1-C ,  2-C ) :   1.5915
B(  1-C , 32-H ) :   0.9782 B(  2-C ,  3-C ) :   1.2120 B(  2-C ,  6-C ) :   1.0381
B(  3-C ,  4-C ) :   1.5788 B(  3-C ,  5-H ) :   0.9936 B(  4-C , 20-C ) :   1.0404
B(  6-C ,  7-H ) :   0.9466 B(  6-C ,  8-H ) :   0.9467 B(  6-C ,  9-C ) :   1.0473
B(  9-C , 10-H ) :   0.9639 B(  9-C , 11-H ) :   0.9625 B(  9-C , 12-C ) :   1.0616
B( 12-C , 13-H ) :   0.9806 B( 12-C , 14-H ) :   0.9751 B( 12-C , 15-H ) :   0.9738
B( 16-S , 17-C ) :   1.1826 B( 16-S , 20-C ) :   1.1444 B( 17-C , 18-C ) :   1.5625
B( 17-C , 20-C ) :   0.1056 B( 17-C , 33-H ) :   0.9562 B( 18-C , 19-C ) :   1.2839
B( 18-C , 21-H ) :   0.9949 B( 19-C , 20-C ) :   1.5671 B( 19-C , 22-C ) :   1.0469
B( 22-C , 23-H ) :   0.9438 B( 22-C , 24-H ) :   0.9314 B( 22-C , 25-C ) :   1.0494
B( 25-C , 26-H ) :   0.9531 B( 25-C , 27-H ) :   0.9560 B( 25-C , 28-C ) :   1.0753
B( 28-C , 29-H ) :   0.9722 B( 28-C , 30-H ) :   0.9749 B( 28-C , 31-H ) :   0.9770

Dispersion correction           -0.014573206
FINAL SINGLE POINT ENERGY     -1339.873111908376

DIPOLE MOMENT
-------------
                                X             Y             Z
Electronic contribution:    -21.67595     -17.62577      -6.08797
Nuclear contribution   :     22.15192      17.75475       6.38675
                        -----------------------------------------
Total Dipole Moment    :      0.47597       0.12897       0.29878
                        -----------------------------------------
Magnitude (a.u.)       :      0.57658
Magnitude (Debye)      :      1.46555

Rotational constants in cm-1:     0.016947     0.009736     0.007119
Rotational constants in MHz :   508.053004   291.878052   213.421397

                             ****ORCA TERMINATED NORMALLY****
TOTAL RUN TIME: 0 days 0 hours 0 minutes 33 seconds 363 msec
