                         Program Version 4.2.1 -  RELEASE  -
|  1> ! wB97X-D3 SP def2-SVP
|  2> %pal
|  3> nprocs 16
|  4> end
|  5>
|  6> * xyz 0 1
|  7> S 	 -44.4674 	 57.0758 	 104.006
|  8> C 	 -45.6549 	 57.0093 	 102.653
|  9> C 	 -45.111 	 56.1643 	 101.682
| 10> C 	 -43.8319 	 55.6107 	 101.937
| 11> C 	 -43.4003 	 55.917 	 103.203
| 12> H 	 -43.3054 	 54.8936 	 101.302
| 13> C 	 -45.9352 	 55.6934 	 100.438
| 14> H 	 -45.3041 	 55.9914 	 99.5962
| 15> H 	 -46.8499 	 56.2987 	 100.278
| 16> C 	 -46.2231 	 54.2223 	 100.335
| 17> H 	 -46.6801 	 53.9837 	 99.3791
| 18> H 	 -45.2006 	 53.7098 	 100.304
| 19> C 	 -47.0841 	 53.592 	 101.465
| 20> H 	 -46.8177 	 53.9693 	 102.439
| 21> H 	 -48.1955 	 53.8782 	 101.361
| 22> H 	 -47.0577 	 52.4867 	 101.55
| 23> S 	 -40.7658 	 56.1632 	 102.999
| 24> C 	 -39.7221 	 55.2905 	 104.055
| 25> C 	 -40.4257 	 54.4791 	 104.917
| 26> C 	 -41.8411 	 54.6185 	 104.756
| 27> C 	 -42.1571 	 55.6083 	 103.831
| 28> H 	 -39.8633 	 53.7399 	 105.47
| 29> C 	 -42.8661 	 53.718 	 105.532
| 30> H 	 -43.8655 	 54.2241 	 105.496
| 31> H 	 -42.597 	 53.7527 	 106.578
| 32> C 	 -43.0094 	 52.2646 	 105.092
| 33> H 	 -43.3014 	 52.2662 	 103.994
| 34> H 	 -43.8317 	 51.8929 	 105.626
| 35> C 	 -41.8178 	 51.4942 	 105.389
| 36> H 	 -41.243 	 51.4198 	 104.442
| 37> H 	 -42.1693 	 50.5199 	 105.777
| 38> H 	 -41.1714 	 51.9698 	 106.168
| 39> H 	 -46.597 	 57.5699 	 102.731
| 40> H 	 -38.6134 	 55.2873 	 103.946
| 41> *
| 42>
| 43>                          ****END OF INPUT****

CARTESIAN COORDINATES (ANGSTROEM)
---------------------------------
  S    -44.467400   57.075800  104.006000
  C    -45.654900   57.009300  102.653000
  C    -45.111000   56.164300  101.682000
  C    -43.831900   55.610700  101.937000
  C    -43.400300   55.917000  103.203000
  H    -43.305400   54.893600  101.302000
  C    -45.935200   55.693400  100.438000
  H    -45.304100   55.991400   99.596200
  H    -46.849900   56.298700  100.278000
  C    -46.223100   54.222300  100.335000
  H    -46.680100   53.983700   99.379100
  H    -45.200600   53.709800  100.304000
  C    -47.084100   53.592000  101.465000
  H    -46.817700   53.969300  102.439000
  H    -48.195500   53.878200  101.361000
  H    -47.057700   52.486700  101.550000
  S    -40.765800   56.163200  102.999000
  C    -39.722100   55.290500  104.055000
  C    -40.425700   54.479100  104.917000
  C    -41.841100   54.618500  104.756000
  C    -42.157100   55.608300  103.831000
  H    -39.863300   53.739900  105.470000
  C    -42.866100   53.718000  105.532000
  H    -43.865500   54.224100  105.496000
  H    -42.597000   53.752700  106.578000
  C    -43.009400   52.264600  105.092000
  H    -43.301400   52.266200  103.994000
  H    -43.831700   51.892900  105.626000
  C    -41.817800   51.494200  105.389000
  H    -41.243000   51.419800  104.442000
  H    -42.169300   50.519900  105.777000
  H    -41.171400   51.969800  106.168000
  H    -46.597000   57.569900  102.731000
  H    -38.613400   55.287300  103.946000

 Total Charge           Charge          ....    0
 Multiplicity           Mult            ....    1
 Number of Electrons    NEL             ....  134
 Basis Dimension        Dim             ....  322

ORBITAL ENERGIES
----------------

  NO   OCC          E(Eh)            E(eV)
   0   2.0000     -88.965259     -2420.8678
   1   2.0000     -88.961470     -2420.7647
   2   2.0000     -10.328714      -281.0586
   3   2.0000     -10.321465      -280.8613
   4   2.0000     -10.318596      -280.7833
   5   2.0000     -10.317591      -280.7559
   6   2.0000     -10.307443      -280.4798
   7   2.0000     -10.307136      -280.4714
   8   2.0000     -10.296480      -280.1815
   9   2.0000     -10.293514      -280.1008
  10   2.0000     -10.293072      -280.0887
  11   2.0000     -10.292665      -280.0777
  12   2.0000     -10.291435      -280.0442
  13   2.0000     -10.282257      -279.7944
  14   2.0000     -10.277607      -279.6679
  15   2.0000     -10.277263      -279.6585
  16   2.0000      -8.081222      -219.9012
  17   2.0000      -8.075341      -219.7412
  18   2.0000      -6.039569      -164.3450
  19   2.0000      -6.035533      -164.2352
  20   2.0000      -6.033865      -164.1898
  21   2.0000      -6.032091      -164.1415
  22   2.0000      -6.029830      -164.0800
  23   2.0000      -6.026270      -163.9832
  24   2.0000      -1.011823       -27.5331
  25   2.0000      -0.981930       -26.7197
  26   2.0000      -0.917067       -24.9547
  27   2.0000      -0.906633       -24.6707
  28   2.0000      -0.870522       -23.6881
  29   2.0000      -0.851501       -23.1705
  30   2.0000      -0.840014       -22.8579
  31   2.0000      -0.812120       -22.0989
  32   2.0000      -0.783227       -21.3127
  33   2.0000      -0.770899       -20.9772
  34   2.0000      -0.706880       -19.2352
  35   2.0000      -0.691099       -18.8058
  36   2.0000      -0.684496       -18.6261
  37   2.0000      -0.661991       -18.0137
  38   2.0000      -0.640215       -17.4211
  39   2.0000      -0.620382       -16.8815
  40   2.0000      -0.594214       -16.1694
  41   2.0000      -0.564019       -15.3477
  42   2.0000      -0.556151       -15.1336
  43   2.0000      -0.548991       -14.9388
  44   2.0000      -0.544315       -14.8116
  45   2.0000      -0.538675       -14.6581
  46   2.0000      -0.520837       -14.1727
  47   2.0000      -0.517668       -14.0865
  48   2.0000      -0.498643       -13.5688
  49   2.0000      -0.494657       -13.4603
  50   2.0000      -0.489314       -13.3149
  51   2.0000      -0.478081       -13.0092
  52   2.0000      -0.467868       -12.7313
  53   2.0000      -0.464896       -12.6505
  54   2.0000      -0.460179       -12.5221
  55   2.0000      -0.444557       -12.0970
  56   2.0000      -0.442615       -12.0442
  57   2.0000      -0.439497       -11.9593
  58   2.0000      -0.431844       -11.7511
  59   2.0000      -0.417352       -11.3567
  60   2.0000      -0.412350       -11.2206
  61   2.0000      -0.410342       -11.1660
  62   2.0000      -0.404669       -11.0116
  63   2.0000      -0.337474        -9.1831
  64   2.0000      -0.333737        -9.0815
  65   2.0000      -0.327354        -8.9078
  66   2.0000      -0.301838        -8.2134
  67   0.0000       0.038058         1.0356
  68   0.0000       0.060509         1.6465
  69   0.0000       0.112480         3.0607
  70   0.0000       0.117613         3.2004
  71   0.0000       0.127809         3.4779

MULLIKEN ATOMIC CHARGES
-----------------------
   0 S :    0.087133
   1 C :   -0.146469
   2 C :   -0.077846
   3 C :    0.030661
   4 C :   -0.164705
   5 H :    0.027998
   6 C :    0.059277
   7 H :    0.030352
   8 H :    0.020727
   9 C :   -0.071329
  10 H :    0.032513
  11 H :    0.028207
  12 C :   -0.075897
  13 H :    0.034412
  14 H :    0.033567
  15 H :    0.041781
  16 S :    0.125155
  17 C :   -0.115438
  18 C :   -0.033596
  19 C :   -0.017141
  20 C :   -0.166336
  21 H :    0.019945
  22 C :    0.027809
  23 H :    0.025584
  24 H :    0.027272
  25 C :   -0.036757
  26 H :    0.037709
  27 H :    0.016705
  28 C :   -0.062127
  29 H :    0.048938
  30 H :    0.036971
  31 H :    0.036194
  32 H :    0.068714
  33 H :    0.070017
Sum of atomic charges:    0.0000000

LOEWDIN ATOMIC CHARGES
----------------------
   0 S :    0.377332
   1 C :   -0.190161
   2 C :   -0.059606
   3 C :   -0.070457
   4 C :   -0.180775
   5 H :    0.037380
   6 C :   -0.035507
   7 H :    0.034031
   8 H :    0.028051
   9 C :   -0.047703
  10 H :    0.025577
  11 H :    0.027811
  12 C :   -0.076462
  13 H :    0.022217
  14 H :    0.031392
  15 H :    0.029168
  16 S :    0.442486
  17 C :   -0.197662
  18 C :   -0.078878
  19 C :   -0.046466
  20 C :   -0.227999
  21 H :    0.031473
  22 C :   -0.030576
  23 H :    0.030697
  24 H :    0.025940
  25 C :   -0.045937
  26 H :    0.033822
  27 H :    0.018302
  28 C :   -0.072115
  29 H :    0.035074
  30 H :    0.031896
  31 H :    0.025611
  32 H :    0.035255
  33 H :    0.036788

  Mayer bond orders larger than 0.100000
B(  0-S ,  1-C ) :   1.1203 B(  0-S ,  4-C ) :   1.1580 B(  1-C ,  2-C ) :   1.6005
B(  1-C ,  4-C ) :   0.1050 B(  1-C , 32-H ) :   0.9762 B(  2-C ,  3-C ) :   1.2239
B(  2-C ,  6-C ) :   1.0110 B(  3-C ,  4-C ) :   1.5912 B(  3-C ,  5-H ) :   0.9932
B(  4-C , 20-C ) :   1.0050 B(  6-C ,  7-H ) :   0.9341 B(  6-C ,  8-H ) :   0.9487
B(  6-C ,  9-C ) :   1.0840 B(  9-C , 10-H ) :   0.9537 B(  9-C , 11-H ) :   0.9507
B(  9-C , 12-C ) :   1.0632 B( 12-C , 13-H ) :   0.9776 B( 12-C , 14-H ) :   0.9739
B( 12-C , 15-H ) :   0.9768 B( 16-S , 17-C ) :   1.1764 B( 16-S , 20-C ) :   1.1621
B( 17-C , 18-C ) :   1.5990 B( 17-C , 33-H ) :   0.9609 B( 18-C , 19-C ) :   1.2567
B( 18-C , 21-H ) :   0.9891 B( 19-C , 20-C ) :   1.5854 B( 19-C , 22-C ) :   1.0259
B( 22-C , 23-H ) :   0.9315 B( 22-C , 24-H ) :   0.9419 B( 22-C , 25-C ) :   1.0887
B( 25-C , 26-H ) :   0.9501 B( 25-C , 27-H ) :   0.9546 B( 25-C , 28-C ) :   1.0734
B( 28-C , 29-H ) :   0.9718 B( 28-C , 30-H ) :   0.9710 B( 28-C , 31-H ) :   0.9733

Dispersion correction           -0.015064364
FINAL SINGLE POINT ENERGY     -1339.877102871328

DIPOLE MOMENT
-------------
                                X             Y             Z
Electronic contribution:     12.11206      22.24802       2.54588
Nuclear contribution   :    -12.20533     -22.86387      -2.72458
                        -----------------------------------------
Total Dipole Moment    :     -0.09326      -0.61585      -0.17870
                        -----------------------------------------
Magnitude (a.u.)       :      0.64800
Magnitude (Debye)      :      1.64709

Rotational constants in cm-1:     0.018538     0.009270     0.007631
Rotational constants in MHz :   555.765809   277.902208   228.778782

                             ****ORCA TERMINATED NORMALLY****
TOTAL RUN TIME: 0 days 0 hours 0 minutes 29 seconds 208 msec
