                         Program Version 4.2.1 -  RELEASE  -
|  1> ! wB97X-D3 SP def2-SVP
|  2> %pal
|  3> nprocs 16
|  4> end
|  5>
|  6> * xyz 0 1
|  7> S 	 42.3443 	 20.1123 	 81.5221
|  8> C 	 40.838 	 21.0563 	 81.3523
|  9> C 	 39.7216 	 20.1882 	 81.3858
| 10> C 	 40.0779 	 18.8975 	 81.8219
| 11> C 	 41.451 	 18.6546 	 81.9211
| 12> H 	 39.3403 	 18.0735 	 81.9858
| 13> C 	 38.2911 	 20.5527 	 81.2214
| 14> H 	 37.6989 	 19.8739 	 81.8282
| 15> H 	 37.9431 	 20.4371 	 80.2101
| 16> C 	 37.9093 	 21.9562 	 81.7567
| 17> H 	 38.1739 	 21.8629 	 82.8437
| 18> H 	 38.56 	 22.6647 	 81.1876
| 19> C 	 36.3873 	 22.1817 	 81.5459
| 20> H 	 36.273 	 22.6266 	 80.5507
| 21> H 	 35.8797 	 21.22 	 81.7483
| 22> H 	 36.0688 	 22.8644 	 82.2916
| 23> S 	 43.3119 	 16.8045 	 81.0007
| 24> C 	 43.4296 	 15.2352 	 81.6357
| 25> C 	 42.6384 	 15.1472 	 82.8081
| 26> C 	 41.8398 	 16.3173 	 83.001
| 27> C 	 42.0844 	 17.3494 	 82.155
| 28> H 	 42.6136 	 14.2009 	 83.3491
| 29> C 	 40.7682 	 16.3735 	 84.0401
| 30> H 	 40.5071 	 17.4669 	 84.0193
| 31> H 	 41.2047 	 16.205 	 85.0249
| 32> C 	 39.6118 	 15.4496 	 83.6475
| 33> H 	 40.0648 	 14.4625 	 83.7657
| 34> H 	 39.1408 	 15.5973 	 82.6824
| 35> C 	 38.4225 	 15.717 	 84.604
| 36> H 	 37.5694 	 15.0951 	 84.3268
| 37> H 	 38.1263 	 16.7 	 84.4791
| 38> H 	 38.6774 	 15.5777 	 85.657
| 39> H 	 40.7772 	 22.126 	 81.0844
| 40> H 	 44.045 	 14.4272 	 81.2011
| 41> *
| 42>
| 43>                          ****END OF INPUT****

CARTESIAN COORDINATES (ANGSTROEM)
---------------------------------
  S     42.344300   20.112300   81.522100
  C     40.838000   21.056300   81.352300
  C     39.721600   20.188200   81.385800
  C     40.077900   18.897500   81.821900
  C     41.451000   18.654600   81.921100
  H     39.340300   18.073500   81.985800
  C     38.291100   20.552700   81.221400
  H     37.698900   19.873900   81.828200
  H     37.943100   20.437100   80.210100
  C     37.909300   21.956200   81.756700
  H     38.173900   21.862900   82.843700
  H     38.560000   22.664700   81.187600
  C     36.387300   22.181700   81.545900
  H     36.273000   22.626600   80.550700
  H     35.879700   21.220000   81.748300
  H     36.068800   22.864400   82.291600
  S     43.311900   16.804500   81.000700
  C     43.429600   15.235200   81.635700
  C     42.638400   15.147200   82.808100
  C     41.839800   16.317300   83.001000
  C     42.084400   17.349400   82.155000
  H     42.613600   14.200900   83.349100
  C     40.768200   16.373500   84.040100
  H     40.507100   17.466900   84.019300
  H     41.204700   16.205000   85.024900
  C     39.611800   15.449600   83.647500
  H     40.064800   14.462500   83.765700
  H     39.140800   15.597300   82.682400
  C     38.422500   15.717000   84.604000
  H     37.569400   15.095100   84.326800
  H     38.126300   16.700000   84.479100
  H     38.677400   15.577700   85.657000
  H     40.777200   22.126000   81.084400
  H     44.045000   14.427200   81.201100

 Total Charge           Charge          ....    0
 Multiplicity           Mult            ....    1
 Number of Electrons    NEL             ....  134
 Basis Dimension        Dim             ....  322

ORBITAL ENERGIES
----------------

  NO   OCC          E(Eh)            E(eV)
   0   2.0000     -88.971425     -2421.0355
   1   2.0000     -88.960819     -2420.7470
   2   2.0000     -10.335483      -281.2428
   3   2.0000     -10.324193      -280.9356
   4   2.0000     -10.322644      -280.8934
   5   2.0000     -10.320759      -280.8421
   6   2.0000     -10.302437      -280.3436
   7   2.0000     -10.297327      -280.2045
   8   2.0000     -10.297048      -280.1969
   9   2.0000     -10.295543      -280.1560
  10   2.0000     -10.294456      -280.1264
  11   2.0000     -10.288710      -279.9700
  12   2.0000     -10.287924      -279.9486
  13   2.0000     -10.287530      -279.9379
  14   2.0000     -10.282505      -279.8012
  15   2.0000     -10.271911      -279.5129
  16   2.0000      -8.085009      -220.0043
  17   2.0000      -8.076478      -219.7721
  18   2.0000      -6.043629      -164.4555
  19   2.0000      -6.039634      -164.3468
  20   2.0000      -6.035763      -164.2415
  21   2.0000      -6.034939      -164.2191
  22   2.0000      -6.030682      -164.1032
  23   2.0000      -6.027384      -164.0134
  24   2.0000      -1.007159       -27.4062
  25   2.0000      -0.984191       -26.7812
  26   2.0000      -0.915512       -24.9124
  27   2.0000      -0.913999       -24.8712
  28   2.0000      -0.866764       -23.5859
  29   2.0000      -0.854532       -23.2530
  30   2.0000      -0.845669       -23.0118
  31   2.0000      -0.809216       -22.0199
  32   2.0000      -0.780301       -21.2331
  33   2.0000      -0.770854       -20.9760
  34   2.0000      -0.708333       -19.2747
  35   2.0000      -0.703686       -19.1483
  36   2.0000      -0.688154       -18.7256
  37   2.0000      -0.662428       -18.0256
  38   2.0000      -0.635434       -17.2911
  39   2.0000      -0.614966       -16.7341
  40   2.0000      -0.590789       -16.0762
  41   2.0000      -0.580931       -15.8079
  42   2.0000      -0.571849       -15.5608
  43   2.0000      -0.567171       -15.4335
  44   2.0000      -0.531929       -14.4745
  45   2.0000      -0.524108       -14.2617
  46   2.0000      -0.516989       -14.0680
  47   2.0000      -0.513082       -13.9617
  48   2.0000      -0.508636       -13.8407
  49   2.0000      -0.499309       -13.5869
  50   2.0000      -0.497725       -13.5438
  51   2.0000      -0.477986       -13.0067
  52   2.0000      -0.474376       -12.9084
  53   2.0000      -0.463909       -12.6236
  54   2.0000      -0.462425       -12.5832
  55   2.0000      -0.446311       -12.1447
  56   2.0000      -0.444108       -12.0848
  57   2.0000      -0.435092       -11.8394
  58   2.0000      -0.429946       -11.6994
  59   2.0000      -0.427002       -11.6193
  60   2.0000      -0.422788       -11.5046
  61   2.0000      -0.417960       -11.3733
  62   2.0000      -0.404995       -11.0205
  63   2.0000      -0.348822        -9.4919
  64   2.0000      -0.332815        -9.0563
  65   2.0000      -0.327318        -8.9068
  66   2.0000      -0.287981        -7.8364
  67   0.0000       0.029095         0.7917
  68   0.0000       0.065205         1.7743
  69   0.0000       0.112917         3.0726
  70   0.0000       0.122082         3.3220
  71   0.0000       0.129731         3.5302

MULLIKEN ATOMIC CHARGES
-----------------------
   0 S :    0.118181
   1 C :   -0.142438
   2 C :   -0.063045
   3 C :   -0.002845
   4 C :   -0.142241
   5 H :    0.024419
   6 C :    0.054292
   7 H :    0.012399
   8 H :    0.037182
   9 C :   -0.160365
  10 H :    0.047789
  11 H :    0.040666
  12 C :   -0.008445
  13 H :    0.046014
  14 H :    0.033871
  15 H :    0.029632
  16 S :    0.098480
  17 C :   -0.112615
  18 C :   -0.041602
  19 C :   -0.063116
  20 C :   -0.121508
  21 H :    0.025437
  22 C :    0.034045
  23 H :    0.026231
  24 H :    0.035756
  25 C :   -0.078571
  26 H :    0.033265
  27 H :    0.039597
  28 C :   -0.007563
  29 H :    0.031640
  30 H :    0.007316
  31 H :    0.027219
  32 H :    0.064875
  33 H :    0.076047
Sum of atomic charges:    0.0000000

LOEWDIN ATOMIC CHARGES
----------------------
   0 S :    0.402200
   1 C :   -0.199165
   2 C :   -0.062106
   3 C :   -0.070185
   4 C :   -0.191274
   5 H :    0.036858
   6 C :   -0.036791
   7 H :    0.025006
   8 H :    0.029506
   9 C :   -0.042042
  10 H :    0.030415
  11 H :    0.022571
  12 C :   -0.061082
  13 H :    0.032264
  14 H :    0.029750
  15 H :    0.022539
  16 S :    0.416435
  17 C :   -0.200309
  18 C :   -0.081855
  19 C :   -0.061262
  20 C :   -0.198439
  21 H :    0.031704
  22 C :   -0.035713
  23 H :    0.031896
  24 H :    0.032927
  25 C :   -0.032446
  26 H :    0.025167
  27 H :    0.026865
  28 C :   -0.057830
  29 H :    0.025160
  30 H :    0.012685
  31 H :    0.023984
  32 H :    0.033680
  33 H :    0.038887

  Mayer bond orders larger than 0.100000
B(  0-S ,  1-C ) :   1.1338 B(  0-S ,  4-C ) :   1.1603 B(  1-C ,  2-C ) :   1.5722
B(  1-C ,  4-C ) :   0.1102 B(  1-C , 32-H ) :   0.9647 B(  2-C ,  3-C ) :   1.2878
B(  2-C ,  6-C ) :   1.0248 B(  3-C ,  4-C ) :   1.5369 B(  3-C ,  5-H ) :   0.9807
B(  4-C , 20-C ) :   1.0326 B(  6-C ,  7-H ) :   0.9463 B(  6-C ,  8-H ) :   0.9259
B(  6-C ,  9-C ) :   1.0636 B(  9-C , 10-H ) :   0.9638 B(  9-C , 11-H ) :   0.9538
B(  9-C , 12-C ) :   1.0737 B( 12-C , 13-H ) :   0.9747 B( 12-C , 14-H ) :   0.9721
B( 12-C , 15-H ) :   0.9753 B( 16-S , 17-C ) :   1.1960 B( 16-S , 20-C ) :   1.1212
B( 17-C , 18-C ) :   1.5615 B( 17-C , 33-H ) :   0.9655 B( 18-C , 19-C ) :   1.2393
B( 18-C , 21-H ) :   0.9942 B( 19-C , 20-C ) :   1.6215 B( 19-C , 22-C ) :   1.0420
B( 22-C , 23-H ) :   0.9376 B( 22-C , 24-H ) :   0.9338 B( 22-C , 25-C ) :   1.0510
B( 25-C , 26-H ) :   0.9558 B( 25-C , 27-H ) :   0.9576 B( 25-C , 28-C ) :   1.0817
B( 28-C , 29-H ) :   0.9756 B( 28-C , 30-H ) :   0.9746 B( 28-C , 31-H ) :   0.9724

Dispersion correction           -0.013952319
FINAL SINGLE POINT ENERGY     -1339.874437888903

DIPOLE MOMENT
-------------
                                X             Y             Z
Electronic contribution:     29.54084      -2.19444      -9.79681
Nuclear contribution   :    -30.24204       2.02720       9.92354
                        -----------------------------------------
Total Dipole Moment    :     -0.70120      -0.16724       0.12673
                        -----------------------------------------
Magnitude (a.u.)       :      0.73192
Magnitude (Debye)      :      1.86039

Rotational constants in cm-1:     0.019194     0.008396     0.006192
Rotational constants in MHz :   575.413679   251.702175   185.622031

                             ****ORCA TERMINATED NORMALLY****
TOTAL RUN TIME: 0 days 0 hours 0 minutes 30 seconds 420 msec
