                         Program Version 4.2.1 -  RELEASE  -
|  1> ! wB97X-D3 SP def2-SVP
|  2> %pal
|  3> nprocs 16
|  4> end
|  5>
|  6> * xyz 0 1
|  7> S 	 5.53089 	 19.2194 	 36.8076
|  8> C 	 7.08271 	 18.5246 	 36.4084
|  9> C 	 8.03314 	 19.4926 	 36.4123
| 10> C 	 7.63173 	 20.7433 	 36.9187
| 11> C 	 6.27734 	 20.7295 	 37.2151
| 12> H 	 8.15529 	 21.6006 	 37.1053
| 13> C 	 9.50535 	 19.2916 	 36.0689
| 14> H 	 9.7911 	 20.182 	 35.5984
| 15> H 	 9.56752 	 18.5567 	 35.1838
| 16> C 	 10.3894 	 18.9752 	 37.2728
| 17> H 	 10.2935 	 19.6444 	 38.1175
| 18> H 	 9.94551 	 18.0377 	 37.7211
| 19> C 	 11.8662 	 18.9207 	 36.9443
| 20> H 	 12.5783 	 19.0201 	 37.7506
| 21> H 	 12.2156 	 18.0199 	 36.3535
| 22> H 	 12.1113 	 19.6641 	 36.2291
| 23> S 	 4.88812 	 21.5438 	 39.4347
| 24> C 	 4.27572 	 23.222 	 39.4699
| 25> C 	 4.56003 	 23.8785 	 38.3086
| 26> C 	 5.24633 	 23.0814 	 37.3257
| 27> C 	 5.50977 	 21.7886 	 37.7806
| 28> H 	 4.47615 	 24.9293 	 38.2256
| 29> C 	 5.76391 	 23.6987 	 35.9941
| 30> H 	 4.90134 	 24.3236 	 35.7193
| 31> H 	 5.78174 	 22.9452 	 35.2104
| 32> C 	 7.0745 	 24.5803 	 36.0677
| 33> H 	 7.90312 	 23.8457 	 36.2727
| 34> H 	 7.04046 	 25.226 	 36.9783
| 35> C 	 7.26035 	 25.2308 	 34.6904
| 36> H 	 6.71323 	 26.2497 	 34.7899
| 37> H 	 6.74574 	 24.7584 	 33.8246
| 38> H 	 8.32173 	 25.39 	 34.5093
| 39> H 	 7.1044 	 17.5065 	 36.0864
| 40> H 	 3.8344 	 23.7675 	 40.3396
| 41> *
| 42>
| 43>                          ****END OF INPUT****

CARTESIAN COORDINATES (ANGSTROEM)
---------------------------------
  S      5.530890   19.219400   36.807600
  C      7.082710   18.524600   36.408400
  C      8.033140   19.492600   36.412300
  C      7.631730   20.743300   36.918700
  C      6.277340   20.729500   37.215100
  H      8.155290   21.600600   37.105300
  C      9.505350   19.291600   36.068900
  H      9.791100   20.182000   35.598400
  H      9.567520   18.556700   35.183800
  C     10.389400   18.975200   37.272800
  H     10.293500   19.644400   38.117500
  H      9.945510   18.037700   37.721100
  C     11.866200   18.920700   36.944300
  H     12.578300   19.020100   37.750600
  H     12.215600   18.019900   36.353500
  H     12.111300   19.664100   36.229100
  S      4.888120   21.543800   39.434700
  C      4.275720   23.222000   39.469900
  C      4.560030   23.878500   38.308600
  C      5.246330   23.081400   37.325700
  C      5.509770   21.788600   37.780600
  H      4.476150   24.929300   38.225600
  C      5.763910   23.698700   35.994100
  H      4.901340   24.323600   35.719300
  H      5.781740   22.945200   35.210400
  C      7.074500   24.580300   36.067700
  H      7.903120   23.845700   36.272700
  H      7.040460   25.226000   36.978300
  C      7.260350   25.230800   34.690400
  H      6.713230   26.249700   34.789900
  H      6.745740   24.758400   33.824600
  H      8.321730   25.390000   34.509300
  H      7.104400   17.506500   36.086400
  H      3.834400   23.767500   40.339600

 Total Charge           Charge          ....    0
 Multiplicity           Mult            ....    1
 Number of Electrons    NEL             ....  134
 Basis Dimension        Dim             ....  322

ORBITAL ENERGIES
----------------

  NO   OCC          E(Eh)            E(eV)
   0   2.0000     -88.964077     -2420.8356
   1   2.0000     -88.961945     -2420.7776
   2   2.0000     -10.323734      -280.9231
   3   2.0000     -10.322627      -280.8930
   4   2.0000     -10.321669      -280.8669
   5   2.0000     -10.309644      -280.5397
   6   2.0000     -10.305018      -280.4138
   7   2.0000     -10.301092      -280.3070
   8   2.0000     -10.297404      -280.2066
   9   2.0000     -10.296459      -280.1809
  10   2.0000     -10.292008      -280.0598
  11   2.0000     -10.291371      -280.0424
  12   2.0000     -10.289986      -280.0047
  13   2.0000     -10.289735      -279.9979
  14   2.0000     -10.286490      -279.9096
  15   2.0000     -10.276551      -279.6392
  16   2.0000      -8.077786      -219.8077
  17   2.0000      -8.077507      -219.8001
  18   2.0000      -6.036459      -164.2604
  19   2.0000      -6.035819      -164.2430
  20   2.0000      -6.032493      -164.1525
  21   2.0000      -6.031895      -164.1362
  22   2.0000      -6.028440      -164.0422
  23   2.0000      -6.028368      -164.0402
  24   2.0000      -1.008331       -27.4381
  25   2.0000      -0.979980       -26.6666
  26   2.0000      -0.911903       -24.8141
  27   2.0000      -0.900519       -24.5044
  28   2.0000      -0.872725       -23.7481
  29   2.0000      -0.852822       -23.2065
  30   2.0000      -0.844509       -22.9803
  31   2.0000      -0.814730       -22.1699
  32   2.0000      -0.780646       -21.2425
  33   2.0000      -0.765742       -20.8369
  34   2.0000      -0.707784       -19.2598
  35   2.0000      -0.704899       -19.1813
  36   2.0000      -0.694597       -18.9009
  37   2.0000      -0.663581       -18.0570
  38   2.0000      -0.653290       -17.7769
  39   2.0000      -0.616944       -16.7879
  40   2.0000      -0.589740       -16.0476
  41   2.0000      -0.567263       -15.4360
  42   2.0000      -0.557786       -15.1781
  43   2.0000      -0.549547       -14.9539
  44   2.0000      -0.531467       -14.4620
  45   2.0000      -0.522759       -14.2250
  46   2.0000      -0.521389       -14.1877
  47   2.0000      -0.514914       -14.0115
  48   2.0000      -0.507014       -13.7965
  49   2.0000      -0.502129       -13.6636
  50   2.0000      -0.490400       -13.3445
  51   2.0000      -0.476358       -12.9624
  52   2.0000      -0.471757       -12.8371
  53   2.0000      -0.460614       -12.5340
  54   2.0000      -0.456971       -12.4348
  55   2.0000      -0.452805       -12.3215
  56   2.0000      -0.447316       -12.1721
  57   2.0000      -0.443631       -12.0718
  58   2.0000      -0.433136       -11.7862
  59   2.0000      -0.421742       -11.4762
  60   2.0000      -0.420586       -11.4447
  61   2.0000      -0.407343       -11.0844
  62   2.0000      -0.404591       -11.0095
  63   2.0000      -0.340201        -9.2573
  64   2.0000      -0.331127        -9.0104
  65   2.0000      -0.326438        -8.8828
  66   2.0000      -0.300241        -8.1700
  67   0.0000       0.036097         0.9822
  68   0.0000       0.063030         1.7151
  69   0.0000       0.113753         3.0954
  70   0.0000       0.117150         3.1878
  71   0.0000       0.131134         3.5683

MULLIKEN ATOMIC CHARGES
-----------------------
   0 S :    0.111817
   1 C :   -0.133871
   2 C :   -0.060607
   3 C :    0.078015
   4 C :   -0.174762
   5 H :   -0.030304
   6 C :    0.068919
   7 H :   -0.000823
   8 H :    0.033948
   9 C :   -0.050786
  10 H :    0.026589
  11 H :    0.030212
  12 C :   -0.029687
  13 H :    0.034864
  14 H :    0.026753
  15 H :    0.010490
  16 S :    0.101734
  17 C :   -0.101995
  18 C :   -0.021565
  19 C :   -0.025702
  20 C :   -0.178360
  21 H :    0.007753
  22 C :    0.030330
  23 H :    0.023121
  24 H :    0.033659
  25 C :   -0.077364
  26 H :    0.032332
  27 H :    0.044006
  28 C :   -0.066415
  29 H :    0.043295
  30 H :    0.051549
  31 H :    0.044797
  32 H :    0.044774
  33 H :    0.073284
Sum of atomic charges:   -0.0000000

LOEWDIN ATOMIC CHARGES
----------------------
   0 S :    0.414074
   1 C :   -0.191623
   2 C :   -0.063099
   3 C :   -0.045426
   4 C :   -0.196557
   5 H :    0.016675
   6 C :   -0.031256
   7 H :    0.017208
   8 H :    0.037737
   9 C :   -0.044745
  10 H :    0.026819
  11 H :    0.031201
  12 C :   -0.072513
  13 H :    0.025529
  14 H :    0.031220
  15 H :    0.020283
  16 S :    0.376929
  17 C :   -0.179035
  18 C :   -0.073186
  19 C :   -0.052857
  20 C :   -0.196853
  21 H :    0.025144
  22 C :   -0.033666
  23 H :    0.029452
  24 H :    0.029117
  25 C :   -0.044165
  26 H :    0.023407
  27 H :    0.029729
  28 C :   -0.073739
  29 H :    0.038461
  30 H :    0.032948
  31 H :    0.026601
  32 H :    0.024075
  33 H :    0.042110

  Mayer bond orders larger than 0.100000
B(  0-S ,  1-C ) :   1.1362 B(  0-S ,  4-C ) :   1.1765 B(  1-C ,  2-C ) :   1.5969
B(  1-C , 32-H ) :   0.9822 B(  2-C ,  3-C ) :   1.2259 B(  2-C ,  6-C ) :   1.0245
B(  3-C ,  4-C ) :   1.5610 B(  3-C ,  5-H ) :   1.0155 B(  4-C , 20-C ) :   1.0374
B(  6-C ,  7-H ) :   0.9292 B(  6-C ,  8-H ) :   0.9441 B(  6-C ,  9-C ) :   1.0570
B(  9-C , 10-H ) :   0.9570 B(  9-C , 11-H ) :   0.9534 B(  9-C , 12-C ) :   1.0711
B( 12-C , 13-H ) :   0.9768 B( 12-C , 14-H ) :   0.9720 B( 12-C , 15-H ) :   0.9702
B( 16-S , 17-C ) :   1.1330 B( 16-S , 20-C ) :   1.1273 B( 17-C , 18-C ) :   1.6443
B( 17-C , 33-H ) :   0.9586 B( 18-C , 19-C ) :   1.2259 B( 18-C , 21-H ) :   0.9868
B( 19-C , 20-C ) :   1.6208 B( 19-C , 22-C ) :   1.0312 B( 22-C , 23-H ) :   0.9410
B( 22-C , 24-H ) :   0.9362 B( 22-C , 25-C ) :   1.0476 B( 25-C , 26-H ) :   0.9569
B( 25-C , 27-H ) :   0.9604 B( 25-C , 28-C ) :   1.0535 B( 28-C , 29-H ) :   0.9751
B( 28-C , 30-H ) :   0.9749 B( 28-C , 31-H ) :   0.9757

Dispersion correction           -0.014158766
FINAL SINGLE POINT ENERGY     -1339.869762468538

DIPOLE MOMENT
-------------
                                X             Y             Z
Electronic contribution:    -23.97753      -9.25633      12.39152
Nuclear contribution   :     24.51750       9.75309     -12.68099
                        -----------------------------------------
Total Dipole Moment    :      0.53997       0.49676      -0.28947
                        -----------------------------------------
Magnitude (a.u.)       :      0.78875
Magnitude (Debye)      :      2.00485

Rotational constants in cm-1:     0.016620     0.008625     0.006817
Rotational constants in MHz :   498.268786   258.557289   204.361364

                             ****ORCA TERMINATED NORMALLY****
TOTAL RUN TIME: 0 days 0 hours 0 minutes 34 seconds 188 msec
