                         Program Version 4.2.1 -  RELEASE  -
|  1> ! wB97X-D3 SP def2-SVP
|  2> %pal
|  3> nprocs 16
|  4> end
|  5>
|  6> * xyz 0 1
|  7> S 	 34.7017 	 5.03603 	 86.4975
|  8> C 	 33.2947 	 4.14152 	 85.9755
|  9> C 	 33.42 	 2.78172 	 85.9921
| 10> C 	 34.7744 	 2.42668 	 86.2189
| 11> C 	 35.6213 	 3.50236 	 86.449
| 12> H 	 35.2177 	 1.53361 	 86.2033
| 13> C 	 32.3046 	 1.90721 	 85.549
| 14> H 	 31.3602 	 2.53493 	 85.6245
| 15> H 	 32.0985 	 1.08875 	 86.193
| 16> C 	 32.4239 	 1.55702 	 84.0478
| 17> H 	 33.3655 	 0.910927 	 83.8514
| 18> H 	 31.5981 	 0.942483 	 83.7353
| 19> C 	 32.1773 	 2.72306 	 83.1228
| 20> H 	 32.1259 	 2.39769 	 82.0856
| 21> H 	 31.3128 	 3.37434 	 83.2865
| 22> H 	 32.9743 	 3.36294 	 83.267
| 23> S 	 37.6652 	 2.30745 	 87.7978
| 24> C 	 39.2885 	 2.76776 	 87.5327
| 25> C 	 39.3514 	 3.98087 	 86.916
| 26> C 	 38.0275 	 4.48399 	 86.5316
| 27> C 	 37.0466 	 3.5415 	 86.7737
| 28> H 	 40.2967 	 4.34971 	 86.7523
| 29> C 	 37.9527 	 5.74056 	 85.7401
| 30> H 	 36.9974 	 5.69729 	 85.2032
| 31> H 	 38.7087 	 5.65341 	 85.0345
| 32> C 	 37.9079 	 7.04699 	 86.3924
| 33> H 	 38.8721 	 7.02451 	 86.9581
| 34> H 	 37.0795 	 7.04137 	 87.0866
| 35> C 	 38.0382 	 8.17609 	 85.3022
| 36> H 	 38.1076 	 9.086 	 85.8624
| 37> H 	 37.2052 	 8.33364 	 84.6313
| 38> H 	 38.9907 	 8.22147 	 84.8262
| 39> H 	 32.3499 	 4.63206 	 85.9102
| 40> H 	 40.1724 	 2.17828 	 87.777
| 41> *
| 42>
| 43>                          ****END OF INPUT****

CARTESIAN COORDINATES (ANGSTROEM)
---------------------------------
  S     34.701700    5.036030   86.497500
  C     33.294700    4.141520   85.975500
  C     33.420000    2.781720   85.992100
  C     34.774400    2.426680   86.218900
  C     35.621300    3.502360   86.449000
  H     35.217700    1.533610   86.203300
  C     32.304600    1.907210   85.549000
  H     31.360200    2.534930   85.624500
  H     32.098500    1.088750   86.193000
  C     32.423900    1.557020   84.047800
  H     33.365500    0.910927   83.851400
  H     31.598100    0.942483   83.735300
  C     32.177300    2.723060   83.122800
  H     32.125900    2.397690   82.085600
  H     31.312800    3.374340   83.286500
  H     32.974300    3.362940   83.267000
  S     37.665200    2.307450   87.797800
  C     39.288500    2.767760   87.532700
  C     39.351400    3.980870   86.916000
  C     38.027500    4.483990   86.531600
  C     37.046600    3.541500   86.773700
  H     40.296700    4.349710   86.752300
  C     37.952700    5.740560   85.740100
  H     36.997400    5.697290   85.203200
  H     38.708700    5.653410   85.034500
  C     37.907900    7.046990   86.392400
  H     38.872100    7.024510   86.958100
  H     37.079500    7.041370   87.086600
  C     38.038200    8.176090   85.302200
  H     38.107600    9.086000   85.862400
  H     37.205200    8.333640   84.631300
  H     38.990700    8.221470   84.826200
  H     32.349900    4.632060   85.910200
  H     40.172400    2.178280   87.777000

 Total Charge           Charge          ....    0
 Multiplicity           Mult            ....    1
 Number of Electrons    NEL             ....  134
 Basis Dimension        Dim             ....  322

ORBITAL ENERGIES
----------------

  NO   OCC          E(Eh)            E(eV)
   0   2.0000     -88.967087     -2420.9175
   1   2.0000     -88.959971     -2420.7239
   2   2.0000     -10.333410      -281.1864
   3   2.0000     -10.323864      -280.9266
   4   2.0000     -10.310445      -280.5615
   5   2.0000     -10.309569      -280.5376
   6   2.0000     -10.301273      -280.3119
   7   2.0000     -10.299448      -280.2622
   8   2.0000     -10.294337      -280.1232
   9   2.0000     -10.290349      -280.0146
  10   2.0000     -10.289192      -279.9831
  11   2.0000     -10.286224      -279.9024
  12   2.0000     -10.284735      -279.8619
  13   2.0000     -10.274712      -279.5891
  14   2.0000     -10.270016      -279.4614
  15   2.0000     -10.267436      -279.3911
  16   2.0000      -8.081098      -219.8979
  17   2.0000      -8.076304      -219.7674
  18   2.0000      -6.039472      -164.3424
  19   2.0000      -6.035906      -164.2454
  20   2.0000      -6.034835      -164.2162
  21   2.0000      -6.031865      -164.1354
  22   2.0000      -6.030609      -164.1012
  23   2.0000      -6.026931      -164.0011
  24   2.0000      -1.011207       -27.5163
  25   2.0000      -0.989053       -26.9135
  26   2.0000      -0.919711       -25.0266
  27   2.0000      -0.915810       -24.9205
  28   2.0000      -0.871811       -23.7232
  29   2.0000      -0.854517       -23.2526
  30   2.0000      -0.845964       -23.0199
  31   2.0000      -0.821240       -22.3471
  32   2.0000      -0.787764       -21.4362
  33   2.0000      -0.775719       -21.1084
  34   2.0000      -0.712817       -19.3967
  35   2.0000      -0.698008       -18.9938
  36   2.0000      -0.688799       -18.7432
  37   2.0000      -0.670107       -18.2345
  38   2.0000      -0.646953       -17.6045
  39   2.0000      -0.622756       -16.9461
  40   2.0000      -0.596719       -16.2376
  41   2.0000      -0.577182       -15.7059
  42   2.0000      -0.575015       -15.6470
  43   2.0000      -0.553647       -15.0655
  44   2.0000      -0.546393       -14.8681
  45   2.0000      -0.520145       -14.1539
  46   2.0000      -0.518032       -14.0964
  47   2.0000      -0.513867       -13.9830
  48   2.0000      -0.511134       -13.9087
  49   2.0000      -0.497389       -13.5346
  50   2.0000      -0.491357       -13.3705
  51   2.0000      -0.483088       -13.1455
  52   2.0000      -0.474765       -12.9190
  53   2.0000      -0.467610       -12.7243
  54   2.0000      -0.460758       -12.5379
  55   2.0000      -0.447623       -12.1804
  56   2.0000      -0.444757       -12.1024
  57   2.0000      -0.441542       -12.0150
  58   2.0000      -0.438894       -11.9429
  59   2.0000      -0.425229       -11.5711
  60   2.0000      -0.413875       -11.2621
  61   2.0000      -0.405627       -11.0377
  62   2.0000      -0.402813       -10.9611
  63   2.0000      -0.353419        -9.6170
  64   2.0000      -0.334266        -9.0958
  65   2.0000      -0.324667        -8.8346
  66   2.0000      -0.289679        -7.8826
  67   0.0000       0.024014         0.6535
  68   0.0000       0.085313         2.3215
  69   0.0000       0.100450         2.7334
  70   0.0000       0.123476         3.3599
  71   0.0000       0.126382         3.4390

MULLIKEN ATOMIC CHARGES
-----------------------
   0 S :    0.093204
   1 C :   -0.102939
   2 C :   -0.060476
   3 C :    0.062425
   4 C :   -0.143667
   5 H :   -0.047835
   6 C :    0.070128
   7 H :    0.017672
   8 H :    0.027798
   9 C :   -0.087390
  10 H :    0.050583
  11 H :    0.023655
  12 C :   -0.032409
  13 H :    0.035596
  14 H :    0.023110
  15 H :    0.021252
  16 S :    0.105006
  17 C :   -0.093550
  18 C :   -0.008623
  19 C :   -0.033361
  20 C :   -0.127048
  21 H :   -0.014907
  22 C :    0.053562
  23 H :    0.006654
  24 H :    0.005341
  25 C :   -0.050409
  26 H :    0.016467
  27 H :    0.027509
  28 C :   -0.014292
  29 H :    0.014643
  30 H :    0.041803
  31 H :    0.024134
  32 H :    0.036997
  33 H :    0.059368
Sum of atomic charges:   -0.0000000

LOEWDIN ATOMIC CHARGES
----------------------
   0 S :    0.397338
   1 C :   -0.185502
   2 C :   -0.061605
   3 C :   -0.044644
   4 C :   -0.165021
   5 H :    0.007097
   6 C :   -0.029638
   7 H :    0.036946
   8 H :    0.026175
   9 C :   -0.043785
  10 H :    0.035427
  11 H :    0.021435
  12 C :   -0.063666
  13 H :    0.029571
  14 H :    0.027591
  15 H :    0.013705
  16 S :    0.425095
  17 C :   -0.195989
  18 C :   -0.062674
  19 C :   -0.053227
  20 C :   -0.209481
  21 H :    0.017392
  22 C :   -0.047096
  23 H :    0.018281
  24 H :    0.021060
  25 C :   -0.031962
  26 H :    0.026097
  27 H :    0.020504
  28 C :   -0.061029
  29 H :    0.026346
  30 H :    0.026598
  31 H :    0.026471
  32 H :    0.018348
  33 H :    0.033843

  Mayer bond orders larger than 0.100000
B(  0-S ,  1-C ) :   1.1394 B(  0-S ,  4-C ) :   1.1315 B(  1-C ,  2-C ) :   1.6281
B(  1-C , 32-H ) :   0.9624 B(  2-C ,  3-C ) :   1.1980 B(  2-C ,  6-C ) :   1.0423
B(  3-C ,  4-C ) :   1.5845 B(  3-C ,  5-H ) :   1.0204 B(  4-C , 20-C ) :   1.0644
B(  6-C ,  7-H ) :   0.9378 B(  6-C ,  8-H ) :   0.9374 B(  6-C ,  9-C ) :   1.0667
B(  9-C , 10-H ) :   0.9562 B(  9-C , 11-H ) :   0.9571 B(  9-C , 12-C ) :   1.0677
B( 12-C , 13-H ) :   0.9724 B( 12-C , 14-H ) :   0.9692 B( 12-C , 15-H ) :   0.9737
B( 16-S , 17-C ) :   1.1491 B( 16-S , 20-C ) :   1.1404 B( 17-C , 18-C ) :   1.6314
B( 17-C , 33-H ) :   0.9659 B( 18-C , 19-C ) :   1.1944 B( 18-C , 21-H ) :   1.0083
B( 19-C , 20-C ) :   1.5784 B( 19-C , 22-C ) :   1.0520 B( 22-C , 23-H ) :   0.9201
B( 22-C , 24-H ) :   0.9354 B( 22-C , 25-C ) :   1.0675 B( 25-C , 26-H ) :   0.9525
B( 25-C , 27-H ) :   0.9521 B( 25-C , 28-C ) :   1.0784 B( 28-C , 29-H ) :   0.9700
B( 28-C , 30-H ) :   0.9773 B( 28-C , 31-H ) :   0.9702

Dispersion correction           -0.014391817
FINAL SINGLE POINT ENERGY     -1339.847114971525

DIPOLE MOMENT
-------------
                                X             Y             Z
Electronic contribution:      6.84318      -7.95598      15.45498
Nuclear contribution   :     -6.86637       7.95940     -15.77147
                        -----------------------------------------
Total Dipole Moment    :     -0.02319       0.00341      -0.31648
                        -----------------------------------------
Magnitude (a.u.)       :      0.31735
Magnitude (Debye)      :      0.80664

Rotational constants in cm-1:     0.019924     0.008555     0.006663
Rotational constants in MHz :   597.307432   256.466981   199.763913

                             ****ORCA TERMINATED NORMALLY****
TOTAL RUN TIME: 0 days 0 hours 0 minutes 30 seconds 307 msec
