                         Program Version 4.2.1 -  RELEASE  -
|  1> ! wB97X-D3 SP def2-SVP
|  2> %pal
|  3> nprocs 16
|  4> end
|  5>
|  6> * xyz 0 1
|  7> S 	 48.2528 	 22.8771 	 46.1582
|  8> C 	 49.8183 	 22.6018 	 45.4914
|  9> C 	 50.5462 	 23.7899 	 45.4799
| 10> C 	 49.7329 	 24.9039 	 45.8684
| 11> C 	 48.4254 	 24.5761 	 46.2701
| 12> H 	 50.0819 	 25.9031 	 46.048
| 13> C 	 52.0185 	 23.8127 	 45.1834
| 14> H 	 52.3507 	 22.8087 	 45.3478
| 15> H 	 52.4689 	 24.514 	 45.9096
| 16> C 	 52.4227 	 24.0807 	 43.7099
| 17> H 	 51.8357 	 23.4103 	 43.0581
| 18> H 	 52.0699 	 25.0997 	 43.5495
| 19> C 	 53.9326 	 24.0069 	 43.5235
| 20> H 	 54.53 	 24.8205 	 44.0182
| 21> H 	 54.428 	 23.1276 	 44.0031
| 22> H 	 54.1497 	 24.0524 	 42.4766
| 23> S 	 47.0472 	 26.8568 	 45.7493
| 24> C 	 45.7961 	 27.4496 	 46.7891
| 25> C 	 45.6258 	 26.5911 	 47.8482
| 26> C 	 46.5948 	 25.507 	 47.9169
| 27> C 	 47.4514 	 25.4973 	 46.8017
| 28> H 	 44.8565 	 26.6722 	 48.6259
| 29> C 	 46.5039 	 24.5081 	 49.021
| 30> H 	 46.8179 	 24.9286 	 49.9513
| 31> H 	 47.2773 	 23.7326 	 48.8984
| 32> C 	 45.0466 	 23.8641 	 49.0524
| 33> H 	 44.755 	 23.279 	 48.1552
| 34> H 	 44.2305 	 24.6472 	 49.0675
| 35> C 	 44.9504 	 22.9882 	 50.3894
| 36> H 	 44.3786 	 22.1021 	 50.1681
| 37> H 	 44.2994 	 23.5053 	 51.1074
| 38> H 	 45.9052 	 22.7102 	 50.9816
| 39> H 	 50.2692 	 21.6463 	 45.248
| 40> H 	 45.1073 	 28.2939 	 46.6014
| 41> *
| 42>
| 43>                          ****END OF INPUT****

CARTESIAN COORDINATES (ANGSTROEM)
---------------------------------
  S     48.252800   22.877100   46.158200
  C     49.818300   22.601800   45.491400
  C     50.546200   23.789900   45.479900
  C     49.732900   24.903900   45.868400
  C     48.425400   24.576100   46.270100
  H     50.081900   25.903100   46.048000
  C     52.018500   23.812700   45.183400
  H     52.350700   22.808700   45.347800
  H     52.468900   24.514000   45.909600
  C     52.422700   24.080700   43.709900
  H     51.835700   23.410300   43.058100
  H     52.069900   25.099700   43.549500
  C     53.932600   24.006900   43.523500
  H     54.530000   24.820500   44.018200
  H     54.428000   23.127600   44.003100
  H     54.149700   24.052400   42.476600
  S     47.047200   26.856800   45.749300
  C     45.796100   27.449600   46.789100
  C     45.625800   26.591100   47.848200
  C     46.594800   25.507000   47.916900
  C     47.451400   25.497300   46.801700
  H     44.856500   26.672200   48.625900
  C     46.503900   24.508100   49.021000
  H     46.817900   24.928600   49.951300
  H     47.277300   23.732600   48.898400
  C     45.046600   23.864100   49.052400
  H     44.755000   23.279000   48.155200
  H     44.230500   24.647200   49.067500
  C     44.950400   22.988200   50.389400
  H     44.378600   22.102100   50.168100
  H     44.299400   23.505300   51.107400
  H     45.905200   22.710200   50.981600
  H     50.269200   21.646300   45.248000
  H     45.107300   28.293900   46.601400

 Total Charge           Charge          ....    0
 Multiplicity           Mult            ....    1
 Number of Electrons    NEL             ....  134
 Basis Dimension        Dim             ....  322

ORBITAL ENERGIES
----------------

  NO   OCC          E(Eh)            E(eV)
   0   2.0000     -88.968162     -2420.9468
   1   2.0000     -88.963278     -2420.8139
   2   2.0000     -10.328929      -281.0645
   3   2.0000     -10.328439      -281.0511
   4   2.0000     -10.318632      -280.7842
   5   2.0000     -10.312328      -280.6127
   6   2.0000     -10.304215      -280.3919
   7   2.0000     -10.303332      -280.3679
   8   2.0000     -10.299648      -280.2677
   9   2.0000     -10.294164      -280.1184
  10   2.0000     -10.293756      -280.1073
  11   2.0000     -10.292822      -280.0819
  12   2.0000     -10.289251      -279.9848
  13   2.0000     -10.288780      -279.9719
  14   2.0000     -10.285886      -279.8932
  15   2.0000     -10.282494      -279.8009
  16   2.0000      -8.083274      -219.9571
  17   2.0000      -8.078016      -219.8140
  18   2.0000      -6.041655      -164.4018
  19   2.0000      -6.037518      -164.2892
  20   2.0000      -6.036654      -164.2657
  21   2.0000      -6.034350      -164.2030
  22   2.0000      -6.032393      -164.1498
  23   2.0000      -6.028741      -164.0504
  24   2.0000      -1.008256       -27.4360
  25   2.0000      -0.984941       -26.8016
  26   2.0000      -0.912844       -24.8398
  27   2.0000      -0.900529       -24.5046
  28   2.0000      -0.871536       -23.7157
  29   2.0000      -0.848559       -23.0905
  30   2.0000      -0.838973       -22.8296
  31   2.0000      -0.811960       -22.0946
  32   2.0000      -0.780010       -21.2251
  33   2.0000      -0.766732       -20.8638
  34   2.0000      -0.707349       -19.2479
  35   2.0000      -0.702629       -19.1195
  36   2.0000      -0.695552       -18.9269
  37   2.0000      -0.661234       -17.9931
  38   2.0000      -0.638777       -17.3820
  39   2.0000      -0.614891       -16.7320
  40   2.0000      -0.598171       -16.2771
  41   2.0000      -0.571810       -15.5597
  42   2.0000      -0.560117       -15.2415
  43   2.0000      -0.545200       -14.8357
  44   2.0000      -0.527834       -14.3631
  45   2.0000      -0.521072       -14.1791
  46   2.0000      -0.517502       -14.0819
  47   2.0000      -0.511510       -13.9189
  48   2.0000      -0.505337       -13.7509
  49   2.0000      -0.499120       -13.5817
  50   2.0000      -0.495741       -13.4898
  51   2.0000      -0.475271       -12.9328
  52   2.0000      -0.468448       -12.7471
  53   2.0000      -0.461809       -12.5665
  54   2.0000      -0.459702       -12.5091
  55   2.0000      -0.454011       -12.3543
  56   2.0000      -0.443953       -12.0806
  57   2.0000      -0.440184       -11.9780
  58   2.0000      -0.435834       -11.8597
  59   2.0000      -0.422214       -11.4890
  60   2.0000      -0.415965       -11.3190
  61   2.0000      -0.411879       -11.2078
  62   2.0000      -0.408618       -11.1191
  63   2.0000      -0.347449        -9.4546
  64   2.0000      -0.328506        -8.9391
  65   2.0000      -0.324607        -8.8330
  66   2.0000      -0.291329        -7.9275
  67   0.0000       0.031137         0.8473
  68   0.0000       0.073640         2.0038
  69   0.0000       0.106788         2.9058
  70   0.0000       0.119908         3.2629
  71   0.0000       0.136479         3.7138

MULLIKEN ATOMIC CHARGES
-----------------------
   0 S :    0.132028
   1 C :   -0.122981
   2 C :   -0.099168
   3 C :    0.025990
   4 C :   -0.152932
   5 H :    0.006699
   6 C :    0.056917
   7 H :    0.003386
   8 H :    0.037036
   9 C :   -0.057940
  10 H :    0.034740
  11 H :    0.027269
  12 C :   -0.046491
  13 H :    0.032219
  14 H :    0.028660
  15 H :    0.037477
  16 S :    0.106295
  17 C :   -0.085493
  18 C :   -0.052289
  19 C :   -0.049454
  20 C :   -0.158188
  21 H :    0.025286
  22 C :    0.088002
  23 H :    0.030661
  24 H :    0.020712
  25 C :   -0.117462
  26 H :    0.049049
  27 H :    0.037674
  28 C :   -0.075823
  29 H :    0.030772
  30 H :    0.030797
  31 H :    0.056887
  32 H :    0.048196
  33 H :    0.071468
Sum of atomic charges:    0.0000000

LOEWDIN ATOMIC CHARGES
----------------------
   0 S :    0.445712
   1 C :   -0.212048
   2 C :   -0.063806
   3 C :   -0.066632
   4 C :   -0.217154
   5 H :    0.025775
   6 C :   -0.031579
   7 H :    0.022752
   8 H :    0.035122
   9 C :   -0.037773
  10 H :    0.027950
  11 H :    0.024958
  12 C :   -0.073496
  13 H :    0.031913
  14 H :    0.027227
  15 H :    0.024612
  16 S :    0.412780
  17 C :   -0.198149
  18 C :   -0.075132
  19 C :   -0.057495
  20 C :   -0.196739
  21 H :    0.030058
  22 C :   -0.033916
  23 H :    0.030724
  24 H :    0.028165
  25 C :   -0.035749
  26 H :    0.030320
  27 H :    0.026156
  28 C :   -0.081953
  29 H :    0.022994
  30 H :    0.025591
  31 H :    0.037648
  32 H :    0.030119
  33 H :    0.041045

  Mayer bond orders larger than 0.100000
B(  0-S ,  1-C ) :   1.1613 B(  0-S ,  4-C ) :   1.1711 B(  1-C ,  2-C ) :   1.5652
B(  1-C , 32-H ) :   0.9677 B(  2-C ,  3-C ) :   1.2808 B(  2-C ,  6-C ) :   1.0306
B(  3-C ,  4-C ) :   1.5097 B(  3-C ,  5-H ) :   0.9969 B(  4-C , 20-C ) :   1.0518
B(  6-C ,  7-H ) :   0.9350 B(  6-C ,  8-H ) :   0.9420 B(  6-C ,  9-C ) :   1.0618
B(  9-C , 10-H ) :   0.9564 B(  9-C , 11-H ) :   0.9548 B(  9-C , 12-C ) :   1.0774
B( 12-C , 13-H ) :   0.9720 B( 12-C , 14-H ) :   0.9737 B( 12-C , 15-H ) :   0.9749
B( 16-S , 17-C ) :   1.1502 B( 16-S , 20-C ) :   1.1404 B( 17-C , 18-C ) :   1.6043
B( 17-C , 33-H ) :   0.9639 B( 18-C , 19-C ) :   1.2408 B( 18-C , 21-H ) :   0.9824
B( 19-C , 20-C ) :   1.5788 B( 19-C , 22-C ) :   1.0580 B( 22-C , 23-H ) :   0.9344
B( 22-C , 24-H ) :   0.9321 B( 22-C , 25-C ) :   1.0318 B( 25-C , 26-H ) :   0.9655
B( 25-C , 27-H ) :   0.9649 B( 25-C , 28-C ) :   1.0445 B( 28-C , 29-H ) :   0.9787
B( 28-C , 30-H ) :   0.9798 B( 28-C , 31-H ) :   0.9779

Dispersion correction           -0.013532307
FINAL SINGLE POINT ENERGY     -1339.878147002555

DIPOLE MOMENT
-------------
                                X             Y             Z
Electronic contribution:     -9.62500       7.45170      -5.59544
Nuclear contribution   :      9.74963      -7.55466       5.90275
                        -----------------------------------------
Total Dipole Moment    :      0.12463      -0.10297       0.30731
                        -----------------------------------------
Magnitude (a.u.)       :      0.34724
Magnitude (Debye)      :      0.88260

Rotational constants in cm-1:     0.024116     0.006852     0.005650
Rotational constants in MHz :   722.992876   205.409027   169.387398

                             ****ORCA TERMINATED NORMALLY****
TOTAL RUN TIME: 0 days 0 hours 0 minutes 31 seconds 787 msec
