                         Program Version 4.2.1 -  RELEASE  -
|  1> ! wB97X-D3 SP def2-SVP
|  2> %pal
|  3> nprocs 16
|  4> end
|  5>
|  6> * xyz 0 1
|  7> S 	 16.8524 	 12.1989 	 88.8456
|  8> C 	 18.267 	 12.295 	 87.8543
|  9> C 	 17.9467 	 12.2625 	 86.4855
| 10> C 	 16.5333 	 12.1984 	 86.2676
| 11> C 	 15.8062 	 12.1884 	 87.4504
| 12> H 	 16.1148 	 12.1887 	 85.2891
| 13> C 	 18.9524 	 12.4773 	 85.3786
| 14> H 	 18.4553 	 12.1222 	 84.4868
| 15> H 	 19.7892 	 11.7727 	 85.5051
| 16> C 	 19.49 	 13.9015 	 85.2371
| 17> H 	 19.6425 	 14.2646 	 86.2683
| 18> H 	 20.3446 	 13.9317 	 84.5798
| 19> C 	 18.4708 	 14.8317 	 84.623
| 20> H 	 17.6284 	 14.8724 	 85.2927
| 21> H 	 18.7787 	 15.8176 	 84.3893
| 22> H 	 18.1206 	 14.4302 	 83.6738
| 23> S 	 13.5679 	 13.7262 	 88.0206
| 24> C 	 11.9849 	 12.9287 	 88.1268
| 25> C 	 12.1223 	 11.6588 	 87.5588
| 26> C 	 13.44 	 11.2628 	 87.2972
| 27> C 	 14.3745 	 12.2224 	 87.6111
| 28> H 	 11.2934 	 10.9774 	 87.5346
| 29> C 	 13.8389 	 9.84496 	 86.8709
| 30> H 	 14.5697 	 9.91763 	 86.0744
| 31> H 	 12.9165 	 9.4039 	 86.4347
| 32> C 	 14.3394 	 8.91503 	 87.9726
| 33> H 	 15.2836 	 9.25833 	 88.4136
| 34> H 	 14.5994 	 7.93451 	 87.6152
| 35> C 	 13.298 	 8.64696 	 89.0203
| 36> H 	 13.6072 	 7.95083 	 89.7911
| 37> H 	 12.4556 	 8.0221 	 88.5904
| 38> H 	 12.9533 	 9.58425 	 89.4357
| 39> H 	 19.3124 	 12.4502 	 88.2049
| 40> H 	 11.0882 	 13.4151 	 88.6414
| 41> *
| 42>
| 43>                          ****END OF INPUT****

CARTESIAN COORDINATES (ANGSTROEM)
---------------------------------
  S     16.852400   12.198900   88.845600
  C     18.267000   12.295000   87.854300
  C     17.946700   12.262500   86.485500
  C     16.533300   12.198400   86.267600
  C     15.806200   12.188400   87.450400
  H     16.114800   12.188700   85.289100
  C     18.952400   12.477300   85.378600
  H     18.455300   12.122200   84.486800
  H     19.789200   11.772700   85.505100
  C     19.490000   13.901500   85.237100
  H     19.642500   14.264600   86.268300
  H     20.344600   13.931700   84.579800
  C     18.470800   14.831700   84.623000
  H     17.628400   14.872400   85.292700
  H     18.778700   15.817600   84.389300
  H     18.120600   14.430200   83.673800
  S     13.567900   13.726200   88.020600
  C     11.984900   12.928700   88.126800
  C     12.122300   11.658800   87.558800
  C     13.440000   11.262800   87.297200
  C     14.374500   12.222400   87.611100
  H     11.293400   10.977400   87.534600
  C     13.838900    9.844960   86.870900
  H     14.569700    9.917630   86.074400
  H     12.916500    9.403900   86.434700
  C     14.339400    8.915030   87.972600
  H     15.283600    9.258330   88.413600
  H     14.599400    7.934510   87.615200
  C     13.298000    8.646960   89.020300
  H     13.607200    7.950830   89.791100
  H     12.455600    8.022100   88.590400
  H     12.953300    9.584250   89.435700
  H     19.312400   12.450200   88.204900
  H     11.088200   13.415100   88.641400

 Total Charge           Charge          ....    0
 Multiplicity           Mult            ....    1
 Number of Electrons    NEL             ....  134
 Basis Dimension        Dim             ....  322

ORBITAL ENERGIES
----------------

  NO   OCC          E(Eh)            E(eV)
   0   2.0000     -88.971258     -2421.0310
   1   2.0000     -88.962816     -2420.8013
   2   2.0000     -10.328389      -281.0498
   3   2.0000     -10.328073      -281.0412
   4   2.0000     -10.320830      -280.8441
   5   2.0000     -10.318333      -280.7761
   6   2.0000     -10.301851      -280.3276
   7   2.0000     -10.298442      -280.2349
   8   2.0000     -10.296802      -280.1902
   9   2.0000     -10.294193      -280.1192
  10   2.0000     -10.290994      -280.0322
  11   2.0000     -10.290778      -280.0263
  12   2.0000     -10.285533      -279.8836
  13   2.0000     -10.277924      -279.6765
  14   2.0000     -10.271625      -279.5051
  15   2.0000     -10.266698      -279.3710
  16   2.0000      -8.085919      -220.0291
  17   2.0000      -8.077282      -219.7940
  18   2.0000      -6.044328      -164.4745
  19   2.0000      -6.040279      -164.3644
  20   2.0000      -6.036943      -164.2736
  21   2.0000      -6.035801      -164.2425
  22   2.0000      -6.031761      -164.1326
  23   2.0000      -6.028109      -164.0332
  24   2.0000      -1.008188       -27.4342
  25   2.0000      -0.984811       -26.7981
  26   2.0000      -0.916887       -24.9498
  27   2.0000      -0.908009       -24.7082
  28   2.0000      -0.868787       -23.6409
  29   2.0000      -0.852398       -23.1949
  30   2.0000      -0.846478       -23.0338
  31   2.0000      -0.812524       -22.1099
  32   2.0000      -0.782742       -21.2995
  33   2.0000      -0.769377       -20.9358
  34   2.0000      -0.704633       -19.1740
  35   2.0000      -0.701761       -19.0959
  36   2.0000      -0.686719       -18.6866
  37   2.0000      -0.662853       -18.0372
  38   2.0000      -0.641779       -17.4637
  39   2.0000      -0.615541       -16.7497
  40   2.0000      -0.589732       -16.0474
  41   2.0000      -0.578728       -15.7480
  42   2.0000      -0.557003       -15.1568
  43   2.0000      -0.554781       -15.0964
  44   2.0000      -0.552604       -15.0371
  45   2.0000      -0.540336       -14.7033
  46   2.0000      -0.511413       -13.9163
  47   2.0000      -0.508834       -13.8461
  48   2.0000      -0.504396       -13.7253
  49   2.0000      -0.492712       -13.4074
  50   2.0000      -0.484754       -13.1908
  51   2.0000      -0.478216       -13.0129
  52   2.0000      -0.470118       -12.7926
  53   2.0000      -0.465940       -12.6789
  54   2.0000      -0.460658       -12.5351
  55   2.0000      -0.448665       -12.2088
  56   2.0000      -0.441121       -12.0035
  57   2.0000      -0.434578       -11.8255
  58   2.0000      -0.427948       -11.6451
  59   2.0000      -0.425373       -11.5750
  60   2.0000      -0.422820       -11.5055
  61   2.0000      -0.418365       -11.3843
  62   2.0000      -0.404865       -11.0169
  63   2.0000      -0.340158        -9.2562
  64   2.0000      -0.330867        -9.0034
  65   2.0000      -0.323284        -8.7970
  66   2.0000      -0.304381        -8.2826
  67   0.0000       0.029081         0.7913
  68   0.0000       0.058410         1.5894
  69   0.0000       0.113801         3.0967
  70   0.0000       0.118785         3.2323
  71   0.0000       0.128410         3.4942

MULLIKEN ATOMIC CHARGES
-----------------------
   0 S :    0.138785
   1 C :   -0.129834
   2 C :   -0.141482
   3 C :    0.086132
   4 C :   -0.206192
   5 H :    0.004866
   6 C :    0.066916
   7 H :    0.007217
   8 H :    0.032247
   9 C :   -0.036601
  10 H :    0.031411
  11 H :    0.031304
  12 C :   -0.036233
  13 H :    0.030652
  14 H :    0.025226
  15 H :    0.009428
  16 S :    0.104595
  17 C :   -0.137677
  18 C :   -0.022131
  19 C :   -0.040842
  20 C :   -0.166586
  21 H :    0.014147
  22 C :    0.106711
  23 H :    0.023120
  24 H :    0.014140
  25 C :   -0.033640
  26 H :    0.027198
  27 H :    0.014449
  28 C :   -0.069695
  29 H :    0.027778
  30 H :    0.020976
  31 H :    0.043806
  32 H :    0.064298
  33 H :    0.095512
Sum of atomic charges:    0.0000000

LOEWDIN ATOMIC CHARGES
----------------------
   0 S :    0.433811
   1 C :   -0.212618
   2 C :   -0.067528
   3 C :   -0.049846
   4 C :   -0.203884
   5 H :    0.028978
   6 C :   -0.033939
   7 H :    0.024693
   8 H :    0.034431
   9 C :   -0.034720
  10 H :    0.028364
  11 H :    0.023305
  12 C :   -0.061053
  13 H :    0.024306
  14 H :    0.019675
  15 H :    0.019991
  16 S :    0.394893
  17 C :   -0.187814
  18 C :   -0.072858
  19 C :   -0.060147
  20 C :   -0.207050
  21 H :    0.027719
  22 C :   -0.025085
  23 H :    0.029325
  24 H :    0.030684
  25 C :   -0.041548
  26 H :    0.022639
  27 H :    0.022548
  28 C :   -0.069247
  29 H :    0.024932
  30 H :    0.027786
  31 H :    0.022853
  32 H :    0.037044
  33 H :    0.049359

  Mayer bond orders larger than 0.100000
B(  0-S ,  1-C ) :   1.1589 B(  0-S ,  4-C ) :   1.1683 B(  1-C ,  2-C ) :   1.5809
B(  1-C ,  4-C ) :   0.1018 B(  1-C , 32-H ) :   0.9619 B(  2-C ,  3-C ) :   1.2681
B(  2-C ,  6-C ) :   1.0286 B(  3-C ,  4-C ) :   1.5511 B(  3-C ,  5-H ) :   0.9980
B(  4-C , 20-C ) :   1.0273 B(  6-C ,  7-H ) :   0.9389 B(  6-C ,  8-H ) :   0.9348
B(  6-C ,  9-C ) :   1.0640 B(  9-C , 10-H ) :   0.9559 B(  9-C , 11-H ) :   0.9545
B(  9-C , 12-C ) :   1.0825 B( 12-C , 13-H ) :   0.9763 B( 12-C , 14-H ) :   0.9734
B( 12-C , 15-H ) :   0.9719 B( 16-S , 17-C ) :   1.1616 B( 16-S , 20-C ) :   1.1548
B( 17-C , 18-C ) :   1.5661 B( 17-C , 20-C ) :   0.1128 B( 17-C , 33-H ) :   0.9614
B( 18-C , 19-C ) :   1.2732 B( 18-C , 21-H ) :   0.9890 B( 19-C , 20-C ) :   1.5736
B( 19-C , 22-C ) :   1.0418 B( 22-C , 23-H ) :   0.9240 B( 22-C , 24-H ) :   0.9327
B( 22-C , 25-C ) :   1.0797 B( 25-C , 26-H ) :   0.9523 B( 25-C , 27-H ) :   0.9503
B( 25-C , 28-C ) :   1.0820 B( 28-C , 29-H ) :   0.9705 B( 28-C , 30-H ) :   0.9708
B( 28-C , 31-H ) :   0.9758

Dispersion correction           -0.015511909
FINAL SINGLE POINT ENERGY     -1339.889706592299

DIPOLE MOMENT
-------------
                                X             Y             Z
Electronic contribution:     -6.53223       8.72731      10.76782
Nuclear contribution   :      6.68377      -8.98391     -11.09036
                        -----------------------------------------
Total Dipole Moment    :      0.15154      -0.25660      -0.32254
                        -----------------------------------------
Magnitude (a.u.)       :      0.43914
Magnitude (Debye)      :      1.11620

Rotational constants in cm-1:     0.022204     0.008422     0.007358
Rotational constants in MHz :   665.665739   252.497226   220.600145

                             ****ORCA TERMINATED NORMALLY****
TOTAL RUN TIME: 0 days 0 hours 0 minutes 36 seconds 560 msec
