                         Program Version 4.2.1 -  RELEASE  -
|  1> ! wB97X-D3 SP def2-SVP
|  2> %pal
|  3> nprocs 16
|  4> end
|  5>
|  6> * xyz 0 1
|  7> S 	 24.5145 	 0.450894 	 84.7616
|  8> C 	 25.9976 	 1.40136 	 84.7846
|  9> C 	 26.0513 	 2.24669 	 83.6623
| 10> C 	 24.7717 	 2.37039 	 83.0544
| 11> C 	 23.8912 	 1.39431 	 83.4277
| 12> H 	 24.3936 	 3.10611 	 82.3223
| 13> C 	 27.2211 	 3.11355 	 83.1959
| 14> H 	 27.9865 	 3.13238 	 83.9486
| 15> H 	 26.8435 	 4.06726 	 83.0492
| 16> C 	 27.7226 	 2.80191 	 81.7373
| 17> H 	 28.2172 	 1.81273 	 81.6971
| 18> H 	 26.8872 	 2.90254 	 80.9975
| 19> C 	 28.6279 	 3.9926 	 81.253
| 20> H 	 29.5381 	 4.04973 	 81.8086
| 21> H 	 28.8635 	 3.83513 	 80.2063
| 22> H 	 28.1761 	 4.99789 	 81.4006
| 23> S 	 21.3324 	 1.07841 	 84.295
| 24> C 	 20.086 	 0.690581 	 83.0605
| 25> C 	 20.5387 	 0.82221 	 81.7706
| 26> C 	 21.9223 	 1.22516 	 81.7124
| 27> C 	 22.5055 	 1.30478 	 82.9776
| 28> H 	 19.8292 	 0.565659 	 80.9304
| 29> C 	 22.6693 	 1.39753 	 80.3308
| 30> H 	 23.7832 	 1.49296 	 80.2857
| 31> H 	 22.1662 	 2.29358 	 79.8987
| 32> C 	 22.3742 	 0.212721 	 79.3687
| 33> H 	 21.3062 	 0.0125842 	 79.3252
| 34> H 	 22.8616 	 -0.597154 	 79.7835
| 35> C 	 22.9905 	 0.421246 	 77.9121
| 36> H 	 22.7822 	 1.3926 	 77.4865
| 37> H 	 22.5245 	 -0.140321 	 77.1217
| 38> H 	 24.0621 	 0.251909 	 77.9706
| 39> H 	 26.8868 	 1.03943 	 85.2655
| 40> H 	 19.1532 	 0.157492 	 83.1069
| 41> *
| 42>
| 43>                          ****END OF INPUT****

CARTESIAN COORDINATES (ANGSTROEM)
---------------------------------
  S     24.514500    0.450894   84.761600
  C     25.997600    1.401360   84.784600
  C     26.051300    2.246690   83.662300
  C     24.771700    2.370390   83.054400
  C     23.891200    1.394310   83.427700
  H     24.393600    3.106110   82.322300
  C     27.221100    3.113550   83.195900
  H     27.986500    3.132380   83.948600
  H     26.843500    4.067260   83.049200
  C     27.722600    2.801910   81.737300
  H     28.217200    1.812730   81.697100
  H     26.887200    2.902540   80.997500
  C     28.627900    3.992600   81.253000
  H     29.538100    4.049730   81.808600
  H     28.863500    3.835130   80.206300
  H     28.176100    4.997890   81.400600
  S     21.332400    1.078410   84.295000
  C     20.086000    0.690581   83.060500
  C     20.538700    0.822210   81.770600
  C     21.922300    1.225160   81.712400
  C     22.505500    1.304780   82.977600
  H     19.829200    0.565659   80.930400
  C     22.669300    1.397530   80.330800
  H     23.783200    1.492960   80.285700
  H     22.166200    2.293580   79.898700
  C     22.374200    0.212721   79.368700
  H     21.306200    0.012584   79.325200
  H     22.861600   -0.597154   79.783500
  C     22.990500    0.421246   77.912100
  H     22.782200    1.392600   77.486500
  H     22.524500   -0.140321   77.121700
  H     24.062100    0.251909   77.970600
  H     26.886800    1.039430   85.265500
  H     19.153200    0.157492   83.106900

 Total Charge           Charge          ....    0
 Multiplicity           Mult            ....    1
 Number of Electrons    NEL             ....  134
 Basis Dimension        Dim             ....  322

ORBITAL ENERGIES
----------------

  NO   OCC          E(Eh)            E(eV)
   0   2.0000     -88.967611     -2420.9318
   1   2.0000     -88.966769     -2420.9089
   2   2.0000     -10.329943      -281.0920
   3   2.0000     -10.326547      -280.9996
   4   2.0000     -10.316054      -280.7141
   5   2.0000     -10.314179      -280.6631
   6   2.0000     -10.313625      -280.6480
   7   2.0000     -10.306112      -280.4436
   8   2.0000     -10.303872      -280.3826
   9   2.0000     -10.300800      -280.2990
  10   2.0000     -10.299566      -280.2654
  11   2.0000     -10.291684      -280.0510
  12   2.0000     -10.290135      -280.0088
  13   2.0000     -10.284535      -279.8564
  14   2.0000     -10.281453      -279.7726
  15   2.0000     -10.279531      -279.7203
  16   2.0000      -8.081213      -219.9010
  17   2.0000      -8.081003      -219.8953
  18   2.0000      -6.039778      -164.3507
  19   2.0000      -6.039739      -164.3497
  20   2.0000      -6.035816      -164.2429
  21   2.0000      -6.035795      -164.2423
  22   2.0000      -6.031902      -164.1364
  23   2.0000      -6.031419      -164.1232
  24   2.0000      -1.004168       -27.3248
  25   2.0000      -0.977851       -26.6087
  26   2.0000      -0.908880       -24.7319
  27   2.0000      -0.899729       -24.4829
  28   2.0000      -0.868598       -23.6357
  29   2.0000      -0.849061       -23.1041
  30   2.0000      -0.840032       -22.8584
  31   2.0000      -0.814307       -22.1584
  32   2.0000      -0.780855       -21.2481
  33   2.0000      -0.771697       -20.9989
  34   2.0000      -0.707675       -19.2568
  35   2.0000      -0.698832       -19.0162
  36   2.0000      -0.695853       -18.9351
  37   2.0000      -0.653841       -17.7919
  38   2.0000      -0.642942       -17.4953
  39   2.0000      -0.616422       -16.7737
  40   2.0000      -0.591567       -16.0973
  41   2.0000      -0.573576       -15.6078
  42   2.0000      -0.565246       -15.3811
  43   2.0000      -0.559089       -15.2136
  44   2.0000      -0.528648       -14.3853
  45   2.0000      -0.519162       -14.1271
  46   2.0000      -0.509614       -13.8673
  47   2.0000      -0.506336       -13.7781
  48   2.0000      -0.501477       -13.6459
  49   2.0000      -0.495458       -13.4821
  50   2.0000      -0.488377       -13.2894
  51   2.0000      -0.481193       -13.0939
  52   2.0000      -0.467497       -12.7212
  53   2.0000      -0.461328       -12.5534
  54   2.0000      -0.459105       -12.4929
  55   2.0000      -0.450633       -12.2623
  56   2.0000      -0.448095       -12.1933
  57   2.0000      -0.437799       -11.9131
  58   2.0000      -0.433105       -11.7854
  59   2.0000      -0.432561       -11.7706
  60   2.0000      -0.423601       -11.5268
  61   2.0000      -0.415570       -11.3082
  62   2.0000      -0.414839       -11.2883
  63   2.0000      -0.348608        -9.4861
  64   2.0000      -0.333228        -9.0676
  65   2.0000      -0.326160        -8.8753
  66   2.0000      -0.290464        -7.9039
  67   0.0000       0.024093         0.6556
  68   0.0000       0.071107         1.9349
  69   0.0000       0.104843         2.8529
  70   0.0000       0.115947         3.1551
  71   0.0000       0.128892         3.5073

MULLIKEN ATOMIC CHARGES
-----------------------
   0 S :    0.104542
   1 C :   -0.111356
   2 C :   -0.091219
   3 C :   -0.003414
   4 C :   -0.129126
   5 H :    0.032743
   6 C :    0.118021
   7 H :    0.018315
   8 H :    0.001511
   9 C :   -0.116748
  10 H :    0.048502
  11 H :    0.042432
  12 C :   -0.059802
  13 H :    0.024406
  14 H :    0.039234
  15 H :    0.035510
  16 S :    0.102546
  17 C :   -0.072278
  18 C :   -0.092703
  19 C :   -0.001976
  20 C :   -0.178725
  21 H :    0.051633
  22 C :    0.039792
  23 H :    0.043276
  24 H :    0.039235
  25 C :   -0.080306
  26 H :    0.027930
  27 H :    0.025740
  28 C :   -0.046334
  29 H :    0.016192
  30 H :    0.027829
  31 H :    0.041070
  32 H :    0.053715
  33 H :    0.049813
Sum of atomic charges:    0.0000000

LOEWDIN ATOMIC CHARGES
----------------------
   0 S :    0.400111
   1 C :   -0.203221
   2 C :   -0.052183
   3 C :   -0.066656
   4 C :   -0.194371
   5 H :    0.038486
   6 C :   -0.023916
   7 H :    0.026348
   8 H :    0.023279
   9 C :   -0.035275
  10 H :    0.027333
  11 H :    0.029731
  12 C :   -0.068291
  13 H :    0.018027
  14 H :    0.025900
  15 H :    0.028718
  16 S :    0.374754
  17 C :   -0.180230
  18 C :   -0.076263
  19 C :   -0.053946
  20 C :   -0.185391
  21 H :    0.044642
  22 C :   -0.031819
  23 H :    0.034161
  24 H :    0.034540
  25 C :   -0.032019
  26 H :    0.018255
  27 H :    0.016112
  28 C :   -0.069033
  29 H :    0.022068
  30 H :    0.026771
  31 H :    0.026797
  32 H :    0.024354
  33 H :    0.032227

  Mayer bond orders larger than 0.100000
B(  0-S ,  1-C ) :   1.1275 B(  0-S ,  4-C ) :   1.1479 B(  1-C ,  2-C ) :   1.6153
B(  1-C , 32-H ) :   0.9613 B(  2-C ,  3-C ) :   1.2146 B(  2-C ,  6-C ) :   1.0398
B(  3-C ,  4-C ) :   1.5962 B(  3-C ,  5-H ) :   0.9829 B(  4-C , 20-C ) :   1.0456
B(  6-C ,  7-H ) :   0.9463 B(  6-C ,  8-H ) :   0.9321 B(  6-C ,  9-C ) :   1.0516
B(  9-C , 10-H ) :   0.9588 B(  9-C , 11-H ) :   0.9587 B(  9-C , 12-C ) :   1.0695
B( 12-C , 13-H ) :   0.9762 B( 12-C , 14-H ) :   0.9769 B( 12-C , 15-H ) :   0.9743
B( 16-S , 17-C ) :   1.1165 B( 16-S , 20-C ) :   1.1200 B( 17-C , 18-C ) :   1.6896
B( 17-C , 33-H ) :   0.9571 B( 18-C , 19-C ) :   1.2039 B( 18-C , 21-H ) :   0.9700
B( 19-C , 20-C ) :   1.6345 B( 19-C , 22-C ) :   1.0143 B( 22-C , 23-H ) :   0.9525
B( 22-C , 24-H ) :   0.9345 B( 22-C , 25-C ) :   1.0564 B( 25-C , 26-H ) :   0.9576
B( 25-C , 27-H ) :   0.9633 B( 25-C , 28-C ) :   1.0722 B( 28-C , 29-H ) :   0.9754
B( 28-C , 30-H ) :   0.9751 B( 28-C , 31-H ) :   0.9786

Dispersion correction           -0.013439926
FINAL SINGLE POINT ENERGY     -1339.852922254205

DIPOLE MOMENT
-------------
                                X             Y             Z
Electronic contribution:    -15.69520      -7.58710      27.34480
Nuclear contribution   :     16.00876       7.69533     -28.12351
                        -----------------------------------------
Total Dipole Moment    :      0.31356       0.10823      -0.77871
                        -----------------------------------------
Magnitude (a.u.)       :      0.84642
Magnitude (Debye)      :      2.15142

Rotational constants in cm-1:     0.015756     0.009173     0.006287
Rotational constants in MHz :   472.345350   274.995276   188.480964

                             ****ORCA TERMINATED NORMALLY****
TOTAL RUN TIME: 0 days 0 hours 0 minutes 32 seconds 818 msec
