                         Program Version 4.2.1 -  RELEASE  -
|  1> ! wB97X-D3 SP def2-SVP
|  2> %pal
|  3> nprocs 16
|  4> end
|  5>
|  6> * xyz 0 1
|  7> S 	 -0.580453 	 -4.87465 	 76.782
|  8> C 	 -1.43067 	 -3.49235 	 77.5086
|  9> C 	 -0.548481 	 -2.47592 	 77.8689
| 10> C 	 0.810365 	 -2.93196 	 77.705
| 11> C 	 0.966452 	 -4.14721 	 77.0864
| 12> H 	 1.71869 	 -2.45813 	 78.0387
| 13> C 	 -0.784204 	 -1.1536 	 78.5651
| 14> H 	 -1.24466 	 -0.382277 	 77.9277
| 15> H 	 0.255142 	 -0.742184 	 78.7542
| 16> C 	 -1.57733 	 -1.12742 	 79.8487
| 17> H 	 -1.72162 	 -0.0636701 	 80.1136
| 18> H 	 -2.59532 	 -1.50935 	 79.5775
| 19> C 	 -0.892013 	 -1.96622 	 81.0083
| 20> H 	 -1.57536 	 -1.98347 	 81.8842
| 21> H 	 -0.492794 	 -2.92012 	 80.666
| 22> H 	 -0.0626792 	 -1.30718 	 81.2433
| 23> S 	 2.11004 	 -6.57784 	 76.688
| 24> C 	 3.71312 	 -6.79327 	 76.0493
| 25> C 	 4.30107 	 -5.54416 	 75.8758
| 26> C 	 3.47832 	 -4.40615 	 76.1885
| 27> C 	 2.2051 	 -4.78497 	 76.5911
| 28> H 	 5.30841 	 -5.50259 	 75.4619
| 29> C 	 3.83772 	 -2.94071 	 75.9846
| 30> H 	 2.97111 	 -2.26147 	 76.0835
| 31> H 	 3.99406 	 -2.9148 	 74.86
| 32> C 	 5.10625 	 -2.43937 	 76.6835
| 33> H 	 6.01724 	 -2.75385 	 76.072
| 34> H 	 5.28307 	 -2.99376 	 77.6042
| 35> C 	 5.19316 	 -0.969901 	 76.9152
| 36> H 	 4.45175 	 -0.787996 	 77.6306
| 37> H 	 4.99331 	 -0.467394 	 76.0131
| 38> H 	 6.11013 	 -0.634913 	 77.3145
| 39> H 	 -2.51852 	 -3.53727 	 77.593
| 40> H 	 4.15244 	 -7.63173 	 75.6786
| 41> *
| 42>
| 43>                          ****END OF INPUT****

CARTESIAN COORDINATES (ANGSTROEM)
---------------------------------
  S     -0.580453   -4.874650   76.782000
  C     -1.430670   -3.492350   77.508600
  C     -0.548481   -2.475920   77.868900
  C      0.810365   -2.931960   77.705000
  C      0.966452   -4.147210   77.086400
  H      1.718690   -2.458130   78.038700
  C     -0.784204   -1.153600   78.565100
  H     -1.244660   -0.382277   77.927700
  H      0.255142   -0.742184   78.754200
  C     -1.577330   -1.127420   79.848700
  H     -1.721620   -0.063670   80.113600
  H     -2.595320   -1.509350   79.577500
  C     -0.892013   -1.966220   81.008300
  H     -1.575360   -1.983470   81.884200
  H     -0.492794   -2.920120   80.666000
  H     -0.062679   -1.307180   81.243300
  S      2.110040   -6.577840   76.688000
  C      3.713120   -6.793270   76.049300
  C      4.301070   -5.544160   75.875800
  C      3.478320   -4.406150   76.188500
  C      2.205100   -4.784970   76.591100
  H      5.308410   -5.502590   75.461900
  C      3.837720   -2.940710   75.984600
  H      2.971110   -2.261470   76.083500
  H      3.994060   -2.914800   74.860000
  C      5.106250   -2.439370   76.683500
  H      6.017240   -2.753850   76.072000
  H      5.283070   -2.993760   77.604200
  C      5.193160   -0.969901   76.915200
  H      4.451750   -0.787996   77.630600
  H      4.993310   -0.467394   76.013100
  H      6.110130   -0.634913   77.314500
  H     -2.518520   -3.537270   77.593000
  H      4.152440   -7.631730   75.678600

 Total Charge           Charge          ....    0
 Multiplicity           Mult            ....    1
 Number of Electrons    NEL             ....  134
 Basis Dimension        Dim             ....  322

ORBITAL ENERGIES
----------------

  NO   OCC          E(Eh)            E(eV)
   0   2.0000     -88.966743     -2420.9082
   1   2.0000     -88.961654     -2420.7697
   2   2.0000     -10.333026      -281.1759
   3   2.0000     -10.330534      -281.1081
   4   2.0000     -10.322406      -280.8869
   5   2.0000     -10.313702      -280.6501
   6   2.0000     -10.310887      -280.5735
   7   2.0000     -10.309140      -280.5259
   8   2.0000     -10.299884      -280.2741
   9   2.0000     -10.297971      -280.2220
  10   2.0000     -10.296791      -280.1899
  11   2.0000     -10.293258      -280.0938
  12   2.0000     -10.293224      -280.0929
  13   2.0000     -10.288360      -279.9605
  14   2.0000     -10.281327      -279.7691
  15   2.0000     -10.266832      -279.3747
  16   2.0000      -8.081388      -219.9058
  17   2.0000      -8.076132      -219.7627
  18   2.0000      -6.039980      -164.3562
  19   2.0000      -6.035848      -164.2438
  20   2.0000      -6.034710      -164.2128
  21   2.0000      -6.032113      -164.1421
  22   2.0000      -6.030621      -164.1016
  23   2.0000      -6.026867      -163.9994
  24   2.0000      -1.004964       -27.3465
  25   2.0000      -0.981444       -26.7065
  26   2.0000      -0.913759       -24.8646
  27   2.0000      -0.911574       -24.8052
  28   2.0000      -0.867253       -23.5991
  29   2.0000      -0.857678       -23.3386
  30   2.0000      -0.842598       -22.9282
  31   2.0000      -0.812579       -22.1114
  32   2.0000      -0.784067       -21.3356
  33   2.0000      -0.777738       -21.1633
  34   2.0000      -0.706044       -19.2124
  35   2.0000      -0.702724       -19.1221
  36   2.0000      -0.696138       -18.9429
  37   2.0000      -0.661135       -17.9904
  38   2.0000      -0.643208       -17.5026
  39   2.0000      -0.611554       -16.6412
  40   2.0000      -0.597561       -16.2605
  41   2.0000      -0.572254       -15.5718
  42   2.0000      -0.566821       -15.4240
  43   2.0000      -0.548272       -14.9193
  44   2.0000      -0.541103       -14.7242
  45   2.0000      -0.536520       -14.5995
  46   2.0000      -0.516989       -14.0680
  47   2.0000      -0.514687       -14.0053
  48   2.0000      -0.509600       -13.8669
  49   2.0000      -0.500464       -13.6183
  50   2.0000      -0.489931       -13.3317
  51   2.0000      -0.481529       -13.1031
  52   2.0000      -0.472162       -12.8482
  53   2.0000      -0.470995       -12.8164
  54   2.0000      -0.456420       -12.4198
  55   2.0000      -0.451811       -12.2944
  56   2.0000      -0.443444       -12.0667
  57   2.0000      -0.439809       -11.9678
  58   2.0000      -0.435827       -11.8595
  59   2.0000      -0.423076       -11.5125
  60   2.0000      -0.419476       -11.4145
  61   2.0000      -0.409591       -11.1455
  62   2.0000      -0.401207       -10.9174
  63   2.0000      -0.353548        -9.6205
  64   2.0000      -0.333009        -9.0616
  65   2.0000      -0.328262        -8.9325
  66   2.0000      -0.289543        -7.8789
  67   0.0000       0.021413         0.5827
  68   0.0000       0.076454         2.0804
  69   0.0000       0.099309         2.7023
  70   0.0000       0.113800         3.0967
  71   0.0000       0.127610         3.4724

MULLIKEN ATOMIC CHARGES
-----------------------
   0 S :    0.102532
   1 C :   -0.141672
   2 C :   -0.043428
   3 C :   -0.021292
   4 C :   -0.104943
   5 H :    0.010487
   6 C :    0.031372
   7 H :    0.041514
   8 H :    0.020394
   9 C :   -0.094860
  10 H :    0.034579
  11 H :    0.028601
  12 C :   -0.049622
  13 H :    0.047430
  14 H :    0.057527
  15 H :    0.022697
  16 S :    0.072772
  17 C :   -0.029651
  18 C :   -0.059281
  19 C :   -0.024283
  20 C :   -0.139584
  21 H :    0.021591
  22 C :    0.018726
  23 H :    0.029236
  24 H :    0.046240
  25 C :   -0.104157
  26 H :    0.026815
  27 H :    0.030313
  28 C :    0.027284
  29 H :    0.013318
  30 H :    0.021506
  31 H :    0.023898
  32 H :    0.061052
  33 H :    0.022890
Sum of atomic charges:    0.0000000

LOEWDIN ATOMIC CHARGES
----------------------
   0 S :    0.401006
   1 C :   -0.184500
   2 C :   -0.061141
   3 C :   -0.071321
   4 C :   -0.198126
   5 H :    0.028018
   6 C :   -0.042178
   7 H :    0.036623
   8 H :    0.031418
   9 C :   -0.043808
  10 H :    0.027122
  11 H :    0.020458
  12 C :   -0.064727
  13 H :    0.031215
  14 H :    0.029875
  15 H :    0.024453
  16 S :    0.383042
  17 C :   -0.170686
  18 C :   -0.070741
  19 C :   -0.056889
  20 C :   -0.174258
  21 H :    0.031610
  22 C :   -0.040349
  23 H :    0.031094
  24 H :    0.044680
  25 C :   -0.048157
  26 H :    0.026394
  27 H :    0.022142
  28 C :   -0.049738
  29 H :    0.019419
  30 H :    0.021571
  31 H :    0.024243
  32 H :    0.028975
  33 H :    0.013260

  Mayer bond orders larger than 0.100000
B(  0-S ,  1-C ) :   1.1375 B(  0-S ,  4-C ) :   1.1511 B(  1-C ,  2-C ) :   1.5925
B(  1-C , 32-H ) :   0.9742 B(  2-C ,  3-C ) :   1.2257 B(  2-C ,  6-C ) :   1.0172
B(  3-C ,  4-C ) :   1.6014 B(  3-C ,  5-H ) :   0.9909 B(  4-C , 20-C ) :   1.0226
B(  6-C ,  7-H ) :   0.9309 B(  6-C ,  8-H ) :   0.9444 B(  6-C ,  9-C ) :   1.0845
B(  9-C , 10-H ) :   0.9562 B(  9-C , 11-H ) :   0.9535 B(  9-C , 12-C ) :   1.0522
B( 12-C , 13-H ) :   0.9762 B( 12-C , 14-H ) :   0.9793 B( 12-C , 15-H ) :   0.9760
B( 16-S , 17-C ) :   1.1484 B( 16-S , 20-C ) :   1.1246 B( 17-C , 18-C ) :   1.6173
B( 17-C , 20-C ) :   0.1011 B( 17-C , 33-H ) :   0.9782 B( 18-C , 19-C ) :   1.2247
B( 18-C , 21-H ) :   0.9872 B( 19-C , 20-C ) :   1.6092 B( 19-C , 22-C ) :   1.0319
B( 22-C , 23-H ) :   0.9515 B( 22-C , 24-H ) :   0.9269 B( 22-C , 25-C ) :   1.0322
B( 25-C , 26-H ) :   0.9467 B( 25-C , 27-H ) :   0.9665 B( 25-C , 28-C ) :   1.0966
B( 28-C , 29-H ) :   0.9743 B( 28-C , 30-H ) :   0.9701 B( 28-C , 31-H ) :   0.9692

Dispersion correction           -0.013977022
FINAL SINGLE POINT ENERGY     -1339.873057117221

DIPOLE MOMENT
-------------
                                X             Y             Z
Electronic contribution:     -7.18691     -25.25461     -10.74611
Nuclear contribution   :      7.48541      25.91143      10.78838
                        -----------------------------------------
Total Dipole Moment    :      0.29850       0.65682       0.04227
                        -----------------------------------------
Magnitude (a.u.)       :      0.72270
Magnitude (Debye)      :      1.83697

Rotational constants in cm-1:     0.017314     0.009033     0.006533
Rotational constants in MHz :   519.052228   270.811396   195.843061

                             ****ORCA TERMINATED NORMALLY****
TOTAL RUN TIME: 0 days 0 hours 0 minutes 34 seconds 214 msec
