                         Program Version 4.2.1 -  RELEASE  -
|  1> ! wB97X-D3 SP def2-SVP
|  2> %pal
|  3> nprocs 16
|  4> end
|  5>
|  6> * xyz 0 1
|  7> S 	 -43.3292 	 16.3105 	 80.919
|  8> C 	 -41.5827 	 16.1534 	 80.7921
|  9> C 	 -41.0964 	 17.4103 	 80.6851
| 10> C 	 -42.0063 	 18.496 	 80.8993
| 11> C 	 -43.2311 	 17.9936 	 81.3321
| 12> H 	 -41.7891 	 19.5667 	 81.0198
| 13> C 	 -39.6021 	 17.7083 	 80.4446
| 14> H 	 -39.0978 	 17.4117 	 81.3521
| 15> H 	 -39.5718 	 18.7831 	 80.2749
| 16> C 	 -38.9287 	 17.0207 	 79.256
| 17> H 	 -37.9 	 17.3742 	 79.1988
| 18> H 	 -38.8447 	 15.9645 	 79.4713
| 19> C 	 -39.5595 	 17.174 	 77.9187
| 20> H 	 -39.6661 	 18.259 	 77.8346
| 21> H 	 -38.8863 	 16.7394 	 77.0963
| 22> H 	 -40.6329 	 16.8513 	 77.712
| 23> S 	 -44.8753 	 20.2175 	 81.3438
| 24> C 	 -45.7903 	 20.5667 	 82.8343
| 25> C 	 -45.6374 	 19.6768 	 83.8847
| 26> C 	 -44.748 	 18.5824 	 83.4325
| 27> C 	 -44.2214 	 18.7594 	 82.151
| 28> H 	 -46.1583 	 19.7732 	 84.8312
| 29> C 	 -44.3941 	 17.476 	 84.4072
| 30> H 	 -44.1813 	 16.6154 	 83.7278
| 31> H 	 -45.2755 	 17.285 	 84.9951
| 32> C 	 -43.116 	 17.6026 	 85.1925
| 33> H 	 -42.2501 	 17.7312 	 84.5353
| 34> H 	 -42.8037 	 16.6456 	 85.5464
| 35> C 	 -43.0271 	 18.7674 	 86.1963
| 36> H 	 -42.8467 	 18.3541 	 87.1952
| 37> H 	 -43.99 	 19.2631 	 86.3616
| 38> H 	 -42.3144 	 19.613 	 85.8411
| 39> H 	 -41.012 	 15.2891 	 80.5648
| 40> H 	 -46.4374 	 21.433 	 82.8226
| 41> *
| 42>
| 43>                          ****END OF INPUT****

CARTESIAN COORDINATES (ANGSTROEM)
---------------------------------
  S    -43.329200   16.310500   80.919000
  C    -41.582700   16.153400   80.792100
  C    -41.096400   17.410300   80.685100
  C    -42.006300   18.496000   80.899300
  C    -43.231100   17.993600   81.332100
  H    -41.789100   19.566700   81.019800
  C    -39.602100   17.708300   80.444600
  H    -39.097800   17.411700   81.352100
  H    -39.571800   18.783100   80.274900
  C    -38.928700   17.020700   79.256000
  H    -37.900000   17.374200   79.198800
  H    -38.844700   15.964500   79.471300
  C    -39.559500   17.174000   77.918700
  H    -39.666100   18.259000   77.834600
  H    -38.886300   16.739400   77.096300
  H    -40.632900   16.851300   77.712000
  S    -44.875300   20.217500   81.343800
  C    -45.790300   20.566700   82.834300
  C    -45.637400   19.676800   83.884700
  C    -44.748000   18.582400   83.432500
  C    -44.221400   18.759400   82.151000
  H    -46.158300   19.773200   84.831200
  C    -44.394100   17.476000   84.407200
  H    -44.181300   16.615400   83.727800
  H    -45.275500   17.285000   84.995100
  C    -43.116000   17.602600   85.192500
  H    -42.250100   17.731200   84.535300
  H    -42.803700   16.645600   85.546400
  C    -43.027100   18.767400   86.196300
  H    -42.846700   18.354100   87.195200
  H    -43.990000   19.263100   86.361600
  H    -42.314400   19.613000   85.841100
  H    -41.012000   15.289100   80.564800
  H    -46.437400   21.433000   82.822600

 Total Charge           Charge          ....    0
 Multiplicity           Mult            ....    1
 Number of Electrons    NEL             ....  134
 Basis Dimension        Dim             ....  322

ORBITAL ENERGIES
----------------

  NO   OCC          E(Eh)            E(eV)
   0   2.0000     -88.966929     -2420.9132
   1   2.0000     -88.964886     -2420.8576
   2   2.0000     -10.334340      -281.2117
   3   2.0000     -10.334260      -281.2095
   4   2.0000     -10.323080      -280.9053
   5   2.0000     -10.311084      -280.5789
   6   2.0000     -10.308283      -280.5026
   7   2.0000     -10.303424      -280.3704
   8   2.0000     -10.299581      -280.2659
   9   2.0000     -10.297068      -280.1975
  10   2.0000     -10.289728      -279.9977
  11   2.0000     -10.286919      -279.9213
  12   2.0000     -10.283126      -279.8181
  13   2.0000     -10.282917      -279.8124
  14   2.0000     -10.281323      -279.7690
  15   2.0000     -10.278583      -279.6945
  16   2.0000      -8.080671      -219.8862
  17   2.0000      -8.079455      -219.8532
  18   2.0000      -6.039181      -164.3345
  19   2.0000      -6.038073      -164.3043
  20   2.0000      -6.035517      -164.2348
  21   2.0000      -6.034056      -164.1950
  22   2.0000      -6.031293      -164.1198
  23   2.0000      -6.030007      -164.0848
  24   2.0000      -1.005212       -27.3532
  25   2.0000      -0.978662       -26.6308
  26   2.0000      -0.913486       -24.8572
  27   2.0000      -0.906432       -24.6653
  28   2.0000      -0.866706       -23.5843
  29   2.0000      -0.848046       -23.0765
  30   2.0000      -0.841152       -22.8889
  31   2.0000      -0.814863       -22.1735
  32   2.0000      -0.781242       -21.2587
  33   2.0000      -0.771677       -20.9984
  34   2.0000      -0.710019       -19.3206
  35   2.0000      -0.699192       -19.0260
  36   2.0000      -0.685558       -18.6550
  37   2.0000      -0.665512       -18.1095
  38   2.0000      -0.639000       -17.3881
  39   2.0000      -0.602617       -16.3981
  40   2.0000      -0.586125       -15.9493
  41   2.0000      -0.576037       -15.6748
  42   2.0000      -0.558631       -15.2011
  43   2.0000      -0.544493       -14.8164
  44   2.0000      -0.544012       -14.8033
  45   2.0000      -0.540050       -14.6955
  46   2.0000      -0.522002       -14.2044
  47   2.0000      -0.514595       -14.0028
  48   2.0000      -0.503575       -13.7030
  49   2.0000      -0.493588       -13.4312
  50   2.0000      -0.486622       -13.2417
  51   2.0000      -0.480373       -13.0716
  52   2.0000      -0.477914       -13.0047
  53   2.0000      -0.466915       -12.7054
  54   2.0000      -0.456204       -12.4140
  55   2.0000      -0.444515       -12.0959
  56   2.0000      -0.439830       -11.9684
  57   2.0000      -0.432118       -11.7585
  58   2.0000      -0.429523       -11.6879
  59   2.0000      -0.418558       -11.3895
  60   2.0000      -0.414475       -11.2784
  61   2.0000      -0.403828       -10.9887
  62   2.0000      -0.402451       -10.9512
  63   2.0000      -0.342921        -9.3314
  64   2.0000      -0.331904        -9.0316
  65   2.0000      -0.325677        -8.8621
  66   2.0000      -0.295767        -8.0482
  67   0.0000       0.024804         0.6750
  68   0.0000       0.063877         1.7382
  69   0.0000       0.100187         2.7262
  70   0.0000       0.116808         3.1785
  71   0.0000       0.125323         3.4102

MULLIKEN ATOMIC CHARGES
-----------------------
   0 S :    0.107464
   1 C :   -0.099014
   2 C :   -0.129833
   3 C :    0.046471
   4 C :   -0.152376
   5 H :    0.030129
   6 C :    0.079964
   7 H :    0.042515
   8 H :    0.016431
   9 C :   -0.060318
  10 H :    0.030867
  11 H :    0.014285
  12 C :   -0.087536
  13 H :    0.018335
  14 H :    0.051373
  15 H :    0.050133
  16 S :    0.090437
  17 C :   -0.090534
  18 C :   -0.021837
  19 C :   -0.060353
  20 C :   -0.161044
  21 H :    0.034393
  22 C :    0.073149
  23 H :    0.022834
  24 H :    0.024580
  25 C :   -0.034798
  26 H :    0.018581
  27 H :    0.016306
  28 C :   -0.074706
  29 H :    0.035506
  30 H :    0.016003
  31 H :    0.059932
  32 H :    0.036301
  33 H :    0.056359
Sum of atomic charges:   -0.0000000

LOEWDIN ATOMIC CHARGES
----------------------
   0 S :    0.406306
   1 C :   -0.195248
   2 C :   -0.064477
   3 C :   -0.070095
   4 C :   -0.191640
   5 H :    0.035596
   6 C :   -0.026862
   7 H :    0.036018
   8 H :    0.025700
   9 C :   -0.049738
  10 H :    0.030172
  11 H :    0.015026
  12 C :   -0.080763
  13 H :    0.023006
  14 H :    0.037235
  15 H :    0.033934
  16 S :    0.372702
  17 C :   -0.161825
  18 C :   -0.069493
  19 C :   -0.044227
  20 C :   -0.187459
  21 H :    0.036984
  22 C :   -0.035759
  23 H :    0.033498
  24 H :    0.026615
  25 C :   -0.049575
  26 H :    0.031946
  27 H :    0.022891
  28 C :   -0.079676
  29 H :    0.029193
  30 H :    0.020427
  31 H :    0.042131
  32 H :    0.025515
  33 H :    0.021943

  Mayer bond orders larger than 0.100000
B(  0-S ,  1-C ) :   1.1032 B(  0-S ,  4-C ) :   1.1692 B(  1-C ,  2-C ) :   1.6275
B(  1-C , 32-H ) :   0.9804 B(  2-C ,  3-C ) :   1.2387 B(  2-C ,  6-C ) :   1.0038
B(  3-C ,  4-C ) :   1.5569 B(  3-C ,  5-H ) :   0.9850 B(  4-C , 20-C ) :   1.0125
B(  6-C ,  7-H ) :   0.9396 B(  6-C ,  8-H ) :   0.9436 B(  6-C ,  9-C ) :   1.0885
B(  9-C , 10-H ) :   0.9493 B(  9-C , 11-H ) :   0.9493 B(  9-C , 12-C ) :   1.0773
B( 12-C , 13-H ) :   0.9741 B( 12-C , 14-H ) :   0.9712 B( 12-C , 15-H ) :   0.9701
B( 16-S , 17-C ) :   1.1465 B( 16-S , 20-C ) :   1.1166 B( 17-C , 18-C ) :   1.6397
B( 17-C , 33-H ) :   0.9657 B( 18-C , 19-C ) :   1.1864 B( 18-C , 21-H ) :   0.9888
B( 19-C , 20-C ) :   1.6490 B( 19-C , 22-C ) :   1.0473 B( 22-C , 23-H ) :   0.9181
B( 22-C , 24-H ) :   0.9358 B( 22-C , 25-C ) :   1.0924 B( 25-C , 26-H ) :   0.9510
B( 25-C , 27-H ) :   0.9570 B( 25-C , 28-C ) :   1.0427 B( 28-C , 29-H ) :   0.9747
B( 28-C , 30-H ) :   0.9813 B( 28-C , 31-H ) :   0.9778

Dispersion correction           -0.015121612
FINAL SINGLE POINT ENERGY     -1339.852149037290

DIPOLE MOMENT
-------------
                                X             Y             Z
Electronic contribution:    -18.04212       3.22784      -6.11611
Nuclear contribution   :     18.43636      -3.18466       6.45513
                        -----------------------------------------
Total Dipole Moment    :      0.39423       0.04318       0.33902
                        -----------------------------------------
Magnitude (a.u.)       :      0.52175
Magnitude (Debye)      :      1.32618

Rotational constants in cm-1:     0.022113     0.007947     0.006975
Rotational constants in MHz :   662.937370   238.244248   209.111237

                             ****ORCA TERMINATED NORMALLY****
TOTAL RUN TIME: 0 days 0 hours 0 minutes 30 seconds 922 msec
