                         Program Version 4.2.1 -  RELEASE  -
|  1> ! wB97X-D3 SP def2-SVP
|  2> %pal
|  3> nprocs 16
|  4> end
|  5>
|  6> * xyz 0 1
|  7> S 	 -35.7497 	 44.2128 	 96.3036
|  8> C 	 -36.5077 	 45.6846 	 96.9744
|  9> C 	 -37.3 	 45.3813 	 98.0843
| 10> C 	 -37.563 	 43.9872 	 98.1742
| 11> C 	 -36.8067 	 43.2205 	 97.3179
| 12> H 	 -38.1694 	 43.4298 	 98.8904
| 13> C 	 -37.9512 	 46.3349 	 99.1071
| 14> H 	 -37.4067 	 47.2031 	 99.0182
| 15> H 	 -37.7346 	 46.0752 	 100.112
| 16> C 	 -39.4752 	 46.6029 	 98.8936
| 17> H 	 -40.1187 	 45.7466 	 99.0711
| 18> H 	 -39.799 	 47.3661 	 99.6538
| 19> C 	 -39.809 	 47.0876 	 97.4378
| 20> H 	 -39.2057 	 48.0137 	 97.3196
| 21> H 	 -39.4977 	 46.4726 	 96.6615
| 22> H 	 -40.7982 	 47.4646 	 97.2197
| 23> S 	 -35.4632 	 41.079 	 98.2435
| 24> C 	 -35.7284 	 39.5577 	 97.5735
| 25> C 	 -36.3186 	 39.6745 	 96.3668
| 26> C 	 -36.9722 	 40.9222 	 96.2186
| 27> C 	 -36.6255 	 41.7861 	 97.2295
| 28> H 	 -36.3939 	 38.8475 	 95.6296
| 29> C 	 -37.8596 	 41.1645 	 94.9665
| 30> H 	 -37.2776 	 41.7996 	 94.2409
| 31> H 	 -38.721 	 41.7165 	 95.3441
| 32> C 	 -38.4382 	 40.0439 	 94.1039
| 33> H 	 -38.9421 	 39.2515 	 94.6399
| 34> H 	 -37.6042 	 39.5508 	 93.697
| 35> C 	 -39.1628 	 40.5844 	 92.827
| 36> H 	 -39.4123 	 39.8525 	 92.136
| 37> H 	 -38.6546 	 41.366 	 92.3149
| 38> H 	 -40.1624 	 40.9011 	 93.1786
| 39> H 	 -36.1607 	 46.6974 	 96.8315
| 40> H 	 -35.2843 	 38.6739 	 98.0146
| 41> *
| 42>
| 43>                          ****END OF INPUT****

CARTESIAN COORDINATES (ANGSTROEM)
---------------------------------
  S    -35.749700   44.212800   96.303600
  C    -36.507700   45.684600   96.974400
  C    -37.300000   45.381300   98.084300
  C    -37.563000   43.987200   98.174200
  C    -36.806700   43.220500   97.317900
  H    -38.169400   43.429800   98.890400
  C    -37.951200   46.334900   99.107100
  H    -37.406700   47.203100   99.018200
  H    -37.734600   46.075200  100.112000
  C    -39.475200   46.602900   98.893600
  H    -40.118700   45.746600   99.071100
  H    -39.799000   47.366100   99.653800
  C    -39.809000   47.087600   97.437800
  H    -39.205700   48.013700   97.319600
  H    -39.497700   46.472600   96.661500
  H    -40.798200   47.464600   97.219700
  S    -35.463200   41.079000   98.243500
  C    -35.728400   39.557700   97.573500
  C    -36.318600   39.674500   96.366800
  C    -36.972200   40.922200   96.218600
  C    -36.625500   41.786100   97.229500
  H    -36.393900   38.847500   95.629600
  C    -37.859600   41.164500   94.966500
  H    -37.277600   41.799600   94.240900
  H    -38.721000   41.716500   95.344100
  C    -38.438200   40.043900   94.103900
  H    -38.942100   39.251500   94.639900
  H    -37.604200   39.550800   93.697000
  C    -39.162800   40.584400   92.827000
  H    -39.412300   39.852500   92.136000
  H    -38.654600   41.366000   92.314900
  H    -40.162400   40.901100   93.178600
  H    -36.160700   46.697400   96.831500
  H    -35.284300   38.673900   98.014600

 Total Charge           Charge          ....    0
 Multiplicity           Mult            ....    1
 Number of Electrons    NEL             ....  134
 Basis Dimension        Dim             ....  322

ORBITAL ENERGIES
----------------

  NO   OCC          E(Eh)            E(eV)
   0   2.0000     -88.964444     -2420.8456
   1   2.0000     -88.960505     -2420.7384
   2   2.0000     -10.324853      -280.9535
   3   2.0000     -10.316460      -280.7251
   4   2.0000     -10.314461      -280.6708
   5   2.0000     -10.307856      -280.4910
   6   2.0000     -10.303809      -280.3809
   7   2.0000     -10.300621      -280.2942
   8   2.0000     -10.295272      -280.1486
   9   2.0000     -10.293950      -280.1126
  10   2.0000     -10.291354      -280.0420
  11   2.0000     -10.288555      -279.9658
  12   2.0000     -10.288138      -279.9545
  13   2.0000     -10.283262      -279.8218
  14   2.0000     -10.275062      -279.5987
  15   2.0000     -10.270346      -279.4703
  16   2.0000      -8.078281      -219.8212
  17   2.0000      -8.077956      -219.8124
  18   2.0000      -6.036855      -164.2712
  19   2.0000      -6.036166      -164.2524
  20   2.0000      -6.033005      -164.1664
  21   2.0000      -6.032234      -164.1454
  22   2.0000      -6.028920      -164.0552
  23   2.0000      -6.028701      -164.0493
  24   2.0000      -1.019223       -27.7345
  25   2.0000      -0.984068       -26.7779
  26   2.0000      -0.906892       -24.6778
  27   2.0000      -0.905436       -24.6382
  28   2.0000      -0.867472       -23.6051
  29   2.0000      -0.852349       -23.1936
  30   2.0000      -0.840414       -22.8688
  31   2.0000      -0.812774       -22.1167
  32   2.0000      -0.786360       -21.3980
  33   2.0000      -0.775967       -21.1151
  34   2.0000      -0.709887       -19.3170
  35   2.0000      -0.704500       -19.1704
  36   2.0000      -0.693222       -18.8635
  37   2.0000      -0.655885       -17.8475
  38   2.0000      -0.640713       -17.4347
  39   2.0000      -0.615796       -16.7567
  40   2.0000      -0.603590       -16.4245
  41   2.0000      -0.571325       -15.5465
  42   2.0000      -0.563738       -15.3401
  43   2.0000      -0.545220       -14.8362
  44   2.0000      -0.537160       -14.6169
  45   2.0000      -0.523543       -14.2463
  46   2.0000      -0.516406       -14.0521
  47   2.0000      -0.508446       -13.8355
  48   2.0000      -0.504353       -13.7242
  49   2.0000      -0.494898       -13.4669
  50   2.0000      -0.486225       -13.2308
  51   2.0000      -0.475838       -12.9482
  52   2.0000      -0.469383       -12.7726
  53   2.0000      -0.460640       -12.5347
  54   2.0000      -0.457703       -12.4547
  55   2.0000      -0.456071       -12.4103
  56   2.0000      -0.447657       -12.1814
  57   2.0000      -0.439831       -11.9684
  58   2.0000      -0.438599       -11.9349
  59   2.0000      -0.426856       -11.6154
  60   2.0000      -0.423632       -11.5276
  61   2.0000      -0.412769       -11.2320
  62   2.0000      -0.402264       -10.9462
  63   2.0000      -0.334764        -9.1094
  64   2.0000      -0.327348        -8.9076
  65   2.0000      -0.315699        -8.5906
  66   2.0000      -0.313477        -8.5301
  67   0.0000       0.039379         1.0716
  68   0.0000       0.059054         1.6070
  69   0.0000       0.108081         2.9410
  70   0.0000       0.117845         3.2067
  71   0.0000       0.136852         3.7239

MULLIKEN ATOMIC CHARGES
-----------------------
   0 S :    0.107279
   1 C :   -0.101327
   2 C :   -0.134539
   3 C :    0.053068
   4 C :   -0.180164
   5 H :    0.015342
   6 C :    0.138057
   7 H :   -0.011641
   8 H :    0.023572
   9 C :   -0.083896
  10 H :    0.035197
  11 H :    0.039712
  12 C :   -0.049121
  13 H :    0.010009
  14 H :    0.038656
  15 H :    0.030757
  16 S :    0.129336
  17 C :   -0.086452
  18 C :   -0.049027
  19 C :   -0.028719
  20 C :   -0.182073
  21 H :    0.029632
  22 C :    0.053243
  23 H :    0.043249
  24 H :    0.032783
  25 C :   -0.074883
  26 H :    0.030262
  27 H :    0.011287
  28 C :   -0.016256
  29 H :    0.016745
  30 H :    0.032642
  31 H :    0.026445
  32 H :    0.045350
  33 H :    0.055473
Sum of atomic charges:    0.0000000

LOEWDIN ATOMIC CHARGES
----------------------
   0 S :    0.384103
   1 C :   -0.190962
   2 C :   -0.056174
   3 C :   -0.059914
   4 C :   -0.185378
   5 H :    0.036128
   6 C :   -0.021323
   7 H :    0.018138
   8 H :    0.030902
   9 C :   -0.035158
  10 H :    0.019879
  11 H :    0.031090
  12 C :   -0.067735
  13 H :    0.025633
  14 H :    0.017453
  15 H :    0.025131
  16 S :    0.457386
  17 C :   -0.197953
  18 C :   -0.079481
  19 C :   -0.053416
  20 C :   -0.237803
  21 H :    0.035109
  22 C :   -0.033493
  23 H :    0.039520
  24 H :    0.031877
  25 C :   -0.042404
  26 H :    0.023066
  27 H :    0.013242
  28 C :   -0.051590
  29 H :    0.018341
  30 H :    0.024156
  31 H :    0.028766
  32 H :    0.025181
  33 H :    0.027683

  Mayer bond orders larger than 0.100000
B(  0-S ,  1-C ) :   1.1284 B(  0-S ,  4-C ) :   1.1383 B(  1-C ,  2-C ) :   1.6372
B(  1-C ,  4-C ) :   0.1023 B(  1-C , 32-H ) :   0.9610 B(  2-C ,  3-C ) :   1.1997
B(  2-C ,  6-C ) :   1.0226 B(  3-C ,  4-C ) :   1.6291 B(  3-C ,  5-H ) :   0.9923
B(  4-C , 20-C ) :   1.0236 B(  6-C ,  7-H ) :   0.9295 B(  6-C ,  8-H ) :   0.9409
B(  6-C ,  9-C ) :   1.0593 B(  9-C , 10-H ) :   0.9629 B(  9-C , 11-H ) :   0.9582
B(  9-C , 12-C ) :   1.0609 B( 12-C , 13-H ) :   0.9749 B( 12-C , 14-H ) :   0.9769
B( 12-C , 15-H ) :   0.9763 B( 16-S , 17-C ) :   1.1880 B( 16-S , 20-C ) :   1.1746
B( 17-C , 18-C ) :   1.5633 B( 17-C , 33-H ) :   0.9715 B( 18-C , 19-C ) :   1.2815
B( 18-C , 21-H ) :   0.9836 B( 19-C , 20-C ) :   1.5803 B( 19-C , 22-C ) :   1.0167
B( 22-C , 23-H ) :   0.9314 B( 22-C , 24-H ) :   0.9398 B( 22-C , 25-C ) :   1.0747
B( 25-C , 26-H ) :   0.9582 B( 25-C , 27-H ) :   0.9416 B( 25-C , 28-C ) :   1.0802
B( 28-C , 29-H ) :   0.9731 B( 28-C , 30-H ) :   0.9746 B( 28-C , 31-H ) :   0.9763

Dispersion correction           -0.014011183
FINAL SINGLE POINT ENERGY     -1339.850617519099

DIPOLE MOMENT
-------------
                                X             Y             Z
Electronic contribution:     21.02233      -7.17893       9.42886
Nuclear contribution   :    -21.26944       7.11589      -9.46344
                        -----------------------------------------
Total Dipole Moment    :     -0.24712      -0.06304      -0.03459
                        -----------------------------------------
Magnitude (a.u.)       :      0.25737
Magnitude (Debye)      :      0.65417

Rotational constants in cm-1:     0.018436     0.008127     0.006564
Rotational constants in MHz :   552.695645   243.629009   196.770767

                             ****ORCA TERMINATED NORMALLY****
TOTAL RUN TIME: 0 days 0 hours 0 minutes 29 seconds 224 msec
