                         Program Version 4.2.1 -  RELEASE  -
|  1> ! wB97X-D3 SP def2-SVP
|  2> %pal
|  3> nprocs 16
|  4> end
|  5>
|  6> * xyz 0 1
|  7> S 	 9.11517 	 24.1887 	 66.8854
|  8> C 	 8.45507 	 23.5761 	 65.3963
|  9> C 	 7.36439 	 24.2626 	 64.9622
| 10> C 	 7.08007 	 25.3581 	 65.8256
| 11> C 	 7.89671 	 25.4687 	 66.9097
| 12> H 	 6.39949 	 26.2048 	 65.6473
| 13> C 	 6.53912 	 23.9816 	 63.7654
| 14> H 	 5.49942 	 24.1894 	 63.9548
| 15> H 	 6.59393 	 22.8732 	 63.6002
| 16> C 	 6.97329 	 24.6594 	 62.4771
| 17> H 	 6.21028 	 24.3127 	 61.7379
| 18> H 	 6.88642 	 25.7392 	 62.6868
| 19> C 	 8.33422 	 24.4022 	 61.9251
| 20> H 	 8.57197 	 23.2668 	 61.9778
| 21> H 	 8.43541 	 24.8385 	 60.8752
| 22> H 	 9.01253 	 24.9452 	 62.6027
| 23> S 	 9.39403 	 26.8902 	 68.72
| 24> C 	 8.59293 	 27.9843 	 69.8969
| 25> C 	 7.25586 	 27.745 	 69.7368
| 26> C 	 6.77274 	 26.8424 	 68.7686
| 27> C 	 7.84632 	 26.3884 	 68.018
| 28> H 	 6.63315 	 28.1961 	 70.5332
| 29> C 	 5.32633 	 26.3962 	 68.7234
| 30> H 	 4.98746 	 26.5223 	 69.736
| 31> H 	 5.39874 	 25.3483 	 68.6417
| 32> C 	 4.46145 	 27.0285 	 67.6079
| 33> H 	 4.8873 	 27.0436 	 66.6111
| 34> H 	 4.54249 	 28.0778 	 67.8263
| 35> C 	 3.06088 	 26.5383 	 67.5773
| 36> H 	 2.71223 	 27.1529 	 66.7007
| 37> H 	 2.46895 	 26.677 	 68.4483
| 38> H 	 2.97992 	 25.5218 	 67.3686
| 39> H 	 8.68496 	 22.6488 	 64.8262
| 40> H 	 9.1086 	 28.621 	 70.5777
| 41> *
| 42>
| 43>                          ****END OF INPUT****

CARTESIAN COORDINATES (ANGSTROEM)
---------------------------------
  S      9.115170   24.188700   66.885400
  C      8.455070   23.576100   65.396300
  C      7.364390   24.262600   64.962200
  C      7.080070   25.358100   65.825600
  C      7.896710   25.468700   66.909700
  H      6.399490   26.204800   65.647300
  C      6.539120   23.981600   63.765400
  H      5.499420   24.189400   63.954800
  H      6.593930   22.873200   63.600200
  C      6.973290   24.659400   62.477100
  H      6.210280   24.312700   61.737900
  H      6.886420   25.739200   62.686800
  C      8.334220   24.402200   61.925100
  H      8.571970   23.266800   61.977800
  H      8.435410   24.838500   60.875200
  H      9.012530   24.945200   62.602700
  S      9.394030   26.890200   68.720000
  C      8.592930   27.984300   69.896900
  C      7.255860   27.745000   69.736800
  C      6.772740   26.842400   68.768600
  C      7.846320   26.388400   68.018000
  H      6.633150   28.196100   70.533200
  C      5.326330   26.396200   68.723400
  H      4.987460   26.522300   69.736000
  H      5.398740   25.348300   68.641700
  C      4.461450   27.028500   67.607900
  H      4.887300   27.043600   66.611100
  H      4.542490   28.077800   67.826300
  C      3.060880   26.538300   67.577300
  H      2.712230   27.152900   66.700700
  H      2.468950   26.677000   68.448300
  H      2.979920   25.521800   67.368600
  H      8.684960   22.648800   64.826200
  H      9.108600   28.621000   70.577700

 Total Charge           Charge          ....    0
 Multiplicity           Mult            ....    1
 Number of Electrons    NEL             ....  134
 Basis Dimension        Dim             ....  322

ORBITAL ENERGIES
----------------

  NO   OCC          E(Eh)            E(eV)
   0   2.0000     -88.966700     -2420.9070
   1   2.0000     -88.961515     -2420.7659
   2   2.0000     -10.328767      -281.0600
   3   2.0000     -10.326943      -281.0104
   4   2.0000     -10.318989      -280.7940
   5   2.0000     -10.312473      -280.6166
   6   2.0000     -10.301666      -280.3226
   7   2.0000     -10.294238      -280.1205
   8   2.0000     -10.292824      -280.0820
   9   2.0000     -10.291479      -280.0454
  10   2.0000     -10.291053      -280.0338
  11   2.0000     -10.288006      -279.9509
  12   2.0000     -10.287493      -279.9369
  13   2.0000     -10.286370      -279.9063
  14   2.0000     -10.285150      -279.8732
  15   2.0000     -10.273291      -279.5505
  16   2.0000      -8.081288      -219.9030
  17   2.0000      -8.075563      -219.7473
  18   2.0000      -6.039894      -164.3539
  19   2.0000      -6.035869      -164.2443
  20   2.0000      -6.034196      -164.1988
  21   2.0000      -6.031895      -164.1362
  22   2.0000      -6.030170      -164.0893
  23   2.0000      -6.026233      -163.9821
  24   2.0000      -1.009418       -27.4677
  25   2.0000      -0.985522       -26.8174
  26   2.0000      -0.919472       -25.0201
  27   2.0000      -0.914939       -24.8968
  28   2.0000      -0.872457       -23.7408
  29   2.0000      -0.858893       -23.3717
  30   2.0000      -0.847685       -23.0667
  31   2.0000      -0.816832       -22.2271
  32   2.0000      -0.785338       -21.3701
  33   2.0000      -0.778028       -21.1712
  34   2.0000      -0.714655       -19.4467
  35   2.0000      -0.705938       -19.2096
  36   2.0000      -0.687099       -18.6969
  37   2.0000      -0.661279       -17.9943
  38   2.0000      -0.637655       -17.3515
  39   2.0000      -0.617723       -16.8091
  40   2.0000      -0.598361       -16.2822
  41   2.0000      -0.571162       -15.5421
  42   2.0000      -0.567042       -15.4300
  43   2.0000      -0.551282       -15.0011
  44   2.0000      -0.543763       -14.7966
  45   2.0000      -0.539914       -14.6918
  46   2.0000      -0.526005       -14.3133
  47   2.0000      -0.515211       -14.0196
  48   2.0000      -0.506229       -13.7752
  49   2.0000      -0.498831       -13.5739
  50   2.0000      -0.489983       -13.3331
  51   2.0000      -0.486546       -13.2396
  52   2.0000      -0.472085       -12.8461
  53   2.0000      -0.466363       -12.6904
  54   2.0000      -0.462095       -12.5742
  55   2.0000      -0.447253       -12.1704
  56   2.0000      -0.444059       -12.0835
  57   2.0000      -0.436727       -11.8839
  58   2.0000      -0.427552       -11.6343
  59   2.0000      -0.419173       -11.4063
  60   2.0000      -0.416877       -11.3438
  61   2.0000      -0.413194       -11.2436
  62   2.0000      -0.410014       -11.1570
  63   2.0000      -0.355947        -9.6858
  64   2.0000      -0.332753        -9.0547
  65   2.0000      -0.328598        -8.9416
  66   2.0000      -0.287741        -7.8298
  67   0.0000       0.023555         0.6410
  68   0.0000       0.074083         2.0159
  69   0.0000       0.100755         2.7417
  70   0.0000       0.123026         3.3477
  71   0.0000       0.131377         3.5750

MULLIKEN ATOMIC CHARGES
-----------------------
   0 S :    0.112005
   1 C :   -0.109923
   2 C :   -0.102551
   3 C :   -0.009634
   4 C :   -0.123368
   5 H :    0.020269
   6 C :    0.065411
   7 H :    0.024621
   8 H :    0.019433
   9 C :   -0.080751
  10 H :    0.036318
  11 H :    0.027681
  12 C :   -0.079097
  13 H :    0.037321
  14 H :    0.056328
  15 H :    0.046006
  16 S :    0.073733
  17 C :   -0.086567
  18 C :   -0.048982
  19 C :   -0.046276
  20 C :   -0.165055
  21 H :    0.022630
  22 C :    0.132101
  23 H :    0.010718
  24 H :    0.013983
  25 C :   -0.068036
  26 H :    0.012456
  27 H :    0.015248
  28 C :    0.009428
  29 H :    0.037639
  30 H :    0.025850
  31 H :    0.017919
  32 H :    0.049340
  33 H :    0.053803
Sum of atomic charges:   -0.0000000

LOEWDIN ATOMIC CHARGES
----------------------
   0 S :    0.398298
   1 C :   -0.204046
   2 C :   -0.072906
   3 C :   -0.068377
   4 C :   -0.181795
   5 H :    0.032858
   6 C :   -0.035418
   7 H :    0.031833
   8 H :    0.031724
   9 C :   -0.049895
  10 H :    0.027300
  11 H :    0.025135
  12 C :   -0.077099
  13 H :    0.030400
  14 H :    0.038924
  15 H :    0.028727
  16 S :    0.368768
  17 C :   -0.169344
  18 C :   -0.076692
  19 C :   -0.059937
  20 C :   -0.183461
  21 H :    0.032313
  22 C :   -0.023198
  23 H :    0.031751
  24 H :    0.026322
  25 C :   -0.040010
  26 H :    0.022522
  27 H :    0.024647
  28 C :   -0.056469
  29 H :    0.040909
  30 H :    0.021751
  31 H :    0.017454
  32 H :    0.038252
  33 H :    0.028759

  Mayer bond orders larger than 0.100000
B(  0-S ,  1-C ) :   1.1249 B(  0-S ,  4-C ) :   1.1271 B(  1-C ,  2-C ) :   1.6528
B(  1-C , 32-H ) :   0.9520 B(  2-C ,  3-C ) :   1.2118 B(  2-C ,  6-C ) :   1.0294
B(  3-C ,  4-C ) :   1.6188 B(  3-C ,  5-H ) :   0.9862 B(  4-C , 20-C ) :   1.0597
B(  6-C ,  7-H ) :   0.9366 B(  6-C ,  8-H ) :   0.9325 B(  6-C ,  9-C ) :   1.0779
B(  9-C , 10-H ) :   0.9521 B(  9-C , 11-H ) :   0.9521 B(  9-C , 12-C ) :   1.0837
B( 12-C , 13-H ) :   0.9712 B( 12-C , 14-H ) :   0.9688 B( 12-C , 15-H ) :   0.9702
B( 16-S , 17-C ) :   1.1211 B( 16-S , 20-C ) :   1.1440 B( 17-C , 18-C ) :   1.6102
B( 17-C , 20-C ) :   0.1080 B( 17-C , 33-H ) :   0.9790 B( 18-C , 19-C ) :   1.2458
B( 18-C , 21-H ) :   0.9761 B( 19-C , 20-C ) :   1.5675 B( 19-C , 22-C ) :   1.0280
B( 22-C , 23-H ) :   0.9324 B( 22-C , 24-H ) :   0.9208 B( 22-C , 25-C ) :   1.0492
B( 25-C , 26-H ) :   0.9560 B( 25-C , 27-H ) :   0.9458 B( 25-C , 28-C ) :   1.0865
B( 28-C , 29-H ) :   0.9717 B( 28-C , 30-H ) :   0.9730 B( 28-C , 31-H ) :   0.9717

Dispersion correction           -0.014564117
FINAL SINGLE POINT ENERGY     -1339.866882861050

DIPOLE MOMENT
-------------
                                X             Y             Z
Electronic contribution:     21.38199       0.40813      17.06018
Nuclear contribution   :    -22.11422      -0.33640     -17.17428
                        -----------------------------------------
Total Dipole Moment    :     -0.73223       0.07173      -0.11410
                        -----------------------------------------
Magnitude (a.u.)       :      0.74453
Magnitude (Debye)      :      1.89245

Rotational constants in cm-1:     0.018216     0.009256     0.006794
Rotational constants in MHz :   546.093567   277.479944   203.689981

                             ****ORCA TERMINATED NORMALLY****
TOTAL RUN TIME: 0 days 0 hours 0 minutes 34 seconds 5 msec
