                         Program Version 4.2.1 -  RELEASE  -
|  1> ! wB97X-D3 SP def2-SVP
|  2> %pal
|  3> nprocs 16
|  4> end
|  5>
|  6> * xyz 0 1
|  7> S 	 -37.6216 	 68.8604 	 144.141
|  8> C 	 -37.7083 	 68.0651 	 142.583
|  9> C 	 -37.4351 	 66.719 	 142.699
| 10> C 	 -36.9335 	 66.3799 	 143.998
| 11> C 	 -37.1239 	 67.3821 	 144.937
| 12> H 	 -36.6349 	 65.3919 	 144.304
| 13> C 	 -37.5031 	 65.6718 	 141.601
| 14> H 	 -36.9276 	 64.8475 	 142.033
| 15> H 	 -36.997 	 66.0634 	 140.762
| 16> C 	 -38.8512 	 65.1349 	 141.163
| 17> H 	 -39.5955 	 65.898 	 141.034
| 18> H 	 -38.691 	 64.6792 	 140.085
| 19> C 	 -39.2986 	 64.0735 	 142.23
| 20> H 	 -38.477 	 63.4003 	 142.441
| 21> H 	 -39.6116 	 64.5667 	 143.099
| 22> H 	 -40.0545 	 63.4606 	 141.838
| 23> S 	 -38.8196 	 66.9629 	 147.156
| 24> C 	 -38.0429 	 67.2189 	 148.778
| 25> C 	 -36.6745 	 67.4048 	 148.717
| 26> C 	 -36.2088 	 67.3503 	 147.364
| 27> C 	 -37.2277 	 67.2712 	 146.394
| 28> H 	 -36.135 	 67.8149 	 149.511
| 29> C 	 -34.7083 	 67.6862 	 147
| 30> H 	 -34.5096 	 68.6522 	 147.539
| 31> H 	 -34.642 	 67.8356 	 145.93
| 32> C 	 -33.6772 	 66.6746 	 147.475
| 33> H 	 -33.7659 	 65.7112 	 146.962
| 34> H 	 -33.886 	 66.3686 	 148.473
| 35> C 	 -32.2493 	 67.0809 	 147.274
| 36> H 	 -31.5086 	 66.2697 	 147.461
| 37> H 	 -31.849 	 67.8136 	 147.937
| 38> H 	 -32.0826 	 67.3569 	 146.171
| 39> H 	 -38.0485 	 68.5768 	 141.719
| 40> H 	 -38.5225 	 67.4358 	 149.707
| 41> *
| 42>
| 43>                          ****END OF INPUT****

CARTESIAN COORDINATES (ANGSTROEM)
---------------------------------
  S    -37.621600   68.860400  144.141000
  C    -37.708300   68.065100  142.583000
  C    -37.435100   66.719000  142.699000
  C    -36.933500   66.379900  143.998000
  C    -37.123900   67.382100  144.937000
  H    -36.634900   65.391900  144.304000
  C    -37.503100   65.671800  141.601000
  H    -36.927600   64.847500  142.033000
  H    -36.997000   66.063400  140.762000
  C    -38.851200   65.134900  141.163000
  H    -39.595500   65.898000  141.034000
  H    -38.691000   64.679200  140.085000
  C    -39.298600   64.073500  142.230000
  H    -38.477000   63.400300  142.441000
  H    -39.611600   64.566700  143.099000
  H    -40.054500   63.460600  141.838000
  S    -38.819600   66.962900  147.156000
  C    -38.042900   67.218900  148.778000
  C    -36.674500   67.404800  148.717000
  C    -36.208800   67.350300  147.364000
  C    -37.227700   67.271200  146.394000
  H    -36.135000   67.814900  149.511000
  C    -34.708300   67.686200  147.000000
  H    -34.509600   68.652200  147.539000
  H    -34.642000   67.835600  145.930000
  C    -33.677200   66.674600  147.475000
  H    -33.765900   65.711200  146.962000
  H    -33.886000   66.368600  148.473000
  C    -32.249300   67.080900  147.274000
  H    -31.508600   66.269700  147.461000
  H    -31.849000   67.813600  147.937000
  H    -32.082600   67.356900  146.171000
  H    -38.048500   68.576800  141.719000
  H    -38.522500   67.435800  149.707000

 Total Charge           Charge          ....    0
 Multiplicity           Mult            ....    1
 Number of Electrons    NEL             ....  134
 Basis Dimension        Dim             ....  322

ORBITAL ENERGIES
----------------

  NO   OCC          E(Eh)            E(eV)
   0   2.0000     -88.969465     -2420.9822
   1   2.0000     -88.964309     -2420.8419
   2   2.0000     -10.330966      -281.1199
   3   2.0000     -10.328657      -281.0570
   4   2.0000     -10.321778      -280.8699
   5   2.0000     -10.312536      -280.6184
   6   2.0000     -10.308414      -280.5062
   7   2.0000     -10.300686      -280.2959
   8   2.0000     -10.295487      -280.1544
   9   2.0000     -10.294838      -280.1368
  10   2.0000     -10.294438      -280.1259
  11   2.0000     -10.292820      -280.0819
  12   2.0000     -10.285391      -279.8797
  13   2.0000     -10.279986      -279.7326
  14   2.0000     -10.279618      -279.7226
  15   2.0000     -10.269145      -279.4376
  16   2.0000      -8.082280      -219.9300
  17   2.0000      -8.079187      -219.8458
  18   2.0000      -6.041049      -164.3853
  19   2.0000      -6.037680      -164.2936
  20   2.0000      -6.037204      -164.2807
  21   2.0000      -6.033556      -164.1814
  22   2.0000      -6.032731      -164.1590
  23   2.0000      -6.030069      -164.0865
  24   2.0000      -1.001101       -27.2413
  25   2.0000      -0.975742       -26.5513
  26   2.0000      -0.912483       -24.8299
  27   2.0000      -0.905134       -24.6300
  28   2.0000      -0.867233       -23.5986
  29   2.0000      -0.845781       -23.0149
  30   2.0000      -0.845351       -23.0032
  31   2.0000      -0.814823       -22.1725
  32   2.0000      -0.783333       -21.3156
  33   2.0000      -0.767831       -20.8937
  34   2.0000      -0.705500       -19.1976
  35   2.0000      -0.701677       -19.0936
  36   2.0000      -0.694430       -18.8964
  37   2.0000      -0.659893       -17.9566
  38   2.0000      -0.647192       -17.6110
  39   2.0000      -0.612947       -16.6791
  40   2.0000      -0.590316       -16.0633
  41   2.0000      -0.573299       -15.6003
  42   2.0000      -0.563716       -15.3395
  43   2.0000      -0.556372       -15.1397
  44   2.0000      -0.540293       -14.7021
  45   2.0000      -0.519034       -14.1236
  46   2.0000      -0.518139       -14.0993
  47   2.0000      -0.510947       -13.9036
  48   2.0000      -0.507346       -13.8056
  49   2.0000      -0.493614       -13.4319
  50   2.0000      -0.489834       -13.3290
  51   2.0000      -0.475672       -12.9437
  52   2.0000      -0.469891       -12.7864
  53   2.0000      -0.464996       -12.6532
  54   2.0000      -0.456330       -12.4174
  55   2.0000      -0.449849       -12.2410
  56   2.0000      -0.445124       -12.1124
  57   2.0000      -0.438079       -11.9207
  58   2.0000      -0.426868       -11.6157
  59   2.0000      -0.424492       -11.5510
  60   2.0000      -0.418107       -11.3773
  61   2.0000      -0.413747       -11.2586
  62   2.0000      -0.413000       -11.2383
  63   2.0000      -0.340016        -9.2523
  64   2.0000      -0.328770        -8.9463
  65   2.0000      -0.318259        -8.6603
  66   2.0000      -0.306907        -8.3514
  67   0.0000       0.034675         0.9435
  68   0.0000       0.049672         1.3516
  69   0.0000       0.109225         2.9721
  70   0.0000       0.111226         3.0266
  71   0.0000       0.124142         3.3781

MULLIKEN ATOMIC CHARGES
-----------------------
   0 S :    0.111479
   1 C :   -0.111473
   2 C :   -0.113793
   3 C :    0.066223
   4 C :   -0.199611
   5 H :    0.009477
   6 C :    0.085721
   7 H :    0.015073
   8 H :    0.022533
   9 C :   -0.093382
  10 H :    0.029932
  11 H :    0.041221
  12 C :   -0.015285
  13 H :    0.019210
  14 H :    0.038614
  15 H :    0.022493
  16 S :    0.110604
  17 C :   -0.080402
  18 C :   -0.011313
  19 C :   -0.027111
  20 C :   -0.163511
  21 H :    0.013970
  22 C :    0.056352
  23 H :    0.036836
  24 H :    0.031456
  25 C :   -0.044170
  26 H :    0.020903
  27 H :    0.010499
  28 C :   -0.067590
  29 H :    0.029393
  30 H :    0.025787
  31 H :    0.040776
  32 H :    0.038843
  33 H :    0.050249
Sum of atomic charges:   -0.0000000

LOEWDIN ATOMIC CHARGES
----------------------
   0 S :    0.409343
   1 C :   -0.188623
   2 C :   -0.064677
   3 C :   -0.054352
   4 C :   -0.201905
   5 H :    0.029357
   6 C :   -0.031834
   7 H :    0.030213
   8 H :    0.025665
   9 C :   -0.037431
  10 H :    0.018750
  11 H :    0.034386
  12 C :   -0.052850
  13 H :    0.023409
  14 H :    0.022906
  15 H :    0.019207
  16 S :    0.365602
  17 C :   -0.156924
  18 C :   -0.064647
  19 C :   -0.045182
  20 C :   -0.198065
  21 H :    0.026342
  22 C :   -0.024648
  23 H :    0.036171
  24 H :    0.026889
  25 C :   -0.050254
  26 H :    0.028263
  27 H :    0.017564
  28 C :   -0.073241
  29 H :    0.030715
  30 H :    0.017692
  31 H :    0.035299
  32 H :    0.020828
  33 H :    0.026030

  Mayer bond orders larger than 0.100000
B(  0-S ,  1-C ) :   1.1440 B(  0-S ,  4-C ) :   1.1611 B(  1-C ,  2-C ) :   1.6004
B(  1-C , 32-H ) :   0.9782 B(  2-C ,  3-C ) :   1.2519 B(  2-C ,  6-C ) :   1.0094
B(  3-C ,  4-C ) :   1.5766 B(  3-C ,  5-H ) :   0.9899 B(  4-C , 20-C ) :   1.0236
B(  6-C ,  7-H ) :   0.9456 B(  6-C ,  8-H ) :   0.9372 B(  6-C ,  9-C ) :   1.0681
B(  9-C , 10-H ) :   0.9595 B(  9-C , 11-H ) :   0.9565 B(  9-C , 12-C ) :   1.0642
B( 12-C , 13-H ) :   0.9771 B( 12-C , 14-H ) :   0.9787 B( 12-C , 15-H ) :   0.9746
B( 16-S , 17-C ) :   1.1322 B( 16-S , 20-C ) :   1.1129 B( 17-C , 18-C ) :   1.6603
B( 17-C , 33-H ) :   0.9620 B( 18-C , 19-C ) :   1.2138 B( 18-C , 21-H ) :   0.9863
B( 19-C , 20-C ) :   1.6346 B( 19-C , 22-C ) :   1.0355 B( 22-C , 23-H ) :   0.9449
B( 22-C , 24-H ) :   0.9337 B( 22-C , 25-C ) :   1.0586 B( 25-C , 26-H ) :   0.9470
B( 25-C , 27-H ) :   0.9544 B( 25-C , 28-C ) :   1.0919 B( 28-C , 29-H ) :   0.9714
B( 28-C , 30-H ) :   0.9747 B( 28-C , 31-H ) :   0.9711

Dispersion correction           -0.014028744
FINAL SINGLE POINT ENERGY     -1339.861782376643

DIPOLE MOMENT
-------------
                                X             Y             Z
Electronic contribution:    -13.79891      12.73693       7.12848
Nuclear contribution   :     14.05235     -12.90552      -7.22445
                        -----------------------------------------
Total Dipole Moment    :      0.25344      -0.16858      -0.09596
                        -----------------------------------------
Magnitude (a.u.)       :      0.31916
Magnitude (Debye)      :      0.81123

Rotational constants in cm-1:     0.018357     0.007942     0.006922
Rotational constants in MHz :   550.337891   238.095945   207.503442

                             ****ORCA TERMINATED NORMALLY****
TOTAL RUN TIME: 0 days 0 hours 0 minutes 34 seconds 321 msec
