                         Program Version 4.2.1 -  RELEASE  -
|  1> ! wB97X-D3 SP def2-SVP
|  2> %pal
|  3> nprocs 16
|  4> end
|  5>
|  6> * xyz 0 1
|  7> S 	 -0.45444 	 -14.513 	 80.6618
|  8> C 	 -0.197322 	 -15.3844 	 79.115
|  9> C 	 -1.01244 	 -14.9398 	 78.0956
| 10> C 	 -2.01861 	 -14.0641 	 78.6185
| 11> C 	 -1.87024 	 -13.7872 	 79.9677
| 12> H 	 -2.78056 	 -13.5524 	 78.1482
| 13> C 	 -0.773586 	 -15.1252 	 76.611
| 14> H 	 -1.74106 	 -15.2181 	 76.1054
| 15> H 	 -0.335622 	 -16.1257 	 76.4687
| 16> C 	 0.0626833 	 -14.1361 	 75.9342
| 17> H 	 1.07726 	 -14.0906 	 76.259
| 18> H 	 0.128467 	 -14.4741 	 74.8898
| 19> C 	 -0.445382 	 -12.6493 	 75.9911
| 20> H 	 0.131708 	 -11.9778 	 75.2736
| 21> H 	 -1.48277 	 -12.544 	 75.6783
| 22> H 	 -0.280281 	 -12.1327 	 76.9864
| 23> S 	 -1.85445 	 -11.2867 	 81.1691
| 24> C 	 -3.19436 	 -10.7172 	 82.1727
| 25> C 	 -4.18255 	 -11.682 	 82.1622
| 26> C 	 -3.92691 	 -12.8196 	 81.3284
| 27> C 	 -2.61895 	 -12.8631 	 80.8113
| 28> H 	 -5.05192 	 -11.4051 	 82.7414
| 29> C 	 -5.05672 	 -13.8684 	 81.0595
| 30> H 	 -5.89024 	 -13.8427 	 81.7947
| 31> H 	 -4.64181 	 -14.7831 	 81.4081
| 32> C 	 -5.54272 	 -13.9214 	 79.5965
| 33> H 	 -4.77327 	 -14.0791 	 78.8573
| 34> H 	 -5.99047 	 -13.0144 	 79.2198
| 35> C 	 -6.5262 	 -15.0801 	 79.4558
| 36> H 	 -7.38289 	 -14.7807 	 78.7913
| 37> H 	 -6.95038 	 -15.3847 	 80.4332
| 38> H 	 -6.05908 	 -15.9316 	 78.9283
| 39> H 	 0.630815 	 -16.0105 	 78.873
| 40> H 	 -3.19633 	 -9.90557 	 82.8524
| 41> *
| 42>
| 43>                          ****END OF INPUT****

CARTESIAN COORDINATES (ANGSTROEM)
---------------------------------
  S     -0.454440  -14.513000   80.661800
  C     -0.197322  -15.384400   79.115000
  C     -1.012440  -14.939800   78.095600
  C     -2.018610  -14.064100   78.618500
  C     -1.870240  -13.787200   79.967700
  H     -2.780560  -13.552400   78.148200
  C     -0.773586  -15.125200   76.611000
  H     -1.741060  -15.218100   76.105400
  H     -0.335622  -16.125700   76.468700
  C      0.062683  -14.136100   75.934200
  H      1.077260  -14.090600   76.259000
  H      0.128467  -14.474100   74.889800
  C     -0.445382  -12.649300   75.991100
  H      0.131708  -11.977800   75.273600
  H     -1.482770  -12.544000   75.678300
  H     -0.280281  -12.132700   76.986400
  S     -1.854450  -11.286700   81.169100
  C     -3.194360  -10.717200   82.172700
  C     -4.182550  -11.682000   82.162200
  C     -3.926910  -12.819600   81.328400
  C     -2.618950  -12.863100   80.811300
  H     -5.051920  -11.405100   82.741400
  C     -5.056720  -13.868400   81.059500
  H     -5.890240  -13.842700   81.794700
  H     -4.641810  -14.783100   81.408100
  C     -5.542720  -13.921400   79.596500
  H     -4.773270  -14.079100   78.857300
  H     -5.990470  -13.014400   79.219800
  C     -6.526200  -15.080100   79.455800
  H     -7.382890  -14.780700   78.791300
  H     -6.950380  -15.384700   80.433200
  H     -6.059080  -15.931600   78.928300
  H      0.630815  -16.010500   78.873000
  H     -3.196330   -9.905570   82.852400

 Total Charge           Charge          ....    0
 Multiplicity           Mult            ....    1
 Number of Electrons    NEL             ....  134
 Basis Dimension        Dim             ....  322

ORBITAL ENERGIES
----------------

  NO   OCC          E(Eh)            E(eV)
   0   2.0000     -88.969099     -2420.9723
   1   2.0000     -88.961261     -2420.7590
   2   2.0000     -10.330959      -281.1197
   3   2.0000     -10.329189      -281.0715
   4   2.0000     -10.314875      -280.6820
   5   2.0000     -10.314726      -280.6780
   6   2.0000     -10.310052      -280.5508
   7   2.0000     -10.302950      -280.3575
   8   2.0000     -10.294551      -280.1290
   9   2.0000     -10.293540      -280.1015
  10   2.0000     -10.291919      -280.0573
  11   2.0000     -10.291723      -280.0520
  12   2.0000     -10.286862      -279.9198
  13   2.0000     -10.286679      -279.9148
  14   2.0000     -10.282320      -279.7962
  15   2.0000     -10.279769      -279.7267
  16   2.0000      -8.083347      -219.9590
  17   2.0000      -8.075177      -219.7367
  18   2.0000      -6.041847      -164.4070
  19   2.0000      -6.038040      -164.3034
  20   2.0000      -6.033999      -164.1934
  21   2.0000      -6.033814      -164.1884
  22   2.0000      -6.029677      -164.0758
  23   2.0000      -6.025960      -163.9747
  24   2.0000      -1.002602       -27.2822
  25   2.0000      -0.977883       -26.6095
  26   2.0000      -0.919385       -25.0177
  27   2.0000      -0.903406       -24.5829
  28   2.0000      -0.867609       -23.6088
  29   2.0000      -0.845065       -22.9954
  30   2.0000      -0.841559       -22.9000
  31   2.0000      -0.814961       -22.1762
  32   2.0000      -0.784681       -21.3523
  33   2.0000      -0.767814       -20.8933
  34   2.0000      -0.707321       -19.2472
  35   2.0000      -0.704322       -19.1656
  36   2.0000      -0.698573       -19.0091
  37   2.0000      -0.656031       -17.8515
  38   2.0000      -0.647268       -17.6131
  39   2.0000      -0.615445       -16.7471
  40   2.0000      -0.591182       -16.0869
  41   2.0000      -0.577446       -15.7131
  42   2.0000      -0.557023       -15.1574
  43   2.0000      -0.548756       -14.9324
  44   2.0000      -0.545867       -14.8538
  45   2.0000      -0.523677       -14.2500
  46   2.0000      -0.516589       -14.0571
  47   2.0000      -0.513119       -13.9627
  48   2.0000      -0.506161       -13.7733
  49   2.0000      -0.494167       -13.4470
  50   2.0000      -0.489079       -13.3085
  51   2.0000      -0.477123       -12.9832
  52   2.0000      -0.471483       -12.8297
  53   2.0000      -0.459963       -12.5162
  54   2.0000      -0.454705       -12.3731
  55   2.0000      -0.449190       -12.2231
  56   2.0000      -0.445883       -12.1331
  57   2.0000      -0.442708       -12.0467
  58   2.0000      -0.427211       -11.6250
  59   2.0000      -0.421754       -11.4765
  60   2.0000      -0.415992       -11.3197
  61   2.0000      -0.409405       -11.1405
  62   2.0000      -0.408146       -11.1062
  63   2.0000      -0.336505        -9.1568
  64   2.0000      -0.332479        -9.0472
  65   2.0000      -0.324070        -8.8184
  66   2.0000      -0.302731        -8.2377
  67   0.0000       0.032695         0.8897
  68   0.0000       0.055797         1.5183
  69   0.0000       0.106315         2.8930
  70   0.0000       0.122429         3.3315
  71   0.0000       0.123653         3.3648

MULLIKEN ATOMIC CHARGES
-----------------------
   0 S :    0.121181
   1 C :   -0.095999
   2 C :   -0.095685
   3 C :    0.087588
   4 C :   -0.187271
   5 H :   -0.012597
   6 C :    0.075313
   7 H :    0.023026
   8 H :    0.021203
   9 C :   -0.025057
  10 H :    0.021689
  11 H :    0.031667
  12 C :   -0.111028
  13 H :    0.037441
  14 H :    0.030416
  15 H :    0.060882
  16 S :    0.087837
  17 C :   -0.081640
  18 C :   -0.050855
  19 C :   -0.010106
  20 C :   -0.174603
  21 H :    0.019647
  22 C :    0.073729
  23 H :    0.019195
  24 H :    0.022872
  25 C :   -0.034856
  26 H :    0.008766
  27 H :    0.025138
  28 C :   -0.078684
  29 H :    0.033169
  30 H :    0.035762
  31 H :    0.042447
  32 H :    0.031002
  33 H :    0.048412
Sum of atomic charges:   -0.0000000

LOEWDIN ATOMIC CHARGES
----------------------
   0 S :    0.405131
   1 C :   -0.178617
   2 C :   -0.058525
   3 C :   -0.044790
   4 C :   -0.199406
   5 H :    0.016821
   6 C :   -0.036578
   7 H :    0.032302
   8 H :    0.035385
   9 C :   -0.039535
  10 H :    0.022593
  11 H :    0.030995
  12 C :   -0.078938
  13 H :    0.032474
  14 H :    0.019322
  15 H :    0.035841
  16 S :    0.380811
  17 C :   -0.177771
  18 C :   -0.076653
  19 C :   -0.050724
  20 C :   -0.197535
  21 H :    0.032127
  22 C :   -0.030825
  23 H :    0.032943
  24 H :    0.030076
  25 C :   -0.041961
  26 H :    0.021873
  27 H :    0.023195
  28 C :   -0.070030
  29 H :    0.029741
  30 H :    0.024737
  31 H :    0.029207
  32 H :    0.020658
  33 H :    0.025658

  Mayer bond orders larger than 0.100000
B(  0-S ,  1-C ) :   1.1282 B(  0-S ,  4-C ) :   1.1535 B(  1-C ,  2-C ) :   1.6452
B(  1-C , 32-H ) :   0.9660 B(  2-C ,  3-C ) :   1.2064 B(  2-C ,  6-C ) :   1.0240
B(  3-C ,  4-C ) :   1.6006 B(  3-C ,  5-H ) :   0.9957 B(  4-C , 20-C ) :   1.0145
B(  6-C ,  7-H ) :   0.9338 B(  6-C ,  8-H ) :   0.9281 B(  6-C ,  9-C ) :   1.0952
B(  9-C , 10-H ) :   0.9502 B(  9-C , 11-H ) :   0.9492 B(  9-C , 12-C ) :   1.0733
B( 12-C , 13-H ) :   0.9736 B( 12-C , 14-H ) :   0.9760 B( 12-C , 15-H ) :   0.9712
B( 16-S , 17-C ) :   1.1480 B( 16-S , 20-C ) :   1.1393 B( 17-C , 18-C ) :   1.6242
B( 17-C , 20-C ) :   0.1090 B( 17-C , 33-H ) :   0.9681 B( 18-C , 19-C ) :   1.2363
B( 18-C , 21-H ) :   0.9911 B( 19-C , 20-C ) :   1.5938 B( 19-C , 22-C ) :   1.0224
B( 22-C , 23-H ) :   0.9403 B( 22-C , 24-H ) :   0.9343 B( 22-C , 25-C ) :   1.0558
B( 25-C , 26-H ) :   0.9527 B( 25-C , 27-H ) :   0.9619 B( 25-C , 28-C ) :   1.0696
B( 28-C , 29-H ) :   0.9767 B( 28-C , 30-H ) :   0.9764 B( 28-C , 31-H ) :   0.9795

Dispersion correction           -0.014850550
FINAL SINGLE POINT ENERGY     -1339.864105744079

DIPOLE MOMENT
-------------
                                X             Y             Z
Electronic contribution:     12.09358       6.31046      19.09831
Nuclear contribution   :    -12.36301      -6.41862     -19.55275
                        -----------------------------------------
Total Dipole Moment    :     -0.26943      -0.10816      -0.45445
                        -----------------------------------------
Magnitude (a.u.)       :      0.53927
Magnitude (Debye)      :      1.37071

Rotational constants in cm-1:     0.017249     0.009328     0.007724
Rotational constants in MHz :   517.098229   279.648147   231.558175

                             ****ORCA TERMINATED NORMALLY****
TOTAL RUN TIME: 0 days 0 hours 0 minutes 34 seconds 751 msec
