                         Program Version 4.2.1 -  RELEASE  -
|  1> ! wB97X-D3 SP def2-SVP
|  2> %pal
|  3> nprocs 16
|  4> end
|  5>
|  6> * xyz 0 1
|  7> S 	 10.3319 	 -13.5287 	 79.434
|  8> C 	 11.0542 	 -14.9163 	 80.3584
|  9> C 	 11.6156 	 -15.8708 	 79.4978
| 10> C 	 11.4463 	 -15.4551 	 78.1133
| 11> C 	 10.7796 	 -14.2484 	 77.9196
| 12> H 	 11.8393 	 -15.9248 	 77.2429
| 13> C 	 12.1877 	 -17.2434 	 79.8494
| 14> H 	 12.3764 	 -17.2297 	 80.941
| 15> H 	 13.1825 	 -17.3093 	 79.3513
| 16> C 	 11.471 	 -18.5202 	 79.394
| 17> H 	 10.4374 	 -18.4807 	 79.6255
| 18> H 	 11.3944 	 -18.3998 	 78.3472
| 19> C 	 12.1161 	 -19.859 	 79.5747
| 20> H 	 12.2305 	 -20.0399 	 80.6046
| 21> H 	 11.5551 	 -20.7722 	 79.2376
| 22> H 	 13.0977 	 -19.943 	 79.1517
| 23> S 	 12.0115 	 -12.829 	 75.9319
| 24> C 	 11.1331 	 -12.4305 	 74.5136
| 25> C 	 9.80558 	 -12.8333 	 74.5819
| 26> C 	 9.50031 	 -13.5367 	 75.7753
| 27> C 	 10.6076 	 -13.6445 	 76.6223
| 28> H 	 9.11845 	 -12.5532 	 73.7616
| 29> C 	 8.16166 	 -14.1002 	 76.0363
| 30> H 	 7.46044 	 -13.2103 	 76.0137
| 31> H 	 8.1132 	 -14.4886 	 77.0551
| 32> C 	 7.66253 	 -15.2439 	 75.0249
| 33> H 	 8.42274 	 -16.0647 	 75.0347
| 34> H 	 7.56158 	 -14.9488 	 74.0152
| 35> C 	 6.34547 	 -15.9014 	 75.5912
| 36> H 	 6.25333 	 -16.7985 	 74.9802
| 37> H 	 5.43057 	 -15.2466 	 75.5875
| 38> H 	 6.48003 	 -16.2238 	 76.5971
| 39> H 	 10.9417 	 -14.8942 	 81.3611
| 40> H 	 11.5382 	 -11.9973 	 73.577
| 41> *
| 42>
| 43>                          ****END OF INPUT****

CARTESIAN COORDINATES (ANGSTROEM)
---------------------------------
  S     10.331900  -13.528700   79.434000
  C     11.054200  -14.916300   80.358400
  C     11.615600  -15.870800   79.497800
  C     11.446300  -15.455100   78.113300
  C     10.779600  -14.248400   77.919600
  H     11.839300  -15.924800   77.242900
  C     12.187700  -17.243400   79.849400
  H     12.376400  -17.229700   80.941000
  H     13.182500  -17.309300   79.351300
  C     11.471000  -18.520200   79.394000
  H     10.437400  -18.480700   79.625500
  H     11.394400  -18.399800   78.347200
  C     12.116100  -19.859000   79.574700
  H     12.230500  -20.039900   80.604600
  H     11.555100  -20.772200   79.237600
  H     13.097700  -19.943000   79.151700
  S     12.011500  -12.829000   75.931900
  C     11.133100  -12.430500   74.513600
  C      9.805580  -12.833300   74.581900
  C      9.500310  -13.536700   75.775300
  C     10.607600  -13.644500   76.622300
  H      9.118450  -12.553200   73.761600
  C      8.161660  -14.100200   76.036300
  H      7.460440  -13.210300   76.013700
  H      8.113200  -14.488600   77.055100
  C      7.662530  -15.243900   75.024900
  H      8.422740  -16.064700   75.034700
  H      7.561580  -14.948800   74.015200
  C      6.345470  -15.901400   75.591200
  H      6.253330  -16.798500   74.980200
  H      5.430570  -15.246600   75.587500
  H      6.480030  -16.223800   76.597100
  H     10.941700  -14.894200   81.361100
  H     11.538200  -11.997300   73.577000

 Total Charge           Charge          ....    0
 Multiplicity           Mult            ....    1
 Number of Electrons    NEL             ....  134
 Basis Dimension        Dim             ....  322

ORBITAL ENERGIES
----------------

  NO   OCC          E(Eh)            E(eV)
   0   2.0000     -88.965906     -2420.8854
   1   2.0000     -88.965360     -2420.8705
   2   2.0000     -10.326372      -280.9949
   3   2.0000     -10.321951      -280.8746
   4   2.0000     -10.318488      -280.7803
   5   2.0000     -10.315940      -280.7110
   6   2.0000     -10.313313      -280.6395
   7   2.0000     -10.300709      -280.2965
   8   2.0000     -10.300385      -280.2877
   9   2.0000     -10.294177      -280.1188
  10   2.0000     -10.293771      -280.1077
  11   2.0000     -10.293359      -280.0965
  12   2.0000     -10.292057      -280.0611
  13   2.0000     -10.280089      -279.7354
  14   2.0000     -10.278970      -279.7050
  15   2.0000     -10.276679      -279.6426
  16   2.0000      -8.080336      -219.8771
  17   2.0000      -8.079886      -219.8649
  18   2.0000      -6.038737      -164.3224
  19   2.0000      -6.038425      -164.3139
  20   2.0000      -6.034743      -164.2137
  21   2.0000      -6.034442      -164.2055
  22   2.0000      -6.031264      -164.1190
  23   2.0000      -6.030721      -164.1043
  24   2.0000      -1.003648       -27.3107
  25   2.0000      -0.978087       -26.6151
  26   2.0000      -0.913512       -24.8579
  27   2.0000      -0.900665       -24.5083
  28   2.0000      -0.870846       -23.6969
  29   2.0000      -0.849911       -23.1273
  30   2.0000      -0.847143       -23.0519
  31   2.0000      -0.810072       -22.0432
  32   2.0000      -0.784643       -21.3512
  33   2.0000      -0.768336       -20.9075
  34   2.0000      -0.710586       -19.3360
  35   2.0000      -0.705678       -19.2025
  36   2.0000      -0.696297       -18.9472
  37   2.0000      -0.658998       -17.9323
  38   2.0000      -0.647816       -17.6280
  39   2.0000      -0.614184       -16.7128
  40   2.0000      -0.592390       -16.1198
  41   2.0000      -0.571084       -15.5400
  42   2.0000      -0.560474       -15.2513
  43   2.0000      -0.553722       -15.0676
  44   2.0000      -0.527558       -14.3556
  45   2.0000      -0.520088       -14.1523
  46   2.0000      -0.518903       -14.1201
  47   2.0000      -0.513351       -13.9690
  48   2.0000      -0.508963       -13.8496
  49   2.0000      -0.498946       -13.5770
  50   2.0000      -0.489009       -13.3066
  51   2.0000      -0.477867       -13.0034
  52   2.0000      -0.470829       -12.8119
  53   2.0000      -0.463350       -12.6084
  54   2.0000      -0.457828       -12.4581
  55   2.0000      -0.454706       -12.3732
  56   2.0000      -0.441951       -12.0261
  57   2.0000      -0.440182       -11.9780
  58   2.0000      -0.432272       -11.7627
  59   2.0000      -0.426234       -11.5984
  60   2.0000      -0.424750       -11.5580
  61   2.0000      -0.415844       -11.3157
  62   2.0000      -0.409228       -11.1357
  63   2.0000      -0.333574        -9.0770
  64   2.0000      -0.326426        -8.8825
  65   2.0000      -0.322084        -8.7643
  66   2.0000      -0.307311        -8.3624
  67   0.0000       0.040852         1.1116
  68   0.0000       0.057401         1.5620
  69   0.0000       0.112720         3.0673
  70   0.0000       0.113837         3.0977
  71   0.0000       0.122943         3.3454

MULLIKEN ATOMIC CHARGES
-----------------------
   0 S :    0.102884
   1 C :   -0.105395
   2 C :   -0.042698
   3 C :    0.027893
   4 C :   -0.168346
   5 H :    0.005773
   6 C :    0.057012
   7 H :    0.022861
   8 H :    0.031194
   9 C :   -0.028692
  10 H :    0.015646
  11 H :    0.004877
  12 C :   -0.030223
  13 H :    0.013875
  14 H :    0.041915
  15 H :    0.024034
  16 S :    0.128423
  17 C :   -0.105833
  18 C :   -0.057724
  19 C :    0.009246
  20 C :   -0.201385
  21 H :    0.028967
  22 C :    0.050007
  23 H :    0.042001
  24 H :    0.021056
  25 C :   -0.087005
  26 H :    0.037051
  27 H :    0.030167
  28 C :   -0.051459
  29 H :    0.034976
  30 H :    0.045051
  31 H :    0.025531
  32 H :    0.011168
  33 H :    0.067152
Sum of atomic charges:    0.0000000

LOEWDIN ATOMIC CHARGES
----------------------
   0 S :    0.386212
   1 C :   -0.153089
   2 C :   -0.053538
   3 C :   -0.055581
   4 C :   -0.208920
   5 H :    0.025526
   6 C :   -0.031442
   7 H :    0.028260
   8 H :    0.037317
   9 C :   -0.045879
  10 H :    0.021986
  11 H :    0.020716
  12 C :   -0.062918
  13 H :    0.017367
  14 H :    0.039151
  15 H :    0.023805
  16 S :    0.422300
  17 C :   -0.202413
  18 C :   -0.080161
  19 C :   -0.055435
  20 C :   -0.207680
  21 H :    0.036791
  22 C :   -0.037047
  23 H :    0.040206
  24 H :    0.028384
  25 C :   -0.029260
  26 H :    0.030154
  27 H :    0.015209
  28 C :   -0.066300
  29 H :    0.027573
  30 H :    0.029976
  31 H :    0.019788
  32 H :    0.001439
  33 H :    0.037503

  Mayer bond orders larger than 0.100000
B(  0-S ,  1-C ) :   1.1360 B(  0-S ,  4-C ) :   1.1379 B(  1-C ,  2-C ) :   1.5954
B(  1-C , 32-H ) :   0.9910 B(  2-C ,  3-C ) :   1.2067 B(  2-C ,  6-C ) :   1.0381
B(  3-C ,  4-C ) :   1.5999 B(  3-C ,  5-H ) :   0.9934 B(  4-C , 20-C ) :   1.0334
B(  6-C ,  7-H ) :   0.9414 B(  6-C ,  8-H ) :   0.9322 B(  6-C ,  9-C ) :   1.0586
B(  9-C , 10-H ) :   0.9501 B(  9-C , 11-H ) :   0.9444 B(  9-C , 12-C ) :   1.0881
B( 12-C , 13-H ) :   0.9751 B( 12-C , 14-H ) :   0.9708 B( 12-C , 15-H ) :   0.9709
B( 16-S , 17-C ) :   1.1721 B( 16-S , 20-C ) :   1.1433 B( 17-C , 18-C ) :   1.6001
B( 17-C , 20-C ) :   0.1003 B( 17-C , 33-H ) :   0.9601 B( 18-C , 19-C ) :   1.2446
B( 18-C , 21-H ) :   0.9873 B( 19-C , 20-C ) :   1.5744 B( 19-C , 22-C ) :   1.0676
B( 22-C , 23-H ) :   0.9289 B( 22-C , 24-H ) :   0.9307 B( 22-C , 25-C ) :   1.0466
B( 25-C , 26-H ) :   0.9587 B( 25-C , 27-H ) :   0.9608 B( 25-C , 28-C ) :   1.0761
B( 28-C , 29-H ) :   0.9769 B( 28-C , 30-H ) :   0.9770 B( 28-C , 31-H ) :   0.9760

Dispersion correction           -0.013661526
FINAL SINGLE POINT ENERGY     -1339.872756918968

DIPOLE MOMENT
-------------
                                X             Y             Z
Electronic contribution:     10.30704      25.67967       1.04739
Nuclear contribution   :    -10.48820     -26.23049      -1.25480
                        -----------------------------------------
Total Dipole Moment    :     -0.18115      -0.55082      -0.20741
                        -----------------------------------------
Magnitude (a.u.)       :      0.61583
Magnitude (Debye)      :      1.56531

Rotational constants in cm-1:     0.016161     0.008171     0.006861
Rotational constants in MHz :   484.497752   244.970017   205.673106

                             ****ORCA TERMINATED NORMALLY****
TOTAL RUN TIME: 0 days 0 hours 0 minutes 27 seconds 284 msec
