                         Program Version 4.2.1 -  RELEASE  -
|  1> ! wB97X-D3 SP def2-SVP
|  2> %pal
|  3> nprocs 16
|  4> end
|  5>
|  6> * xyz 0 1
|  7> S 	 -98.1557 	 46.4981 	 121
|  8> C 	 -96.5576 	 45.8263 	 120.919
|  9> C 	 -96.415 	 44.7443 	 121.807
| 10> C 	 -97.6906 	 44.4372 	 122.438
| 11> C 	 -98.7529 	 45.197 	 122.005
| 12> H 	 -97.8791 	 43.6386 	 123.122
| 13> C 	 -95.1292 	 43.9627 	 122.06
| 14> H 	 -94.6825 	 44.0463 	 123.024
| 15> H 	 -94.3986 	 44.5149 	 121.554
| 16> C 	 -95.1043 	 42.4751 	 121.577
| 17> H 	 -95.767 	 41.8716 	 122.161
| 18> H 	 -95.326 	 42.3889 	 120.507
| 19> C 	 -93.6877 	 41.9523 	 121.752
| 20> H 	 -93.5521 	 41.2207 	 121.007
| 21> H 	 -92.9232 	 42.6992 	 121.616
| 22> H 	 -93.508 	 41.4767 	 122.696
| 23> S 	 -100.745 	 46.7353 	 123.014
| 24> C 	 -102.21 	 46.05 	 123.735
| 25> C 	 -101.986 	 44.6558 	 123.892
| 26> C 	 -100.912 	 44.1495 	 123.144
| 27> C 	 -100.097 	 45.1242 	 122.528
| 28> H 	 -102.798 	 44.0688 	 124.224
| 29> C 	 -100.747 	 42.6246 	 123.135
| 30> H 	 -100.204 	 42.2901 	 122.271
| 31> H 	 -101.749 	 42.3086 	 123.073
| 32> C 	 -100.212 	 42.0275 	 124.483
| 33> H 	 -100.912 	 42.2441 	 125.349
| 34> H 	 -99.1637 	 42.3812 	 124.693
| 35> C 	 -100.082 	 40.5143 	 124.387
| 36> H 	 -101.068 	 40.1207 	 124.199
| 37> H 	 -99.7101 	 40.085 	 125.322
| 38> H 	 -99.3779 	 40.2837 	 123.627
| 39> H 	 -95.7183 	 46.1045 	 120.269
| 40> H 	 -102.779 	 46.6082 	 124.396
| 41> *
| 42>
| 43>                          ****END OF INPUT****

CARTESIAN COORDINATES (ANGSTROEM)
---------------------------------
  S    -98.155700   46.498100  121.000000
  C    -96.557600   45.826300  120.919000
  C    -96.415000   44.744300  121.807000
  C    -97.690600   44.437200  122.438000
  C    -98.752900   45.197000  122.005000
  H    -97.879100   43.638600  123.122000
  C    -95.129200   43.962700  122.060000
  H    -94.682500   44.046300  123.024000
  H    -94.398600   44.514900  121.554000
  C    -95.104300   42.475100  121.577000
  H    -95.767000   41.871600  122.161000
  H    -95.326000   42.388900  120.507000
  C    -93.687700   41.952300  121.752000
  H    -93.552100   41.220700  121.007000
  H    -92.923200   42.699200  121.616000
  H    -93.508000   41.476700  122.696000
  S    -100.745000   46.735300  123.014000
  C    -102.210000   46.050000  123.735000
  C    -101.986000   44.655800  123.892000
  C    -100.912000   44.149500  123.144000
  C    -100.097000   45.124200  122.528000
  H    -102.798000   44.068800  124.224000
  C    -100.747000   42.624600  123.135000
  H    -100.204000   42.290100  122.271000
  H    -101.749000   42.308600  123.073000
  C    -100.212000   42.027500  124.483000
  H    -100.912000   42.244100  125.349000
  H    -99.163700   42.381200  124.693000
  C    -100.082000   40.514300  124.387000
  H    -101.068000   40.120700  124.199000
  H    -99.710100   40.085000  125.322000
  H    -99.377900   40.283700  123.627000
  H    -95.718300   46.104500  120.269000
  H    -102.779000   46.608200  124.396000

 Total Charge           Charge          ....    0
 Multiplicity           Mult            ....    1
 Number of Electrons    NEL             ....  134
 Basis Dimension        Dim             ....  322

ORBITAL ENERGIES
----------------

  NO   OCC          E(Eh)            E(eV)
   0   2.0000     -88.968880     -2420.9663
   1   2.0000     -88.962806     -2420.8010
   2   2.0000     -10.335455      -281.2420
   3   2.0000     -10.330114      -281.0967
   4   2.0000     -10.318582      -280.7829
   5   2.0000     -10.317584      -280.7557
   6   2.0000     -10.307250      -280.4745
   7   2.0000     -10.306640      -280.4579
   8   2.0000     -10.297776      -280.2167
   9   2.0000     -10.293772      -280.1078
  10   2.0000     -10.292909      -280.0843
  11   2.0000     -10.291867      -280.0560
  12   2.0000     -10.288326      -279.9596
  13   2.0000     -10.287758      -279.9441
  14   2.0000     -10.275112      -279.6000
  15   2.0000     -10.269812      -279.4558
  16   2.0000      -8.083521      -219.9638
  17   2.0000      -8.076654      -219.7769
  18   2.0000      -6.042202      -164.4167
  19   2.0000      -6.038027      -164.3031
  20   2.0000      -6.035120      -164.2240
  21   2.0000      -6.034099      -164.1962
  22   2.0000      -6.031195      -164.1172
  23   2.0000      -6.027577      -164.0187
  24   2.0000      -1.004399       -27.3311
  25   2.0000      -0.979026       -26.6407
  26   2.0000      -0.913766       -24.8648
  27   2.0000      -0.908929       -24.7332
  28   2.0000      -0.872819       -23.7506
  29   2.0000      -0.855054       -23.2672
  30   2.0000      -0.847504       -23.0617
  31   2.0000      -0.814180       -22.1550
  32   2.0000      -0.781483       -21.2652
  33   2.0000      -0.772688       -21.0259
  34   2.0000      -0.711020       -19.3478
  35   2.0000      -0.700012       -19.0483
  36   2.0000      -0.692594       -18.8464
  37   2.0000      -0.670245       -18.2383
  38   2.0000      -0.643411       -17.5081
  39   2.0000      -0.619053       -16.8453
  40   2.0000      -0.594584       -16.1795
  41   2.0000      -0.576046       -15.6750
  42   2.0000      -0.572810       -15.5869
  43   2.0000      -0.561914       -15.2905
  44   2.0000      -0.530601       -14.4384
  45   2.0000      -0.529940       -14.4204
  46   2.0000      -0.519926       -14.1479
  47   2.0000      -0.509778       -13.8718
  48   2.0000      -0.507553       -13.8112
  49   2.0000      -0.499757       -13.5991
  50   2.0000      -0.498953       -13.5772
  51   2.0000      -0.481763       -13.1094
  52   2.0000      -0.473977       -12.8976
  53   2.0000      -0.462624       -12.5886
  54   2.0000      -0.458935       -12.4883
  55   2.0000      -0.445352       -12.1186
  56   2.0000      -0.442753       -12.0479
  57   2.0000      -0.438424       -11.9301
  58   2.0000      -0.435250       -11.8437
  59   2.0000      -0.427277       -11.6268
  60   2.0000      -0.424839       -11.5604
  61   2.0000      -0.420929       -11.4541
  62   2.0000      -0.409249       -11.1362
  63   2.0000      -0.356735        -9.7073
  64   2.0000      -0.330178        -8.9846
  65   2.0000      -0.327174        -8.9029
  66   2.0000      -0.284157        -7.7323
  67   0.0000       0.015992         0.4352
  68   0.0000       0.065825         1.7912
  69   0.0000       0.099533         2.7084
  70   0.0000       0.121405         3.3036
  71   0.0000       0.125962         3.4276

MULLIKEN ATOMIC CHARGES
-----------------------
   0 S :    0.118451
   1 C :   -0.108092
   2 C :   -0.102799
   3 C :    0.041398
   4 C :   -0.136275
   5 H :   -0.018851
   6 C :    0.087416
   7 H :    0.026907
   8 H :   -0.018855
   9 C :   -0.062814
  10 H :    0.028342
  11 H :    0.036880
  12 C :   -0.025639
  13 H :    0.018535
  14 H :    0.021467
  15 H :    0.027944
  16 S :    0.059711
  17 C :   -0.059359
  18 C :   -0.048051
  19 C :   -0.064266
  20 C :   -0.094990
  21 H :    0.020556
  22 C :    0.082335
  23 H :    0.026339
  24 H :    0.008859
  25 C :   -0.125627
  26 H :    0.043531
  27 H :    0.040914
  28 C :   -0.015259
  29 H :    0.024352
  30 H :    0.034429
  31 H :    0.023974
  32 H :    0.056560
  33 H :    0.051974
Sum of atomic charges:    0.0000000

LOEWDIN ATOMIC CHARGES
----------------------
   0 S :    0.413034
   1 C :   -0.206138
   2 C :   -0.057586
   3 C :   -0.056890
   4 C :   -0.201305
   5 H :    0.023022
   6 C :   -0.034643
   7 H :    0.031775
   8 H :    0.020880
   9 C :   -0.028315
  10 H :    0.020158
  11 H :    0.028132
  12 C :   -0.059820
  13 H :    0.021777
  14 H :    0.022066
  15 H :    0.023007
  16 S :    0.381364
  17 C :   -0.171258
  18 C :   -0.065389
  19 C :   -0.058130
  20 C :   -0.172316
  21 H :    0.025259
  22 C :   -0.025033
  23 H :    0.027849
  24 H :    0.025659
  25 C :   -0.041202
  26 H :    0.030714
  27 H :    0.023612
  28 C :   -0.060490
  29 H :    0.021252
  30 H :    0.027423
  31 H :    0.019238
  32 H :    0.036370
  33 H :    0.015921

  Mayer bond orders larger than 0.100000
B(  0-S ,  1-C ) :   1.1368 B(  0-S ,  4-C ) :   1.1396 B(  1-C ,  2-C ) :   1.6135
B(  1-C , 32-H ) :   0.9602 B(  2-C ,  3-C ) :   1.2335 B(  2-C ,  6-C ) :   1.0290
B(  3-C ,  4-C ) :   1.5677 B(  3-C ,  5-H ) :   0.9980 B(  4-C , 20-C ) :   1.0625
B(  6-C ,  7-H ) :   0.9384 B(  6-C ,  8-H ) :   0.9267 B(  6-C ,  9-C ) :   1.0613
B(  9-C , 10-H ) :   0.9573 B(  9-C , 11-H ) :   0.9636 B(  9-C , 12-C ) :   1.0792
B( 12-C , 13-H ) :   0.9757 B( 12-C , 14-H ) :   0.9751 B( 12-C , 15-H ) :   0.9747
B( 16-S , 17-C ) :   1.1689 B( 16-S , 20-C ) :   1.1375 B( 17-C , 18-C ) :   1.5748
B( 17-C , 20-C ) :   0.1142 B( 17-C , 33-H ) :   0.9679 B( 18-C , 19-C ) :   1.2965
B( 18-C , 21-H ) :   0.9790 B( 19-C , 20-C ) :   1.5631 B( 19-C , 22-C ) :   1.0346
B( 22-C , 23-H ) :   0.9464 B( 22-C , 24-H ) :   0.9282 B( 22-C , 25-C ) :   1.0594
B( 25-C , 26-H ) :   0.9527 B( 25-C , 27-H ) :   0.9556 B( 25-C , 28-C ) :   1.0857
B( 28-C , 29-H ) :   0.9739 B( 28-C , 30-H ) :   0.9733 B( 28-C , 31-H ) :   0.9743

Dispersion correction           -0.013531459
FINAL SINGLE POINT ENERGY     -1339.853498731039

DIPOLE MOMENT
-------------
                                X             Y             Z
Electronic contribution:    -14.25650      29.41372      -6.55953
Nuclear contribution   :     14.61671     -30.18788       6.90199
                        -----------------------------------------
Total Dipole Moment    :      0.36021      -0.77416       0.34246
                        -----------------------------------------
Magnitude (a.u.)       :      0.91997
Magnitude (Debye)      :      2.33839

Rotational constants in cm-1:     0.016619     0.009234     0.006165
Rotational constants in MHz :   498.230614   276.825694   184.815242

                             ****ORCA TERMINATED NORMALLY****
TOTAL RUN TIME: 0 days 0 hours 0 minutes 30 seconds 998 msec
