                         Program Version 4.2.1 -  RELEASE  -
|  1> ! wB97X-D3 SP def2-SVP
|  2> %pal
|  3> nprocs 16
|  4> end
|  5>
|  6> * xyz 0 1
|  7> S 	 -42.5303 	 51.729 	 103.384
|  8> C 	 -42.3678 	 52.5223 	 101.81
|  9> C 	 -41.4745 	 53.594 	 101.779
| 10> C 	 -41.0699 	 53.8916 	 103.115
| 11> C 	 -41.3377 	 52.8668 	 104.002
| 12> H 	 -40.4122 	 54.619 	 103.449
| 13> C 	 -41.0388 	 54.3832 	 100.539
| 14> H 	 -41.3797 	 54.0268 	 99.5806
| 15> H 	 -40.0289 	 54.1094 	 100.417
| 16> C 	 -41.3819 	 55.9277 	 100.664
| 17> H 	 -42.321 	 56.2092 	 100.972
| 18> H 	 -40.7464 	 56.336 	 101.476
| 19> C 	 -41.2097 	 56.6176 	 99.2762
| 20> H 	 -41.3197 	 57.735 	 99.3649
| 21> H 	 -40.2064 	 56.4941 	 98.7902
| 22> H 	 -41.9198 	 56.3699 	 98.531
| 23> S 	 -41.7133 	 53.1258 	 106.744
| 24> C 	 -40.3921 	 52.5574 	 107.851
| 25> C 	 -39.2089 	 52.3984 	 107.225
| 26> C 	 -39.422 	 52.4764 	 105.764
| 27> C 	 -40.7354 	 52.7126 	 105.333
| 28> H 	 -38.3467 	 52.1474 	 107.845
| 29> C 	 -38.1916 	 52.4986 	 104.972
| 30> H 	 -38.3886 	 51.8546 	 104.103
| 31> H 	 -37.3711 	 52.0898 	 105.565
| 32> C 	 -37.7683 	 53.8851 	 104.559
| 33> H 	 -37.9437 	 54.5072 	 105.482
| 34> H 	 -38.3052 	 54.1736 	 103.685
| 35> C 	 -36.1987 	 53.9073 	 104.262
| 36> H 	 -35.5707 	 53.6891 	 105.16
| 37> H 	 -35.9721 	 54.891 	 103.779
| 38> H 	 -35.9483 	 53.1783 	 103.546
| 39> H 	 -42.7486 	 52.0787 	 100.892
| 40> H 	 -40.5311 	 52.5061 	 108.925
| 41> *
| 42>
| 43>                          ****END OF INPUT****

CARTESIAN COORDINATES (ANGSTROEM)
---------------------------------
  S    -42.530300   51.729000  103.384000
  C    -42.367800   52.522300  101.810000
  C    -41.474500   53.594000  101.779000
  C    -41.069900   53.891600  103.115000
  C    -41.337700   52.866800  104.002000
  H    -40.412200   54.619000  103.449000
  C    -41.038800   54.383200  100.539000
  H    -41.379700   54.026800   99.580600
  H    -40.028900   54.109400  100.417000
  C    -41.381900   55.927700  100.664000
  H    -42.321000   56.209200  100.972000
  H    -40.746400   56.336000  101.476000
  C    -41.209700   56.617600   99.276200
  H    -41.319700   57.735000   99.364900
  H    -40.206400   56.494100   98.790200
  H    -41.919800   56.369900   98.531000
  S    -41.713300   53.125800  106.744000
  C    -40.392100   52.557400  107.851000
  C    -39.208900   52.398400  107.225000
  C    -39.422000   52.476400  105.764000
  C    -40.735400   52.712600  105.333000
  H    -38.346700   52.147400  107.845000
  C    -38.191600   52.498600  104.972000
  H    -38.388600   51.854600  104.103000
  H    -37.371100   52.089800  105.565000
  C    -37.768300   53.885100  104.559000
  H    -37.943700   54.507200  105.482000
  H    -38.305200   54.173600  103.685000
  C    -36.198700   53.907300  104.262000
  H    -35.570700   53.689100  105.160000
  H    -35.972100   54.891000  103.779000
  H    -35.948300   53.178300  103.546000
  H    -42.748600   52.078700  100.892000
  H    -40.531100   52.506100  108.925000

 Total Charge           Charge          ....    0
 Multiplicity           Mult            ....    1
 Number of Electrons    NEL             ....  134
 Basis Dimension        Dim             ....  322

ORBITAL ENERGIES
----------------

  NO   OCC          E(Eh)            E(eV)
   0   2.0000     -88.968041     -2420.9435
   1   2.0000     -88.958096     -2420.6729
   2   2.0000     -10.330204      -281.0991
   3   2.0000     -10.327094      -281.0145
   4   2.0000     -10.318288      -280.7749
   5   2.0000     -10.314635      -280.6755
   6   2.0000     -10.306889      -280.4647
   7   2.0000     -10.305834      -280.4360
   8   2.0000     -10.297385      -280.2061
   9   2.0000     -10.296064      -280.1701
  10   2.0000     -10.293860      -280.1102
  11   2.0000     -10.291754      -280.0529
  12   2.0000     -10.288703      -279.9699
  13   2.0000     -10.285305      -279.8774
  14   2.0000     -10.282918      -279.8124
  15   2.0000     -10.280549      -279.7480
  16   2.0000      -8.082284      -219.9301
  17   2.0000      -8.072166      -219.6548
  18   2.0000      -6.040707      -164.3760
  19   2.0000      -6.037049      -164.2764
  20   2.0000      -6.032967      -164.1654
  21   2.0000      -6.030937      -164.1101
  22   2.0000      -6.026979      -164.0024
  23   2.0000      -6.022480      -163.8800
  24   2.0000      -1.000570       -27.2269
  25   2.0000      -0.977892       -26.6098
  26   2.0000      -0.910980       -24.7890
  27   2.0000      -0.906168       -24.6581
  28   2.0000      -0.868028       -23.6202
  29   2.0000      -0.849873       -23.1262
  30   2.0000      -0.838761       -22.8238
  31   2.0000      -0.817789       -22.2532
  32   2.0000      -0.782350       -21.2888
  33   2.0000      -0.763585       -20.7782
  34   2.0000      -0.718174       -19.5425
  35   2.0000      -0.703773       -19.1506
  36   2.0000      -0.687621       -18.7111
  37   2.0000      -0.659588       -17.9483
  38   2.0000      -0.648678       -17.6514
  39   2.0000      -0.621432       -16.9100
  40   2.0000      -0.589161       -16.0319
  41   2.0000      -0.575178       -15.6514
  42   2.0000      -0.566256       -15.4086
  43   2.0000      -0.554767       -15.0960
  44   2.0000      -0.531096       -14.4519
  45   2.0000      -0.518278       -14.1031
  46   2.0000      -0.511807       -13.9270
  47   2.0000      -0.509740       -13.8707
  48   2.0000      -0.506285       -13.7767
  49   2.0000      -0.502092       -13.6626
  50   2.0000      -0.488106       -13.2820
  51   2.0000      -0.476898       -12.9770
  52   2.0000      -0.470001       -12.7894
  53   2.0000      -0.462021       -12.5722
  54   2.0000      -0.455488       -12.3945
  55   2.0000      -0.449062       -12.2196
  56   2.0000      -0.448282       -12.1984
  57   2.0000      -0.441229       -12.0064
  58   2.0000      -0.437680       -11.9099
  59   2.0000      -0.431544       -11.7429
  60   2.0000      -0.423474       -11.5233
  61   2.0000      -0.409121       -11.1328
  62   2.0000      -0.406208       -11.0535
  63   2.0000      -0.339114        -9.2278
  64   2.0000      -0.331972        -9.0334
  65   2.0000      -0.315240        -8.5781
  66   2.0000      -0.300775        -8.1845
  67   0.0000       0.034259         0.9322
  68   0.0000       0.057576         1.5667
  69   0.0000       0.103522         2.8170
  70   0.0000       0.117209         3.1894
  71   0.0000       0.127071         3.4578

MULLIKEN ATOMIC CHARGES
-----------------------
   0 S :    0.124552
   1 C :   -0.113316
   2 C :   -0.098525
   3 C :    0.068873
   4 C :   -0.182023
   5 H :   -0.006271
   6 C :    0.110918
   7 H :    0.002103
   8 H :    0.024324
   9 C :   -0.043275
  10 H :    0.022469
  11 H :    0.037921
  12 C :   -0.089340
  13 H :    0.035335
  14 H :    0.034525
  15 H :    0.033971
  16 S :    0.075850
  17 C :   -0.090484
  18 C :   -0.028584
  19 C :   -0.058557
  20 C :   -0.151431
  21 H :    0.035575
  22 C :    0.074238
  23 H :    0.033473
  24 H :    0.008163
  25 C :   -0.081321
  26 H :    0.043369
  27 H :    0.033499
  28 C :   -0.063522
  29 H :    0.044551
  30 H :    0.039947
  31 H :    0.021028
  32 H :    0.047249
  33 H :    0.054717
Sum of atomic charges:   -0.0000000

LOEWDIN ATOMIC CHARGES
----------------------
   0 S :    0.397080
   1 C :   -0.193493
   2 C :   -0.054859
   3 C :   -0.049338
   4 C :   -0.190203
   5 H :    0.017827
   6 C :   -0.024699
   7 H :    0.026900
   8 H :    0.030810
   9 C :   -0.026938
  10 H :    0.018034
  11 H :    0.029130
  12 C :   -0.074731
  13 H :    0.031879
  14 H :    0.027523
  15 H :    0.019733
  16 S :    0.357970
  17 C :   -0.151189
  18 C :   -0.076879
  19 C :   -0.045513
  20 C :   -0.204534
  21 H :    0.041366
  22 C :   -0.043522
  23 H :    0.034620
  24 H :    0.026855
  25 C :   -0.033078
  26 H :    0.032458
  27 H :    0.017652
  28 C :   -0.067888
  29 H :    0.029437
  30 H :    0.030661
  31 H :    0.015331
  32 H :    0.025214
  33 H :    0.026388

  Mayer bond orders larger than 0.100000
B(  0-S ,  1-C ) :   1.1313 B(  0-S ,  4-C ) :   1.1466 B(  1-C ,  2-C ) :   1.6425
B(  1-C , 32-H ) :   0.9609 B(  2-C ,  3-C ) :   1.2084 B(  2-C ,  6-C ) :   1.0174
B(  3-C ,  4-C ) :   1.6087 B(  3-C ,  5-H ) :   0.9905 B(  4-C , 20-C ) :   1.0284
B(  6-C ,  7-H ) :   0.9452 B(  6-C ,  8-H ) :   0.9323 B(  6-C ,  9-C ) :   1.0355
B(  9-C , 10-H ) :   0.9643 B(  9-C , 11-H ) :   0.9572 B(  9-C , 12-C ) :   1.0775
B( 12-C , 13-H ) :   0.9747 B( 12-C , 14-H ) :   0.9768 B( 12-C , 15-H ) :   0.9770
B( 16-S , 17-C ) :   1.1319 B( 16-S , 20-C ) :   1.1118 B( 17-C , 18-C ) :   1.6694
B( 17-C , 33-H ) :   0.9635 B( 18-C , 19-C ) :   1.1762 B( 18-C , 21-H ) :   0.9883
B( 19-C , 20-C ) :   1.6303 B( 19-C , 22-C ) :   1.0793 B( 22-C , 23-H ) :   0.9112
B( 22-C , 24-H ) :   0.9361 B( 22-C , 25-C ) :   1.0646 B( 25-C , 26-H ) :   0.9588
B( 25-C , 27-H ) :   0.9440 B( 25-C , 28-C ) :   1.0794 B( 28-C , 29-H ) :   0.9762
B( 28-C , 30-H ) :   0.9758 B( 28-C , 31-H ) :   0.9747

Dispersion correction           -0.014474106
FINAL SINGLE POINT ENERGY     -1339.842783952969

DIPOLE MOMENT
-------------
                                X             Y             Z
Electronic contribution:    -19.23445     -15.60860      18.14315
Nuclear contribution   :     19.89102      15.88331     -18.52195
                        -----------------------------------------
Total Dipole Moment    :      0.65656       0.27471      -0.37879
                        -----------------------------------------
Magnitude (a.u.)       :      0.80624
Magnitude (Debye)      :      2.04931

Rotational constants in cm-1:     0.017582     0.008678     0.006702
Rotational constants in MHz :   527.090325   260.169450   200.922631

                             ****ORCA TERMINATED NORMALLY****
TOTAL RUN TIME: 0 days 0 hours 0 minutes 29 seconds 991 msec
