                         Program Version 4.2.1 -  RELEASE  -
|  1> ! wB97X-D3 SP def2-SVP
|  2> %pal
|  3> nprocs 16
|  4> end
|  5>
|  6> * xyz 0 1
|  7> S 	 -2.00742 	 -9.37779 	 85.2472
|  8> C 	 -1.30476 	 -10.9005 	 85.7531
|  9> C 	 -1.90974 	 -11.348 	 86.8979
| 10> C 	 -2.64027 	 -10.3029 	 87.5508
| 11> C 	 -2.76412 	 -9.14061 	 86.7832
| 12> H 	 -3.11723 	 -10.2838 	 88.5
| 13> C 	 -1.75562 	 -12.7025 	 87.537
| 14> H 	 -0.762731 	 -13.059 	 87.1806
| 15> H 	 -2.5188 	 -13.3247 	 87.1422
| 16> C 	 -1.68935 	 -12.6612 	 89.0832
| 17> H 	 -0.779513 	 -12.0486 	 89.4461
| 18> H 	 -2.68258 	 -12.3248 	 89.5227
| 19> C 	 -1.51875 	 -14.0589 	 89.6124
| 20> H 	 -1.06977 	 -14.1717 	 90.54
| 21> H 	 -2.52814 	 -14.5224 	 89.7372
| 22> H 	 -0.912508 	 -14.7652 	 88.9048
| 23> S 	 -4.65546 	 -7.18343 	 85.9158
| 24> C 	 -5.23866 	 -6.13766 	 87.1583
| 25> C 	 -4.38147 	 -6.05841 	 88.2987
| 26> C 	 -3.34997 	 -7.07825 	 88.1637
| 27> C 	 -3.43065 	 -7.87744 	 87.0335
| 28> H 	 -4.52039 	 -5.36972 	 89.0523
| 29> C 	 -2.21565 	 -7.25912 	 89.2252
| 30> H 	 -1.83917 	 -6.1931 	 89.2981
| 31> H 	 -1.3498 	 -7.73097 	 88.7429
| 32> C 	 -2.72213 	 -7.81149 	 90.5703
| 33> H 	 -3.19766 	 -8.79651 	 90.3954
| 34> H 	 -3.48693 	 -7.04226 	 90.8772
| 35> C 	 -1.58581 	 -7.99666 	 91.5935
| 36> H 	 -0.732022 	 -8.49201 	 91.2829
| 37> H 	 -1.84626 	 -8.4485 	 92.5828
| 38> H 	 -1.2959 	 -7.00158 	 91.8588
| 39> H 	 -0.66886 	 -11.5416 	 85.1558
| 40> H 	 -6.14203 	 -5.62177 	 87.0606
| 41> *
| 42>
| 43>                          ****END OF INPUT****

CARTESIAN COORDINATES (ANGSTROEM)
---------------------------------
  S     -2.007420   -9.377790   85.247200
  C     -1.304760  -10.900500   85.753100
  C     -1.909740  -11.348000   86.897900
  C     -2.640270  -10.302900   87.550800
  C     -2.764120   -9.140610   86.783200
  H     -3.117230  -10.283800   88.500000
  C     -1.755620  -12.702500   87.537000
  H     -0.762731  -13.059000   87.180600
  H     -2.518800  -13.324700   87.142200
  C     -1.689350  -12.661200   89.083200
  H     -0.779513  -12.048600   89.446100
  H     -2.682580  -12.324800   89.522700
  C     -1.518750  -14.058900   89.612400
  H     -1.069770  -14.171700   90.540000
  H     -2.528140  -14.522400   89.737200
  H     -0.912508  -14.765200   88.904800
  S     -4.655460   -7.183430   85.915800
  C     -5.238660   -6.137660   87.158300
  C     -4.381470   -6.058410   88.298700
  C     -3.349970   -7.078250   88.163700
  C     -3.430650   -7.877440   87.033500
  H     -4.520390   -5.369720   89.052300
  C     -2.215650   -7.259120   89.225200
  H     -1.839170   -6.193100   89.298100
  H     -1.349800   -7.730970   88.742900
  C     -2.722130   -7.811490   90.570300
  H     -3.197660   -8.796510   90.395400
  H     -3.486930   -7.042260   90.877200
  C     -1.585810   -7.996660   91.593500
  H     -0.732022   -8.492010   91.282900
  H     -1.846260   -8.448500   92.582800
  H     -1.295900   -7.001580   91.858800
  H     -0.668860  -11.541600   85.155800
  H     -6.142030   -5.621770   87.060600

 Total Charge           Charge          ....    0
 Multiplicity           Mult            ....    1
 Number of Electrons    NEL             ....  134
 Basis Dimension        Dim             ....  322

ORBITAL ENERGIES
----------------

  NO   OCC          E(Eh)            E(eV)
   0   2.0000     -88.966547     -2420.9028
   1   2.0000     -88.961097     -2420.7545
   2   2.0000     -10.327251      -281.0188
   3   2.0000     -10.326249      -280.9915
   4   2.0000     -10.320637      -280.8388
   5   2.0000     -10.310415      -280.5607
   6   2.0000     -10.307683      -280.4863
   7   2.0000     -10.300836      -280.3000
   8   2.0000     -10.299097      -280.2527
   9   2.0000     -10.298734      -280.2428
  10   2.0000     -10.296966      -280.1947
  11   2.0000     -10.296270      -280.1758
  12   2.0000     -10.294583      -280.1298
  13   2.0000     -10.290820      -280.0275
  14   2.0000     -10.280536      -279.7476
  15   2.0000     -10.273783      -279.5639
  16   2.0000      -8.081141      -219.8990
  17   2.0000      -8.076452      -219.7714
  18   2.0000      -6.039624      -164.3465
  19   2.0000      -6.035776      -164.2418
  20   2.0000      -6.034953      -164.2194
  21   2.0000      -6.031833      -164.1345
  22   2.0000      -6.030884      -164.1087
  23   2.0000      -6.027181      -164.0079
  24   2.0000      -1.004255       -27.3272
  25   2.0000      -0.980477       -26.6801
  26   2.0000      -0.915030       -24.8992
  27   2.0000      -0.903716       -24.5914
  28   2.0000      -0.870343       -23.6832
  29   2.0000      -0.850323       -23.1385
  30   2.0000      -0.842307       -22.9203
  31   2.0000      -0.813085       -22.1252
  32   2.0000      -0.783207       -21.3121
  33   2.0000      -0.770978       -20.9794
  34   2.0000      -0.707978       -19.2651
  35   2.0000      -0.699072       -19.0227
  36   2.0000      -0.688449       -18.7336
  37   2.0000      -0.663359       -18.0509
  38   2.0000      -0.642716       -17.4892
  39   2.0000      -0.616994       -16.7893
  40   2.0000      -0.590101       -16.0575
  41   2.0000      -0.577294       -15.7090
  42   2.0000      -0.569438       -15.4952
  43   2.0000      -0.561015       -15.2660
  44   2.0000      -0.527301       -14.3486
  45   2.0000      -0.525808       -14.3080
  46   2.0000      -0.514958       -14.0127
  47   2.0000      -0.509314       -13.8591
  48   2.0000      -0.507029       -13.7970
  49   2.0000      -0.497060       -13.5257
  50   2.0000      -0.490393       -13.3443
  51   2.0000      -0.485214       -13.2034
  52   2.0000      -0.472253       -12.8507
  53   2.0000      -0.465456       -12.6657
  54   2.0000      -0.460693       -12.5361
  55   2.0000      -0.448993       -12.2177
  56   2.0000      -0.437113       -11.8944
  57   2.0000      -0.433513       -11.7965
  58   2.0000      -0.429759       -11.6943
  59   2.0000      -0.425969       -11.5912
  60   2.0000      -0.421150       -11.4601
  61   2.0000      -0.418167       -11.3789
  62   2.0000      -0.406507       -11.0616
  63   2.0000      -0.345573        -9.4035
  64   2.0000      -0.329895        -8.9769
  65   2.0000      -0.327483        -8.9113
  66   2.0000      -0.285457        -7.7677
  67   0.0000       0.030015         0.8168
  68   0.0000       0.057189         1.5562
  69   0.0000       0.110013         2.9936
  70   0.0000       0.121468         3.3053
  71   0.0000       0.130030         3.5383

MULLIKEN ATOMIC CHARGES
-----------------------
   0 S :    0.098159
   1 C :   -0.114895
   2 C :   -0.086482
   3 C :    0.041927
   4 C :   -0.168007
   5 H :   -0.015586
   6 C :    0.082428
   7 H :    0.024220
   8 H :    0.042714
   9 C :   -0.130256
  10 H :    0.056798
  11 H :    0.052595
  12 C :   -0.049085
  13 H :    0.020199
  14 H :    0.032534
  15 H :    0.033278
  16 S :    0.111116
  17 C :   -0.083946
  18 C :    0.003798
  19 C :   -0.059667
  20 C :   -0.128876
  21 H :   -0.003179
  22 C :    0.020147
  23 H :    0.032875
  24 H :    0.038323
  25 C :   -0.078367
  26 H :    0.038957
  27 H :    0.040983
  28 C :   -0.004766
  29 H :    0.020161
  30 H :    0.034119
  31 H :    0.011350
  32 H :    0.040706
  33 H :    0.045726
Sum of atomic charges:   -0.0000000

LOEWDIN ATOMIC CHARGES
----------------------
   0 S :    0.407230
   1 C :   -0.200101
   2 C :   -0.062666
   3 C :   -0.062657
   4 C :   -0.190412
   5 H :    0.023033
   6 C :   -0.027464
   7 H :    0.035120
   8 H :    0.031875
   9 C :   -0.051190
  10 H :    0.038362
  11 H :    0.032990
  12 C :   -0.073847
  13 H :    0.013369
  14 H :    0.029212
  15 H :    0.031609
  16 S :    0.394215
  17 C :   -0.170056
  18 C :   -0.062231
  19 C :   -0.046754
  20 C :   -0.201321
  21 H :    0.018139
  22 C :   -0.037461
  23 H :    0.036363
  24 H :    0.030000
  25 C :   -0.040292
  26 H :    0.023175
  27 H :    0.032999
  28 C :   -0.064183
  29 H :    0.016059
  30 H :    0.031314
  31 H :    0.022681
  32 H :    0.026481
  33 H :    0.016411

  Mayer bond orders larger than 0.100000
B(  0-S ,  1-C ) :   1.1318 B(  0-S ,  4-C ) :   1.1574 B(  1-C ,  2-C ) :   1.6288
B(  1-C ,  4-C ) :   0.1010 B(  1-C , 32-H ) :   0.9694 B(  2-C ,  3-C ) :   1.2153
B(  2-C ,  6-C ) :   1.0088 B(  3-C ,  4-C ) :   1.5740 B(  3-C ,  5-H ) :   1.0021
B(  4-C , 20-C ) :   1.0450 B(  6-C ,  7-H ) :   0.9409 B(  6-C ,  8-H ) :   0.9312
B(  6-C ,  9-C ) :   1.0806 B(  9-C , 10-H ) :   0.9590 B(  9-C , 11-H ) :   0.9476
B(  9-C , 12-C ) :   1.0748 B( 12-C , 13-H ) :   0.9737 B( 12-C , 14-H ) :   0.9763
B( 12-C , 15-H ) :   0.9718 B( 16-S , 17-C ) :   1.1819 B( 16-S , 20-C ) :   1.1013
B( 17-C , 18-C ) :   1.5805 B( 17-C , 33-H ) :   0.9749 B( 18-C , 19-C ) :   1.2204
B( 18-C , 21-H ) :   1.0070 B( 19-C , 20-C ) :   1.6181 B( 19-C , 22-C ) :   1.0266
B( 22-C , 23-H ) :   0.9397 B( 22-C , 24-H ) :   0.9426 B( 22-C , 25-C ) :   1.0423
B( 25-C , 26-H ) :   0.9574 B( 25-C , 27-H ) :   0.9566 B( 25-C , 28-C ) :   1.0745
B( 28-C , 29-H ) :   0.9763 B( 28-C , 30-H ) :   0.9752 B( 28-C , 31-H ) :   0.9714

Dispersion correction           -0.014313862
FINAL SINGLE POINT ENERGY     -1339.856350189643

DIPOLE MOMENT
-------------
                                X             Y             Z
Electronic contribution:     -9.60719      14.89186     -27.49246
Nuclear contribution   :      9.67801     -15.14671      28.19370
                        -----------------------------------------
Total Dipole Moment    :      0.07082      -0.25486       0.70124
                        -----------------------------------------
Magnitude (a.u.)       :      0.74947
Magnitude (Debye)      :      1.90500

Rotational constants in cm-1:     0.016900     0.009451     0.006745
Rotational constants in MHz :   506.637461   283.332739   202.208359

                             ****ORCA TERMINATED NORMALLY****
TOTAL RUN TIME: 0 days 0 hours 0 minutes 34 seconds 302 msec
