                         Program Version 4.2.1 -  RELEASE  -
|  1> ! wB97X-D3 SP def2-SVP
|  2> %pal
|  3> nprocs 16
|  4> end
|  5>
|  6> * xyz 0 1
|  7> S 	 -75.6032 	 47.6487 	 138.045
|  8> C 	 -76.1792 	 49.3278 	 137.948
|  9> C 	 -75.1812 	 50.1341 	 137.474
| 10> C 	 -73.941 	 49.4527 	 137.295
| 11> C 	 -74.0412 	 48.1024 	 137.343
| 12> H 	 -72.9715 	 49.9258 	 137.015
| 13> C 	 -75.3764 	 51.5714 	 137.076
| 14> H 	 -75.9127 	 52.121 	 137.908
| 15> H 	 -75.9918 	 51.7281 	 136.15
| 16> C 	 -74.1921 	 52.4812 	 136.751
| 17> H 	 -73.3269 	 52.2599 	 137.417
| 18> H 	 -73.7314 	 52.1905 	 135.773
| 19> C 	 -74.6253 	 53.9593 	 136.681
| 20> H 	 -73.7781 	 54.6458 	 136.418
| 21> H 	 -75.4255 	 54.1263 	 135.964
| 22> H 	 -74.9891 	 54.3188 	 137.612
| 23> S 	 -72.7024 	 46.0443 	 138.558
| 24> C 	 -71.4936 	 45.1639 	 137.679
| 25> C 	 -71.2362 	 45.8011 	 136.505
| 26> C 	 -72.1195 	 46.888 	 136.17
| 27> C 	 -73.0166 	 47.1215 	 137.173
| 28> H 	 -70.4161 	 45.3272 	 135.952
| 29> C 	 -71.9678 	 47.6335 	 134.887
| 30> H 	 -71.0774 	 48.2867 	 135.042
| 31> H 	 -72.8109 	 48.337 	 134.681
| 32> C 	 -71.6706 	 46.7559 	 133.679
| 33> H 	 -72.2092 	 45.7411 	 133.697
| 34> H 	 -70.6506 	 46.5318 	 133.693
| 35> C 	 -71.969 	 47.3073 	 132.294
| 36> H 	 -73.002 	 47.4653 	 132.204
| 37> H 	 -71.7392 	 46.5689 	 131.538
| 38> H 	 -71.3312 	 48.186 	 132.017
| 39> H 	 -77.1624 	 49.6745 	 138.127
| 40> H 	 -70.8532 	 44.419 	 138.129
| 41> *
| 42>
| 43>                          ****END OF INPUT****

CARTESIAN COORDINATES (ANGSTROEM)
---------------------------------
  S    -75.603200   47.648700  138.045000
  C    -76.179200   49.327800  137.948000
  C    -75.181200   50.134100  137.474000
  C    -73.941000   49.452700  137.295000
  C    -74.041200   48.102400  137.343000
  H    -72.971500   49.925800  137.015000
  C    -75.376400   51.571400  137.076000
  H    -75.912700   52.121000  137.908000
  H    -75.991800   51.728100  136.150000
  C    -74.192100   52.481200  136.751000
  H    -73.326900   52.259900  137.417000
  H    -73.731400   52.190500  135.773000
  C    -74.625300   53.959300  136.681000
  H    -73.778100   54.645800  136.418000
  H    -75.425500   54.126300  135.964000
  H    -74.989100   54.318800  137.612000
  S    -72.702400   46.044300  138.558000
  C    -71.493600   45.163900  137.679000
  C    -71.236200   45.801100  136.505000
  C    -72.119500   46.888000  136.170000
  C    -73.016600   47.121500  137.173000
  H    -70.416100   45.327200  135.952000
  C    -71.967800   47.633500  134.887000
  H    -71.077400   48.286700  135.042000
  H    -72.810900   48.337000  134.681000
  C    -71.670600   46.755900  133.679000
  H    -72.209200   45.741100  133.697000
  H    -70.650600   46.531800  133.693000
  C    -71.969000   47.307300  132.294000
  H    -73.002000   47.465300  132.204000
  H    -71.739200   46.568900  131.538000
  H    -71.331200   48.186000  132.017000
  H    -77.162400   49.674500  138.127000
  H    -70.853200   44.419000  138.129000

 Total Charge           Charge          ....    0
 Multiplicity           Mult            ....    1
 Number of Electrons    NEL             ....  134
 Basis Dimension        Dim             ....  322

ORBITAL ENERGIES
----------------

  NO   OCC          E(Eh)            E(eV)
   0   2.0000     -88.963836     -2420.8290
   1   2.0000     -88.959171     -2420.7021
   2   2.0000     -10.326875      -281.0086
   3   2.0000     -10.324097      -280.9330
   4   2.0000     -10.312996      -280.6309
   5   2.0000     -10.311929      -280.6018
   6   2.0000     -10.305167      -280.4178
   7   2.0000     -10.300704      -280.2964
   8   2.0000     -10.297583      -280.2115
   9   2.0000     -10.296164      -280.1729
  10   2.0000     -10.295166      -280.1457
  11   2.0000     -10.293790      -280.1083
  12   2.0000     -10.292238      -280.0660
  13   2.0000     -10.283901      -279.8392
  14   2.0000     -10.283227      -279.8208
  15   2.0000     -10.274965      -279.5960
  16   2.0000      -8.077920      -219.8114
  17   2.0000      -8.074149      -219.7088
  18   2.0000      -6.036609      -164.2645
  19   2.0000      -6.032712      -164.1584
  20   2.0000      -6.032563      -164.1544
  21   2.0000      -6.028657      -164.0481
  22   2.0000      -6.028463      -164.0428
  23   2.0000      -6.024780      -163.9426
  24   2.0000      -1.009259       -27.4633
  25   2.0000      -0.985344       -26.8126
  26   2.0000      -0.913149       -24.8480
  27   2.0000      -0.911512       -24.8035
  28   2.0000      -0.876349       -23.8467
  29   2.0000      -0.854054       -23.2400
  30   2.0000      -0.842017       -22.9124
  31   2.0000      -0.818144       -22.2628
  32   2.0000      -0.783822       -21.3289
  33   2.0000      -0.774271       -21.0690
  34   2.0000      -0.715211       -19.4619
  35   2.0000      -0.698861       -19.0170
  36   2.0000      -0.693044       -18.8587
  37   2.0000      -0.651410       -17.7258
  38   2.0000      -0.643525       -17.5112
  39   2.0000      -0.620521       -16.8852
  40   2.0000      -0.600295       -16.3349
  41   2.0000      -0.572048       -15.5662
  42   2.0000      -0.570265       -15.5177
  43   2.0000      -0.563473       -15.3329
  44   2.0000      -0.529615       -14.4116
  45   2.0000      -0.521499       -14.1907
  46   2.0000      -0.520691       -14.1687
  47   2.0000      -0.509574       -13.8662
  48   2.0000      -0.504701       -13.7336
  49   2.0000      -0.495297       -13.4777
  50   2.0000      -0.492559       -13.4032
  51   2.0000      -0.482405       -13.1269
  52   2.0000      -0.476304       -12.9609
  53   2.0000      -0.470622       -12.8063
  54   2.0000      -0.461165       -12.5489
  55   2.0000      -0.452604       -12.3160
  56   2.0000      -0.446025       -12.1370
  57   2.0000      -0.427973       -11.6457
  58   2.0000      -0.427493       -11.6327
  59   2.0000      -0.422614       -11.4999
  60   2.0000      -0.420145       -11.4327
  61   2.0000      -0.416246       -11.3266
  62   2.0000      -0.411662       -11.2019
  63   2.0000      -0.349268        -9.5041
  64   2.0000      -0.329880        -8.9765
  65   2.0000      -0.324934        -8.8419
  66   2.0000      -0.295682        -8.0459
  67   0.0000       0.030221         0.8224
  68   0.0000       0.069811         1.8997
  69   0.0000       0.110220         2.9992
  70   0.0000       0.121178         3.2974
  71   0.0000       0.132742         3.6121

MULLIKEN ATOMIC CHARGES
-----------------------
   0 S :    0.099129
   1 C :   -0.098500
   2 C :   -0.045611
   3 C :    0.016090
   4 C :   -0.153995
   5 H :    0.030353
   6 C :   -0.001046
   7 H :    0.036552
   8 H :    0.050073
   9 C :   -0.106640
  10 H :    0.032970
  11 H :    0.027888
  12 C :   -0.035490
  13 H :    0.041626
  14 H :    0.030577
  15 H :    0.023389
  16 S :    0.088930
  17 C :   -0.088749
  18 C :   -0.058754
  19 C :   -0.012966
  20 C :   -0.154850
  21 H :    0.027192
  22 C :    0.081772
  23 H :    0.042604
  24 H :    0.032294
  25 C :   -0.118460
  26 H :    0.045472
  27 H :    0.017143
  28 C :   -0.025077
  29 H :    0.026316
  30 H :    0.025148
  31 H :    0.034152
  32 H :    0.030112
  33 H :    0.060357
Sum of atomic charges:   -0.0000000

LOEWDIN ATOMIC CHARGES
----------------------
   0 S :    0.383809
   1 C :   -0.175531
   2 C :   -0.067259
   3 C :   -0.064419
   4 C :   -0.183580
   5 H :    0.039090
   6 C :   -0.045877
   7 H :    0.036279
   8 H :    0.040671
   9 C :   -0.053111
  10 H :    0.022173
  11 H :    0.023177
  12 C :   -0.062222
  13 H :    0.034840
  14 H :    0.025849
  15 H :    0.019045
  16 S :    0.386806
  17 C :   -0.184574
  18 C :   -0.076969
  19 C :   -0.053046
  20 C :   -0.188263
  21 H :    0.035415
  22 C :   -0.036538
  23 H :    0.042162
  24 H :    0.033397
  25 C :   -0.047827
  26 H :    0.035444
  27 H :    0.013733
  28 C :   -0.061659
  29 H :    0.018093
  30 H :    0.027554
  31 H :    0.028359
  32 H :    0.023246
  33 H :    0.031733

  Mayer bond orders larger than 0.100000
B(  0-S ,  1-C ) :   1.1175 B(  0-S ,  4-C ) :   1.1309 B(  1-C ,  2-C ) :   1.6391
B(  1-C , 32-H ) :   0.9787 B(  2-C ,  3-C ) :   1.2239 B(  2-C ,  6-C ) :   1.0086
B(  3-C ,  4-C ) :   1.5965 B(  3-C ,  5-H ) :   0.9810 B(  4-C , 20-C ) :   1.0496
B(  6-C ,  7-H ) :   0.9467 B(  6-C ,  8-H ) :   0.9394 B(  6-C ,  9-C ) :   1.0715
B(  9-C , 10-H ) :   0.9527 B(  9-C , 11-H ) :   0.9486 B(  9-C , 12-C ) :   1.0774
B( 12-C , 13-H ) :   0.9720 B( 12-C , 14-H ) :   0.9741 B( 12-C , 15-H ) :   0.9752
B( 16-S , 17-C ) :   1.1418 B( 16-S , 20-C ) :   1.1268 B( 17-C , 18-C ) :   1.6506
B( 17-C , 33-H ) :   0.9650 B( 18-C , 19-C ) :   1.1868 B( 18-C , 21-H ) :   0.9864
B( 19-C , 20-C ) :   1.6340 B( 19-C , 22-C ) :   1.0586 B( 22-C , 23-H ) :   0.9221
B( 22-C , 24-H ) :   0.9379 B( 22-C , 25-C ) :   1.0475 B( 25-C , 26-H ) :   0.9632
B( 25-C , 27-H ) :   0.9442 B( 25-C , 28-C ) :   1.1047 B( 28-C , 29-H ) :   0.9740
B( 28-C , 30-H ) :   0.9707 B( 28-C , 31-H ) :   0.9710

Dispersion correction           -0.013317358
FINAL SINGLE POINT ENERGY     -1339.878915378913

DIPOLE MOMENT
-------------
                                X             Y             Z
Electronic contribution:     -5.74707     -20.96928      21.05599
Nuclear contribution   :      6.13679      21.45234     -21.59103
                        -----------------------------------------
Total Dipole Moment    :      0.38973       0.48306      -0.53504
                        -----------------------------------------
Magnitude (a.u.)       :      0.81946
Magnitude (Debye)      :      2.08289

Rotational constants in cm-1:     0.016420     0.008496     0.006394
Rotational constants in MHz :   492.247398   254.690865   191.692694

                             ****ORCA TERMINATED NORMALLY****
TOTAL RUN TIME: 0 days 0 hours 0 minutes 32 seconds 5 msec
