                         Program Version 4.2.1 -  RELEASE  -
|  1> ! wB97X-D3 SP def2-SVP
|  2> %pal
|  3> nprocs 16
|  4> end
|  5>
|  6> * xyz 0 1
|  7> S 	 -74.6041 	 51.9599 	 137.541
|  8> C 	 -73.8787 	 53.4015 	 138.09
|  9> C 	 -73.3508 	 54.1941 	 137.072
| 10> C 	 -73.5073 	 53.5253 	 135.809
| 11> C 	 -74.1772 	 52.2613 	 135.892
| 12> H 	 -73.2017 	 53.8639 	 134.768
| 13> C 	 -72.7473 	 55.5861 	 137.156
| 14> H 	 -72.5437 	 56.0264 	 136.134
| 15> H 	 -71.7469 	 55.476 	 137.609
| 16> C 	 -73.548 	 56.6647 	 138.068
| 17> H 	 -73.6901 	 56.2177 	 139.096
| 18> H 	 -72.9467 	 57.6459 	 138.14
| 19> C 	 -74.9654 	 56.9971 	 137.486
| 20> H 	 -74.8081 	 57.4907 	 136.532
| 21> H 	 -75.5277 	 56.1341 	 137.193
| 22> H 	 -75.5387 	 57.5897 	 138.189
| 23> S 	 -73.6952 	 51.1247 	 133.245
| 24> C 	 -74.9519 	 50.0586 	 132.59
| 25> C 	 -75.9877 	 49.9807 	 133.475
| 26> C 	 -75.8648 	 50.8282 	 134.614
| 27> C 	 -74.6572 	 51.462 	 134.762
| 28> H 	 -76.8034 	 49.4293 	 133.134
| 29> C 	 -77.036 	 50.9484 	 135.541
| 30> H 	 -77.9574 	 51.2615 	 134.983
| 31> H 	 -76.792 	 51.8438 	 136.085
| 32> C 	 -77.264 	 49.8172 	 136.544
| 33> H 	 -77.7641 	 50.2507 	 137.446
| 34> H 	 -76.2916 	 49.5338 	 136.917
| 35> C 	 -78.058 	 48.6298 	 136.085
| 36> H 	 -78.0956 	 47.853 	 136.809
| 37> H 	 -77.6255 	 48.1441 	 135.261
| 38> H 	 -79.0702 	 48.9245 	 135.783
| 39> H 	 -74.0793 	 53.7556 	 139.068
| 40> H 	 -74.9148 	 49.6136 	 131.607
| 41> *
| 42>
| 43>                          ****END OF INPUT****

CARTESIAN COORDINATES (ANGSTROEM)
---------------------------------
  S    -74.604100   51.959900  137.541000
  C    -73.878700   53.401500  138.090000
  C    -73.350800   54.194100  137.072000
  C    -73.507300   53.525300  135.809000
  C    -74.177200   52.261300  135.892000
  H    -73.201700   53.863900  134.768000
  C    -72.747300   55.586100  137.156000
  H    -72.543700   56.026400  136.134000
  H    -71.746900   55.476000  137.609000
  C    -73.548000   56.664700  138.068000
  H    -73.690100   56.217700  139.096000
  H    -72.946700   57.645900  138.140000
  C    -74.965400   56.997100  137.486000
  H    -74.808100   57.490700  136.532000
  H    -75.527700   56.134100  137.193000
  H    -75.538700   57.589700  138.189000
  S    -73.695200   51.124700  133.245000
  C    -74.951900   50.058600  132.590000
  C    -75.987700   49.980700  133.475000
  C    -75.864800   50.828200  134.614000
  C    -74.657200   51.462000  134.762000
  H    -76.803400   49.429300  133.134000
  C    -77.036000   50.948400  135.541000
  H    -77.957400   51.261500  134.983000
  H    -76.792000   51.843800  136.085000
  C    -77.264000   49.817200  136.544000
  H    -77.764100   50.250700  137.446000
  H    -76.291600   49.533800  136.917000
  C    -78.058000   48.629800  136.085000
  H    -78.095600   47.853000  136.809000
  H    -77.625500   48.144100  135.261000
  H    -79.070200   48.924500  135.783000
  H    -74.079300   53.755600  139.068000
  H    -74.914800   49.613600  131.607000

 Total Charge           Charge          ....    0
 Multiplicity           Mult            ....    1
 Number of Electrons    NEL             ....  134
 Basis Dimension        Dim             ....  322

ORBITAL ENERGIES
----------------

  NO   OCC          E(Eh)            E(eV)
   0   2.0000     -88.974363     -2421.1155
   1   2.0000     -88.962451     -2420.7914
   2   2.0000     -10.335037      -281.2306
   3   2.0000     -10.333590      -281.1913
   4   2.0000     -10.319561      -280.8095
   5   2.0000     -10.313534      -280.6455
   6   2.0000     -10.310325      -280.5582
   7   2.0000     -10.307835      -280.4905
   8   2.0000     -10.306370      -280.4506
   9   2.0000     -10.305811      -280.4354
  10   2.0000     -10.299203      -280.2556
  11   2.0000     -10.286374      -279.9065
  12   2.0000     -10.284696      -279.8608
  13   2.0000     -10.283221      -279.8207
  14   2.0000     -10.275522      -279.6112
  15   2.0000     -10.267868      -279.4029
  16   2.0000      -8.089253      -220.1198
  17   2.0000      -8.075822      -219.7543
  18   2.0000      -6.047626      -164.5643
  19   2.0000      -6.043528      -164.4528
  20   2.0000      -6.040363      -164.3666
  21   2.0000      -6.034603      -164.2099
  22   2.0000      -6.030541      -164.0994
  23   2.0000      -6.026358      -163.9856
  24   2.0000      -1.006583       -27.3905
  25   2.0000      -0.983614       -26.7655
  26   2.0000      -0.909360       -24.7449
  27   2.0000      -0.900405       -24.5013
  28   2.0000      -0.868973       -23.6460
  29   2.0000      -0.850368       -23.1397
  30   2.0000      -0.845747       -23.0140
  31   2.0000      -0.812486       -22.1089
  32   2.0000      -0.784028       -21.3345
  33   2.0000      -0.775827       -21.1113
  34   2.0000      -0.707825       -19.2609
  35   2.0000      -0.700019       -19.0485
  36   2.0000      -0.692547       -18.8452
  37   2.0000      -0.662838       -18.0367
  38   2.0000      -0.640622       -17.4322
  39   2.0000      -0.605618       -16.4797
  40   2.0000      -0.594288       -16.1714
  41   2.0000      -0.575459       -15.6590
  42   2.0000      -0.554562       -15.0904
  43   2.0000      -0.545898       -14.8546
  44   2.0000      -0.544044       -14.8042
  45   2.0000      -0.536144       -14.5892
  46   2.0000      -0.520662       -14.1679
  47   2.0000      -0.512360       -13.9420
  48   2.0000      -0.499100       -13.5812
  49   2.0000      -0.498391       -13.5619
  50   2.0000      -0.490304       -13.3419
  51   2.0000      -0.478714       -13.0265
  52   2.0000      -0.477154       -12.9840
  53   2.0000      -0.468034       -12.7359
  54   2.0000      -0.464733       -12.6460
  55   2.0000      -0.441596       -12.0164
  56   2.0000      -0.437687       -11.9101
  57   2.0000      -0.432221       -11.7613
  58   2.0000      -0.430781       -11.7221
  59   2.0000      -0.425645       -11.5824
  60   2.0000      -0.422888       -11.5074
  61   2.0000      -0.416904       -11.3445
  62   2.0000      -0.405663       -11.0386
  63   2.0000      -0.354773        -9.6539
  64   2.0000      -0.331996        -9.0341
  65   2.0000      -0.328945        -8.9511
  66   2.0000      -0.289146        -7.8681
  67   0.0000       0.020277         0.5518
  68   0.0000       0.077267         2.1025
  69   0.0000       0.105128         2.8607
  70   0.0000       0.114399         3.1129
  71   0.0000       0.130893         3.5618

MULLIKEN ATOMIC CHARGES
-----------------------
   0 S :    0.121290
   1 C :   -0.105026
   2 C :   -0.072867
   3 C :   -0.008721
   4 C :   -0.180306
   5 H :    0.040013
   6 C :    0.035415
   7 H :    0.038351
   8 H :    0.051392
   9 C :   -0.135335
  10 H :    0.042275
  11 H :    0.053415
  12 C :   -0.038877
  13 H :    0.024359
  14 H :    0.033831
  15 H :    0.041716
  16 S :    0.075776
  17 C :   -0.095917
  18 C :    0.006910
  19 C :   -0.079106
  20 C :   -0.098765
  21 H :   -0.000867
  22 C :    0.042630
  23 H :    0.034809
  24 H :    0.012633
  25 C :   -0.049646
  26 H :    0.029174
  27 H :    0.015757
  28 C :    0.006432
  29 H :    0.022605
  30 H :    0.008567
  31 H :    0.023917
  32 H :    0.041922
  33 H :    0.062242
Sum of atomic charges:   -0.0000000

LOEWDIN ATOMIC CHARGES
----------------------
   0 S :    0.465965
   1 C :   -0.210562
   2 C :   -0.064874
   3 C :   -0.064499
   4 C :   -0.205492
   5 H :    0.040098
   6 C :   -0.038186
   7 H :    0.035802
   8 H :    0.038858
   9 C :   -0.044723
  10 H :    0.023796
  11 H :    0.034661
  12 C :   -0.068815
  13 H :    0.024949
  14 H :    0.023476
  15 H :    0.025807
  16 S :    0.352937
  17 C :   -0.163469
  18 C :   -0.069199
  19 C :   -0.060508
  20 C :   -0.174627
  21 H :    0.022899
  22 C :   -0.043869
  23 H :    0.036012
  24 H :    0.018359
  25 C :   -0.041017
  26 H :    0.029812
  27 H :    0.017007
  28 C :   -0.059649
  29 H :    0.024692
  30 H :    0.016478
  31 H :    0.026203
  32 H :    0.019224
  33 H :    0.032452

  Mayer bond orders larger than 0.100000
B(  0-S ,  1-C ) :   1.1714 B(  0-S ,  4-C ) :   1.1759 B(  1-C ,  2-C ) :   1.5579
B(  1-C , 32-H ) :   0.9687 B(  2-C ,  3-C ) :   1.2918 B(  2-C ,  6-C ) :   1.0115
B(  3-C ,  4-C ) :   1.5163 B(  3-C ,  5-H ) :   0.9791 B(  4-C , 20-C ) :   1.0672
B(  6-C ,  7-H ) :   0.9522 B(  6-C ,  8-H ) :   0.9369 B(  6-C ,  9-C ) :   1.0572
B(  9-C , 10-H ) :   0.9584 B(  9-C , 11-H ) :   0.9591 B(  9-C , 12-C ) :   1.0614
B( 12-C , 13-H ) :   0.9750 B( 12-C , 14-H ) :   0.9773 B( 12-C , 15-H ) :   0.9770
B( 16-S , 17-C ) :   1.1399 B( 16-S , 20-C ) :   1.0966 B( 17-C , 18-C ) :   1.6323
B( 17-C , 33-H ) :   0.9655 B( 18-C , 19-C ) :   1.2078 B( 18-C , 21-H ) :   0.9999
B( 19-C , 20-C ) :   1.6084 B( 19-C , 22-C ) :   1.0537 B( 22-C , 23-H ) :   0.9351
B( 22-C , 24-H ) :   0.9176 B( 22-C , 25-C ) :   1.0644 B( 25-C , 26-H ) :   0.9539
B( 25-C , 27-H ) :   0.9457 B( 25-C , 28-C ) :   1.0939 B( 28-C , 29-H ) :   0.9676
B( 28-C , 30-H ) :   0.9683 B( 28-C , 31-H ) :   0.9727

Dispersion correction           -0.014757601
FINAL SINGLE POINT ENERGY     -1339.878545073710

DIPOLE MOMENT
-------------
                                X             Y             Z
Electronic contribution:     11.51459      -9.68275      -9.10322
Nuclear contribution   :    -11.89804       9.97285       9.18839
                        -----------------------------------------
Total Dipole Moment    :     -0.38345       0.29010       0.08517
                        -----------------------------------------
Magnitude (a.u.)       :      0.48831
Magnitude (Debye)      :      1.24119

Rotational constants in cm-1:     0.021872     0.007915     0.006531
Rotational constants in MHz :   655.696925   237.276535   195.792429

                             ****ORCA TERMINATED NORMALLY****
TOTAL RUN TIME: 0 days 0 hours 0 minutes 34 seconds 223 msec
