                         Program Version 4.2.1 -  RELEASE  -
|  1> ! wB97X-D3 SP def2-SVP
|  2> %pal
|  3> nprocs 16
|  4> end
|  5>
|  6> * xyz 0 1
|  7> S 	 -8.48519 	 62.1664 	 53.58
|  8> C 	 -9.42829 	 62.641 	 54.9739
|  9> C 	 -9.27703 	 63.9818 	 55.2073
| 10> C 	 -8.4178 	 64.6374 	 54.2638
| 11> C 	 -7.92208 	 63.8063 	 53.2739
| 12> H 	 -8.06212 	 65.6527 	 54.272
| 13> C 	 -9.78199 	 64.7651 	 56.3669
| 14> H 	 -10.1064 	 63.9978 	 57.1479
| 15> H 	 -10.6024 	 65.3205 	 56.0478
| 16> C 	 -8.77708 	 65.7105 	 57.0552
| 17> H 	 -8.29166 	 66.4137 	 56.3908
| 18> H 	 -9.23807 	 66.3047 	 57.7886
| 19> C 	 -7.56095 	 64.9914 	 57.6976
| 20> H 	 -6.891 	 65.8362 	 58.07
| 21> H 	 -7.89129 	 64.4108 	 58.5618
| 22> H 	 -6.93413 	 64.4872 	 56.9183
| 23> S 	 -6.71419 	 65.6335 	 51.5856
| 24> C 	 -5.51641 	 65.1616 	 50.4044
| 25> C 	 -5.16391 	 63.8917 	 50.5602
| 26> C 	 -5.92805 	 63.2531 	 51.643
| 27> C 	 -6.89283 	 64.0629 	 52.2609
| 28> H 	 -4.39246 	 63.5173 	 49.8993
| 29> C 	 -5.59145 	 61.8188 	 52.0137
| 30> H 	 -5.09029 	 61.3701 	 51.2012
| 31> H 	 -6.55769 	 61.1843 	 52.1055
| 32> C 	 -4.81253 	 61.6717 	 53.343
| 33> H 	 -4.80211 	 60.6428 	 53.6289
| 34> H 	 -5.43687 	 62.1266 	 54.1112
| 35> C 	 -3.41406 	 62.1989 	 53.447
| 36> H 	 -3.43971 	 63.2746 	 53.3237
| 37> H 	 -2.73357 	 61.7089 	 52.7411
| 38> H 	 -3.03988 	 61.9813 	 54.4884
| 39> H 	 -9.95257 	 61.996 	 55.6985
| 40> H 	 -5.10708 	 65.8197 	 49.6438
| 41> *
| 42>
| 43>                          ****END OF INPUT****

CARTESIAN COORDINATES (ANGSTROEM)
---------------------------------
  S     -8.485190   62.166400   53.580000
  C     -9.428290   62.641000   54.973900
  C     -9.277030   63.981800   55.207300
  C     -8.417800   64.637400   54.263800
  C     -7.922080   63.806300   53.273900
  H     -8.062120   65.652700   54.272000
  C     -9.781990   64.765100   56.366900
  H    -10.106400   63.997800   57.147900
  H    -10.602400   65.320500   56.047800
  C     -8.777080   65.710500   57.055200
  H     -8.291660   66.413700   56.390800
  H     -9.238070   66.304700   57.788600
  C     -7.560950   64.991400   57.697600
  H     -6.891000   65.836200   58.070000
  H     -7.891290   64.410800   58.561800
  H     -6.934130   64.487200   56.918300
  S     -6.714190   65.633500   51.585600
  C     -5.516410   65.161600   50.404400
  C     -5.163910   63.891700   50.560200
  C     -5.928050   63.253100   51.643000
  C     -6.892830   64.062900   52.260900
  H     -4.392460   63.517300   49.899300
  C     -5.591450   61.818800   52.013700
  H     -5.090290   61.370100   51.201200
  H     -6.557690   61.184300   52.105500
  C     -4.812530   61.671700   53.343000
  H     -4.802110   60.642800   53.628900
  H     -5.436870   62.126600   54.111200
  C     -3.414060   62.198900   53.447000
  H     -3.439710   63.274600   53.323700
  H     -2.733570   61.708900   52.741100
  H     -3.039880   61.981300   54.488400
  H     -9.952570   61.996000   55.698500
  H     -5.107080   65.819700   49.643800

 Total Charge           Charge          ....    0
 Multiplicity           Mult            ....    1
 Number of Electrons    NEL             ....  134
 Basis Dimension        Dim             ....  322

ORBITAL ENERGIES
----------------

  NO   OCC          E(Eh)            E(eV)
   0   2.0000     -88.967859     -2420.9385
   1   2.0000     -88.962192     -2420.7843
   2   2.0000     -10.337142      -281.2879
   3   2.0000     -10.331910      -281.1456
   4   2.0000     -10.316400      -280.7235
   5   2.0000     -10.314468      -280.6710
   6   2.0000     -10.308649      -280.5126
   7   2.0000     -10.299968      -280.2764
   8   2.0000     -10.294773      -280.1350
   9   2.0000     -10.293875      -280.1106
  10   2.0000     -10.291267      -280.0396
  11   2.0000     -10.289220      -279.9839
  12   2.0000     -10.283833      -279.8373
  13   2.0000     -10.283690      -279.8334
  14   2.0000     -10.274537      -279.5844
  15   2.0000     -10.274087      -279.5721
  16   2.0000      -8.081801      -219.9170
  17   2.0000      -8.077824      -219.8088
  18   2.0000      -6.040481      -164.3698
  19   2.0000      -6.036399      -164.2588
  20   2.0000      -6.036341      -164.2572
  21   2.0000      -6.032484      -164.1522
  22   2.0000      -6.032196      -164.1444
  23   2.0000      -6.028464      -164.0428
  24   2.0000      -1.010531       -27.4979
  25   2.0000      -0.989505       -26.9258
  26   2.0000      -0.914330       -24.8802
  27   2.0000      -0.904171       -24.6037
  28   2.0000      -0.877463       -23.8770
  29   2.0000      -0.848817       -23.0975
  30   2.0000      -0.839999       -22.8575
  31   2.0000      -0.824556       -22.4373
  32   2.0000      -0.782121       -21.2826
  33   2.0000      -0.770703       -20.9719
  34   2.0000      -0.713336       -19.4109
  35   2.0000      -0.695119       -18.9152
  36   2.0000      -0.685598       -18.6561
  37   2.0000      -0.664588       -18.0844
  38   2.0000      -0.634008       -17.2522
  39   2.0000      -0.624266       -16.9872
  40   2.0000      -0.589360       -16.0373
  41   2.0000      -0.577091       -15.7035
  42   2.0000      -0.558428       -15.1956
  43   2.0000      -0.551343       -15.0028
  44   2.0000      -0.546377       -14.8677
  45   2.0000      -0.536504       -14.5990
  46   2.0000      -0.521795       -14.1988
  47   2.0000      -0.517660       -14.0862
  48   2.0000      -0.506982       -13.7957
  49   2.0000      -0.495275       -13.4771
  50   2.0000      -0.487522       -13.2662
  51   2.0000      -0.477287       -12.9876
  52   2.0000      -0.475009       -12.9256
  53   2.0000      -0.468976       -12.7615
  54   2.0000      -0.462767       -12.5925
  55   2.0000      -0.446046       -12.1375
  56   2.0000      -0.437421       -11.9028
  57   2.0000      -0.431442       -11.7401
  58   2.0000      -0.429003       -11.6738
  59   2.0000      -0.420360       -11.4386
  60   2.0000      -0.418902       -11.3989
  61   2.0000      -0.408562       -11.1175
  62   2.0000      -0.406077       -11.0499
  63   2.0000      -0.367065        -9.9884
  64   2.0000      -0.330433        -8.9915
  65   2.0000      -0.327297        -8.9062
  66   2.0000      -0.289323        -7.8729
  67   0.0000       0.020712         0.5636
  68   0.0000       0.088716         2.4141
  69   0.0000       0.114082         3.1043
  70   0.0000       0.128039         3.4841
  71   0.0000       0.133069         3.6210

MULLIKEN ATOMIC CHARGES
-----------------------
   0 S :    0.087428
   1 C :   -0.108962
   2 C :   -0.098464
   3 C :   -0.002094
   4 C :   -0.108704
   5 H :    0.010526
   6 C :    0.105903
   7 H :    0.022412
   8 H :    0.031835
   9 C :   -0.079852
  10 H :    0.023245
  11 H :    0.018849
  12 C :   -0.092818
  13 H :    0.036185
  14 H :    0.040492
  15 H :    0.057736
  16 S :    0.081740
  17 C :   -0.083054
  18 C :   -0.020573
  19 C :   -0.094880
  20 C :   -0.103995
  21 H :    0.024009
  22 C :    0.040852
  23 H :    0.001908
  24 H :    0.049294
  25 C :   -0.049327
  26 H :    0.015513
  27 H :    0.021731
  28 C :   -0.046189
  29 H :    0.039169
  30 H :    0.029123
  31 H :    0.037013
  32 H :    0.055363
  33 H :    0.058588
Sum of atomic charges:   -0.0000000

LOEWDIN ATOMIC CHARGES
----------------------
   0 S :    0.417792
   1 C :   -0.203561
   2 C :   -0.065726
   3 C :   -0.067274
   4 C :   -0.176895
   5 H :    0.026583
   6 C :   -0.028350
   7 H :    0.035980
   8 H :    0.026867
   9 C :   -0.039659
  10 H :    0.020742
  11 H :    0.018831
  12 C :   -0.070538
  13 H :    0.032726
  14 H :    0.022321
  15 H :    0.032602
  16 S :    0.408824
  17 C :   -0.178825
  18 C :   -0.075110
  19 C :   -0.059437
  20 C :   -0.207785
  21 H :    0.037734
  22 C :   -0.043152
  23 H :    0.018298
  24 H :    0.031790
  25 C :   -0.044318
  26 H :    0.019524
  27 H :    0.021374
  28 C :   -0.065545
  29 H :    0.024454
  30 H :    0.022602
  31 H :    0.034287
  32 H :    0.038539
  33 H :    0.034304

  Mayer bond orders larger than 0.100000
B(  0-S ,  1-C ) :   1.1209 B(  0-S ,  4-C ) :   1.1498 B(  1-C ,  2-C ) :   1.6361
B(  1-C , 32-H ) :   0.9603 B(  2-C ,  3-C ) :   1.2278 B(  2-C ,  6-C ) :   1.0193
B(  3-C ,  4-C ) :   1.5757 B(  3-C ,  5-H ) :   0.9905 B(  4-C , 20-C ) :   1.0565
B(  6-C ,  7-H ) :   0.9438 B(  6-C ,  8-H ) :   0.9284 B(  6-C ,  9-C ) :   1.0768
B(  9-C , 10-H ) :   0.9532 B(  9-C , 11-H ) :   0.9546 B(  9-C , 12-C ) :   1.0771
B( 12-C , 13-H ) :   0.9748 B( 12-C , 14-H ) :   0.9768 B( 12-C , 15-H ) :   0.9728
B( 16-S , 17-C ) :   1.1459 B( 16-S , 20-C ) :   1.1336 B( 17-C , 18-C ) :   1.6434
B( 17-C , 33-H ) :   0.9636 B( 18-C , 19-C ) :   1.2160 B( 18-C , 21-H ) :   0.9955
B( 19-C , 20-C ) :   1.5739 B( 19-C , 22-C ) :   1.0460 B( 22-C , 23-H ) :   0.9315
B( 22-C , 24-H ) :   0.9333 B( 22-C , 25-C ) :   1.0627 B( 25-C , 26-H ) :   0.9524
B( 25-C , 27-H ) :   0.9516 B( 25-C , 28-C ) :   1.0875 B( 28-C , 29-H ) :   0.9750
B( 28-C , 30-H ) :   0.9736 B( 28-C , 31-H ) :   0.9705

Dispersion correction           -0.015157898
FINAL SINGLE POINT ENERGY     -1339.882915594861

DIPOLE MOMENT
-------------
                                X             Y             Z
Electronic contribution:     -9.23104       2.05055     -17.46021
Nuclear contribution   :      9.47787      -1.99557      17.74359
                        -----------------------------------------
Total Dipole Moment    :      0.24683       0.05498       0.28338
                        -----------------------------------------
Magnitude (a.u.)       :      0.37980
Magnitude (Debye)      :      0.96538

Rotational constants in cm-1:     0.019706     0.008925     0.008099
Rotational constants in MHz :   590.770037   267.577922   242.787155

                             ****ORCA TERMINATED NORMALLY****
TOTAL RUN TIME: 0 days 0 hours 0 minutes 34 seconds 754 msec
