                         Program Version 4.2.1 -  RELEASE  -
|  1> ! wB97X-D3 SP def2-SVP
|  2> %pal
|  3> nprocs 16
|  4> end
|  5>
|  6> * xyz 0 1
|  7> S 	 46.4845 	 20.3049 	 92.7551
|  8> C 	 47.3511 	 21.3348 	 93.8531
|  9> C 	 48.7093 	 21.3775 	 93.5923
| 10> C 	 48.9701 	 20.7967 	 92.3112
| 11> C 	 47.9356 	 20.1107 	 91.7749
| 12> H 	 49.9285 	 20.7281 	 91.898
| 13> C 	 49.8171 	 22.134 	 94.3232
| 14> H 	 50.7413 	 21.4723 	 94.2459
| 15> H 	 49.6615 	 22.2279 	 95.3779
| 16> C 	 50.3228 	 23.4691 	 93.772
| 17> H 	 51.393 	 23.5817 	 93.9845
| 18> H 	 50.4143 	 23.381 	 92.7285
| 19> C 	 49.5285 	 24.7782 	 94.1121
| 20> H 	 48.4357 	 24.5911 	 93.9809
| 21> H 	 49.6631 	 25.0889 	 95.1373
| 22> H 	 49.6907 	 25.5704 	 93.3743
| 23> S 	 46.689 	 18.1848 	 90.2059
| 24> C 	 47.228 	 17.9822 	 88.5338
| 25> C 	 48.0985 	 18.9505 	 88.1841
| 26> C 	 48.4214 	 19.8482 	 89.2674
| 27> C 	 47.8307 	 19.4801 	 90.4429
| 28> H 	 48.5329 	 19.0043 	 87.1878
| 29> C 	 49.3312 	 20.9902 	 88.9635
| 30> H 	 49.7302 	 20.7154 	 87.9103
| 31> H 	 50.1453 	 21.1237 	 89.6968
| 32> C 	 48.5935 	 22.2716 	 88.9302
| 33> H 	 47.7952 	 22.2219 	 89.7044
| 34> H 	 48.1973 	 22.4145 	 87.937
| 35> C 	 49.4767 	 23.5422 	 89.2225
| 36> H 	 49.8402 	 23.5506 	 90.2379
| 37> H 	 48.7787 	 24.4368 	 89.13
| 38> H 	 50.2398 	 23.7468 	 88.413
| 39> H 	 46.8305 	 21.925 	 94.6404
| 40> H 	 47.0335 	 17.2184 	 87.7935
| 41> *
| 42>
| 43>                          ****END OF INPUT****

CARTESIAN COORDINATES (ANGSTROEM)
---------------------------------
  S     46.484500   20.304900   92.755100
  C     47.351100   21.334800   93.853100
  C     48.709300   21.377500   93.592300
  C     48.970100   20.796700   92.311200
  C     47.935600   20.110700   91.774900
  H     49.928500   20.728100   91.898000
  C     49.817100   22.134000   94.323200
  H     50.741300   21.472300   94.245900
  H     49.661500   22.227900   95.377900
  C     50.322800   23.469100   93.772000
  H     51.393000   23.581700   93.984500
  H     50.414300   23.381000   92.728500
  C     49.528500   24.778200   94.112100
  H     48.435700   24.591100   93.980900
  H     49.663100   25.088900   95.137300
  H     49.690700   25.570400   93.374300
  S     46.689000   18.184800   90.205900
  C     47.228000   17.982200   88.533800
  C     48.098500   18.950500   88.184100
  C     48.421400   19.848200   89.267400
  C     47.830700   19.480100   90.442900
  H     48.532900   19.004300   87.187800
  C     49.331200   20.990200   88.963500
  H     49.730200   20.715400   87.910300
  H     50.145300   21.123700   89.696800
  C     48.593500   22.271600   88.930200
  H     47.795200   22.221900   89.704400
  H     48.197300   22.414500   87.937000
  C     49.476700   23.542200   89.222500
  H     49.840200   23.550600   90.237900
  H     48.778700   24.436800   89.130000
  H     50.239800   23.746800   88.413000
  H     46.830500   21.925000   94.640400
  H     47.033500   17.218400   87.793500

 Total Charge           Charge          ....    0
 Multiplicity           Mult            ....    1
 Number of Electrons    NEL             ....  134
 Basis Dimension        Dim             ....  322

ORBITAL ENERGIES
----------------

  NO   OCC          E(Eh)            E(eV)
   0   2.0000     -88.967181     -2420.9201
   1   2.0000     -88.966886     -2420.9120
   2   2.0000     -10.330979      -281.1202
   3   2.0000     -10.326861      -281.0082
   4   2.0000     -10.319848      -280.8173
   5   2.0000     -10.314635      -280.6755
   6   2.0000     -10.305778      -280.4345
   7   2.0000     -10.299443      -280.2621
   8   2.0000     -10.297500      -280.2092
   9   2.0000     -10.292362      -280.0694
  10   2.0000     -10.290327      -280.0140
  11   2.0000     -10.289624      -279.9949
  12   2.0000     -10.287940      -279.9491
  13   2.0000     -10.286145      -279.9002
  14   2.0000     -10.283416      -279.8260
  15   2.0000     -10.282396      -279.7982
  16   2.0000      -8.082273      -219.9298
  17   2.0000      -8.081469      -219.9079
  18   2.0000      -6.040843      -164.3797
  19   2.0000      -6.040198      -164.3621
  20   2.0000      -6.036765      -164.2687
  21   2.0000      -6.036117      -164.2511
  22   2.0000      -6.032915      -164.1640
  23   2.0000      -6.031895      -164.1362
  24   2.0000      -1.011766       -27.5316
  25   2.0000      -0.989123       -26.9154
  26   2.0000      -0.914873       -24.8950
  27   2.0000      -0.909302       -24.7434
  28   2.0000      -0.870955       -23.6999
  29   2.0000      -0.852575       -23.1997
  30   2.0000      -0.843605       -22.9557
  31   2.0000      -0.818416       -22.2702
  32   2.0000      -0.784863       -21.3572
  33   2.0000      -0.772132       -21.0108
  34   2.0000      -0.711297       -19.3554
  35   2.0000      -0.700807       -19.0699
  36   2.0000      -0.683520       -18.5995
  37   2.0000      -0.666930       -18.1481
  38   2.0000      -0.643198       -17.5023
  39   2.0000      -0.630916       -17.1681
  40   2.0000      -0.595222       -16.1968
  41   2.0000      -0.570847       -15.5335
  42   2.0000      -0.567578       -15.4446
  43   2.0000      -0.542647       -14.7662
  44   2.0000      -0.537536       -14.6271
  45   2.0000      -0.525341       -14.2952
  46   2.0000      -0.513658       -13.9773
  47   2.0000      -0.510870       -13.9015
  48   2.0000      -0.504164       -13.7190
  49   2.0000      -0.496468       -13.5096
  50   2.0000      -0.491214       -13.3666
  51   2.0000      -0.487990       -13.2789
  52   2.0000      -0.475725       -12.9451
  53   2.0000      -0.467006       -12.7079
  54   2.0000      -0.460255       -12.5242
  55   2.0000      -0.450483       -12.2583
  56   2.0000      -0.442566       -12.0428
  57   2.0000      -0.440258       -11.9800
  58   2.0000      -0.428609       -11.6630
  59   2.0000      -0.425352       -11.5744
  60   2.0000      -0.416290       -11.3278
  61   2.0000      -0.415577       -11.3084
  62   2.0000      -0.411798       -11.2056
  63   2.0000      -0.359919        -9.7939
  64   2.0000      -0.337534        -9.1848
  65   2.0000      -0.329066        -8.9543
  66   2.0000      -0.288694        -7.8558
  67   0.0000       0.027979         0.7614
  68   0.0000       0.071728         1.9518
  69   0.0000       0.099094         2.6965
  70   0.0000       0.116065         3.1583
  71   0.0000       0.123951         3.3729

MULLIKEN ATOMIC CHARGES
-----------------------
   0 S :    0.100224
   1 C :   -0.146924
   2 C :   -0.036571
   3 C :   -0.032143
   4 C :   -0.082729
   5 H :   -0.004293
   6 C :    0.035662
   7 H :    0.035091
   8 H :    0.021421
   9 C :   -0.031812
  10 H :    0.020725
  11 H :   -0.011377
  12 C :   -0.054142
  13 H :    0.028124
  14 H :    0.039228
  15 H :    0.038212
  16 S :    0.099286
  17 C :   -0.064092
  18 C :   -0.045276
  19 C :   -0.074364
  20 C :   -0.126134
  21 H :    0.020964
  22 C :    0.070723
  23 H :    0.029021
  24 H :    0.022146
  25 C :   -0.079271
  26 H :    0.052997
  27 H :    0.024543
  28 C :   -0.084244
  29 H :    0.041748
  30 H :    0.035289
  31 H :    0.043330
  32 H :    0.065896
  33 H :    0.048742
Sum of atomic charges:    0.0000000

LOEWDIN ATOMIC CHARGES
----------------------
   0 S :    0.397329
   1 C :   -0.198463
   2 C :   -0.063012
   3 C :   -0.062617
   4 C :   -0.177410
   5 H :    0.021830
   6 C :   -0.034252
   7 H :    0.044553
   8 H :    0.025423
   9 C :   -0.044221
  10 H :    0.027699
  11 H :    0.014459
  12 C :   -0.069487
  13 H :    0.029288
  14 H :    0.022776
  15 H :    0.030148
  16 S :    0.392340
  17 C :   -0.179600
  18 C :   -0.071035
  19 C :   -0.061252
  20 C :   -0.196541
  21 H :    0.032921
  22 C :   -0.039560
  23 H :    0.038886
  24 H :    0.026805
  25 C :   -0.041276
  26 H :    0.032890
  27 H :    0.023430
  28 C :   -0.074172
  29 H :    0.018092
  30 H :    0.032738
  31 H :    0.029951
  32 H :    0.036076
  33 H :    0.035265

  Mayer bond orders larger than 0.100000
B(  0-S ,  1-C ) :   1.1453 B(  0-S ,  4-C ) :   1.1267 B(  1-C ,  2-C ) :   1.6147
B(  1-C , 32-H ) :   0.9632 B(  2-C ,  3-C ) :   1.2061 B(  2-C ,  6-C ) :   1.0382
B(  3-C ,  4-C ) :   1.6121 B(  3-C ,  5-H ) :   1.0057 B(  4-C , 20-C ) :   1.0355
B(  6-C ,  7-H ) :   0.9323 B(  6-C ,  8-H ) :   0.9478 B(  6-C ,  9-C ) :   1.0745
B(  9-C , 10-H ) :   0.9470 B(  9-C , 11-H ) :   0.9504 B(  9-C , 12-C ) :   1.0689
B( 12-C , 13-H ) :   0.9762 B( 12-C , 14-H ) :   0.9780 B( 12-C , 15-H ) :   0.9753
B( 16-S , 17-C ) :   1.1246 B( 16-S , 20-C ) :   1.1176 B( 17-C , 18-C ) :   1.6657
B( 17-C , 33-H ) :   0.9606 B( 18-C , 19-C ) :   1.2276 B( 18-C , 21-H ) :   0.9801
B( 19-C , 20-C ) :   1.6260 B( 19-C , 22-C ) :   1.0433 B( 22-C , 23-H ) :   0.9262
B( 22-C , 24-H ) :   0.9381 B( 22-C , 25-C ) :   1.0558 B( 25-C , 26-H ) :   0.9619
B( 25-C , 27-H ) :   0.9493 B( 25-C , 28-C ) :   1.0866 B( 28-C , 29-H ) :   0.9741
B( 28-C , 30-H ) :   0.9726 B( 28-C , 31-H ) :   0.9717

Dispersion correction           -0.015351159
FINAL SINGLE POINT ENERGY     -1339.873336993276

DIPOLE MOMENT
-------------
                                X             Y             Z
Electronic contribution:    -17.96655     -26.46771      -0.13801
Nuclear contribution   :     18.47595      26.94980      -0.06702
                        -----------------------------------------
Total Dipole Moment    :      0.50940       0.48209      -0.20503
                        -----------------------------------------
Magnitude (a.u.)       :      0.73071
Magnitude (Debye)      :      1.85732

Rotational constants in cm-1:     0.020680     0.009477     0.007141
Rotational constants in MHz :   619.960977   284.099947   214.068814

                             ****ORCA TERMINATED NORMALLY****
TOTAL RUN TIME: 0 days 0 hours 0 minutes 32 seconds 304 msec
