                         Program Version 4.2.1 -  RELEASE  -
|  1> ! wB97X-D3 SP def2-SVP
|  2> %pal
|  3> nprocs 16
|  4> end
|  5>
|  6> * xyz 0 1
|  7> S 	 -55.5013 	 22.3344 	 85.9665
|  8> C 	 -54.3791 	 21.132 	 85.4207
|  9> C 	 -53.1191 	 21.4097 	 85.9105
| 10> C 	 -53.0839 	 22.6533 	 86.5612
| 11> C 	 -54.2862 	 23.2375 	 86.8295
| 12> H 	 -52.1991 	 23.0864 	 87.0402
| 13> C 	 -51.8827 	 20.5484 	 85.8138
| 14> H 	 -51.3255 	 20.8798 	 85.0033
| 15> H 	 -52.3539 	 19.6096 	 85.4624
| 16> C 	 -51.088 	 20.3058 	 87.1173
| 17> H 	 -50.0463 	 19.9477 	 86.8833
| 18> H 	 -50.9302 	 21.2296 	 87.7008
| 19> C 	 -51.7676 	 19.3256 	 88.1153
| 20> H 	 -52.7855 	 19.6898 	 88.2541
| 21> H 	 -51.7288 	 18.3244 	 87.663
| 22> H 	 -51.2774 	 19.3219 	 89.0927
| 23> S 	 -54.3613 	 25.9496 	 86.3585
| 24> C 	 -54.4832 	 27.1087 	 87.7044
| 25> C 	 -54.4447 	 26.3638 	 88.8801
| 26> C 	 -54.4214 	 24.9143 	 88.771
| 27> C 	 -54.5281 	 24.5044 	 87.4726
| 28> H 	 -54.4153 	 26.9859 	 89.737
| 29> C 	 -54.1556 	 24.0485 	 89.9701
| 30> H 	 -53.3369 	 24.4987 	 90.5697
| 31> H 	 -53.6582 	 23.1558 	 89.6394
| 32> C 	 -55.3482 	 23.5996 	 90.8494
| 33> H 	 -55.9244 	 24.4497 	 91.1897
| 34> H 	 -54.8641 	 23.0328 	 91.6798
| 35> C 	 -56.2645 	 22.6378 	 90.0147
| 36> H 	 -56.8502 	 23.0635 	 89.2062
| 37> H 	 -56.9902 	 22.1506 	 90.6435
| 38> H 	 -55.7039 	 21.8601 	 89.6236
| 39> H 	 -54.6107 	 20.1497 	 85.028
| 40> H 	 -54.5478 	 28.1581 	 87.6655
| 41> *
| 42>
| 43>                          ****END OF INPUT****

CARTESIAN COORDINATES (ANGSTROEM)
---------------------------------
  S    -55.501300   22.334400   85.966500
  C    -54.379100   21.132000   85.420700
  C    -53.119100   21.409700   85.910500
  C    -53.083900   22.653300   86.561200
  C    -54.286200   23.237500   86.829500
  H    -52.199100   23.086400   87.040200
  C    -51.882700   20.548400   85.813800
  H    -51.325500   20.879800   85.003300
  H    -52.353900   19.609600   85.462400
  C    -51.088000   20.305800   87.117300
  H    -50.046300   19.947700   86.883300
  H    -50.930200   21.229600   87.700800
  C    -51.767600   19.325600   88.115300
  H    -52.785500   19.689800   88.254100
  H    -51.728800   18.324400   87.663000
  H    -51.277400   19.321900   89.092700
  S    -54.361300   25.949600   86.358500
  C    -54.483200   27.108700   87.704400
  C    -54.444700   26.363800   88.880100
  C    -54.421400   24.914300   88.771000
  C    -54.528100   24.504400   87.472600
  H    -54.415300   26.985900   89.737000
  C    -54.155600   24.048500   89.970100
  H    -53.336900   24.498700   90.569700
  H    -53.658200   23.155800   89.639400
  C    -55.348200   23.599600   90.849400
  H    -55.924400   24.449700   91.189700
  H    -54.864100   23.032800   91.679800
  C    -56.264500   22.637800   90.014700
  H    -56.850200   23.063500   89.206200
  H    -56.990200   22.150600   90.643500
  H    -55.703900   21.860100   89.623600
  H    -54.610700   20.149700   85.028000
  H    -54.547800   28.158100   87.665500

 Total Charge           Charge          ....    0
 Multiplicity           Mult            ....    1
 Number of Electrons    NEL             ....  134
 Basis Dimension        Dim             ....  322

ORBITAL ENERGIES
----------------

  NO   OCC          E(Eh)            E(eV)
   0   2.0000     -88.965205     -2420.8663
   1   2.0000     -88.959175     -2420.7022
   2   2.0000     -10.330195      -281.0989
   3   2.0000     -10.325276      -280.9651
   4   2.0000     -10.320263      -280.8286
   5   2.0000     -10.313557      -280.6461
   6   2.0000     -10.309463      -280.5347
   7   2.0000     -10.297250      -280.2024
   8   2.0000     -10.296239      -280.1749
   9   2.0000     -10.293510      -280.1007
  10   2.0000     -10.292967      -280.0859
  11   2.0000     -10.291557      -280.0475
  12   2.0000     -10.291433      -280.0441
  13   2.0000     -10.288672      -279.9690
  14   2.0000     -10.281177      -279.7651
  15   2.0000     -10.266155      -279.3563
  16   2.0000      -8.080204      -219.8735
  17   2.0000      -8.072574      -219.6659
  18   2.0000      -6.038668      -164.3205
  19   2.0000      -6.034526      -164.2078
  20   2.0000      -6.031410      -164.1230
  21   2.0000      -6.031110      -164.1148
  22   2.0000      -6.027295      -164.0110
  23   2.0000      -6.023007      -163.8944
  24   2.0000      -1.009376       -27.4665
  25   2.0000      -0.980209       -26.6728
  26   2.0000      -0.911771       -24.8106
  27   2.0000      -0.904842       -24.6220
  28   2.0000      -0.872343       -23.7377
  29   2.0000      -0.847229       -23.0543
  30   2.0000      -0.840980       -22.8842
  31   2.0000      -0.815284       -22.1850
  32   2.0000      -0.784748       -21.3541
  33   2.0000      -0.776288       -21.1239
  34   2.0000      -0.715016       -19.4566
  35   2.0000      -0.700309       -19.0564
  36   2.0000      -0.693912       -18.8823
  37   2.0000      -0.660720       -17.9791
  38   2.0000      -0.640892       -17.4395
  39   2.0000      -0.621534       -16.9128
  40   2.0000      -0.599092       -16.3021
  41   2.0000      -0.572857       -15.5882
  42   2.0000      -0.558096       -15.1866
  43   2.0000      -0.546997       -14.8845
  44   2.0000      -0.541473       -14.7342
  45   2.0000      -0.536740       -14.6054
  46   2.0000      -0.521633       -14.1943
  47   2.0000      -0.515757       -14.0345
  48   2.0000      -0.508723       -13.8431
  49   2.0000      -0.494640       -13.4599
  50   2.0000      -0.483504       -13.1568
  51   2.0000      -0.473143       -12.8749
  52   2.0000      -0.469564       -12.7775
  53   2.0000      -0.464400       -12.6370
  54   2.0000      -0.459315       -12.4986
  55   2.0000      -0.448534       -12.2052
  56   2.0000      -0.441580       -12.0160
  57   2.0000      -0.438020       -11.9191
  58   2.0000      -0.431790       -11.7496
  59   2.0000      -0.422618       -11.5000
  60   2.0000      -0.420524       -11.4430
  61   2.0000      -0.414203       -11.2710
  62   2.0000      -0.411269       -11.1912
  63   2.0000      -0.336768        -9.1639
  64   2.0000      -0.325354        -8.8533
  65   2.0000      -0.321862        -8.7583
  66   2.0000      -0.315325        -8.5804
  67   0.0000       0.040812         1.1106
  68   0.0000       0.047491         1.2923
  69   0.0000       0.104044         2.8312
  70   0.0000       0.124133         3.3778
  71   0.0000       0.131898         3.5891

MULLIKEN ATOMIC CHARGES
-----------------------
   0 S :    0.115971
   1 C :   -0.103439
   2 C :   -0.147749
   3 C :    0.044646
   4 C :   -0.192326
   5 H :    0.017814
   6 C :    0.131379
   7 H :    0.031812
   8 H :    0.005080
   9 C :   -0.108340
  10 H :    0.037094
  11 H :    0.032588
  12 C :   -0.060186
  13 H :    0.041237
  14 H :    0.038567
  15 H :    0.040273
  16 S :    0.078403
  17 C :   -0.073884
  18 C :   -0.037748
  19 C :    0.005088
  20 C :   -0.145227
  21 H :    0.005108
  22 C :    0.042177
  23 H :    0.031765
  24 H :    0.008170
  25 C :   -0.046284
  26 H :    0.035124
  27 H :    0.039906
  28 C :   -0.031099
  29 H :    0.039311
  30 H :    0.021072
  31 H :    0.008470
  32 H :    0.048948
  33 H :    0.046279
Sum of atomic charges:   -0.0000000

LOEWDIN ATOMIC CHARGES
----------------------
   0 S :    0.423435
   1 C :   -0.205165
   2 C :   -0.070343
   3 C :   -0.060898
   4 C :   -0.208827
   5 H :    0.032375
   6 C :   -0.026588
   7 H :    0.027696
   8 H :    0.032665
   9 C :   -0.044973
  10 H :    0.028659
  11 H :    0.022518
  12 C :   -0.064184
  13 H :    0.026654
  14 H :    0.026061
  15 H :    0.027651
  16 S :    0.356033
  17 C :   -0.161977
  18 C :   -0.069123
  19 C :   -0.047132
  20 C :   -0.174225
  21 H :    0.023223
  22 C :   -0.038287
  23 H :    0.035629
  24 H :    0.025530
  25 C :   -0.027873
  26 H :    0.021966
  27 H :    0.032259
  28 C :   -0.062721
  29 H :    0.027087
  30 H :    0.024053
  31 H :    0.013799
  32 H :    0.030194
  33 H :    0.024828

  Mayer bond orders larger than 0.100000
B(  0-S ,  1-C ) :   1.1571 B(  0-S ,  4-C ) :   1.1498 B(  1-C ,  2-C ) :   1.6004
B(  1-C ,  4-C ) :   0.1010 B(  1-C , 32-H ) :   0.9590 B(  2-C ,  3-C ) :   1.2539
B(  2-C ,  6-C ) :   1.0051 B(  3-C ,  4-C ) :   1.5857 B(  3-C ,  5-H ) :   0.9888
B(  4-C , 20-C ) :   1.0139 B(  6-C ,  7-H ) :   0.9345 B(  6-C ,  8-H ) :   0.9376
B(  6-C ,  9-C ) :   1.0575 B(  9-C , 10-H ) :   0.9566 B(  9-C , 11-H ) :   0.9605
B(  9-C , 12-C ) :   1.0701 B( 12-C , 13-H ) :   0.9783 B( 12-C , 14-H ) :   0.9763
B( 12-C , 15-H ) :   0.9753 B( 16-S , 17-C ) :   1.1331 B( 16-S , 20-C ) :   1.1149
B( 17-C , 18-C ) :   1.6505 B( 17-C , 33-H ) :   0.9737 B( 18-C , 19-C ) :   1.1871
B( 18-C , 21-H ) :   0.9953 B( 19-C , 20-C ) :   1.6337 B( 19-C , 22-C ) :   1.0414
B( 22-C , 23-H ) :   0.9369 B( 22-C , 24-H ) :   0.9294 B( 22-C , 25-C ) :   1.0711
B( 25-C , 26-H ) :   0.9600 B( 25-C , 27-H ) :   0.9528 B( 25-C , 28-C ) :   1.0715
B( 28-C , 29-H ) :   0.9757 B( 28-C , 30-H ) :   0.9733 B( 28-C , 31-H ) :   0.9748

Dispersion correction           -0.015537787
FINAL SINGLE POINT ENERGY     -1339.871473053610

DIPOLE MOMENT
-------------
                                X             Y             Z
Electronic contribution:     -8.67962      17.09524     -16.58307
Nuclear contribution   :      9.20568     -17.35658      17.13352
                        -----------------------------------------
Total Dipole Moment    :      0.52606      -0.26134       0.55045
                        -----------------------------------------
Magnitude (a.u.)       :      0.80500
Magnitude (Debye)      :      2.04615

Rotational constants in cm-1:     0.018342     0.009411     0.008112
Rotational constants in MHz :   549.883495   282.140306   243.187534

                             ****ORCA TERMINATED NORMALLY****
TOTAL RUN TIME: 0 days 0 hours 0 minutes 29 seconds 593 msec
