                         Program Version 4.2.1 -  RELEASE  -
|  1> ! wB97X-D3 SP def2-SVP
|  2> %pal
|  3> nprocs 16
|  4> end
|  5>
|  6> * xyz 0 1
|  7> S 	 -14.3086 	 37.2899 	 55.5244
|  8> C 	 -12.7068 	 38.0771 	 55.6669
|  9> C 	 -12.5257 	 39.0482 	 54.7126
| 10> C 	 -13.6096 	 39.117 	 53.8466
| 11> C 	 -14.6548 	 38.2799 	 54.0513
| 12> H 	 -13.76 	 39.8943 	 53.0966
| 13> C 	 -11.4242 	 40.0287 	 54.6646
| 14> H 	 -11.3324 	 40.363 	 53.6738
| 15> H 	 -10.4631 	 39.5215 	 54.8745
| 16> C 	 -11.5386 	 41.206 	 55.6575
| 17> H 	 -10.8287 	 41.9723 	 55.4044
| 18> H 	 -12.557 	 41.5067 	 55.4631
| 19> C 	 -11.1781 	 40.8517 	 57.1395
| 20> H 	 -12.0502 	 40.4499 	 57.6819
| 21> H 	 -10.3854 	 40.1289 	 57.2558
| 22> H 	 -10.9316 	 41.699 	 57.5792
| 23> S 	 -17.3093 	 38.709 	 54.4305
| 24> C 	 -18.3933 	 38.6748 	 53.1083
| 25> C 	 -17.7843 	 38.4874 	 51.8889
| 26> C 	 -16.3266 	 38.3193 	 52.0409
| 27> C 	 -15.9629 	 38.3584 	 53.4273
| 28> H 	 -18.3481 	 38.4257 	 50.9673
| 29> C 	 -15.3952 	 37.8194 	 50.9217
| 30> H 	 -16.0207 	 37.0233 	 50.4904
| 31> H 	 -14.5076 	 37.2913 	 51.2346
| 32> C 	 -15.0307 	 38.8674 	 49.8507
| 33> H 	 -14.1217 	 39.5057 	 50.0613
| 34> H 	 -15.8823 	 39.5185 	 49.7058
| 35> C 	 -14.7988 	 38.2569 	 48.4698
| 36> H 	 -15.3687 	 37.3008 	 48.4394
| 37> H 	 -13.8057 	 37.8696 	 48.2171
| 38> H 	 -15.1017 	 38.8522 	 47.6045
| 39> H 	 -12.0791 	 37.9033 	 56.4924
| 40> H 	 -19.4665 	 38.6612 	 53.2042
| 41> *
| 42>
| 43>                          ****END OF INPUT****

CARTESIAN COORDINATES (ANGSTROEM)
---------------------------------
  S    -14.308600   37.289900   55.524400
  C    -12.706800   38.077100   55.666900
  C    -12.525700   39.048200   54.712600
  C    -13.609600   39.117000   53.846600
  C    -14.654800   38.279900   54.051300
  H    -13.760000   39.894300   53.096600
  C    -11.424200   40.028700   54.664600
  H    -11.332400   40.363000   53.673800
  H    -10.463100   39.521500   54.874500
  C    -11.538600   41.206000   55.657500
  H    -10.828700   41.972300   55.404400
  H    -12.557000   41.506700   55.463100
  C    -11.178100   40.851700   57.139500
  H    -12.050200   40.449900   57.681900
  H    -10.385400   40.128900   57.255800
  H    -10.931600   41.699000   57.579200
  S    -17.309300   38.709000   54.430500
  C    -18.393300   38.674800   53.108300
  C    -17.784300   38.487400   51.888900
  C    -16.326600   38.319300   52.040900
  C    -15.962900   38.358400   53.427300
  H    -18.348100   38.425700   50.967300
  C    -15.395200   37.819400   50.921700
  H    -16.020700   37.023300   50.490400
  H    -14.507600   37.291300   51.234600
  C    -15.030700   38.867400   49.850700
  H    -14.121700   39.505700   50.061300
  H    -15.882300   39.518500   49.705800
  C    -14.798800   38.256900   48.469800
  H    -15.368700   37.300800   48.439400
  H    -13.805700   37.869600   48.217100
  H    -15.101700   38.852200   47.604500
  H    -12.079100   37.903300   56.492400
  H    -19.466500   38.661200   53.204200

 Total Charge           Charge          ....    0
 Multiplicity           Mult            ....    1
 Number of Electrons    NEL             ....  134
 Basis Dimension        Dim             ....  322

ORBITAL ENERGIES
----------------

  NO   OCC          E(Eh)            E(eV)
   0   2.0000     -88.966260     -2420.8950
   1   2.0000     -88.964361     -2420.8433
   2   2.0000     -10.327919      -281.0370
   3   2.0000     -10.326130      -280.9883
   4   2.0000     -10.313865      -280.6545
   5   2.0000     -10.313613      -280.6477
   6   2.0000     -10.313076      -280.6331
   7   2.0000     -10.299395      -280.2608
   8   2.0000     -10.294304      -280.1222
   9   2.0000     -10.293960      -280.1129
  10   2.0000     -10.289710      -279.9972
  11   2.0000     -10.287455      -279.9359
  12   2.0000     -10.286707      -279.9155
  13   2.0000     -10.284423      -279.8534
  14   2.0000     -10.276517      -279.6382
  15   2.0000     -10.270083      -279.4632
  16   2.0000      -8.082285      -219.9302
  17   2.0000      -8.077782      -219.8076
  18   2.0000      -6.040705      -164.3759
  19   2.0000      -6.036510      -164.2618
  20   2.0000      -6.036386      -164.2584
  21   2.0000      -6.033162      -164.1707
  22   2.0000      -6.032548      -164.1540
  23   2.0000      -6.028455      -164.0426
  24   2.0000      -1.006293       -27.3826
  25   2.0000      -0.984634       -26.7933
  26   2.0000      -0.913089       -24.8464
  27   2.0000      -0.906614       -24.6702
  28   2.0000      -0.869355       -23.6563
  29   2.0000      -0.850488       -23.1429
  30   2.0000      -0.846506       -23.0346
  31   2.0000      -0.816422       -22.2160
  32   2.0000      -0.787389       -21.4259
  33   2.0000      -0.770909       -20.9775
  34   2.0000      -0.707479       -19.2515
  35   2.0000      -0.703622       -19.1465
  36   2.0000      -0.695259       -18.9189
  37   2.0000      -0.658778       -17.9263
  38   2.0000      -0.643212       -17.5027
  39   2.0000      -0.622248       -16.9322
  40   2.0000      -0.599091       -16.3021
  41   2.0000      -0.576498       -15.6873
  42   2.0000      -0.558390       -15.1946
  43   2.0000      -0.547525       -14.8989
  44   2.0000      -0.544084       -14.8053
  45   2.0000      -0.523971       -14.2580
  46   2.0000      -0.518724       -14.1152
  47   2.0000      -0.514914       -14.0115
  48   2.0000      -0.505183       -13.7467
  49   2.0000      -0.497883       -13.5481
  50   2.0000      -0.490512       -13.3475
  51   2.0000      -0.478371       -13.0171
  52   2.0000      -0.471128       -12.8200
  53   2.0000      -0.465808       -12.6753
  54   2.0000      -0.459693       -12.5089
  55   2.0000      -0.453290       -12.3346
  56   2.0000      -0.442502       -12.0411
  57   2.0000      -0.434641       -11.8272
  58   2.0000      -0.429667       -11.6918
  59   2.0000      -0.427177       -11.6241
  60   2.0000      -0.420392       -11.4394
  61   2.0000      -0.416702       -11.3390
  62   2.0000      -0.412512       -11.2250
  63   2.0000      -0.346792        -9.4367
  64   2.0000      -0.330676        -8.9981
  65   2.0000      -0.328275        -8.9328
  66   2.0000      -0.293359        -7.9827
  67   0.0000       0.028567         0.7774
  68   0.0000       0.069700         1.8966
  69   0.0000       0.113058         3.0765
  70   0.0000       0.117138         3.1875
  71   0.0000       0.130060         3.5391

MULLIKEN ATOMIC CHARGES
-----------------------
   0 S :    0.083678
   1 C :   -0.110054
   2 C :   -0.070645
   3 C :    0.027253
   4 C :   -0.150691
   5 H :    0.013946
   6 C :    0.078693
   7 H :    0.006564
   8 H :    0.019933
   9 C :   -0.058376
  10 H :    0.029490
  11 H :    0.029543
  12 C :   -0.005060
  13 H :    0.037522
  14 H :    0.023600
  15 H :    0.002094
  16 S :    0.128210
  17 C :   -0.088017
  18 C :   -0.033332
  19 C :   -0.029875
  20 C :   -0.173520
  21 H :    0.023619
  22 C :    0.042821
  23 H :    0.033666
  24 H :    0.037270
  25 C :   -0.060339
  26 H :    0.047330
  27 H :    0.026811
  28 C :   -0.079297
  29 H :    0.014859
  30 H :    0.027056
  31 H :    0.038632
  32 H :    0.031119
  33 H :    0.055498
Sum of atomic charges:   -0.0000000

LOEWDIN ATOMIC CHARGES
----------------------
   0 S :    0.358704
   1 C :   -0.162992
   2 C :   -0.069782
   3 C :   -0.059379
   4 C :   -0.179604
   5 H :    0.034036
   6 C :   -0.030746
   7 H :    0.022701
   8 H :    0.030786
   9 C :   -0.025647
  10 H :    0.022964
  11 H :    0.025447
  12 C :   -0.053160
  13 H :    0.031370
  14 H :    0.023408
  15 H :    0.006212
  16 S :    0.440350
  17 C :   -0.199003
  18 C :   -0.070474
  19 C :   -0.050441
  20 C :   -0.215889
  21 H :    0.032436
  22 C :   -0.031640
  23 H :    0.036175
  24 H :    0.031819
  25 C :   -0.046109
  26 H :    0.032786
  27 H :    0.024288
  28 C :   -0.078094
  29 H :    0.024809
  30 H :    0.022450
  31 H :    0.026660
  32 H :    0.016902
  33 H :    0.028657

  Mayer bond orders larger than 0.100000
B(  0-S ,  1-C ) :   1.1331 B(  0-S ,  4-C ) :   1.1213 B(  1-C ,  2-C ) :   1.6059
B(  1-C , 32-H ) :   0.9728 B(  2-C ,  3-C ) :   1.2493 B(  2-C ,  6-C ) :   1.0348
B(  3-C ,  4-C ) :   1.6000 B(  3-C ,  5-H ) :   0.9884 B(  4-C , 20-C ) :   1.0448
B(  6-C ,  7-H ) :   0.9339 B(  6-C ,  8-H ) :   0.9346 B(  6-C ,  9-C ) :   1.0683
B(  9-C , 10-H ) :   0.9613 B(  9-C , 11-H ) :   0.9568 B(  9-C , 12-C ) :   1.0712
B( 12-C , 13-H ) :   0.9725 B( 12-C , 14-H ) :   0.9758 B( 12-C , 15-H ) :   0.9733
B( 16-S , 17-C ) :   1.1623 B( 16-S , 20-C ) :   1.1644 B( 17-C , 18-C ) :   1.6147
B( 17-C , 33-H ) :   0.9667 B( 18-C , 19-C ) :   1.2373 B( 18-C , 21-H ) :   0.9883
B( 19-C , 20-C ) :   1.5669 B( 19-C , 22-C ) :   1.0341 B( 22-C , 23-H ) :   0.9454
B( 22-C , 24-H ) :   0.9439 B( 22-C , 25-C ) :   1.0544 B( 25-C , 26-H ) :   0.9539
B( 25-C , 27-H ) :   0.9631 B( 25-C , 28-C ) :   1.0644 B( 28-C , 29-H ) :   0.9758
B( 28-C , 30-H ) :   0.9752 B( 28-C , 31-H ) :   0.9782

Dispersion correction           -0.014092572
FINAL SINGLE POINT ENERGY     -1339.865439968729

DIPOLE MOMENT
-------------
                                X             Y             Z
Electronic contribution:    -16.30914      -9.63724      13.32253
Nuclear contribution   :     16.54487       9.98450     -13.64057
                        -----------------------------------------
Total Dipole Moment    :      0.23573       0.34726      -0.31804
                        -----------------------------------------
Magnitude (a.u.)       :      0.52660
Magnitude (Debye)      :      1.33851

Rotational constants in cm-1:     0.018625     0.008153     0.006552
Rotational constants in MHz :   558.376202   244.435761   196.424550

                             ****ORCA TERMINATED NORMALLY****
TOTAL RUN TIME: 0 days 0 hours 0 minutes 34 seconds 475 msec
