                         Program Version 4.2.1 -  RELEASE  -
|  1> ! wB97X-D3 SP def2-SVP
|  2> %pal
|  3> nprocs 16
|  4> end
|  5>
|  6> * xyz 0 1
|  7> S 	 -1.45282 	 18.8435 	 53.2869
|  8> C 	 0.050889 	 18.8848 	 52.2596
|  9> C 	 1.18968 	 18.6501 	 53.0293
| 10> C 	 0.805713 	 18.4013 	 54.3792
| 11> C 	 -0.512531 	 18.5967 	 54.7054
| 12> H 	 1.52734 	 18.0459 	 55.0785
| 13> C 	 2.64158 	 18.6655 	 52.6396
| 14> H 	 2.72106 	 19.0036 	 51.6097
| 15> H 	 2.98256 	 17.6908 	 52.7059
| 16> C 	 3.52813 	 19.5275 	 53.6258
| 17> H 	 3.30957 	 20.6238 	 53.6666
| 18> H 	 3.60863 	 19.067 	 54.6105
| 19> C 	 4.93563 	 19.5603 	 52.9683
| 20> H 	 4.93768 	 19.6009 	 51.8754
| 21> H 	 5.43501 	 20.4498 	 53.292
| 22> H 	 5.54135 	 18.6481 	 53.2188
| 23> S 	 -2.48719 	 17.5897 	 56.2386
| 24> C 	 -2.4627 	 17.8537 	 57.9555
| 25> C 	 -1.5234 	 18.722 	 58.365
| 26> C 	 -0.58091 	 18.9562 	 57.3208
| 27> C 	 -1.01598 	 18.4675 	 56.0844
| 28> H 	 -1.4752 	 19.0934 	 59.3945
| 29> C 	 0.68825 	 19.6923 	 57.7182
| 30> H 	 0.483524 	 20.5339 	 58.3478
| 31> H 	 1.08474 	 20.1427 	 56.831
| 32> C 	 1.823 	 18.9885 	 58.3922
| 33> H 	 1.42694 	 18.4946 	 59.3317
| 34> H 	 2.48196 	 19.8246 	 58.5657
| 35> C 	 2.62714 	 18.0235 	 57.5513
| 36> H 	 3.24654 	 18.4064 	 56.8048
| 37> H 	 1.96404 	 17.2682 	 56.9654
| 38> H 	 3.40051 	 17.521 	 58.1824
| 39> H 	 0.0979922 	 19.0284 	 51.2172
| 40> H 	 -3.25603 	 17.6375 	 58.6997
| 41> *
| 42>
| 43>                          ****END OF INPUT****

CARTESIAN COORDINATES (ANGSTROEM)
---------------------------------
  S     -1.452820   18.843500   53.286900
  C      0.050889   18.884800   52.259600
  C      1.189680   18.650100   53.029300
  C      0.805713   18.401300   54.379200
  C     -0.512531   18.596700   54.705400
  H      1.527340   18.045900   55.078500
  C      2.641580   18.665500   52.639600
  H      2.721060   19.003600   51.609700
  H      2.982560   17.690800   52.705900
  C      3.528130   19.527500   53.625800
  H      3.309570   20.623800   53.666600
  H      3.608630   19.067000   54.610500
  C      4.935630   19.560300   52.968300
  H      4.937680   19.600900   51.875400
  H      5.435010   20.449800   53.292000
  H      5.541350   18.648100   53.218800
  S     -2.487190   17.589700   56.238600
  C     -2.462700   17.853700   57.955500
  C     -1.523400   18.722000   58.365000
  C     -0.580910   18.956200   57.320800
  C     -1.015980   18.467500   56.084400
  H     -1.475200   19.093400   59.394500
  C      0.688250   19.692300   57.718200
  H      0.483524   20.533900   58.347800
  H      1.084740   20.142700   56.831000
  C      1.823000   18.988500   58.392200
  H      1.426940   18.494600   59.331700
  H      2.481960   19.824600   58.565700
  C      2.627140   18.023500   57.551300
  H      3.246540   18.406400   56.804800
  H      1.964040   17.268200   56.965400
  H      3.400510   17.521000   58.182400
  H      0.097992   19.028400   51.217200
  H     -3.256030   17.637500   58.699700

 Total Charge           Charge          ....    0
 Multiplicity           Mult            ....    1
 Number of Electrons    NEL             ....  134
 Basis Dimension        Dim             ....  322

ORBITAL ENERGIES
----------------

  NO   OCC          E(Eh)            E(eV)
   0   2.0000     -88.967650     -2420.9328
   1   2.0000     -88.966017     -2420.8884
   2   2.0000     -10.327898      -281.0364
   3   2.0000     -10.326736      -281.0048
   4   2.0000     -10.314741      -280.6784
   5   2.0000     -10.310986      -280.5762
   6   2.0000     -10.302697      -280.3507
   7   2.0000     -10.298444      -280.2349
   8   2.0000     -10.298381      -280.2332
   9   2.0000     -10.293818      -280.1090
  10   2.0000     -10.289090      -279.9804
  11   2.0000     -10.288550      -279.9657
  12   2.0000     -10.282484      -279.8006
  13   2.0000     -10.282113      -279.7905
  14   2.0000     -10.282093      -279.7900
  15   2.0000     -10.280677      -279.7514
  16   2.0000      -8.081606      -219.9117
  17   2.0000      -8.081536      -219.9098
  18   2.0000      -6.040302      -164.3650
  19   2.0000      -6.040114      -164.3599
  20   2.0000      -6.036268      -164.2552
  21   2.0000      -6.036087      -164.2503
  22   2.0000      -6.032209      -164.1448
  23   2.0000      -6.031979      -164.1385
  24   2.0000      -1.010160       -27.4878
  25   2.0000      -0.984220       -26.7820
  26   2.0000      -0.917986       -24.9797
  27   2.0000      -0.912949       -24.8426
  28   2.0000      -0.870861       -23.6973
  29   2.0000      -0.850491       -23.1430
  30   2.0000      -0.845847       -23.0167
  31   2.0000      -0.814827       -22.1726
  32   2.0000      -0.785381       -21.3713
  33   2.0000      -0.776943       -21.1417
  34   2.0000      -0.712445       -19.3866
  35   2.0000      -0.698875       -19.0173
  36   2.0000      -0.688128       -18.7249
  37   2.0000      -0.659202       -17.9378
  38   2.0000      -0.637512       -17.3476
  39   2.0000      -0.624796       -17.0016
  40   2.0000      -0.598662       -16.2904
  41   2.0000      -0.576002       -15.6738
  42   2.0000      -0.564815       -15.3694
  43   2.0000      -0.553199       -15.0533
  44   2.0000      -0.544650       -14.8207
  45   2.0000      -0.527777       -14.3616
  46   2.0000      -0.517552       -14.0833
  47   2.0000      -0.510986       -13.9046
  48   2.0000      -0.504015       -13.7150
  49   2.0000      -0.501062       -13.6346
  50   2.0000      -0.496887       -13.5210
  51   2.0000      -0.478561       -13.0223
  52   2.0000      -0.470861       -12.8128
  53   2.0000      -0.464675       -12.6444
  54   2.0000      -0.457530       -12.4500
  55   2.0000      -0.451349       -12.2818
  56   2.0000      -0.440099       -11.9757
  57   2.0000      -0.438725       -11.9383
  58   2.0000      -0.434094       -11.8123
  59   2.0000      -0.431858       -11.7515
  60   2.0000      -0.418834       -11.3970
  61   2.0000      -0.414044       -11.2667
  62   2.0000      -0.411567       -11.1993
  63   2.0000      -0.349939        -9.5223
  64   2.0000      -0.329753        -8.9730
  65   2.0000      -0.327693        -8.9170
  66   2.0000      -0.288896        -7.8613
  67   0.0000       0.031568         0.8590
  68   0.0000       0.078137         2.1262
  69   0.0000       0.103294         2.8108
  70   0.0000       0.120313         3.2739
  71   0.0000       0.133680         3.6376

MULLIKEN ATOMIC CHARGES
-----------------------
   0 S :    0.101745
   1 C :   -0.121206
   2 C :   -0.067245
   3 C :    0.020751
   4 C :   -0.092742
   5 H :   -0.051217
   6 C :    0.108082
   7 H :    0.018267
   8 H :    0.024009
   9 C :   -0.113841
  10 H :    0.051888
  11 H :    0.050349
  12 C :   -0.062155
  13 H :    0.028174
  14 H :    0.029003
  15 H :    0.035601
  16 S :    0.110982
  17 C :   -0.077926
  18 C :   -0.056440
  19 C :   -0.041666
  20 C :   -0.157328
  21 H :    0.030456
  22 C :    0.071472
  23 H :    0.016253
  24 H :    0.001056
  25 C :   -0.042281
  26 H :    0.038973
  27 H :    0.027824
  28 C :   -0.061263
  29 H :   -0.003016
  30 H :    0.067049
  31 H :    0.034600
  32 H :    0.023724
  33 H :    0.058069
Sum of atomic charges:    0.0000000

LOEWDIN ATOMIC CHARGES
----------------------
   0 S :    0.386108
   1 C :   -0.178188
   2 C :   -0.054587
   3 C :   -0.067489
   4 C :   -0.201434
   5 H :    0.018281
   6 C :   -0.019797
   7 H :    0.030624
   8 H :    0.027822
   9 C :   -0.034798
  10 H :    0.034552
  11 H :    0.023471
  12 C :   -0.069695
  13 H :    0.023019
  14 H :    0.020401
  15 H :    0.027583
  16 S :    0.421081
  17 C :   -0.196040
  18 C :   -0.071792
  19 C :   -0.055145
  20 C :   -0.200736
  21 H :    0.037973
  22 C :   -0.036543
  23 H :    0.030850
  24 H :    0.024914
  25 C :   -0.039397
  26 H :    0.030668
  27 H :    0.030676
  28 C :   -0.076509
  29 H :    0.009719
  30 H :    0.036101
  31 H :    0.034514
  32 H :    0.017332
  33 H :    0.036458

  Mayer bond orders larger than 0.100000
B(  0-S ,  1-C ) :   1.1085 B(  0-S ,  4-C ) :   1.1406 B(  1-C ,  2-C ) :   1.6234
B(  1-C , 32-H ) :   0.9716 B(  2-C ,  3-C ) :   1.2405 B(  2-C ,  6-C ) :   1.0274
B(  3-C ,  4-C ) :   1.5740 B(  3-C ,  5-H ) :   0.9884 B(  4-C , 20-C ) :   1.0350
B(  6-C ,  7-H ) :   0.9434 B(  6-C ,  8-H ) :   0.9268 B(  6-C ,  9-C ) :   1.0675
B(  9-C , 10-H ) :   0.9662 B(  9-C , 11-H ) :   0.9470 B(  9-C , 12-C ) :   1.0743
B( 12-C , 13-H ) :   0.9756 B( 12-C , 14-H ) :   0.9796 B( 12-C , 15-H ) :   0.9751
B( 16-S , 17-C ) :   1.1452 B( 16-S , 20-C ) :   1.1420 B( 17-C , 18-C ) :   1.6493
B( 17-C , 33-H ) :   0.9535 B( 18-C , 19-C ) :   1.2305 B( 18-C , 21-H ) :   0.9846
B( 19-C , 20-C ) :   1.5974 B( 19-C , 22-C ) :   1.0481 B( 22-C , 23-H ) :   0.9331
B( 22-C , 24-H ) :   0.9195 B( 22-C , 25-C ) :   1.0878 B( 25-C , 26-H ) :   0.9512
B( 25-C , 27-H ) :   0.9450 B( 25-C , 28-C ) :   1.0957 B( 28-C , 29-H ) :   0.9694
B( 28-C , 30-H ) :   0.9562 B( 28-C , 31-H ) :   0.9601

Dispersion correction           -0.015248496
FINAL SINGLE POINT ENERGY     -1339.856878980517

DIPOLE MOMENT
-------------
                                X             Y             Z
Electronic contribution:    -32.36437      -4.81477      -4.17417
Nuclear contribution   :     33.15780       5.05062       4.44050
                        -----------------------------------------
Total Dipole Moment    :      0.79343       0.23585       0.26633
                        -----------------------------------------
Magnitude (a.u.)       :      0.86953
Magnitude (Debye)      :      2.21017

Rotational constants in cm-1:     0.018468     0.010123     0.006920
Rotational constants in MHz :   553.642781   303.484845   207.460793

                             ****ORCA TERMINATED NORMALLY****
TOTAL RUN TIME: 0 days 0 hours 0 minutes 37 seconds 467 msec
