                         Program Version 4.2.1 -  RELEASE  -
|  1> ! wB97X-D3 SP def2-SVP
|  2> %pal
|  3> nprocs 16
|  4> end
|  5>
|  6> * xyz 0 1
|  7> S 	 0.0380759 	 27.3511 	 38.8187
|  8> C 	 -0.156383 	 27.7364 	 37.1667
|  9> C 	 0.544723 	 26.8847 	 36.3967
| 10> C 	 1.20018 	 25.8231 	 37.1
| 11> C 	 1.01104 	 25.9694 	 38.4878
| 12> H 	 1.78647 	 25.0432 	 36.7238
| 13> C 	 0.475228 	 26.9641 	 34.8404
| 14> H 	 1.49321 	 26.5357 	 34.5468
| 15> H 	 0.550948 	 28.0058 	 34.5361
| 16> C 	 -0.792266 	 26.3577 	 34.3665
| 17> H 	 -1.22202 	 25.5044 	 34.9472
| 18> H 	 -1.51249 	 27.142 	 34.5779
| 19> C 	 -0.904227 	 26.2216 	 32.8456
| 20> H 	 -1.91148 	 26.1788 	 32.5145
| 21> H 	 -0.279184 	 27.0122 	 32.2802
| 22> H 	 -0.394419 	 25.2551 	 32.6429
| 23> S 	 2.11127 	 25.8782 	 40.9952
| 24> C 	 2.1671 	 24.3607 	 41.8589
| 25> C 	 1.92366 	 23.3084 	 41.0065
| 26> C 	 1.52103 	 23.6765 	 39.6969
| 27> C 	 1.37122 	 25.0917 	 39.6137
| 28> H 	 2.03933 	 22.2772 	 41.4097
| 29> C 	 1.21019 	 22.6622 	 38.6763
| 30> H 	 2.02618 	 21.9404 	 38.7015
| 31> H 	 1.08244 	 22.9984 	 37.6512
| 32> C 	 -0.0232727 	 21.8019 	 38.9936
| 33> H 	 0.115239 	 21.4454 	 40.0155
| 34> H 	 0.208986 	 20.8305 	 38.532
| 35> C 	 -1.30802 	 22.2742 	 38.4896
| 36> H 	 -2.16192 	 21.6833 	 38.7023
| 37> H 	 -1.27582 	 22.1874 	 37.4318
| 38> H 	 -1.5281 	 23.344 	 38.7031
| 39> H 	 -0.786535 	 28.5385 	 36.8521
| 40> H 	 2.70574 	 24.1137 	 42.7729
| 41> *
| 42>
| 43>                          ****END OF INPUT****

CARTESIAN COORDINATES (ANGSTROEM)
---------------------------------
  S      0.038076   27.351100   38.818700
  C     -0.156383   27.736400   37.166700
  C      0.544723   26.884700   36.396700
  C      1.200180   25.823100   37.100000
  C      1.011040   25.969400   38.487800
  H      1.786470   25.043200   36.723800
  C      0.475228   26.964100   34.840400
  H      1.493210   26.535700   34.546800
  H      0.550948   28.005800   34.536100
  C     -0.792266   26.357700   34.366500
  H     -1.222020   25.504400   34.947200
  H     -1.512490   27.142000   34.577900
  C     -0.904227   26.221600   32.845600
  H     -1.911480   26.178800   32.514500
  H     -0.279184   27.012200   32.280200
  H     -0.394419   25.255100   32.642900
  S      2.111270   25.878200   40.995200
  C      2.167100   24.360700   41.858900
  C      1.923660   23.308400   41.006500
  C      1.521030   23.676500   39.696900
  C      1.371220   25.091700   39.613700
  H      2.039330   22.277200   41.409700
  C      1.210190   22.662200   38.676300
  H      2.026180   21.940400   38.701500
  H      1.082440   22.998400   37.651200
  C     -0.023273   21.801900   38.993600
  H      0.115239   21.445400   40.015500
  H      0.208986   20.830500   38.532000
  C     -1.308020   22.274200   38.489600
  H     -2.161920   21.683300   38.702300
  H     -1.275820   22.187400   37.431800
  H     -1.528100   23.344000   38.703100
  H     -0.786535   28.538500   36.852100
  H      2.705740   24.113700   42.772900

 Total Charge           Charge          ....    0
 Multiplicity           Mult            ....    1
 Number of Electrons    NEL             ....  134
 Basis Dimension        Dim             ....  322

ORBITAL ENERGIES
----------------

  NO   OCC          E(Eh)            E(eV)
   0   2.0000     -88.966807     -2420.9099
   1   2.0000     -88.961592     -2420.7680
   2   2.0000     -10.331004      -281.1209
   3   2.0000     -10.329736      -281.0864
   4   2.0000     -10.313511      -280.6449
   5   2.0000     -10.305094      -280.4159
   6   2.0000     -10.303308      -280.3673
   7   2.0000     -10.296942      -280.1940
   8   2.0000     -10.295526      -280.1555
   9   2.0000     -10.294450      -280.1262
  10   2.0000     -10.293435      -280.0986
  11   2.0000     -10.289225      -279.9840
  12   2.0000     -10.285540      -279.8838
  13   2.0000     -10.283357      -279.8244
  14   2.0000     -10.280510      -279.7469
  15   2.0000     -10.268360      -279.4163
  16   2.0000      -8.081325      -219.9040
  17   2.0000      -8.077865      -219.8099
  18   2.0000      -6.039822      -164.3519
  19   2.0000      -6.036134      -164.2516
  20   2.0000      -6.035996      -164.2478
  21   2.0000      -6.032035      -164.1400
  22   2.0000      -6.031960      -164.1380
  23   2.0000      -6.028891      -164.0545
  24   2.0000      -1.010441       -27.4955
  25   2.0000      -0.988330       -26.8938
  26   2.0000      -0.920481       -25.0476
  27   2.0000      -0.915416       -24.9097
  28   2.0000      -0.869767       -23.6676
  29   2.0000      -0.856407       -23.3040
  30   2.0000      -0.846511       -23.0347
  31   2.0000      -0.816129       -22.2080
  32   2.0000      -0.786152       -21.3923
  33   2.0000      -0.772367       -21.0172
  34   2.0000      -0.707163       -19.2429
  35   2.0000      -0.696702       -18.9582
  36   2.0000      -0.693867       -18.8811
  37   2.0000      -0.659622       -17.9492
  38   2.0000      -0.643642       -17.5144
  39   2.0000      -0.620721       -16.8907
  40   2.0000      -0.599723       -16.3193
  41   2.0000      -0.566731       -15.4215
  42   2.0000      -0.563351       -15.3296
  43   2.0000      -0.557672       -15.1750
  44   2.0000      -0.536214       -14.5911
  45   2.0000      -0.531457       -14.4617
  46   2.0000      -0.517161       -14.0727
  47   2.0000      -0.514354       -13.9963
  48   2.0000      -0.504473       -13.7274
  49   2.0000      -0.501993       -13.6599
  50   2.0000      -0.494320       -13.4511
  51   2.0000      -0.478788       -13.0285
  52   2.0000      -0.476876       -12.9765
  53   2.0000      -0.466690       -12.6993
  54   2.0000      -0.461122       -12.5478
  55   2.0000      -0.451123       -12.2757
  56   2.0000      -0.449315       -12.2265
  57   2.0000      -0.443245       -12.0613
  58   2.0000      -0.435710       -11.8563
  59   2.0000      -0.424343       -11.5470
  60   2.0000      -0.415121       -11.2960
  61   2.0000      -0.401448       -10.9240
  62   2.0000      -0.395862       -10.7720
  63   2.0000      -0.352288        -9.5863
  64   2.0000      -0.331821        -9.0293
  65   2.0000      -0.327859        -8.9215
  66   2.0000      -0.286493        -7.7959
  67   0.0000       0.026503         0.7212
  68   0.0000       0.077124         2.0986
  69   0.0000       0.102941         2.8012
  70   0.0000       0.125406         3.4125
  71   0.0000       0.136238         3.7072

MULLIKEN ATOMIC CHARGES
-----------------------
   0 S :    0.111986
   1 C :   -0.119236
   2 C :   -0.098318
   3 C :    0.042246
   4 C :   -0.157759
   5 H :   -0.004196
   6 C :    0.055768
   7 H :    0.029861
   8 H :    0.024523
   9 C :   -0.079465
  10 H :    0.047415
  11 H :    0.013694
  12 C :   -0.044230
  13 H :    0.036633
  14 H :    0.041580
  15 H :    0.032558
  16 S :    0.106718
  17 C :   -0.072519
  18 C :   -0.087396
  19 C :    0.002417
  20 C :   -0.142435
  21 H :    0.034082
  22 C :    0.058492
  23 H :    0.022039
  24 H :    0.008166
  25 C :   -0.073130
  26 H :    0.007729
  27 H :    0.007014
  28 C :    0.017895
  29 H :    0.023181
  30 H :    0.008651
  31 H :    0.043860
  32 H :    0.042358
  33 H :    0.059818
Sum of atomic charges:   -0.0000000

LOEWDIN ATOMIC CHARGES
----------------------
   0 S :    0.436222
   1 C :   -0.209227
   2 C :   -0.062697
   3 C :   -0.063965
   4 C :   -0.199696
   5 H :    0.021593
   6 C :   -0.032211
   7 H :    0.030114
   8 H :    0.028737
   9 C :   -0.054449
  10 H :    0.033249
  11 H :    0.024413
  12 C :   -0.067107
  13 H :    0.020011
  14 H :    0.035825
  15 H :    0.027080
  16 S :    0.409507
  17 C :   -0.199124
  18 C :   -0.072481
  19 C :   -0.055419
  20 C :   -0.199326
  21 H :    0.036757
  22 C :   -0.030850
  23 H :    0.037991
  24 H :    0.026396
  25 C :   -0.045222
  26 H :    0.019392
  27 H :    0.024519
  28 C :   -0.064082
  29 H :    0.025500
  30 H :    0.024039
  31 H :    0.034102
  32 H :    0.025149
  33 H :    0.035259

  Mayer bond orders larger than 0.100000
B(  0-S ,  1-C ) :   1.1422 B(  0-S ,  4-C ) :   1.1903 B(  1-C ,  2-C ) :   1.6000
B(  1-C , 32-H ) :   0.9785 B(  2-C ,  3-C ) :   1.2533 B(  2-C ,  6-C ) :   1.0074
B(  3-C ,  4-C ) :   1.5387 B(  3-C ,  5-H ) :   1.0079 B(  4-C , 20-C ) :   1.0220
B(  6-C ,  7-H ) :   0.9488 B(  6-C ,  8-H ) :   0.9388 B(  6-C ,  9-C ) :   1.0556
B(  9-C , 10-H ) :   0.9604 B(  9-C , 11-H ) :   0.9475 B(  9-C , 12-C ) :   1.0712
B( 12-C , 13-H ) :   0.9763 B( 12-C , 14-H ) :   0.9707 B( 12-C , 15-H ) :   0.9775
B( 16-S , 17-C ) :   1.1420 B( 16-S , 20-C ) :   1.1614 B( 17-C , 18-C ) :   1.6252
B( 17-C , 20-C ) :   0.1025 B( 17-C , 33-H ) :   0.9604 B( 18-C , 19-C ) :   1.2483
B( 18-C , 21-H ) :   0.9768 B( 19-C , 20-C ) :   1.5475 B( 19-C , 22-C ) :   1.0694
B( 22-C , 23-H ) :   0.9193 B( 22-C , 24-H ) :   0.9369 B( 22-C , 25-C ) :   1.0877
B( 25-C , 26-H ) :   0.9487 B( 25-C , 27-H ) :   0.9465 B( 25-C , 28-C ) :   1.0806
B( 28-C , 29-H ) :   0.9666 B( 28-C , 30-H ) :   0.9625 B( 28-C , 31-H ) :   0.9738

Dispersion correction           -0.014172965
FINAL SINGLE POINT ENERGY     -1339.861051025535

DIPOLE MOMENT
-------------
                                X             Y             Z
Electronic contribution:     10.46826      14.48657      23.63910
Nuclear contribution   :    -10.52940     -15.02413     -24.14920
                        -----------------------------------------
Total Dipole Moment    :     -0.06114      -0.53755      -0.51011
                        -----------------------------------------
Magnitude (a.u.)       :      0.74358
Magnitude (Debye)      :      1.89003

Rotational constants in cm-1:     0.020359     0.008565     0.006659
Rotational constants in MHz :   610.360635   256.776526   199.626463

                             ****ORCA TERMINATED NORMALLY****
TOTAL RUN TIME: 0 days 0 hours 0 minutes 35 seconds 505 msec
