                         Program Version 4.2.1 -  RELEASE  -
|  1> ! wB97X-D3 SP def2-SVP
|  2> %pal
|  3> nprocs 16
|  4> end
|  5>
|  6> * xyz 0 1
|  7> S 	 -16.6249 	 33.2904 	 42.7332
|  8> C 	 -15.2841 	 33.5356 	 43.812
|  9> C 	 -14.3814 	 34.5297 	 43.3638
| 10> C 	 -14.8472 	 35.014 	 42.1229
| 11> C 	 -15.9597 	 34.4178 	 41.611
| 12> H 	 -14.3453 	 35.8786 	 41.5974
| 13> C 	 -13.1894 	 34.9659 	 44.2284
| 14> H 	 -13.4181 	 34.6126 	 45.2507
| 15> H 	 -13.2191 	 36.0264 	 44.3207
| 16> C 	 -11.7828 	 34.4953 	 43.7964
| 17> H 	 -11.0176 	 34.7673 	 44.5861
| 18> H 	 -11.6891 	 33.3567 	 43.7059
| 19> C 	 -11.375 	 35.1718 	 42.4527
| 20> H 	 -11.4698 	 36.2467 	 42.5067
| 21> H 	 -10.3039 	 34.952 	 42.3125
| 22> H 	 -11.822 	 34.7271 	 41.6056
| 23> S 	 -17.3127 	 36.2653 	 40.0953
| 24> C 	 -17.7574 	 35.8674 	 38.468
| 25> C 	 -17.4732 	 34.5157 	 38.1822
| 26> C 	 -16.7078 	 33.8683 	 39.2381
| 27> C 	 -16.5658 	 34.7028 	 40.3436
| 28> H 	 -17.6684 	 34.2475 	 37.1618
| 29> C 	 -16.1744 	 32.4904 	 39.0767
| 30> H 	 -16.9386 	 31.8481 	 38.5953
| 31> H 	 -15.9049 	 32.0795 	 40.0434
| 32> C 	 -14.9113 	 32.4505 	 38.1304
| 33> H 	 -14.2618 	 33.2689 	 38.3775
| 34> H 	 -15.2164 	 32.5574 	 37.0338
| 35> C 	 -14.1089 	 31.1202 	 38.2764
| 36> H 	 -14.8872 	 30.3709 	 38.1748
| 37> H 	 -13.5572 	 30.9875 	 39.1945
| 38> H 	 -13.4505 	 31.0169 	 37.4328
| 39> H 	 -15.1011 	 33.0223 	 44.749
| 40> H 	 -18.2605 	 36.6167 	 37.7889
| 41> *
| 42>
| 43>                          ****END OF INPUT****

CARTESIAN COORDINATES (ANGSTROEM)
---------------------------------
  S    -16.624900   33.290400   42.733200
  C    -15.284100   33.535600   43.812000
  C    -14.381400   34.529700   43.363800
  C    -14.847200   35.014000   42.122900
  C    -15.959700   34.417800   41.611000
  H    -14.345300   35.878600   41.597400
  C    -13.189400   34.965900   44.228400
  H    -13.418100   34.612600   45.250700
  H    -13.219100   36.026400   44.320700
  C    -11.782800   34.495300   43.796400
  H    -11.017600   34.767300   44.586100
  H    -11.689100   33.356700   43.705900
  C    -11.375000   35.171800   42.452700
  H    -11.469800   36.246700   42.506700
  H    -10.303900   34.952000   42.312500
  H    -11.822000   34.727100   41.605600
  S    -17.312700   36.265300   40.095300
  C    -17.757400   35.867400   38.468000
  C    -17.473200   34.515700   38.182200
  C    -16.707800   33.868300   39.238100
  C    -16.565800   34.702800   40.343600
  H    -17.668400   34.247500   37.161800
  C    -16.174400   32.490400   39.076700
  H    -16.938600   31.848100   38.595300
  H    -15.904900   32.079500   40.043400
  C    -14.911300   32.450500   38.130400
  H    -14.261800   33.268900   38.377500
  H    -15.216400   32.557400   37.033800
  C    -14.108900   31.120200   38.276400
  H    -14.887200   30.370900   38.174800
  H    -13.557200   30.987500   39.194500
  H    -13.450500   31.016900   37.432800
  H    -15.101100   33.022300   44.749000
  H    -18.260500   36.616700   37.788900

 Total Charge           Charge          ....    0
 Multiplicity           Mult            ....    1
 Number of Electrons    NEL             ....  134
 Basis Dimension        Dim             ....  322

ORBITAL ENERGIES
----------------

  NO   OCC          E(Eh)            E(eV)
   0   2.0000     -88.969826     -2420.9920
   1   2.0000     -88.963248     -2420.8131
   2   2.0000     -10.322435      -280.8877
   3   2.0000     -10.321031      -280.8495
   4   2.0000     -10.319969      -280.8206
   5   2.0000     -10.314160      -280.6626
   6   2.0000     -10.305079      -280.4155
   7   2.0000     -10.302010      -280.3319
   8   2.0000     -10.300265      -280.2845
   9   2.0000     -10.296133      -280.1720
  10   2.0000     -10.296036      -280.1694
  11   2.0000     -10.293468      -280.0995
  12   2.0000     -10.290756      -280.0257
  13   2.0000     -10.289857      -280.0013
  14   2.0000     -10.275688      -279.6157
  15   2.0000     -10.273740      -279.5627
  16   2.0000      -8.084587      -219.9928
  17   2.0000      -8.078325      -219.8224
  18   2.0000      -6.042913      -164.4360
  19   2.0000      -6.039051      -164.3309
  20   2.0000      -6.036714      -164.2673
  21   2.0000      -6.035581      -164.2365
  22   2.0000      -6.032697      -164.1580
  23   2.0000      -6.029287      -164.0652
  24   2.0000      -1.008909       -27.4538
  25   2.0000      -0.982552       -26.7366
  26   2.0000      -0.907578       -24.6965
  27   2.0000      -0.903184       -24.5769
  28   2.0000      -0.866791       -23.5866
  29   2.0000      -0.848651       -23.0930
  30   2.0000      -0.845192       -22.9989
  31   2.0000      -0.812008       -22.0959
  32   2.0000      -0.784157       -21.3380
  33   2.0000      -0.767395       -20.8819
  34   2.0000      -0.701149       -19.0792
  35   2.0000      -0.697234       -18.9727
  36   2.0000      -0.689010       -18.7489
  37   2.0000      -0.659164       -17.9368
  38   2.0000      -0.635148       -17.2833
  39   2.0000      -0.616665       -16.7803
  40   2.0000      -0.591636       -16.0992
  41   2.0000      -0.571722       -15.5574
  42   2.0000      -0.563218       -15.3259
  43   2.0000      -0.542253       -14.7554
  44   2.0000      -0.541170       -14.7260
  45   2.0000      -0.523120       -14.2348
  46   2.0000      -0.517177       -14.0731
  47   2.0000      -0.508554       -13.8385
  48   2.0000      -0.504270       -13.7219
  49   2.0000      -0.494052       -13.4438
  50   2.0000      -0.486529       -13.2391
  51   2.0000      -0.480718       -13.0810
  52   2.0000      -0.468284       -12.7427
  53   2.0000      -0.465806       -12.6752
  54   2.0000      -0.457529       -12.4500
  55   2.0000      -0.442762       -12.0482
  56   2.0000      -0.440137       -11.9767
  57   2.0000      -0.435138       -11.8407
  58   2.0000      -0.428616       -11.6632
  59   2.0000      -0.427423       -11.6308
  60   2.0000      -0.426618       -11.6089
  61   2.0000      -0.419102       -11.4044
  62   2.0000      -0.415549       -11.3077
  63   2.0000      -0.337956        -9.1963
  64   2.0000      -0.330157        -8.9840
  65   2.0000      -0.324744        -8.8367
  66   2.0000      -0.298557        -8.1242
  67   0.0000       0.038349         1.0435
  68   0.0000       0.065745         1.7890
  69   0.0000       0.110063         2.9950
  70   0.0000       0.117830         3.2063
  71   0.0000       0.130383         3.5479

MULLIKEN ATOMIC CHARGES
-----------------------
   0 S :    0.142203
   1 C :   -0.131741
   2 C :   -0.099354
   3 C :    0.011251
   4 C :   -0.175359
   5 H :    0.028561
   6 C :    0.087843
   7 H :    0.016741
   8 H :    0.025033
   9 C :   -0.106772
  10 H :    0.041974
  11 H :    0.042545
  12 C :   -0.045503
  13 H :    0.033172
  14 H :    0.027014
  15 H :    0.039079
  16 S :    0.119712
  17 C :   -0.141747
  18 C :   -0.026553
  19 C :   -0.021990
  20 C :   -0.171442
  21 H :    0.019169
  22 C :    0.085458
  23 H :    0.035171
  24 H :    0.018105
  25 C :   -0.116572
  26 H :    0.032349
  27 H :    0.039705
  28 C :   -0.030775
  29 H :    0.021384
  30 H :    0.043453
  31 H :    0.029515
  32 H :    0.044872
  33 H :    0.083495
Sum of atomic charges:    0.0000000

LOEWDIN ATOMIC CHARGES
----------------------
   0 S :    0.434228
   1 C :   -0.201483
   2 C :   -0.063897
   3 C :   -0.067010
   4 C :   -0.217344
   5 H :    0.039516
   6 C :   -0.031365
   7 H :    0.032106
   8 H :    0.027598
   9 C :   -0.045743
  10 H :    0.029603
  11 H :    0.031522
  12 C :   -0.066082
  13 H :    0.023174
  14 H :    0.029691
  15 H :    0.021128
  16 S :    0.414064
  17 C :   -0.199228
  18 C :   -0.073120
  19 C :   -0.049501
  20 C :   -0.209876
  21 H :    0.028789
  22 C :   -0.033997
  23 H :    0.036450
  24 H :    0.023409
  25 C :   -0.035859
  26 H :    0.018190
  27 H :    0.029419
  28 C :   -0.063077
  29 H :    0.023274
  30 H :    0.024778
  31 H :    0.023883
  32 H :    0.025463
  33 H :    0.041297

  Mayer bond orders larger than 0.100000
B(  0-S ,  1-C ) :   1.1660 B(  0-S ,  4-C ) :   1.1486 B(  1-C ,  2-C ) :   1.5855
B(  1-C ,  4-C ) :   0.1014 B(  1-C , 32-H ) :   0.9622 B(  2-C ,  3-C ) :   1.2767
B(  2-C ,  6-C ) :   1.0116 B(  3-C ,  4-C ) :   1.5645 B(  3-C ,  5-H ) :   0.9857
B(  4-C , 20-C ) :   1.0343 B(  6-C ,  7-H ) :   0.9369 B(  6-C ,  8-H ) :   0.9422
B(  6-C ,  9-C ) :   1.0674 B(  9-C , 10-H ) :   0.9566 B(  9-C , 11-H ) :   0.9556
B(  9-C , 12-C ) :   1.0741 B( 12-C , 13-H ) :   0.9765 B( 12-C , 14-H ) :   0.9715
B( 12-C , 15-H ) :   0.9745 B( 16-S , 17-C ) :   1.1692 B( 16-S , 20-C ) :   1.1435
B( 17-C , 18-C ) :   1.6053 B( 17-C , 33-H ) :   0.9599 B( 18-C , 19-C ) :   1.2135
B( 18-C , 21-H ) :   0.9923 B( 19-C , 20-C ) :   1.5871 B( 19-C , 22-C ) :   1.0751
B( 22-C , 23-H ) :   0.9262 B( 22-C , 24-H ) :   0.9272 B( 22-C , 25-C ) :   1.0528
B( 25-C , 26-H ) :   0.9608 B( 25-C , 27-H ) :   0.9567 B( 25-C , 28-C ) :   1.0801
B( 28-C , 29-H ) :   0.9733 B( 28-C , 30-H ) :   0.9778 B( 28-C , 31-H ) :   0.9751

Dispersion correction           -0.014417082
FINAL SINGLE POINT ENERGY     -1339.890460615123

DIPOLE MOMENT
-------------
                                X             Y             Z
Electronic contribution:    -23.73326       8.96698       4.06988
Nuclear contribution   :     24.22151      -9.03654      -4.18569
                        -----------------------------------------
Total Dipole Moment    :      0.48825      -0.06956      -0.11581
                        -----------------------------------------
Magnitude (a.u.)       :      0.50660
Magnitude (Debye)      :      1.28767

Rotational constants in cm-1:     0.016958     0.008973     0.007656
Rotational constants in MHz :   508.385751   269.005270   229.533253

                             ****ORCA TERMINATED NORMALLY****
TOTAL RUN TIME: 0 days 0 hours 0 minutes 34 seconds 511 msec
