                         Program Version 4.2.1 -  RELEASE  -
|  1> ! wB97X-D3 SP def2-SVP
|  2> %pal
|  3> nprocs 16
|  4> end
|  5>
|  6> * xyz 0 1
|  7> S 	 -30.3221 	 58.2562 	 106.138
|  8> C 	 -29.9408 	 57.3812 	 107.638
|  9> C 	 -30.5562 	 58.0181 	 108.738
| 10> C 	 -31.2147 	 59.2706 	 108.455
| 11> C 	 -31.0045 	 59.6024 	 107.128
| 12> H 	 -31.6575 	 60.0036 	 109.134
| 13> C 	 -30.4149 	 57.502 	 110.176
| 14> H 	 -29.6638 	 56.7464 	 110.222
| 15> H 	 -31.3565 	 57.0146 	 110.38
| 16> C 	 -30.1307 	 58.5933 	 111.191
| 17> H 	 -30.9474 	 59.2246 	 111.367
| 18> H 	 -30.1144 	 58.0285 	 112.13
| 19> C 	 -28.798 	 59.4028 	 110.989
| 20> H 	 -27.9749 	 58.9394 	 111.619
| 21> H 	 -28.6013 	 59.3964 	 109.952
| 22> H 	 -28.8613 	 60.4495 	 111.298
| 23> S 	 -32.1212 	 60.8623 	 104.981
| 24> C 	 -31.9908 	 62.6279 	 104.943
| 25> C 	 -31.1995 	 63.1569 	 105.976
| 26> C 	 -30.7895 	 62.1677 	 106.883
| 27> C 	 -31.2998 	 60.9265 	 106.565
| 28> H 	 -31.1273 	 64.2606 	 106.05
| 29> C 	 -29.75 	 62.5416 	 107.917
| 30> H 	 -30.0215 	 62.0904 	 108.831
| 31> H 	 -29.8054 	 63.5156 	 108.368
| 32> C 	 -28.3641 	 62.1517 	 107.508
| 33> H 	 -28.1407 	 62.6339 	 106.523
| 34> H 	 -28.3486 	 61.0371 	 107.294
| 35> C 	 -27.1925 	 62.3482 	 108.486
| 36> H 	 -26.8426 	 63.3465 	 108.52
| 37> H 	 -26.3957 	 61.6981 	 108.137
| 38> H 	 -27.623 	 61.9547 	 109.49
| 39> H 	 -29.2358 	 56.5579 	 107.792
| 40> H 	 -32.3215 	 63.2996 	 104.191
| 41> *
| 42>
| 43>                          ****END OF INPUT****

CARTESIAN COORDINATES (ANGSTROEM)
---------------------------------
  S    -30.322100   58.256200  106.138000
  C    -29.940800   57.381200  107.638000
  C    -30.556200   58.018100  108.738000
  C    -31.214700   59.270600  108.455000
  C    -31.004500   59.602400  107.128000
  H    -31.657500   60.003600  109.134000
  C    -30.414900   57.502000  110.176000
  H    -29.663800   56.746400  110.222000
  H    -31.356500   57.014600  110.380000
  C    -30.130700   58.593300  111.191000
  H    -30.947400   59.224600  111.367000
  H    -30.114400   58.028500  112.130000
  C    -28.798000   59.402800  110.989000
  H    -27.974900   58.939400  111.619000
  H    -28.601300   59.396400  109.952000
  H    -28.861300   60.449500  111.298000
  S    -32.121200   60.862300  104.981000
  C    -31.990800   62.627900  104.943000
  C    -31.199500   63.156900  105.976000
  C    -30.789500   62.167700  106.883000
  C    -31.299800   60.926500  106.565000
  H    -31.127300   64.260600  106.050000
  C    -29.750000   62.541600  107.917000
  H    -30.021500   62.090400  108.831000
  H    -29.805400   63.515600  108.368000
  C    -28.364100   62.151700  107.508000
  H    -28.140700   62.633900  106.523000
  H    -28.348600   61.037100  107.294000
  C    -27.192500   62.348200  108.486000
  H    -26.842600   63.346500  108.520000
  H    -26.395700   61.698100  108.137000
  H    -27.623000   61.954700  109.490000
  H    -29.235800   56.557900  107.792000
  H    -32.321500   63.299600  104.191000

 Total Charge           Charge          ....    0
 Multiplicity           Mult            ....    1
 Number of Electrons    NEL             ....  134
 Basis Dimension        Dim             ....  322

ORBITAL ENERGIES
----------------

  NO   OCC          E(Eh)            E(eV)
   0   2.0000     -88.970861     -2421.0202
   1   2.0000     -88.968832     -2420.9650
   2   2.0000     -10.334154      -281.2066
   3   2.0000     -10.329024      -281.0670
   4   2.0000     -10.317472      -280.7527
   5   2.0000     -10.317462      -280.7524
   6   2.0000     -10.305367      -280.4233
   7   2.0000     -10.304867      -280.4097
   8   2.0000     -10.297850      -280.2187
   9   2.0000     -10.294957      -280.1400
  10   2.0000     -10.288721      -279.9703
  11   2.0000     -10.285449      -279.8813
  12   2.0000     -10.283863      -279.8381
  13   2.0000     -10.283562      -279.8299
  14   2.0000     -10.281492      -279.7736
  15   2.0000     -10.280847      -279.7561
  16   2.0000      -8.084603      -219.9932
  17   2.0000      -8.081956      -219.9212
  18   2.0000      -6.043062      -164.4401
  19   2.0000      -6.040676      -164.3751
  20   2.0000      -6.039520      -164.3437
  21   2.0000      -6.036883      -164.2719
  22   2.0000      -6.035206      -164.2263
  23   2.0000      -6.032392      -164.1497
  24   2.0000      -1.001249       -27.2454
  25   2.0000      -0.975738       -26.5512
  26   2.0000      -0.912009       -24.8170
  27   2.0000      -0.908976       -24.7345
  28   2.0000      -0.863380       -23.4938
  29   2.0000      -0.852806       -23.2060
  30   2.0000      -0.839510       -22.8442
  31   2.0000      -0.812926       -22.1208
  32   2.0000      -0.786996       -21.4152
  33   2.0000      -0.772842       -21.0301
  34   2.0000      -0.708726       -19.2854
  35   2.0000      -0.696472       -18.9520
  36   2.0000      -0.689295       -18.7567
  37   2.0000      -0.660786       -17.9809
  38   2.0000      -0.636056       -17.3080
  39   2.0000      -0.620434       -16.8829
  40   2.0000      -0.600892       -16.3511
  41   2.0000      -0.562007       -15.2930
  42   2.0000      -0.559796       -15.2328
  43   2.0000      -0.555049       -15.1036
  44   2.0000      -0.534020       -14.5314
  45   2.0000      -0.526435       -14.3250
  46   2.0000      -0.516367       -14.0511
  47   2.0000      -0.512421       -13.9437
  48   2.0000      -0.503714       -13.7067
  49   2.0000      -0.495837       -13.4924
  50   2.0000      -0.489481       -13.3195
  51   2.0000      -0.480767       -13.0823
  52   2.0000      -0.469246       -12.7688
  53   2.0000      -0.459496       -12.5035
  54   2.0000      -0.454929       -12.3793
  55   2.0000      -0.452983       -12.3263
  56   2.0000      -0.445478       -12.1221
  57   2.0000      -0.440578       -11.9887
  58   2.0000      -0.433802       -11.8043
  59   2.0000      -0.425069       -11.5667
  60   2.0000      -0.419618       -11.4184
  61   2.0000      -0.407855       -11.0983
  62   2.0000      -0.400179       -10.8894
  63   2.0000      -0.343980        -9.3602
  64   2.0000      -0.338078        -9.1996
  65   2.0000      -0.329045        -8.9538
  66   2.0000      -0.285887        -7.7794
  67   0.0000       0.024925         0.6783
  68   0.0000       0.056354         1.5335
  69   0.0000       0.093368         2.5407
  70   0.0000       0.120787         3.2868
  71   0.0000       0.122511         3.3337

MULLIKEN ATOMIC CHARGES
-----------------------
   0 S :    0.105030
   1 C :   -0.122877
   2 C :   -0.129129
   3 C :    0.033271
   4 C :   -0.138589
   5 H :    0.032872
   6 C :    0.102047
   7 H :    0.007458
   8 H :    0.038259
   9 C :   -0.078267
  10 H :    0.013687
  11 H :    0.021617
  12 C :   -0.059601
  13 H :    0.046120
  14 H :    0.039288
  15 H :    0.039437
  16 S :    0.103757
  17 C :   -0.072601
  18 C :   -0.063942
  19 C :   -0.019202
  20 C :   -0.182254
  21 H :    0.036942
  22 C :    0.154626
  23 H :   -0.030490
  24 H :    0.002990
  25 C :   -0.130998
  26 H :    0.027528
  27 H :    0.043881
  28 C :   -0.023961
  29 H :    0.033513
  30 H :    0.039569
  31 H :    0.034447
  32 H :    0.055687
  33 H :    0.039885
Sum of atomic charges:   -0.0000000

LOEWDIN ATOMIC CHARGES
----------------------
   0 S :    0.363761
   1 C :   -0.207874
   2 C :   -0.055630
   3 C :   -0.065275
   4 C :   -0.166909
   5 H :    0.039025
   6 C :   -0.026501
   7 H :    0.023048
   8 H :    0.037320
   9 C :   -0.044187
  10 H :    0.012931
  11 H :    0.028193
  12 C :   -0.065943
  13 H :    0.036560
  14 H :    0.019717
  15 H :    0.025518
  16 S :    0.387133
  17 C :   -0.172837
  18 C :   -0.070583
  19 C :   -0.048792
  20 C :   -0.183302
  21 H :    0.040303
  22 C :   -0.040161
  23 H :    0.020701
  24 H :    0.029905
  25 C :   -0.048294
  26 H :    0.024545
  27 H :    0.032835
  28 C :   -0.063027
  29 H :    0.016733
  30 H :    0.030618
  31 H :    0.035197
  32 H :    0.033984
  33 H :    0.021285

  Mayer bond orders larger than 0.100000
B(  0-S ,  1-C ) :   1.1009 B(  0-S ,  4-C ) :   1.1246 B(  1-C ,  2-C ) :   1.6438
B(  1-C , 32-H ) :   0.9643 B(  2-C ,  3-C ) :   1.1842 B(  2-C ,  6-C ) :   1.0194
B(  3-C ,  4-C ) :   1.6117 B(  3-C ,  5-H ) :   0.9876 B(  4-C , 20-C ) :   1.0421
B(  6-C ,  7-H ) :   0.9466 B(  6-C ,  8-H ) :   0.9275 B(  6-C ,  9-C ) :   1.0875
B(  9-C , 10-H ) :   0.9534 B(  9-C , 11-H ) :   0.9538 B(  9-C , 12-C ) :   1.0524
B( 12-C , 13-H ) :   0.9752 B( 12-C , 14-H ) :   0.9808 B( 12-C , 15-H ) :   0.9750
B( 16-S , 17-C ) :   1.1456 B( 16-S , 20-C ) :   1.1246 B( 17-C , 18-C ) :   1.6342
B( 17-C , 20-C ) :   0.1013 B( 17-C , 33-H ) :   0.9665 B( 18-C , 19-C ) :   1.2379
B( 18-C , 21-H ) :   0.9818 B( 19-C , 20-C ) :   1.6106 B( 19-C , 22-C ) :   1.0429
B( 22-C , 23-H ) :   0.8983 B( 22-C , 24-H ) :   0.9239 B( 22-C , 25-C ) :   1.0621
B( 25-C , 26-H ) :   0.9518 B( 25-C , 27-H ) :   0.9556 B( 25-C , 28-C ) :   1.0752
B( 28-C , 29-H ) :   0.9751 B( 28-C , 30-H ) :   0.9747 B( 28-C , 31-H ) :   0.9705

Dispersion correction           -0.016503907
FINAL SINGLE POINT ENERGY     -1339.852579044370

DIPOLE MOMENT
-------------
                                X             Y             Z
Electronic contribution:    -16.71813      -5.89286     -24.61888
Nuclear contribution   :     17.01152       6.20728      25.23593
                        -----------------------------------------
Total Dipole Moment    :      0.29339       0.31441       0.61705
                        -----------------------------------------
Magnitude (a.u.)       :      0.75212
Magnitude (Debye)      :      1.91174

Rotational constants in cm-1:     0.018002     0.010732     0.007990
Rotational constants in MHz :   539.692084   321.727203   239.541569

                             ****ORCA TERMINATED NORMALLY****
TOTAL RUN TIME: 0 days 0 hours 0 minutes 28 seconds 885 msec
