                         Program Version 4.2.1 -  RELEASE  -
|  1> ! wB97X-D3 SP def2-SVP
|  2> %pal
|  3> nprocs 16
|  4> end
|  5>
|  6> * xyz 0 1
|  7> S 	 -110.852 	 56.3873 	 106.943
|  8> C 	 -110.632 	 54.6682 	 106.888
|  9> C 	 -111.623 	 54.0597 	 107.661
| 10> C 	 -112.39 	 54.9183 	 108.467
| 11> C 	 -112.06 	 56.2675 	 108.231
| 12> H 	 -113.101 	 54.6443 	 109.227
| 13> C 	 -111.726 	 52.5402 	 107.692
| 14> H 	 -112.1 	 52.1328 	 106.719
| 15> H 	 -112.474 	 52.1709 	 108.384
| 16> C 	 -110.431 	 51.7188 	 107.847
| 17> H 	 -110.53 	 50.6895 	 107.59
| 18> H 	 -109.747 	 52.1575 	 107.029
| 19> C 	 -109.876 	 51.8249 	 109.295
| 20> H 	 -110.61 	 51.2967 	 109.899
| 21> H 	 -108.841 	 51.5403 	 109.546
| 22> H 	 -109.976 	 52.8123 	 109.716
| 23> S 	 -111.424 	 58.5693 	 109.427
| 24> C 	 -112.688 	 59.7121 	 109.968
| 25> C 	 -113.952 	 59.1294 	 109.687
| 26> C 	 -113.921 	 57.7968 	 109.148
| 27> C 	 -112.64 	 57.43 	 108.845
| 28> H 	 -114.783 	 59.7637 	 110.026
| 29> C 	 -115.27 	 57.1219 	 108.673
| 30> H 	 -114.982 	 56.3965 	 107.969
| 31> H 	 -115.817 	 57.7751 	 108.067
| 32> C 	 -116.187 	 56.4755 	 109.638
| 33> H 	 -115.799 	 55.5027 	 109.974
| 34> H 	 -116.995 	 56.2339 	 108.972
| 35> C 	 -116.729 	 57.1682 	 110.874
| 36> H 	 -115.946 	 57.2949 	 111.65
| 37> H 	 -117.472 	 56.5911 	 111.302
| 38> H 	 -117.149 	 58.1161 	 110.564
| 39> H 	 -109.92 	 54.2046 	 106.203
| 40> H 	 -112.474 	 60.6752 	 110.33
| 41> *
| 42>
| 43>                          ****END OF INPUT****

CARTESIAN COORDINATES (ANGSTROEM)
---------------------------------
  S    -110.852000   56.387300  106.943000
  C    -110.632000   54.668200  106.888000
  C    -111.623000   54.059700  107.661000
  C    -112.390000   54.918300  108.467000
  C    -112.060000   56.267500  108.231000
  H    -113.101000   54.644300  109.227000
  C    -111.726000   52.540200  107.692000
  H    -112.100000   52.132800  106.719000
  H    -112.474000   52.170900  108.384000
  C    -110.431000   51.718800  107.847000
  H    -110.530000   50.689500  107.590000
  H    -109.747000   52.157500  107.029000
  C    -109.876000   51.824900  109.295000
  H    -110.610000   51.296700  109.899000
  H    -108.841000   51.540300  109.546000
  H    -109.976000   52.812300  109.716000
  S    -111.424000   58.569300  109.427000
  C    -112.688000   59.712100  109.968000
  C    -113.952000   59.129400  109.687000
  C    -113.921000   57.796800  109.148000
  C    -112.640000   57.430000  108.845000
  H    -114.783000   59.763700  110.026000
  C    -115.270000   57.121900  108.673000
  H    -114.982000   56.396500  107.969000
  H    -115.817000   57.775100  108.067000
  C    -116.187000   56.475500  109.638000
  H    -115.799000   55.502700  109.974000
  H    -116.995000   56.233900  108.972000
  C    -116.729000   57.168200  110.874000
  H    -115.946000   57.294900  111.650000
  H    -117.472000   56.591100  111.302000
  H    -117.149000   58.116100  110.564000
  H    -109.920000   54.204600  106.203000
  H    -112.474000   60.675200  110.330000

 Total Charge           Charge          ....    0
 Multiplicity           Mult            ....    1
 Number of Electrons    NEL             ....  134
 Basis Dimension        Dim             ....  322

ORBITAL ENERGIES
----------------

  NO   OCC          E(Eh)            E(eV)
   0   2.0000     -88.969017     -2420.9700
   1   2.0000     -88.962656     -2420.7969
   2   2.0000     -10.331884      -281.1449
   3   2.0000     -10.327195      -281.0173
   4   2.0000     -10.319588      -280.8103
   5   2.0000     -10.315618      -280.7022
   6   2.0000     -10.308380      -280.5053
   7   2.0000     -10.304296      -280.3941
   8   2.0000     -10.300515      -280.2913
   9   2.0000     -10.297723      -280.2153
  10   2.0000     -10.293125      -280.0902
  11   2.0000     -10.292979      -280.0862
  12   2.0000     -10.285904      -279.8937
  13   2.0000     -10.281090      -279.7627
  14   2.0000     -10.273495      -279.5560
  15   2.0000     -10.272837      -279.5381
  16   2.0000      -8.083434      -219.9614
  17   2.0000      -8.076842      -219.7820
  18   2.0000      -6.041805      -164.4059
  19   2.0000      -6.037856      -164.2984
  20   2.0000      -6.035386      -164.2312
  21   2.0000      -6.034481      -164.2066
  22   2.0000      -6.031359      -164.1216
  23   2.0000      -6.027634      -164.0203
  24   2.0000      -1.005626       -27.3645
  25   2.0000      -0.979608       -26.6565
  26   2.0000      -0.915100       -24.9011
  27   2.0000      -0.907443       -24.6928
  28   2.0000      -0.866856       -23.5884
  29   2.0000      -0.851992       -23.1839
  30   2.0000      -0.844687       -22.9851
  31   2.0000      -0.810457       -22.0537
  32   2.0000      -0.795437       -21.6450
  33   2.0000      -0.773027       -21.0351
  34   2.0000      -0.707484       -19.2516
  35   2.0000      -0.702109       -19.1053
  36   2.0000      -0.690186       -18.7809
  37   2.0000      -0.665784       -18.1169
  38   2.0000      -0.643066       -17.4987
  39   2.0000      -0.611257       -16.6331
  40   2.0000      -0.594380       -16.1739
  41   2.0000      -0.573332       -15.6012
  42   2.0000      -0.565495       -15.3879
  43   2.0000      -0.545466       -14.8429
  44   2.0000      -0.543719       -14.7953
  45   2.0000      -0.537800       -14.6343
  46   2.0000      -0.519378       -14.1330
  47   2.0000      -0.515100       -14.0166
  48   2.0000      -0.501013       -13.6332
  49   2.0000      -0.500017       -13.6061
  50   2.0000      -0.488348       -13.2886
  51   2.0000      -0.482282       -13.1236
  52   2.0000      -0.479622       -13.0512
  53   2.0000      -0.465903       -12.6779
  54   2.0000      -0.458758       -12.4834
  55   2.0000      -0.449867       -12.2415
  56   2.0000      -0.436185       -11.8692
  57   2.0000      -0.432844       -11.7783
  58   2.0000      -0.430699       -11.7199
  59   2.0000      -0.422529       -11.4976
  60   2.0000      -0.414688       -11.2842
  61   2.0000      -0.412633       -11.2283
  62   2.0000      -0.409673       -11.1478
  63   2.0000      -0.346537        -9.4298
  64   2.0000      -0.335155        -9.1200
  65   2.0000      -0.328919        -8.9503
  66   2.0000      -0.289653        -7.8819
  67   0.0000       0.022255         0.6056
  68   0.0000       0.068641         1.8678
  69   0.0000       0.112462         3.0602
  70   0.0000       0.118173         3.2157
  71   0.0000       0.121724         3.3123

MULLIKEN ATOMIC CHARGES
-----------------------
   0 S :    0.124821
   1 C :   -0.145229
   2 C :   -0.051758
   3 C :    0.040453
   4 C :   -0.157136
   5 H :    0.013251
   6 C :    0.030803
   7 H :    0.036925
   8 H :    0.010548
   9 C :   -0.076174
  10 H :    0.028880
  11 H :    0.026259
  12 C :   -0.042126
  13 H :    0.015664
  14 H :    0.044337
  15 H :    0.024880
  16 S :    0.092993
  17 C :   -0.095159
  18 C :   -0.056601
  19 C :    0.004070
  20 C :   -0.168860
  21 H :    0.032566
  22 C :    0.106970
  23 H :    0.004710
  24 H :    0.011983
  25 C :   -0.081936
  26 H :    0.016378
  27 H :    0.019133
  28 C :   -0.005577
  29 H :    0.041804
  30 H :    0.018688
  31 H :    0.020071
  32 H :    0.067924
  33 H :    0.046445
Sum of atomic charges:   -0.0000000

LOEWDIN ATOMIC CHARGES
----------------------
   0 S :    0.418002
   1 C :   -0.206076
   2 C :   -0.064235
   3 C :   -0.059566
   4 C :   -0.190634
   5 H :    0.034023
   6 C :   -0.037466
   7 H :    0.038502
   8 H :    0.021628
   9 C :   -0.038822
  10 H :    0.019590
  11 H :    0.025073
  12 C :   -0.075018
  13 H :    0.024950
  14 H :    0.028255
  15 H :    0.024736
  16 S :    0.385292
  17 C :   -0.171927
  18 C :   -0.068166
  19 C :   -0.057849
  20 C :   -0.190111
  21 H :    0.034719
  22 C :   -0.020537
  23 H :    0.029787
  24 H :    0.025909
  25 C :   -0.043062
  26 H :    0.020382
  27 H :    0.027233
  28 C :   -0.056764
  29 H :    0.031713
  30 H :    0.018878
  31 H :    0.021454
  32 H :    0.031427
  33 H :    0.018678

  Mayer bond orders larger than 0.100000
B(  0-S ,  1-C ) :   1.1499 B(  0-S ,  4-C ) :   1.1764 B(  1-C ,  2-C ) :   1.5515
B(  1-C ,  4-C ) :   0.1083 B(  1-C , 32-H ) :   0.9712 B(  2-C ,  3-C ) :   1.2726
B(  2-C ,  6-C ) :   1.0247 B(  3-C ,  4-C ) :   1.5179 B(  3-C ,  5-H ) :   1.0026
B(  4-C , 20-C ) :   1.0456 B(  6-C ,  7-H ) :   0.9327 B(  6-C ,  8-H ) :   0.9506
B(  6-C ,  9-C ) :   1.0757 B(  9-C , 10-H ) :   0.9586 B(  9-C , 11-H ) :   0.9511
B(  9-C , 12-C ) :   1.0547 B( 12-C , 13-H ) :   0.9711 B( 12-C , 14-H ) :   0.9774
B( 12-C , 15-H ) :   0.9789 B( 16-S , 17-C ) :   1.1361 B( 16-S , 20-C ) :   1.1461
B( 17-C , 18-C ) :   1.6192 B( 17-C , 20-C ) :   0.1074 B( 17-C , 33-H ) :   0.9774
B( 18-C , 19-C ) :   1.2015 B( 18-C , 21-H ) :   0.9849 B( 19-C , 20-C ) :   1.6151
B( 19-C , 22-C ) :   1.0093 B( 22-C , 23-H ) :   0.9235 B( 22-C , 24-H ) :   0.9419
B( 22-C , 25-C ) :   1.0944 B( 25-C , 26-H ) :   0.9486 B( 25-C , 27-H ) :   0.9461
B( 25-C , 28-C ) :   1.0942 B( 28-C , 29-H ) :   0.9702 B( 28-C , 30-H ) :   0.9685
B( 28-C , 31-H ) :   0.9729

Dispersion correction           -0.014190063
FINAL SINGLE POINT ENERGY     -1339.864348762886

DIPOLE MOMENT
-------------
                                X             Y             Z
Electronic contribution:     13.18616      19.24231      -7.04352
Nuclear contribution   :    -13.74994     -19.56770       7.06596
                        -----------------------------------------
Total Dipole Moment    :     -0.56378      -0.32539       0.02244
                        -----------------------------------------
Magnitude (a.u.)       :      0.65133
Magnitude (Debye)      :      1.65555

Rotational constants in cm-1:     0.019886     0.008078     0.006528
Rotational constants in MHz :   596.179902   242.168498   195.711125

                             ****ORCA TERMINATED NORMALLY****
TOTAL RUN TIME: 0 days 0 hours 0 minutes 32 seconds 921 msec
