                         Program Version 4.2.1 -  RELEASE  -
|  1> ! wB97X-D3 SP def2-SVP
|  2> %pal
|  3> nprocs 16
|  4> end
|  5>
|  6> * xyz 0 1
|  7> S 	 -65.5225 	 35.1608 	 119.007
|  8> C 	 -65.2807 	 34.3541 	 120.506
|  9> C 	 -66.0216 	 34.9284 	 121.515
| 10> C 	 -66.7222 	 36.1066 	 121.082
| 11> C 	 -66.6083 	 36.3832 	 119.733
| 12> H 	 -67.2649 	 36.7973 	 121.666
| 13> C 	 -65.9695 	 34.3003 	 122.933
| 14> H 	 -64.9913 	 34.598 	 123.282
| 15> H 	 -65.9973 	 33.1636 	 122.843
| 16> C 	 -66.901 	 34.8169 	 124.021
| 17> H 	 -66.5509 	 34.4045 	 124.987
| 18> H 	 -66.8024 	 35.9553 	 124.141
| 19> C 	 -68.3765 	 34.4389 	 123.785
| 20> H 	 -68.4601 	 33.3724 	 123.58
| 21> H 	 -68.9742 	 34.5565 	 124.695
| 22> H 	 -68.9 	 34.9352 	 122.933
| 23> S 	 -65.8236 	 38.8124 	 118.656
| 24> C 	 -66.9375 	 39.8073 	 117.852
| 25> C 	 -68.2673 	 39.4129 	 118.095
| 26> C 	 -68.3105 	 38.1391 	 118.769
| 27> C 	 -67.0186 	 37.654 	 119.081
| 28> H 	 -68.9624 	 39.9764 	 117.532
| 29> C 	 -69.5768 	 37.2681 	 118.86
| 30> H 	 -69.9209 	 37.3202 	 119.893
| 31> H 	 -69.3131 	 36.191 	 118.661
| 32> C 	 -70.6988 	 37.78 	 117.898
| 33> H 	 -70.9877 	 38.8211 	 118.126
| 34> H 	 -71.611 	 37.2851 	 118.066
| 35> C 	 -70.2324 	 37.6517 	 116.463
| 36> H 	 -70.2029 	 36.6306 	 116.224
| 37> H 	 -69.2665 	 38.0641 	 116.205
| 38> H 	 -70.9272 	 38.1176 	 115.747
| 39> H 	 -64.6988 	 33.408 	 120.784
| 40> H 	 -66.6974 	 40.6001 	 117.158
| 41> *
| 42>
| 43>                          ****END OF INPUT****

CARTESIAN COORDINATES (ANGSTROEM)
---------------------------------
  S    -65.522500   35.160800  119.007000
  C    -65.280700   34.354100  120.506000
  C    -66.021600   34.928400  121.515000
  C    -66.722200   36.106600  121.082000
  C    -66.608300   36.383200  119.733000
  H    -67.264900   36.797300  121.666000
  C    -65.969500   34.300300  122.933000
  H    -64.991300   34.598000  123.282000
  H    -65.997300   33.163600  122.843000
  C    -66.901000   34.816900  124.021000
  H    -66.550900   34.404500  124.987000
  H    -66.802400   35.955300  124.141000
  C    -68.376500   34.438900  123.785000
  H    -68.460100   33.372400  123.580000
  H    -68.974200   34.556500  124.695000
  H    -68.900000   34.935200  122.933000
  S    -65.823600   38.812400  118.656000
  C    -66.937500   39.807300  117.852000
  C    -68.267300   39.412900  118.095000
  C    -68.310500   38.139100  118.769000
  C    -67.018600   37.654000  119.081000
  H    -68.962400   39.976400  117.532000
  C    -69.576800   37.268100  118.860000
  H    -69.920900   37.320200  119.893000
  H    -69.313100   36.191000  118.661000
  C    -70.698800   37.780000  117.898000
  H    -70.987700   38.821100  118.126000
  H    -71.611000   37.285100  118.066000
  C    -70.232400   37.651700  116.463000
  H    -70.202900   36.630600  116.224000
  H    -69.266500   38.064100  116.205000
  H    -70.927200   38.117600  115.747000
  H    -64.698800   33.408000  120.784000
  H    -66.697400   40.600100  117.158000

 Total Charge           Charge          ....    0
 Multiplicity           Mult            ....    1
 Number of Electrons    NEL             ....  134
 Basis Dimension        Dim             ....  322

ORBITAL ENERGIES
----------------

  NO   OCC          E(Eh)            E(eV)
   0   2.0000     -88.967295     -2420.9232
   1   2.0000     -88.964109     -2420.8365
   2   2.0000     -10.331556      -281.1359
   3   2.0000     -10.324940      -280.9559
   4   2.0000     -10.316322      -280.7214
   5   2.0000     -10.313089      -280.6334
   6   2.0000     -10.308784      -280.5163
   7   2.0000     -10.301633      -280.3217
   8   2.0000     -10.299121      -280.2533
   9   2.0000     -10.297873      -280.2194
  10   2.0000     -10.295804      -280.1631
  11   2.0000     -10.294784      -280.1353
  12   2.0000     -10.293239      -280.0933
  13   2.0000     -10.283641      -279.8321
  14   2.0000     -10.279526      -279.7201
  15   2.0000     -10.266470      -279.3649
  16   2.0000      -8.081539      -219.9099
  17   2.0000      -8.080223      -219.8740
  18   2.0000      -6.040117      -164.3599
  19   2.0000      -6.038463      -164.3149
  20   2.0000      -6.035985      -164.2475
  21   2.0000      -6.034364      -164.2034
  22   2.0000      -6.032367      -164.1490
  23   2.0000      -6.031358      -164.1216
  24   2.0000      -1.005471       -27.3603
  25   2.0000      -0.985771       -26.8242
  26   2.0000      -0.907764       -24.7015
  27   2.0000      -0.906771       -24.6745
  28   2.0000      -0.868542       -23.6342
  29   2.0000      -0.844673       -22.9847
  30   2.0000      -0.840925       -22.8827
  31   2.0000      -0.818044       -22.2601
  32   2.0000      -0.782190       -21.2845
  33   2.0000      -0.770077       -20.9548
  34   2.0000      -0.708744       -19.2859
  35   2.0000      -0.699461       -19.0333
  36   2.0000      -0.682958       -18.5842
  37   2.0000      -0.652228       -17.7480
  38   2.0000      -0.637577       -17.3493
  39   2.0000      -0.620090       -16.8735
  40   2.0000      -0.593642       -16.1538
  41   2.0000      -0.568407       -15.4671
  42   2.0000      -0.552970       -15.0471
  43   2.0000      -0.550776       -14.9874
  44   2.0000      -0.536452       -14.5976
  45   2.0000      -0.530678       -14.4405
  46   2.0000      -0.521441       -14.1891
  47   2.0000      -0.506513       -13.7829
  48   2.0000      -0.502861       -13.6835
  49   2.0000      -0.488534       -13.2937
  50   2.0000      -0.488106       -13.2820
  51   2.0000      -0.479678       -13.0527
  52   2.0000      -0.476834       -12.9753
  53   2.0000      -0.465057       -12.6548
  54   2.0000      -0.458870       -12.4865
  55   2.0000      -0.447193       -12.1687
  56   2.0000      -0.441713       -12.0196
  57   2.0000      -0.431866       -11.7517
  58   2.0000      -0.430293       -11.7089
  59   2.0000      -0.424228       -11.5438
  60   2.0000      -0.422622       -11.5001
  61   2.0000      -0.415987       -11.3196
  62   2.0000      -0.414068       -11.2674
  63   2.0000      -0.340980        -9.2785
  64   2.0000      -0.327599        -8.9144
  65   2.0000      -0.320376        -8.7179
  66   2.0000      -0.301172        -8.1953
  67   0.0000       0.032957         0.8968
  68   0.0000       0.066015         1.7964
  69   0.0000       0.118498         3.2245
  70   0.0000       0.128451         3.4953
  71   0.0000       0.137168         3.7325

MULLIKEN ATOMIC CHARGES
-----------------------
   0 S :    0.120710
   1 C :   -0.139442
   2 C :   -0.090661
   3 C :    0.063765
   4 C :   -0.177793
   5 H :   -0.001345
   6 C :    0.030734
   7 H :    0.038829
   8 H :    0.047795
   9 C :   -0.088332
  10 H :    0.033343
  11 H :    0.041643
  12 C :   -0.061968
  13 H :    0.020632
  14 H :    0.034186
  15 H :    0.046189
  16 S :    0.137113
  17 C :   -0.116857
  18 C :   -0.036873
  19 C :   -0.044661
  20 C :   -0.179576
  21 H :    0.014997
  22 C :    0.065728
  23 H :    0.033557
  24 H :    0.052056
  25 C :   -0.054333
  26 H :    0.023373
  27 H :    0.015293
  28 C :   -0.040830
  29 H :    0.015576
  30 H :    0.039981
  31 H :    0.025986
  32 H :    0.072249
  33 H :    0.058938
Sum of atomic charges:   -0.0000000

LOEWDIN ATOMIC CHARGES
----------------------
   0 S :    0.405788
   1 C :   -0.218769
   2 C :   -0.072017
   3 C :   -0.050226
   4 C :   -0.194636
   5 H :    0.025202
   6 C :   -0.039605
   7 H :    0.034650
   8 H :    0.037818
   9 C :   -0.049817
  10 H :    0.030531
  11 H :    0.031951
  12 C :   -0.076555
  13 H :    0.023565
  14 H :    0.026600
  15 H :    0.030154
  16 S :    0.448089
  17 C :   -0.204246
  18 C :   -0.073393
  19 C :   -0.050966
  20 C :   -0.223316
  21 H :    0.026831
  22 C :   -0.029597
  23 H :    0.031350
  24 H :    0.039692
  25 C :   -0.039193
  26 H :    0.022943
  27 H :    0.019601
  28 C :   -0.064510
  29 H :    0.019255
  30 H :    0.025729
  31 H :    0.026629
  32 H :    0.050938
  33 H :    0.029528

  Mayer bond orders larger than 0.100000
B(  0-S ,  1-C ) :   1.1506 B(  0-S ,  4-C ) :   1.1379 B(  1-C ,  2-C ) :   1.6228
B(  1-C , 32-H ) :   0.9552 B(  2-C ,  3-C ) :   1.2441 B(  2-C ,  6-C ) :   0.9877
B(  3-C ,  4-C ) :   1.5820 B(  3-C ,  5-H ) :   0.9968 B(  4-C , 20-C ) :   1.0213
B(  6-C ,  7-H ) :   0.9378 B(  6-C ,  8-H ) :   0.9472 B(  6-C ,  9-C ) :   1.0946
B(  9-C , 10-H ) :   0.9506 B(  9-C , 11-H ) :   0.9483 B(  9-C , 12-C ) :   1.0723
B( 12-C , 13-H ) :   0.9728 B( 12-C , 14-H ) :   0.9756 B( 12-C , 15-H ) :   0.9757
B( 16-S , 17-C ) :   1.1927 B( 16-S , 20-C ) :   1.1692 B( 17-C , 18-C ) :   1.5799
B( 17-C , 33-H ) :   0.9649 B( 18-C , 19-C ) :   1.2569 B( 18-C , 21-H ) :   0.9914
B( 19-C , 20-C ) :   1.5687 B( 19-C , 22-C ) :   1.0208 B( 22-C , 23-H ) :   0.9269
B( 22-C , 24-H ) :   0.9451 B( 22-C , 25-C ) :   1.0806 B( 25-C , 26-H ) :   0.9491
B( 25-C , 27-H ) :   0.9528 B( 25-C , 28-C ) :   1.0720 B( 28-C , 29-H ) :   0.9722
B( 28-C , 30-H ) :   0.9741 B( 28-C , 31-H ) :   0.9718

Dispersion correction           -0.014500330
FINAL SINGLE POINT ENERGY     -1339.873730220456

DIPOLE MOMENT
-------------
                                X             Y             Z
Electronic contribution:     19.59734       6.09324      -9.98233
Nuclear contribution   :    -19.94419      -6.21273      10.30209
                        -----------------------------------------
Total Dipole Moment    :     -0.34686      -0.11949       0.31977
                        -----------------------------------------
Magnitude (a.u.)       :      0.48666
Magnitude (Debye)      :      1.23699

Rotational constants in cm-1:     0.019977     0.008055     0.006949
Rotational constants in MHz :   598.899585   241.477321   208.324469

                             ****ORCA TERMINATED NORMALLY****
TOTAL RUN TIME: 0 days 0 hours 0 minutes 30 seconds 111 msec
