                         Program Version 4.2.1 -  RELEASE  -
|  1> ! wB97X-D3 SP def2-SVP
|  2> %pal
|  3> nprocs 16
|  4> end
|  5>
|  6> * xyz 0 1
|  7> S 	 53.7439 	 20.4934 	 48.6959
|  8> C 	 54.5454 	 21.205 	 47.386
|  9> C 	 55.315 	 20.2602 	 46.7273
| 10> C 	 55.2004 	 18.9379 	 47.2948
| 11> C 	 54.168 	 18.8481 	 48.2569
| 12> H 	 55.7863 	 18.0724 	 46.9736
| 13> C 	 56.3032 	 20.4787 	 45.6442
| 14> H 	 57.2449 	 20.3747 	 46.1179
| 15> H 	 56.287 	 21.5139 	 45.3395
| 16> C 	 56.2973 	 19.6205 	 44.3827
| 17> H 	 57.3189 	 19.5915 	 43.979
| 18> H 	 56.0893 	 18.6237 	 44.7417
| 19> C 	 55.3061 	 19.9843 	 43.3119
| 20> H 	 54.3433 	 19.9044 	 43.7247
| 21> H 	 55.5409 	 21.001 	 43.0012
| 22> H 	 55.4306 	 19.259 	 42.4636
| 23> S 	 53.8156 	 17.8204 	 50.8139
| 24> C 	 53.1026 	 16.2171 	 50.9076
| 25> C 	 52.9775 	 15.6101 	 49.6583
| 26> C 	 53.4211 	 16.4738 	 48.6326
| 27> C 	 53.7527 	 17.7279 	 49.0476
| 28> H 	 52.4311 	 14.6913 	 49.5349
| 29> C 	 53.1688 	 16.0204 	 47.1468
| 30> H 	 53.6275 	 16.8144 	 46.524
| 31> H 	 52.0995 	 15.8279 	 47.0567
| 32> C 	 53.8416 	 14.7284 	 46.7793
| 33> H 	 53.3591 	 13.9586 	 47.3641
| 34> H 	 54.9037 	 14.7747 	 47.0201
| 35> C 	 53.8012 	 14.2461 	 45.3139
| 36> H 	 54.2248 	 15.0647 	 44.6239
| 37> H 	 52.8029 	 13.9757 	 44.9555
| 38> H 	 54.4299 	 13.2826 	 45.1176
| 39> H 	 54.5866 	 22.2558 	 47.1644
| 40> H 	 52.8912 	 15.7713 	 51.9132
| 41> *
| 42>
| 43>                          ****END OF INPUT****

CARTESIAN COORDINATES (ANGSTROEM)
---------------------------------
  S     53.743900   20.493400   48.695900
  C     54.545400   21.205000   47.386000
  C     55.315000   20.260200   46.727300
  C     55.200400   18.937900   47.294800
  C     54.168000   18.848100   48.256900
  H     55.786300   18.072400   46.973600
  C     56.303200   20.478700   45.644200
  H     57.244900   20.374700   46.117900
  H     56.287000   21.513900   45.339500
  C     56.297300   19.620500   44.382700
  H     57.318900   19.591500   43.979000
  H     56.089300   18.623700   44.741700
  C     55.306100   19.984300   43.311900
  H     54.343300   19.904400   43.724700
  H     55.540900   21.001000   43.001200
  H     55.430600   19.259000   42.463600
  S     53.815600   17.820400   50.813900
  C     53.102600   16.217100   50.907600
  C     52.977500   15.610100   49.658300
  C     53.421100   16.473800   48.632600
  C     53.752700   17.727900   49.047600
  H     52.431100   14.691300   49.534900
  C     53.168800   16.020400   47.146800
  H     53.627500   16.814400   46.524000
  H     52.099500   15.827900   47.056700
  C     53.841600   14.728400   46.779300
  H     53.359100   13.958600   47.364100
  H     54.903700   14.774700   47.020100
  C     53.801200   14.246100   45.313900
  H     54.224800   15.064700   44.623900
  H     52.802900   13.975700   44.955500
  H     54.429900   13.282600   45.117600
  H     54.586600   22.255800   47.164400
  H     52.891200   15.771300   51.913200

 Total Charge           Charge          ....    0
 Multiplicity           Mult            ....    1
 Number of Electrons    NEL             ....  134
 Basis Dimension        Dim             ....  322

ORBITAL ENERGIES
----------------

  NO   OCC          E(Eh)            E(eV)
   0   2.0000     -88.967314     -2420.9237
   1   2.0000     -88.964564     -2420.8488
   2   2.0000     -10.331633      -281.1380
   3   2.0000     -10.325563      -280.9729
   4   2.0000     -10.325241      -280.9641
   5   2.0000     -10.311258      -280.5836
   6   2.0000     -10.302270      -280.3390
   7   2.0000     -10.299656      -280.2679
   8   2.0000     -10.299171      -280.2547
   9   2.0000     -10.295700      -280.1602
  10   2.0000     -10.294355      -280.1236
  11   2.0000     -10.293496      -280.1003
  12   2.0000     -10.284240      -279.8484
  13   2.0000     -10.282046      -279.7887
  14   2.0000     -10.281744      -279.7805
  15   2.0000     -10.274682      -279.5883
  16   2.0000      -8.081903      -219.9198
  17   2.0000      -8.080252      -219.8748
  18   2.0000      -6.040390      -164.3674
  19   2.0000      -6.038723      -164.3220
  20   2.0000      -6.036567      -164.2633
  21   2.0000      -6.034544      -164.2083
  22   2.0000      -6.032547      -164.1540
  23   2.0000      -6.031076      -164.1139
  24   2.0000      -1.010372       -27.4936
  25   2.0000      -0.987956       -26.8837
  26   2.0000      -0.918237       -24.9865
  27   2.0000      -0.909052       -24.7366
  28   2.0000      -0.874578       -23.7985
  29   2.0000      -0.853000       -23.2113
  30   2.0000      -0.847175       -23.0528
  31   2.0000      -0.812684       -22.1143
  32   2.0000      -0.783410       -21.3177
  33   2.0000      -0.773881       -21.0584
  34   2.0000      -0.708836       -19.2884
  35   2.0000      -0.693022       -18.8581
  36   2.0000      -0.688911       -18.7462
  37   2.0000      -0.662036       -18.0149
  38   2.0000      -0.639898       -17.4125
  39   2.0000      -0.624521       -16.9941
  40   2.0000      -0.594176       -16.1683
  41   2.0000      -0.578723       -15.7479
  42   2.0000      -0.571067       -15.5395
  43   2.0000      -0.556895       -15.1539
  44   2.0000      -0.543020       -14.7763
  45   2.0000      -0.520417       -14.1613
  46   2.0000      -0.519405       -14.1337
  47   2.0000      -0.509076       -13.8527
  48   2.0000      -0.506238       -13.7754
  49   2.0000      -0.502812       -13.6822
  50   2.0000      -0.492134       -13.3917
  51   2.0000      -0.483239       -13.1496
  52   2.0000      -0.471508       -12.8304
  53   2.0000      -0.468890       -12.7591
  54   2.0000      -0.459001       -12.4901
  55   2.0000      -0.452555       -12.3146
  56   2.0000      -0.441782       -12.0215
  57   2.0000      -0.440952       -11.9989
  58   2.0000      -0.427925       -11.6444
  59   2.0000      -0.425155       -11.5691
  60   2.0000      -0.417723       -11.3668
  61   2.0000      -0.414994       -11.2926
  62   2.0000      -0.408844       -11.1252
  63   2.0000      -0.351094        -9.5538
  64   2.0000      -0.335950        -9.1417
  65   2.0000      -0.324221        -8.8225
  66   2.0000      -0.289800        -7.8859
  67   0.0000       0.024556         0.6682
  68   0.0000       0.070107         1.9077
  69   0.0000       0.108702         2.9579
  70   0.0000       0.118265         3.2182
  71   0.0000       0.122524         3.3340

MULLIKEN ATOMIC CHARGES
-----------------------
   0 S :    0.107452
   1 C :   -0.094011
   2 C :   -0.115937
   3 C :    0.017721
   4 C :   -0.175938
   5 H :    0.031039
   6 C :    0.087655
   7 H :    0.028483
   8 H :   -0.005582
   9 C :   -0.077266
  10 H :    0.024796
  11 H :    0.005206
  12 C :   -0.017758
  13 H :    0.031526
  14 H :    0.026281
  15 H :    0.042776
  16 S :    0.107012
  17 C :   -0.117731
  18 C :   -0.027476
  19 C :   -0.034419
  20 C :   -0.131577
  21 H :    0.027422
  22 C :    0.086963
  23 H :    0.024090
  24 H :    0.040055
  25 C :   -0.094329
  26 H :    0.020802
  27 H :    0.030324
  28 C :   -0.089544
  29 H :    0.039937
  30 H :    0.030709
  31 H :    0.050593
  32 H :    0.043865
  33 H :    0.076863
Sum of atomic charges:   -0.0000000

LOEWDIN ATOMIC CHARGES
----------------------
   0 S :    0.429175
   1 C :   -0.214858
   2 C :   -0.067912
   3 C :   -0.061129
   4 C :   -0.191966
   5 H :    0.031686
   6 C :   -0.036706
   7 H :    0.035398
   8 H :    0.023267
   9 C :   -0.041681
  10 H :    0.025430
  11 H :    0.015224
  12 C :   -0.056199
  13 H :    0.021029
  14 H :    0.023511
  15 H :    0.034516
  16 S :    0.392220
  17 C :   -0.178631
  18 C :   -0.071220
  19 C :   -0.054634
  20 C :   -0.198382
  21 H :    0.032815
  22 C :   -0.023346
  23 H :    0.029294
  24 H :    0.034285
  25 C :   -0.050838
  26 H :    0.018495
  27 H :    0.025201
  28 C :   -0.077832
  29 H :    0.029657
  30 H :    0.019357
  31 H :    0.038559
  32 H :    0.030143
  33 H :    0.036072

  Mayer bond orders larger than 0.100000
B(  0-S ,  1-C ) :   1.1527 B(  0-S ,  4-C ) :   1.1634 B(  1-C ,  2-C ) :   1.5776
B(  1-C , 32-H ) :   0.9711 B(  2-C ,  3-C ) :   1.2602 B(  2-C ,  6-C ) :   1.0372
B(  3-C ,  4-C ) :   1.5200 B(  3-C ,  5-H ) :   0.9849 B(  4-C , 20-C ) :   1.0713
B(  6-C ,  7-H ) :   0.9260 B(  6-C ,  8-H ) :   0.9336 B(  6-C ,  9-C ) :   1.0743
B(  9-C , 10-H ) :   0.9520 B(  9-C , 11-H ) :   0.9522 B(  9-C , 12-C ) :   1.0823
B( 12-C , 13-H ) :   0.9773 B( 12-C , 14-H ) :   0.9737 B( 12-C , 15-H ) :   0.9719
B( 16-S , 17-C ) :   1.1566 B( 16-S , 20-C ) :   1.1231 B( 17-C , 18-C ) :   1.6062
B( 17-C , 33-H ) :   0.9616 B( 18-C , 19-C ) :   1.2236 B( 18-C , 21-H ) :   0.9933
B( 19-C , 20-C ) :   1.6322 B( 19-C , 22-C ) :   1.0382 B( 22-C , 23-H ) :   0.9283
B( 22-C , 24-H ) :   0.9419 B( 22-C , 25-C ) :   1.0680 B( 25-C , 26-H ) :   0.9505
B( 25-C , 27-H ) :   0.9560 B( 25-C , 28-C ) :   1.0863 B( 28-C , 29-H ) :   0.9723
B( 28-C , 30-H ) :   0.9738 B( 28-C , 31-H ) :   0.9739

Dispersion correction           -0.013845115
FINAL SINGLE POINT ENERGY     -1339.876916864603

DIPOLE MOMENT
-------------
                                X             Y             Z
Electronic contribution:     -6.46918      11.44562      29.63186
Nuclear contribution   :      6.68447     -11.77215     -30.04308
                        -----------------------------------------
Total Dipole Moment    :      0.21530      -0.32652      -0.41122
                        -----------------------------------------
Magnitude (a.u.)       :      0.56751
Magnitude (Debye)      :      1.44250

Rotational constants in cm-1:     0.016141     0.010026     0.006560
Rotational constants in MHz :   483.901314   300.567098   196.663269

                             ****ORCA TERMINATED NORMALLY****
TOTAL RUN TIME: 0 days 0 hours 0 minutes 30 seconds 706 msec
