                         Program Version 4.2.1 -  RELEASE  -
|  1> ! wB97X-D3 SP def2-SVP
|  2> %pal
|  3> nprocs 16
|  4> end
|  5>
|  6> * xyz 0 1
|  7> S 	 12.6519 	 -11.5945 	 78.0521
|  8> C 	 13.145 	 -13.149 	 78.6938
|  9> C 	 12.1689 	 -14.1049 	 78.3273
| 10> C 	 11.165 	 -13.6148 	 77.4915
| 11> C 	 11.2558 	 -12.2636 	 77.2865
| 12> H 	 10.4453 	 -14.1756 	 76.9666
| 13> C 	 12.1676 	 -15.5147 	 78.8576
| 14> H 	 11.1425 	 -15.8804 	 78.9616
| 15> H 	 12.6306 	 -15.6135 	 79.8145
| 16> C 	 12.8603 	 -16.5572 	 78.0244
| 17> H 	 12.3929 	 -16.6665 	 77.0319
| 18> H 	 13.8568 	 -16.2379 	 77.8497
| 19> C 	 13.0336 	 -18.0311 	 78.4886
| 20> H 	 12.096 	 -18.4144 	 78.8061
| 21> H 	 13.3903 	 -18.7003 	 77.6743
| 22> H 	 13.6523 	 -18.1268 	 79.3914
| 23> S 	 9.93935 	 -9.9288 	 77.3874
| 24> C 	 8.96784 	 -9.41273 	 76.0632
| 25> C 	 9.00785 	 -10.3397 	 75.0398
| 26> C 	 9.77177 	 -11.5449 	 75.2548
| 27> C 	 10.3615 	 -11.3666 	 76.5442
| 28> H 	 8.51966 	 -10.0249 	 74.1154
| 29> C 	 10.0167 	 -12.7579 	 74.2804
| 30> H 	 9.52816 	 -13.6086 	 74.7885
| 31> H 	 11.0846 	 -13.0538 	 74.2736
| 32> C 	 9.60276 	 -12.4348 	 72.7771
| 33> H 	 10.2676 	 -11.5414 	 72.6383
| 34> H 	 8.49364 	 -12.1489 	 72.8708
| 35> C 	 9.74965 	 -13.5149 	 71.6402
| 36> H 	 10.8046 	 -13.8328 	 71.5919
| 37> H 	 9.34175 	 -13.1272 	 70.6777
| 38> H 	 9.27326 	 -14.4639 	 71.8357
| 39> H 	 14.0791 	 -13.4563 	 79.1884
| 40> H 	 8.47633 	 -8.44149 	 76.032
| 41> *
| 42>
| 43>                          ****END OF INPUT****

CARTESIAN COORDINATES (ANGSTROEM)
---------------------------------
  S     12.651900  -11.594500   78.052100
  C     13.145000  -13.149000   78.693800
  C     12.168900  -14.104900   78.327300
  C     11.165000  -13.614800   77.491500
  C     11.255800  -12.263600   77.286500
  H     10.445300  -14.175600   76.966600
  C     12.167600  -15.514700   78.857600
  H     11.142500  -15.880400   78.961600
  H     12.630600  -15.613500   79.814500
  C     12.860300  -16.557200   78.024400
  H     12.392900  -16.666500   77.031900
  H     13.856800  -16.237900   77.849700
  C     13.033600  -18.031100   78.488600
  H     12.096000  -18.414400   78.806100
  H     13.390300  -18.700300   77.674300
  H     13.652300  -18.126800   79.391400
  S      9.939350   -9.928800   77.387400
  C      8.967840   -9.412730   76.063200
  C      9.007850  -10.339700   75.039800
  C      9.771770  -11.544900   75.254800
  C     10.361500  -11.366600   76.544200
  H      8.519660  -10.024900   74.115400
  C     10.016700  -12.757900   74.280400
  H      9.528160  -13.608600   74.788500
  H     11.084600  -13.053800   74.273600
  C      9.602760  -12.434800   72.777100
  H     10.267600  -11.541400   72.638300
  H      8.493640  -12.148900   72.870800
  C      9.749650  -13.514900   71.640200
  H     10.804600  -13.832800   71.591900
  H      9.341750  -13.127200   70.677700
  H      9.273260  -14.463900   71.835700
  H     14.079100  -13.456300   79.188400
  H      8.476330   -8.441490   76.032000

 Total Charge           Charge          ....    0
 Multiplicity           Mult            ....    1
 Number of Electrons    NEL             ....  134
 Basis Dimension        Dim             ....  322

ORBITAL ENERGIES
----------------

  NO   OCC          E(Eh)            E(eV)
   0   2.0000     -88.968553     -2420.9574
   1   2.0000     -88.967879     -2420.9391
   2   2.0000     -10.328240      -281.0457
   3   2.0000     -10.325474      -280.9704
   4   2.0000     -10.316559      -280.7279
   5   2.0000     -10.315825      -280.7079
   6   2.0000     -10.312489      -280.6171
   7   2.0000     -10.309098      -280.5248
   8   2.0000     -10.307361      -280.4776
   9   2.0000     -10.300899      -280.3017
  10   2.0000     -10.296565      -280.1838
  11   2.0000     -10.290691      -280.0239
  12   2.0000     -10.286644      -279.9138
  13   2.0000     -10.286442      -279.9083
  14   2.0000     -10.279714      -279.7252
  15   2.0000     -10.279557      -279.7210
  16   2.0000      -8.084158      -219.9811
  17   2.0000      -8.082655      -219.9402
  18   2.0000      -6.042437      -164.4231
  19   2.0000      -6.041095      -164.3865
  20   2.0000      -6.038492      -164.3157
  21   2.0000      -6.036991      -164.2749
  22   2.0000      -6.035161      -164.2251
  23   2.0000      -6.033639      -164.1837
  24   2.0000      -1.011583       -27.5266
  25   2.0000      -0.986509       -26.8443
  26   2.0000      -0.913534       -24.8585
  27   2.0000      -0.897575       -24.4243
  28   2.0000      -0.866293       -23.5730
  29   2.0000      -0.853087       -23.2137
  30   2.0000      -0.844954       -22.9924
  31   2.0000      -0.815051       -22.1787
  32   2.0000      -0.787394       -21.4261
  33   2.0000      -0.772955       -21.0332
  34   2.0000      -0.703732       -19.1495
  35   2.0000      -0.696840       -18.9620
  36   2.0000      -0.695589       -18.9279
  37   2.0000      -0.651489       -17.7279
  38   2.0000      -0.638146       -17.3648
  39   2.0000      -0.626030       -17.0351
  40   2.0000      -0.596983       -16.2447
  41   2.0000      -0.571133       -15.5413
  42   2.0000      -0.562463       -15.3054
  43   2.0000      -0.557385       -15.1672
  44   2.0000      -0.525459       -14.2985
  45   2.0000      -0.525001       -14.2860
  46   2.0000      -0.513006       -13.9596
  47   2.0000      -0.506818       -13.7912
  48   2.0000      -0.504937       -13.7400
  49   2.0000      -0.500482       -13.6188
  50   2.0000      -0.491712       -13.3802
  51   2.0000      -0.483528       -13.1575
  52   2.0000      -0.480165       -13.0660
  53   2.0000      -0.467193       -12.7130
  54   2.0000      -0.462743       -12.5919
  55   2.0000      -0.454738       -12.3740
  56   2.0000      -0.444627       -12.0989
  57   2.0000      -0.434624       -11.8267
  58   2.0000      -0.428383       -11.6569
  59   2.0000      -0.425500       -11.5785
  60   2.0000      -0.417905       -11.3718
  61   2.0000      -0.415307       -11.3011
  62   2.0000      -0.411640       -11.2013
  63   2.0000      -0.347778        -9.4635
  64   2.0000      -0.333424        -9.0729
  65   2.0000      -0.333004        -9.0615
  66   2.0000      -0.285637        -7.7726
  67   0.0000       0.030018         0.8168
  68   0.0000       0.071313         1.9405
  69   0.0000       0.113960         3.1010
  70   0.0000       0.125369         3.4115
  71   0.0000       0.131251         3.5715

MULLIKEN ATOMIC CHARGES
-----------------------
   0 S :    0.118370
   1 C :   -0.123511
   2 C :   -0.085333
   3 C :    0.047071
   4 C :   -0.147417
   5 H :   -0.013776
   6 C :    0.099016
   7 H :    0.019560
   8 H :    0.010225
   9 C :   -0.091133
  10 H :    0.019162
  11 H :    0.011690
  12 C :   -0.044399
  13 H :    0.010080
  14 H :    0.048182
  15 H :    0.028000
  16 S :    0.128130
  17 C :   -0.100687
  18 C :   -0.066763
  19 C :   -0.021479
  20 C :   -0.173027
  21 H :    0.020538
  22 C :    0.049709
  23 H :    0.043219
  24 H :    0.044161
  25 C :   -0.152114
  26 H :    0.057125
  27 H :    0.055449
  28 C :   -0.024463
  29 H :    0.033029
  30 H :    0.053711
  31 H :    0.028564
  32 H :    0.058724
  33 H :    0.060388
Sum of atomic charges:    0.0000000

LOEWDIN ATOMIC CHARGES
----------------------
   0 S :    0.421893
   1 C :   -0.211324
   2 C :   -0.055492
   3 C :   -0.064260
   4 C :   -0.196810
   5 H :    0.024779
   6 C :   -0.032091
   7 H :    0.031630
   8 H :    0.027222
   9 C :   -0.045232
  10 H :    0.022140
  11 H :    0.015015
  12 C :   -0.066317
  13 H :    0.014664
  14 H :    0.035699
  15 H :    0.022989
  16 S :    0.438639
  17 C :   -0.209727
  18 C :   -0.075589
  19 C :   -0.055714
  20 C :   -0.206152
  21 H :    0.030288
  22 C :   -0.036301
  23 H :    0.029588
  24 H :    0.034868
  25 C :   -0.050982
  26 H :    0.035692
  27 H :    0.032046
  28 C :   -0.070598
  29 H :    0.028989
  30 H :    0.036682
  31 H :    0.024555
  32 H :    0.037206
  33 H :    0.032004

  Mayer bond orders larger than 0.100000
B(  0-S ,  1-C ) :   1.1399 B(  0-S ,  4-C ) :   1.1767 B(  1-C ,  2-C ) :   1.5740
B(  1-C ,  4-C ) :   0.1060 B(  1-C , 32-H ) :   0.9671 B(  2-C ,  3-C ) :   1.2712
B(  2-C ,  6-C ) :   1.0358 B(  3-C ,  4-C ) :   1.5457 B(  3-C ,  5-H ) :   1.0059
B(  4-C , 20-C ) :   1.0175 B(  6-C ,  7-H ) :   0.9360 B(  6-C ,  8-H ) :   0.9375
B(  6-C ,  9-C ) :   1.0673 B(  9-C , 10-H ) :   0.9546 B(  9-C , 11-H ) :   0.9551
B(  9-C , 12-C ) :   1.0824 B( 12-C , 13-H ) :   0.9732 B( 12-C , 14-H ) :   0.9744
B( 12-C , 15-H ) :   0.9739 B( 16-S , 17-C ) :   1.1477 B( 16-S , 20-C ) :   1.1926
B( 17-C , 18-C ) :   1.6008 B( 17-C , 20-C ) :   0.1039 B( 17-C , 33-H ) :   0.9672
B( 18-C , 19-C ) :   1.2532 B( 18-C , 21-H ) :   0.9833 B( 19-C , 20-C ) :   1.5508
B( 19-C , 22-C ) :   1.0177 B( 22-C , 23-H ) :   0.9316 B( 22-C , 24-H ) :   0.9413
B( 22-C , 25-C ) :   1.0471 B( 25-C , 26-H ) :   0.9601 B( 25-C , 27-H ) :   0.9534
B( 25-C , 28-C ) :   1.0698 B( 28-C , 29-H ) :   0.9730 B( 28-C , 30-H ) :   0.9743
B( 28-C , 31-H ) :   0.9748

Dispersion correction           -0.013276703
FINAL SINGLE POINT ENERGY     -1339.869368736812

DIPOLE MOMENT
-------------
                                X             Y             Z
Electronic contribution:     -0.65817      27.63448      13.98755
Nuclear contribution   :      0.57903     -28.13879     -14.39931
                        -----------------------------------------
Total Dipole Moment    :     -0.07914      -0.50431      -0.41176
                        -----------------------------------------
Magnitude (a.u.)       :      0.65585
Magnitude (Debye)      :      1.66704

Rotational constants in cm-1:     0.016516     0.008167     0.005859
Rotational constants in MHz :   495.135943   244.846985   175.649043

                             ****ORCA TERMINATED NORMALLY****
TOTAL RUN TIME: 0 days 0 hours 0 minutes 27 seconds 247 msec
