                         Program Version 4.2.1 -  RELEASE  -
|  1> ! wB97X-D3 SP def2-SVP
|  2> %pal
|  3> nprocs 16
|  4> end
|  5>
|  6> * xyz 0 1
|  7> S 	 30.7584 	 -1.11554 	 74.7581
|  8> C 	 32.3099 	 -0.428936 	 75.1791
|  9> C 	 32.6638 	 -0.874288 	 76.3889
| 10> C 	 31.9419 	 -2.06929 	 76.7866
| 11> C 	 30.8717 	 -2.36339 	 76.0178
| 12> H 	 32.0186 	 -2.74949 	 77.6472
| 13> C 	 33.9379 	 -0.556278 	 77.168
| 14> H 	 33.7325 	 -0.725761 	 78.1986
| 15> H 	 34.2438 	 0.456939 	 76.9566
| 16> C 	 35.0744 	 -1.46145 	 76.7358
| 17> H 	 34.7106 	 -2.48467 	 76.9904
| 18> H 	 35.2695 	 -1.41529 	 75.6192
| 19> C 	 36.3415 	 -1.30072 	 77.5052
| 20> H 	 36.8648 	 -0.412058 	 77.2938
| 21> H 	 36.0398 	 -1.36987 	 78.6228
| 22> H 	 36.9584 	 -2.12384 	 77.216
| 23> S 	 28.4038 	 -3.09308 	 75.4428
| 24> C 	 27.7581 	 -4.64177 	 75.913
| 25> C 	 28.7228 	 -5.33815 	 76.5882
| 26> C 	 29.987 	 -4.65602 	 76.6869
| 27> C 	 29.8958 	 -3.38435 	 76.2331
| 28> H 	 28.4306 	 -6.29644 	 77.024
| 29> C 	 31.1185 	 -5.31972 	 77.5295
| 30> H 	 30.718 	 -6.17513 	 78.065
| 31> H 	 31.2561 	 -4.54064 	 78.3392
| 32> C 	 32.3967 	 -5.83232 	 76.9169
| 33> H 	 33.1774 	 -6.11964 	 77.6198
| 34> H 	 32.8642 	 -5.03004 	 76.3258
| 35> C 	 32.1377 	 -7.01507 	 75.9535
| 36> H 	 31.2778 	 -6.88645 	 75.3097
| 37> H 	 32.0438 	 -7.9461 	 76.5491
| 38> H 	 32.9368 	 -7.2692 	 75.2799
| 39> H 	 32.7824 	 0.452625 	 74.8086
| 40> H 	 26.809 	 -5.09405 	 75.5612
| 41> *
| 42>
| 43>                          ****END OF INPUT****

CARTESIAN COORDINATES (ANGSTROEM)
---------------------------------
  S     30.758400   -1.115540   74.758100
  C     32.309900   -0.428936   75.179100
  C     32.663800   -0.874288   76.388900
  C     31.941900   -2.069290   76.786600
  C     30.871700   -2.363390   76.017800
  H     32.018600   -2.749490   77.647200
  C     33.937900   -0.556278   77.168000
  H     33.732500   -0.725761   78.198600
  H     34.243800    0.456939   76.956600
  C     35.074400   -1.461450   76.735800
  H     34.710600   -2.484670   76.990400
  H     35.269500   -1.415290   75.619200
  C     36.341500   -1.300720   77.505200
  H     36.864800   -0.412058   77.293800
  H     36.039800   -1.369870   78.622800
  H     36.958400   -2.123840   77.216000
  S     28.403800   -3.093080   75.442800
  C     27.758100   -4.641770   75.913000
  C     28.722800   -5.338150   76.588200
  C     29.987000   -4.656020   76.686900
  C     29.895800   -3.384350   76.233100
  H     28.430600   -6.296440   77.024000
  C     31.118500   -5.319720   77.529500
  H     30.718000   -6.175130   78.065000
  H     31.256100   -4.540640   78.339200
  C     32.396700   -5.832320   76.916900
  H     33.177400   -6.119640   77.619800
  H     32.864200   -5.030040   76.325800
  C     32.137700   -7.015070   75.953500
  H     31.277800   -6.886450   75.309700
  H     32.043800   -7.946100   76.549100
  H     32.936800   -7.269200   75.279900
  H     32.782400    0.452625   74.808600
  H     26.809000   -5.094050   75.561200

 Total Charge           Charge          ....    0
 Multiplicity           Mult            ....    1
 Number of Electrons    NEL             ....  134
 Basis Dimension        Dim             ....  322

ORBITAL ENERGIES
----------------

  NO   OCC          E(Eh)            E(eV)
   0   2.0000     -88.964351     -2420.8431
   1   2.0000     -88.960831     -2420.7473
   2   2.0000     -10.325887      -280.9817
   3   2.0000     -10.323672      -280.9214
   4   2.0000     -10.318089      -280.7695
   5   2.0000     -10.308457      -280.5074
   6   2.0000     -10.307071      -280.4697
   7   2.0000     -10.301327      -280.3134
   8   2.0000     -10.298176      -280.2276
   9   2.0000     -10.295137      -280.1449
  10   2.0000     -10.290124      -280.0085
  11   2.0000     -10.288574      -279.9663
  12   2.0000     -10.286622      -279.9132
  13   2.0000     -10.286325      -279.9051
  14   2.0000     -10.276737      -279.6442
  15   2.0000     -10.275061      -279.5986
  16   2.0000      -8.080350      -219.8775
  17   2.0000      -8.075426      -219.7435
  18   2.0000      -6.038924      -164.3275
  19   2.0000      -6.034622      -164.2104
  20   2.0000      -6.034302      -164.2017
  21   2.0000      -6.031017      -164.1123
  22   2.0000      -6.030062      -164.0863
  23   2.0000      -6.025674      -163.9669
  24   2.0000      -1.018601       -27.7175
  25   2.0000      -0.991529       -26.9809
  26   2.0000      -0.918766       -25.0009
  27   2.0000      -0.909750       -24.7556
  28   2.0000      -0.882033       -24.0013
  29   2.0000      -0.853415       -23.2226
  30   2.0000      -0.842723       -22.9317
  31   2.0000      -0.821970       -22.3669
  32   2.0000      -0.783189       -21.3116
  33   2.0000      -0.777770       -21.1642
  34   2.0000      -0.714200       -19.4344
  35   2.0000      -0.694753       -18.9052
  36   2.0000      -0.689126       -18.7521
  37   2.0000      -0.669995       -18.2315
  38   2.0000      -0.640475       -17.4282
  39   2.0000      -0.617467       -16.8021
  40   2.0000      -0.590751       -16.0751
  41   2.0000      -0.577080       -15.7032
  42   2.0000      -0.564325       -15.3561
  43   2.0000      -0.556193       -15.1348
  44   2.0000      -0.551612       -15.0101
  45   2.0000      -0.527101       -14.3431
  46   2.0000      -0.516856       -14.0644
  47   2.0000      -0.513483       -13.9726
  48   2.0000      -0.511160       -13.9094
  49   2.0000      -0.502181       -13.6650
  50   2.0000      -0.494209       -13.4481
  51   2.0000      -0.479705       -13.0534
  52   2.0000      -0.475345       -12.9348
  53   2.0000      -0.468773       -12.7560
  54   2.0000      -0.463952       -12.6248
  55   2.0000      -0.448975       -12.2172
  56   2.0000      -0.441017       -12.0007
  57   2.0000      -0.434927       -11.8350
  58   2.0000      -0.428844       -11.6694
  59   2.0000      -0.422170       -11.4878
  60   2.0000      -0.416937       -11.3454
  61   2.0000      -0.414584       -11.2814
  62   2.0000      -0.405025       -11.0213
  63   2.0000      -0.366935        -9.9848
  64   2.0000      -0.335407        -9.1269
  65   2.0000      -0.322877        -8.7859
  66   2.0000      -0.291311        -7.9270
  67   0.0000       0.024226         0.6592
  68   0.0000       0.080202         2.1824
  69   0.0000       0.101613         2.7650
  70   0.0000       0.118239         3.2174
  71   0.0000       0.131686         3.5834

MULLIKEN ATOMIC CHARGES
-----------------------
   0 S :    0.083151
   1 C :   -0.079829
   2 C :   -0.074208
   3 C :   -0.034240
   4 C :   -0.080069
   5 H :    0.001638
   6 C :    0.096046
   7 H :    0.016080
   8 H :    0.012207
   9 C :   -0.131668
  10 H :    0.023322
  11 H :    0.038086
  12 C :   -0.007349
  13 H :    0.025397
  14 H :    0.034054
  15 H :    0.032948
  16 S :    0.090082
  17 C :   -0.097959
  18 C :   -0.043668
  19 C :   -0.046762
  20 C :   -0.127922
  21 H :    0.025386
  22 C :    0.011345
  23 H :    0.014638
  24 H :    0.050801
  25 C :   -0.032627
  26 H :    0.032452
  27 H :    0.032854
  28 C :   -0.071304
  29 H :    0.040998
  30 H :    0.025817
  31 H :    0.026797
  32 H :    0.041891
  33 H :    0.071613
Sum of atomic charges:   -0.0000000

LOEWDIN ATOMIC CHARGES
----------------------
   0 S :    0.373549
   1 C :   -0.189124
   2 C :   -0.058161
   3 C :   -0.072686
   4 C :   -0.176309
   5 H :    0.032222
   6 C :   -0.026643
   7 H :    0.026054
   8 H :    0.022808
   9 C :   -0.047725
  10 H :    0.024304
  11 H :    0.029124
  12 C :   -0.062657
  13 H :    0.015351
  14 H :    0.035358
  15 H :    0.026773
  16 S :    0.421700
  17 C :   -0.194479
  18 C :   -0.072100
  19 C :   -0.060844
  20 C :   -0.198533
  21 H :    0.033722
  22 C :   -0.034118
  23 H :    0.028944
  24 H :    0.036351
  25 C :   -0.045196
  26 H :    0.028569
  27 H :    0.024774
  28 C :   -0.068594
  29 H :    0.026240
  30 H :    0.025674
  31 H :    0.024286
  32 H :    0.030511
  33 H :    0.040855

  Mayer bond orders larger than 0.100000
B(  0-S ,  1-C ) :   1.1073 B(  0-S ,  4-C ) :   1.1025 B(  1-C ,  2-C ) :   1.6707
B(  1-C , 32-H ) :   0.9636 B(  2-C ,  3-C ) :   1.1625 B(  2-C ,  6-C ) :   1.0509
B(  3-C ,  4-C ) :   1.6405 B(  3-C ,  5-H ) :   0.9906 B(  4-C , 20-C ) :   1.0820
B(  6-C ,  7-H ) :   0.9302 B(  6-C ,  8-H ) :   0.9385 B(  6-C ,  9-C ) :   1.0746
B(  9-C , 10-H ) :   0.9536 B(  9-C , 11-H ) :   0.9517 B(  9-C , 12-C ) :   1.0887
B( 12-C , 13-H ) :   0.9734 B( 12-C , 14-H ) :   0.9689 B( 12-C , 15-H ) :   0.9704
B( 16-S , 17-C ) :   1.1494 B( 16-S , 20-C ) :   1.1292 B( 17-C , 18-C ) :   1.6283
B( 17-C , 33-H ) :   0.9635 B( 18-C , 19-C ) :   1.2289 B( 18-C , 21-H ) :   0.9865
B( 19-C , 20-C ) :   1.6148 B( 19-C , 22-C ) :   1.0067 B( 22-C , 23-H ) :   0.9398
B( 22-C , 24-H ) :   0.9428 B( 22-C , 25-C ) :   1.0629 B( 25-C , 26-H ) :   0.9547
B( 25-C , 27-H ) :   0.9549 B( 25-C , 28-C ) :   1.0698 B( 28-C , 29-H ) :   0.9789
B( 28-C , 30-H ) :   0.9755 B( 28-C , 31-H ) :   0.9749

Dispersion correction           -0.014418525
FINAL SINGLE POINT ENERGY     -1339.863763192682

DIPOLE MOMENT
-------------
                                X             Y             Z
Electronic contribution:    -26.42521      11.11189     -10.81585
Nuclear contribution   :     26.90146     -11.50422      11.21978
                        -----------------------------------------
Total Dipole Moment    :      0.47625      -0.39233       0.40393
                        -----------------------------------------
Magnitude (a.u.)       :      0.73750
Magnitude (Debye)      :      1.87456

Rotational constants in cm-1:     0.018896     0.009444     0.006804
Rotational constants in MHz :   566.475275   283.123890   203.967790

                             ****ORCA TERMINATED NORMALLY****
TOTAL RUN TIME: 0 days 0 hours 0 minutes 29 seconds 301 msec
