                         Program Version 4.2.1 -  RELEASE  -
|  1> ! wB97X-D3 SP def2-SVP
|  2> %pal
|  3> nprocs 16
|  4> end
|  5>
|  6> * xyz 0 1
|  7> S 	 -7.9446 	 43.693 	 38.8498
|  8> C 	 -6.752 	 42.5585 	 38.0741
|  9> C 	 -6.71257 	 41.3587 	 38.7774
| 10> C 	 -7.70321 	 41.3017 	 39.8237
| 11> C 	 -8.41432 	 42.4955 	 40.04
| 12> H 	 -7.77002 	 40.435 	 40.4191
| 13> C 	 -5.71332 	 40.2427 	 38.5171
| 14> H 	 -5.05523 	 40.5078 	 37.7183
| 15> H 	 -6.19715 	 39.3801 	 38.1348
| 16> C 	 -4.71931 	 39.8964 	 39.6669
| 17> H 	 -5.24168 	 39.8473 	 40.6021
| 18> H 	 -4.24656 	 38.9582 	 39.4822
| 19> C 	 -3.58172 	 40.8584 	 39.8891
| 20> H 	 -3.971 	 41.8727 	 40.0732
| 21> H 	 -2.90844 	 40.5129 	 40.6853
| 22> H 	 -2.82715 	 40.9534 	 39.0189
| 23> S 	 -11.0282 	 43.5192 	 40.2528
| 24> C 	 -11.7924 	 43.4465 	 41.83
| 25> C 	 -10.9692 	 42.9493 	 42.8244
| 26> C 	 -9.74208 	 42.4649 	 42.3023
| 27> C 	 -9.55402 	 42.7481 	 40.9281
| 28> H 	 -11.2966 	 42.8565 	 43.8264
| 29> C 	 -8.73075 	 41.8503 	 43.2313
| 30> H 	 -8.46704 	 40.8684 	 42.8148
| 31> H 	 -9.24868 	 41.7224 	 44.2112
| 32> C 	 -7.47248 	 42.7069 	 43.578
| 33> H 	 -7.75585 	 43.4563 	 44.2706
| 34> H 	 -7.12543 	 43.2878 	 42.7513
| 35> C 	 -6.3557 	 41.7963 	 44.1863
| 36> H 	 -5.95638 	 41.168 	 43.4197
| 37> H 	 -6.87153 	 41.26 	 44.9371
| 38> H 	 -5.49042 	 42.3621 	 44.6176
| 39> H 	 -6.20978 	 42.8958 	 37.1891
| 40> H 	 -12.8038 	 43.8548 	 41.9278
| 41> *
| 42>
| 43>                          ****END OF INPUT****

CARTESIAN COORDINATES (ANGSTROEM)
---------------------------------
  S     -7.944600   43.693000   38.849800
  C     -6.752000   42.558500   38.074100
  C     -6.712570   41.358700   38.777400
  C     -7.703210   41.301700   39.823700
  C     -8.414320   42.495500   40.040000
  H     -7.770020   40.435000   40.419100
  C     -5.713320   40.242700   38.517100
  H     -5.055230   40.507800   37.718300
  H     -6.197150   39.380100   38.134800
  C     -4.719310   39.896400   39.666900
  H     -5.241680   39.847300   40.602100
  H     -4.246560   38.958200   39.482200
  C     -3.581720   40.858400   39.889100
  H     -3.971000   41.872700   40.073200
  H     -2.908440   40.512900   40.685300
  H     -2.827150   40.953400   39.018900
  S    -11.028200   43.519200   40.252800
  C    -11.792400   43.446500   41.830000
  C    -10.969200   42.949300   42.824400
  C     -9.742080   42.464900   42.302300
  C     -9.554020   42.748100   40.928100
  H    -11.296600   42.856500   43.826400
  C     -8.730750   41.850300   43.231300
  H     -8.467040   40.868400   42.814800
  H     -9.248680   41.722400   44.211200
  C     -7.472480   42.706900   43.578000
  H     -7.755850   43.456300   44.270600
  H     -7.125430   43.287800   42.751300
  C     -6.355700   41.796300   44.186300
  H     -5.956380   41.168000   43.419700
  H     -6.871530   41.260000   44.937100
  H     -5.490420   42.362100   44.617600
  H     -6.209780   42.895800   37.189100
  H    -12.803800   43.854800   41.927800

 Total Charge           Charge          ....    0
 Multiplicity           Mult            ....    1
 Number of Electrons    NEL             ....  134
 Basis Dimension        Dim             ....  322

ORBITAL ENERGIES
----------------

  NO   OCC          E(Eh)            E(eV)
   0   2.0000     -88.968199     -2420.9478
   1   2.0000     -88.964984     -2420.8603
   2   2.0000     -10.337256      -281.2910
   3   2.0000     -10.332729      -281.1679
   4   2.0000     -10.322677      -280.8943
   5   2.0000     -10.321596      -280.8649
   6   2.0000     -10.307915      -280.4926
   7   2.0000     -10.305971      -280.4397
   8   2.0000     -10.295927      -280.1664
   9   2.0000     -10.295831      -280.1638
  10   2.0000     -10.294078      -280.1161
  11   2.0000     -10.290247      -280.0119
  12   2.0000     -10.284626      -279.8589
  13   2.0000     -10.282237      -279.7939
  14   2.0000     -10.279954      -279.7318
  15   2.0000     -10.276402      -279.6351
  16   2.0000      -8.082165      -219.9269
  17   2.0000      -8.078882      -219.8376
  18   2.0000      -6.040627      -164.3738
  19   2.0000      -6.037469      -164.2879
  20   2.0000      -6.036796      -164.2696
  21   2.0000      -6.033460      -164.1788
  22   2.0000      -6.032995      -164.1661
  23   2.0000      -6.029649      -164.0751
  24   2.0000      -0.998376       -27.1672
  25   2.0000      -0.976348       -26.5678
  26   2.0000      -0.911994       -24.8166
  27   2.0000      -0.905223       -24.6324
  28   2.0000      -0.867095       -23.5949
  29   2.0000      -0.851181       -23.1618
  30   2.0000      -0.841756       -22.9053
  31   2.0000      -0.811565       -22.0838
  32   2.0000      -0.783620       -21.3234
  33   2.0000      -0.768924       -20.9235
  34   2.0000      -0.710927       -19.3453
  35   2.0000      -0.698485       -19.0067
  36   2.0000      -0.690308       -18.7842
  37   2.0000      -0.664014       -18.0687
  38   2.0000      -0.641018       -17.4430
  39   2.0000      -0.625973       -17.0336
  40   2.0000      -0.596541       -16.2327
  41   2.0000      -0.571465       -15.5503
  42   2.0000      -0.565580       -15.3902
  43   2.0000      -0.552669       -15.0389
  44   2.0000      -0.541062       -14.7231
  45   2.0000      -0.521330       -14.1861
  46   2.0000      -0.517783       -14.0896
  47   2.0000      -0.505640       -13.7592
  48   2.0000      -0.502159       -13.6644
  49   2.0000      -0.496044       -13.4980
  50   2.0000      -0.489874       -13.3301
  51   2.0000      -0.483760       -13.1638
  52   2.0000      -0.470415       -12.8006
  53   2.0000      -0.465688       -12.6720
  54   2.0000      -0.456943       -12.4341
  55   2.0000      -0.447891       -12.1877
  56   2.0000      -0.443199       -12.0601
  57   2.0000      -0.436901       -11.8887
  58   2.0000      -0.435563       -11.8523
  59   2.0000      -0.424552       -11.5526
  60   2.0000      -0.420834       -11.4515
  61   2.0000      -0.416586       -11.3359
  62   2.0000      -0.412917       -11.2360
  63   2.0000      -0.346288        -9.4230
  64   2.0000      -0.334154        -9.0928
  65   2.0000      -0.330716        -8.9992
  66   2.0000      -0.287632        -7.8269
  67   0.0000       0.021455         0.5838
  68   0.0000       0.066790         1.8174
  69   0.0000       0.103540         2.8175
  70   0.0000       0.115984         3.1561
  71   0.0000       0.126928         3.4539

MULLIKEN ATOMIC CHARGES
-----------------------
   0 S :    0.081191
   1 C :   -0.146846
   2 C :   -0.083918
   3 C :    0.046768
   4 C :   -0.137733
   5 H :   -0.006029
   6 C :    0.105082
   7 H :   -0.000265
   8 H :    0.029556
   9 C :   -0.048278
  10 H :    0.023366
  11 H :    0.022068
  12 C :   -0.096656
  13 H :    0.046045
  14 H :    0.038359
  15 H :    0.028617
  16 S :    0.106487
  17 C :   -0.107119
  18 C :   -0.004803
  19 C :   -0.042432
  20 C :   -0.141557
  21 H :    0.009036
  22 C :    0.032859
  23 H :    0.033966
  24 H :    0.023158
  25 C :   -0.040928
  26 H :    0.014663
  27 H :    0.030690
  28 C :   -0.044788
  29 H :    0.033037
  30 H :    0.024299
  31 H :    0.042061
  32 H :    0.062049
  33 H :    0.067994
Sum of atomic charges:    0.0000000

LOEWDIN ATOMIC CHARGES
----------------------
   0 S :    0.373739
   1 C :   -0.176213
   2 C :   -0.058402
   3 C :   -0.062054
   4 C :   -0.185881
   5 H :    0.020501
   6 C :   -0.026866
   7 H :    0.027508
   8 H :    0.029855
   9 C :   -0.037050
  10 H :    0.019539
  11 H :    0.023399
  12 C :   -0.074313
  13 H :    0.027065
  14 H :    0.028567
  15 H :    0.027291
  16 S :    0.392713
  17 C :   -0.176852
  18 C :   -0.068769
  19 C :   -0.050664
  20 C :   -0.193469
  21 H :    0.028155
  22 C :   -0.033064
  23 H :    0.030158
  24 H :    0.034095
  25 C :   -0.030809
  26 H :    0.018302
  27 H :    0.019448
  28 C :   -0.057803
  29 H :    0.020873
  30 H :    0.018410
  31 H :    0.032074
  32 H :    0.030277
  33 H :    0.030238

  Mayer bond orders larger than 0.100000
B(  0-S ,  1-C ) :   1.1216 B(  0-S ,  4-C ) :   1.1515 B(  1-C ,  2-C ) :   1.5988
B(  1-C , 32-H ) :   0.9713 B(  2-C ,  3-C ) :   1.2463 B(  2-C ,  6-C ) :   1.0294
B(  3-C ,  4-C ) :   1.5494 B(  3-C ,  5-H ) :   0.9972 B(  4-C , 20-C ) :   1.0629
B(  6-C ,  7-H ) :   0.9386 B(  6-C ,  8-H ) :   0.9362 B(  6-C ,  9-C ) :   1.0615
B(  9-C , 10-H ) :   0.9587 B(  9-C , 11-H ) :   0.9520 B(  9-C , 12-C ) :   1.0856
B( 12-C , 13-H ) :   0.9768 B( 12-C , 14-H ) :   0.9720 B( 12-C , 15-H ) :   0.9709
B( 16-S , 17-C ) :   1.1695 B( 16-S , 20-C ) :   1.1334 B( 17-C , 18-C ) :   1.5791
B( 17-C , 20-C ) :   0.1024 B( 17-C , 33-H ) :   0.9647 B( 18-C , 19-C ) :   1.2675
B( 18-C , 21-H ) :   0.9955 B( 19-C , 20-C ) :   1.5622 B( 19-C , 22-C ) :   1.0504
B( 22-C , 23-H ) :   0.9360 B( 22-C , 24-H ) :   0.9315 B( 22-C , 25-C ) :   1.0490
B( 25-C , 26-H ) :   0.9539 B( 25-C , 27-H ) :   0.9647 B( 25-C , 28-C ) :   1.0682
B( 28-C , 29-H ) :   0.9808 B( 28-C , 30-H ) :   0.9758 B( 28-C , 31-H ) :   0.9744

Dispersion correction           -0.014743750
FINAL SINGLE POINT ENERGY     -1339.884197464215

DIPOLE MOMENT
-------------
                                X             Y             Z
Electronic contribution:    -24.51221      14.05463     -13.27913
Nuclear contribution   :     24.80990     -14.47445      13.64407
                        -----------------------------------------
Total Dipole Moment    :      0.29769      -0.41983       0.36494
                        -----------------------------------------
Magnitude (a.u.)       :      0.63092
Magnitude (Debye)      :      1.60366

Rotational constants in cm-1:     0.018858     0.009511     0.007000
Rotational constants in MHz :   565.350668   285.126969   209.849969

                             ****ORCA TERMINATED NORMALLY****
TOTAL RUN TIME: 0 days 0 hours 0 minutes 34 seconds 579 msec
