                         Program Version 4.2.1 -  RELEASE  -
|  1> ! wB97X-D3 SP def2-SVP
|  2> %pal
|  3> nprocs 16
|  4> end
|  5>
|  6> * xyz 0 1
|  7> S 	 6.64906 	 17.9017 	 50.3386
|  8> C 	 7.37338 	 16.3985 	 50.7825
|  9> C 	 8.40445 	 16.5503 	 51.6872
| 10> C 	 8.66833 	 17.9172 	 51.9989
| 11> C 	 7.83649 	 18.7763 	 51.2964
| 12> H 	 9.46274 	 18.2672 	 52.6807
| 13> C 	 9.12488 	 15.4311 	 52.3325
| 14> H 	 8.63552 	 14.436 	 52.2001
| 15> H 	 8.88901 	 15.6486 	 53.3799
| 16> C 	 10.5947 	 15.4705 	 52.1727
| 17> H 	 10.8088 	 15.0287 	 51.1826
| 18> H 	 10.9706 	 16.489 	 52.1914
| 19> C 	 11.4127 	 14.5765 	 53.1328
| 20> H 	 12.464 	 14.6449 	 52.8725
| 21> H 	 11.1289 	 14.8938 	 54.183
| 22> H 	 11.1059 	 13.5313 	 53.0401
| 23> S 	 9.06092 	 20.9844 	 50.2612
| 24> C 	 8.30015 	 22.5697 	 50.3959
| 25> C 	 7.33142 	 22.4931 	 51.4369
| 26> C 	 7.0174 	 21.1772 	 51.8661
| 27> C 	 7.81711 	 20.2431 	 51.2516
| 28> H 	 6.90306 	 23.4359 	 51.7299
| 29> C 	 5.75352 	 20.7725 	 52.5936
| 30> H 	 5.49791 	 21.3702 	 53.4855
| 31> H 	 5.83234 	 19.7296 	 52.8358
| 32> C 	 4.56032 	 20.8353 	 51.6641
| 33> H 	 4.70966 	 20.1303 	 50.8703
| 34> H 	 4.44618 	 21.7581 	 51.1583
| 35> C 	 3.27285 	 20.5521 	 52.2573
| 36> H 	 3.03223 	 19.4604 	 52.2456
| 37> H 	 2.4432 	 20.9311 	 51.6359
| 38> H 	 3.17685 	 20.9472 	 53.304
| 39> H 	 6.93906 	 15.5088 	 50.3528
| 40> H 	 8.71286 	 23.4215 	 49.8611
| 41> *
| 42>
| 43>                          ****END OF INPUT****

CARTESIAN COORDINATES (ANGSTROEM)
---------------------------------
  S      6.649060   17.901700   50.338600
  C      7.373380   16.398500   50.782500
  C      8.404450   16.550300   51.687200
  C      8.668330   17.917200   51.998900
  C      7.836490   18.776300   51.296400
  H      9.462740   18.267200   52.680700
  C      9.124880   15.431100   52.332500
  H      8.635520   14.436000   52.200100
  H      8.889010   15.648600   53.379900
  C     10.594700   15.470500   52.172700
  H     10.808800   15.028700   51.182600
  H     10.970600   16.489000   52.191400
  C     11.412700   14.576500   53.132800
  H     12.464000   14.644900   52.872500
  H     11.128900   14.893800   54.183000
  H     11.105900   13.531300   53.040100
  S      9.060920   20.984400   50.261200
  C      8.300150   22.569700   50.395900
  C      7.331420   22.493100   51.436900
  C      7.017400   21.177200   51.866100
  C      7.817110   20.243100   51.251600
  H      6.903060   23.435900   51.729900
  C      5.753520   20.772500   52.593600
  H      5.497910   21.370200   53.485500
  H      5.832340   19.729600   52.835800
  C      4.560320   20.835300   51.664100
  H      4.709660   20.130300   50.870300
  H      4.446180   21.758100   51.158300
  C      3.272850   20.552100   52.257300
  H      3.032230   19.460400   52.245600
  H      2.443200   20.931100   51.635900
  H      3.176850   20.947200   53.304000
  H      6.939060   15.508800   50.352800
  H      8.712860   23.421500   49.861100

 Total Charge           Charge          ....    0
 Multiplicity           Mult            ....    1
 Number of Electrons    NEL             ....  134
 Basis Dimension        Dim             ....  322

ORBITAL ENERGIES
----------------

  NO   OCC          E(Eh)            E(eV)
   0   2.0000     -88.964560     -2420.8487
   1   2.0000     -88.961237     -2420.7583
   2   2.0000     -10.330681      -281.1121
   3   2.0000     -10.322545      -280.8907
   4   2.0000     -10.322516      -280.8899
   5   2.0000     -10.310300      -280.5575
   6   2.0000     -10.302660      -280.3496
   7   2.0000     -10.300254      -280.2841
   8   2.0000     -10.299508      -280.2639
   9   2.0000     -10.298390      -280.2334
  10   2.0000     -10.289264      -279.9851
  11   2.0000     -10.287276      -279.9310
  12   2.0000     -10.283992      -279.8417
  13   2.0000     -10.283652      -279.8324
  14   2.0000     -10.273484      -279.5557
  15   2.0000     -10.265669      -279.3431
  16   2.0000      -8.079500      -219.8544
  17   2.0000      -8.075941      -219.7575
  18   2.0000      -6.037834      -164.2978
  19   2.0000      -6.034348      -164.2030
  20   2.0000      -6.033981      -164.1930
  21   2.0000      -6.030455      -164.0970
  22   2.0000      -6.030430      -164.0963
  23   2.0000      -6.026835      -163.9985
  24   2.0000      -1.006851       -27.3978
  25   2.0000      -0.984515       -26.7900
  26   2.0000      -0.920576       -25.0501
  27   2.0000      -0.918481       -24.9931
  28   2.0000      -0.866465       -23.5777
  29   2.0000      -0.853675       -23.2297
  30   2.0000      -0.850976       -23.1562
  31   2.0000      -0.812735       -22.1157
  32   2.0000      -0.781814       -21.2742
  33   2.0000      -0.769654       -20.9434
  34   2.0000      -0.704336       -19.1660
  35   2.0000      -0.690306       -18.7842
  36   2.0000      -0.689293       -18.7566
  37   2.0000      -0.664431       -18.0801
  38   2.0000      -0.646384       -17.5890
  39   2.0000      -0.624364       -16.9898
  40   2.0000      -0.598826       -16.2949
  41   2.0000      -0.574253       -15.6262
  42   2.0000      -0.566922       -15.4267
  43   2.0000      -0.560107       -15.2413
  44   2.0000      -0.533393       -14.5144
  45   2.0000      -0.525248       -14.2927
  46   2.0000      -0.517955       -14.0943
  47   2.0000      -0.514942       -14.0123
  48   2.0000      -0.512396       -13.9430
  49   2.0000      -0.504194       -13.7198
  50   2.0000      -0.488888       -13.3033
  51   2.0000      -0.475970       -12.9518
  52   2.0000      -0.466587       -12.6965
  53   2.0000      -0.464747       -12.6464
  54   2.0000      -0.457545       -12.4504
  55   2.0000      -0.450703       -12.2642
  56   2.0000      -0.444065       -12.0836
  57   2.0000      -0.440835       -11.9957
  58   2.0000      -0.431616       -11.7449
  59   2.0000      -0.425626       -11.5819
  60   2.0000      -0.421514       -11.4700
  61   2.0000      -0.406600       -11.0642
  62   2.0000      -0.403096       -10.9688
  63   2.0000      -0.335510        -9.1297
  64   2.0000      -0.329627        -8.9696
  65   2.0000      -0.321253        -8.7417
  66   2.0000      -0.303695        -8.2640
  67   0.0000       0.044715         1.2168
  68   0.0000       0.052313         1.4235
  69   0.0000       0.106360         2.8942
  70   0.0000       0.119211         3.2439
  71   0.0000       0.129961         3.5364

MULLIKEN ATOMIC CHARGES
-----------------------
   0 S :    0.105365
   1 C :   -0.136021
   2 C :   -0.066061
   3 C :    0.033045
   4 C :   -0.180390
   5 H :    0.032227
   6 C :    0.080624
   7 H :    0.025063
   8 H :    0.020727
   9 C :   -0.094048
  10 H :    0.027276
  11 H :    0.034259
  12 C :   -0.049861
  13 H :    0.045778
  14 H :    0.033269
  15 H :    0.029243
  16 S :    0.107262
  17 C :   -0.119581
  18 C :   -0.043080
  19 C :    0.034594
  20 C :   -0.194148
  21 H :    0.018329
  22 C :    0.084849
  23 H :    0.023978
  24 H :    0.023867
  25 C :   -0.046025
  26 H :    0.006004
  27 H :    0.009947
  28 C :   -0.051775
  29 H :    0.029374
  30 H :    0.029011
  31 H :    0.031751
  32 H :    0.046143
  33 H :    0.069004
Sum of atomic charges:   -0.0000000

LOEWDIN ATOMIC CHARGES
----------------------
   0 S :    0.414652
   1 C :   -0.202240
   2 C :   -0.062081
   3 C :   -0.060679
   4 C :   -0.191621
   5 H :    0.040263
   6 C :   -0.040674
   7 H :    0.034750
   8 H :    0.034009
   9 C :   -0.045899
  10 H :    0.028101
  11 H :    0.024247
  12 C :   -0.064395
  13 H :    0.028385
  14 H :    0.027261
  15 H :    0.023755
  16 S :    0.400363
  17 C :   -0.181912
  18 C :   -0.065682
  19 C :   -0.054347
  20 C :   -0.203533
  21 H :    0.028235
  22 C :   -0.022685
  23 H :    0.030584
  24 H :    0.028931
  25 C :   -0.049880
  26 H :    0.016860
  27 H :    0.018073
  28 C :   -0.070411
  29 H :    0.027399
  30 H :    0.029905
  31 H :    0.026512
  32 H :    0.023866
  33 H :    0.029886

  Mayer bond orders larger than 0.100000
B(  0-S ,  1-C ) :   1.1420 B(  0-S ,  4-C ) :   1.1682 B(  1-C ,  2-C ) :   1.5992
B(  1-C , 32-H ) :   0.9762 B(  2-C ,  3-C ) :   1.2305 B(  2-C ,  6-C ) :   1.0194
B(  3-C ,  4-C ) :   1.5956 B(  3-C ,  5-H ) :   0.9882 B(  4-C , 20-C ) :   0.9874
B(  6-C ,  7-H ) :   0.9412 B(  6-C ,  8-H ) :   0.9295 B(  6-C ,  9-C ) :   1.0596
B(  9-C , 10-H ) :   0.9489 B(  9-C , 11-H ) :   0.9582 B(  9-C , 12-C ) :   1.0809
B( 12-C , 13-H ) :   0.9748 B( 12-C , 14-H ) :   0.9759 B( 12-C , 15-H ) :   0.9742
B( 16-S , 17-C ) :   1.1621 B( 16-S , 20-C ) :   1.1579 B( 17-C , 18-C ) :   1.5824
B( 17-C , 20-C ) :   0.1115 B( 17-C , 33-H ) :   0.9725 B( 18-C , 19-C ) :   1.2205
B( 18-C , 21-H ) :   0.9957 B( 19-C , 20-C ) :   1.5926 B( 19-C , 22-C ) :   1.0713
B( 22-C , 23-H ) :   0.9301 B( 22-C , 24-H ) :   0.9247 B( 22-C , 25-C ) :   1.0701
B( 25-C , 26-H ) :   0.9381 B( 25-C , 27-H ) :   0.9546 B( 25-C , 28-C ) :   1.1013
B( 28-C , 29-H ) :   0.9719 B( 28-C , 30-H ) :   0.9694 B( 28-C , 31-H ) :   0.9691

Dispersion correction           -0.014289547
FINAL SINGLE POINT ENERGY     -1339.879810822889

DIPOLE MOMENT
-------------
                                X             Y             Z
Electronic contribution:      3.35973      10.74083     -12.49946
Nuclear contribution   :     -3.40394     -10.89446      12.74584
                        -----------------------------------------
Total Dipole Moment    :     -0.04421      -0.15363       0.24638
                        -----------------------------------------
Magnitude (a.u.)       :      0.29370
Magnitude (Debye)      :      0.74652

Rotational constants in cm-1:     0.021056     0.007909     0.006543
Rotational constants in MHz :   631.255626   237.100103   196.158272

                             ****ORCA TERMINATED NORMALLY****
TOTAL RUN TIME: 0 days 0 hours 0 minutes 33 seconds 224 msec
