                         Program Version 4.2.1 -  RELEASE  -
|  1> ! wB97X-D3 SP def2-SVP
|  2> %pal
|  3> nprocs 16
|  4> end
|  5>
|  6> * xyz 0 1
|  7> S 	 -44.6614 	 17.8553 	 75.1163
|  8> C 	 -42.9524 	 18.0031 	 75.5199
|  9> C 	 -42.2741 	 16.7964 	 75.4873
| 10> C 	 -43.1779 	 15.7514 	 75.1639
| 11> C 	 -44.5045 	 16.1062 	 74.9609
| 12> H 	 -42.8663 	 14.7796 	 74.9702
| 13> C 	 -40.7779 	 16.5926 	 75.7114
| 14> H 	 -40.4801 	 17.5722 	 75.9553
| 15> H 	 -40.2733 	 16.3959 	 74.7996
| 16> C 	 -40.2866 	 15.5616 	 76.7974
| 17> H 	 -40.667 	 15.9145 	 77.765
| 18> H 	 -40.6753 	 14.6137 	 76.5622
| 19> C 	 -38.7551 	 15.2465 	 76.8106
| 20> H 	 -38.3488 	 14.5261 	 77.5502
| 21> H 	 -38.5865 	 14.8337 	 75.7814
| 22> H 	 -38.1014 	 16.1493 	 76.8704
| 23> S 	 -45.8507 	 13.6603 	 75.3675
| 24> C 	 -47.2719 	 13.3581 	 74.4782
| 25> C 	 -47.6897 	 14.4081 	 73.7329
| 26> C 	 -46.7811 	 15.4982 	 73.7743
| 27> C 	 -45.6507 	 15.2558 	 74.502
| 28> H 	 -48.6221 	 14.3605 	 73.1687
| 29> C 	 -47.0477 	 16.6523 	 72.8589
| 30> H 	 -47.0296 	 17.615 	 73.3554
| 31> H 	 -48.0719 	 16.6528 	 72.4696
| 32> C 	 -45.977 	 16.6912 	 71.7493
| 33> H 	 -45.7732 	 15.6502 	 71.3119
| 34> H 	 -44.9783 	 16.8405 	 72.2362
| 35> C 	 -46.2025 	 17.746 	 70.702
| 36> H 	 -47.2112 	 17.7068 	 70.4623
| 37> H 	 -45.5773 	 17.7108 	 69.7717
| 38> H 	 -46.0829 	 18.7833 	 71.1022
| 39> H 	 -42.3933 	 18.8749 	 75.4707
| 40> H 	 -47.8248 	 12.424 	 74.5691
| 41> *
| 42>
| 43>                          ****END OF INPUT****

CARTESIAN COORDINATES (ANGSTROEM)
---------------------------------
  S    -44.661400   17.855300   75.116300
  C    -42.952400   18.003100   75.519900
  C    -42.274100   16.796400   75.487300
  C    -43.177900   15.751400   75.163900
  C    -44.504500   16.106200   74.960900
  H    -42.866300   14.779600   74.970200
  C    -40.777900   16.592600   75.711400
  H    -40.480100   17.572200   75.955300
  H    -40.273300   16.395900   74.799600
  C    -40.286600   15.561600   76.797400
  H    -40.667000   15.914500   77.765000
  H    -40.675300   14.613700   76.562200
  C    -38.755100   15.246500   76.810600
  H    -38.348800   14.526100   77.550200
  H    -38.586500   14.833700   75.781400
  H    -38.101400   16.149300   76.870400
  S    -45.850700   13.660300   75.367500
  C    -47.271900   13.358100   74.478200
  C    -47.689700   14.408100   73.732900
  C    -46.781100   15.498200   73.774300
  C    -45.650700   15.255800   74.502000
  H    -48.622100   14.360500   73.168700
  C    -47.047700   16.652300   72.858900
  H    -47.029600   17.615000   73.355400
  H    -48.071900   16.652800   72.469600
  C    -45.977000   16.691200   71.749300
  H    -45.773200   15.650200   71.311900
  H    -44.978300   16.840500   72.236200
  C    -46.202500   17.746000   70.702000
  H    -47.211200   17.706800   70.462300
  H    -45.577300   17.710800   69.771700
  H    -46.082900   18.783300   71.102200
  H    -42.393300   18.874900   75.470700
  H    -47.824800   12.424000   74.569100

 Total Charge           Charge          ....    0
 Multiplicity           Mult            ....    1
 Number of Electrons    NEL             ....  134
 Basis Dimension        Dim             ....  322

ORBITAL ENERGIES
----------------

  NO   OCC          E(Eh)            E(eV)
   0   2.0000     -88.969493     -2420.9830
   1   2.0000     -88.963972     -2420.8328
   2   2.0000     -10.336108      -281.2598
   3   2.0000     -10.333158      -281.1795
   4   2.0000     -10.313511      -280.6449
   5   2.0000     -10.310837      -280.5722
   6   2.0000     -10.302820      -280.3540
   7   2.0000     -10.302740      -280.3518
   8   2.0000     -10.292304      -280.0678
   9   2.0000     -10.291746      -280.0526
  10   2.0000     -10.291069      -280.0342
  11   2.0000     -10.290275      -280.0126
  12   2.0000     -10.289788      -279.9994
  13   2.0000     -10.288258      -279.9577
  14   2.0000     -10.287612      -279.9401
  15   2.0000     -10.273487      -279.5558
  16   2.0000      -8.083232      -219.9559
  17   2.0000      -8.078767      -219.8344
  18   2.0000      -6.041811      -164.4060
  19   2.0000      -6.037905      -164.2998
  20   2.0000      -6.037262      -164.2822
  21   2.0000      -6.033965      -164.1925
  22   2.0000      -6.033369      -164.1763
  23   2.0000      -6.029437      -164.0693
  24   2.0000      -1.005468       -27.3602
  25   2.0000      -0.986629       -26.8475
  26   2.0000      -0.911991       -24.8165
  27   2.0000      -0.906211       -24.6593
  28   2.0000      -0.866210       -23.5708
  29   2.0000      -0.853356       -23.2210
  30   2.0000      -0.846564       -23.0362
  31   2.0000      -0.815752       -22.1977
  32   2.0000      -0.785100       -21.3636
  33   2.0000      -0.773864       -21.0579
  34   2.0000      -0.710188       -19.3252
  35   2.0000      -0.699728       -19.0406
  36   2.0000      -0.690440       -18.7878
  37   2.0000      -0.666854       -18.1460
  38   2.0000      -0.638670       -17.3791
  39   2.0000      -0.621701       -16.9173
  40   2.0000      -0.603095       -16.4111
  41   2.0000      -0.574221       -15.6253
  42   2.0000      -0.563229       -15.3262
  43   2.0000      -0.554322       -15.0839
  44   2.0000      -0.524901       -14.2833
  45   2.0000      -0.520025       -14.1506
  46   2.0000      -0.516896       -14.0654
  47   2.0000      -0.508843       -13.8463
  48   2.0000      -0.506239       -13.7755
  49   2.0000      -0.502720       -13.6797
  50   2.0000      -0.490601       -13.3499
  51   2.0000      -0.478920       -13.0321
  52   2.0000      -0.469821       -12.7845
  53   2.0000      -0.464210       -12.6318
  54   2.0000      -0.457956       -12.4616
  55   2.0000      -0.452990       -12.3265
  56   2.0000      -0.447825       -12.1859
  57   2.0000      -0.434666       -11.8279
  58   2.0000      -0.431758       -11.7487
  59   2.0000      -0.428601       -11.6628
  60   2.0000      -0.425295       -11.5729
  61   2.0000      -0.419662       -11.4196
  62   2.0000      -0.400001       -10.8846
  63   2.0000      -0.351144        -9.5551
  64   2.0000      -0.333717        -9.0809
  65   2.0000      -0.332747        -9.0545
  66   2.0000      -0.291336        -7.9277
  67   0.0000       0.022838         0.6214
  68   0.0000       0.079299         2.1578
  69   0.0000       0.102087         2.7779
  70   0.0000       0.113713         3.0943
  71   0.0000       0.132820         3.6142

MULLIKEN ATOMIC CHARGES
-----------------------
   0 S :    0.101215
   1 C :   -0.085858
   2 C :   -0.114826
   3 C :    0.038152
   4 C :   -0.135819
   5 H :   -0.018069
   6 C :    0.122783
   7 H :   -0.007541
   8 H :    0.021227
   9 C :   -0.052458
  10 H :    0.039709
  11 H :    0.025504
  12 C :   -0.096267
  13 H :    0.054539
  14 H :    0.030152
  15 H :    0.034735
  16 S :    0.094341
  17 C :   -0.079435
  18 C :   -0.037202
  19 C :   -0.038456
  20 C :   -0.132326
  21 H :    0.021839
  22 C :    0.064209
  23 H :    0.023208
  24 H :    0.014695
  25 C :   -0.114129
  26 H :    0.037712
  27 H :    0.038474
  28 C :   -0.010678
  29 H :    0.004910
  30 H :    0.046091
  31 H :    0.025979
  32 H :    0.025327
  33 H :    0.058262
Sum of atomic charges:    0.0000000

LOEWDIN ATOMIC CHARGES
----------------------
   0 S :    0.404540
   1 C :   -0.186368
   2 C :   -0.055216
   3 C :   -0.059514
   4 C :   -0.184408
   5 H :    0.016570
   6 C :   -0.022741
   7 H :    0.023057
   8 H :    0.026904
   9 C :   -0.031178
  10 H :    0.025741
  11 H :    0.017916
  12 C :   -0.075477
  13 H :    0.033076
  14 H :    0.028629
  15 H :    0.024058
  16 S :    0.393438
  17 C :   -0.187285
  18 C :   -0.077320
  19 C :   -0.054557
  20 C :   -0.173933
  21 H :    0.036004
  22 C :   -0.034037
  23 H :    0.024523
  24 H :    0.028319
  25 C :   -0.050130
  26 H :    0.030877
  27 H :    0.025596
  28 C :   -0.070194
  29 H :    0.012593
  30 H :    0.034587
  31 H :    0.029767
  32 H :    0.014633
  33 H :    0.031533

  Mayer bond orders larger than 0.100000
B(  0-S ,  1-C ) :   1.1394 B(  0-S ,  4-C ) :   1.1389 B(  1-C ,  2-C ) :   1.6259
B(  1-C , 32-H ) :   0.9600 B(  2-C ,  3-C ) :   1.2502 B(  2-C ,  6-C ) :   1.0212
B(  3-C ,  4-C ) :   1.5626 B(  3-C ,  5-H ) :   1.0032 B(  4-C , 20-C ) :   1.0430
B(  6-C ,  7-H ) :   0.9287 B(  6-C ,  8-H ) :   0.9350 B(  6-C ,  9-C ) :   1.0530
B(  9-C , 10-H ) :   0.9605 B(  9-C , 11-H ) :   0.9607 B(  9-C , 12-C ) :   1.0650
B( 12-C , 13-H ) :   0.9770 B( 12-C , 14-H ) :   0.9749 B( 12-C , 15-H ) :   0.9791
B( 16-S , 17-C ) :   1.1670 B( 16-S , 20-C ) :   1.1129 B( 17-C , 18-C ) :   1.6166
B( 17-C , 33-H ) :   0.9609 B( 18-C , 19-C ) :   1.2327 B( 18-C , 21-H ) :   0.9932
B( 19-C , 20-C ) :   1.6059 B( 19-C , 22-C ) :   1.0527 B( 22-C , 23-H ) :   0.9246
B( 22-C , 24-H ) :   0.9359 B( 22-C , 25-C ) :   1.0512 B( 25-C , 26-H ) :   0.9562
B( 25-C , 27-H ) :   0.9489 B( 25-C , 28-C ) :   1.0804 B( 28-C , 29-H ) :   0.9724
B( 28-C , 30-H ) :   0.9730 B( 28-C , 31-H ) :   0.9693

Dispersion correction           -0.014129360
FINAL SINGLE POINT ENERGY     -1339.873236842422

DIPOLE MOMENT
-------------
                                X             Y             Z
Electronic contribution:    -15.34515      -4.31660       8.23448
Nuclear contribution   :     15.53223       4.28888      -8.57696
                        -----------------------------------------
Total Dipole Moment    :      0.18707      -0.02772      -0.34248
                        -----------------------------------------
Magnitude (a.u.)       :      0.39123
Magnitude (Debye)      :      0.99442

Rotational constants in cm-1:     0.019893     0.007870     0.006325
Rotational constants in MHz :   596.363545   235.949525   189.614771

                             ****ORCA TERMINATED NORMALLY****
TOTAL RUN TIME: 0 days 0 hours 0 minutes 29 seconds 44 msec
