                         Program Version 4.2.1 -  RELEASE  -
|  1> ! wB97X-D3 SP def2-SVP
|  2> %pal
|  3> nprocs 16
|  4> end
|  5>
|  6> * xyz 0 1
|  7> S 	 -97.8691 	 49.8719 	 125.747
|  8> C 	 -96.4252 	 50.2853 	 124.802
|  9> C 	 -96.5943 	 51.4467 	 124.058
| 10> C 	 -98.0189 	 51.7498 	 123.937
| 11> C 	 -98.7855 	 51.0336 	 124.789
| 12> H 	 -98.3739 	 52.6717 	 123.319
| 13> C 	 -95.4994 	 52.2002 	 123.301
| 14> H 	 -94.7583 	 52.4293 	 124.056
| 15> H 	 -95.9461 	 53.1918 	 123.225
| 16> C 	 -95.0703 	 51.5907 	 121.932
| 17> H 	 -94.7474 	 50.5624 	 122.26
| 18> H 	 -95.9477 	 51.413 	 121.354
| 19> C 	 -94.2973 	 52.4706 	 120.986
| 20> H 	 -93.4134 	 52.9431 	 121.456
| 21> H 	 -93.9968 	 51.8371 	 120.13
| 22> H 	 -95.0028 	 53.0989 	 120.519
| 23> S 	 -100.467 	 52.8522 	 125.9
| 24> C 	 -102.153 	 52.7486 	 125.514
| 25> C 	 -102.502 	 51.5279 	 124.975
| 26> C 	 -101.38 	 50.6948 	 124.752
| 27> C 	 -100.18 	 51.3176 	 125.122
| 28> H 	 -103.604 	 51.354 	 124.785
| 29> C 	 -101.562 	 49.458 	 123.907
| 30> H 	 -100.517 	 49.0523 	 123.893
| 31> H 	 -101.895 	 49.7491 	 122.93
| 32> C 	 -102.602 	 48.5012 	 124.483
| 33> H 	 -103.625 	 48.832 	 124.633
| 34> H 	 -102.166 	 48.2523 	 125.446
| 35> C 	 -102.706 	 47.2509 	 123.581
| 36> H 	 -103.613 	 46.6939 	 124.085
| 37> H 	 -101.862 	 46.6565 	 123.375
| 38> H 	 -102.964 	 47.4712 	 122.521
| 39> H 	 -95.4048 	 50.0163 	 125.001
| 40> H 	 -102.939 	 53.4978 	 125.795
| 41> *
| 42>
| 43>                          ****END OF INPUT****

CARTESIAN COORDINATES (ANGSTROEM)
---------------------------------
  S    -97.869100   49.871900  125.747000
  C    -96.425200   50.285300  124.802000
  C    -96.594300   51.446700  124.058000
  C    -98.018900   51.749800  123.937000
  C    -98.785500   51.033600  124.789000
  H    -98.373900   52.671700  123.319000
  C    -95.499400   52.200200  123.301000
  H    -94.758300   52.429300  124.056000
  H    -95.946100   53.191800  123.225000
  C    -95.070300   51.590700  121.932000
  H    -94.747400   50.562400  122.260000
  H    -95.947700   51.413000  121.354000
  C    -94.297300   52.470600  120.986000
  H    -93.413400   52.943100  121.456000
  H    -93.996800   51.837100  120.130000
  H    -95.002800   53.098900  120.519000
  S    -100.467000   52.852200  125.900000
  C    -102.153000   52.748600  125.514000
  C    -102.502000   51.527900  124.975000
  C    -101.380000   50.694800  124.752000
  C    -100.180000   51.317600  125.122000
  H    -103.604000   51.354000  124.785000
  C    -101.562000   49.458000  123.907000
  H    -100.517000   49.052300  123.893000
  H    -101.895000   49.749100  122.930000
  C    -102.602000   48.501200  124.483000
  H    -103.625000   48.832000  124.633000
  H    -102.166000   48.252300  125.446000
  C    -102.706000   47.250900  123.581000
  H    -103.613000   46.693900  124.085000
  H    -101.862000   46.656500  123.375000
  H    -102.964000   47.471200  122.521000
  H    -95.404800   50.016300  125.001000
  H    -102.939000   53.497800  125.795000

 Total Charge           Charge          ....    0
 Multiplicity           Mult            ....    1
 Number of Electrons    NEL             ....  134
 Basis Dimension        Dim             ....  322

ORBITAL ENERGIES
----------------

  NO   OCC          E(Eh)            E(eV)
   0   2.0000     -88.967383     -2420.9256
   1   2.0000     -88.965039     -2420.8618
   2   2.0000     -10.326779      -281.0059
   3   2.0000     -10.322816      -280.8981
   4   2.0000     -10.316479      -280.7257
   5   2.0000     -10.311595      -280.5928
   6   2.0000     -10.302371      -280.3418
   7   2.0000     -10.300252      -280.2841
   8   2.0000     -10.300129      -280.2808
   9   2.0000     -10.292965      -280.0858
  10   2.0000     -10.292642      -280.0770
  11   2.0000     -10.290769      -280.0261
  12   2.0000     -10.287696      -279.9424
  13   2.0000     -10.285912      -279.8939
  14   2.0000     -10.282166      -279.7920
  15   2.0000     -10.281961      -279.7864
  16   2.0000      -8.081330      -219.9042
  17   2.0000      -8.080114      -219.8711
  18   2.0000      -6.039940      -164.3551
  19   2.0000      -6.038511      -164.3162
  20   2.0000      -6.036128      -164.2514
  21   2.0000      -6.034587      -164.2095
  22   2.0000      -6.031834      -164.1345
  23   2.0000      -6.030958      -164.1107
  24   2.0000      -1.005758       -27.3681
  25   2.0000      -0.981560       -26.7096
  26   2.0000      -0.911398       -24.8004
  27   2.0000      -0.910160       -24.7667
  28   2.0000      -0.869006       -23.6469
  29   2.0000      -0.850495       -23.1431
  30   2.0000      -0.846588       -23.0368
  31   2.0000      -0.812505       -22.1094
  32   2.0000      -0.782887       -21.3034
  33   2.0000      -0.766765       -20.8647
  34   2.0000      -0.704458       -19.1693
  35   2.0000      -0.702911       -19.1272
  36   2.0000      -0.693624       -18.8745
  37   2.0000      -0.653468       -17.7818
  38   2.0000      -0.629555       -17.1311
  39   2.0000      -0.613258       -16.6876
  40   2.0000      -0.590162       -16.0591
  41   2.0000      -0.571157       -15.5420
  42   2.0000      -0.564222       -15.3533
  43   2.0000      -0.560918       -15.2634
  44   2.0000      -0.531239       -14.4557
  45   2.0000      -0.528528       -14.3820
  46   2.0000      -0.512658       -13.9501
  47   2.0000      -0.508267       -13.8306
  48   2.0000      -0.498007       -13.5515
  49   2.0000      -0.494703       -13.4616
  50   2.0000      -0.489281       -13.3140
  51   2.0000      -0.474433       -12.9100
  52   2.0000      -0.470332       -12.7984
  53   2.0000      -0.460797       -12.5389
  54   2.0000      -0.454998       -12.3811
  55   2.0000      -0.450169       -12.2497
  56   2.0000      -0.442063       -12.0292
  57   2.0000      -0.436913       -11.8890
  58   2.0000      -0.435175       -11.8417
  59   2.0000      -0.424815       -11.5598
  60   2.0000      -0.422036       -11.4842
  61   2.0000      -0.408348       -11.1117
  62   2.0000      -0.404090       -10.9958
  63   2.0000      -0.337929        -9.1955
  64   2.0000      -0.327054        -8.8996
  65   2.0000      -0.324642        -8.8340
  66   2.0000      -0.304154        -8.2764
  67   0.0000       0.039907         1.0859
  68   0.0000       0.059181         1.6104
  69   0.0000       0.101636         2.7656
  70   0.0000       0.119257         3.2452
  71   0.0000       0.126102         3.4314

MULLIKEN ATOMIC CHARGES
-----------------------
   0 S :    0.113386
   1 C :   -0.085384
   2 C :   -0.181344
   3 C :    0.015140
   4 C :   -0.162498
   5 H :    0.053254
   6 C :    0.072772
   7 H :    0.026150
   8 H :    0.001690
   9 C :   -0.059500
  10 H :    0.032048
  11 H :    0.017769
  12 C :   -0.011589
  13 H :    0.048490
  14 H :    0.034291
  15 H :    0.025606
  16 S :    0.126529
  17 C :   -0.118431
  18 C :   -0.066582
  19 C :   -0.005769
  20 C :   -0.188424
  21 H :    0.042911
  22 C :    0.078571
  23 H :    0.037224
  24 H :    0.027535
  25 C :   -0.088177
  26 H :    0.038448
  27 H :    0.032591
  28 C :   -0.058513
  29 H :    0.047244
  30 H :    0.025427
  31 H :    0.021195
  32 H :    0.039087
  33 H :    0.068855
Sum of atomic charges:    0.0000000

LOEWDIN ATOMIC CHARGES
----------------------
   0 S :    0.389242
   1 C :   -0.195994
   2 C :   -0.058014
   3 C :   -0.070280
   4 C :   -0.200348
   5 H :    0.049692
   6 C :   -0.040459
   7 H :    0.030406
   8 H :    0.026783
   9 C :   -0.043761
  10 H :    0.028678
  11 H :    0.025901
  12 C :   -0.061694
  13 H :    0.029050
  14 H :    0.036269
  15 H :    0.024403
  16 S :    0.421569
  17 C :   -0.199160
  18 C :   -0.084621
  19 C :   -0.055693
  20 C :   -0.212959
  21 H :    0.042916
  22 C :   -0.029126
  23 H :    0.037158
  24 H :    0.026902
  25 C :   -0.039613
  26 H :    0.025301
  27 H :    0.028047
  28 C :   -0.074064
  29 H :    0.039804
  30 H :    0.017052
  31 H :    0.025219
  32 H :    0.023419
  33 H :    0.037970

  Mayer bond orders larger than 0.100000
B(  0-S ,  1-C ) :   1.1186 B(  0-S ,  4-C ) :   1.1303 B(  1-C ,  2-C ) :   1.6590
B(  1-C , 32-H ) :   0.9610 B(  2-C ,  3-C ) :   1.2073 B(  2-C ,  6-C ) :   1.0262
B(  3-C ,  4-C ) :   1.6298 B(  3-C ,  5-H ) :   0.9740 B(  4-C , 20-C ) :   1.0071
B(  6-C ,  7-H ) :   0.9344 B(  6-C ,  8-H ) :   0.9321 B(  6-C ,  9-C ) :   1.0431
B(  9-C , 10-H ) :   0.9583 B(  9-C , 11-H ) :   0.9561 B(  9-C , 12-C ) :   1.0731
B( 12-C , 13-H ) :   0.9773 B( 12-C , 14-H ) :   0.9682 B( 12-C , 15-H ) :   0.9724
B( 16-S , 17-C ) :   1.1642 B( 16-S , 20-C ) :   1.1526 B( 17-C , 18-C ) :   1.6257
B( 17-C , 33-H ) :   0.9572 B( 18-C , 19-C ) :   1.2374 B( 18-C , 21-H ) :   0.9798
B( 19-C , 20-C ) :   1.5768 B( 19-C , 22-C ) :   1.0492 B( 22-C , 23-H ) :   0.9328
B( 22-C , 24-H ) :   0.9369 B( 22-C , 25-C ) :   1.0539 B( 25-C , 26-H ) :   0.9595
B( 25-C , 27-H ) :   0.9545 B( 25-C , 28-C ) :   1.0751 B( 28-C , 29-H ) :   0.9770
B( 28-C , 30-H ) :   0.9755 B( 28-C , 31-H ) :   0.9700

Dispersion correction           -0.013549572
FINAL SINGLE POINT ENERGY     -1339.845108814682

DIPOLE MOMENT
-------------
                                X             Y             Z
Electronic contribution:     -3.24974       7.62240      19.07916
Nuclear contribution   :      3.23262      -7.39425     -19.58007
                        -----------------------------------------
Total Dipole Moment    :     -0.01712       0.22815      -0.50092
                        -----------------------------------------
Magnitude (a.u.)       :      0.55069
Magnitude (Debye)      :      1.39975

Rotational constants in cm-1:     0.019552     0.007043     0.006239
Rotational constants in MHz :   586.167142   211.145962   187.034919

                             ****ORCA TERMINATED NORMALLY****
TOTAL RUN TIME: 0 days 0 hours 0 minutes 31 seconds 823 msec
