                         Program Version 4.2.1 -  RELEASE  -
|  1> ! wB97X-D3 SP def2-SVP
|  2> %pal
|  3> nprocs 16
|  4> end
|  5>
|  6> * xyz 0 1
|  7> S 	 10.8939 	 -15.471 	 90.2728
|  8> C 	 11.3531 	 -15.7302 	 88.6507
|  9> C 	 10.392 	 -15.2929 	 87.7144
| 10> C 	 9.20565 	 -14.88 	 88.4042
| 11> C 	 9.39571 	 -14.7087 	 89.7833
| 12> H 	 8.25026 	 -14.4818 	 87.9649
| 13> C 	 10.4907 	 -15.5724 	 86.1985
| 14> H 	 9.98304 	 -16.4608 	 85.9737
| 15> H 	 11.5947 	 -15.7241 	 86.0722
| 16> C 	 9.88906 	 -14.4747 	 85.274
| 17> H 	 8.77907 	 -14.4296 	 85.3448
| 18> H 	 10.2876 	 -13.5616 	 85.5936
| 19> C 	 10.2822 	 -14.6788 	 83.8112
| 20> H 	 11.3017 	 -15.0448 	 83.5921
| 21> H 	 9.55201 	 -15.3594 	 83.3741
| 22> H 	 10.0654 	 -13.8332 	 83.1786
| 23> S 	 7.26566 	 -15.203 	 91.3636
| 24> C 	 6.41626 	 -13.8009 	 92.2159
| 25> C 	 7.22351 	 -12.7008 	 92.1521
| 26> C 	 8.40975 	 -12.8656 	 91.3494
| 27> C 	 8.49165 	 -14.1363 	 90.7942
| 28> H 	 6.84043 	 -11.8153 	 92.6556
| 29> C 	 9.41094 	 -11.6987 	 91.0856
| 30> H 	 9.4051 	 -11.3809 	 90.0046
| 31> H 	 10.4059 	 -12.2337 	 91.1045
| 32> C 	 9.37349 	 -10.5739 	 91.9955
| 33> H 	 9.55633 	 -10.9279 	 92.9943
| 34> H 	 8.45024 	 -10.0054 	 91.9807
| 35> C 	 10.4487 	 -9.50682 	 91.7313
| 36> H 	 10.4719 	 -9.01981 	 90.6975
| 37> H 	 11.4608 	 -9.83598 	 91.9156
| 38> H 	 10.2718 	 -8.65418 	 92.4003
| 39> H 	 12.306 	 -16.0481 	 88.2274
| 40> H 	 5.46037 	 -13.7573 	 92.9117
| 41> *
| 42>
| 43>                          ****END OF INPUT****

CARTESIAN COORDINATES (ANGSTROEM)
---------------------------------
  S     10.893900  -15.471000   90.272800
  C     11.353100  -15.730200   88.650700
  C     10.392000  -15.292900   87.714400
  C      9.205650  -14.880000   88.404200
  C      9.395710  -14.708700   89.783300
  H      8.250260  -14.481800   87.964900
  C     10.490700  -15.572400   86.198500
  H      9.983040  -16.460800   85.973700
  H     11.594700  -15.724100   86.072200
  C      9.889060  -14.474700   85.274000
  H      8.779070  -14.429600   85.344800
  H     10.287600  -13.561600   85.593600
  C     10.282200  -14.678800   83.811200
  H     11.301700  -15.044800   83.592100
  H      9.552010  -15.359400   83.374100
  H     10.065400  -13.833200   83.178600
  S      7.265660  -15.203000   91.363600
  C      6.416260  -13.800900   92.215900
  C      7.223510  -12.700800   92.152100
  C      8.409750  -12.865600   91.349400
  C      8.491650  -14.136300   90.794200
  H      6.840430  -11.815300   92.655600
  C      9.410940  -11.698700   91.085600
  H      9.405100  -11.380900   90.004600
  H     10.405900  -12.233700   91.104500
  C      9.373490  -10.573900   91.995500
  H      9.556330  -10.927900   92.994300
  H      8.450240  -10.005400   91.980700
  C     10.448700   -9.506820   91.731300
  H     10.471900   -9.019810   90.697500
  H     11.460800   -9.835980   91.915600
  H     10.271800   -8.654180   92.400300
  H     12.306000  -16.048100   88.227400
  H      5.460370  -13.757300   92.911700

 Total Charge           Charge          ....    0
 Multiplicity           Mult            ....    1
 Number of Electrons    NEL             ....  134
 Basis Dimension        Dim             ....  322

ORBITAL ENERGIES
----------------

  NO   OCC          E(Eh)            E(eV)
   0   2.0000     -88.970025     -2420.9975
   1   2.0000     -88.964646     -2420.8511
   2   2.0000     -10.330222      -281.0996
   3   2.0000     -10.328668      -281.0573
   4   2.0000     -10.325206      -280.9631
   5   2.0000     -10.313550      -280.6460
   6   2.0000     -10.308048      -280.4963
   7   2.0000     -10.303720      -280.3785
   8   2.0000     -10.301092      -280.3070
   9   2.0000     -10.295563      -280.1565
  10   2.0000     -10.294623      -280.1309
  11   2.0000     -10.293736      -280.1068
  12   2.0000     -10.287381      -279.9339
  13   2.0000     -10.281861      -279.7837
  14   2.0000     -10.281687      -279.7789
  15   2.0000     -10.277758      -279.6720
  16   2.0000      -8.084968      -220.0032
  17   2.0000      -8.078370      -219.8236
  18   2.0000      -6.043325      -164.4472
  19   2.0000      -6.039321      -164.3383
  20   2.0000      -6.037156      -164.2794
  21   2.0000      -6.036004      -164.2480
  22   2.0000      -6.033000      -164.1663
  23   2.0000      -6.028882      -164.0542
  24   2.0000      -1.004104       -27.3231
  25   2.0000      -0.980067       -26.6690
  26   2.0000      -0.914311       -24.8797
  27   2.0000      -0.908344       -24.7173
  28   2.0000      -0.869162       -23.6511
  29   2.0000      -0.849280       -23.1101
  30   2.0000      -0.840684       -22.8762
  31   2.0000      -0.816103       -22.2073
  32   2.0000      -0.780582       -21.2407
  33   2.0000      -0.767856       -20.8944
  34   2.0000      -0.709757       -19.3135
  35   2.0000      -0.697093       -18.9689
  36   2.0000      -0.688729       -18.7413
  37   2.0000      -0.647301       -17.6139
  38   2.0000      -0.637240       -17.3402
  39   2.0000      -0.612742       -16.6736
  40   2.0000      -0.588744       -16.0205
  41   2.0000      -0.577089       -15.7034
  42   2.0000      -0.572462       -15.5775
  43   2.0000      -0.562177       -15.2976
  44   2.0000      -0.526749       -14.3336
  45   2.0000      -0.521350       -14.1867
  46   2.0000      -0.509814       -13.8727
  47   2.0000      -0.507311       -13.8046
  48   2.0000      -0.499805       -13.6004
  49   2.0000      -0.492655       -13.4058
  50   2.0000      -0.488608       -13.2957
  51   2.0000      -0.475994       -12.9525
  52   2.0000      -0.471332       -12.8256
  53   2.0000      -0.463869       -12.6225
  54   2.0000      -0.459002       -12.4901
  55   2.0000      -0.443827       -12.0772
  56   2.0000      -0.442709       -12.0467
  57   2.0000      -0.436294       -11.8722
  58   2.0000      -0.434601       -11.8261
  59   2.0000      -0.425398       -11.5757
  60   2.0000      -0.422316       -11.4918
  61   2.0000      -0.419966       -11.4279
  62   2.0000      -0.409959       -11.1555
  63   2.0000      -0.339130        -9.2282
  64   2.0000      -0.333453        -9.0737
  65   2.0000      -0.314248        -8.5511
  66   2.0000      -0.306129        -8.3302
  67   0.0000       0.040989         1.1154
  68   0.0000       0.052997         1.4421
  69   0.0000       0.106393         2.8951
  70   0.0000       0.116473         3.1694
  71   0.0000       0.131363         3.5746

MULLIKEN ATOMIC CHARGES
-----------------------
   0 S :    0.138822
   1 C :   -0.103760
   2 C :   -0.117529
   3 C :    0.041539
   4 C :   -0.207396
   5 H :    0.038747
   6 C :    0.062019
   7 H :    0.034977
   8 H :    0.023755
   9 C :   -0.069568
  10 H :    0.041401
  11 H :    0.018584
  12 C :   -0.047136
  13 H :    0.040973
  14 H :    0.019187
  15 H :    0.024911
  16 S :    0.108426
  17 C :   -0.131220
  18 C :   -0.061323
  19 C :   -0.000859
  20 C :   -0.182309
  21 H :    0.027085
  22 C :    0.066018
  23 H :    0.038854
  24 H :    0.026242
  25 C :   -0.053544
  26 H :    0.027817
  27 H :    0.032531
  28 C :   -0.067612
  29 H :    0.036133
  30 H :    0.028752
  31 H :    0.029249
  32 H :    0.045252
  33 H :    0.090982
Sum of atomic charges:   -0.0000000

LOEWDIN ATOMIC CHARGES
----------------------
   0 S :    0.435079
   1 C :   -0.218715
   2 C :   -0.066780
   3 C :   -0.062075
   4 C :   -0.207837
   5 H :    0.041007
   6 C :   -0.023565
   7 H :    0.025868
   8 H :    0.033983
   9 C :   -0.036863
  10 H :    0.030939
  11 H :    0.014632
  12 C :   -0.071584
  13 H :    0.028208
  14 H :    0.025832
  15 H :    0.025803
  16 S :    0.385894
  17 C :   -0.185548
  18 C :   -0.079898
  19 C :   -0.052917
  20 C :   -0.216235
  21 H :    0.035012
  22 C :   -0.041955
  23 H :    0.038238
  24 H :    0.037490
  25 C :   -0.048510
  26 H :    0.028521
  27 H :    0.026081
  28 C :   -0.066291
  29 H :    0.030517
  30 H :    0.020022
  31 H :    0.026848
  32 H :    0.029495
  33 H :    0.059305

  Mayer bond orders larger than 0.100000
B(  0-S ,  1-C ) :   1.1631 B(  0-S ,  4-C ) :   1.1633 B(  1-C ,  2-C ) :   1.5969
B(  1-C ,  4-C ) :   0.1042 B(  1-C , 32-H ) :   0.9586 B(  2-C ,  3-C ) :   1.2534
B(  2-C ,  6-C ) :   1.0219 B(  3-C ,  4-C ) :   1.5834 B(  3-C ,  5-H ) :   0.9781
B(  4-C , 20-C ) :   1.0006 B(  6-C ,  7-H ) :   0.9434 B(  6-C ,  8-H ) :   0.9423
B(  6-C ,  9-C ) :   1.0581 B(  9-C , 10-H ) :   0.9518 B(  9-C , 11-H ) :   0.9639
B(  9-C , 12-C ) :   1.0878 B( 12-C , 13-H ) :   0.9766 B( 12-C , 14-H ) :   0.9722
B( 12-C , 15-H ) :   0.9718 B( 16-S , 17-C ) :   1.1154 B( 16-S , 20-C ) :   1.1535
B( 17-C , 18-C ) :   1.6656 B( 17-C , 33-H ) :   0.9461 B( 18-C , 19-C ) :   1.2128
B( 18-C , 21-H ) :   0.9815 B( 19-C , 20-C ) :   1.6235 B( 19-C , 22-C ) :   1.0190
B( 22-C , 23-H ) :   0.9288 B( 22-C , 24-H ) :   0.9280 B( 22-C , 25-C ) :   1.0977
B( 25-C , 26-H ) :   0.9465 B( 25-C , 27-H ) :   0.9409 B( 25-C , 28-C ) :   1.0877
B( 28-C , 29-H ) :   0.9734 B( 28-C , 30-H ) :   0.9758 B( 28-C , 31-H ) :   0.9740

Dispersion correction           -0.013381265
FINAL SINGLE POINT ENERGY     -1339.859387709693

DIPOLE MOMENT
-------------
                                X             Y             Z
Electronic contribution:     -6.60234     -17.90631      16.99852
Nuclear contribution   :      6.62151      18.40580     -17.34019
                        -----------------------------------------
Total Dipole Moment    :      0.01917       0.49949      -0.34167
                        -----------------------------------------
Magnitude (a.u.)       :      0.60547
Magnitude (Debye)      :      1.53899

Rotational constants in cm-1:     0.017322     0.007385     0.006439
Rotational constants in MHz :   519.303287   221.392727   193.034197

                             ****ORCA TERMINATED NORMALLY****
TOTAL RUN TIME: 0 days 0 hours 0 minutes 32 seconds 303 msec
