                         Program Version 4.2.1 -  RELEASE  -
|  1> ! wB97X-D3 SP def2-SVP
|  2> %pal
|  3> nprocs 16
|  4> end
|  5>
|  6> * xyz 0 1
|  7> S 	 -32.3248 	 30.3237 	 41.6159
|  8> C 	 -31.7533 	 29.477 	 43.1253
|  9> C 	 -32.7712 	 29.4663 	 44.0929
| 10> C 	 -34.0502 	 29.926 	 43.6124
| 11> C 	 -33.926 	 30.4766 	 42.3312
| 12> H 	 -34.9381 	 29.898 	 44.1847
| 13> C 	 -32.4731 	 28.8936 	 45.4627
| 14> H 	 -31.4327 	 28.5403 	 45.4815
| 15> H 	 -32.9882 	 27.9819 	 45.5262
| 16> C 	 -32.9319 	 29.652 	 46.6903
| 17> H 	 -33.7553 	 30.2893 	 46.3175
| 18> H 	 -33.4426 	 28.9601 	 47.3524
| 19> C 	 -31.8916 	 30.3308 	 47.5831
| 20> H 	 -31.2671 	 29.5756 	 47.9101
| 21> H 	 -31.2648 	 30.9497 	 46.9673
| 22> H 	 -32.1836 	 30.8814 	 48.4224
| 23> S 	 -34.8587 	 32.9969 	 41.8809
| 24> C 	 -36.3892 	 33.168 	 41.1632
| 25> C 	 -36.8809 	 32.0287 	 40.6035
| 26> C 	 -36.0635 	 30.9112 	 40.9571
| 27> C 	 -34.9539 	 31.2551 	 41.6799
| 28> H 	 -37.7491 	 32.0524 	 39.9708
| 29> C 	 -36.5533 	 29.4935 	 40.6229
| 30> H 	 -37.6333 	 29.4575 	 40.3849
| 31> H 	 -36.4373 	 28.7674 	 41.3984
| 32> C 	 -35.7944 	 28.878 	 39.4
| 33> H 	 -34.772 	 29.1145 	 39.5695
| 34> H 	 -36.1932 	 29.4532 	 38.5648
| 35> C 	 -36.0461 	 27.3416 	 39.1246
| 36> H 	 -35.4978 	 27.0603 	 38.2221
| 37> H 	 -37.1405 	 27.1718 	 38.9849
| 38> H 	 -35.6732 	 26.8028 	 39.9997
| 39> H 	 -30.6837 	 29.2229 	 43.3111
| 40> H 	 -36.945 	 34.0717 	 41.0394
| 41> *
| 42>
| 43>                          ****END OF INPUT****

CARTESIAN COORDINATES (ANGSTROEM)
---------------------------------
  S    -32.324800   30.323700   41.615900
  C    -31.753300   29.477000   43.125300
  C    -32.771200   29.466300   44.092900
  C    -34.050200   29.926000   43.612400
  C    -33.926000   30.476600   42.331200
  H    -34.938100   29.898000   44.184700
  C    -32.473100   28.893600   45.462700
  H    -31.432700   28.540300   45.481500
  H    -32.988200   27.981900   45.526200
  C    -32.931900   29.652000   46.690300
  H    -33.755300   30.289300   46.317500
  H    -33.442600   28.960100   47.352400
  C    -31.891600   30.330800   47.583100
  H    -31.267100   29.575600   47.910100
  H    -31.264800   30.949700   46.967300
  H    -32.183600   30.881400   48.422400
  S    -34.858700   32.996900   41.880900
  C    -36.389200   33.168000   41.163200
  C    -36.880900   32.028700   40.603500
  C    -36.063500   30.911200   40.957100
  C    -34.953900   31.255100   41.679900
  H    -37.749100   32.052400   39.970800
  C    -36.553300   29.493500   40.622900
  H    -37.633300   29.457500   40.384900
  H    -36.437300   28.767400   41.398400
  C    -35.794400   28.878000   39.400000
  H    -34.772000   29.114500   39.569500
  H    -36.193200   29.453200   38.564800
  C    -36.046100   27.341600   39.124600
  H    -35.497800   27.060300   38.222100
  H    -37.140500   27.171800   38.984900
  H    -35.673200   26.802800   39.999700
  H    -30.683700   29.222900   43.311100
  H    -36.945000   34.071700   41.039400

 Total Charge           Charge          ....    0
 Multiplicity           Mult            ....    1
 Number of Electrons    NEL             ....  134
 Basis Dimension        Dim             ....  322

ORBITAL ENERGIES
----------------

  NO   OCC          E(Eh)            E(eV)
   0   2.0000     -88.969525     -2420.9839
   1   2.0000     -88.964353     -2420.8431
   2   2.0000     -10.333160      -281.1796
   3   2.0000     -10.321821      -280.8710
   4   2.0000     -10.319835      -280.8170
   5   2.0000     -10.308331      -280.5039
   6   2.0000     -10.307027      -280.4685
   7   2.0000     -10.302685      -280.3503
   8   2.0000     -10.298799      -280.2446
   9   2.0000     -10.287771      -279.9445
  10   2.0000     -10.287403      -279.9345
  11   2.0000     -10.287093      -279.9260
  12   2.0000     -10.285682      -279.8876
  13   2.0000     -10.281704      -279.7794
  14   2.0000     -10.278643      -279.6961
  15   2.0000     -10.265770      -279.3458
  16   2.0000      -8.082676      -219.9408
  17   2.0000      -8.080180      -219.8729
  18   2.0000      -6.041219      -164.3899
  19   2.0000      -6.038584      -164.3182
  20   2.0000      -6.037463      -164.2877
  21   2.0000      -6.034646      -164.2111
  22   2.0000      -6.033437      -164.1782
  23   2.0000      -6.030857      -164.1080
  24   2.0000      -1.008744       -27.4493
  25   2.0000      -0.979012       -26.6403
  26   2.0000      -0.914863       -24.8947
  27   2.0000      -0.899786       -24.4844
  28   2.0000      -0.869544       -23.6615
  29   2.0000      -0.847068       -23.0499
  30   2.0000      -0.845699       -23.0127
  31   2.0000      -0.815749       -22.1977
  32   2.0000      -0.786981       -21.4148
  33   2.0000      -0.771830       -21.0026
  34   2.0000      -0.713305       -19.4100
  35   2.0000      -0.692525       -18.8446
  36   2.0000      -0.686275       -18.6745
  37   2.0000      -0.662003       -18.0140
  38   2.0000      -0.639402       -17.3990
  39   2.0000      -0.623552       -16.9677
  40   2.0000      -0.598705       -16.2916
  41   2.0000      -0.570897       -15.5349
  42   2.0000      -0.561117       -15.2688
  43   2.0000      -0.554675       -15.0935
  44   2.0000      -0.537820       -14.6348
  45   2.0000      -0.520139       -14.1537
  46   2.0000      -0.517683       -14.0869
  47   2.0000      -0.507335       -13.8053
  48   2.0000      -0.502300       -13.6683
  49   2.0000      -0.496061       -13.4985
  50   2.0000      -0.491032       -13.3617
  51   2.0000      -0.478649       -13.0247
  52   2.0000      -0.476882       -12.9766
  53   2.0000      -0.468509       -12.7488
  54   2.0000      -0.459005       -12.4902
  55   2.0000      -0.450826       -12.2676
  56   2.0000      -0.447540       -12.1782
  57   2.0000      -0.437837       -11.9142
  58   2.0000      -0.428126       -11.6499
  59   2.0000      -0.423181       -11.5153
  60   2.0000      -0.421241       -11.4625
  61   2.0000      -0.414301       -11.2737
  62   2.0000      -0.406150       -11.0519
  63   2.0000      -0.337629        -9.1874
  64   2.0000      -0.327598        -8.9144
  65   2.0000      -0.322973        -8.7885
  66   2.0000      -0.305810        -8.3215
  67   0.0000       0.040588         1.1044
  68   0.0000       0.053996         1.4693
  69   0.0000       0.109093         2.9686
  70   0.0000       0.118752         3.2314
  71   0.0000       0.124590         3.3903

MULLIKEN ATOMIC CHARGES
-----------------------
   0 S :    0.107735
   1 C :   -0.151757
   2 C :   -0.101841
   3 C :    0.076357
   4 C :   -0.167004
   5 H :    0.009613
   6 C :    0.097182
   7 H :    0.007235
   8 H :    0.020124
   9 C :   -0.086716
  10 H :    0.024971
  11 H :    0.016138
  12 C :    0.018140
  13 H :    0.006103
  14 H :    0.020808
  15 H :    0.028118
  16 S :    0.131158
  17 C :   -0.072143
  18 C :   -0.041440
  19 C :    0.004721
  20 C :   -0.197994
  21 H :    0.015003
  22 C :    0.071189
  23 H :    0.017620
  24 H :    0.009856
  25 C :   -0.095398
  26 H :    0.024179
  27 H :    0.021564
  28 C :   -0.047162
  29 H :    0.045755
  30 H :    0.036305
  31 H :    0.040231
  32 H :    0.069302
  33 H :    0.042049
Sum of atomic charges:   -0.0000000

LOEWDIN ATOMIC CHARGES
----------------------
   0 S :    0.377462
   1 C :   -0.193721
   2 C :   -0.052578
   3 C :   -0.050866
   4 C :   -0.187523
   5 H :    0.028490
   6 C :   -0.034106
   7 H :    0.030446
   8 H :    0.033378
   9 C :   -0.042114
  10 H :    0.025828
  11 H :    0.022226
  12 C :   -0.052568
  13 H :    0.017198
  14 H :    0.024233
  15 H :    0.021897
  16 S :    0.427304
  17 C :   -0.191034
  18 C :   -0.072802
  19 C :   -0.046815
  20 C :   -0.210657
  21 H :    0.031436
  22 C :   -0.030386
  23 H :    0.027703
  24 H :    0.020954
  25 C :   -0.035585
  26 H :    0.013711
  27 H :    0.019327
  28 C :   -0.065767
  29 H :    0.029700
  30 H :    0.028114
  31 H :    0.025723
  32 H :    0.035804
  33 H :    0.025591

  Mayer bond orders larger than 0.100000
B(  0-S ,  1-C ) :   1.1086 B(  0-S ,  4-C ) :   1.1580 B(  1-C ,  2-C ) :   1.6290
B(  1-C , 32-H ) :   0.9616 B(  2-C ,  3-C ) :   1.2158 B(  2-C ,  6-C ) :   1.0380
B(  3-C ,  4-C ) :   1.5824 B(  3-C ,  5-H ) :   0.9945 B(  4-C , 20-C ) :   1.0183
B(  6-C ,  7-H ) :   0.9419 B(  6-C ,  8-H ) :   0.9274 B(  6-C ,  9-C ) :   1.0486
B(  9-C , 10-H ) :   0.9581 B(  9-C , 11-H ) :   0.9586 B(  9-C , 12-C ) :   1.0768
B( 12-C , 13-H ) :   0.9710 B( 12-C , 14-H ) :   0.9760 B( 12-C , 15-H ) :   0.9751
B( 16-S , 17-C ) :   1.1681 B( 16-S , 20-C ) :   1.1330 B( 17-C , 18-C ) :   1.6268
B( 17-C , 33-H ) :   0.9642 B( 18-C , 19-C ) :   1.2297 B( 18-C , 21-H ) :   0.9940
B( 19-C , 20-C ) :   1.6308 B( 19-C , 22-C ) :   1.0414 B( 22-C , 23-H ) :   0.9412
B( 22-C , 24-H ) :   0.9393 B( 22-C , 25-C ) :   1.0465 B( 25-C , 26-H ) :   0.9629
B( 25-C , 27-H ) :   0.9586 B( 25-C , 28-C ) :   1.0755 B( 28-C , 29-H ) :   0.9754
B( 28-C , 30-H ) :   0.9753 B( 28-C , 31-H ) :   0.9762

Dispersion correction           -0.013950164
FINAL SINGLE POINT ENERGY     -1339.866328977795

DIPOLE MOMENT
-------------
                                X             Y             Z
Electronic contribution:      3.24716      16.49718      -9.25850
Nuclear contribution   :     -3.51465     -16.78474       9.60501
                        -----------------------------------------
Total Dipole Moment    :     -0.26749      -0.28756       0.34651
                        -----------------------------------------
Magnitude (a.u.)       :      0.52374
Magnitude (Debye)      :      1.33125

Rotational constants in cm-1:     0.018707     0.008078     0.006808
Rotational constants in MHz :   560.829760   242.173105   204.092395

                             ****ORCA TERMINATED NORMALLY****
TOTAL RUN TIME: 0 days 0 hours 0 minutes 31 seconds 412 msec
