                         Program Version 4.2.1 -  RELEASE  -
|  1> ! wB97X-D3 SP def2-SVP
|  2> %pal
|  3> nprocs 16
|  4> end
|  5>
|  6> * xyz 0 1
|  7> S 	 69.8734 	 22.3141 	 78.52
|  8> C 	 70.9911 	 21.0726 	 77.9686
|  9> C 	 71.2372 	 21.1544 	 76.623
| 10> C 	 70.5776 	 22.3016 	 76.1065
| 11> C 	 69.9607 	 23.1611 	 76.9836
| 12> H 	 70.5569 	 22.5175 	 75.0412
| 13> C 	 72.1005 	 20.1757 	 75.8082
| 14> H 	 71.8943 	 20.3513 	 74.808
| 15> H 	 71.6738 	 19.1486 	 75.8538
| 16> C 	 73.6342 	 20.217 	 76.0838
| 17> H 	 73.741 	 19.5638 	 76.9003
| 18> H 	 74.2044 	 19.6631 	 75.2782
| 19> C 	 74.337 	 21.5678 	 76.1761
| 20> H 	 75.277 	 21.3538 	 76.613
| 21> H 	 74.3521 	 22.0527 	 75.2497
| 22> H 	 73.7153 	 22.2281 	 76.8857
| 23> S 	 67.4337 	 24.15 	 76.795
| 24> C 	 67.2021 	 25.6975 	 76.0623
| 25> C 	 68.3702 	 26.3221 	 75.6988
| 26> C 	 69.4929 	 25.476 	 76.0621
| 27> C 	 69.126 	 24.3031 	 76.6616
| 28> H 	 68.4748 	 27.3235 	 75.2594
| 29> C 	 70.9533 	 25.9132 	 75.833
| 30> H 	 70.955 	 26.5639 	 74.8297
| 31> H 	 71.5001 	 24.996 	 75.6252
| 32> C 	 71.5777 	 26.6162 	 77.0632
| 33> H 	 71.5618 	 25.9228 	 77.8684
| 34> H 	 70.8443 	 27.4284 	 77.3018
| 35> C 	 73.0484 	 27.0042 	 76.6884
| 36> H 	 73.3317 	 27.8056 	 77.418
| 37> H 	 73.073 	 27.5068 	 75.6863
| 38> H 	 73.7638 	 26.2663 	 76.7263
| 39> H 	 71.4174 	 20.2832 	 78.6143
| 40> H 	 66.2506 	 26.1236 	 76.0164
| 41> *
| 42>
| 43>                          ****END OF INPUT****

CARTESIAN COORDINATES (ANGSTROEM)
---------------------------------
  S     69.873400   22.314100   78.520000
  C     70.991100   21.072600   77.968600
  C     71.237200   21.154400   76.623000
  C     70.577600   22.301600   76.106500
  C     69.960700   23.161100   76.983600
  H     70.556900   22.517500   75.041200
  C     72.100500   20.175700   75.808200
  H     71.894300   20.351300   74.808000
  H     71.673800   19.148600   75.853800
  C     73.634200   20.217000   76.083800
  H     73.741000   19.563800   76.900300
  H     74.204400   19.663100   75.278200
  C     74.337000   21.567800   76.176100
  H     75.277000   21.353800   76.613000
  H     74.352100   22.052700   75.249700
  H     73.715300   22.228100   76.885700
  S     67.433700   24.150000   76.795000
  C     67.202100   25.697500   76.062300
  C     68.370200   26.322100   75.698800
  C     69.492900   25.476000   76.062100
  C     69.126000   24.303100   76.661600
  H     68.474800   27.323500   75.259400
  C     70.953300   25.913200   75.833000
  H     70.955000   26.563900   74.829700
  H     71.500100   24.996000   75.625200
  C     71.577700   26.616200   77.063200
  H     71.561800   25.922800   77.868400
  H     70.844300   27.428400   77.301800
  C     73.048400   27.004200   76.688400
  H     73.331700   27.805600   77.418000
  H     73.073000   27.506800   75.686300
  H     73.763800   26.266300   76.726300
  H     71.417400   20.283200   78.614300
  H     66.250600   26.123600   76.016400

 Total Charge           Charge          ....    0
 Multiplicity           Mult            ....    1
 Number of Electrons    NEL             ....  134
 Basis Dimension        Dim             ....  322

ORBITAL ENERGIES
----------------

  NO   OCC          E(Eh)            E(eV)
   0   2.0000     -88.964964     -2420.8597
   1   2.0000     -88.964024     -2420.8342
   2   2.0000     -10.326802      -281.0066
   3   2.0000     -10.317564      -280.7552
   4   2.0000     -10.316647      -280.7302
   5   2.0000     -10.311958      -280.6026
   6   2.0000     -10.300648      -280.2949
   7   2.0000     -10.298668      -280.2410
   8   2.0000     -10.296833      -280.1911
   9   2.0000     -10.295937      -280.1667
  10   2.0000     -10.292925      -280.0847
  11   2.0000     -10.292691      -280.0784
  12   2.0000     -10.288411      -279.9619
  13   2.0000     -10.287664      -279.9416
  14   2.0000     -10.278341      -279.6879
  15   2.0000     -10.276474      -279.6371
  16   2.0000      -8.080265      -219.8752
  17   2.0000      -8.079587      -219.8568
  18   2.0000      -6.038653      -164.3201
  19   2.0000      -6.038067      -164.3042
  20   2.0000      -6.034602      -164.2099
  21   2.0000      -6.034192      -164.1987
  22   2.0000      -6.031015      -164.1123
  23   2.0000      -6.030294      -164.0926
  24   2.0000      -1.012493       -27.5513
  25   2.0000      -0.988200       -26.8903
  26   2.0000      -0.909127       -24.7386
  27   2.0000      -0.901545       -24.5323
  28   2.0000      -0.871373       -23.7113
  29   2.0000      -0.848036       -23.0762
  30   2.0000      -0.844478       -22.9794
  31   2.0000      -0.814127       -22.1535
  32   2.0000      -0.787318       -21.4240
  33   2.0000      -0.769034       -20.9265
  34   2.0000      -0.703838       -19.1524
  35   2.0000      -0.702871       -19.1261
  36   2.0000      -0.692913       -18.8551
  37   2.0000      -0.665543       -18.1103
  38   2.0000      -0.638355       -17.3705
  39   2.0000      -0.613376       -16.6908
  40   2.0000      -0.593201       -16.1418
  41   2.0000      -0.573020       -15.5927
  42   2.0000      -0.561232       -15.2719
  43   2.0000      -0.555227       -15.1085
  44   2.0000      -0.540939       -14.7197
  45   2.0000      -0.517565       -14.0837
  46   2.0000      -0.514618       -14.0035
  47   2.0000      -0.510681       -13.8963
  48   2.0000      -0.505278       -13.7493
  49   2.0000      -0.498952       -13.5772
  50   2.0000      -0.491443       -13.3728
  51   2.0000      -0.476196       -12.9579
  52   2.0000      -0.473716       -12.8905
  53   2.0000      -0.464477       -12.6391
  54   2.0000      -0.461313       -12.5530
  55   2.0000      -0.448450       -12.2029
  56   2.0000      -0.442856       -12.0507
  57   2.0000      -0.433762       -11.8033
  58   2.0000      -0.431089       -11.7305
  59   2.0000      -0.427830       -11.6418
  60   2.0000      -0.422149       -11.4872
  61   2.0000      -0.408208       -11.1079
  62   2.0000      -0.407130       -11.0786
  63   2.0000      -0.344946        -9.3865
  64   2.0000      -0.330385        -8.9902
  65   2.0000      -0.328643        -8.9428
  66   2.0000      -0.299231        -8.1425
  67   0.0000       0.036796         1.0013
  68   0.0000       0.065186         1.7738
  69   0.0000       0.112716         3.0672
  70   0.0000       0.122490         3.3331
  71   0.0000       0.131342         3.5740

MULLIKEN ATOMIC CHARGES
-----------------------
   0 S :    0.096743
   1 C :   -0.133302
   2 C :   -0.111166
   3 C :    0.037076
   4 C :   -0.171990
   5 H :    0.013340
   6 C :    0.114082
   7 H :   -0.011820
   8 H :    0.036257
   9 C :   -0.094423
  10 H :    0.016778
  11 H :    0.029098
  12 C :   -0.020309
  13 H :    0.035897
  14 H :    0.030163
  15 H :    0.048480
  16 S :    0.120783
  17 C :   -0.073076
  18 C :   -0.021949
  19 C :   -0.079044
  20 C :   -0.138303
  21 H :    0.029262
  22 C :    0.010121
  23 H :    0.040271
  24 H :    0.019634
  25 C :   -0.048563
  26 H :    0.028103
  27 H :    0.035031
  28 C :   -0.026372
  29 H :    0.035432
  30 H :    0.030709
  31 H :    0.028564
  32 H :    0.057837
  33 H :    0.036657
Sum of atomic charges:    0.0000000

LOEWDIN ATOMIC CHARGES
----------------------
   0 S :    0.395475
   1 C :   -0.188107
   2 C :   -0.071718
   3 C :   -0.058560
   4 C :   -0.199465
   5 H :    0.029127
   6 C :   -0.030971
   7 H :    0.016809
   8 H :    0.040274
   9 C :   -0.041923
  10 H :    0.014071
  11 H :    0.030769
  12 C :   -0.057153
  13 H :    0.026057
  14 H :    0.018696
  15 H :    0.035815
  16 S :    0.433294
  17 C :   -0.177457
  18 C :   -0.071299
  19 C :   -0.058137
  20 C :   -0.225183
  21 H :    0.037729
  22 C :   -0.040530
  23 H :    0.036669
  24 H :    0.023561
  25 C :   -0.034210
  26 H :    0.022307
  27 H :    0.029704
  28 C :   -0.060791
  29 H :    0.032342
  30 H :    0.029555
  31 H :    0.014267
  32 H :    0.033898
  33 H :    0.015085

  Mayer bond orders larger than 0.100000
B(  0-S ,  1-C ) :   1.1527 B(  0-S ,  4-C ) :   1.1340 B(  1-C ,  2-C ) :   1.5974
B(  1-C ,  4-C ) :   0.1007 B(  1-C , 32-H ) :   0.9659 B(  2-C ,  3-C ) :   1.2635
B(  2-C ,  6-C ) :   1.0095 B(  3-C ,  4-C ) :   1.5820 B(  3-C ,  5-H ) :   0.9863
B(  4-C , 20-C ) :   1.0128 B(  6-C ,  7-H ) :   0.9317 B(  6-C ,  8-H ) :   0.9420
B(  6-C ,  9-C ) :   1.0543 B(  9-C , 10-H ) :   0.9627 B(  9-C , 11-H ) :   0.9546
B(  9-C , 12-C ) :   1.0748 B( 12-C , 13-H ) :   0.9715 B( 12-C , 14-H ) :   0.9770
B( 12-C , 15-H ) :   0.9703 B( 16-S , 17-C ) :   1.1701 B( 16-S , 20-C ) :   1.1453
B( 17-C , 18-C ) :   1.5927 B( 17-C , 33-H ) :   0.9753 B( 18-C , 19-C ) :   1.2453
B( 18-C , 21-H ) :   0.9905 B( 19-C , 20-C ) :   1.6258 B( 19-C , 22-C ) :   1.0360
B( 22-C , 23-H ) :   0.9412 B( 22-C , 24-H ) :   0.9265 B( 22-C , 25-C ) :   1.0627
B( 25-C , 26-H ) :   0.9532 B( 25-C , 27-H ) :   0.9597 B( 25-C , 28-C ) :   1.0668
B( 28-C , 29-H ) :   0.9756 B( 28-C , 30-H ) :   0.9752 B( 28-C , 31-H ) :   0.9780

Dispersion correction           -0.014715467
FINAL SINGLE POINT ENERGY     -1339.867800546083

DIPOLE MOMENT
-------------
                                X             Y             Z
Electronic contribution:    -27.11367      -3.18923       8.09082
Nuclear contribution   :     27.54901       3.13780      -8.47506
                        -----------------------------------------
Total Dipole Moment    :      0.43534      -0.05143      -0.38424
                        -----------------------------------------
Magnitude (a.u.)       :      0.58293
Magnitude (Debye)      :      1.48169

Rotational constants in cm-1:     0.017948     0.009449     0.007163
Rotational constants in MHz :   538.058120   283.261808   214.743623

                             ****ORCA TERMINATED NORMALLY****
TOTAL RUN TIME: 0 days 0 hours 0 minutes 30 seconds 653 msec
