                         Program Version 4.2.1 -  RELEASE  -
|  1> ! wB97X-D3 SP def2-SVP
|  2> %pal
|  3> nprocs 16
|  4> end
|  5>
|  6> * xyz 0 1
|  7> S 	 -11.7237 	 -11.0484 	 91.307
|  8> C 	 -12.8284 	 -12.1053 	 92.1015
|  9> C 	 -13.7066 	 -12.5503 	 91.1231
| 10> C 	 -13.7438 	 -11.7521 	 89.9046
| 11> C 	 -12.697 	 -10.8344 	 89.8845
| 12> H 	 -14.3834 	 -11.901 	 89.0387
| 13> C 	 -14.6766 	 -13.6895 	 91.2949
| 14> H 	 -15.5301 	 -13.2246 	 91.6466
| 15> H 	 -14.346 	 -14.4052 	 92.0842
| 16> C 	 -14.9075 	 -14.6982 	 90.0789
| 17> H 	 -15.2997 	 -14.1975 	 89.2266
| 18> H 	 -13.8924 	 -15.1219 	 89.9397
| 19> C 	 -15.7385 	 -15.9107 	 90.4621
| 20> H 	 -15.5273 	 -16.6893 	 89.7767
| 21> H 	 -15.4199 	 -16.2515 	 91.4498
| 22> H 	 -16.844 	 -15.7205 	 90.5963
| 23> S 	 -11.9598 	 -8.26537 	 89.4458
| 24> C 	 -11.3671 	 -7.68425 	 87.9175
| 25> C 	 -11.3513 	 -8.73777 	 87.0027
| 26> C 	 -11.9085 	 -9.93868 	 87.5384
| 27> C 	 -12.2706 	 -9.86167 	 88.8549
| 28> H 	 -10.8513 	 -8.46183 	 86.1112
| 29> C 	 -11.8665 	 -11.1929 	 86.7148
| 30> H 	 -12.1081 	 -11.0011 	 85.6172
| 31> H 	 -12.6055 	 -11.9536 	 87.1189
| 32> C 	 -10.4941 	 -11.8355 	 86.762
| 33> H 	 -10.1547 	 -11.7676 	 87.7971
| 34> H 	 -9.87905 	 -11.2635 	 86.165
| 35> C 	 -10.5761 	 -13.2992 	 86.3514
| 36> H 	 -11.1401 	 -13.9569 	 87.018
| 37> H 	 -9.54607 	 -13.6953 	 86.2952
| 38> H 	 -11.032 	 -13.4946 	 85.3291
| 39> H 	 -12.5813 	 -12.6543 	 92.9894
| 40> H 	 -10.8844 	 -6.77251 	 87.7315
| 41> *
| 42>
| 43>                          ****END OF INPUT****

CARTESIAN COORDINATES (ANGSTROEM)
---------------------------------
  S    -11.723700  -11.048400   91.307000
  C    -12.828400  -12.105300   92.101500
  C    -13.706600  -12.550300   91.123100
  C    -13.743800  -11.752100   89.904600
  C    -12.697000  -10.834400   89.884500
  H    -14.383400  -11.901000   89.038700
  C    -14.676600  -13.689500   91.294900
  H    -15.530100  -13.224600   91.646600
  H    -14.346000  -14.405200   92.084200
  C    -14.907500  -14.698200   90.078900
  H    -15.299700  -14.197500   89.226600
  H    -13.892400  -15.121900   89.939700
  C    -15.738500  -15.910700   90.462100
  H    -15.527300  -16.689300   89.776700
  H    -15.419900  -16.251500   91.449800
  H    -16.844000  -15.720500   90.596300
  S    -11.959800   -8.265370   89.445800
  C    -11.367100   -7.684250   87.917500
  C    -11.351300   -8.737770   87.002700
  C    -11.908500   -9.938680   87.538400
  C    -12.270600   -9.861670   88.854900
  H    -10.851300   -8.461830   86.111200
  C    -11.866500  -11.192900   86.714800
  H    -12.108100  -11.001100   85.617200
  H    -12.605500  -11.953600   87.118900
  C    -10.494100  -11.835500   86.762000
  H    -10.154700  -11.767600   87.797100
  H     -9.879050  -11.263500   86.165000
  C    -10.576100  -13.299200   86.351400
  H    -11.140100  -13.956900   87.018000
  H     -9.546070  -13.695300   86.295200
  H    -11.032000  -13.494600   85.329100
  H    -12.581300  -12.654300   92.989400
  H    -10.884400   -6.772510   87.731500

 Total Charge           Charge          ....    0
 Multiplicity           Mult            ....    1
 Number of Electrons    NEL             ....  134
 Basis Dimension        Dim             ....  322

ORBITAL ENERGIES
----------------

  NO   OCC          E(Eh)            E(eV)
   0   2.0000     -88.963237     -2420.8127
   1   2.0000     -88.962313     -2420.7876
   2   2.0000     -10.335083      -281.2319
   3   2.0000     -10.326353      -280.9943
   4   2.0000     -10.313941      -280.6566
   5   2.0000     -10.311197      -280.5819
   6   2.0000     -10.305642      -280.4308
   7   2.0000     -10.303732      -280.3788
   8   2.0000     -10.298721      -280.2425
   9   2.0000     -10.292696      -280.0785
  10   2.0000     -10.292653      -280.0773
  11   2.0000     -10.292074      -280.0616
  12   2.0000     -10.288293      -279.9587
  13   2.0000     -10.281323      -279.7690
  14   2.0000     -10.280951      -279.7589
  15   2.0000     -10.276072      -279.6261
  16   2.0000      -8.078650      -219.8312
  17   2.0000      -8.077639      -219.8037
  18   2.0000      -6.037128      -164.2786
  19   2.0000      -6.036064      -164.2496
  20   2.0000      -6.033032      -164.1671
  21   2.0000      -6.031880      -164.1358
  22   2.0000      -6.029391      -164.0681
  23   2.0000      -6.028604      -164.0467
  24   2.0000      -1.011588       -27.5267
  25   2.0000      -0.989375       -26.9223
  26   2.0000      -0.913974       -24.8705
  27   2.0000      -0.909050       -24.7365
  28   2.0000      -0.873415       -23.7668
  29   2.0000      -0.850638       -23.1470
  30   2.0000      -0.845957       -23.0197
  31   2.0000      -0.821771       -22.3615
  32   2.0000      -0.776671       -21.1343
  33   2.0000      -0.768470       -20.9111
  34   2.0000      -0.710610       -19.3367
  35   2.0000      -0.696665       -18.9572
  36   2.0000      -0.693608       -18.8740
  37   2.0000      -0.664446       -18.0805
  38   2.0000      -0.644138       -17.5279
  39   2.0000      -0.622262       -16.9326
  40   2.0000      -0.595029       -16.1916
  41   2.0000      -0.575298       -15.6547
  42   2.0000      -0.572154       -15.5691
  43   2.0000      -0.568014       -15.4564
  44   2.0000      -0.532087       -14.4788
  45   2.0000      -0.522945       -14.2301
  46   2.0000      -0.519181       -14.1276
  47   2.0000      -0.512416       -13.9436
  48   2.0000      -0.506213       -13.7748
  49   2.0000      -0.502625       -13.6771
  50   2.0000      -0.493230       -13.4215
  51   2.0000      -0.480405       -13.0725
  52   2.0000      -0.472463       -12.8564
  53   2.0000      -0.466949       -12.7063
  54   2.0000      -0.459670       -12.5083
  55   2.0000      -0.452260       -12.3066
  56   2.0000      -0.435756       -11.8575
  57   2.0000      -0.434400       -11.8206
  58   2.0000      -0.430478       -11.7139
  59   2.0000      -0.423107       -11.5133
  60   2.0000      -0.419210       -11.4073
  61   2.0000      -0.416635       -11.3372
  62   2.0000      -0.411588       -11.1999
  63   2.0000      -0.347198        -9.4477
  64   2.0000      -0.329290        -8.9604
  65   2.0000      -0.321702        -8.7540
  66   2.0000      -0.299664        -8.1543
  67   0.0000       0.030748         0.8367
  68   0.0000       0.068806         1.8723
  69   0.0000       0.108958         2.9649
  70   0.0000       0.123103         3.3498
  71   0.0000       0.133295         3.6272

MULLIKEN ATOMIC CHARGES
-----------------------
   0 S :    0.110388
   1 C :   -0.097254
   2 C :   -0.116642
   3 C :    0.037573
   4 C :   -0.141101
   5 H :    0.023895
   6 C :    0.045941
   7 H :    0.030489
   8 H :    0.014386
   9 C :   -0.088082
  10 H :    0.034968
  11 H :    0.037838
  12 C :   -0.038482
  13 H :    0.034871
  14 H :    0.014395
  15 H :    0.042417
  16 S :    0.106605
  17 C :   -0.079869
  18 C :   -0.050926
  19 C :    0.002626
  20 C :   -0.161993
  21 H :    0.010400
  22 C :    0.014206
  23 H :    0.036322
  24 H :    0.022105
  25 C :   -0.015719
  26 H :    0.033724
  27 H :    0.007692
  28 C :   -0.070298
  29 H :    0.037237
  30 H :    0.034519
  31 H :    0.030786
  32 H :    0.054889
  33 H :    0.042092
Sum of atomic charges:   -0.0000000

LOEWDIN ATOMIC CHARGES
----------------------
   0 S :    0.423424
   1 C :   -0.213645
   2 C :   -0.056621
   3 C :   -0.069112
   4 C :   -0.192678
   5 H :    0.032985
   6 C :   -0.035256
   7 H :    0.022279
   8 H :    0.029734
   9 C :   -0.034000
  10 H :    0.015525
  11 H :    0.032871
  12 C :   -0.064620
  13 H :    0.023333
  14 H :    0.022647
  15 H :    0.031056
  16 S :    0.424269
  17 C :   -0.179475
  18 C :   -0.069281
  19 C :   -0.058464
  20 C :   -0.211210
  21 H :    0.028676
  22 C :   -0.037861
  23 H :    0.035113
  24 H :    0.030438
  25 C :   -0.032874
  26 H :    0.029544
  27 H :    0.012400
  28 C :   -0.071169
  29 H :    0.025225
  30 H :    0.027868
  31 H :    0.028612
  32 H :    0.029139
  33 H :    0.021127

  Mayer bond orders larger than 0.100000
B(  0-S ,  1-C ) :   1.1315 B(  0-S ,  4-C ) :   1.1882 B(  1-C ,  2-C ) :   1.5963
B(  1-C , 32-H ) :   0.9698 B(  2-C ,  3-C ) :   1.2283 B(  2-C ,  6-C ) :   1.0256
B(  3-C ,  4-C ) :   1.5635 B(  3-C ,  5-H ) :   0.9935 B(  4-C , 20-C ) :   1.0059
B(  6-C ,  7-H ) :   0.9404 B(  6-C ,  8-H ) :   0.9461 B(  6-C ,  9-C ) :   1.0540
B(  9-C , 10-H ) :   0.9554 B(  9-C , 11-H ) :   0.9597 B(  9-C , 12-C ) :   1.0917
B( 12-C , 13-H ) :   0.9751 B( 12-C , 14-H ) :   0.9696 B( 12-C , 15-H ) :   0.9740
B( 16-S , 17-C ) :   1.1696 B( 16-S , 20-C ) :   1.1528 B( 17-C , 18-C ) :   1.6056
B( 17-C , 33-H ) :   0.9722 B( 18-C , 19-C ) :   1.2156 B( 18-C , 21-H ) :   1.0034
B( 19-C , 20-C ) :   1.5946 B( 19-C , 22-C ) :   1.0605 B( 22-C , 23-H ) :   0.9305
B( 22-C , 24-H ) :   0.9383 B( 22-C , 25-C ) :   1.0599 B( 25-C , 26-H ) :   0.9526
B( 25-C , 27-H ) :   0.9517 B( 25-C , 28-C ) :   1.0902 B( 28-C , 29-H ) :   0.9743
B( 28-C , 30-H ) :   0.9732 B( 28-C , 31-H ) :   0.9715

Dispersion correction           -0.013998796
FINAL SINGLE POINT ENERGY     -1339.865870594805

DIPOLE MOMENT
-------------
                                X             Y             Z
Electronic contribution:      6.50792      27.20192      10.90843
Nuclear contribution   :     -6.46108     -27.77896     -11.28630
                        -----------------------------------------
Total Dipole Moment    :      0.04685      -0.57703      -0.37786
                        -----------------------------------------
Magnitude (a.u.)       :      0.69133
Magnitude (Debye)      :      1.75723

Rotational constants in cm-1:     0.019012     0.008594     0.006756
Rotational constants in MHz :   569.954242   257.651541   202.531765

                             ****ORCA TERMINATED NORMALLY****
TOTAL RUN TIME: 0 days 0 hours 0 minutes 34 seconds 111 msec
