                         Program Version 4.2.1 -  RELEASE  -
|  1> ! wB97X-D3 SP def2-SVP
|  2> %pal
|  3> nprocs 16
|  4> end
|  5>
|  6> * xyz 0 1
|  7> S 	 15.0833 	 -12.2276 	 79.9091
|  8> C 	 16.3856 	 -11.8709 	 78.8457
|  9> C 	 16.274 	 -12.4349 	 77.5855
| 10> C 	 15 	 -13.0473 	 77.4326
| 11> C 	 14.2431 	 -13.0854 	 78.5743
| 12> H 	 14.5136 	 -13.3356 	 76.5517
| 13> C 	 17.2242 	 -12.1148 	 76.4849
| 14> H 	 16.6233 	 -12.2846 	 75.5598
| 15> H 	 18.1193 	 -12.7651 	 76.5003
| 16> C 	 17.7928 	 -10.704 	 76.4122
| 17> H 	 17.0148 	 -9.98945 	 76.7092
| 18> H 	 18.6786 	 -10.5975 	 77.0687
| 19> C 	 18.2773 	 -10.4146 	 75.0433
| 20> H 	 19.0775 	 -11.0299 	 74.6252
| 21> H 	 17.5754 	 -10.3495 	 74.2583
| 22> H 	 18.6283 	 -9.40244 	 75.0229
| 23> S 	 12.8637 	 -15.0548 	 79.941
| 24> C 	 11.1631 	 -15.297 	 79.5977
| 25> C 	 10.7777 	 -14.5582 	 78.5018
| 26> C 	 11.7856 	 -13.7075 	 78.0236
| 27> C 	 12.939 	 -13.6785 	 78.8112
| 28> H 	 9.79367 	 -14.5612 	 78.1594
| 29> C 	 11.4682 	 -12.8074 	 76.8765
| 30> H 	 12.2112 	 -12.0865 	 76.6882
| 31> H 	 10.5539 	 -12.2799 	 77.2289
| 32> C 	 11.2726 	 -13.5904 	 75.549
| 33> H 	 10.3109 	 -14.0915 	 75.5822
| 34> H 	 12.0485 	 -14.3107 	 75.3829
| 35> C 	 11.2342 	 -12.5775 	 74.3669
| 36> H 	 10.4589 	 -11.8874 	 74.5531
| 37> H 	 11.1727 	 -13.0824 	 73.4141
| 38> H 	 12.2113 	 -12.0042 	 74.3156
| 39> H 	 17.2749 	 -11.2582 	 79.0936
| 40> H 	 10.4541 	 -15.8916 	 80.1888
| 41> *
| 42>
| 43>                          ****END OF INPUT****

CARTESIAN COORDINATES (ANGSTROEM)
---------------------------------
  S     15.083300  -12.227600   79.909100
  C     16.385600  -11.870900   78.845700
  C     16.274000  -12.434900   77.585500
  C     15.000000  -13.047300   77.432600
  C     14.243100  -13.085400   78.574300
  H     14.513600  -13.335600   76.551700
  C     17.224200  -12.114800   76.484900
  H     16.623300  -12.284600   75.559800
  H     18.119300  -12.765100   76.500300
  C     17.792800  -10.704000   76.412200
  H     17.014800   -9.989450   76.709200
  H     18.678600  -10.597500   77.068700
  C     18.277300  -10.414600   75.043300
  H     19.077500  -11.029900   74.625200
  H     17.575400  -10.349500   74.258300
  H     18.628300   -9.402440   75.022900
  S     12.863700  -15.054800   79.941000
  C     11.163100  -15.297000   79.597700
  C     10.777700  -14.558200   78.501800
  C     11.785600  -13.707500   78.023600
  C     12.939000  -13.678500   78.811200
  H      9.793670  -14.561200   78.159400
  C     11.468200  -12.807400   76.876500
  H     12.211200  -12.086500   76.688200
  H     10.553900  -12.279900   77.228900
  C     11.272600  -13.590400   75.549000
  H     10.310900  -14.091500   75.582200
  H     12.048500  -14.310700   75.382900
  C     11.234200  -12.577500   74.366900
  H     10.458900  -11.887400   74.553100
  H     11.172700  -13.082400   73.414100
  H     12.211300  -12.004200   74.315600
  H     17.274900  -11.258200   79.093600
  H     10.454100  -15.891600   80.188800

 Total Charge           Charge          ....    0
 Multiplicity           Mult            ....    1
 Number of Electrons    NEL             ....  134
 Basis Dimension        Dim             ....  322

ORBITAL ENERGIES
----------------

  NO   OCC          E(Eh)            E(eV)
   0   2.0000     -88.965278     -2420.8683
   1   2.0000     -88.961272     -2420.7593
   2   2.0000     -10.327254      -281.0189
   3   2.0000     -10.324425      -280.9419
   4   2.0000     -10.318051      -280.7685
   5   2.0000     -10.312442      -280.6158
   6   2.0000     -10.298362      -280.2327
   7   2.0000     -10.296671      -280.1867
   8   2.0000     -10.291997      -280.0595
   9   2.0000     -10.291385      -280.0428
  10   2.0000     -10.288197      -279.9561
  11   2.0000     -10.287977      -279.9501
  12   2.0000     -10.287493      -279.9369
  13   2.0000     -10.285106      -279.8720
  14   2.0000     -10.280049      -279.7344
  15   2.0000     -10.270278      -279.4685
  16   2.0000      -8.079916      -219.8657
  17   2.0000      -8.075653      -219.7497
  18   2.0000      -6.038337      -164.3115
  19   2.0000      -6.034442      -164.2055
  20   2.0000      -6.034216      -164.1994
  21   2.0000      -6.030769      -164.1056
  22   2.0000      -6.030279      -164.0922
  23   2.0000      -6.026296      -163.9839
  24   2.0000      -1.004570       -27.3357
  25   2.0000      -0.984514       -26.7900
  26   2.0000      -0.919990       -25.0342
  27   2.0000      -0.910523       -24.7766
  28   2.0000      -0.871124       -23.7045
  29   2.0000      -0.856202       -23.2984
  30   2.0000      -0.849566       -23.1179
  31   2.0000      -0.816864       -22.2280
  32   2.0000      -0.781220       -21.2581
  33   2.0000      -0.765984       -20.8435
  34   2.0000      -0.708667       -19.2838
  35   2.0000      -0.705064       -19.1858
  36   2.0000      -0.695196       -18.9173
  37   2.0000      -0.664155       -18.0726
  38   2.0000      -0.641493       -17.4559
  39   2.0000      -0.617514       -16.8034
  40   2.0000      -0.597908       -16.2699
  41   2.0000      -0.576474       -15.6867
  42   2.0000      -0.571480       -15.5508
  43   2.0000      -0.569690       -15.5021
  44   2.0000      -0.530371       -14.4321
  45   2.0000      -0.525376       -14.2962
  46   2.0000      -0.522372       -14.2145
  47   2.0000      -0.510590       -13.8938
  48   2.0000      -0.507244       -13.8028
  49   2.0000      -0.495696       -13.4886
  50   2.0000      -0.487819       -13.2742
  51   2.0000      -0.476767       -12.9735
  52   2.0000      -0.475942       -12.9510
  53   2.0000      -0.465753       -12.6738
  54   2.0000      -0.461618       -12.5613
  55   2.0000      -0.448620       -12.2076
  56   2.0000      -0.443924       -12.0798
  57   2.0000      -0.441755       -12.0208
  58   2.0000      -0.430554       -11.7160
  59   2.0000      -0.428048       -11.6478
  60   2.0000      -0.426315       -11.6006
  61   2.0000      -0.421092       -11.4585
  62   2.0000      -0.411021       -11.1845
  63   2.0000      -0.345375        -9.3981
  64   2.0000      -0.328882        -8.9493
  65   2.0000      -0.325871        -8.8674
  66   2.0000      -0.291385        -7.9290
  67   0.0000       0.030186         0.8214
  68   0.0000       0.065286         1.7765
  69   0.0000       0.112561         3.0629
  70   0.0000       0.120935         3.2908
  71   0.0000       0.126028         3.4294

MULLIKEN ATOMIC CHARGES
-----------------------
   0 S :    0.120198
   1 C :   -0.120611
   2 C :   -0.078995
   3 C :    0.065745
   4 C :   -0.191509
   5 H :   -0.018041
   6 C :    0.051143
   7 H :    0.024262
   8 H :    0.043507
   9 C :   -0.086405
  10 H :    0.038051
  11 H :    0.036172
  12 C :   -0.025820
  13 H :    0.028877
  14 H :    0.011332
  15 H :    0.015239
  16 S :    0.093876
  17 C :   -0.087458
  18 C :   -0.013663
  19 C :   -0.035393
  20 C :   -0.119789
  21 H :   -0.005293
  22 C :    0.053131
  23 H :    0.003217
  24 H :    0.042389
  25 C :   -0.084612
  26 H :    0.030321
  27 H :    0.034539
  28 C :   -0.039097
  29 H :    0.027295
  30 H :    0.036291
  31 H :    0.029691
  32 H :    0.057887
  33 H :    0.063522
Sum of atomic charges:   -0.0000000

LOEWDIN ATOMIC CHARGES
----------------------
   0 S :    0.402875
   1 C :   -0.203280
   2 C :   -0.073647
   3 C :   -0.048030
   4 C :   -0.184788
   5 H :    0.023019
   6 C :   -0.038042
   7 H :    0.033917
   8 H :    0.038381
   9 C :   -0.043934
  10 H :    0.028313
  11 H :    0.028327
  12 C :   -0.066950
  13 H :    0.027425
  14 H :    0.017967
  15 H :    0.027073
  16 S :    0.390341
  17 C :   -0.177531
  18 C :   -0.068178
  19 C :   -0.054054
  20 C :   -0.199420
  21 H :    0.021674
  22 C :   -0.029290
  23 H :    0.017953
  24 H :    0.039777
  25 C :   -0.031490
  26 H :    0.022241
  27 H :    0.020763
  28 C :   -0.061096
  29 H :    0.018866
  30 H :    0.024086
  31 H :    0.028139
  32 H :    0.033975
  33 H :    0.034620

  Mayer bond orders larger than 0.100000
B(  0-S ,  1-C ) :   1.1547 B(  0-S ,  4-C ) :   1.1347 B(  1-C ,  2-C ) :   1.6150
B(  1-C , 32-H ) :   0.9571 B(  2-C ,  3-C ) :   1.2331 B(  2-C ,  6-C ) :   1.0252
B(  3-C ,  4-C ) :   1.6026 B(  3-C ,  5-H ) :   0.9986 B(  4-C , 20-C ) :   1.0222
B(  6-C ,  7-H ) :   0.9543 B(  6-C ,  8-H ) :   0.9181 B(  6-C ,  9-C ) :   1.0799
B(  9-C , 10-H ) :   0.9547 B(  9-C , 11-H ) :   0.9424 B(  9-C , 12-C ) :   1.1026
B( 12-C , 13-H ) :   0.9714 B( 12-C , 14-H ) :   0.9692 B( 12-C , 15-H ) :   0.9648
B( 16-S , 17-C ) :   1.1602 B( 16-S , 20-C ) :   1.1275 B( 17-C , 18-C ) :   1.5930
B( 17-C , 20-C ) :   0.1042 B( 17-C , 33-H ) :   0.9638 B( 18-C , 19-C ) :   1.2420
B( 18-C , 21-H ) :   1.0016 B( 19-C , 20-C ) :   1.5844 B( 19-C , 22-C ) :   1.0535
B( 22-C , 23-H ) :   0.9432 B( 22-C , 24-H ) :   0.9353 B( 22-C , 25-C ) :   1.0471
B( 25-C , 26-H ) :   0.9524 B( 25-C , 27-H ) :   0.9610 B( 25-C , 28-C ) :   1.0892
B( 28-C , 29-H ) :   0.9739 B( 28-C , 30-H ) :   0.9755 B( 28-C , 31-H ) :   0.9754

Dispersion correction           -0.013846067
FINAL SINGLE POINT ENERGY     -1339.875444459506

DIPOLE MOMENT
-------------
                                X             Y             Z
Electronic contribution:     -4.45323     -11.93856      28.48513
Nuclear contribution   :      4.35618      12.23055     -29.22862
                        -----------------------------------------
Total Dipole Moment    :     -0.09704       0.29199      -0.74349
                        -----------------------------------------
Magnitude (a.u.)       :      0.80464
Magnitude (Debye)      :      2.04524

Rotational constants in cm-1:     0.018494     0.008428     0.006170
Rotational constants in MHz :   554.432943   252.654880   184.974628

                             ****ORCA TERMINATED NORMALLY****
TOTAL RUN TIME: 0 days 0 hours 0 minutes 29 seconds 929 msec
