                         Program Version 4.2.1 -  RELEASE  -
|  1> ! wB97X-D3 SP def2-SVP
|  2> %pal
|  3> nprocs 16
|  4> end
|  5>
|  6> * xyz 0 1
|  7> S 	 -42.5033 	 54.9943 	 105.863
|  8> C 	 -41.0667 	 55.814 	 105.919
|  9> C 	 -39.9136 	 55.0189 	 105.774
| 10> C 	 -40.2776 	 53.6378 	 105.688
| 11> C 	 -41.6458 	 53.3908 	 105.766
| 12> H 	 -39.6237 	 52.7944 	 105.465
| 13> C 	 -38.5 	 55.4268 	 105.48
| 14> H 	 -38.4513 	 56.4082 	 105.821
| 15> H 	 -38.2909 	 55.4905 	 104.415
| 16> C 	 -37.3583 	 54.4764 	 106.08
| 17> H 	 -37.6933 	 53.4609 	 105.784
| 18> H 	 -36.4213 	 54.6262 	 105.49
| 19> C 	 -36.9142 	 54.486 	 107.598
| 20> H 	 -35.924 	 54.0664 	 107.654
| 21> H 	 -36.8178 	 55.5683 	 107.965
| 22> H 	 -37.6258 	 53.9051 	 108.181
| 23> S 	 -44.0626 	 52.2713 	 106.39
| 24> C 	 -44.2757 	 50.4915 	 106.163
| 25> C 	 -43.1601 	 49.8594 	 105.647
| 26> C 	 -42.078 	 50.7652 	 105.418
| 27> C 	 -42.3859 	 52.0934 	 105.787
| 28> H 	 -43.168 	 48.8141 	 105.546
| 29> C 	 -40.7172 	 50.2677 	 104.835
| 30> H 	 -40.5139 	 51.0173 	 104.07
| 31> H 	 -40.8418 	 49.4215 	 104.199
| 32> C 	 -39.6979 	 49.93 	 105.81
| 33> H 	 -40.0994 	 49.1426 	 106.5
| 34> H 	 -39.4712 	 50.7859 	 106.492
| 35> C 	 -38.4049 	 49.2716 	 105.261
| 36> H 	 -37.8652 	 49.9421 	 104.49
| 37> H 	 -38.7084 	 48.221 	 104.827
| 38> H 	 -37.7449 	 49.0774 	 106.089
| 39> H 	 -40.9684 	 56.8162 	 106.091
| 40> H 	 -45.1989 	 50.0276 	 106.467
| 41> *
| 42>
| 43>                          ****END OF INPUT****

CARTESIAN COORDINATES (ANGSTROEM)
---------------------------------
  S    -42.503300   54.994300  105.863000
  C    -41.066700   55.814000  105.919000
  C    -39.913600   55.018900  105.774000
  C    -40.277600   53.637800  105.688000
  C    -41.645800   53.390800  105.766000
  H    -39.623700   52.794400  105.465000
  C    -38.500000   55.426800  105.480000
  H    -38.451300   56.408200  105.821000
  H    -38.290900   55.490500  104.415000
  C    -37.358300   54.476400  106.080000
  H    -37.693300   53.460900  105.784000
  H    -36.421300   54.626200  105.490000
  C    -36.914200   54.486000  107.598000
  H    -35.924000   54.066400  107.654000
  H    -36.817800   55.568300  107.965000
  H    -37.625800   53.905100  108.181000
  S    -44.062600   52.271300  106.390000
  C    -44.275700   50.491500  106.163000
  C    -43.160100   49.859400  105.647000
  C    -42.078000   50.765200  105.418000
  C    -42.385900   52.093400  105.787000
  H    -43.168000   48.814100  105.546000
  C    -40.717200   50.267700  104.835000
  H    -40.513900   51.017300  104.070000
  H    -40.841800   49.421500  104.199000
  C    -39.697900   49.930000  105.810000
  H    -40.099400   49.142600  106.500000
  H    -39.471200   50.785900  106.492000
  C    -38.404900   49.271600  105.261000
  H    -37.865200   49.942100  104.490000
  H    -38.708400   48.221000  104.827000
  H    -37.744900   49.077400  106.089000
  H    -40.968400   56.816200  106.091000
  H    -45.198900   50.027600  106.467000

 Total Charge           Charge          ....    0
 Multiplicity           Mult            ....    1
 Number of Electrons    NEL             ....  134
 Basis Dimension        Dim             ....  322

ORBITAL ENERGIES
----------------

  NO   OCC          E(Eh)            E(eV)
   0   2.0000     -88.969428     -2420.9812
   1   2.0000     -88.966720     -2420.9075
   2   2.0000     -10.338560      -281.3265
   3   2.0000     -10.336650      -281.2746
   4   2.0000     -10.321429      -280.8604
   5   2.0000     -10.311594      -280.5927
   6   2.0000     -10.306542      -280.4553
   7   2.0000     -10.300143      -280.2811
   8   2.0000     -10.297887      -280.2198
   9   2.0000     -10.297216      -280.2015
  10   2.0000     -10.295944      -280.1669
  11   2.0000     -10.293534      -280.1013
  12   2.0000     -10.291449      -280.0446
  13   2.0000     -10.291259      -280.0394
  14   2.0000     -10.290427      -280.0168
  15   2.0000     -10.286239      -279.9028
  16   2.0000      -8.084688      -219.9955
  17   2.0000      -8.080162      -219.8724
  18   2.0000      -6.043189      -164.4435
  19   2.0000      -6.039128      -164.3330
  20   2.0000      -6.038724      -164.3220
  21   2.0000      -6.035418      -164.2321
  22   2.0000      -6.035073      -164.2227
  23   2.0000      -6.030733      -164.1046
  24   2.0000      -1.001316       -27.2472
  25   2.0000      -0.978588       -26.6287
  26   2.0000      -0.916006       -24.9258
  27   2.0000      -0.900781       -24.5115
  28   2.0000      -0.867856       -23.6156
  29   2.0000      -0.850315       -23.1382
  30   2.0000      -0.841734       -22.9047
  31   2.0000      -0.816227       -22.2107
  32   2.0000      -0.782895       -21.3037
  33   2.0000      -0.771344       -20.9893
  34   2.0000      -0.707236       -19.2449
  35   2.0000      -0.695998       -18.9391
  36   2.0000      -0.689766       -18.7695
  37   2.0000      -0.666346       -18.1322
  38   2.0000      -0.641909       -17.4672
  39   2.0000      -0.624537       -16.9945
  40   2.0000      -0.597658       -16.2631
  41   2.0000      -0.570363       -15.5204
  42   2.0000      -0.561976       -15.2921
  43   2.0000      -0.541818       -14.7436
  44   2.0000      -0.534266       -14.5381
  45   2.0000      -0.530705       -14.4412
  46   2.0000      -0.517422       -14.0798
  47   2.0000      -0.511310       -13.9135
  48   2.0000      -0.504132       -13.7181
  49   2.0000      -0.497406       -13.5351
  50   2.0000      -0.493885       -13.4393
  51   2.0000      -0.479411       -13.0454
  52   2.0000      -0.472819       -12.8661
  53   2.0000      -0.460933       -12.5426
  54   2.0000      -0.459439       -12.5020
  55   2.0000      -0.450538       -12.2598
  56   2.0000      -0.445745       -12.1293
  57   2.0000      -0.439318       -11.9544
  58   2.0000      -0.432508       -11.7691
  59   2.0000      -0.422613       -11.4999
  60   2.0000      -0.416948       -11.3457
  61   2.0000      -0.416203       -11.3255
  62   2.0000      -0.406004       -11.0479
  63   2.0000      -0.361969        -9.8497
  64   2.0000      -0.338391        -9.2081
  65   2.0000      -0.325729        -8.8635
  66   2.0000      -0.277881        -7.5615
  67   0.0000       0.017794         0.4842
  68   0.0000       0.075956         2.0669
  69   0.0000       0.089699         2.4408
  70   0.0000       0.114913         3.1269
  71   0.0000       0.120940         3.2910

MULLIKEN ATOMIC CHARGES
-----------------------
   0 S :    0.117989
   1 C :   -0.065253
   2 C :   -0.093369
   3 C :   -0.017745
   4 C :   -0.122537
   5 H :    0.010192
   6 C :    0.111599
   7 H :   -0.006608
   8 H :    0.046668
   9 C :   -0.135520
  10 H :    0.024483
  11 H :    0.029828
  12 C :   -0.044543
  13 H :    0.035621
  14 H :    0.043271
  15 H :    0.048035
  16 S :    0.073065
  17 C :   -0.092454
  18 C :    0.004611
  19 C :   -0.077208
  20 C :   -0.120106
  21 H :    0.005263
  22 C :    0.098179
  23 H :    0.030402
  24 H :   -0.005962
  25 C :   -0.089281
  26 H :    0.029697
  27 H :    0.035650
  28 C :   -0.079534
  29 H :    0.049291
  30 H :    0.047148
  31 H :    0.041639
  32 H :    0.012510
  33 H :    0.054981
Sum of atomic charges:    0.0000000

LOEWDIN ATOMIC CHARGES
----------------------
   0 S :    0.419754
   1 C :   -0.209391
   2 C :   -0.066967
   3 C :   -0.067627
   4 C :   -0.175021
   5 H :    0.029909
   6 C :   -0.026996
   7 H :    0.017984
   8 H :    0.039661
   9 C :   -0.046400
  10 H :    0.020445
  11 H :    0.025923
  12 C :   -0.066742
  13 H :    0.025633
  14 H :    0.034314
  15 H :    0.026422
  16 S :    0.360789
  17 C :   -0.158832
  18 C :   -0.061196
  19 C :   -0.052194
  20 C :   -0.172615
  21 H :    0.027717
  22 C :   -0.038718
  23 H :    0.032477
  24 H :    0.026446
  25 C :   -0.056141
  26 H :    0.033098
  27 H :    0.024527
  28 C :   -0.073265
  29 H :    0.031555
  30 H :    0.036216
  31 H :    0.024457
  32 H :    0.011199
  33 H :    0.023580

  Mayer bond orders larger than 0.100000
B(  0-S ,  1-C ) :   1.1712 B(  0-S ,  4-C ) :   1.1341 B(  1-C ,  2-C ) :   1.5787
B(  1-C , 32-H ) :   0.9702 B(  2-C ,  3-C ) :   1.2530 B(  2-C ,  6-C ) :   1.0289
B(  3-C ,  4-C ) :   1.5880 B(  3-C ,  5-H ) :   0.9778 B(  4-C , 20-C ) :   1.0662
B(  6-C ,  7-H ) :   0.9333 B(  6-C ,  8-H ) :   0.9384 B(  6-C ,  9-C ) :   1.0553
B(  9-C , 10-H ) :   0.9564 B(  9-C , 11-H ) :   0.9617 B(  9-C , 12-C ) :   1.0657
B( 12-C , 13-H ) :   0.9758 B( 12-C , 14-H ) :   0.9762 B( 12-C , 15-H ) :   0.9785
B( 16-S , 17-C ) :   1.1349 B( 16-S , 20-C ) :   1.1300 B( 17-C , 18-C ) :   1.6227
B( 17-C , 33-H ) :   0.9695 B( 18-C , 19-C ) :   1.2279 B( 18-C , 21-H ) :   0.9983
B( 19-C , 20-C ) :   1.6021 B( 19-C , 22-C ) :   1.0249 B( 22-C , 23-H ) :   0.9292
B( 22-C , 24-H ) :   0.9237 B( 22-C , 25-C ) :   1.0719 B( 25-C , 26-H ) :   0.9451
B( 25-C , 27-H ) :   0.9488 B( 25-C , 28-C ) :   1.0794 B( 28-C , 29-H ) :   0.9733
B( 28-C , 30-H ) :   0.9710 B( 28-C , 31-H ) :   0.9738

Dispersion correction           -0.014254475
FINAL SINGLE POINT ENERGY     -1339.857079983660

DIPOLE MOMENT
-------------
                                X             Y             Z
Electronic contribution:    -31.58266       9.26168       0.32473
Nuclear contribution   :     32.18340      -9.60290      -0.44932
                        -----------------------------------------
Total Dipole Moment    :      0.60074      -0.34122      -0.12459
                        -----------------------------------------
Magnitude (a.u.)       :      0.70203
Magnitude (Debye)      :      1.78441

Rotational constants in cm-1:     0.015973     0.010347     0.006703
Rotational constants in MHz :   478.856589   310.183449   200.962503

                             ****ORCA TERMINATED NORMALLY****
TOTAL RUN TIME: 0 days 0 hours 0 minutes 32 seconds 362 msec
