                         Program Version 4.2.1 -  RELEASE  -
|  1> ! wB97X-D3 SP def2-SVP
|  2> %pal
|  3> nprocs 16
|  4> end
|  5>
|  6> * xyz 0 1
|  7> S 	 16.8463 	 -0.391543 	 70.1405
|  8> C 	 16.8938 	 -0.4641 	 68.405
|  9> C 	 18.1384 	 -0.150977 	 67.8687
| 10> C 	 18.9529 	 0.550458 	 68.8013
| 11> C 	 18.3597 	 0.597192 	 70.0688
| 12> H 	 19.9789 	 0.905044 	 68.5356
| 13> C 	 18.5821 	 -0.430584 	 66.4445
| 14> H 	 19.3455 	 0.340643 	 66.2804
| 15> H 	 17.7321 	 -0.0923822 	 65.8656
| 16> C 	 18.9057 	 -1.88333 	 65.9529
| 17> H 	 19.5213 	 -1.81454 	 65.1467
| 18> H 	 19.4749 	 -2.32243 	 66.7275
| 19> C 	 17.6918 	 -2.82431 	 65.7913
| 20> H 	 18.0035 	 -3.81839 	 65.5168
| 21> H 	 17.1363 	 -2.8631 	 66.7534
| 22> H 	 17.0519 	 -2.48756 	 64.9923
| 23> S 	 18.8446 	 -0.00523621 	 72.6956
| 24> C 	 19.5069 	 1.11502 	 73.754
| 25> C 	 19.5471 	 2.36716 	 73.1568
| 26> C 	 19.3829 	 2.28059 	 71.7583
| 27> C 	 18.9241 	 1.08956 	 71.3484
| 28> H 	 19.7346 	 3.19503 	 73.8115
| 29> C 	 19.4116 	 3.57211 	 70.8878
| 30> H 	 19.9505 	 3.58815 	 69.984
| 31> H 	 19.8644 	 4.42963 	 71.4604
| 32> C 	 18.0588 	 4.12253 	 70.4765
| 33> H 	 17.6341 	 3.40885 	 69.7554
| 34> H 	 18.3108 	 5.05438 	 69.851
| 35> C 	 17.1406 	 4.58821 	 71.5997
| 36> H 	 17.5329 	 5.48287 	 72.0991
| 37> H 	 17.0665 	 3.77025 	 72.3537
| 38> H 	 16.1369 	 4.93792 	 71.332
| 39> H 	 16.0657 	 -0.894038 	 67.9048
| 40> H 	 19.7393 	 0.833411 	 74.8381
| 41> *
| 42>
| 43>                          ****END OF INPUT****

CARTESIAN COORDINATES (ANGSTROEM)
---------------------------------
  S     16.846300   -0.391543   70.140500
  C     16.893800   -0.464100   68.405000
  C     18.138400   -0.150977   67.868700
  C     18.952900    0.550458   68.801300
  C     18.359700    0.597192   70.068800
  H     19.978900    0.905044   68.535600
  C     18.582100   -0.430584   66.444500
  H     19.345500    0.340643   66.280400
  H     17.732100   -0.092382   65.865600
  C     18.905700   -1.883330   65.952900
  H     19.521300   -1.814540   65.146700
  H     19.474900   -2.322430   66.727500
  C     17.691800   -2.824310   65.791300
  H     18.003500   -3.818390   65.516800
  H     17.136300   -2.863100   66.753400
  H     17.051900   -2.487560   64.992300
  S     18.844600   -0.005236   72.695600
  C     19.506900    1.115020   73.754000
  C     19.547100    2.367160   73.156800
  C     19.382900    2.280590   71.758300
  C     18.924100    1.089560   71.348400
  H     19.734600    3.195030   73.811500
  C     19.411600    3.572110   70.887800
  H     19.950500    3.588150   69.984000
  H     19.864400    4.429630   71.460400
  C     18.058800    4.122530   70.476500
  H     17.634100    3.408850   69.755400
  H     18.310800    5.054380   69.851000
  C     17.140600    4.588210   71.599700
  H     17.532900    5.482870   72.099100
  H     17.066500    3.770250   72.353700
  H     16.136900    4.937920   71.332000
  H     16.065700   -0.894038   67.904800
  H     19.739300    0.833411   74.838100

 Total Charge           Charge          ....    0
 Multiplicity           Mult            ....    1
 Number of Electrons    NEL             ....  134
 Basis Dimension        Dim             ....  322

ORBITAL ENERGIES
----------------

  NO   OCC          E(Eh)            E(eV)
   0   2.0000     -88.969086     -2420.9719
   1   2.0000     -88.961368     -2420.7619
   2   2.0000     -10.339032      -281.3394
   3   2.0000     -10.321665      -280.8668
   4   2.0000     -10.316006      -280.7128
   5   2.0000     -10.310458      -280.5618
   6   2.0000     -10.302440      -280.3436
   7   2.0000     -10.302159      -280.3360
   8   2.0000     -10.300177      -280.2821
   9   2.0000     -10.292574      -280.0752
  10   2.0000     -10.290794      -280.0267
  11   2.0000     -10.288519      -279.9648
  12   2.0000     -10.283788      -279.8361
  13   2.0000     -10.280792      -279.7546
  14   2.0000     -10.280252      -279.7399
  15   2.0000     -10.273964      -279.5688
  16   2.0000      -8.083189      -219.9547
  17   2.0000      -8.078117      -219.8167
  18   2.0000      -6.041625      -164.4010
  19   2.0000      -6.038119      -164.3056
  20   2.0000      -6.036434      -164.2597
  21   2.0000      -6.033736      -164.1863
  22   2.0000      -6.032287      -164.1469
  23   2.0000      -6.029015      -164.0578
  24   2.0000      -1.015111       -27.6226
  25   2.0000      -0.986690       -26.8492
  26   2.0000      -0.907874       -24.7045
  27   2.0000      -0.906855       -24.6768
  28   2.0000      -0.865784       -23.5592
  29   2.0000      -0.854356       -23.2482
  30   2.0000      -0.845634       -23.0109
  31   2.0000      -0.811650       -22.0861
  32   2.0000      -0.784790       -21.3552
  33   2.0000      -0.774662       -21.0796
  34   2.0000      -0.711652       -19.3650
  35   2.0000      -0.699657       -19.0386
  36   2.0000      -0.679061       -18.4782
  37   2.0000      -0.664156       -18.0726
  38   2.0000      -0.638939       -17.3864
  39   2.0000      -0.619491       -16.8572
  40   2.0000      -0.597626       -16.2622
  41   2.0000      -0.571485       -15.5509
  42   2.0000      -0.552708       -15.0399
  43   2.0000      -0.544186       -14.8081
  44   2.0000      -0.541201       -14.7268
  45   2.0000      -0.538059       -14.6413
  46   2.0000      -0.514726       -14.0064
  47   2.0000      -0.508676       -13.8418
  48   2.0000      -0.499127       -13.5819
  49   2.0000      -0.491505       -13.3745
  50   2.0000      -0.486432       -13.2365
  51   2.0000      -0.476991       -12.9796
  52   2.0000      -0.472608       -12.8603
  53   2.0000      -0.470889       -12.8135
  54   2.0000      -0.457941       -12.4612
  55   2.0000      -0.452167       -12.3041
  56   2.0000      -0.444162       -12.0863
  57   2.0000      -0.442372       -12.0376
  58   2.0000      -0.429900       -11.6982
  59   2.0000      -0.424658       -11.5555
  60   2.0000      -0.419547       -11.4165
  61   2.0000      -0.413420       -11.2497
  62   2.0000      -0.402094       -10.9415
  63   2.0000      -0.351606        -9.5677
  64   2.0000      -0.332136        -9.0379
  65   2.0000      -0.330893        -9.0041
  66   2.0000      -0.284122        -7.7313
  67   0.0000       0.028834         0.7846
  68   0.0000       0.056805         1.5457
  69   0.0000       0.106818         2.9067
  70   0.0000       0.120874         3.2891
  71   0.0000       0.136595         3.7169

MULLIKEN ATOMIC CHARGES
-----------------------
   0 S :    0.101423
   1 C :   -0.116325
   2 C :   -0.104913
   3 C :    0.015839
   4 C :   -0.134328
   5 H :    0.035759
   6 C :    0.047693
   7 H :    0.017957
   8 H :    0.022896
   9 C :    0.013226
  10 H :    0.011671
  11 H :    0.017660
  12 C :   -0.063075
  13 H :    0.033242
  14 H :    0.043897
  15 H :    0.027169
  16 S :    0.105433
  17 C :   -0.132955
  18 C :   -0.041998
  19 C :   -0.011550
  20 C :   -0.142421
  21 H :    0.018487
  22 C :    0.068345
  23 H :    0.015640
  24 H :    0.014502
  25 C :   -0.108713
  26 H :    0.045071
  27 H :    0.028182
  28 C :   -0.051346
  29 H :    0.018715
  30 H :    0.045738
  31 H :    0.034231
  32 H :    0.037877
  33 H :    0.086975
Sum of atomic charges:    0.0000000

LOEWDIN ATOMIC CHARGES
----------------------
   0 S :    0.387434
   1 C :   -0.194699
   2 C :   -0.062596
   3 C :   -0.066104
   4 C :   -0.166427
   5 H :    0.042447
   6 C :   -0.035171
   7 H :    0.030645
   8 H :    0.031938
   9 C :   -0.024201
  10 H :    0.012646
  11 H :    0.022634
  12 C :   -0.060692
  13 H :    0.026360
  14 H :    0.031106
  15 H :    0.020189
  16 S :    0.434021
  17 C :   -0.217692
  18 C :   -0.073408
  19 C :   -0.065211
  20 C :   -0.201610
  21 H :    0.030484
  22 C :   -0.030533
  23 H :    0.024636
  24 H :    0.031869
  25 C :   -0.047299
  26 H :    0.023908
  27 H :    0.028954
  28 C :   -0.074950
  29 H :    0.023764
  30 H :    0.029758
  31 H :    0.027609
  32 H :    0.014778
  33 H :    0.045412

  Mayer bond orders larger than 0.100000
B(  0-S ,  1-C ) :   1.1382 B(  0-S ,  4-C ) :   1.1449 B(  1-C ,  2-C ) :   1.5925
B(  1-C ,  4-C ) :   0.1037 B(  1-C , 32-H ) :   0.9743 B(  2-C ,  3-C ) :   1.2539
B(  2-C ,  6-C ) :   1.0149 B(  3-C ,  4-C ) :   1.5631 B(  3-C ,  5-H ) :   0.9849
B(  4-C , 20-C ) :   1.0311 B(  6-C ,  7-H ) :   0.9428 B(  6-C ,  8-H ) :   0.9387
B(  6-C ,  9-C ) :   1.0453 B(  9-C , 10-H ) :   0.9565 B(  9-C , 11-H ) :   0.9571
B(  9-C , 12-C ) :   1.0772 B( 12-C , 13-H ) :   0.9729 B( 12-C , 14-H ) :   0.9735
B( 12-C , 15-H ) :   0.9771 B( 16-S , 17-C ) :   1.1889 B( 16-S , 20-C ) :   1.1499
B( 17-C , 18-C ) :   1.5728 B( 17-C , 33-H ) :   0.9597 B( 18-C , 19-C ) :   1.2432
B( 18-C , 21-H ) :   0.9995 B( 19-C , 20-C ) :   1.6048 B( 19-C , 22-C ) :   1.0342
B( 22-C , 23-H ) :   0.9382 B( 22-C , 24-H ) :   0.9398 B( 22-C , 25-C ) :   1.0772
B( 25-C , 26-H ) :   0.9552 B( 25-C , 27-H ) :   0.9535 B( 25-C , 28-C ) :   1.0696
B( 28-C , 29-H ) :   0.9713 B( 28-C , 30-H ) :   0.9760 B( 28-C , 31-H ) :   0.9737

Dispersion correction           -0.014862874
FINAL SINGLE POINT ENERGY     -1339.857858367395

DIPOLE MOMENT
-------------
                                X             Y             Z
Electronic contribution:      0.09593      -7.86200      17.46205
Nuclear contribution   :      0.09028       7.98635     -17.83346
                        -----------------------------------------
Total Dipole Moment    :      0.18621       0.12435      -0.37141
                        -----------------------------------------
Magnitude (a.u.)       :      0.43369
Magnitude (Debye)      :      1.10234

Rotational constants in cm-1:     0.024103     0.007701     0.006816
Rotational constants in MHz :   722.582665   230.883923   204.343688

                             ****ORCA TERMINATED NORMALLY****
TOTAL RUN TIME: 0 days 0 hours 0 minutes 33 seconds 186 msec
