                         Program Version 4.2.1 -  RELEASE  -
|  1> ! wB97X-D3 SP def2-SVP
|  2> %pal
|  3> nprocs 16
|  4> end
|  5>
|  6> * xyz 0 1
|  7> S 	 22.6832 	 31.2805 	 56.9472
|  8> C 	 21.3894 	 32.1128 	 57.8025
|  9> C 	 21.7896 	 33.3203 	 58.4742
| 10> C 	 23.1615 	 33.5553 	 58.1965
| 11> C 	 23.7762 	 32.624 	 57.4057
| 12> H 	 23.7553 	 34.3238 	 58.592
| 13> C 	 20.935 	 34.3378 	 59.1335
| 14> H 	 20.2167 	 34.5955 	 58.3908
| 15> H 	 21.4705 	 35.2649 	 59.4672
| 16> C 	 20.0447 	 33.8398 	 60.3182
| 17> H 	 19.4515 	 32.9797 	 59.9754
| 18> H 	 20.6972 	 33.5444 	 61.1062
| 19> C 	 19.0817 	 34.8134 	 60.9577
| 20> H 	 18.3999 	 35.3461 	 60.3138
| 21> H 	 18.4337 	 34.2547 	 61.6667
| 22> H 	 19.7265 	 35.5207 	 61.5325
| 23> S 	 26.6138 	 32.7404 	 57.8684
| 24> C 	 27.5546 	 32.4194 	 56.4367
| 25> C 	 26.8298 	 32.4572 	 55.2254
| 26> C 	 25.4582 	 32.6551 	 55.4604
| 27> C 	 25.1336 	 32.7073 	 56.834
| 28> H 	 27.2611 	 32.325 	 54.2688
| 29> C 	 24.4937 	 32.6482 	 54.2656
| 30> H 	 23.5361 	 33.0945 	 54.4753
| 31> H 	 24.3127 	 31.5194 	 54.1305
| 32> C 	 24.9479 	 33.3132 	 52.9471
| 33> H 	 25.7243 	 32.6702 	 52.6391
| 34> H 	 25.4819 	 34.2312 	 53.1639
| 35> C 	 23.8344 	 33.5506 	 51.8997
| 36> H 	 23.0625 	 32.7156 	 51.823
| 37> H 	 24.307 	 33.5554 	 50.8736
| 38> H 	 23.3216 	 34.5178 	 51.9284
| 39> H 	 20.3299 	 31.7613 	 57.5548
| 40> H 	 28.6431 	 32.1521 	 56.2831
| 41> *
| 42>
| 43>                          ****END OF INPUT****

CARTESIAN COORDINATES (ANGSTROEM)
---------------------------------
  S     22.683200   31.280500   56.947200
  C     21.389400   32.112800   57.802500
  C     21.789600   33.320300   58.474200
  C     23.161500   33.555300   58.196500
  C     23.776200   32.624000   57.405700
  H     23.755300   34.323800   58.592000
  C     20.935000   34.337800   59.133500
  H     20.216700   34.595500   58.390800
  H     21.470500   35.264900   59.467200
  C     20.044700   33.839800   60.318200
  H     19.451500   32.979700   59.975400
  H     20.697200   33.544400   61.106200
  C     19.081700   34.813400   60.957700
  H     18.399900   35.346100   60.313800
  H     18.433700   34.254700   61.666700
  H     19.726500   35.520700   61.532500
  S     26.613800   32.740400   57.868400
  C     27.554600   32.419400   56.436700
  C     26.829800   32.457200   55.225400
  C     25.458200   32.655100   55.460400
  C     25.133600   32.707300   56.834000
  H     27.261100   32.325000   54.268800
  C     24.493700   32.648200   54.265600
  H     23.536100   33.094500   54.475300
  H     24.312700   31.519400   54.130500
  C     24.947900   33.313200   52.947100
  H     25.724300   32.670200   52.639100
  H     25.481900   34.231200   53.163900
  C     23.834400   33.550600   51.899700
  H     23.062500   32.715600   51.823000
  H     24.307000   33.555400   50.873600
  H     23.321600   34.517800   51.928400
  H     20.329900   31.761300   57.554800
  H     28.643100   32.152100   56.283100

 Total Charge           Charge          ....    0
 Multiplicity           Mult            ....    1
 Number of Electrons    NEL             ....  134
 Basis Dimension        Dim             ....  322

ORBITAL ENERGIES
----------------

  NO   OCC          E(Eh)            E(eV)
   0   2.0000     -88.974203     -2421.1111
   1   2.0000     -88.968128     -2420.9458
   2   2.0000     -10.327897      -281.0364
   3   2.0000     -10.326853      -281.0080
   4   2.0000     -10.323747      -280.9234
   5   2.0000     -10.323440      -280.9151
   6   2.0000     -10.307284      -280.4754
   7   2.0000     -10.304265      -280.3933
   8   2.0000     -10.293433      -280.0986
   9   2.0000     -10.292976      -280.0861
  10   2.0000     -10.291151      -280.0365
  11   2.0000     -10.289739      -279.9980
  12   2.0000     -10.286777      -279.9174
  13   2.0000     -10.286173      -279.9010
  14   2.0000     -10.282620      -279.8043
  15   2.0000     -10.280907      -279.7577
  16   2.0000      -8.087461      -220.0710
  17   2.0000      -8.081644      -219.9127
  18   2.0000      -6.046004      -164.5201
  19   2.0000      -6.042323      -164.4200
  20   2.0000      -6.040066      -164.3586
  21   2.0000      -6.038144      -164.3062
  22   2.0000      -6.036424      -164.2595
  23   2.0000      -6.032489      -164.1524
  24   2.0000      -0.996065       -27.1043
  25   2.0000      -0.975706       -26.5503
  26   2.0000      -0.910158       -24.7667
  27   2.0000      -0.904513       -24.6131
  28   2.0000      -0.860321       -23.4105
  29   2.0000      -0.854165       -23.2430
  30   2.0000      -0.848647       -23.0928
  31   2.0000      -0.809919       -22.0390
  32   2.0000      -0.781525       -21.2664
  33   2.0000      -0.761978       -20.7345
  34   2.0000      -0.704683       -19.1754
  35   2.0000      -0.696455       -18.9515
  36   2.0000      -0.687972       -18.7207
  37   2.0000      -0.655295       -17.8315
  38   2.0000      -0.639991       -17.4150
  39   2.0000      -0.615597       -16.7512
  40   2.0000      -0.592026       -16.1098
  41   2.0000      -0.576298       -15.6819
  42   2.0000      -0.562058       -15.2944
  43   2.0000      -0.554488       -15.0884
  44   2.0000      -0.521757       -14.1977
  45   2.0000      -0.513086       -13.9618
  46   2.0000      -0.512825       -13.9547
  47   2.0000      -0.510268       -13.8851
  48   2.0000      -0.505040       -13.7428
  49   2.0000      -0.493526       -13.4295
  50   2.0000      -0.482780       -13.1371
  51   2.0000      -0.478969       -13.0334
  52   2.0000      -0.472454       -12.8561
  53   2.0000      -0.463407       -12.6100
  54   2.0000      -0.456186       -12.4134
  55   2.0000      -0.449957       -12.2439
  56   2.0000      -0.445110       -12.1121
  57   2.0000      -0.436806       -11.8861
  58   2.0000      -0.432943       -11.7810
  59   2.0000      -0.426817       -11.6143
  60   2.0000      -0.421950       -11.4818
  61   2.0000      -0.417792       -11.3687
  62   2.0000      -0.407951       -11.1009
  63   2.0000      -0.339856        -9.2480
  64   2.0000      -0.335014        -9.1162
  65   2.0000      -0.321031        -8.7357
  66   2.0000      -0.285111        -7.7583
  67   0.0000       0.026146         0.7115
  68   0.0000       0.058410         1.5894
  69   0.0000       0.102374         2.7857
  70   0.0000       0.106533         2.8989
  71   0.0000       0.131276         3.5722

MULLIKEN ATOMIC CHARGES
-----------------------
   0 S :    0.113661
   1 C :   -0.172411
   2 C :   -0.037233
   3 C :    0.034120
   4 C :   -0.162975
   5 H :   -0.009406
   6 C :    0.065570
   7 H :    0.028082
   8 H :    0.033465
   9 C :   -0.100377
  10 H :    0.028964
  11 H :    0.027396
  12 C :   -0.049085
  13 H :    0.028207
  14 H :    0.038559
  15 H :    0.032589
  16 S :    0.132121
  17 C :   -0.099634
  18 C :   -0.052018
  19 C :   -0.030997
  20 C :   -0.169298
  21 H :    0.008039
  22 C :    0.034837
  23 H :    0.028753
  24 H :    0.053648
  25 C :   -0.058413
  26 H :    0.019154
  27 H :    0.032714
  28 C :   -0.075787
  29 H :    0.044465
  30 H :    0.035086
  31 H :    0.047791
  32 H :    0.078229
  33 H :    0.072186
Sum of atomic charges:   -0.0000000

LOEWDIN ATOMIC CHARGES
----------------------
   0 S :    0.395846
   1 C :   -0.210589
   2 C :   -0.056750
   3 C :   -0.056039
   4 C :   -0.178098
   5 H :    0.024328
   6 C :   -0.035524
   7 H :    0.033509
   8 H :    0.035603
   9 C :   -0.040798
  10 H :    0.022362
  11 H :    0.021530
  12 C :   -0.066874
  13 H :    0.018800
  14 H :    0.033103
  15 H :    0.028048
  16 S :    0.397606
  17 C :   -0.197633
  18 C :   -0.073862
  19 C :   -0.048714
  20 C :   -0.199695
  21 H :    0.024781
  22 C :   -0.038735
  23 H :    0.022947
  24 H :    0.042643
  25 C :   -0.043805
  26 H :    0.015151
  27 H :    0.028007
  28 C :   -0.075645
  29 H :    0.033597
  30 H :    0.034884
  31 H :    0.029391
  32 H :    0.035773
  33 H :    0.044851

  Mayer bond orders larger than 0.100000
B(  0-S ,  1-C ) :   1.1567 B(  0-S ,  4-C ) :   1.1340 B(  1-C ,  2-C ) :   1.5648
B(  1-C , 32-H ) :   0.9558 B(  2-C ,  3-C ) :   1.2493 B(  2-C ,  6-C ) :   1.0311
B(  3-C ,  4-C ) :   1.5918 B(  3-C ,  5-H ) :   1.0002 B(  4-C , 20-C ) :   1.0367
B(  6-C ,  7-H ) :   0.9278 B(  6-C ,  8-H ) :   0.9482 B(  6-C ,  9-C ) :   1.0564
B(  9-C , 10-H ) :   0.9577 B(  9-C , 11-H ) :   0.9589 B(  9-C , 12-C ) :   1.0876
B( 12-C , 13-H ) :   0.9753 B( 12-C , 14-H ) :   0.9730 B( 12-C , 15-H ) :   0.9755
B( 16-S , 17-C ) :   1.1653 B( 16-S , 20-C ) :   1.1161 B( 17-C , 18-C ) :   1.6006
B( 17-C , 20-C ) :   0.1004 B( 17-C , 33-H ) :   0.9529 B( 18-C , 19-C ) :   1.2598
B( 18-C , 21-H ) :   0.9912 B( 19-C , 20-C ) :   1.5761 B( 19-C , 22-C ) :   1.0316
B( 22-C , 23-H ) :   0.9419 B( 22-C , 24-H ) :   0.9307 B( 22-C , 25-C ) :   1.0549
B( 25-C , 26-H ) :   0.9502 B( 25-C , 27-H ) :   0.9599 B( 25-C , 28-C ) :   1.0774
B( 28-C , 29-H ) :   0.9754 B( 28-C , 30-H ) :   0.9738 B( 28-C , 31-H ) :   0.9756

Dispersion correction           -0.013497794
FINAL SINGLE POINT ENERGY     -1339.856429761026

DIPOLE MOMENT
-------------
                                X             Y             Z
Electronic contribution:     17.25658     -11.16615       6.07563
Nuclear contribution   :    -17.49776      11.44937      -6.44999
                        -----------------------------------------
Total Dipole Moment    :     -0.24119       0.28322      -0.37436
                        -----------------------------------------
Magnitude (a.u.)       :      0.52776
Magnitude (Debye)      :      1.34146

Rotational constants in cm-1:     0.020062     0.006974     0.005837
Rotational constants in MHz :   601.454861   209.074200   174.989988

                             ****ORCA TERMINATED NORMALLY****
TOTAL RUN TIME: 0 days 0 hours 0 minutes 31 seconds 315 msec
