                         Program Version 4.2.1 -  RELEASE  -
|  1> ! wB97X-D3 SP def2-SVP
|  2> %pal
|  3> nprocs 16
|  4> end
|  5>
|  6> * xyz 0 1
|  7> S 	 2.96041 	 -12.4692 	 78.4165
|  8> C 	 3.4473 	 -12.7839 	 80.0309
|  9> C 	 2.71083 	 -11.9595 	 80.8667
| 10> C 	 1.7924 	 -11.1256 	 80.1593
| 11> C 	 1.81168 	 -11.2176 	 78.7831
| 12> H 	 1.20198 	 -10.3081 	 80.5683
| 13> C 	 2.85598 	 -11.8027 	 82.3058
| 14> H 	 2.05059 	 -11.0921 	 82.6366
| 15> H 	 3.80007 	 -11.2566 	 82.4071
| 16> C 	 3.08369 	 -12.9449 	 83.272
| 17> H 	 2.55863 	 -13.8467 	 83.0284
| 18> H 	 4.14696 	 -13.2797 	 83.0994
| 19> C 	 2.81637 	 -12.5598 	 84.6833
| 20> H 	 1.80907 	 -12.231 	 84.7682
| 21> H 	 2.95744 	 -13.4196 	 85.3141
| 22> H 	 3.42252 	 -11.6777 	 85.0958
| 23> S 	 2.05826 	 -9.07869 	 77.0724
| 24> C 	 0.645423 	 -8.36185 	 76.4106
| 25> C 	 -0.458967 	 -8.9694 	 76.8517
| 26> C 	 -0.259263 	 -10.0771 	 77.7283
| 27> C 	 1.11639 	 -10.338 	 77.8142
| 28> H 	 -1.36628 	 -8.65868 	 76.4165
| 29> C 	 -1.49539 	 -10.7997 	 78.3437
| 30> H 	 -2.31507 	 -10.0658 	 78.4847
| 31> H 	 -1.30768 	 -11.2254 	 79.3128
| 32> C 	 -2.11657 	 -11.8848 	 77.4018
| 33> H 	 -1.4376 	 -12.7343 	 77.3688
| 34> H 	 -2.29963 	 -11.3927 	 76.4263
| 35> C 	 -3.58095 	 -12.2348 	 77.7625
| 36> H 	 -3.55175 	 -12.7751 	 78.6956
| 37> H 	 -4.05327 	 -12.9027 	 76.9876
| 38> H 	 -4.266 	 -11.3473 	 77.7418
| 39> H 	 4.30313 	 -13.404 	 80.234
| 40> H 	 0.587284 	 -7.52338 	 75.7256
| 41> *
| 42>
| 43>                          ****END OF INPUT****

CARTESIAN COORDINATES (ANGSTROEM)
---------------------------------
  S      2.960410  -12.469200   78.416500
  C      3.447300  -12.783900   80.030900
  C      2.710830  -11.959500   80.866700
  C      1.792400  -11.125600   80.159300
  C      1.811680  -11.217600   78.783100
  H      1.201980  -10.308100   80.568300
  C      2.855980  -11.802700   82.305800
  H      2.050590  -11.092100   82.636600
  H      3.800070  -11.256600   82.407100
  C      3.083690  -12.944900   83.272000
  H      2.558630  -13.846700   83.028400
  H      4.146960  -13.279700   83.099400
  C      2.816370  -12.559800   84.683300
  H      1.809070  -12.231000   84.768200
  H      2.957440  -13.419600   85.314100
  H      3.422520  -11.677700   85.095800
  S      2.058260   -9.078690   77.072400
  C      0.645423   -8.361850   76.410600
  C     -0.458967   -8.969400   76.851700
  C     -0.259263  -10.077100   77.728300
  C      1.116390  -10.338000   77.814200
  H     -1.366280   -8.658680   76.416500
  C     -1.495390  -10.799700   78.343700
  H     -2.315070  -10.065800   78.484700
  H     -1.307680  -11.225400   79.312800
  C     -2.116570  -11.884800   77.401800
  H     -1.437600  -12.734300   77.368800
  H     -2.299630  -11.392700   76.426300
  C     -3.580950  -12.234800   77.762500
  H     -3.551750  -12.775100   78.695600
  H     -4.053270  -12.902700   76.987600
  H     -4.266000  -11.347300   77.741800
  H      4.303130  -13.404000   80.234000
  H      0.587284   -7.523380   75.725600

 Total Charge           Charge          ....    0
 Multiplicity           Mult            ....    1
 Number of Electrons    NEL             ....  134
 Basis Dimension        Dim             ....  322

ORBITAL ENERGIES
----------------

  NO   OCC          E(Eh)            E(eV)
   0   2.0000     -88.965392     -2420.8714
   1   2.0000     -88.958774     -2420.6913
   2   2.0000     -10.330055      -281.0951
   3   2.0000     -10.325855      -280.9808
   4   2.0000     -10.310768      -280.5703
   5   2.0000     -10.310257      -280.5563
   6   2.0000     -10.309732      -280.5421
   7   2.0000     -10.297857      -280.2189
   8   2.0000     -10.297688      -280.2143
   9   2.0000     -10.289039      -279.9790
  10   2.0000     -10.288886      -279.9748
  11   2.0000     -10.285998      -279.8962
  12   2.0000     -10.285011      -279.8694
  13   2.0000     -10.284537      -279.8565
  14   2.0000     -10.283368      -279.8247
  15   2.0000     -10.278507      -279.6924
  16   2.0000      -8.081044      -219.8964
  17   2.0000      -8.074451      -219.7170
  18   2.0000      -6.039533      -164.3441
  19   2.0000      -6.035422      -164.2322
  20   2.0000      -6.032788      -164.1605
  21   2.0000      -6.031754      -164.1324
  22   2.0000      -6.028553      -164.0453
  23   2.0000      -6.025587      -163.9646
  24   2.0000      -1.011027       -27.5114
  25   2.0000      -0.992582       -27.0095
  26   2.0000      -0.920013       -25.0348
  27   2.0000      -0.903149       -24.5759
  28   2.0000      -0.873758       -23.7762
  29   2.0000      -0.853828       -23.2338
  30   2.0000      -0.849019       -23.1030
  31   2.0000      -0.817722       -22.2513
  32   2.0000      -0.780461       -21.2374
  33   2.0000      -0.770297       -20.9608
  34   2.0000      -0.707678       -19.2569
  35   2.0000      -0.699173       -19.0255
  36   2.0000      -0.687048       -18.6955
  37   2.0000      -0.658320       -17.9138
  38   2.0000      -0.647238       -17.6122
  39   2.0000      -0.616700       -16.7813
  40   2.0000      -0.599463       -16.3122
  41   2.0000      -0.576325       -15.6826
  42   2.0000      -0.569144       -15.4872
  43   2.0000      -0.564436       -15.3591
  44   2.0000      -0.525229       -14.2922
  45   2.0000      -0.520995       -14.1770
  46   2.0000      -0.519483       -14.1358
  47   2.0000      -0.514969       -14.0130
  48   2.0000      -0.505547       -13.7566
  49   2.0000      -0.500207       -13.6113
  50   2.0000      -0.490517       -13.3476
  51   2.0000      -0.481518       -13.1028
  52   2.0000      -0.475808       -12.9474
  53   2.0000      -0.467226       -12.7139
  54   2.0000      -0.457603       -12.4520
  55   2.0000      -0.454011       -12.3543
  56   2.0000      -0.447057       -12.1650
  57   2.0000      -0.437264       -11.8985
  58   2.0000      -0.430417       -11.7122
  59   2.0000      -0.426117       -11.5952
  60   2.0000      -0.411459       -11.1964
  61   2.0000      -0.410339       -11.1659
  62   2.0000      -0.408506       -11.1160
  63   2.0000      -0.343211        -9.3393
  64   2.0000      -0.327351        -8.9077
  65   2.0000      -0.320651        -8.7254
  66   2.0000      -0.304813        -8.2944
  67   0.0000       0.038578         1.0498
  68   0.0000       0.067520         1.8373
  69   0.0000       0.118228         3.2172
  70   0.0000       0.126684         3.4472
  71   0.0000       0.137576         3.7436

MULLIKEN ATOMIC CHARGES
-----------------------
   0 S :    0.096927
   1 C :   -0.127273
   2 C :   -0.061151
   3 C :    0.024582
   4 C :   -0.174103
   5 H :    0.015060
   6 C :    0.024442
   7 H :    0.024103
   8 H :    0.041777
   9 C :   -0.055084
  10 H :    0.019941
  11 H :    0.021860
  12 C :   -0.038489
  13 H :    0.022441
  14 H :    0.033602
  15 H :    0.036780
  16 S :    0.119824
  17 C :   -0.078115
  18 C :   -0.027584
  19 C :   -0.009046
  20 C :   -0.164024
  21 H :   -0.001950
  22 C :    0.076201
  23 H :    0.018789
  24 H :    0.023501
  25 C :   -0.083870
  26 H :    0.047099
  27 H :    0.029173
  28 C :   -0.079159
  29 H :    0.035953
  30 H :    0.042415
  31 H :    0.039359
  32 H :    0.054647
  33 H :    0.051372
Sum of atomic charges:    0.0000000

LOEWDIN ATOMIC CHARGES
----------------------
   0 S :    0.423331
   1 C :   -0.210154
   2 C :   -0.068498
   3 C :   -0.068680
   4 C :   -0.210044
   5 H :    0.031601
   6 C :   -0.046477
   7 H :    0.032986
   8 H :    0.044310
   9 C :   -0.045354
  10 H :    0.019353
  11 H :    0.026063
  12 C :   -0.062054
  13 H :    0.021001
  14 H :    0.026704
  15 H :    0.033383
  16 S :    0.427922
  17 C :   -0.190667
  18 C :   -0.071794
  19 C :   -0.044837
  20 C :   -0.206725
  21 H :    0.023274
  22 C :   -0.027075
  23 H :    0.032037
  24 H :    0.024613
  25 C :   -0.038616
  26 H :    0.026691
  27 H :    0.026690
  28 C :   -0.073564
  29 H :    0.020350
  30 H :    0.032377
  31 H :    0.029099
  32 H :    0.029337
  33 H :    0.033417

  Mayer bond orders larger than 0.100000
B(  0-S ,  1-C ) :   1.1591 B(  0-S ,  4-C ) :   1.1726 B(  1-C ,  2-C ) :   1.5412
B(  1-C , 32-H ) :   0.9822 B(  2-C ,  3-C ) :   1.2736 B(  2-C ,  6-C ) :   1.0406
B(  3-C ,  4-C ) :   1.5599 B(  3-C ,  5-H ) :   0.9922 B(  4-C , 20-C ) :   0.9970
B(  6-C ,  7-H ) :   0.9494 B(  6-C ,  8-H ) :   0.9194 B(  6-C ,  9-C ) :   1.0540
B(  9-C , 10-H ) :   0.9589 B(  9-C , 11-H ) :   0.9432 B(  9-C , 12-C ) :   1.0967
B( 12-C , 13-H ) :   0.9723 B( 12-C , 14-H ) :   0.9704 B( 12-C , 15-H ) :   0.9722
B( 16-S , 17-C ) :   1.1484 B( 16-S , 20-C ) :   1.1639 B( 17-C , 18-C ) :   1.6431
B( 17-C , 33-H ) :   0.9634 B( 18-C , 19-C ) :   1.2311 B( 18-C , 21-H ) :   0.9926
B( 19-C , 20-C ) :   1.5918 B( 19-C , 22-C ) :   1.0384 B( 22-C , 23-H ) :   0.9395
B( 22-C , 24-H ) :   0.9361 B( 22-C , 25-C ) :   1.0612 B( 25-C , 26-H ) :   0.9588
B( 25-C , 27-H ) :   0.9601 B( 25-C , 28-C ) :   1.0745 B( 28-C , 29-H ) :   0.9769
B( 28-C , 30-H ) :   0.9752 B( 28-C , 31-H ) :   0.9726

Dispersion correction           -0.013278131
FINAL SINGLE POINT ENERGY     -1339.871493022237

DIPOLE MOMENT
-------------
                                X             Y             Z
Electronic contribution:     15.12652       8.37553     -19.33011
Nuclear contribution   :    -15.51073      -8.21484      19.72657
                        -----------------------------------------
Total Dipole Moment    :     -0.38421       0.16069       0.39646
                        -----------------------------------------
Magnitude (a.u.)       :      0.57499
Magnitude (Debye)      :      1.46152

Rotational constants in cm-1:     0.018086     0.007408     0.006195
Rotational constants in MHz :   542.190676   222.073982   185.724332

                             ****ORCA TERMINATED NORMALLY****
TOTAL RUN TIME: 0 days 0 hours 0 minutes 33 seconds 334 msec
