                         Program Version 4.2.1 -  RELEASE  -
|  1> ! wB97X-D3 SP def2-SVP
|  2> %pal
|  3> nprocs 16
|  4> end
|  5>
|  6> * xyz 0 1
|  7> S 	 -87.9168 	 40.8681 	 113.84
|  8> C 	 -86.5399 	 41.8632 	 113.422
|  9> C 	 -86.5864 	 43.117 	 114.043
| 10> C 	 -87.8445 	 43.2549 	 114.703
| 11> C 	 -88.698 	 42.1773 	 114.679
| 12> H 	 -88.144 	 44.1747 	 115.179
| 13> C 	 -85.494 	 44.1523 	 114.022
| 14> H 	 -84.4946 	 43.688 	 114.2
| 15> H 	 -85.5581 	 44.8079 	 114.918
| 16> C 	 -85.572 	 45.1178 	 112.739
| 17> H 	 -86.5097 	 45.7488 	 112.76
| 18> H 	 -84.7692 	 45.8568 	 112.875
| 19> C 	 -85.5165 	 44.3405 	 111.434
| 20> H 	 -86.3976 	 43.6597 	 111.42
| 21> H 	 -85.3338 	 44.971 	 110.512
| 22> H 	 -84.7069 	 43.5745 	 111.439
| 23> S 	 -91.255 	 41.5386 	 114.072
| 24> C 	 -92.5489 	 41.9343 	 115.131
| 25> C 	 -92.1283 	 42.64 	 116.259
| 26> C 	 -90.6862 	 42.8604 	 116.252
| 27> C 	 -90.0979 	 42.226 	 115.201
| 28> H 	 -92.7936 	 43.0266 	 117.059
| 29> C 	 -90.0521 	 43.5457 	 117.406
| 30> H 	 -90.7205 	 44.3376 	 117.679
| 31> H 	 -89.2202 	 44.1701 	 117.114
| 32> C 	 -89.8492 	 42.5793 	 118.569
| 33> H 	 -89.0477 	 41.9508 	 118.257
| 34> H 	 -90.8308 	 42.0339 	 118.625
| 35> C 	 -89.5125 	 43.34 	 119.829
| 36> H 	 -88.5671 	 43.9041 	 119.855
| 37> H 	 -89.4931 	 42.5966 	 120.679
| 38> H 	 -90.3178 	 44.0732 	 119.954
| 39> H 	 -85.5861 	 41.5727 	 113.112
| 40> H 	 -93.5664 	 41.7353 	 115.091
| 41> *
| 42>
| 43>                          ****END OF INPUT****

CARTESIAN COORDINATES (ANGSTROEM)
---------------------------------
  S    -87.916800   40.868100  113.840000
  C    -86.539900   41.863200  113.422000
  C    -86.586400   43.117000  114.043000
  C    -87.844500   43.254900  114.703000
  C    -88.698000   42.177300  114.679000
  H    -88.144000   44.174700  115.179000
  C    -85.494000   44.152300  114.022000
  H    -84.494600   43.688000  114.200000
  H    -85.558100   44.807900  114.918000
  C    -85.572000   45.117800  112.739000
  H    -86.509700   45.748800  112.760000
  H    -84.769200   45.856800  112.875000
  C    -85.516500   44.340500  111.434000
  H    -86.397600   43.659700  111.420000
  H    -85.333800   44.971000  110.512000
  H    -84.706900   43.574500  111.439000
  S    -91.255000   41.538600  114.072000
  C    -92.548900   41.934300  115.131000
  C    -92.128300   42.640000  116.259000
  C    -90.686200   42.860400  116.252000
  C    -90.097900   42.226000  115.201000
  H    -92.793600   43.026600  117.059000
  C    -90.052100   43.545700  117.406000
  H    -90.720500   44.337600  117.679000
  H    -89.220200   44.170100  117.114000
  C    -89.849200   42.579300  118.569000
  H    -89.047700   41.950800  118.257000
  H    -90.830800   42.033900  118.625000
  C    -89.512500   43.340000  119.829000
  H    -88.567100   43.904100  119.855000
  H    -89.493100   42.596600  120.679000
  H    -90.317800   44.073200  119.954000
  H    -85.586100   41.572700  113.112000
  H    -93.566400   41.735300  115.091000

 Total Charge           Charge          ....    0
 Multiplicity           Mult            ....    1
 Number of Electrons    NEL             ....  134
 Basis Dimension        Dim             ....  322

ORBITAL ENERGIES
----------------

  NO   OCC          E(Eh)            E(eV)
   0   2.0000     -88.971955     -2421.0500
   1   2.0000     -88.966729     -2420.9078
   2   2.0000     -10.331051      -281.1222
   3   2.0000     -10.328056      -281.0407
   4   2.0000     -10.311720      -280.5962
   5   2.0000     -10.310287      -280.5572
   6   2.0000     -10.304183      -280.3911
   7   2.0000     -10.302174      -280.3364
   8   2.0000     -10.300182      -280.2822
   9   2.0000     -10.297798      -280.2173
  10   2.0000     -10.297777      -280.2168
  11   2.0000     -10.289490      -279.9913
  12   2.0000     -10.285830      -279.8917
  13   2.0000     -10.283698      -279.8336
  14   2.0000     -10.283077      -279.8168
  15   2.0000     -10.282581      -279.8032
  16   2.0000      -8.086203      -220.0368
  17   2.0000      -8.081848      -219.9183
  18   2.0000      -6.044833      -164.4883
  19   2.0000      -6.040710      -164.3761
  20   2.0000      -6.040509      -164.3706
  21   2.0000      -6.036924      -164.2730
  22   2.0000      -6.036284      -164.2556
  23   2.0000      -6.032435      -164.1509
  24   2.0000      -1.008373       -27.4392
  25   2.0000      -0.986707       -26.8497
  26   2.0000      -0.919547       -25.0221
  27   2.0000      -0.905951       -24.6522
  28   2.0000      -0.864617       -23.5274
  29   2.0000      -0.854260       -23.2456
  30   2.0000      -0.844366       -22.9764
  31   2.0000      -0.812547       -22.1105
  32   2.0000      -0.780970       -21.2513
  33   2.0000      -0.775324       -21.0976
  34   2.0000      -0.706377       -19.2215
  35   2.0000      -0.698232       -18.9999
  36   2.0000      -0.694512       -18.8986
  37   2.0000      -0.667084       -18.1523
  38   2.0000      -0.637591       -17.3497
  39   2.0000      -0.620646       -16.8886
  40   2.0000      -0.597766       -16.2661
  41   2.0000      -0.570269       -15.5178
  42   2.0000      -0.569082       -15.4855
  43   2.0000      -0.545868       -14.8538
  44   2.0000      -0.532178       -14.4813
  45   2.0000      -0.527896       -14.3648
  46   2.0000      -0.518810       -14.1175
  47   2.0000      -0.506664       -13.7870
  48   2.0000      -0.504931       -13.7399
  49   2.0000      -0.497602       -13.5404
  50   2.0000      -0.488224       -13.2853
  51   2.0000      -0.481946       -13.1144
  52   2.0000      -0.471279       -12.8242
  53   2.0000      -0.463337       -12.6080
  54   2.0000      -0.457083       -12.4379
  55   2.0000      -0.449955       -12.2439
  56   2.0000      -0.441763       -12.0210
  57   2.0000      -0.436234       -11.8705
  58   2.0000      -0.429671       -11.6919
  59   2.0000      -0.426765       -11.6129
  60   2.0000      -0.420926       -11.4540
  61   2.0000      -0.416952       -11.3458
  62   2.0000      -0.414696       -11.2845
  63   2.0000      -0.352114        -9.5815
  64   2.0000      -0.331379        -9.0173
  65   2.0000      -0.329523        -8.9668
  66   2.0000      -0.291628        -7.9356
  67   0.0000       0.030710         0.8357
  68   0.0000       0.073774         2.0075
  69   0.0000       0.108128         2.9423
  70   0.0000       0.109938         2.9916
  71   0.0000       0.138594         3.7713

MULLIKEN ATOMIC CHARGES
-----------------------
   0 S :    0.124271
   1 C :   -0.080139
   2 C :   -0.123779
   3 C :    0.019649
   4 C :   -0.121967
   5 H :   -0.001396
   6 C :    0.023822
   7 H :    0.041722
   8 H :    0.026973
   9 C :   -0.070299
  10 H :    0.041951
  11 H :    0.032619
  12 C :   -0.082501
  13 H :    0.059022
  14 H :    0.055443
  15 H :    0.017952
  16 S :    0.113069
  17 C :   -0.036787
  18 C :   -0.074218
  19 C :   -0.070096
  20 C :   -0.142675
  21 H :    0.032954
  22 C :    0.069720
  23 H :   -0.001973
  24 H :    0.004674
  25 C :   -0.048311
  26 H :    0.034101
  27 H :    0.039977
  28 C :   -0.044223
  29 H :    0.038957
  30 H :    0.044256
  31 H :    0.024710
  32 H :    0.026231
  33 H :    0.026291
Sum of atomic charges:   -0.0000000

LOEWDIN ATOMIC CHARGES
----------------------
   0 S :    0.415721
   1 C :   -0.198917
   2 C :   -0.061083
   3 C :   -0.064206
   4 C :   -0.203282
   5 H :    0.023760
   6 C :   -0.037829
   7 H :    0.035757
   8 H :    0.034098
   9 C :   -0.040461
  10 H :    0.030917
  11 H :    0.021927
  12 C :   -0.083668
  13 H :    0.034160
  14 H :    0.035438
  15 H :    0.021777
  16 S :    0.416764
  17 C :   -0.188606
  18 C :   -0.071385
  19 C :   -0.058574
  20 C :   -0.186689
  21 H :    0.035972
  22 C :   -0.037621
  23 H :    0.024510
  24 H :    0.024077
  25 C :   -0.033355
  26 H :    0.024948
  27 H :    0.035185
  28 C :   -0.069462
  29 H :    0.028062
  30 H :    0.032692
  31 H :    0.023767
  32 H :    0.016835
  33 H :    0.018770

  Mayer bond orders larger than 0.100000
B(  0-S ,  1-C ) :   1.1400 B(  0-S ,  4-C ) :   1.1506 B(  1-C ,  2-C ) :   1.5928
B(  1-C , 32-H ) :   0.9616 B(  2-C ,  3-C ) :   1.2720 B(  2-C ,  6-C ) :   1.0287
B(  3-C ,  4-C ) :   1.5668 B(  3-C ,  5-H ) :   0.9909 B(  4-C , 20-C ) :   1.0132
B(  6-C ,  7-H ) :   0.9458 B(  6-C ,  8-H ) :   0.9433 B(  6-C ,  9-C ) :   1.0533
B(  9-C , 10-H ) :   0.9578 B(  9-C , 11-H ) :   0.9588 B(  9-C , 12-C ) :   1.0711
B( 12-C , 13-H ) :   0.9650 B( 12-C , 14-H ) :   0.9716 B( 12-C , 15-H ) :   0.9735
B( 16-S , 17-C ) :   1.1474 B( 16-S , 20-C ) :   1.1306 B( 17-C , 18-C ) :   1.6303
B( 17-C , 33-H ) :   0.9712 B( 18-C , 19-C ) :   1.2190 B( 18-C , 21-H ) :   0.9775
B( 19-C , 20-C ) :   1.6456 B( 19-C , 22-C ) :   1.0579 B( 22-C , 23-H ) :   0.9189
B( 22-C , 24-H ) :   0.9245 B( 22-C , 25-C ) :   1.0557 B( 25-C , 26-H ) :   0.9528
B( 25-C , 27-H ) :   0.9533 B( 25-C , 28-C ) :   1.0792 B( 28-C , 29-H ) :   0.9728
B( 28-C , 30-H ) :   0.9730 B( 28-C , 31-H ) :   0.9744

Dispersion correction           -0.014258196
FINAL SINGLE POINT ENERGY     -1339.873892074203

DIPOLE MOMENT
-------------
                                X             Y             Z
Electronic contribution:    -12.29847     -16.70014     -10.43919
Nuclear contribution   :     12.50187      17.26162      10.91949
                        -----------------------------------------
Total Dipole Moment    :      0.20340       0.56148       0.48030
                        -----------------------------------------
Magnitude (a.u.)       :      0.76637
Magnitude (Debye)      :      1.94796

Rotational constants in cm-1:     0.019136     0.008269     0.006742
Rotational constants in MHz :   573.683701   247.889845   202.114231

                             ****ORCA TERMINATED NORMALLY****
TOTAL RUN TIME: 0 days 0 hours 0 minutes 33 seconds 967 msec
