                         Program Version 4.2.1 -  RELEASE  -
|  1> ! wB97X-D3 SP def2-SVP
|  2> %pal
|  3> nprocs 16
|  4> end
|  5>
|  6> * xyz 0 1
|  7> S 	 37.979 	 26.9336 	 50.1238
|  8> C 	 39.0376 	 27.6804 	 51.3489
|  9> C 	 39.5422 	 28.8222 	 50.8723
| 10> C 	 39.2258 	 29.0802 	 49.5106
| 11> C 	 38.4274 	 28.1362 	 48.9212
| 12> H 	 39.6207 	 29.904 	 48.9405
| 13> C 	 40.5154 	 29.7823 	 51.6568
| 14> H 	 40.3045 	 29.6353 	 52.6716
| 15> H 	 40.2888 	 30.7791 	 51.459
| 16> C 	 42.0098 	 29.5756 	 51.4553
| 17> H 	 42.2436 	 29.5594 	 50.3774
| 18> H 	 42.5208 	 30.4279 	 51.8865
| 19> C 	 42.519 	 28.1679 	 51.9394
| 20> H 	 42.1519 	 27.9413 	 52.9589
| 21> H 	 42.0633 	 27.4274 	 51.2479
| 22> H 	 43.5212 	 28.0404 	 51.8443
| 23> S 	 39.0625 	 27.2734 	 46.4432
| 24> C 	 38.109 	 27.8818 	 45.0544
| 25> C 	 37.1319 	 28.7136 	 45.549
| 26> C 	 37.0912 	 28.8247 	 46.9025
| 27> C 	 38.0358 	 28.0951 	 47.5518
| 28> H 	 36.3727 	 29.2662 	 44.9763
| 29> C 	 36.0652 	 29.7458 	 47.5489
| 30> H 	 36.0841 	 30.8015 	 47.1646
| 31> H 	 36.4142 	 29.8714 	 48.5728
| 32> C 	 34.6598 	 29.2401 	 47.8046
| 33> H 	 34.0421 	 29.8146 	 48.5304
| 34> H 	 34.8461 	 28.2447 	 48.3307
| 35> C 	 33.8354 	 28.8139 	 46.5781
| 36> H 	 32.8334 	 28.4597 	 46.8428
| 37> H 	 34.3564 	 27.9988 	 46.1502
| 38> H 	 33.6476 	 29.5945 	 45.8798
| 39> H 	 39.1852 	 27.258 	 52.339
| 40> H 	 38.323 	 27.6071 	 44.0934
| 41> *
| 42>
| 43>                          ****END OF INPUT****

CARTESIAN COORDINATES (ANGSTROEM)
---------------------------------
  S     37.979000   26.933600   50.123800
  C     39.037600   27.680400   51.348900
  C     39.542200   28.822200   50.872300
  C     39.225800   29.080200   49.510600
  C     38.427400   28.136200   48.921200
  H     39.620700   29.904000   48.940500
  C     40.515400   29.782300   51.656800
  H     40.304500   29.635300   52.671600
  H     40.288800   30.779100   51.459000
  C     42.009800   29.575600   51.455300
  H     42.243600   29.559400   50.377400
  H     42.520800   30.427900   51.886500
  C     42.519000   28.167900   51.939400
  H     42.151900   27.941300   52.958900
  H     42.063300   27.427400   51.247900
  H     43.521200   28.040400   51.844300
  S     39.062500   27.273400   46.443200
  C     38.109000   27.881800   45.054400
  C     37.131900   28.713600   45.549000
  C     37.091200   28.824700   46.902500
  C     38.035800   28.095100   47.551800
  H     36.372700   29.266200   44.976300
  C     36.065200   29.745800   47.548900
  H     36.084100   30.801500   47.164600
  H     36.414200   29.871400   48.572800
  C     34.659800   29.240100   47.804600
  H     34.042100   29.814600   48.530400
  H     34.846100   28.244700   48.330700
  C     33.835400   28.813900   46.578100
  H     32.833400   28.459700   46.842800
  H     34.356400   27.998800   46.150200
  H     33.647600   29.594500   45.879800
  H     39.185200   27.258000   52.339000
  H     38.323000   27.607100   44.093400

 Total Charge           Charge          ....    0
 Multiplicity           Mult            ....    1
 Number of Electrons    NEL             ....  134
 Basis Dimension        Dim             ....  322

ORBITAL ENERGIES
----------------

  NO   OCC          E(Eh)            E(eV)
   0   2.0000     -88.966472     -2420.9008
   1   2.0000     -88.962742     -2420.7993
   2   2.0000     -10.325978      -280.9841
   3   2.0000     -10.319714      -280.8137
   4   2.0000     -10.317320      -280.7485
   5   2.0000     -10.314939      -280.6838
   6   2.0000     -10.298633      -280.2400
   7   2.0000     -10.292766      -280.0804
   8   2.0000     -10.291522      -280.0466
   9   2.0000     -10.289495      -279.9914
  10   2.0000     -10.289375      -279.9881
  11   2.0000     -10.289193      -279.9832
  12   2.0000     -10.287848      -279.9466
  13   2.0000     -10.285359      -279.8789
  14   2.0000     -10.273890      -279.5668
  15   2.0000     -10.266880      -279.3760
  16   2.0000      -8.081370      -219.9053
  17   2.0000      -8.077179      -219.7912
  18   2.0000      -6.039830      -164.3521
  19   2.0000      -6.035794      -164.2423
  20   2.0000      -6.035740      -164.2408
  21   2.0000      -6.032278      -164.1466
  22   2.0000      -6.031736      -164.1319
  23   2.0000      -6.027826      -164.0255
  24   2.0000      -1.015548       -27.6345
  25   2.0000      -0.989509       -26.9259
  26   2.0000      -0.909659       -24.7531
  27   2.0000      -0.907139       -24.6845
  28   2.0000      -0.876045       -23.8384
  29   2.0000      -0.850548       -23.1446
  30   2.0000      -0.841318       -22.8934
  31   2.0000      -0.815732       -22.1972
  32   2.0000      -0.789287       -21.4776
  33   2.0000      -0.781452       -21.2644
  34   2.0000      -0.713854       -19.4249
  35   2.0000      -0.696238       -18.9456
  36   2.0000      -0.687916       -18.7191
  37   2.0000      -0.672965       -18.3123
  38   2.0000      -0.644672       -17.5424
  39   2.0000      -0.619018       -16.8443
  40   2.0000      -0.602646       -16.3988
  41   2.0000      -0.569635       -15.5006
  42   2.0000      -0.556949       -15.1553
  43   2.0000      -0.552565       -15.0361
  44   2.0000      -0.541342       -14.7307
  45   2.0000      -0.539164       -14.6714
  46   2.0000      -0.520328       -14.1588
  47   2.0000      -0.515801       -14.0357
  48   2.0000      -0.508194       -13.8287
  49   2.0000      -0.496927       -13.5221
  50   2.0000      -0.487220       -13.2579
  51   2.0000      -0.481472       -13.1015
  52   2.0000      -0.477521       -12.9940
  53   2.0000      -0.469318       -12.7708
  54   2.0000      -0.459868       -12.5136
  55   2.0000      -0.444533       -12.0964
  56   2.0000      -0.441662       -12.0182
  57   2.0000      -0.439760       -11.9665
  58   2.0000      -0.431428       -11.7398
  59   2.0000      -0.420371       -11.4389
  60   2.0000      -0.414119       -11.2688
  61   2.0000      -0.410844       -11.1796
  62   2.0000      -0.405622       -11.0375
  63   2.0000      -0.342965        -9.3325
  64   2.0000      -0.331106        -9.0099
  65   2.0000      -0.323715        -8.8087
  66   2.0000      -0.316890        -8.6230
  67   0.0000       0.042526         1.1572
  68   0.0000       0.053143         1.4461
  69   0.0000       0.114616         3.1189
  70   0.0000       0.117938         3.2093
  71   0.0000       0.136757         3.7213

MULLIKEN ATOMIC CHARGES
-----------------------
   0 S :    0.096563
   1 C :   -0.139764
   2 C :   -0.082170
   3 C :    0.055022
   4 C :   -0.186643
   5 H :    0.009016
   6 C :    0.128177
   7 H :    0.000686
   8 H :    0.007707
   9 C :   -0.078911
  10 H :    0.027509
  11 H :    0.033710
  12 C :   -0.041792
  13 H :    0.026700
  14 H :    0.042127
  15 H :    0.018811
  16 S :    0.110416
  17 C :   -0.066254
  18 C :   -0.003806
  19 C :   -0.024460
  20 C :   -0.173109
  21 H :    0.022051
  22 C :    0.070602
  23 H :    0.039120
  24 H :    0.021332
  25 C :   -0.100049
  26 H :    0.040101
  27 H :    0.026006
  28 C :   -0.032525
  29 H :    0.026452
  30 H :    0.031090
  31 H :    0.020223
  32 H :    0.051042
  33 H :    0.025022
Sum of atomic charges:    0.0000000

LOEWDIN ATOMIC CHARGES
----------------------
   0 S :    0.381167
   1 C :   -0.178885
   2 C :   -0.065884
   3 C :   -0.054732
   4 C :   -0.195083
   5 H :    0.031354
   6 C :   -0.016705
   7 H :    0.020259
   8 H :    0.022333
   9 C :   -0.036533
  10 H :    0.025412
  11 H :    0.022261
  12 C :   -0.059249
  13 H :    0.022579
  14 H :    0.033739
  15 H :    0.010296
  16 S :    0.415607
  17 C :   -0.152484
  18 C :   -0.066690
  19 C :   -0.064412
  20 C :   -0.210927
  21 H :    0.037354
  22 C :   -0.039688
  23 H :    0.033466
  24 H :    0.034890
  25 C :   -0.045764
  26 H :    0.027256
  27 H :    0.032133
  28 C :   -0.068267
  29 H :    0.028048
  30 H :    0.021395
  31 H :    0.014891
  32 H :    0.031417
  33 H :    0.009446

  Mayer bond orders larger than 0.100000
B(  0-S ,  1-C ) :   1.1224 B(  0-S ,  4-C ) :   1.1355 B(  1-C ,  2-C ) :   1.6461
B(  1-C , 32-H ) :   0.9711 B(  2-C ,  3-C ) :   1.2207 B(  2-C ,  6-C ) :   1.0092
B(  3-C ,  4-C ) :   1.6055 B(  3-C ,  5-H ) :   1.0012 B(  4-C , 20-C ) :   1.0076
B(  6-C ,  7-H ) :   0.9385 B(  6-C ,  8-H ) :   0.9383 B(  6-C ,  9-C ) :   1.0756
B(  9-C , 10-H ) :   0.9578 B(  9-C , 11-H ) :   0.9572 B(  9-C , 12-C ) :   1.0681
B( 12-C , 13-H ) :   0.9788 B( 12-C , 14-H ) :   0.9737 B( 12-C , 15-H ) :   0.9762
B( 16-S , 17-C ) :   1.1596 B( 16-S , 20-C ) :   1.1672 B( 17-C , 18-C ) :   1.5401
B( 17-C , 20-C ) :   0.1138 B( 17-C , 33-H ) :   0.9895 B( 18-C , 19-C ) :   1.3067
B( 18-C , 21-H ) :   0.9803 B( 19-C , 20-C ) :   1.5939 B( 19-C , 22-C ) :   1.0311
B( 22-C , 23-H ) :   0.9398 B( 22-C , 24-H ) :   0.9167 B( 22-C , 25-C ) :   1.0723
B( 25-C , 26-H ) :   0.9593 B( 25-C , 27-H ) :   0.9504 B( 25-C , 28-C ) :   1.0829
B( 28-C , 29-H ) :   0.9713 B( 28-C , 30-H ) :   0.9720 B( 28-C , 31-H ) :   0.9754

Dispersion correction           -0.015050480
FINAL SINGLE POINT ENERGY     -1339.870426105265

DIPOLE MOMENT
-------------
                                X             Y             Z
Electronic contribution:      1.58823     -11.09658      -7.68748
Nuclear contribution   :     -1.47367      11.60856       7.77025
                        -----------------------------------------
Total Dipole Moment    :      0.11456       0.51198       0.08276
                        -----------------------------------------
Magnitude (a.u.)       :      0.53113
Magnitude (Debye)      :      1.35002

Rotational constants in cm-1:     0.023859     0.007669     0.006821
Rotational constants in MHz :   715.276462   229.911664   204.500100

                             ****ORCA TERMINATED NORMALLY****
TOTAL RUN TIME: 0 days 0 hours 0 minutes 35 seconds 285 msec
