                         Program Version 4.2.1 -  RELEASE  -
|  1> ! wB97X-D3 SP def2-SVP
|  2> %pal
|  3> nprocs 16
|  4> end
|  5>
|  6> * xyz 0 1
|  7> S 	 -46.3358 	 33.8665 	 98.2568
|  8> C 	 -46.1726 	 35.1643 	 97.0854
|  9> C 	 -46.9714 	 36.2041 	 97.3927
| 10> C 	 -47.7023 	 35.9509 	 98.5911
| 11> C 	 -47.3315 	 34.7972 	 99.2291
| 12> H 	 -48.4336 	 36.6533 	 99.0825
| 13> C 	 -47.1781 	 37.425 	 96.5175
| 14> H 	 -46.1556 	 37.7261 	 96.2131
| 15> H 	 -47.4528 	 38.3336 	 97.0797
| 16> C 	 -48.1754 	 37.3885 	 95.2998
| 17> H 	 -47.8663 	 38.1503 	 94.5505
| 18> H 	 -48.0622 	 36.4792 	 94.7337
| 19> C 	 -49.6309 	 37.4209 	 95.7868
| 20> H 	 -49.8762 	 38.371 	 96.1166
| 21> H 	 -50.2727 	 37.0176 	 94.9955
| 22> H 	 -49.7941 	 36.7489 	 96.5905
| 23> S 	 -48.3542 	 32.9485 	 101.085
| 24> C 	 -48.3637 	 33.2858 	 102.81
| 25> C 	 -47.8013 	 34.539 	 103.003
| 26> C 	 -47.3875 	 35.2374 	 101.757
| 27> C 	 -47.6507 	 34.5079 	 100.616
| 28> H 	 -47.5349 	 34.8641 	 103.97
| 29> C 	 -46.5691 	 36.4851 	 101.792
| 30> H 	 -46.9199 	 37.1431 	 102.577
| 31> H 	 -46.8324 	 37.0648 	 100.902
| 32> C 	 -44.9958 	 36.3614 	 101.77
| 33> H 	 -44.6584 	 35.9031 	 102.731
| 34> H 	 -44.5717 	 37.3908 	 101.915
| 35> C 	 -44.2294 	 35.6538 	 100.636
| 36> H 	 -43.1656 	 35.702 	 100.861
| 37> H 	 -44.2697 	 36.2874 	 99.7251
| 38> H 	 -44.5885 	 34.7005 	 100.395
| 39> H 	 -45.5873 	 35.1153 	 96.2078
| 40> H 	 -48.6046 	 32.5968 	 103.532
| 41> *
| 42>
| 43>                          ****END OF INPUT****

CARTESIAN COORDINATES (ANGSTROEM)
---------------------------------
  S    -46.335800   33.866500   98.256800
  C    -46.172600   35.164300   97.085400
  C    -46.971400   36.204100   97.392700
  C    -47.702300   35.950900   98.591100
  C    -47.331500   34.797200   99.229100
  H    -48.433600   36.653300   99.082500
  C    -47.178100   37.425000   96.517500
  H    -46.155600   37.726100   96.213100
  H    -47.452800   38.333600   97.079700
  C    -48.175400   37.388500   95.299800
  H    -47.866300   38.150300   94.550500
  H    -48.062200   36.479200   94.733700
  C    -49.630900   37.420900   95.786800
  H    -49.876200   38.371000   96.116600
  H    -50.272700   37.017600   94.995500
  H    -49.794100   36.748900   96.590500
  S    -48.354200   32.948500  101.085000
  C    -48.363700   33.285800  102.810000
  C    -47.801300   34.539000  103.003000
  C    -47.387500   35.237400  101.757000
  C    -47.650700   34.507900  100.616000
  H    -47.534900   34.864100  103.970000
  C    -46.569100   36.485100  101.792000
  H    -46.919900   37.143100  102.577000
  H    -46.832400   37.064800  100.902000
  C    -44.995800   36.361400  101.770000
  H    -44.658400   35.903100  102.731000
  H    -44.571700   37.390800  101.915000
  C    -44.229400   35.653800  100.636000
  H    -43.165600   35.702000  100.861000
  H    -44.269700   36.287400   99.725100
  H    -44.588500   34.700500  100.395000
  H    -45.587300   35.115300   96.207800
  H    -48.604600   32.596800  103.532000

 Total Charge           Charge          ....    0
 Multiplicity           Mult            ....    1
 Number of Electrons    NEL             ....  134
 Basis Dimension        Dim             ....  322

ORBITAL ENERGIES
----------------

  NO   OCC          E(Eh)            E(eV)
   0   2.0000     -88.967989     -2420.9421
   1   2.0000     -88.960695     -2420.7436
   2   2.0000     -10.328698      -281.0582
   3   2.0000     -10.324274      -280.9378
   4   2.0000     -10.317705      -280.7590
   5   2.0000     -10.310840      -280.5722
   6   2.0000     -10.306376      -280.4507
   7   2.0000     -10.300429      -280.2889
   8   2.0000     -10.297388      -280.2062
   9   2.0000     -10.296931      -280.1937
  10   2.0000     -10.295111      -280.1442
  11   2.0000     -10.291508      -280.0462
  12   2.0000     -10.291045      -280.0336
  13   2.0000     -10.289400      -279.9888
  14   2.0000     -10.269775      -279.4548
  15   2.0000     -10.269657      -279.4516
  16   2.0000      -8.083953      -219.9755
  17   2.0000      -8.075242      -219.7385
  18   2.0000      -6.042354      -164.4208
  19   2.0000      -6.038243      -164.3089
  20   2.0000      -6.034771      -164.2145
  21   2.0000      -6.033886      -164.1904
  22   2.0000      -6.029673      -164.0757
  23   2.0000      -6.025972      -163.9750
  24   2.0000      -1.017047       -27.6752
  25   2.0000      -0.983788       -26.7702
  26   2.0000      -0.910492       -24.7757
  27   2.0000      -0.898395       -24.4466
  28   2.0000      -0.873242       -23.7621
  29   2.0000      -0.852092       -23.1866
  30   2.0000      -0.840132       -22.8612
  31   2.0000      -0.817712       -22.2511
  32   2.0000      -0.786135       -21.3918
  33   2.0000      -0.776153       -21.1202
  34   2.0000      -0.708248       -19.2724
  35   2.0000      -0.707235       -19.2448
  36   2.0000      -0.693738       -18.8776
  37   2.0000      -0.662708       -18.0332
  38   2.0000      -0.645374       -17.5615
  39   2.0000      -0.615087       -16.7374
  40   2.0000      -0.592376       -16.1194
  41   2.0000      -0.578551       -15.7432
  42   2.0000      -0.552471       -15.0335
  43   2.0000      -0.547474       -14.8975
  44   2.0000      -0.543375       -14.7860
  45   2.0000      -0.531947       -14.4750
  46   2.0000      -0.518357       -14.1052
  47   2.0000      -0.516540       -14.0558
  48   2.0000      -0.503201       -13.6928
  49   2.0000      -0.498835       -13.5740
  50   2.0000      -0.493201       -13.4207
  51   2.0000      -0.481366       -13.0986
  52   2.0000      -0.475750       -12.9458
  53   2.0000      -0.468290       -12.7428
  54   2.0000      -0.456380       -12.4187
  55   2.0000      -0.441379       -12.0105
  56   2.0000      -0.440163       -11.9775
  57   2.0000      -0.437272       -11.8988
  58   2.0000      -0.432212       -11.7611
  59   2.0000      -0.427217       -11.6252
  60   2.0000      -0.418566       -11.3898
  61   2.0000      -0.412370       -11.2212
  62   2.0000      -0.400898       -10.9090
  63   2.0000      -0.347198        -9.4477
  64   2.0000      -0.333465        -9.0740
  65   2.0000      -0.324033        -8.8174
  66   2.0000      -0.300942        -8.1891
  67   0.0000       0.030880         0.8403
  68   0.0000       0.069258         1.8846
  69   0.0000       0.114135         3.1058
  70   0.0000       0.119905         3.2628
  71   0.0000       0.132753         3.6124

MULLIKEN ATOMIC CHARGES
-----------------------
   0 S :    0.124441
   1 C :   -0.105612
   2 C :   -0.071261
   3 C :    0.014217
   4 C :   -0.146160
   5 H :    0.037082
   6 C :    0.027964
   7 H :    0.022371
   8 H :    0.019474
   9 C :   -0.054602
  10 H :    0.036433
  11 H :    0.016212
  12 C :   -0.012919
  13 H :    0.018389
  14 H :    0.034458
  15 H :    0.024221
  16 S :    0.078876
  17 C :   -0.059665
  18 C :   -0.007288
  19 C :   -0.062998
  20 C :   -0.150822
  21 H :    0.006398
  22 C :    0.096820
  23 H :    0.018236
  24 H :    0.008645
  25 C :   -0.098359
  26 H :    0.019087
  27 H :    0.025822
  28 C :   -0.010825
  29 H :    0.030938
  30 H :    0.023027
  31 H :    0.032505
  32 H :    0.027422
  33 H :    0.037471
Sum of atomic charges:   -0.0000000

LOEWDIN ATOMIC CHARGES
----------------------
   0 S :    0.445563
   1 C :   -0.180187
   2 C :   -0.068146
   3 C :   -0.066504
   4 C :   -0.219888
   5 H :    0.039974
   6 C :   -0.040153
   7 H :    0.032670
   8 H :    0.030111
   9 C :   -0.037439
  10 H :    0.029608
  11 H :    0.018994
  12 C :   -0.055559
  13 H :    0.014209
  14 H :    0.031965
  15 H :    0.024433
  16 S :    0.381277
  17 C :   -0.164152
  18 C :   -0.061187
  19 C :   -0.054832
  20 C :   -0.191115
  21 H :    0.022014
  22 C :   -0.041538
  23 H :    0.031909
  24 H :    0.030060
  25 C :   -0.042192
  26 H :    0.020218
  27 H :    0.028066
  28 C :   -0.063012
  29 H :    0.031009
  30 H :    0.027507
  31 H :    0.008506
  32 H :    0.021579
  33 H :    0.016229

  Mayer bond orders larger than 0.100000
B(  0-S ,  1-C ) :   1.1354 B(  0-S ,  4-C ) :   1.1736 B(  1-C ,  2-C ) :   1.6166
B(  1-C , 32-H ) :   0.9772 B(  2-C ,  3-C ) :   1.2394 B(  2-C ,  6-C ) :   1.0251
B(  3-C ,  4-C ) :   1.5635 B(  3-C ,  5-H ) :   0.9849 B(  4-C , 20-C ) :   1.0207
B(  6-C ,  7-H ) :   0.9372 B(  6-C ,  8-H ) :   0.9443 B(  6-C ,  9-C ) :   1.0595
B(  9-C , 10-H ) :   0.9566 B(  9-C , 11-H ) :   0.9603 B(  9-C , 12-C ) :   1.0682
B( 12-C , 13-H ) :   0.9785 B( 12-C , 14-H ) :   0.9730 B( 12-C , 15-H ) :   0.9741
B( 16-S , 17-C ) :   1.1485 B( 16-S , 20-C ) :   1.1200 B( 17-C , 18-C ) :   1.6111
B( 17-C , 33-H ) :   0.9819 B( 18-C , 19-C ) :   1.2183 B( 18-C , 21-H ) :   0.9942
B( 19-C , 20-C ) :   1.6135 B( 19-C , 22-C ) :   1.0642 B( 22-C , 23-H ) :   0.9262
B( 22-C , 24-H ) :   0.9206 B( 22-C , 25-C ) :   1.0589 B( 25-C , 26-H ) :   0.9577
B( 25-C , 27-H ) :   0.9529 B( 25-C , 28-C ) :   1.0839 B( 28-C , 29-H ) :   0.9683
B( 28-C , 30-H ) :   0.9711 B( 28-C , 31-H ) :   0.9709

Dispersion correction           -0.016149210
FINAL SINGLE POINT ENERGY     -1339.874535562876

DIPOLE MOMENT
-------------
                                X             Y             Z
Electronic contribution:     -4.21451     -20.80067       7.80132
Nuclear contribution   :      4.42807      21.38959      -7.84929
                        -----------------------------------------
Total Dipole Moment    :      0.21356       0.58892      -0.04797
                        -----------------------------------------
Magnitude (a.u.)       :      0.62828
Magnitude (Debye)      :      1.59695

Rotational constants in cm-1:     0.021288     0.008640     0.007893
Rotational constants in MHz :   638.202109   259.008940   236.638795

                             ****ORCA TERMINATED NORMALLY****
TOTAL RUN TIME: 0 days 0 hours 0 minutes 32 seconds 468 msec
