                         Program Version 4.2.1 -  RELEASE  -
|  1> ! wB97X-D3 SP def2-SVP
|  2> %pal
|  3> nprocs 16
|  4> end
|  5>
|  6> * xyz 0 1
|  7> S 	 -29.8073 	 61.0898 	 108.474
|  8> C 	 -28.3078 	 61.9661 	 108.772
|  9> C 	 -28.5432 	 63.319 	 108.376
| 10> C 	 -29.8272 	 63.5172 	 107.721
| 11> C 	 -30.5892 	 62.4007 	 107.587
| 12> H 	 -30.1993 	 64.4768 	 107.388
| 13> C 	 -27.6801 	 64.4976 	 108.768
| 14> H 	 -26.7162 	 64.1376 	 109.052
| 15> H 	 -28.0952 	 64.9164 	 109.742
| 16> C 	 -27.5539 	 65.5644 	 107.667
| 17> H 	 -28.5771 	 65.8636 	 107.536
| 18> H 	 -26.8459 	 66.2871 	 108.176
| 19> C 	 -26.9185 	 65.1944 	 106.358
| 20> H 	 -27.3085 	 64.3052 	 105.833
| 21> H 	 -26.9901 	 65.9883 	 105.632
| 22> H 	 -25.9015 	 65.0177 	 106.508
| 23> S 	 -33.2406 	 61.4101 	 108.038
| 24> C 	 -34.4997 	 61.9848 	 106.959
| 25> C 	 -33.9877 	 62.7386 	 105.942
| 26> C 	 -32.5652 	 62.9449 	 105.989
| 27> C 	 -31.9546 	 62.3254 	 107.106
| 28> H 	 -34.655 	 63.0129 	 105.146
| 29> C 	 -31.777 	 63.5501 	 104.818
| 30> H 	 -31.1571 	 64.3901 	 105.211
| 31> H 	 -32.4242 	 64.0861 	 104.058
| 32> C 	 -30.8931 	 62.5724 	 104.056
| 33> H 	 -31.4905 	 61.6743 	 103.763
| 34> H 	 -30.0781 	 62.1718 	 104.664
| 35> C 	 -30.2865 	 63.1747 	 102.729
| 36> H 	 -29.8014 	 64.1054 	 103.049
| 37> H 	 -30.9957 	 63.3017 	 101.935
| 38> H 	 -29.5289 	 62.5693 	 102.257
| 39> H 	 -27.4049 	 61.5469 	 109.145
| 40> H 	 -35.5026 	 61.6651 	 107.002
| 41> *
| 42>
| 43>                          ****END OF INPUT****

CARTESIAN COORDINATES (ANGSTROEM)
---------------------------------
  S    -29.807300   61.089800  108.474000
  C    -28.307800   61.966100  108.772000
  C    -28.543200   63.319000  108.376000
  C    -29.827200   63.517200  107.721000
  C    -30.589200   62.400700  107.587000
  H    -30.199300   64.476800  107.388000
  C    -27.680100   64.497600  108.768000
  H    -26.716200   64.137600  109.052000
  H    -28.095200   64.916400  109.742000
  C    -27.553900   65.564400  107.667000
  H    -28.577100   65.863600  107.536000
  H    -26.845900   66.287100  108.176000
  C    -26.918500   65.194400  106.358000
  H    -27.308500   64.305200  105.833000
  H    -26.990100   65.988300  105.632000
  H    -25.901500   65.017700  106.508000
  S    -33.240600   61.410100  108.038000
  C    -34.499700   61.984800  106.959000
  C    -33.987700   62.738600  105.942000
  C    -32.565200   62.944900  105.989000
  C    -31.954600   62.325400  107.106000
  H    -34.655000   63.012900  105.146000
  C    -31.777000   63.550100  104.818000
  H    -31.157100   64.390100  105.211000
  H    -32.424200   64.086100  104.058000
  C    -30.893100   62.572400  104.056000
  H    -31.490500   61.674300  103.763000
  H    -30.078100   62.171800  104.664000
  C    -30.286500   63.174700  102.729000
  H    -29.801400   64.105400  103.049000
  H    -30.995700   63.301700  101.935000
  H    -29.528900   62.569300  102.257000
  H    -27.404900   61.546900  109.145000
  H    -35.502600   61.665100  107.002000

 Total Charge           Charge          ....    0
 Multiplicity           Mult            ....    1
 Number of Electrons    NEL             ....  134
 Basis Dimension        Dim             ....  322

ORBITAL ENERGIES
----------------

  NO   OCC          E(Eh)            E(eV)
   0   2.0000     -88.967056     -2420.9167
   1   2.0000     -88.964711     -2420.8529
   2   2.0000     -10.338527      -281.3256
   3   2.0000     -10.333158      -281.1795
   4   2.0000     -10.321280      -280.8563
   5   2.0000     -10.316050      -280.7140
   6   2.0000     -10.312415      -280.6151
   7   2.0000     -10.308884      -280.5190
   8   2.0000     -10.301030      -280.3053
   9   2.0000     -10.296041      -280.1695
  10   2.0000     -10.294158      -280.1183
  11   2.0000     -10.293959      -280.1129
  12   2.0000     -10.289813      -280.0000
  13   2.0000     -10.287699      -279.9425
  14   2.0000     -10.276795      -279.6458
  15   2.0000     -10.271715      -279.5076
  16   2.0000      -8.080488      -219.8813
  17   2.0000      -8.079005      -219.8409
  18   2.0000      -6.039228      -164.3357
  19   2.0000      -6.037688      -164.2938
  20   2.0000      -6.035168      -164.2253
  21   2.0000      -6.033504      -164.1800
  22   2.0000      -6.031095      -164.1144
  23   2.0000      -6.029665      -164.0755
  24   2.0000      -1.000846       -27.2344
  25   2.0000      -0.977469       -26.5983
  26   2.0000      -0.914747       -24.8915
  27   2.0000      -0.902668       -24.5628
  28   2.0000      -0.871522       -23.7153
  29   2.0000      -0.846947       -23.0466
  30   2.0000      -0.840542       -22.8723
  31   2.0000      -0.818369       -22.2690
  32   2.0000      -0.784161       -21.3381
  33   2.0000      -0.772272       -21.0146
  34   2.0000      -0.713864       -19.4252
  35   2.0000      -0.696194       -18.9444
  36   2.0000      -0.690823       -18.7983
  37   2.0000      -0.656404       -17.8617
  38   2.0000      -0.642735       -17.4897
  39   2.0000      -0.627656       -17.0794
  40   2.0000      -0.596762       -16.2387
  41   2.0000      -0.571162       -15.5421
  42   2.0000      -0.558915       -15.2089
  43   2.0000      -0.552061       -15.0223
  44   2.0000      -0.536369       -14.5953
  45   2.0000      -0.525602       -14.3024
  46   2.0000      -0.522819       -14.2266
  47   2.0000      -0.515971       -14.0403
  48   2.0000      -0.508325       -13.8322
  49   2.0000      -0.497628       -13.5411
  50   2.0000      -0.489868       -13.3300
  51   2.0000      -0.484353       -13.1799
  52   2.0000      -0.472718       -12.8633
  53   2.0000      -0.462248       -12.5784
  54   2.0000      -0.457787       -12.4570
  55   2.0000      -0.449474       -12.2308
  56   2.0000      -0.446705       -12.1555
  57   2.0000      -0.439940       -11.9714
  58   2.0000      -0.431317       -11.7367
  59   2.0000      -0.422339       -11.4924
  60   2.0000      -0.415850       -11.3159
  61   2.0000      -0.411698       -11.2029
  62   2.0000      -0.401093       -10.9143
  63   2.0000      -0.357222        -9.7205
  64   2.0000      -0.332896        -9.0586
  65   2.0000      -0.323766        -8.8101
  66   2.0000      -0.286489        -7.7958
  67   0.0000       0.017783         0.4839
  68   0.0000       0.066526         1.8103
  69   0.0000       0.107931         2.9370
  70   0.0000       0.115628         3.1464
  71   0.0000       0.124043         3.3754

MULLIKEN ATOMIC CHARGES
-----------------------
   0 S :    0.089758
   1 C :   -0.105539
   2 C :   -0.111956
   3 C :    0.010620
   4 C :   -0.128529
   5 H :    0.017032
   6 C :    0.065798
   7 H :   -0.003719
   8 H :    0.059398
   9 C :   -0.095901
  10 H :    0.030457
  11 H :    0.042508
  12 C :   -0.015773
  13 H :    0.036143
  14 H :    0.029525
  15 H :    0.012392
  16 S :    0.093028
  17 C :   -0.076612
  18 C :   -0.025590
  19 C :   -0.021480
  20 C :   -0.137595
  21 H :    0.016570
  22 C :    0.033699
  23 H :    0.024932
  24 H :    0.027784
  25 C :   -0.082822
  26 H :    0.034945
  27 H :    0.045132
  28 C :   -0.050125
  29 H :    0.029586
  30 H :    0.030629
  31 H :    0.029613
  32 H :    0.049160
  33 H :    0.046936
Sum of atomic charges:   -0.0000000

LOEWDIN ATOMIC CHARGES
----------------------
   0 S :    0.392218
   1 C :   -0.192015
   2 C :   -0.058534
   3 C :   -0.065098
   4 C :   -0.186726
   5 H :    0.028969
   6 C :   -0.036284
   7 H :    0.018702
   8 H :    0.046398
   9 C :   -0.043866
  10 H :    0.018404
  11 H :    0.037418
  12 C :   -0.064171
  13 H :    0.028933
  14 H :    0.028057
  15 H :    0.018207
  16 S :    0.370151
  17 C :   -0.171850
  18 C :   -0.071764
  19 C :   -0.051896
  20 C :   -0.170120
  21 H :    0.031817
  22 C :   -0.041352
  23 H :    0.030192
  24 H :    0.035278
  25 C :   -0.042181
  26 H :    0.027392
  27 H :    0.026874
  28 C :   -0.065765
  29 H :    0.025235
  30 H :    0.021051
  31 H :    0.025754
  32 H :    0.026486
  33 H :    0.024085

  Mayer bond orders larger than 0.100000
B(  0-S ,  1-C ) :   1.1358 B(  0-S ,  4-C ) :   1.1368 B(  1-C ,  2-C ) :   1.5757
B(  1-C , 32-H ) :   0.9794 B(  2-C ,  3-C ) :   1.2368 B(  2-C ,  6-C ) :   1.0317
B(  3-C ,  4-C ) :   1.5746 B(  3-C ,  5-H ) :   0.9870 B(  4-C , 20-C ) :   1.0821
B(  6-C ,  7-H ) :   0.9348 B(  6-C ,  8-H ) :   0.9391 B(  6-C ,  9-C ) :   1.0629
B(  9-C , 10-H ) :   0.9548 B(  9-C , 11-H ) :   0.9548 B(  9-C , 12-C ) :   1.0877
B( 12-C , 13-H ) :   0.9699 B( 12-C , 14-H ) :   0.9711 B( 12-C , 15-H ) :   0.9704
B( 16-S , 17-C ) :   1.1453 B( 16-S , 20-C ) :   1.1145 B( 17-C , 18-C ) :   1.6249
B( 17-C , 33-H ) :   0.9691 B( 18-C , 19-C ) :   1.2393 B( 18-C , 21-H ) :   0.9909
B( 19-C , 20-C ) :   1.5804 B( 19-C , 22-C ) :   1.0421 B( 22-C , 23-H ) :   0.9246
B( 22-C , 24-H ) :   0.9438 B( 22-C , 25-C ) :   1.0596 B( 25-C , 26-H ) :   0.9577
B( 25-C , 27-H ) :   0.9529 B( 25-C , 28-C ) :   1.0765 B( 28-C , 29-H ) :   0.9765
B( 28-C , 30-H ) :   0.9769 B( 28-C , 31-H ) :   0.9757

Dispersion correction           -0.014790338
FINAL SINGLE POINT ENERGY     -1339.874130455524

DIPOLE MOMENT
-------------
                                X             Y             Z
Electronic contribution:    -16.25296     -17.63352      18.29250
Nuclear contribution   :     16.50883      18.12127     -18.65061
                        -----------------------------------------
Total Dipole Moment    :      0.25587       0.48776      -0.35811
                        -----------------------------------------
Magnitude (a.u.)       :      0.65698
Magnitude (Debye)      :      1.66990

Rotational constants in cm-1:     0.017109     0.009931     0.007340
Rotational constants in MHz :   512.900558   297.720368   220.046345

                             ****ORCA TERMINATED NORMALLY****
TOTAL RUN TIME: 0 days 0 hours 0 minutes 29 seconds 858 msec
