                         Program Version 4.2.1 -  RELEASE  -
|  1> ! wB97X-D3 SP def2-SVP
|  2> %pal
|  3> nprocs 16
|  4> end
|  5>
|  6> * xyz 0 1
|  7> S 	 -46.4769 	 38.8317 	 79.1688
|  8> C 	 -45.9033 	 38.6503 	 77.5591
|  9> C 	 -46.0889 	 39.7746 	 76.7953
| 10> C 	 -46.6374 	 40.8664 	 77.6098
| 11> C 	 -47.0124 	 40.4901 	 78.8494
| 12> H 	 -46.8364 	 41.8759 	 77.2595
| 13> C 	 -45.6534 	 39.9064 	 75.3992
| 14> H 	 -44.5994 	 39.9617 	 75.441
| 15> H 	 -46.01 	 40.9107 	 75.11
| 16> C 	 -46.0231 	 38.8776 	 74.3788
| 17> H 	 -45.541 	 39.0695 	 73.4318
| 18> H 	 -45.6389 	 37.9344 	 74.7191
| 19> C 	 -47.545 	 38.7148 	 74.2328
| 20> H 	 -47.7246 	 37.8436 	 73.6583
| 21> H 	 -48.0688 	 38.5258 	 75.2186
| 22> H 	 -47.9876 	 39.4777 	 73.6826
| 23> S 	 -46.5423 	 41.491 	 81.3318
| 24> C 	 -47.6714 	 42.7474 	 81.9699
| 25> C 	 -48.8508 	 42.6414 	 81.2941
| 26> C 	 -48.7599 	 41.9322 	 80.009
| 27> C 	 -47.5483 	 41.2805 	 79.8866
| 28> H 	 -49.7417 	 43.1163 	 81.738
| 29> C 	 -49.889 	 41.8163 	 79.0124
| 30> H 	 -49.4033 	 41.95 	 78.076
| 31> H 	 -50.4693 	 42.7095 	 79.1158
| 32> C 	 -50.7498 	 40.5423 	 79.1997
| 33> H 	 -50.1442 	 39.6785 	 78.8886
| 34> H 	 -51.6025 	 40.5968 	 78.5219
| 35> C 	 -51.2983 	 40.3032 	 80.6479
| 36> H 	 -50.3964 	 39.97 	 81.2094
| 37> H 	 -52.2242 	 39.6122 	 80.6992
| 38> H 	 -51.7331 	 41.1711 	 81.1
| 39> H 	 -45.2686 	 37.8292 	 77.1203
| 40> H 	 -47.6975 	 42.9927 	 82.9688
| 41> *
| 42>
| 43>                          ****END OF INPUT****

CARTESIAN COORDINATES (ANGSTROEM)
---------------------------------
  S    -46.476900   38.831700   79.168800
  C    -45.903300   38.650300   77.559100
  C    -46.088900   39.774600   76.795300
  C    -46.637400   40.866400   77.609800
  C    -47.012400   40.490100   78.849400
  H    -46.836400   41.875900   77.259500
  C    -45.653400   39.906400   75.399200
  H    -44.599400   39.961700   75.441000
  H    -46.010000   40.910700   75.110000
  C    -46.023100   38.877600   74.378800
  H    -45.541000   39.069500   73.431800
  H    -45.638900   37.934400   74.719100
  C    -47.545000   38.714800   74.232800
  H    -47.724600   37.843600   73.658300
  H    -48.068800   38.525800   75.218600
  H    -47.987600   39.477700   73.682600
  S    -46.542300   41.491000   81.331800
  C    -47.671400   42.747400   81.969900
  C    -48.850800   42.641400   81.294100
  C    -48.759900   41.932200   80.009000
  C    -47.548300   41.280500   79.886600
  H    -49.741700   43.116300   81.738000
  C    -49.889000   41.816300   79.012400
  H    -49.403300   41.950000   78.076000
  H    -50.469300   42.709500   79.115800
  C    -50.749800   40.542300   79.199700
  H    -50.144200   39.678500   78.888600
  H    -51.602500   40.596800   78.521900
  C    -51.298300   40.303200   80.647900
  H    -50.396400   39.970000   81.209400
  H    -52.224200   39.612200   80.699200
  H    -51.733100   41.171100   81.100000
  H    -45.268600   37.829200   77.120300
  H    -47.697500   42.992700   82.968800

 Total Charge           Charge          ....    0
 Multiplicity           Mult            ....    1
 Number of Electrons    NEL             ....  134
 Basis Dimension        Dim             ....  322

ORBITAL ENERGIES
----------------

  NO   OCC          E(Eh)            E(eV)
   0   2.0000     -88.965128     -2420.8642
   1   2.0000     -88.959480     -2420.7105
   2   2.0000     -10.324865      -280.9539
   3   2.0000     -10.324019      -280.9308
   4   2.0000     -10.312421      -280.6152
   5   2.0000     -10.311264      -280.5838
   6   2.0000     -10.306191      -280.4457
   7   2.0000     -10.300590      -280.2933
   8   2.0000     -10.298290      -280.2307
   9   2.0000     -10.295954      -280.1671
  10   2.0000     -10.289885      -280.0020
  11   2.0000     -10.287703      -279.9426
  12   2.0000     -10.285005      -279.8692
  13   2.0000     -10.284447      -279.8540
  14   2.0000     -10.283003      -279.8147
  15   2.0000     -10.269789      -279.4552
  16   2.0000      -8.080094      -219.8705
  17   2.0000      -8.073500      -219.6911
  18   2.0000      -6.038699      -164.3214
  19   2.0000      -6.034595      -164.2097
  20   2.0000      -6.032278      -164.1466
  21   2.0000      -6.030704      -164.1038
  22   2.0000      -6.028311      -164.0387
  23   2.0000      -6.023790      -163.9157
  24   2.0000      -1.008935       -27.4545
  25   2.0000      -0.981014       -26.6948
  26   2.0000      -0.921996       -25.0888
  27   2.0000      -0.904387       -24.6096
  28   2.0000      -0.876410       -23.8483
  29   2.0000      -0.850057       -23.1312
  30   2.0000      -0.836770       -22.7697
  31   2.0000      -0.820445       -22.3254
  32   2.0000      -0.785022       -21.3615
  33   2.0000      -0.773962       -21.0606
  34   2.0000      -0.712077       -19.3766
  35   2.0000      -0.710908       -19.3448
  36   2.0000      -0.693091       -18.8600
  37   2.0000      -0.662394       -18.0247
  38   2.0000      -0.636979       -17.3331
  39   2.0000      -0.609340       -16.5810
  40   2.0000      -0.588890       -16.0245
  41   2.0000      -0.577986       -15.7278
  42   2.0000      -0.561279       -15.2732
  43   2.0000      -0.553741       -15.0681
  44   2.0000      -0.546109       -14.8604
  45   2.0000      -0.535756       -14.5787
  46   2.0000      -0.516750       -14.0615
  47   2.0000      -0.513323       -13.9682
  48   2.0000      -0.507131       -13.7997
  49   2.0000      -0.494911       -13.4672
  50   2.0000      -0.489353       -13.3160
  51   2.0000      -0.477205       -12.9854
  52   2.0000      -0.469272       -12.7695
  53   2.0000      -0.463567       -12.6143
  54   2.0000      -0.460505       -12.5310
  55   2.0000      -0.445663       -12.1271
  56   2.0000      -0.440835       -11.9957
  57   2.0000      -0.435166       -11.8415
  58   2.0000      -0.431567       -11.7435
  59   2.0000      -0.428939       -11.6720
  60   2.0000      -0.421242       -11.4626
  61   2.0000      -0.415628       -11.3098
  62   2.0000      -0.411631       -11.2011
  63   2.0000      -0.347403        -9.4533
  64   2.0000      -0.325906        -8.8683
  65   2.0000      -0.322714        -8.7815
  66   2.0000      -0.301170        -8.1952
  67   0.0000       0.029442         0.8011
  68   0.0000       0.061511         1.6738
  69   0.0000       0.107904         2.9362
  70   0.0000       0.121324         3.3014
  71   0.0000       0.123671         3.3652

MULLIKEN ATOMIC CHARGES
-----------------------
   0 S :    0.112098
   1 C :   -0.134205
   2 C :   -0.138826
   3 C :    0.052052
   4 C :   -0.167320
   5 H :    0.016719
   6 C :    0.099755
   7 H :    0.030535
   8 H :    0.008129
   9 C :   -0.042907
  10 H :    0.026859
  11 H :    0.008841
  12 C :   -0.037322
  13 H :    0.015493
  14 H :    0.052573
  15 H :    0.017578
  16 S :    0.079462
  17 C :   -0.043317
  18 C :   -0.071518
  19 C :   -0.091968
  20 C :   -0.158346
  21 H :    0.036746
  22 C :    0.150132
  23 H :    0.010783
  24 H :    0.007560
  25 C :   -0.060670
  26 H :    0.042987
  27 H :    0.028793
  28 C :   -0.093918
  29 H :    0.064633
  30 H :    0.048825
  31 H :    0.021090
  32 H :    0.067172
  33 H :    0.041505
Sum of atomic charges:   -0.0000000

LOEWDIN ATOMIC CHARGES
----------------------
   0 S :    0.402293
   1 C :   -0.217898
   2 C :   -0.065683
   3 C :   -0.052962
   4 C :   -0.192183
   5 H :    0.032431
   6 C :   -0.037502
   7 H :    0.032664
   8 H :    0.029986
   9 C :   -0.032718
  10 H :    0.027037
  11 H :    0.018048
  12 C :   -0.061013
  13 H :    0.020961
  14 H :    0.037619
  15 H :    0.014490
  16 S :    0.363872
  17 C :   -0.166662
  18 C :   -0.059587
  19 C :   -0.052587
  20 C :   -0.190089
  21 H :    0.035674
  22 C :   -0.028759
  23 H :    0.029674
  24 H :    0.025869
  25 C :   -0.034816
  26 H :    0.028728
  27 H :    0.021683
  28 C :   -0.076941
  29 H :    0.035675
  30 H :    0.039204
  31 H :    0.016034
  32 H :    0.042684
  33 H :    0.014773

  Mayer bond orders larger than 0.100000
B(  0-S ,  1-C ) :   1.1292 B(  0-S ,  4-C ) :   1.1179 B(  1-C ,  2-C ) :   1.6372
B(  1-C , 32-H ) :   0.9569 B(  2-C ,  3-C ) :   1.2095 B(  2-C ,  6-C ) :   1.0157
B(  3-C ,  4-C ) :   1.6299 B(  3-C ,  5-H ) :   0.9855 B(  4-C , 20-C ) :   1.0543
B(  6-C ,  7-H ) :   0.9241 B(  6-C ,  8-H ) :   0.9353 B(  6-C ,  9-C ) :   1.0923
B(  9-C , 10-H ) :   0.9501 B(  9-C , 11-H ) :   0.9495 B(  9-C , 12-C ) :   1.0850
B( 12-C , 13-H ) :   0.9722 B( 12-C , 14-H ) :   0.9715 B( 12-C , 15-H ) :   0.9762
B( 16-S , 17-C ) :   1.1114 B( 16-S , 20-C ) :   1.1268 B( 17-C , 18-C ) :   1.6851
B( 17-C , 33-H ) :   0.9607 B( 18-C , 19-C ) :   1.1888 B( 18-C , 21-H ) :   0.9761
B( 19-C , 20-C ) :   1.6188 B( 19-C , 22-C ) :   1.0387 B( 22-C , 23-H ) :   0.9238
B( 22-C , 24-H ) :   0.9246 B( 22-C , 25-C ) :   1.0651 B( 25-C , 26-H ) :   0.9608
B( 25-C , 27-H ) :   0.9586 B( 25-C , 28-C ) :   1.0648 B( 28-C , 29-H ) :   0.9722
B( 28-C , 30-H ) :   0.9745 B( 28-C , 31-H ) :   0.9762

Dispersion correction           -0.015271592
FINAL SINGLE POINT ENERGY     -1339.862941207774

DIPOLE MOMENT
-------------
                                X             Y             Z
Electronic contribution:     14.23251       3.15096      18.46301
Nuclear contribution   :    -14.59012      -3.05237     -18.99565
                        -----------------------------------------
Total Dipole Moment    :     -0.35762       0.09859      -0.53264
                        -----------------------------------------
Magnitude (a.u.)       :      0.64909
Magnitude (Debye)      :      1.64984

Rotational constants in cm-1:     0.022310     0.008418     0.007144
Rotational constants in MHz :   668.826027   252.371258   214.178797

                             ****ORCA TERMINATED NORMALLY****
TOTAL RUN TIME: 0 days 0 hours 0 minutes 31 seconds 32 msec
