                         Program Version 4.2.1 -  RELEASE  -
|  1> ! wB97X-D3 SP def2-SVP
|  2> %pal
|  3> nprocs 16
|  4> end
|  5>
|  6> * xyz 0 1
|  7> S 	 36.3512 	 14.407 	 78.5866
|  8> C 	 35.0853 	 14.8426 	 77.3761
|  9> C 	 34.3471 	 15.9728 	 77.8079
| 10> C 	 34.9458 	 16.4606 	 79.0377
| 11> C 	 36.0251 	 15.7754 	 79.532
| 12> H 	 34.5963 	 17.3309 	 79.5771
| 13> C 	 33.2125 	 16.6881 	 77.1128
| 14> H 	 33.125 	 16.3412 	 76.0677
| 15> H 	 33.4288 	 17.7181 	 77.1433
| 16> C 	 31.7351 	 16.4852 	 77.7021
| 17> H 	 31.4386 	 15.429 	 77.8329
| 18> H 	 31.6044 	 16.7707 	 78.7734
| 19> C 	 30.6896 	 17.2411 	 76.9089
| 20> H 	 30.8781 	 18.3334 	 77.096
| 21> H 	 30.7092 	 17.0824 	 75.7798
| 22> H 	 29.6434 	 17.0879 	 77.2869
| 23> S 	 38.597 	 16.744 	 80.3299
| 24> C 	 39.0594 	 16.446 	 82.0315
| 25> C 	 37.9662 	 15.8808 	 82.7772
| 26> C 	 36.8179 	 15.6261 	 81.9503
| 27> C 	 36.9157 	 16.1372 	 80.6569
| 28> H 	 38.1315 	 15.5551 	 83.7757
| 29> C 	 35.7139 	 14.6713 	 82.424
| 30> H 	 36.0385 	 13.662 	 82.5443
| 31> H 	 34.9236 	 14.4964 	 81.6803
| 32> C 	 34.9601 	 15.0492 	 83.6896
| 33> H 	 34.8118 	 16.1124 	 83.6894
| 34> H 	 35.7149 	 14.8686 	 84.4944
| 35> C 	 33.6918 	 14.1979 	 83.9326
| 36> H 	 32.9795 	 14.2112 	 83.1429
| 37> H 	 33.3057 	 14.599 	 84.8555
| 38> H 	 33.9174 	 13.2415 	 84.232
| 39> H 	 34.8029 	 14.263 	 76.5067
| 40> H 	 39.9348 	 16.7837 	 82.5136
| 41> *
| 42>
| 43>                          ****END OF INPUT****

CARTESIAN COORDINATES (ANGSTROEM)
---------------------------------
  S     36.351200   14.407000   78.586600
  C     35.085300   14.842600   77.376100
  C     34.347100   15.972800   77.807900
  C     34.945800   16.460600   79.037700
  C     36.025100   15.775400   79.532000
  H     34.596300   17.330900   79.577100
  C     33.212500   16.688100   77.112800
  H     33.125000   16.341200   76.067700
  H     33.428800   17.718100   77.143300
  C     31.735100   16.485200   77.702100
  H     31.438600   15.429000   77.832900
  H     31.604400   16.770700   78.773400
  C     30.689600   17.241100   76.908900
  H     30.878100   18.333400   77.096000
  H     30.709200   17.082400   75.779800
  H     29.643400   17.087900   77.286900
  S     38.597000   16.744000   80.329900
  C     39.059400   16.446000   82.031500
  C     37.966200   15.880800   82.777200
  C     36.817900   15.626100   81.950300
  C     36.915700   16.137200   80.656900
  H     38.131500   15.555100   83.775700
  C     35.713900   14.671300   82.424000
  H     36.038500   13.662000   82.544300
  H     34.923600   14.496400   81.680300
  C     34.960100   15.049200   83.689600
  H     34.811800   16.112400   83.689400
  H     35.714900   14.868600   84.494400
  C     33.691800   14.197900   83.932600
  H     32.979500   14.211200   83.142900
  H     33.305700   14.599000   84.855500
  H     33.917400   13.241500   84.232000
  H     34.802900   14.263000   76.506700
  H     39.934800   16.783700   82.513600

 Total Charge           Charge          ....    0
 Multiplicity           Mult            ....    1
 Number of Electrons    NEL             ....  134
 Basis Dimension        Dim             ....  322

ORBITAL ENERGIES
----------------

  NO   OCC          E(Eh)            E(eV)
   0   2.0000     -88.971278     -2421.0316
   1   2.0000     -88.965235     -2420.8671
   2   2.0000     -10.332611      -281.1646
   3   2.0000     -10.327904      -281.0365
   4   2.0000     -10.323387      -280.9136
   5   2.0000     -10.320503      -280.8352
   6   2.0000     -10.310726      -280.5691
   7   2.0000     -10.308606      -280.5114
   8   2.0000     -10.301235      -280.3109
   9   2.0000     -10.300374      -280.2874
  10   2.0000     -10.295111      -280.1442
  11   2.0000     -10.290649      -280.0228
  12   2.0000     -10.290616      -280.0219
  13   2.0000     -10.284270      -279.8492
  14   2.0000     -10.284173      -279.8466
  15   2.0000     -10.270517      -279.4750
  16   2.0000      -8.083951      -219.9755
  17   2.0000      -8.079890      -219.8650
  18   2.0000      -6.042665      -164.4293
  19   2.0000      -6.038730      -164.3222
  20   2.0000      -6.038420      -164.3138
  21   2.0000      -6.034622      -164.2104
  22   2.0000      -6.034357      -164.2032
  23   2.0000      -6.030659      -164.1026
  24   2.0000      -0.999331       -27.1932
  25   2.0000      -0.972022       -26.4501
  26   2.0000      -0.907370       -24.6908
  27   2.0000      -0.906205       -24.6591
  28   2.0000      -0.863966       -23.5097
  29   2.0000      -0.848507       -23.0891
  30   2.0000      -0.841600       -22.9011
  31   2.0000      -0.809808       -22.0360
  32   2.0000      -0.785507       -21.3747
  33   2.0000      -0.772497       -21.0207
  34   2.0000      -0.701308       -19.0836
  35   2.0000      -0.699171       -19.0254
  36   2.0000      -0.695933       -18.9373
  37   2.0000      -0.658630       -17.9222
  38   2.0000      -0.641792       -17.4641
  39   2.0000      -0.615936       -16.7605
  40   2.0000      -0.598022       -16.2730
  41   2.0000      -0.569309       -15.4917
  42   2.0000      -0.565894       -15.3988
  43   2.0000      -0.555604       -15.1187
  44   2.0000      -0.527815       -14.3626
  45   2.0000      -0.523249       -14.2383
  46   2.0000      -0.514970       -14.0130
  47   2.0000      -0.504796       -13.7362
  48   2.0000      -0.501445       -13.6450
  49   2.0000      -0.499027       -13.5792
  50   2.0000      -0.492034       -13.3889
  51   2.0000      -0.483237       -13.1495
  52   2.0000      -0.465558       -12.6685
  53   2.0000      -0.463808       -12.6209
  54   2.0000      -0.459340       -12.4993
  55   2.0000      -0.449816       -12.2401
  56   2.0000      -0.444717       -12.1014
  57   2.0000      -0.435253       -11.8438
  58   2.0000      -0.432222       -11.7614
  59   2.0000      -0.424140       -11.5414
  60   2.0000      -0.421037       -11.4570
  61   2.0000      -0.411780       -11.2051
  62   2.0000      -0.409160       -11.1338
  63   2.0000      -0.334810        -9.1106
  64   2.0000      -0.326015        -8.8713
  65   2.0000      -0.321385        -8.7453
  66   2.0000      -0.309589        -8.4243
  67   0.0000       0.036109         0.9826
  68   0.0000       0.050200         1.3660
  69   0.0000       0.107320         2.9203
  70   0.0000       0.116772         3.1775
  71   0.0000       0.121661         3.3106

MULLIKEN ATOMIC CHARGES
-----------------------
   0 S :    0.118630
   1 C :   -0.130237
   2 C :   -0.076263
   3 C :    0.032196
   4 C :   -0.172684
   5 H :    0.003857
   6 C :    0.081036
   7 H :    0.028519
   8 H :    0.027454
   9 C :   -0.087787
  10 H :    0.028351
  11 H :    0.026948
  12 C :   -0.092428
  13 H :    0.034893
  14 H :    0.046403
  15 H :    0.045517
  16 S :    0.105455
  17 C :   -0.091626
  18 C :   -0.021147
  19 C :   -0.010227
  20 C :   -0.144913
  21 H :    0.020050
  22 C :    0.063980
  23 H :    0.023629
  24 H :    0.017318
  25 C :   -0.121844
  26 H :    0.029842
  27 H :    0.023485
  28 C :    0.023252
  29 H :    0.037435
  30 H :    0.020819
  31 H :    0.007792
  32 H :    0.048426
  33 H :    0.053869
Sum of atomic charges:    0.0000000

LOEWDIN ATOMIC CHARGES
----------------------
   0 S :    0.412897
   1 C :   -0.186161
   2 C :   -0.058123
   3 C :   -0.063752
   4 C :   -0.217041
   5 H :    0.028149
   6 C :   -0.023800
   7 H :    0.036022
   8 H :    0.028301
   9 C :   -0.051329
  10 H :    0.023895
  11 H :    0.027149
  12 C :   -0.081413
  13 H :    0.028590
  14 H :    0.029826
  15 H :    0.032819
  16 S :    0.375654
  17 C :   -0.162115
  18 C :   -0.064497
  19 C :   -0.042338
  20 C :   -0.190346
  21 H :    0.026605
  22 C :   -0.038846
  23 H :    0.028655
  24 H :    0.027924
  25 C :   -0.038799
  26 H :    0.019608
  27 H :    0.023254
  28 C :   -0.050875
  29 H :    0.023356
  30 H :    0.031650
  31 H :    0.016366
  32 H :    0.026790
  33 H :    0.021924

  Mayer bond orders larger than 0.100000
B(  0-S ,  1-C ) :   1.1377 B(  0-S ,  4-C ) :   1.1545 B(  1-C ,  2-C ) :   1.6043
B(  1-C , 32-H ) :   0.9679 B(  2-C ,  3-C ) :   1.2297 B(  2-C ,  6-C ) :   1.0384
B(  3-C ,  4-C ) :   1.6052 B(  3-C ,  5-H ) :   0.9935 B(  4-C , 20-C ) :   0.9978
B(  6-C ,  7-H ) :   0.9429 B(  6-C ,  8-H ) :   0.9418 B(  6-C ,  9-C ) :   1.0406
B(  9-C , 10-H ) :   0.9580 B(  9-C , 11-H ) :   0.9538 B(  9-C , 12-C ) :   1.0804
B( 12-C , 13-H ) :   0.9741 B( 12-C , 14-H ) :   0.9740 B( 12-C , 15-H ) :   0.9721
B( 16-S , 17-C ) :   1.1621 B( 16-S , 20-C ) :   1.1215 B( 17-C , 18-C ) :   1.6067
B( 17-C , 20-C ) :   0.1012 B( 17-C , 33-H ) :   0.9685 B( 18-C , 19-C ) :   1.2356
B( 18-C , 21-H ) :   0.9900 B( 19-C , 20-C ) :   1.6096 B( 19-C , 22-C ) :   1.0374
B( 22-C , 23-H ) :   0.9376 B( 22-C , 24-H ) :   0.9337 B( 22-C , 25-C ) :   1.0504
B( 25-C , 26-H ) :   0.9641 B( 25-C , 27-H ) :   0.9535 B( 25-C , 28-C ) :   1.0858
B( 28-C , 29-H ) :   0.9765 B( 28-C , 30-H ) :   0.9685 B( 28-C , 31-H ) :   0.9689

Dispersion correction           -0.013535074
FINAL SINGLE POINT ENERGY     -1339.860794577310

DIPOLE MOMENT
-------------
                                X             Y             Z
Electronic contribution:     28.65939      -0.38654      -5.74973
Nuclear contribution   :    -29.16761       0.31202       6.07901
                        -----------------------------------------
Total Dipole Moment    :     -0.50822      -0.07452       0.32929
                        -----------------------------------------
Magnitude (a.u.)       :      0.61014
Magnitude (Debye)      :      1.55085

Rotational constants in cm-1:     0.017426     0.007905     0.006281
Rotational constants in MHz :   522.433122   236.999945   188.304138

                             ****ORCA TERMINATED NORMALLY****
TOTAL RUN TIME: 0 days 0 hours 0 minutes 27 seconds 88 msec
