                         Program Version 4.2.1 -  RELEASE  -
|  1> ! wB97X-D3 SP def2-SVP
|  2> %pal
|  3> nprocs 16
|  4> end
|  5>
|  6> * xyz 0 1
|  7> S 	 43.2171 	 8.15471 	 87.2666
|  8> C 	 44.3759 	 9.34109 	 87.9013
|  9> C 	 44.9171 	 8.79955 	 89.0501
| 10> C 	 44.4509 	 7.47853 	 89.3114
| 11> C 	 43.5127 	 6.94876 	 88.4172
| 12> H 	 44.6738 	 6.9037 	 90.2184
| 13> C 	 46.1157 	 9.28954 	 89.8037
| 14> H 	 46.1812 	 8.7066 	 90.7657
| 15> H 	 45.9335 	 10.3256 	 90.0495
| 16> C 	 47.4657 	 9.11711 	 89.0703
| 17> H 	 47.5922 	 9.8132 	 88.2299
| 18> H 	 48.3018 	 9.3963 	 89.7356
| 19> C 	 47.7705 	 7.84284 	 88.5032
| 20> H 	 47.7714 	 7.113 	 89.2537
| 21> H 	 47.0214 	 7.48875 	 87.822
| 22> H 	 48.5892 	 7.84548 	 87.8302
| 23> S 	 41.1122 	 5.48317 	 88.3395
| 24> C 	 41.1233 	 3.8246 	 88.5825
| 25> C 	 42.3221 	 3.3746 	 89.0607
| 26> C 	 43.3417 	 4.4066 	 89.0032
| 27> C 	 42.8881 	 5.61029 	 88.5528
| 28> H 	 42.4926 	 2.28035 	 89.1739
| 29> C 	 44.697 	 4.11396 	 89.5591
| 30> H 	 45.4325 	 4.85693 	 89.2384
| 31> H 	 45.1004 	 3.1309 	 89.2019
| 32> C 	 44.7928 	 4.08206 	 91.0868
| 33> H 	 44.1316 	 3.35624 	 91.5746
| 34> H 	 44.2921 	 5.01794 	 91.4098
| 35> C 	 46.236 	 3.99095 	 91.6519
| 36> H 	 46.7345 	 3.15695 	 91.2003
| 37> H 	 46.2152 	 3.8301 	 92.7952
| 38> H 	 46.8094 	 4.90815 	 91.3971
| 39> H 	 44.7241 	 10.2963 	 87.5283
| 40> H 	 40.2351 	 3.14348 	 88.5255
| 41> *
| 42>
| 43>                          ****END OF INPUT****

CARTESIAN COORDINATES (ANGSTROEM)
---------------------------------
  S     43.217100    8.154710   87.266600
  C     44.375900    9.341090   87.901300
  C     44.917100    8.799550   89.050100
  C     44.450900    7.478530   89.311400
  C     43.512700    6.948760   88.417200
  H     44.673800    6.903700   90.218400
  C     46.115700    9.289540   89.803700
  H     46.181200    8.706600   90.765700
  H     45.933500   10.325600   90.049500
  C     47.465700    9.117110   89.070300
  H     47.592200    9.813200   88.229900
  H     48.301800    9.396300   89.735600
  C     47.770500    7.842840   88.503200
  H     47.771400    7.113000   89.253700
  H     47.021400    7.488750   87.822000
  H     48.589200    7.845480   87.830200
  S     41.112200    5.483170   88.339500
  C     41.123300    3.824600   88.582500
  C     42.322100    3.374600   89.060700
  C     43.341700    4.406600   89.003200
  C     42.888100    5.610290   88.552800
  H     42.492600    2.280350   89.173900
  C     44.697000    4.113960   89.559100
  H     45.432500    4.856930   89.238400
  H     45.100400    3.130900   89.201900
  C     44.792800    4.082060   91.086800
  H     44.131600    3.356240   91.574600
  H     44.292100    5.017940   91.409800
  C     46.236000    3.990950   91.651900
  H     46.734500    3.156950   91.200300
  H     46.215200    3.830100   92.795200
  H     46.809400    4.908150   91.397100
  H     44.724100   10.296300   87.528300
  H     40.235100    3.143480   88.525500

 Total Charge           Charge          ....    0
 Multiplicity           Mult            ....    1
 Number of Electrons    NEL             ....  134
 Basis Dimension        Dim             ....  322

ORBITAL ENERGIES
----------------

  NO   OCC          E(Eh)            E(eV)
   0   2.0000     -88.970848     -2421.0199
   1   2.0000     -88.964100     -2420.8362
   2   2.0000     -10.334570      -281.2179
   3   2.0000     -10.333902      -281.1998
   4   2.0000     -10.319289      -280.8021
   5   2.0000     -10.317862      -280.7633
   6   2.0000     -10.306681      -280.4591
   7   2.0000     -10.298871      -280.2465
   8   2.0000     -10.295561      -280.1565
   9   2.0000     -10.295201      -280.1467
  10   2.0000     -10.293567      -280.1022
  11   2.0000     -10.292559      -280.0748
  12   2.0000     -10.290267      -280.0124
  13   2.0000     -10.290141      -280.0090
  14   2.0000     -10.281840      -279.7831
  15   2.0000     -10.257782      -279.1284
  16   2.0000      -8.085564      -220.0194
  17   2.0000      -8.080019      -219.8685
  18   2.0000      -6.044153      -164.4698
  19   2.0000      -6.039785      -164.3509
  20   2.0000      -6.038515      -164.3163
  21   2.0000      -6.036466      -164.2606
  22   2.0000      -6.034441      -164.2055
  23   2.0000      -6.030615      -164.1014
  24   2.0000      -1.013064       -27.5669
  25   2.0000      -0.993791       -27.0424
  26   2.0000      -0.922797       -25.1106
  27   2.0000      -0.912431       -24.8285
  28   2.0000      -0.875549       -23.8249
  29   2.0000      -0.855431       -23.2775
  30   2.0000      -0.846117       -23.0240
  31   2.0000      -0.814420       -22.1615
  32   2.0000      -0.787326       -21.4242
  33   2.0000      -0.777830       -21.1658
  34   2.0000      -0.706960       -19.2374
  35   2.0000      -0.701024       -19.0758
  36   2.0000      -0.694548       -18.8996
  37   2.0000      -0.660775       -17.9806
  38   2.0000      -0.635489       -17.2925
  39   2.0000      -0.618685       -16.8353
  40   2.0000      -0.597754       -16.2657
  41   2.0000      -0.579987       -15.7822
  42   2.0000      -0.565811       -15.3965
  43   2.0000      -0.560186       -15.2434
  44   2.0000      -0.549599       -14.9554
  45   2.0000      -0.524665       -14.2769
  46   2.0000      -0.518811       -14.1176
  47   2.0000      -0.513410       -13.9706
  48   2.0000      -0.509281       -13.8582
  49   2.0000      -0.505036       -13.7427
  50   2.0000      -0.494368       -13.4524
  51   2.0000      -0.478347       -13.0165
  52   2.0000      -0.473181       -12.8759
  53   2.0000      -0.468662       -12.7530
  54   2.0000      -0.461930       -12.5698
  55   2.0000      -0.452259       -12.3066
  56   2.0000      -0.449142       -12.2218
  57   2.0000      -0.436680       -11.8827
  58   2.0000      -0.427764       -11.6400
  59   2.0000      -0.422277       -11.4907
  60   2.0000      -0.417188       -11.3523
  61   2.0000      -0.412818       -11.2333
  62   2.0000      -0.403552       -10.9812
  63   2.0000      -0.355285        -9.6678
  64   2.0000      -0.331060        -9.0086
  65   2.0000      -0.329481        -8.9656
  66   2.0000      -0.296858        -8.0779
  67   0.0000       0.026452         0.7198
  68   0.0000       0.077275         2.1028
  69   0.0000       0.109844         2.9890
  70   0.0000       0.113721         3.0945
  71   0.0000       0.122526         3.3341

MULLIKEN ATOMIC CHARGES
-----------------------
   0 S :    0.119179
   1 C :   -0.113399
   2 C :   -0.090876
   3 C :   -0.021522
   4 C :   -0.114882
   5 H :    0.003172
   6 C :    0.068555
   7 H :    0.031426
   8 H :    0.028552
   9 C :   -0.069263
  10 H :    0.012221
  11 H :    0.028386
  12 C :    0.007621
  13 H :    0.005138
  14 H :    0.021238
  15 H :    0.021290
  16 S :    0.103471
  17 C :   -0.093109
  18 C :   -0.049088
  19 C :   -0.049568
  20 C :   -0.124774
  21 H :    0.039267
  22 C :    0.042323
  23 H :    0.020795
  24 H :    0.024958
  25 C :   -0.091787
  26 H :    0.024902
  27 H :    0.023713
  28 C :   -0.056720
  29 H :    0.030270
  30 H :    0.054303
  31 H :    0.040104
  32 H :    0.047278
  33 H :    0.076823
Sum of atomic charges:    0.0000000

LOEWDIN ATOMIC CHARGES
----------------------
   0 S :    0.434046
   1 C :   -0.194590
   2 C :   -0.070243
   3 C :   -0.075580
   4 C :   -0.214284
   5 H :    0.027685
   6 C :   -0.030011
   7 H :    0.035914
   8 H :    0.030833
   9 C :   -0.044671
  10 H :    0.022308
  11 H :    0.027443
  12 C :   -0.062843
  13 H :    0.014167
  14 H :    0.027287
  15 H :    0.027616
  16 S :    0.411908
  17 C :   -0.205173
  18 C :   -0.084683
  19 C :   -0.053589
  20 C :   -0.179399
  21 H :    0.039998
  22 C :   -0.038097
  23 H :    0.028369
  24 H :    0.030878
  25 C :   -0.047768
  26 H :    0.022623
  27 H :    0.020804
  28 C :   -0.067968
  29 H :    0.020551
  30 H :    0.039995
  31 H :    0.027043
  32 H :    0.035543
  33 H :    0.043891

  Mayer bond orders larger than 0.100000
B(  0-S ,  1-C ) :   1.1399 B(  0-S ,  4-C ) :   1.1738 B(  1-C ,  2-C ) :   1.5694
B(  1-C ,  4-C ) :   0.1014 B(  1-C , 32-H ) :   0.9734 B(  2-C ,  3-C ) :   1.2792
B(  2-C ,  6-C ) :   1.0320 B(  3-C ,  4-C ) :   1.5209 B(  3-C ,  5-H ) :   0.9872
B(  4-C , 20-C ) :   1.0326 B(  6-C ,  7-H ) :   0.9417 B(  6-C ,  8-H ) :   0.9325
B(  6-C ,  9-C ) :   1.0710 B(  9-C , 10-H ) :   0.9497 B(  9-C , 11-H ) :   0.9521
B(  9-C , 12-C ) :   1.1088 B( 12-C , 13-H ) :   0.9688 B( 12-C , 14-H ) :   0.9556
B( 12-C , 15-H ) :   0.9618 B( 16-S , 17-C ) :   1.1731 B( 16-S , 20-C ) :   1.1162
B( 17-C , 18-C ) :   1.6233 B( 17-C , 33-H ) :   0.9562 B( 18-C , 19-C ) :   1.2185
B( 18-C , 21-H ) :   0.9822 B( 19-C , 20-C ) :   1.6367 B( 19-C , 22-C ) :   1.0715
B( 22-C , 23-H ) :   0.9331 B( 22-C , 24-H ) :   0.9273 B( 22-C , 25-C ) :   1.0537
B( 25-C , 26-H ) :   0.9510 B( 25-C , 27-H ) :   0.9489 B( 25-C , 28-C ) :   1.0746
B( 28-C , 29-H ) :   0.9746 B( 28-C , 30-H ) :   0.9735 B( 28-C , 31-H ) :   0.9741

Dispersion correction           -0.015550993
FINAL SINGLE POINT ENERGY     -1339.872407777055

DIPOLE MOMENT
-------------
                                X             Y             Z
Electronic contribution:    -27.34333       3.64770     -14.15005
Nuclear contribution   :     27.86482      -3.87570      14.50078
                        -----------------------------------------
Total Dipole Moment    :      0.52149      -0.22800       0.35073
                        -----------------------------------------
Magnitude (a.u.)       :      0.66854
Magnitude (Debye)      :      1.69930

Rotational constants in cm-1:     0.017841     0.010471     0.007099
Rotational constants in MHz :   534.845733   313.899212   212.834252

                             ****ORCA TERMINATED NORMALLY****
TOTAL RUN TIME: 0 days 0 hours 0 minutes 32 seconds 128 msec
