                         Program Version 4.2.1 -  RELEASE  -
|  1> ! wB97X-D3 SP def2-SVP
|  2> %pal
|  3> nprocs 16
|  4> end
|  5>
|  6> * xyz 0 1
|  7> S 	 36.9525 	 7.10725 	 87.9067
|  8> C 	 37.1614 	 6.81017 	 86.1844
|  9> C 	 38.0955 	 7.67271 	 85.6007
| 10> C 	 38.6644 	 8.60024 	 86.4814
| 11> C 	 38.0972 	 8.43087 	 87.751
| 12> H 	 39.4543 	 9.36513 	 86.3183
| 13> C 	 38.4545 	 7.65102 	 84.0791
| 14> H 	 39.4104 	 8.09743 	 83.8578
| 15> H 	 37.7057 	 8.27953 	 83.5995
| 16> C 	 38.8235 	 6.22118 	 83.5418
| 17> H 	 37.9658 	 5.5557 	 83.7547
| 18> H 	 38.9603 	 6.23462 	 82.4621
| 19> C 	 40.0255 	 5.56381 	 84.198
| 20> H 	 40.2691 	 4.60503 	 83.8458
| 21> H 	 40.9383 	 6.0944 	 84.1185
| 22> H 	 39.8248 	 5.41859 	 85.292
| 23> S 	 38.8822 	 8.36923 	 90.3522
| 24> C 	 38.8957 	 9.84027 	 91.3446
| 25> C 	 38.8012 	 10.9306 	 90.4931
| 26> C 	 38.6339 	 10.6308 	 89.1176
| 27> C 	 38.4948 	 9.24095 	 88.8974
| 28> H 	 38.936 	 11.9012 	 90.8769
| 29> C 	 38.7869 	 11.6519 	 87.9941
| 30> H 	 38.5011 	 11.113 	 87.0554
| 31> H 	 39.8299 	 11.8557 	 87.9453
| 32> C 	 38.0435 	 12.947 	 88.0789
| 33> H 	 38.2288 	 13.5049 	 88.959
| 34> H 	 36.9609 	 12.8466 	 87.9652
| 35> C 	 38.4265 	 13.8369 	 86.9168
| 36> H 	 38.041 	 14.8288 	 87.0501
| 37> H 	 38.1064 	 13.3935 	 85.9501
| 38> H 	 39.4965 	 13.9231 	 86.8384
| 39> H 	 36.6722 	 6.03875 	 85.6532
| 40> H 	 39.0188 	 9.86364 	 92.4291
| 41> *
| 42>
| 43>                          ****END OF INPUT****

CARTESIAN COORDINATES (ANGSTROEM)
---------------------------------
  S     36.952500    7.107250   87.906700
  C     37.161400    6.810170   86.184400
  C     38.095500    7.672710   85.600700
  C     38.664400    8.600240   86.481400
  C     38.097200    8.430870   87.751000
  H     39.454300    9.365130   86.318300
  C     38.454500    7.651020   84.079100
  H     39.410400    8.097430   83.857800
  H     37.705700    8.279530   83.599500
  C     38.823500    6.221180   83.541800
  H     37.965800    5.555700   83.754700
  H     38.960300    6.234620   82.462100
  C     40.025500    5.563810   84.198000
  H     40.269100    4.605030   83.845800
  H     40.938300    6.094400   84.118500
  H     39.824800    5.418590   85.292000
  S     38.882200    8.369230   90.352200
  C     38.895700    9.840270   91.344600
  C     38.801200   10.930600   90.493100
  C     38.633900   10.630800   89.117600
  C     38.494800    9.240950   88.897400
  H     38.936000   11.901200   90.876900
  C     38.786900   11.651900   87.994100
  H     38.501100   11.113000   87.055400
  H     39.829900   11.855700   87.945300
  C     38.043500   12.947000   88.078900
  H     38.228800   13.504900   88.959000
  H     36.960900   12.846600   87.965200
  C     38.426500   13.836900   86.916800
  H     38.041000   14.828800   87.050100
  H     38.106400   13.393500   85.950100
  H     39.496500   13.923100   86.838400
  H     36.672200    6.038750   85.653200
  H     39.018800    9.863640   92.429100

 Total Charge           Charge          ....    0
 Multiplicity           Mult            ....    1
 Number of Electrons    NEL             ....  134
 Basis Dimension        Dim             ....  322

ORBITAL ENERGIES
----------------

  NO   OCC          E(Eh)            E(eV)
   0   2.0000     -88.974885     -2421.1297
   1   2.0000     -88.961136     -2420.7556
   2   2.0000     -10.331555      -281.1359
   3   2.0000     -10.324227      -280.9365
   4   2.0000     -10.318353      -280.7767
   5   2.0000     -10.313322      -280.6398
   6   2.0000     -10.304898      -280.4105
   7   2.0000     -10.302224      -280.3378
   8   2.0000     -10.297936      -280.2211
   9   2.0000     -10.295675      -280.1595
  10   2.0000     -10.291451      -280.0446
  11   2.0000     -10.290303      -280.0134
  12   2.0000     -10.289518      -279.9920
  13   2.0000     -10.278161      -279.6830
  14   2.0000     -10.273429      -279.5542
  15   2.0000     -10.270491      -279.4743
  16   2.0000      -8.088832      -220.1083
  17   2.0000      -8.075781      -219.7532
  18   2.0000      -6.047207      -164.5529
  19   2.0000      -6.043529      -164.4528
  20   2.0000      -6.039683      -164.3481
  21   2.0000      -6.034295      -164.2015
  22   2.0000      -6.030236      -164.0911
  23   2.0000      -6.026612      -163.9925
  24   2.0000      -1.004852       -27.3434
  25   2.0000      -0.980596       -26.6834
  26   2.0000      -0.916473       -24.9385
  27   2.0000      -0.906518       -24.6676
  28   2.0000      -0.865379       -23.5482
  29   2.0000      -0.856601       -23.3093
  30   2.0000      -0.847591       -23.0641
  31   2.0000      -0.810806       -22.0631
  32   2.0000      -0.783171       -21.3112
  33   2.0000      -0.769471       -20.9384
  34   2.0000      -0.706347       -19.2207
  35   2.0000      -0.703935       -19.1550
  36   2.0000      -0.693844       -18.8804
  37   2.0000      -0.659223       -17.9384
  38   2.0000      -0.640361       -17.4251
  39   2.0000      -0.611565       -16.6415
  40   2.0000      -0.595405       -16.2018
  41   2.0000      -0.575031       -15.6474
  42   2.0000      -0.573919       -15.6171
  43   2.0000      -0.557657       -15.1746
  44   2.0000      -0.540884       -14.7182
  45   2.0000      -0.532244       -14.4831
  46   2.0000      -0.514938       -14.0122
  47   2.0000      -0.510974       -13.9043
  48   2.0000      -0.499161       -13.5828
  49   2.0000      -0.493936       -13.4407
  50   2.0000      -0.486288       -13.2326
  51   2.0000      -0.481618       -13.1055
  52   2.0000      -0.470592       -12.8055
  53   2.0000      -0.467164       -12.7122
  54   2.0000      -0.459438       -12.5020
  55   2.0000      -0.452124       -12.3029
  56   2.0000      -0.448272       -12.1981
  57   2.0000      -0.442848       -12.0505
  58   2.0000      -0.434661       -11.8277
  59   2.0000      -0.423312       -11.5189
  60   2.0000      -0.419031       -11.4024
  61   2.0000      -0.415315       -11.3013
  62   2.0000      -0.403880       -10.9901
  63   2.0000      -0.347013        -9.4427
  64   2.0000      -0.336480        -9.1561
  65   2.0000      -0.326420        -8.8824
  66   2.0000      -0.284525        -7.7423
  67   0.0000       0.022853         0.6219
  68   0.0000       0.071420         1.9434
  69   0.0000       0.107220         2.9176
  70   0.0000       0.117049         3.1851
  71   0.0000       0.136011         3.7010

MULLIKEN ATOMIC CHARGES
-----------------------
   0 S :    0.140595
   1 C :   -0.121477
   2 C :   -0.076336
   3 C :   -0.002923
   4 C :   -0.143260
   5 H :    0.044568
   6 C :    0.070640
   7 H :    0.015441
   8 H :    0.053306
   9 C :   -0.087107
  10 H :    0.024413
  11 H :    0.033525
  12 C :   -0.038635
  13 H :    0.021133
  14 H :    0.017596
  15 H :    0.043385
  16 S :    0.089352
  17 C :   -0.105489
  18 C :   -0.016170
  19 C :   -0.002820
  20 C :   -0.188585
  21 H :   -0.000017
  22 C :    0.042237
  23 H :    0.024973
  24 H :    0.031443
  25 C :   -0.052543
  26 H :    0.018431
  27 H :    0.034513
  28 C :   -0.038799
  29 H :    0.030275
  30 H :    0.027809
  31 H :    0.010903
  32 H :    0.034071
  33 H :    0.065553
Sum of atomic charges:   -0.0000000

LOEWDIN ATOMIC CHARGES
----------------------
   0 S :    0.417390
   1 C :   -0.197833
   2 C :   -0.057590
   3 C :   -0.066716
   4 C :   -0.189082
   5 H :    0.043800
   6 C :   -0.030661
   7 H :    0.025993
   8 H :    0.035925
   9 C :   -0.039601
  10 H :    0.019892
  11 H :    0.023584
  12 C :   -0.064738
  13 H :    0.021738
  14 H :    0.017521
  15 H :    0.035121
  16 S :    0.396022
  17 C :   -0.183677
  18 C :   -0.067582
  19 C :   -0.058411
  20 C :   -0.202434
  21 H :    0.022465
  22 C :   -0.032193
  23 H :    0.035983
  24 H :    0.030471
  25 C :   -0.040817
  26 H :    0.016958
  27 H :    0.030067
  28 C :   -0.059044
  29 H :    0.023375
  30 H :    0.026202
  31 H :    0.016820
  32 H :    0.017640
  33 H :    0.033412

  Mayer bond orders larger than 0.100000
B(  0-S ,  1-C ) :   1.1326 B(  0-S ,  4-C ) :   1.1689 B(  1-C ,  2-C ) :   1.5877
B(  1-C ,  4-C ) :   0.1018 B(  1-C , 32-H ) :   0.9759 B(  2-C ,  3-C ) :   1.2651
B(  2-C ,  6-C ) :   0.9980 B(  3-C ,  4-C ) :   1.5334 B(  3-C ,  5-H ) :   0.9849
B(  4-C , 20-C ) :   1.0548 B(  6-C ,  7-H ) :   0.9528 B(  6-C ,  8-H ) :   0.9470
B(  6-C ,  9-C ) :   1.0479 B(  9-C , 10-H ) :   0.9583 B(  9-C , 11-H ) :   0.9597
B(  9-C , 12-C ) :   1.0794 B( 12-C , 13-H ) :   0.9716 B( 12-C , 14-H ) :   0.9741
B( 12-C , 15-H ) :   0.9708 B( 16-S , 17-C ) :   1.1447 B( 16-S , 20-C ) :   1.1607
B( 17-C , 18-C ) :   1.5791 B( 17-C , 20-C ) :   0.1067 B( 17-C , 33-H ) :   0.9710
B( 18-C , 19-C ) :   1.2687 B( 18-C , 21-H ) :   0.9965 B( 19-C , 20-C ) :   1.5436
B( 19-C , 22-C ) :   1.0323 B( 22-C , 23-H ) :   0.9276 B( 22-C , 24-H ) :   0.9341
B( 22-C , 25-C ) :   1.0817 B( 25-C , 26-H ) :   0.9501 B( 25-C , 27-H ) :   0.9511
B( 25-C , 28-C ) :   1.0937 B( 28-C , 29-H ) :   0.9721 B( 28-C , 30-H ) :   0.9737
B( 28-C , 31-H ) :   0.9720

Dispersion correction           -0.013850395
FINAL SINGLE POINT ENERGY     -1339.872525760651

DIPOLE MOMENT
-------------
                                X             Y             Z
Electronic contribution:     -6.59049     -11.37770      21.50058
Nuclear contribution   :      6.84893      11.76327     -21.93195
                        -----------------------------------------
Total Dipole Moment    :      0.25844       0.38558      -0.43137
                        -----------------------------------------
Magnitude (a.u.)       :      0.63367
Magnitude (Debye)      :      1.61067

Rotational constants in cm-1:     0.018349     0.008374     0.006462
Rotational constants in MHz :   550.077993   251.047420   193.714100

                             ****ORCA TERMINATED NORMALLY****
TOTAL RUN TIME: 0 days 0 hours 0 minutes 29 seconds 991 msec
