                         Program Version 4.2.1 -  RELEASE  -
|  1> ! wB97X-D3 SP def2-SVP
|  2> %pal
|  3> nprocs 16
|  4> end
|  5>
|  6> * xyz 0 1
|  7> S 	 -44.3952 	 16.0189 	 82.7558
|  8> C 	 -42.6822 	 15.5227 	 82.9555
|  9> C 	 -41.8159 	 16.5217 	 83.3841
| 10> C 	 -42.6102 	 17.7649 	 83.5442
| 11> C 	 -43.9479 	 17.6659 	 83.1662
| 12> H 	 -42.2474 	 18.7397 	 83.7338
| 13> C 	 -40.2753 	 16.4033 	 83.5873
| 14> H 	 -39.9035 	 16.3549 	 82.6294
| 15> H 	 -40.0127 	 15.5048 	 84.139
| 16> C 	 -39.512 	 17.4149 	 84.4846
| 17> H 	 -39.5919 	 18.3981 	 84.0453
| 18> H 	 -40.0168 	 17.432 	 85.4868
| 19> C 	 -38.0169 	 17.094 	 84.6103
| 20> H 	 -37.4954 	 17.4726 	 85.5262
| 21> H 	 -37.9419 	 16.0198 	 84.7058
| 22> H 	 -37.465 	 17.3215 	 83.6584
| 23> S 	 -46.0395 	 18.9084 	 81.8
| 24> C 	 -46.8344 	 20.3471 	 82.5283
| 25> C 	 -46.176 	 20.7398 	 83.6983
| 26> C 	 -45.0884 	 19.8615 	 84.0599
| 27> C 	 -44.8967 	 18.7819 	 83.1835
| 28> H 	 -46.6153 	 21.5959 	 84.1359
| 29> C 	 -44.463 	 20.0586 	 85.4219
| 30> H 	 -44.3521 	 19.0711 	 85.92
| 31> H 	 -45.232 	 20.6286 	 85.9648
| 32> C 	 -43.153 	 20.9708 	 85.5177
| 33> H 	 -43.4086 	 21.99 	 85.4028
| 34> H 	 -42.6013 	 20.9109 	 84.6043
| 35> C 	 -42.3511 	 20.67 	 86.7912
| 36> H 	 -41.5145 	 21.3315 	 86.8848
| 37> H 	 -41.8733 	 19.6578 	 86.8184
| 38> H 	 -42.9833 	 20.7981 	 87.6282
| 39> H 	 -42.3867 	 14.437 	 82.7725
| 40> H 	 -47.7141 	 20.8572 	 82.0506
| 41> *
| 42>
| 43>                          ****END OF INPUT****

CARTESIAN COORDINATES (ANGSTROEM)
---------------------------------
  S    -44.395200   16.018900   82.755800
  C    -42.682200   15.522700   82.955500
  C    -41.815900   16.521700   83.384100
  C    -42.610200   17.764900   83.544200
  C    -43.947900   17.665900   83.166200
  H    -42.247400   18.739700   83.733800
  C    -40.275300   16.403300   83.587300
  H    -39.903500   16.354900   82.629400
  H    -40.012700   15.504800   84.139000
  C    -39.512000   17.414900   84.484600
  H    -39.591900   18.398100   84.045300
  H    -40.016800   17.432000   85.486800
  C    -38.016900   17.094000   84.610300
  H    -37.495400   17.472600   85.526200
  H    -37.941900   16.019800   84.705800
  H    -37.465000   17.321500   83.658400
  S    -46.039500   18.908400   81.800000
  C    -46.834400   20.347100   82.528300
  C    -46.176000   20.739800   83.698300
  C    -45.088400   19.861500   84.059900
  C    -44.896700   18.781900   83.183500
  H    -46.615300   21.595900   84.135900
  C    -44.463000   20.058600   85.421900
  H    -44.352100   19.071100   85.920000
  H    -45.232000   20.628600   85.964800
  C    -43.153000   20.970800   85.517700
  H    -43.408600   21.990000   85.402800
  H    -42.601300   20.910900   84.604300
  C    -42.351100   20.670000   86.791200
  H    -41.514500   21.331500   86.884800
  H    -41.873300   19.657800   86.818400
  H    -42.983300   20.798100   87.628200
  H    -42.386700   14.437000   82.772500
  H    -47.714100   20.857200   82.050600

 Total Charge           Charge          ....    0
 Multiplicity           Mult            ....    1
 Number of Electrons    NEL             ....  134
 Basis Dimension        Dim             ....  322

ORBITAL ENERGIES
----------------

  NO   OCC          E(Eh)            E(eV)
   0   2.0000     -88.968933     -2420.9678
   1   2.0000     -88.963090     -2420.8088
   2   2.0000     -10.333676      -281.1936
   3   2.0000     -10.332597      -281.1643
   4   2.0000     -10.326153      -280.9889
   5   2.0000     -10.324796      -280.9520
   6   2.0000     -10.315650      -280.7031
   7   2.0000     -10.308952      -280.5208
   8   2.0000     -10.297449      -280.2078
   9   2.0000     -10.296603      -280.1848
  10   2.0000     -10.295580      -280.1570
  11   2.0000     -10.294982      -280.1407
  12   2.0000     -10.294533      -280.1285
  13   2.0000     -10.288470      -279.9635
  14   2.0000     -10.285104      -279.8719
  15   2.0000     -10.278068      -279.6805
  16   2.0000      -8.082818      -219.9447
  17   2.0000      -8.076505      -219.7729
  18   2.0000      -6.041472      -164.3968
  19   2.0000      -6.037589      -164.2912
  20   2.0000      -6.035116      -164.2239
  21   2.0000      -6.033326      -164.1751
  22   2.0000      -6.031172      -164.1165
  23   2.0000      -6.027258      -164.0100
  24   2.0000      -0.994696       -27.0671
  25   2.0000      -0.970692       -26.4139
  26   2.0000      -0.911272       -24.7970
  27   2.0000      -0.899603       -24.4794
  28   2.0000      -0.866751       -23.5855
  29   2.0000      -0.849346       -23.1119
  30   2.0000      -0.842597       -22.9282
  31   2.0000      -0.811277       -22.0760
  32   2.0000      -0.782034       -21.2802
  33   2.0000      -0.767940       -20.8967
  34   2.0000      -0.713659       -19.4196
  35   2.0000      -0.703582       -19.1454
  36   2.0000      -0.685869       -18.6635
  37   2.0000      -0.661264       -17.9939
  38   2.0000      -0.637940       -17.3592
  39   2.0000      -0.615805       -16.7569
  40   2.0000      -0.587987       -15.9999
  41   2.0000      -0.580200       -15.7881
  42   2.0000      -0.564378       -15.3575
  43   2.0000      -0.552798       -15.0424
  44   2.0000      -0.528899       -14.3921
  45   2.0000      -0.519547       -14.1376
  46   2.0000      -0.516436       -14.0529
  47   2.0000      -0.504115       -13.7177
  48   2.0000      -0.500362       -13.6155
  49   2.0000      -0.494112       -13.4455
  50   2.0000      -0.485841       -13.2204
  51   2.0000      -0.480837       -13.0842
  52   2.0000      -0.474288       -12.9060
  53   2.0000      -0.465891       -12.6776
  54   2.0000      -0.457043       -12.4368
  55   2.0000      -0.449371       -12.2280
  56   2.0000      -0.444939       -12.1074
  57   2.0000      -0.437162       -11.8958
  58   2.0000      -0.433354       -11.7922
  59   2.0000      -0.427585       -11.6352
  60   2.0000      -0.421196       -11.4613
  61   2.0000      -0.416700       -11.3390
  62   2.0000      -0.409969       -11.1558
  63   2.0000      -0.349160        -9.5011
  64   2.0000      -0.332203        -9.0397
  65   2.0000      -0.327612        -8.9148
  66   2.0000      -0.288039        -7.8379
  67   0.0000       0.023116         0.6290
  68   0.0000       0.072241         1.9658
  69   0.0000       0.104004         2.8301
  70   0.0000       0.120395         3.2761
  71   0.0000       0.123749         3.3674

MULLIKEN ATOMIC CHARGES
-----------------------
   0 S :    0.112033
   1 C :   -0.164018
   2 C :   -0.052147
   3 C :    0.021511
   4 C :   -0.127178
   5 H :   -0.013212
   6 C :    0.066172
   7 H :    0.031725
   8 H :    0.028790
   9 C :   -0.101286
  10 H :    0.033409
  11 H :    0.047253
  12 C :   -0.057670
  13 H :    0.052013
  14 H :    0.013134
  15 H :    0.044167
  16 S :    0.077269
  17 C :   -0.129682
  18 C :   -0.021652
  19 C :   -0.023633
  20 C :   -0.141744
  21 H :    0.013121
  22 C :    0.012208
  23 H :    0.049983
  24 H :    0.026462
  25 C :   -0.035239
  26 H :    0.006826
  27 H :    0.013722
  28 C :   -0.029078
  29 H :    0.024989
  30 H :    0.040367
  31 H :    0.028787
  32 H :    0.071514
  33 H :    0.081084
Sum of atomic charges:   -0.0000000

LOEWDIN ATOMIC CHARGES
----------------------
   0 S :    0.384549
   1 C :   -0.192541
   2 C :   -0.053624
   3 C :   -0.056880
   4 C :   -0.192921
   5 H :    0.021545
   6 C :   -0.024993
   7 H :    0.023900
   8 H :    0.033169
   9 C :   -0.043671
  10 H :    0.018323
  11 H :    0.031450
  12 C :   -0.072104
  13 H :    0.036150
  14 H :    0.019156
  15 H :    0.033586
  16 S :    0.359210
  17 C :   -0.175501
  18 C :   -0.070129
  19 C :   -0.058586
  20 C :   -0.180001
  21 H :    0.029454
  22 C :   -0.033555
  23 H :    0.037286
  24 H :    0.032793
  25 C :   -0.038447
  26 H :    0.020143
  27 H :    0.015928
  28 C :   -0.059740
  29 H :    0.023368
  30 H :    0.031959
  31 H :    0.021200
  32 H :    0.038853
  33 H :    0.040669

  Mayer bond orders larger than 0.100000
B(  0-S ,  1-C ) :   1.1224 B(  0-S ,  4-C ) :   1.1319 B(  1-C ,  2-C ) :   1.6540
B(  1-C , 32-H ) :   0.9601 B(  2-C ,  3-C ) :   1.2019 B(  2-C ,  6-C ) :   0.9956
B(  3-C ,  4-C ) :   1.6001 B(  3-C ,  5-H ) :   0.9977 B(  4-C , 20-C ) :   1.0585
B(  6-C ,  7-H ) :   0.9418 B(  6-C ,  8-H ) :   0.9474 B(  6-C ,  9-C ) :   1.0654
B(  9-C , 10-H ) :   0.9514 B(  9-C , 11-H ) :   0.9590 B(  9-C , 12-C ) :   1.0806
B( 12-C , 13-H ) :   0.9736 B( 12-C , 14-H ) :   0.9730 B( 12-C , 15-H ) :   0.9735
B( 16-S , 17-C ) :   1.1418 B( 16-S , 20-C ) :   1.1186 B( 17-C , 18-C ) :   1.6314
B( 17-C , 33-H ) :   0.9597 B( 18-C , 19-C ) :   1.2102 B( 18-C , 21-H ) :   0.9962
B( 19-C , 20-C ) :   1.5946 B( 19-C , 22-C ) :   1.0423 B( 22-C , 23-H ) :   0.9506
B( 22-C , 24-H ) :   0.9377 B( 22-C , 25-C ) :   1.0339 B( 25-C , 26-H ) :   0.9449
B( 25-C , 27-H ) :   0.9591 B( 25-C , 28-C ) :   1.0783 B( 28-C , 29-H ) :   0.9725
B( 28-C , 30-H ) :   0.9757 B( 28-C , 31-H ) :   0.9747

Dispersion correction           -0.014166442
FINAL SINGLE POINT ENERGY     -1339.863873021403

DIPOLE MOMENT
-------------
                                X             Y             Z
Electronic contribution:    -26.96300      -8.34082     -18.61534
Nuclear contribution   :     27.50986       8.67235      19.04662
                        -----------------------------------------
Total Dipole Moment    :      0.54686       0.33153       0.43129
                        -----------------------------------------
Magnitude (a.u.)       :      0.77135
Magnitude (Debye)      :      1.96062

Rotational constants in cm-1:     0.017254     0.009083     0.006374
Rotational constants in MHz :   517.264299   272.310387   191.075074

                             ****ORCA TERMINATED NORMALLY****
TOTAL RUN TIME: 0 days 0 hours 0 minutes 30 seconds 2 msec
