                         Program Version 4.2.1 -  RELEASE  -
|  1> ! wB97X-D3 SP def2-SVP
|  2> %pal
|  3> nprocs 16
|  4> end
|  5>
|  6> * xyz 0 1
|  7> S 	 -0.85591 	 -12.4866 	 71.9624
|  8> C 	 -1.74733 	 -14.0124 	 72.0787
|  9> C 	 -3.08478 	 -13.8342 	 71.8139
| 10> C 	 -3.40158 	 -12.4069 	 71.6702
| 11> C 	 -2.29067 	 -11.5504 	 71.646
| 12> H 	 -4.35266 	 -11.992 	 71.4242
| 13> C 	 -4.13102 	 -14.909 	 71.789
| 14> H 	 -4.84411 	 -14.5865 	 72.5481
| 15> H 	 -3.63646 	 -15.7994 	 72.1035
| 16> C 	 -4.88326 	 -15.0648 	 70.5105
| 17> H 	 -5.51995 	 -14.1999 	 70.2583
| 18> H 	 -4.24254 	 -15.2197 	 69.6575
| 19> C 	 -5.85272 	 -16.1953 	 70.648
| 20> H 	 -5.37034 	 -17.2349 	 70.7624
| 21> H 	 -6.53989 	 -16.0115 	 71.4712
| 22> H 	 -6.57556 	 -16.2546 	 69.8286
| 23> S 	 -2.28709 	 -9.32627 	 73.1905
| 24> C 	 -2.39183 	 -7.81352 	 72.4045
| 25> C 	 -2.49518 	 -7.84766 	 71.0549
| 26> C 	 -2.38817 	 -9.16409 	 70.5777
| 27> C 	 -2.28102 	 -10.1204 	 71.6072
| 28> H 	 -2.53816 	 -6.90894 	 70.5523
| 29> C 	 -2.55803 	 -9.45709 	 69.1132
| 30> H 	 -1.98315 	 -10.3352 	 68.9308
| 31> H 	 -2.0562 	 -8.68774 	 68.6017
| 32> C 	 -3.95152 	 -9.68814 	 68.531
| 33> H 	 -4.48047 	 -8.74026 	 68.5927
| 34> H 	 -4.54229 	 -10.3767 	 69.1594
| 35> C 	 -3.90486 	 -10.0743 	 67.0085
| 36> H 	 -3.30434 	 -10.9312 	 66.7431
| 37> H 	 -3.64631 	 -9.23527 	 66.3771
| 38> H 	 -4.93054 	 -10.4357 	 66.8928
| 39> H 	 -1.25196 	 -14.9254 	 72.2485
| 40> H 	 -2.38956 	 -6.9421 	 72.9653
| 41> *
| 42>
| 43>                          ****END OF INPUT****

CARTESIAN COORDINATES (ANGSTROEM)
---------------------------------
  S     -0.855910  -12.486600   71.962400
  C     -1.747330  -14.012400   72.078700
  C     -3.084780  -13.834200   71.813900
  C     -3.401580  -12.406900   71.670200
  C     -2.290670  -11.550400   71.646000
  H     -4.352660  -11.992000   71.424200
  C     -4.131020  -14.909000   71.789000
  H     -4.844110  -14.586500   72.548100
  H     -3.636460  -15.799400   72.103500
  C     -4.883260  -15.064800   70.510500
  H     -5.519950  -14.199900   70.258300
  H     -4.242540  -15.219700   69.657500
  C     -5.852720  -16.195300   70.648000
  H     -5.370340  -17.234900   70.762400
  H     -6.539890  -16.011500   71.471200
  H     -6.575560  -16.254600   69.828600
  S     -2.287090   -9.326270   73.190500
  C     -2.391830   -7.813520   72.404500
  C     -2.495180   -7.847660   71.054900
  C     -2.388170   -9.164090   70.577700
  C     -2.281020  -10.120400   71.607200
  H     -2.538160   -6.908940   70.552300
  C     -2.558030   -9.457090   69.113200
  H     -1.983150  -10.335200   68.930800
  H     -2.056200   -8.687740   68.601700
  C     -3.951520   -9.688140   68.531000
  H     -4.480470   -8.740260   68.592700
  H     -4.542290  -10.376700   69.159400
  C     -3.904860  -10.074300   67.008500
  H     -3.304340  -10.931200   66.743100
  H     -3.646310   -9.235270   66.377100
  H     -4.930540  -10.435700   66.892800
  H     -1.251960  -14.925400   72.248500
  H     -2.389560   -6.942100   72.965300

 Total Charge           Charge          ....    0
 Multiplicity           Mult            ....    1
 Number of Electrons    NEL             ....  134
 Basis Dimension        Dim             ....  322

ORBITAL ENERGIES
----------------

  NO   OCC          E(Eh)            E(eV)
   0   2.0000     -88.962720     -2420.7987
   1   2.0000     -88.959957     -2420.7235
   2   2.0000     -10.326252      -280.9916
   3   2.0000     -10.322557      -280.8911
   4   2.0000     -10.311319      -280.5853
   5   2.0000     -10.305054      -280.4148
   6   2.0000     -10.302460      -280.3442
   7   2.0000     -10.301807      -280.3264
   8   2.0000     -10.294662      -280.1320
   9   2.0000     -10.288865      -279.9743
  10   2.0000     -10.287839      -279.9463
  11   2.0000     -10.284324      -279.8507
  12   2.0000     -10.283912      -279.8395
  13   2.0000     -10.281485      -279.7734
  14   2.0000     -10.279178      -279.7106
  15   2.0000     -10.277109      -279.6544
  16   2.0000      -8.078331      -219.8226
  17   2.0000      -8.074720      -219.7243
  18   2.0000      -6.036579      -164.2637
  19   2.0000      -6.033283      -164.1740
  20   2.0000      -6.032809      -164.1611
  21   2.0000      -6.029215      -164.0633
  22   2.0000      -6.029142      -164.0613
  23   2.0000      -6.025500      -163.9622
  24   2.0000      -1.005867       -27.3710
  25   2.0000      -0.982028       -26.7223
  26   2.0000      -0.923436       -25.1280
  27   2.0000      -0.908021       -24.7085
  28   2.0000      -0.874984       -23.8095
  29   2.0000      -0.852138       -23.1879
  30   2.0000      -0.844339       -22.9756
  31   2.0000      -0.813685       -22.1415
  32   2.0000      -0.784246       -21.3404
  33   2.0000      -0.771349       -20.9895
  34   2.0000      -0.711492       -19.3607
  35   2.0000      -0.701082       -19.0774
  36   2.0000      -0.694048       -18.8860
  37   2.0000      -0.661921       -18.0118
  38   2.0000      -0.647056       -17.6073
  39   2.0000      -0.617362       -16.7993
  40   2.0000      -0.598416       -16.2837
  41   2.0000      -0.578371       -15.7383
  42   2.0000      -0.571144       -15.5416
  43   2.0000      -0.560846       -15.2614
  44   2.0000      -0.528896       -14.3920
  45   2.0000      -0.522021       -14.2049
  46   2.0000      -0.519804       -14.1446
  47   2.0000      -0.512133       -13.9358
  48   2.0000      -0.508188       -13.8285
  49   2.0000      -0.502216       -13.6660
  50   2.0000      -0.492820       -13.4103
  51   2.0000      -0.476860       -12.9760
  52   2.0000      -0.474625       -12.9152
  53   2.0000      -0.464283       -12.6338
  54   2.0000      -0.455358       -12.3909
  55   2.0000      -0.448535       -12.2052
  56   2.0000      -0.447347       -12.1729
  57   2.0000      -0.437928       -11.9166
  58   2.0000      -0.434658       -11.8276
  59   2.0000      -0.424142       -11.5415
  60   2.0000      -0.419119       -11.4048
  61   2.0000      -0.416208       -11.3256
  62   2.0000      -0.415807       -11.3147
  63   2.0000      -0.337395        -9.1810
  64   2.0000      -0.322388        -8.7726
  65   2.0000      -0.318629        -8.6703
  66   2.0000      -0.309280        -8.4159
  67   0.0000       0.044030         1.1981
  68   0.0000       0.056681         1.5424
  69   0.0000       0.118286         3.2187
  70   0.0000       0.126617         3.4454
  71   0.0000       0.128895         3.5074

MULLIKEN ATOMIC CHARGES
-----------------------
   0 S :    0.101568
   1 C :   -0.122186
   2 C :   -0.081490
   3 C :    0.052855
   4 C :   -0.179580
   5 H :    0.000886
   6 C :    0.105850
   7 H :    0.031625
   8 H :    0.006376
   9 C :   -0.058499
  10 H :    0.027658
  11 H :    0.029091
  12 C :   -0.063243
  13 H :    0.043814
  14 H :    0.019374
  15 H :    0.025387
  16 S :    0.121809
  17 C :   -0.061220
  18 C :   -0.031383
  19 C :   -0.015215
  20 C :   -0.188898
  21 H :    0.009439
  22 C :    0.115381
  23 H :    0.009541
  24 H :    0.000756
  25 C :   -0.071160
  26 H :    0.019524
  27 H :    0.028244
  28 C :   -0.042564
  29 H :    0.032454
  30 H :    0.043165
  31 H :    0.032543
  32 H :    0.032653
  33 H :    0.025446
Sum of atomic charges:    0.0000000

LOEWDIN ATOMIC CHARGES
----------------------
   0 S :    0.396062
   1 C :   -0.184792
   2 C :   -0.059078
   3 C :   -0.055896
   4 C :   -0.208131
   5 H :    0.021801
   6 C :   -0.027811
   7 H :    0.038579
   8 H :    0.026934
   9 C :   -0.043363
  10 H :    0.029376
  11 H :    0.023920
  12 C :   -0.070983
  13 H :    0.031713
  14 H :    0.022910
  15 H :    0.023974
  16 S :    0.422585
  17 C :   -0.173894
  18 C :   -0.075787
  19 C :   -0.042092
  20 C :   -0.206962
  21 H :    0.032445
  22 C :   -0.033496
  23 H :    0.026935
  24 H :    0.023355
  25 C :   -0.032871
  26 H :    0.022571
  27 H :    0.023496
  28 C :   -0.062228
  29 H :    0.023031
  30 H :    0.026260
  31 H :    0.032164
  32 H :    0.018065
  33 H :    0.011210

  Mayer bond orders larger than 0.100000
B(  0-S ,  1-C ) :   1.1333 B(  0-S ,  4-C ) :   1.1505 B(  1-C ,  2-C ) :   1.6181
B(  1-C , 32-H ) :   0.9756 B(  2-C ,  3-C ) :   1.2093 B(  2-C ,  6-C ) :   1.0305
B(  3-C ,  4-C ) :   1.5978 B(  3-C ,  5-H ) :   0.9918 B(  4-C , 20-C ) :   1.0305
B(  6-C ,  7-H ) :   0.9272 B(  6-C ,  8-H ) :   0.9403 B(  6-C ,  9-C ) :   1.0741
B(  9-C , 10-H ) :   0.9455 B(  9-C , 11-H ) :   0.9535 B(  9-C , 12-C ) :   1.0968
B( 12-C , 13-H ) :   0.9729 B( 12-C , 14-H ) :   0.9688 B( 12-C , 15-H ) :   0.9721
B( 16-S , 17-C ) :   1.1800 B( 16-S , 20-C ) :   1.1493 B( 17-C , 18-C ) :   1.6070
B( 17-C , 20-C ) :   0.1016 B( 17-C , 33-H ) :   0.9698 B( 18-C , 19-C ) :   1.2338
B( 18-C , 21-H ) :   1.0014 B( 19-C , 20-C ) :   1.5849 B( 19-C , 22-C ) :   1.0568
B( 22-C , 23-H ) :   0.9203 B( 22-C , 24-H ) :   0.9245 B( 22-C , 25-C ) :   1.0694
B( 25-C , 26-H ) :   0.9508 B( 25-C , 27-H ) :   0.9580 B( 25-C , 28-C ) :   1.0700
B( 28-C , 29-H ) :   0.9786 B( 28-C , 30-H ) :   0.9771 B( 28-C , 31-H ) :   0.9750

Dispersion correction           -0.013836169
FINAL SINGLE POINT ENERGY     -1339.880134625077

DIPOLE MOMENT
-------------
                                X             Y             Z
Electronic contribution:     18.83320      11.92684      20.07081
Nuclear contribution   :    -19.37039     -11.95931     -20.45755
                        -----------------------------------------
Total Dipole Moment    :     -0.53719      -0.03248      -0.38674
                        -----------------------------------------
Magnitude (a.u.)       :      0.66272
Magnitude (Debye)      :      1.68450

Rotational constants in cm-1:     0.016939     0.008751     0.006733
Rotational constants in MHz :   507.824868   262.334709   201.858403

                             ****ORCA TERMINATED NORMALLY****
TOTAL RUN TIME: 0 days 0 hours 0 minutes 34 seconds 179 msec
