                         Program Version 4.2.1 -  RELEASE  -
|  1> ! wB97X-D3 SP def2-SVP
|  2> %pal
|  3> nprocs 16
|  4> end
|  5>
|  6> * xyz 0 1
|  7> S 	 -69.1507 	 54.7905 	 121.074
|  8> C 	 -68.6292 	 56.2005 	 122.006
|  9> C 	 -69.0197 	 57.4036 	 121.423
| 10> C 	 -69.8726 	 57.1836 	 120.327
| 11> C 	 -70.0695 	 55.8482 	 119.996
| 12> H 	 -70.2641 	 57.8938 	 119.666
| 13> C 	 -68.7297 	 58.7472 	 122.075
| 14> H 	 -69.4105 	 59.4113 	 121.492
| 15> H 	 -67.7255 	 59.0686 	 121.992
| 16> C 	 -69.1842 	 58.9879 	 123.555
| 17> H 	 -69.8137 	 58.1391 	 123.78
| 18> H 	 -68.3452 	 58.7424 	 124.255
| 19> C 	 -69.8206 	 60.4033 	 123.914
| 20> H 	 -70.6172 	 60.635 	 123.139
| 21> H 	 -70.1787 	 60.3645 	 124.919
| 22> H 	 -69.0583 	 61.1477 	 123.943
| 23> S 	 -71.4398 	 56.7261 	 117.776
| 24> C 	 -72.2615 	 55.563 	 116.761
| 25> C 	 -72.2279 	 54.2855 	 117.319
| 26> C 	 -71.4395 	 54.1308 	 118.548
| 27> C 	 -70.8907 	 55.3865 	 118.859
| 28> H 	 -72.6777 	 53.4844 	 116.695
| 29> C 	 -71.2475 	 52.8859 	 119.347
| 30> H 	 -71.2505 	 53.2696 	 120.358
| 31> H 	 -70.2399 	 52.5183 	 119.213
| 32> C 	 -72.3099 	 51.699 	 119.239
| 33> H 	 -72.4471 	 51.4501 	 118.138
| 34> H 	 -73.288 	 52.066 	 119.554
| 35> C 	 -71.7729 	 50.5451 	 120.131
| 36> H 	 -70.9227 	 50.2954 	 119.441
| 37> H 	 -72.5269 	 49.7105 	 120.086
| 38> H 	 -71.4785 	 50.8727 	 121.091
| 39> H 	 -68.0603 	 56.0661 	 122.918
| 40> H 	 -72.5837 	 55.7957 	 115.82
| 41> *
| 42>
| 43>                          ****END OF INPUT****

CARTESIAN COORDINATES (ANGSTROEM)
---------------------------------
  S    -69.150700   54.790500  121.074000
  C    -68.629200   56.200500  122.006000
  C    -69.019700   57.403600  121.423000
  C    -69.872600   57.183600  120.327000
  C    -70.069500   55.848200  119.996000
  H    -70.264100   57.893800  119.666000
  C    -68.729700   58.747200  122.075000
  H    -69.410500   59.411300  121.492000
  H    -67.725500   59.068600  121.992000
  C    -69.184200   58.987900  123.555000
  H    -69.813700   58.139100  123.780000
  H    -68.345200   58.742400  124.255000
  C    -69.820600   60.403300  123.914000
  H    -70.617200   60.635000  123.139000
  H    -70.178700   60.364500  124.919000
  H    -69.058300   61.147700  123.943000
  S    -71.439800   56.726100  117.776000
  C    -72.261500   55.563000  116.761000
  C    -72.227900   54.285500  117.319000
  C    -71.439500   54.130800  118.548000
  C    -70.890700   55.386500  118.859000
  H    -72.677700   53.484400  116.695000
  C    -71.247500   52.885900  119.347000
  H    -71.250500   53.269600  120.358000
  H    -70.239900   52.518300  119.213000
  C    -72.309900   51.699000  119.239000
  H    -72.447100   51.450100  118.138000
  H    -73.288000   52.066000  119.554000
  C    -71.772900   50.545100  120.131000
  H    -70.922700   50.295400  119.441000
  H    -72.526900   49.710500  120.086000
  H    -71.478500   50.872700  121.091000
  H    -68.060300   56.066100  122.918000
  H    -72.583700   55.795700  115.820000

 Total Charge           Charge          ....    0
 Multiplicity           Mult            ....    1
 Number of Electrons    NEL             ....  134
 Basis Dimension        Dim             ....  322

ORBITAL ENERGIES
----------------

  NO   OCC          E(Eh)            E(eV)
   0   2.0000     -88.970916     -2421.0217
   1   2.0000     -88.965085     -2420.8630
   2   2.0000     -10.334062      -281.2041
   3   2.0000     -10.332934      -281.1734
   4   2.0000     -10.314166      -280.6627
   5   2.0000     -10.314109      -280.6612
   6   2.0000     -10.312833      -280.6265
   7   2.0000     -10.303228      -280.3651
   8   2.0000     -10.302039      -280.3327
   9   2.0000     -10.299973      -280.2765
  10   2.0000     -10.294920      -280.1390
  11   2.0000     -10.292110      -280.0625
  12   2.0000     -10.290793      -280.0267
  13   2.0000     -10.288044      -279.9519
  14   2.0000     -10.287824      -279.9459
  15   2.0000     -10.285984      -279.8959
  16   2.0000      -8.084317      -219.9854
  17   2.0000      -8.078999      -219.8407
  18   2.0000      -6.042801      -164.4330
  19   2.0000      -6.038973      -164.3288
  20   2.0000      -6.037623      -164.2921
  21   2.0000      -6.035253      -164.2276
  22   2.0000      -6.033826      -164.1887
  23   2.0000      -6.029525      -164.0717
  24   2.0000      -1.000868       -27.2350
  25   2.0000      -0.976615       -26.5751
  26   2.0000      -0.908491       -24.7213
  27   2.0000      -0.901922       -24.5426
  28   2.0000      -0.863793       -23.5050
  29   2.0000      -0.856061       -23.2946
  30   2.0000      -0.845518       -23.0077
  31   2.0000      -0.807799       -21.9813
  32   2.0000      -0.782591       -21.2954
  33   2.0000      -0.770472       -20.9656
  34   2.0000      -0.709091       -19.2953
  35   2.0000      -0.702045       -19.1036
  36   2.0000      -0.697270       -18.9737
  37   2.0000      -0.662625       -18.0309
  38   2.0000      -0.635637       -17.2966
  39   2.0000      -0.613868       -16.7042
  40   2.0000      -0.596512       -16.2319
  41   2.0000      -0.571700       -15.5568
  42   2.0000      -0.561715       -15.2850
  43   2.0000      -0.560758       -15.2590
  44   2.0000      -0.535111       -14.5611
  45   2.0000      -0.518409       -14.1066
  46   2.0000      -0.514435       -13.9985
  47   2.0000      -0.513750       -13.9799
  48   2.0000      -0.506228       -13.7752
  49   2.0000      -0.500246       -13.6124
  50   2.0000      -0.486248       -13.2315
  51   2.0000      -0.478564       -13.0224
  52   2.0000      -0.474185       -12.9032
  53   2.0000      -0.465831       -12.6759
  54   2.0000      -0.457358       -12.4453
  55   2.0000      -0.452588       -12.3155
  56   2.0000      -0.446390       -12.1469
  57   2.0000      -0.438927       -11.9438
  58   2.0000      -0.429645       -11.6912
  59   2.0000      -0.422333       -11.4923
  60   2.0000      -0.416753       -11.3404
  61   2.0000      -0.416071       -11.3219
  62   2.0000      -0.408529       -11.1167
  63   2.0000      -0.358863        -9.7652
  64   2.0000      -0.335641        -9.1333
  65   2.0000      -0.329709        -8.9718
  66   2.0000      -0.276942        -7.5360
  67   0.0000       0.016430         0.4471
  68   0.0000       0.080389         2.1875
  69   0.0000       0.103496         2.8163
  70   0.0000       0.110542         3.0080
  71   0.0000       0.129492         3.5237

MULLIKEN ATOMIC CHARGES
-----------------------
   0 S :    0.093251
   1 C :   -0.136081
   2 C :   -0.058882
   3 C :   -0.009925
   4 C :   -0.114984
   5 H :    0.005252
   6 C :    0.080748
   7 H :    0.017795
   8 H :    0.038837
   9 C :   -0.115901
  10 H :    0.026281
  11 H :    0.024642
  12 C :   -0.038168
  13 H :    0.054070
  14 H :    0.035048
  15 H :    0.030855
  16 S :    0.060257
  17 C :   -0.043653
  18 C :   -0.058247
  19 C :   -0.034444
  20 C :   -0.123064
  21 H :    0.032350
  22 C :    0.008347
  23 H :    0.034966
  24 H :    0.039121
  25 C :   -0.099616
  26 H :    0.045002
  27 H :    0.031807
  28 C :   -0.034944
  29 H :    0.040677
  30 H :    0.050215
  31 H :    0.042517
  32 H :    0.050539
  33 H :    0.025330
Sum of atomic charges:    0.0000000

LOEWDIN ATOMIC CHARGES
----------------------
   0 S :    0.399976
   1 C :   -0.192838
   2 C :   -0.058888
   3 C :   -0.073696
   4 C :   -0.178277
   5 H :    0.012594
   6 C :   -0.030138
   7 H :    0.033176
   8 H :    0.027603
   9 C :   -0.048896
  10 H :    0.020013
  11 H :    0.023379
  12 C :   -0.058654
  13 H :    0.035426
  14 H :    0.026628
  15 H :    0.021160
  16 S :    0.381421
  17 C :   -0.168618
  18 C :   -0.072484
  19 C :   -0.052597
  20 C :   -0.167543
  21 H :    0.034702
  22 C :   -0.045778
  23 H :    0.025776
  24 H :    0.030476
  25 C :   -0.036785
  26 H :    0.027637
  27 H :    0.018376
  28 C :   -0.061000
  29 H :    0.037435
  30 H :    0.033860
  31 H :    0.021420
  32 H :    0.024955
  33 H :    0.010178

  Mayer bond orders larger than 0.100000
B(  0-S ,  1-C ) :   1.1395 B(  0-S ,  4-C ) :   1.1367 B(  1-C ,  2-C ) :   1.5720
B(  1-C , 32-H ) :   0.9724 B(  2-C ,  3-C ) :   1.2842 B(  2-C ,  6-C ) :   1.0237
B(  3-C ,  4-C ) :   1.5516 B(  3-C ,  5-H ) :   0.9806 B(  4-C , 20-C ) :   1.0941
B(  6-C ,  7-H ) :   0.9497 B(  6-C ,  8-H ) :   0.9353 B(  6-C ,  9-C ) :   1.0502
B(  9-C , 10-H ) :   0.9639 B(  9-C , 11-H ) :   0.9521 B(  9-C , 12-C ) :   1.0752
B( 12-C , 13-H ) :   0.9751 B( 12-C , 14-H ) :   0.9739 B( 12-C , 15-H ) :   0.9786
B( 16-S , 17-C ) :   1.1344 B( 16-S , 20-C ) :   1.1262 B( 17-C , 18-C ) :   1.6443
B( 17-C , 33-H ) :   0.9771 B( 18-C , 19-C ) :   1.1981 B( 18-C , 21-H ) :   0.9799
B( 19-C , 20-C ) :   1.5883 B( 19-C , 22-C ) :   1.0305 B( 22-C , 23-H ) :   0.9214
B( 22-C , 24-H ) :   0.9353 B( 22-C , 25-C ) :   1.0570 B( 25-C , 26-H ) :   0.9591
B( 25-C , 27-H ) :   0.9568 B( 25-C , 28-C ) :   1.0540 B( 28-C , 29-H ) :   0.9797
B( 28-C , 30-H ) :   0.9734 B( 28-C , 31-H ) :   0.9763

Dispersion correction           -0.013160259
FINAL SINGLE POINT ENERGY     -1339.857625666655

DIPOLE MOMENT
-------------
                                X             Y             Z
Electronic contribution:      2.10034       1.17490     -13.87744
Nuclear contribution   :     -2.15423      -1.27945      14.04804
                        -----------------------------------------
Total Dipole Moment    :     -0.05389      -0.10455       0.17060
                        -----------------------------------------
Magnitude (a.u.)       :      0.20721
Magnitude (Debye)      :      0.52669

Rotational constants in cm-1:     0.021070     0.007185     0.005762
Rotational constants in MHz :   631.669784   215.389695   172.734728

                             ****ORCA TERMINATED NORMALLY****
TOTAL RUN TIME: 0 days 0 hours 0 minutes 30 seconds 879 msec
