                         Program Version 4.2.1 -  RELEASE  -
|  1> ! wB97X-D3 SP def2-SVP
|  2> %pal
|  3> nprocs 16
|  4> end
|  5>
|  6> * xyz 0 1
|  7> S 	 -37.483 	 31.8244 	 42.5951
|  8> C 	 -38.7986 	 31.1777 	 43.5635
|  9> C 	 -38.2365 	 30.092 	 44.2761
| 10> C 	 -36.8319 	 29.9235 	 44.1882
| 11> C 	 -36.2521 	 30.724 	 43.259
| 12> H 	 -36.1602 	 29.2114 	 44.6154
| 13> C 	 -38.9861 	 29.1579 	 45.1927
| 14> H 	 -40.0373 	 29.3263 	 44.9964
| 15> H 	 -38.7572 	 29.3042 	 46.2024
| 16> C 	 -38.7463 	 27.6649 	 45.052
| 17> H 	 -39.0941 	 27.2596 	 44.0643
| 18> H 	 -37.6703 	 27.4951 	 44.9816
| 19> C 	 -39.337 	 26.7913 	 46.2148
| 20> H 	 -38.8004 	 26.9963 	 47.0889
| 21> H 	 -40.3516 	 27.0672 	 46.3885
| 22> H 	 -39.2021 	 25.7543 	 46.1035
| 23> S 	 -34.2731 	 32.5359 	 43.2323
| 24> C 	 -32.5853 	 32.1242 	 43.1858
| 25> C 	 -32.4728 	 30.7533 	 43.0081
| 26> C 	 -33.7739 	 30.042 	 43.0149
| 27> C 	 -34.8711 	 30.911 	 43.0268
| 28> H 	 -31.4771 	 30.2887 	 42.865
| 29> C 	 -33.8581 	 28.5081 	 42.7127
| 30> H 	 -33.8249 	 28.4412 	 41.5807
| 31> H 	 -34.8377 	 28.2617 	 42.98
| 32> C 	 -32.8218 	 27.6116 	 43.479
| 33> H 	 -31.8396 	 27.8816 	 43.1295
| 34> H 	 -32.8735 	 26.5206 	 43.2914
| 35> C 	 -32.8234 	 27.8474 	 44.9457
| 36> H 	 -32.3352 	 28.7971 	 45.1687
| 37> H 	 -32.2401 	 27.0396 	 45.4985
| 38> H 	 -33.8516 	 27.8717 	 45.4413
| 39> H 	 -39.8808 	 31.4602 	 43.5061
| 40> H 	 -31.7215 	 32.8325 	 43.122
| 41> *
| 42>
| 43>                          ****END OF INPUT****

CARTESIAN COORDINATES (ANGSTROEM)
---------------------------------
  S    -37.483000   31.824400   42.595100
  C    -38.798600   31.177700   43.563500
  C    -38.236500   30.092000   44.276100
  C    -36.831900   29.923500   44.188200
  C    -36.252100   30.724000   43.259000
  H    -36.160200   29.211400   44.615400
  C    -38.986100   29.157900   45.192700
  H    -40.037300   29.326300   44.996400
  H    -38.757200   29.304200   46.202400
  C    -38.746300   27.664900   45.052000
  H    -39.094100   27.259600   44.064300
  H    -37.670300   27.495100   44.981600
  C    -39.337000   26.791300   46.214800
  H    -38.800400   26.996300   47.088900
  H    -40.351600   27.067200   46.388500
  H    -39.202100   25.754300   46.103500
  S    -34.273100   32.535900   43.232300
  C    -32.585300   32.124200   43.185800
  C    -32.472800   30.753300   43.008100
  C    -33.773900   30.042000   43.014900
  C    -34.871100   30.911000   43.026800
  H    -31.477100   30.288700   42.865000
  C    -33.858100   28.508100   42.712700
  H    -33.824900   28.441200   41.580700
  H    -34.837700   28.261700   42.980000
  C    -32.821800   27.611600   43.479000
  H    -31.839600   27.881600   43.129500
  H    -32.873500   26.520600   43.291400
  C    -32.823400   27.847400   44.945700
  H    -32.335200   28.797100   45.168700
  H    -32.240100   27.039600   45.498500
  H    -33.851600   27.871700   45.441300
  H    -39.880800   31.460200   43.506100
  H    -31.721500   32.832500   43.122000

 Total Charge           Charge          ....    0
 Multiplicity           Mult            ....    1
 Number of Electrons    NEL             ....  134
 Basis Dimension        Dim             ....  322

ORBITAL ENERGIES
----------------

  NO   OCC          E(Eh)            E(eV)
   0   2.0000     -88.965943     -2420.8864
   1   2.0000     -88.963021     -2420.8069
   2   2.0000     -10.328960      -281.0653
   3   2.0000     -10.328182      -281.0441
   4   2.0000     -10.327006      -281.0121
   5   2.0000     -10.324314      -280.9389
   6   2.0000     -10.315141      -280.6893
   7   2.0000     -10.306504      -280.4542
   8   2.0000     -10.303413      -280.3701
   9   2.0000     -10.299554      -280.2651
  10   2.0000     -10.290858      -280.0285
  11   2.0000     -10.290822      -280.0275
  12   2.0000     -10.288382      -279.9611
  13   2.0000     -10.284449      -279.8541
  14   2.0000     -10.282779      -279.8086
  15   2.0000     -10.271373      -279.4983
  16   2.0000      -8.080059      -219.8696
  17   2.0000      -8.078225      -219.8197
  18   2.0000      -6.038722      -164.3220
  19   2.0000      -6.036924      -164.2731
  20   2.0000      -6.034487      -164.2067
  21   2.0000      -6.032449      -164.1513
  22   2.0000      -6.030831      -164.1073
  23   2.0000      -6.028909      -164.0550
  24   2.0000      -1.010669       -27.5017
  25   2.0000      -0.982941       -26.7472
  26   2.0000      -0.913056       -24.8455
  27   2.0000      -0.908594       -24.7241
  28   2.0000      -0.878425       -23.9032
  29   2.0000      -0.850390       -23.1403
  30   2.0000      -0.841483       -22.8979
  31   2.0000      -0.820109       -22.3163
  32   2.0000      -0.782116       -21.2825
  33   2.0000      -0.771461       -20.9925
  34   2.0000      -0.713121       -19.4050
  35   2.0000      -0.697345       -18.9757
  36   2.0000      -0.696107       -18.9420
  37   2.0000      -0.657548       -17.8928
  38   2.0000      -0.644724       -17.5438
  39   2.0000      -0.622303       -16.9337
  40   2.0000      -0.592297       -16.1172
  41   2.0000      -0.575358       -15.6563
  42   2.0000      -0.560813       -15.2605
  43   2.0000      -0.551433       -15.0052
  44   2.0000      -0.544183       -14.8080
  45   2.0000      -0.529583       -14.4107
  46   2.0000      -0.520809       -14.1719
  47   2.0000      -0.517495       -14.0818
  48   2.0000      -0.507645       -13.8137
  49   2.0000      -0.502883       -13.6841
  50   2.0000      -0.493951       -13.4411
  51   2.0000      -0.484326       -13.1792
  52   2.0000      -0.470046       -12.7906
  53   2.0000      -0.467224       -12.7138
  54   2.0000      -0.457653       -12.4534
  55   2.0000      -0.450724       -12.2648
  56   2.0000      -0.442209       -12.0331
  57   2.0000      -0.437875       -11.9152
  58   2.0000      -0.430947       -11.7267
  59   2.0000      -0.421985       -11.4828
  60   2.0000      -0.417268       -11.3545
  61   2.0000      -0.412046       -11.2124
  62   2.0000      -0.408974       -11.1288
  63   2.0000      -0.357914        -9.7393
  64   2.0000      -0.328990        -8.9523
  65   2.0000      -0.325069        -8.8456
  66   2.0000      -0.293409        -7.9841
  67   0.0000       0.023128         0.6294
  68   0.0000       0.072068         1.9611
  69   0.0000       0.110457         3.0057
  70   0.0000       0.116602         3.1729
  71   0.0000       0.126078         3.4308

MULLIKEN ATOMIC CHARGES
-----------------------
   0 S :    0.094065
   1 C :   -0.128478
   2 C :   -0.086892
   3 C :    0.039059
   4 C :   -0.151465
   5 H :    0.002970
   6 C :    0.121196
   7 H :    0.010823
   8 H :    0.017341
   9 C :   -0.131202
  10 H :    0.027378
  11 H :    0.017650
  12 C :   -0.000190
  13 H :    0.010917
  14 H :    0.028095
  15 H :    0.027232
  16 S :    0.099926
  17 C :   -0.106076
  18 C :   -0.047718
  19 C :   -0.105260
  20 C :   -0.111568
  21 H :    0.036037
  22 C :    0.085555
  23 H :    0.062451
  24 H :   -0.005044
  25 C :   -0.046919
  26 H :    0.018070
  27 H :    0.038256
  28 C :   -0.100606
  29 H :    0.041223
  30 H :    0.042100
  31 H :    0.040795
  32 H :    0.079248
  33 H :    0.081033
Sum of atomic charges:   -0.0000000

LOEWDIN ATOMIC CHARGES
----------------------
   0 S :    0.391303
   1 C :   -0.205069
   2 C :   -0.059004
   3 C :   -0.059190
   4 C :   -0.182614
   5 H :    0.029372
   6 C :   -0.031783
   7 H :    0.027072
   8 H :    0.025878
   9 C :   -0.040863
  10 H :    0.023414
  11 H :    0.016187
  12 C :   -0.053652
  13 H :    0.018399
  14 H :    0.022998
  15 H :    0.024082
  16 S :    0.417653
  17 C :   -0.198513
  18 C :   -0.080985
  19 C :   -0.055475
  20 C :   -0.205705
  21 H :    0.034918
  22 C :   -0.025346
  23 H :    0.046034
  24 H :    0.014047
  25 C :   -0.047223
  26 H :    0.020363
  27 H :    0.030361
  28 C :   -0.076417
  29 H :    0.025685
  30 H :    0.033723
  31 H :    0.027665
  32 H :    0.047486
  33 H :    0.045198

  Mayer bond orders larger than 0.100000
B(  0-S ,  1-C ) :   1.1319 B(  0-S ,  4-C ) :   1.1390 B(  1-C ,  2-C ) :   1.5839
B(  1-C , 32-H ) :   0.9664 B(  2-C ,  3-C ) :   1.2289 B(  2-C ,  6-C ) :   1.0381
B(  3-C ,  4-C ) :   1.5867 B(  3-C ,  5-H ) :   0.9876 B(  4-C , 20-C ) :   1.0497
B(  6-C ,  7-H ) :   0.9368 B(  6-C ,  8-H ) :   0.9372 B(  6-C ,  9-C ) :   1.0559
B(  9-C , 10-H ) :   0.9559 B(  9-C , 11-H ) :   0.9561 B(  9-C , 12-C ) :   1.0792
B( 12-C , 13-H ) :   0.9709 B( 12-C , 14-H ) :   0.9777 B( 12-C , 15-H ) :   0.9736
B( 16-S , 17-C ) :   1.1598 B( 16-S , 20-C ) :   1.1380 B( 17-C , 18-C ) :   1.6089
B( 17-C , 33-H ) :   0.9608 B( 18-C , 19-C ) :   1.2250 B( 18-C , 21-H ) :   0.9825
B( 19-C , 20-C ) :   1.5906 B( 19-C , 22-C ) :   1.0203 B( 22-C , 23-H ) :   0.9456
B( 22-C , 24-H ) :   0.9375 B( 22-C , 25-C ) :   1.0537 B( 25-C , 26-H ) :   0.9505
B( 25-C , 27-H ) :   0.9615 B( 25-C , 28-C ) :   1.0822 B( 28-C , 29-H ) :   0.9682
B( 28-C , 30-H ) :   0.9710 B( 28-C , 31-H ) :   0.9737

Dispersion correction           -0.014341099
FINAL SINGLE POINT ENERGY     -1339.863661884094

DIPOLE MOMENT
-------------
                                X             Y             Z
Electronic contribution:      0.99800      28.03926     -13.06276
Nuclear contribution   :     -0.79229     -28.67412      13.30981
                        -----------------------------------------
Total Dipole Moment    :      0.20571      -0.63486       0.24706
                        -----------------------------------------
Magnitude (a.u.)       :      0.71162
Magnitude (Debye)      :      1.80879

Rotational constants in cm-1:     0.017137     0.009629     0.006637
Rotational constants in MHz :   513.749663   288.681653   198.985200

                             ****ORCA TERMINATED NORMALLY****
TOTAL RUN TIME: 0 days 0 hours 0 minutes 33 seconds 932 msec
