                         Program Version 4.2.1 -  RELEASE  -
|  1> ! wB97X-D3 SP def2-SVP
|  2> %pal
|  3> nprocs 16
|  4> end
|  5>
|  6> * xyz 0 1
|  7> S 	 12.2709 	 -3.97259 	 91.0687
|  8> C 	 11.1868 	 -4.56431 	 92.3503
|  9> C 	 10.9987 	 -5.87092 	 92.2409
| 10> C 	 11.6047 	 -6.46307 	 91.0651
| 11> C 	 12.2474 	 -5.58256 	 90.2606
| 12> H 	 11.4684 	 -7.46337 	 90.7126
| 13> C 	 9.91271 	 -6.70408 	 92.8694
| 14> H 	 9.62468 	 -6.21241 	 93.8141
| 15> H 	 10.4234 	 -7.60899 	 93.179
| 16> C 	 8.6832 	 -7.03001 	 91.8931
| 17> H 	 8.23653 	 -6.11016 	 91.7096
| 18> H 	 8.91525 	 -7.57501 	 90.9793
| 19> C 	 7.6027 	 -7.91845 	 92.634
| 20> H 	 7.26599 	 -7.70913 	 93.6317
| 21> H 	 6.64364 	 -7.8689 	 92.1422
| 22> H 	 7.91126 	 -8.92658 	 92.7404
| 23> S 	 14.8078 	 -5.37429 	 89.3143
| 24> C 	 15.2244 	 -5.77763 	 87.6959
| 25> C 	 14.1754 	 -6.42909 	 87.0454
| 26> C 	 12.9525 	 -6.39751 	 87.8351
| 27> C 	 13.089 	 -5.81026 	 89.0941
| 28> H 	 14.2695 	 -6.89849 	 86.067
| 29> C 	 11.5861 	 -6.98351 	 87.2747
| 30> H 	 11.1673 	 -7.45105 	 88.1426
| 31> H 	 11.8164 	 -7.73681 	 86.5297
| 32> C 	 10.6524 	 -5.95836 	 86.666
| 33> H 	 11.0006 	 -5.71337 	 85.6758
| 34> H 	 10.8297 	 -4.99054 	 87.1354
| 35> C 	 9.19801 	 -6.30075 	 86.6094
| 36> H 	 8.79219 	 -5.83823 	 85.706
| 37> H 	 8.61965 	 -5.89252 	 87.4804
| 38> H 	 9.05147 	 -7.36403 	 86.6268
| 39> H 	 10.5626 	 -4.06513 	 93.0431
| 40> H 	 16.2082 	 -5.69114 	 87.1899
| 41> *
| 42>
| 43>                          ****END OF INPUT****

CARTESIAN COORDINATES (ANGSTROEM)
---------------------------------
  S     12.270900   -3.972590   91.068700
  C     11.186800   -4.564310   92.350300
  C     10.998700   -5.870920   92.240900
  C     11.604700   -6.463070   91.065100
  C     12.247400   -5.582560   90.260600
  H     11.468400   -7.463370   90.712600
  C      9.912710   -6.704080   92.869400
  H      9.624680   -6.212410   93.814100
  H     10.423400   -7.608990   93.179000
  C      8.683200   -7.030010   91.893100
  H      8.236530   -6.110160   91.709600
  H      8.915250   -7.575010   90.979300
  C      7.602700   -7.918450   92.634000
  H      7.265990   -7.709130   93.631700
  H      6.643640   -7.868900   92.142200
  H      7.911260   -8.926580   92.740400
  S     14.807800   -5.374290   89.314300
  C     15.224400   -5.777630   87.695900
  C     14.175400   -6.429090   87.045400
  C     12.952500   -6.397510   87.835100
  C     13.089000   -5.810260   89.094100
  H     14.269500   -6.898490   86.067000
  C     11.586100   -6.983510   87.274700
  H     11.167300   -7.451050   88.142600
  H     11.816400   -7.736810   86.529700
  C     10.652400   -5.958360   86.666000
  H     11.000600   -5.713370   85.675800
  H     10.829700   -4.990540   87.135400
  C      9.198010   -6.300750   86.609400
  H      8.792190   -5.838230   85.706000
  H      8.619650   -5.892520   87.480400
  H      9.051470   -7.364030   86.626800
  H     10.562600   -4.065130   93.043100
  H     16.208200   -5.691140   87.189900

 Total Charge           Charge          ....    0
 Multiplicity           Mult            ....    1
 Number of Electrons    NEL             ....  134
 Basis Dimension        Dim             ....  322

ORBITAL ENERGIES
----------------

  NO   OCC          E(Eh)            E(eV)
   0   2.0000     -88.964753     -2420.8540
   1   2.0000     -88.962604     -2420.7955
   2   2.0000     -10.333576      -281.1909
   3   2.0000     -10.330718      -281.1131
   4   2.0000     -10.320545      -280.8363
   5   2.0000     -10.311524      -280.5908
   6   2.0000     -10.309520      -280.5363
   7   2.0000     -10.297645      -280.2132
   8   2.0000     -10.297286      -280.2034
   9   2.0000     -10.297093      -280.1981
  10   2.0000     -10.293406      -280.0978
  11   2.0000     -10.292171      -280.0642
  12   2.0000     -10.291940      -280.0579
  13   2.0000     -10.276123      -279.6275
  14   2.0000     -10.275659      -279.6149
  15   2.0000     -10.275209      -279.6026
  16   2.0000      -8.079417      -219.8521
  17   2.0000      -8.076381      -219.7695
  18   2.0000      -6.038024      -164.3030
  19   2.0000      -6.035258      -164.2277
  20   2.0000      -6.033836      -164.1890
  21   2.0000      -6.031150      -164.1159
  22   2.0000      -6.030138      -164.0884
  23   2.0000      -6.026624      -163.9928
  24   2.0000      -1.003762       -27.3138
  25   2.0000      -0.981979       -26.7210
  26   2.0000      -0.908781       -24.7292
  27   2.0000      -0.905167       -24.6308
  28   2.0000      -0.871528       -23.7155
  29   2.0000      -0.848820       -23.0976
  30   2.0000      -0.841930       -22.9101
  31   2.0000      -0.817708       -22.2510
  32   2.0000      -0.781689       -21.2708
  33   2.0000      -0.774159       -21.0659
  34   2.0000      -0.716935       -19.5088
  35   2.0000      -0.707483       -19.2516
  36   2.0000      -0.694004       -18.8848
  37   2.0000      -0.660148       -17.9635
  38   2.0000      -0.641201       -17.4480
  39   2.0000      -0.618867       -16.8402
  40   2.0000      -0.588664       -16.0184
  41   2.0000      -0.569074       -15.4853
  42   2.0000      -0.563750       -15.3404
  43   2.0000      -0.558019       -15.1845
  44   2.0000      -0.528893       -14.3919
  45   2.0000      -0.523559       -14.2468
  46   2.0000      -0.518205       -14.1011
  47   2.0000      -0.512715       -13.9517
  48   2.0000      -0.507520       -13.8103
  49   2.0000      -0.497996       -13.5512
  50   2.0000      -0.494111       -13.4455
  51   2.0000      -0.483861       -13.1665
  52   2.0000      -0.472436       -12.8556
  53   2.0000      -0.465610       -12.6699
  54   2.0000      -0.461325       -12.5533
  55   2.0000      -0.446941       -12.1619
  56   2.0000      -0.439670       -11.9640
  57   2.0000      -0.439023       -11.9464
  58   2.0000      -0.436838       -11.8870
  59   2.0000      -0.431301       -11.7363
  60   2.0000      -0.415938       -11.3183
  61   2.0000      -0.412417       -11.2224
  62   2.0000      -0.403985       -10.9930
  63   2.0000      -0.348420        -9.4810
  64   2.0000      -0.331420        -9.0184
  65   2.0000      -0.323963        -8.8155
  66   2.0000      -0.299836        -8.1590
  67   0.0000       0.032446         0.8829
  68   0.0000       0.063059         1.7159
  69   0.0000       0.108665         2.9569
  70   0.0000       0.116186         3.1616
  71   0.0000       0.131688         3.5834

MULLIKEN ATOMIC CHARGES
-----------------------
   0 S :    0.086129
   1 C :   -0.073591
   2 C :   -0.079949
   3 C :    0.040372
   4 C :   -0.150141
   5 H :    0.009976
   6 C :    0.035630
   7 H :    0.021116
   8 H :    0.027505
   9 C :   -0.024833
  10 H :    0.023986
  11 H :    0.045092
  12 C :   -0.055414
  13 H :    0.014244
  14 H :    0.028251
  15 H :    0.023334
  16 S :    0.109806
  17 C :   -0.094115
  18 C :   -0.046066
  19 C :   -0.081438
  20 C :   -0.156456
  21 H :    0.024466
  22 C :    0.102157
  23 H :    0.010163
  24 H :    0.019982
  25 C :   -0.059049
  26 H :    0.009574
  27 H :    0.028794
  28 C :   -0.039825
  29 H :    0.035581
  30 H :    0.042563
  31 H :    0.025825
  32 H :    0.023773
  33 H :    0.072557
Sum of atomic charges:   -0.0000000

LOEWDIN ATOMIC CHARGES
----------------------
   0 S :    0.360348
   1 C :   -0.175919
   2 C :   -0.073488
   3 C :   -0.050281
   4 C :   -0.173696
   5 H :    0.027380
   6 C :   -0.029736
   7 H :    0.029135
   8 H :    0.029034
   9 C :   -0.017174
  10 H :    0.017664
  11 H :    0.029796
  12 C :   -0.072002
  13 H :    0.022224
  14 H :    0.026646
  15 H :    0.019531
  16 S :    0.410329
  17 C :   -0.200131
  18 C :   -0.080633
  19 C :   -0.049022
  20 C :   -0.196834
  21 H :    0.032754
  22 C :   -0.022554
  23 H :    0.022163
  24 H :    0.027859
  25 C :   -0.051319
  26 H :    0.021431
  27 H :    0.028189
  28 C :   -0.064894
  29 H :    0.030880
  30 H :    0.032878
  31 H :    0.020971
  32 H :    0.027294
  33 H :    0.041177

  Mayer bond orders larger than 0.100000
B(  0-S ,  1-C ) :   1.0969 B(  0-S ,  4-C ) :   1.1053 B(  1-C ,  2-C ) :   1.7010
B(  1-C , 32-H ) :   0.9610 B(  2-C ,  3-C ) :   1.1604 B(  2-C ,  6-C ) :   1.0404
B(  3-C ,  4-C ) :   1.6519 B(  3-C ,  5-H ) :   0.9951 B(  4-C , 20-C ) :   1.0256
B(  6-C ,  7-H ) :   0.9458 B(  6-C ,  8-H ) :   0.9354 B(  6-C ,  9-C ) :   1.0457
B(  9-C , 10-H ) :   0.9618 B(  9-C , 11-H ) :   0.9563 B(  9-C , 12-C ) :   1.0711
B( 12-C , 13-H ) :   0.9760 B( 12-C , 14-H ) :   0.9759 B( 12-C , 15-H ) :   0.9789
B( 16-S , 17-C ) :   1.1670 B( 16-S , 20-C ) :   1.1324 B( 17-C , 18-C ) :   1.5974
B( 17-C , 33-H ) :   0.9609 B( 18-C , 19-C ) :   1.2525 B( 18-C , 21-H ) :   0.9876
B( 19-C , 20-C ) :   1.6141 B( 19-C , 22-C ) :   1.0272 B( 22-C , 23-H ) :   0.9407
B( 22-C , 24-H ) :   0.9321 B( 22-C , 25-C ) :   1.0678 B( 25-C , 26-H ) :   0.9527
B( 25-C , 27-H ) :   0.9566 B( 25-C , 28-C ) :   1.0759 B( 28-C , 29-H ) :   0.9749
B( 28-C , 30-H ) :   0.9747 B( 28-C , 31-H ) :   0.9776

Dispersion correction           -0.014094930
FINAL SINGLE POINT ENERGY     -1339.857059348905

DIPOLE MOMENT
-------------
                                X             Y             Z
Electronic contribution:     27.84440      13.62218       3.54322
Nuclear contribution   :    -28.44224     -14.14998      -3.75474
                        -----------------------------------------
Total Dipole Moment    :     -0.59784      -0.52780      -0.21152
                        -----------------------------------------
Magnitude (a.u.)       :      0.82506
Magnitude (Debye)      :      2.09713

Rotational constants in cm-1:     0.017408     0.009183     0.006862
Rotational constants in MHz :   521.884348   275.299883   205.725336

                             ****ORCA TERMINATED NORMALLY****
TOTAL RUN TIME: 0 days 0 hours 0 minutes 33 seconds 654 msec
