                         Program Version 4.2.1 -  RELEASE  -
|  1> ! wB97X-D3 SP def2-SVP
|  2> %pal
|  3> nprocs 16
|  4> end
|  5>
|  6> * xyz 0 1
|  7> S 	 0.5349 	 -24.6959 	 55.7502
|  8> C 	 -0.887523 	 -24.9762 	 56.6161
|  9> C 	 -1.10757 	 -24.1135 	 57.7104
| 10> C 	 0.0306887 	 -23.241 	 57.8691
| 11> C 	 1.02245 	 -23.4067 	 56.9016
| 12> H 	 0.0947392 	 -22.5416 	 58.7367
| 13> C 	 -2.40501 	 -24.1497 	 58.486
| 14> H 	 -2.13254 	 -24.7407 	 59.2935
| 15> H 	 -3.19834 	 -24.567 	 57.8883
| 16> C 	 -2.8756 	 -22.6901 	 58.8092
| 17> H 	 -2.05453 	 -22.0542 	 59.1209
| 18> H 	 -3.25311 	 -22.2237 	 57.8593
| 19> C 	 -4.06437 	 -22.6446 	 59.8391
| 20> H 	 -4.46669 	 -23.5862 	 60.2383
| 21> H 	 -3.76913 	 -22.0916 	 60.7477
| 22> H 	 -4.85361 	 -22.1021 	 59.4093
| 23> S 	 3.7737 	 -23.3299 	 56.4705
| 24> C 	 4.55111 	 -21.7953 	 56.3539
| 25> C 	 3.65832 	 -20.7194 	 56.3993
| 26> C 	 2.33615 	 -21.1796 	 56.621
| 27> C 	 2.21647 	 -22.5646 	 56.6561
| 28> H 	 3.93657 	 -19.6829 	 56.358
| 29> C 	 1.18285 	 -20.2456 	 56.4879
| 30> H 	 0.231975 	 -20.6893 	 56.7708
| 31> H 	 0.961699 	 -20.0677 	 55.4561
| 32> C 	 1.24759 	 -19.0096 	 57.4398
| 33> H 	 0.4171 	 -18.3469 	 57.1902
| 34> H 	 2.18685 	 -18.5806 	 57.2213
| 35> C 	 1.15243 	 -19.2541 	 58.9447
| 36> H 	 0.343339 	 -19.925 	 59.2348
| 37> H 	 0.836322 	 -18.4374 	 59.553
| 38> H 	 2.10967 	 -19.7243 	 59.3553
| 39> H 	 -1.65953 	 -25.6793 	 56.5014
| 40> H 	 5.63811 	 -21.6472 	 56.3
| 41> *
| 42>
| 43>                          ****END OF INPUT****

CARTESIAN COORDINATES (ANGSTROEM)
---------------------------------
  S      0.534900  -24.695900   55.750200
  C     -0.887523  -24.976200   56.616100
  C     -1.107570  -24.113500   57.710400
  C      0.030689  -23.241000   57.869100
  C      1.022450  -23.406700   56.901600
  H      0.094739  -22.541600   58.736700
  C     -2.405010  -24.149700   58.486000
  H     -2.132540  -24.740700   59.293500
  H     -3.198340  -24.567000   57.888300
  C     -2.875600  -22.690100   58.809200
  H     -2.054530  -22.054200   59.120900
  H     -3.253110  -22.223700   57.859300
  C     -4.064370  -22.644600   59.839100
  H     -4.466690  -23.586200   60.238300
  H     -3.769130  -22.091600   60.747700
  H     -4.853610  -22.102100   59.409300
  S      3.773700  -23.329900   56.470500
  C      4.551110  -21.795300   56.353900
  C      3.658320  -20.719400   56.399300
  C      2.336150  -21.179600   56.621000
  C      2.216470  -22.564600   56.656100
  H      3.936570  -19.682900   56.358000
  C      1.182850  -20.245600   56.487900
  H      0.231975  -20.689300   56.770800
  H      0.961699  -20.067700   55.456100
  C      1.247590  -19.009600   57.439800
  H      0.417100  -18.346900   57.190200
  H      2.186850  -18.580600   57.221300
  C      1.152430  -19.254100   58.944700
  H      0.343339  -19.925000   59.234800
  H      0.836322  -18.437400   59.553000
  H      2.109670  -19.724300   59.355300
  H     -1.659530  -25.679300   56.501400
  H      5.638110  -21.647200   56.300000

 Total Charge           Charge          ....    0
 Multiplicity           Mult            ....    1
 Number of Electrons    NEL             ....  134
 Basis Dimension        Dim             ....  322

ORBITAL ENERGIES
----------------

  NO   OCC          E(Eh)            E(eV)
   0   2.0000     -88.968211     -2420.9481
   1   2.0000     -88.968128     -2420.9459
   2   2.0000     -10.333130      -281.1788
   3   2.0000     -10.325612      -280.9742
   4   2.0000     -10.320305      -280.8298
   5   2.0000     -10.303449      -280.3711
   6   2.0000     -10.300711      -280.2966
   7   2.0000     -10.299123      -280.2534
   8   2.0000     -10.297430      -280.2073
   9   2.0000     -10.296269      -280.1757
  10   2.0000     -10.293750      -280.1072
  11   2.0000     -10.290193      -280.0104
  12   2.0000     -10.285298      -279.8772
  13   2.0000     -10.282875      -279.8113
  14   2.0000     -10.279894      -279.7301
  15   2.0000     -10.278212      -279.6844
  16   2.0000      -8.083318      -219.9583
  17   2.0000      -8.082849      -219.9455
  18   2.0000      -6.041697      -164.4029
  19   2.0000      -6.041305      -164.3923
  20   2.0000      -6.037709      -164.2944
  21   2.0000      -6.037352      -164.2847
  22   2.0000      -6.034246      -164.2002
  23   2.0000      -6.033701      -164.1853
  24   2.0000      -1.004423       -27.3318
  25   2.0000      -0.983749       -26.7692
  26   2.0000      -0.909638       -24.7525
  27   2.0000      -0.907654       -24.6985
  28   2.0000      -0.864301       -23.5188
  29   2.0000      -0.851545       -23.1717
  30   2.0000      -0.844838       -22.9892
  31   2.0000      -0.815343       -22.1866
  32   2.0000      -0.784726       -21.3535
  33   2.0000      -0.769713       -20.9450
  34   2.0000      -0.713084       -19.4040
  35   2.0000      -0.701516       -19.0892
  36   2.0000      -0.690461       -18.7884
  37   2.0000      -0.658378       -17.9154
  38   2.0000      -0.634540       -17.2667
  39   2.0000      -0.621049       -16.8996
  40   2.0000      -0.604664       -16.4537
  41   2.0000      -0.567442       -15.4409
  42   2.0000      -0.564011       -15.3475
  43   2.0000      -0.549410       -14.9502
  44   2.0000      -0.542211       -14.7543
  45   2.0000      -0.525077       -14.2881
  46   2.0000      -0.518073       -14.0975
  47   2.0000      -0.505618       -13.7586
  48   2.0000      -0.503048       -13.6886
  49   2.0000      -0.491565       -13.3762
  50   2.0000      -0.484707       -13.1895
  51   2.0000      -0.484052       -13.1717
  52   2.0000      -0.472847       -12.8668
  53   2.0000      -0.467318       -12.7164
  54   2.0000      -0.460052       -12.5187
  55   2.0000      -0.454390       -12.3646
  56   2.0000      -0.445099       -12.1118
  57   2.0000      -0.442366       -12.0374
  58   2.0000      -0.440171       -11.9777
  59   2.0000      -0.425563       -11.5801
  60   2.0000      -0.423046       -11.5117
  61   2.0000      -0.409777       -11.1506
  62   2.0000      -0.399819       -10.8796
  63   2.0000      -0.345070        -9.3898
  64   2.0000      -0.333536        -9.0760
  65   2.0000      -0.326932        -8.8963
  66   2.0000      -0.287406        -7.8207
  67   0.0000       0.032281         0.8784
  68   0.0000       0.068352         1.8599
  69   0.0000       0.114285         3.1098
  70   0.0000       0.122858         3.3431
  71   0.0000       0.125250         3.4082

MULLIKEN ATOMIC CHARGES
-----------------------
   0 S :    0.126443
   1 C :   -0.068327
   2 C :   -0.179796
   3 C :    0.023426
   4 C :   -0.151830
   5 H :    0.031783
   6 C :    0.132200
   7 H :    0.034944
   8 H :    0.029057
   9 C :   -0.135262
  10 H :    0.031461
  11 H :    0.043628
  12 C :   -0.037285
  13 H :    0.034707
  14 H :    0.031227
  15 H :    0.024460
  16 S :    0.124261
  17 C :   -0.097221
  18 C :   -0.034683
  19 C :   -0.026039
  20 C :   -0.162845
  21 H :    0.019749
  22 C :    0.066349
  23 H :    0.004146
  24 H :    0.039659
  25 C :   -0.054638
  26 H :    0.030482
  27 H :    0.015539
  28 C :   -0.062638
  29 H :    0.009708
  30 H :    0.028728
  31 H :    0.049916
  32 H :    0.013703
  33 H :    0.064989
Sum of atomic charges:   -0.0000000

LOEWDIN ATOMIC CHARGES
----------------------
   0 S :    0.416885
   1 C :   -0.218371
   2 C :   -0.064564
   3 C :   -0.064543
   4 C :   -0.186664
   5 H :    0.036281
   6 C :   -0.020850
   7 H :    0.026232
   8 H :    0.032262
   9 C :   -0.037520
  10 H :    0.017948
  11 H :    0.032521
  12 C :   -0.071120
  13 H :    0.027438
  14 H :    0.030012
  15 H :    0.019408
  16 S :    0.426588
  17 C :   -0.190903
  18 C :   -0.070294
  19 C :   -0.056968
  20 C :   -0.208501
  21 H :    0.030257
  22 C :   -0.033054
  23 H :    0.027370
  24 H :    0.035328
  25 C :   -0.033985
  26 H :    0.027555
  27 H :    0.012261
  28 C :   -0.074644
  29 H :    0.020951
  30 H :    0.025511
  31 H :    0.035737
  32 H :    0.018357
  33 H :    0.033082

  Mayer bond orders larger than 0.100000
B(  0-S ,  1-C ) :   1.1538 B(  0-S ,  4-C ) :   1.1468 B(  1-C ,  2-C ) :   1.6091
B(  1-C , 32-H ) :   0.9642 B(  2-C ,  3-C ) :   1.2653 B(  2-C ,  6-C ) :   1.0061
B(  3-C ,  4-C ) :   1.5664 B(  3-C ,  5-H ) :   0.9826 B(  4-C , 20-C ) :   1.0208
B(  6-C ,  7-H ) :   0.9359 B(  6-C ,  8-H ) :   0.9454 B(  6-C ,  9-C ) :   1.0558
B(  9-C , 10-H ) :   0.9674 B(  9-C , 11-H ) :   0.9677 B(  9-C , 12-C ) :   1.0530
B( 12-C , 13-H ) :   0.9807 B( 12-C , 14-H ) :   0.9793 B( 12-C , 15-H ) :   0.9808
B( 16-S , 17-C ) :   1.1803 B( 16-S , 20-C ) :   1.1492 B( 17-C , 18-C ) :   1.5753
B( 17-C , 33-H ) :   0.9643 B( 18-C , 19-C ) :   1.2599 B( 18-C , 21-H ) :   0.9923
B( 19-C , 20-C ) :   1.5753 B( 19-C , 22-C ) :   1.0471 B( 22-C , 23-H ) :   0.9286
B( 22-C , 24-H ) :   0.9412 B( 22-C , 25-C ) :   1.0569 B( 25-C , 26-H ) :   0.9553
B( 25-C , 27-H ) :   0.9628 B( 25-C , 28-C ) :   1.0785 B( 28-C , 29-H ) :   0.9685
B( 28-C , 30-H ) :   0.9724 B( 28-C , 31-H ) :   0.9725

Dispersion correction           -0.014716403
FINAL SINGLE POINT ENERGY     -1339.866153894047

DIPOLE MOMENT
-------------
                                X             Y             Z
Electronic contribution:     21.33243     -18.01464     -16.31077
Nuclear contribution   :    -21.81076      18.50253      16.61004
                        -----------------------------------------
Total Dipole Moment    :     -0.47833       0.48789       0.29927
                        -----------------------------------------
Magnitude (a.u.)       :      0.74592
Magnitude (Debye)      :      1.89598

Rotational constants in cm-1:     0.018085     0.009385     0.006648
Rotational constants in MHz :   542.161389   281.358611   199.298587

                             ****ORCA TERMINATED NORMALLY****
TOTAL RUN TIME: 0 days 0 hours 0 minutes 35 seconds 720 msec
