                         Program Version 4.2.1 -  RELEASE  -
|  1> ! wB97X-D3 SP def2-SVP
|  2> %pal
|  3> nprocs 16
|  4> end
|  5>
|  6> * xyz 0 1
|  7> S 	 -38.523 	 37.3803 	 79.877
|  8> C 	 -38.496 	 39.1787 	 79.9661
|  9> C 	 -39.0933 	 39.6805 	 81.109
| 10> C 	 -39.5121 	 38.5853 	 81.9356
| 11> C 	 -39.3842 	 37.3421 	 81.3708
| 12> H 	 -39.9525 	 38.7897 	 82.8858
| 13> C 	 -39.2751 	 41.2124 	 81.4231
| 14> H 	 -38.4263 	 41.8167 	 81.1562
| 15> H 	 -39.4208 	 41.3331 	 82.4862
| 16> C 	 -40.5238 	 41.8586 	 80.7349
| 17> H 	 -40.471 	 42.9714 	 80.84
| 18> H 	 -40.4346 	 41.7339 	 79.6366
| 19> C 	 -41.9068 	 41.2772 	 81.1683
| 20> H 	 -42.1198 	 41.1583 	 82.251
| 21> H 	 -42.7145 	 41.8727 	 80.7131
| 22> H 	 -41.9317 	 40.2928 	 80.681
| 23> S 	 -38.6585 	 34.8499 	 82.5242
| 24> C 	 -39.8854 	 33.9524 	 83.2822
| 25> C 	 -41.1355 	 34.5612 	 83.2181
| 26> C 	 -41.1235 	 35.7812 	 82.4517
| 27> C 	 -39.87 	 36.1006 	 82.0252
| 28> H 	 -41.9834 	 34.1591 	 83.7752
| 29> C 	 -42.3239 	 36.7132 	 82.4794
| 30> H 	 -42.1283 	 37.3222 	 81.6244
| 31> H 	 -42.3578 	 37.4442 	 83.367
| 32> C 	 -43.6208 	 36.1298 	 81.9226
| 33> H 	 -43.5129 	 35.6287 	 81.0282
| 34> H 	 -44.3144 	 36.981 	 81.6603
| 35> C 	 -44.3696 	 35.2174 	 82.9331
| 36> H 	 -43.8346 	 34.3469 	 83.2307
| 37> H 	 -45.287 	 34.8335 	 82.3472
| 38> H 	 -44.4868 	 35.7929 	 83.8662
| 39> H 	 -38.1499 	 39.7148 	 79.1864
| 40> H 	 -39.8887 	 33.0759 	 83.9271
| 41> *
| 42>
| 43>                          ****END OF INPUT****

CARTESIAN COORDINATES (ANGSTROEM)
---------------------------------
  S    -38.523000   37.380300   79.877000
  C    -38.496000   39.178700   79.966100
  C    -39.093300   39.680500   81.109000
  C    -39.512100   38.585300   81.935600
  C    -39.384200   37.342100   81.370800
  H    -39.952500   38.789700   82.885800
  C    -39.275100   41.212400   81.423100
  H    -38.426300   41.816700   81.156200
  H    -39.420800   41.333100   82.486200
  C    -40.523800   41.858600   80.734900
  H    -40.471000   42.971400   80.840000
  H    -40.434600   41.733900   79.636600
  C    -41.906800   41.277200   81.168300
  H    -42.119800   41.158300   82.251000
  H    -42.714500   41.872700   80.713100
  H    -41.931700   40.292800   80.681000
  S    -38.658500   34.849900   82.524200
  C    -39.885400   33.952400   83.282200
  C    -41.135500   34.561200   83.218100
  C    -41.123500   35.781200   82.451700
  C    -39.870000   36.100600   82.025200
  H    -41.983400   34.159100   83.775200
  C    -42.323900   36.713200   82.479400
  H    -42.128300   37.322200   81.624400
  H    -42.357800   37.444200   83.367000
  C    -43.620800   36.129800   81.922600
  H    -43.512900   35.628700   81.028200
  H    -44.314400   36.981000   81.660300
  C    -44.369600   35.217400   82.933100
  H    -43.834600   34.346900   83.230700
  H    -45.287000   34.833500   82.347200
  H    -44.486800   35.792900   83.866200
  H    -38.149900   39.714800   79.186400
  H    -39.888700   33.075900   83.927100

 Total Charge           Charge          ....    0
 Multiplicity           Mult            ....    1
 Number of Electrons    NEL             ....  134
 Basis Dimension        Dim             ....  322

ORBITAL ENERGIES
----------------

  NO   OCC          E(Eh)            E(eV)
   0   2.0000     -88.968447     -2420.9545
   1   2.0000     -88.967937     -2420.9406
   2   2.0000     -10.329065      -281.0681
   3   2.0000     -10.328130      -281.0427
   4   2.0000     -10.313416      -280.6423
   5   2.0000     -10.311572      -280.5921
   6   2.0000     -10.307760      -280.4884
   7   2.0000     -10.301210      -280.3102
   8   2.0000     -10.301026      -280.3052
   9   2.0000     -10.297534      -280.2102
  10   2.0000     -10.292843      -280.0825
  11   2.0000     -10.292161      -280.0640
  12   2.0000     -10.289275      -279.9854
  13   2.0000     -10.285139      -279.8729
  14   2.0000     -10.284620      -279.8587
  15   2.0000     -10.279472      -279.7187
  16   2.0000      -8.082986      -219.9492
  17   2.0000      -8.082461      -219.9349
  18   2.0000      -6.041442      -164.3960
  19   2.0000      -6.041003      -164.3841
  20   2.0000      -6.037640      -164.2925
  21   2.0000      -6.037070      -164.2770
  22   2.0000      -6.033699      -164.1853
  23   2.0000      -6.033109      -164.1692
  24   2.0000      -1.004159       -27.3246
  25   2.0000      -0.982658       -26.7395
  26   2.0000      -0.910594       -24.7785
  27   2.0000      -0.903982       -24.5986
  28   2.0000      -0.864926       -23.5358
  29   2.0000      -0.848636       -23.0926
  30   2.0000      -0.840785       -22.8789
  31   2.0000      -0.811636       -22.0857
  32   2.0000      -0.788281       -21.4502
  33   2.0000      -0.776992       -21.1430
  34   2.0000      -0.705292       -19.1920
  35   2.0000      -0.698937       -19.0190
  36   2.0000      -0.690539       -18.7905
  37   2.0000      -0.655849       -17.8466
  38   2.0000      -0.646456       -17.5910
  39   2.0000      -0.619709       -16.8631
  40   2.0000      -0.594101       -16.1663
  41   2.0000      -0.570275       -15.5180
  42   2.0000      -0.548201       -14.9173
  43   2.0000      -0.547391       -14.8953
  44   2.0000      -0.541134       -14.7250
  45   2.0000      -0.530971       -14.4485
  46   2.0000      -0.519303       -14.1309
  47   2.0000      -0.510867       -13.9014
  48   2.0000      -0.501766       -13.6537
  49   2.0000      -0.492435       -13.3998
  50   2.0000      -0.491348       -13.3702
  51   2.0000      -0.478614       -13.0237
  52   2.0000      -0.471259       -12.8236
  53   2.0000      -0.466982       -12.7072
  54   2.0000      -0.464505       -12.6398
  55   2.0000      -0.449635       -12.2352
  56   2.0000      -0.445032       -12.1099
  57   2.0000      -0.436877       -11.8880
  58   2.0000      -0.434187       -11.8148
  59   2.0000      -0.429712       -11.6931
  60   2.0000      -0.416443       -11.3320
  61   2.0000      -0.413129       -11.2418
  62   2.0000      -0.395778       -10.7697
  63   2.0000      -0.338986        -9.2243
  64   2.0000      -0.336048        -9.1443
  65   2.0000      -0.331124        -9.0103
  66   2.0000      -0.298914        -8.1339
  67   0.0000       0.036030         0.9804
  68   0.0000       0.062899         1.7116
  69   0.0000       0.109620         2.9829
  70   0.0000       0.114909         3.1268
  71   0.0000       0.126352         3.4382

MULLIKEN ATOMIC CHARGES
-----------------------
   0 S :    0.109830
   1 C :   -0.092294
   2 C :   -0.081979
   3 C :    0.042129
   4 C :   -0.157214
   5 H :   -0.003122
   6 C :    0.096033
   7 H :    0.031740
   8 H :    0.021376
   9 C :   -0.110055
  10 H :    0.035879
  11 H :    0.030891
  12 C :   -0.076340
  13 H :    0.041374
  14 H :    0.039881
  15 H :    0.048379
  16 S :    0.120506
  17 C :   -0.062715
  18 C :   -0.079869
  19 C :   -0.011865
  20 C :   -0.171941
  21 H :    0.021498
  22 C :    0.039309
  23 H :    0.026250
  24 H :    0.066814
  25 C :   -0.071429
  26 H :    0.016514
  27 H :    0.035285
  28 C :   -0.058071
  29 H :    0.023061
  30 H :    0.045237
  31 H :    0.031299
  32 H :    0.002896
  33 H :    0.050715
Sum of atomic charges:   -0.0000000

LOEWDIN ATOMIC CHARGES
----------------------
   0 S :    0.396962
   1 C :   -0.157843
   2 C :   -0.055276
   3 C :   -0.056121
   4 C :   -0.204210
   5 H :    0.025394
   6 C :   -0.022932
   7 H :    0.031438
   8 H :    0.027335
   9 C :   -0.045206
  10 H :    0.024008
  11 H :    0.025249
  12 C :   -0.075137
  13 H :    0.025740
  14 H :    0.030017
  15 H :    0.030530
  16 S :    0.403411
  17 C :   -0.204666
  18 C :   -0.079164
  19 C :   -0.055151
  20 C :   -0.180670
  21 H :    0.029514
  22 C :   -0.044504
  23 H :    0.034462
  24 H :    0.044662
  25 C :   -0.033559
  26 H :    0.016077
  27 H :    0.032139
  28 C :   -0.073735
  29 H :    0.011307
  30 H :    0.037348
  31 H :    0.026566
  32 H :   -0.000346
  33 H :    0.036360

  Mayer bond orders larger than 0.100000
B(  0-S ,  1-C ) :   1.1344 B(  0-S ,  4-C ) :   1.1526 B(  1-C ,  2-C ) :   1.6172
B(  1-C , 32-H ) :   0.9830 B(  2-C ,  3-C ) :   1.2429 B(  2-C ,  6-C ) :   1.0092
B(  3-C ,  4-C ) :   1.5754 B(  3-C ,  5-H ) :   0.9974 B(  4-C , 20-C ) :   1.0127
B(  6-C ,  7-H ) :   0.9454 B(  6-C ,  8-H ) :   0.9450 B(  6-C ,  9-C ) :   1.0669
B(  9-C , 10-H ) :   0.9600 B(  9-C , 11-H ) :   0.9586 B(  9-C , 12-C ) :   1.0644
B( 12-C , 13-H ) :   0.9789 B( 12-C , 14-H ) :   0.9732 B( 12-C , 15-H ) :   0.9744
B( 16-S , 17-C ) :   1.1544 B( 16-S , 20-C ) :   1.1235 B( 17-C , 18-C ) :   1.6431
B( 17-C , 33-H ) :   0.9569 B( 18-C , 19-C ) :   1.2130 B( 18-C , 21-H ) :   0.9789
B( 19-C , 20-C ) :   1.6466 B( 19-C , 22-C ) :   1.0367 B( 22-C , 23-H ) :   0.9145
B( 22-C , 24-H ) :   0.9419 B( 22-C , 25-C ) :   1.0679 B( 25-C , 26-H ) :   0.9537
B( 25-C , 27-H ) :   0.9583 B( 25-C , 28-C ) :   1.0792 B( 28-C , 29-H ) :   0.9719
B( 28-C , 30-H ) :   0.9695 B( 28-C , 31-H ) :   0.9752

Dispersion correction           -0.015004508
FINAL SINGLE POINT ENERGY     -1339.857659305883

DIPOLE MOMENT
-------------
                                X             Y             Z
Electronic contribution:     24.54483     -15.81694      -3.75245
Nuclear contribution   :    -25.00727      16.37601       3.92508
                        -----------------------------------------
Total Dipole Moment    :     -0.46244       0.55907       0.17263
                        -----------------------------------------
Magnitude (a.u.)       :      0.74580
Magnitude (Debye)      :      1.89567

Rotational constants in cm-1:     0.017856     0.009371     0.006783
Rotational constants in MHz :   535.317237   280.948460   203.335705

                             ****ORCA TERMINATED NORMALLY****
TOTAL RUN TIME: 0 days 0 hours 0 minutes 30 seconds 849 msec
