                         Program Version 4.2.1 -  RELEASE  -
|  1> ! wB97X-D3 SP def2-SVP
|  2> %pal
|  3> nprocs 16
|  4> end
|  5>
|  6> * xyz 0 1
|  7> S 	 -64.6169 	 57.3968 	 127.5
|  8> C 	 -65.8546 	 56.839 	 128.538
|  9> C 	 -65.5547 	 55.6305 	 129.111
| 10> C 	 -64.326 	 55.1001 	 128.629
| 11> C 	 -63.6437 	 56.017 	 127.863
| 12> H 	 -63.8346 	 54.2107 	 128.966
| 13> C 	 -66.23 	 54.9089 	 130.195
| 14> H 	 -66.8542 	 55.5185 	 130.802
| 15> H 	 -65.4926 	 54.7843 	 130.961
| 16> C 	 -66.8597 	 53.5243 	 129.796
| 17> H 	 -67.8395 	 53.6113 	 129.272
| 18> H 	 -66.1919 	 52.9759 	 129.107
| 19> C 	 -66.9267 	 52.7175 	 131.043
| 20> H 	 -67.5666 	 53.0363 	 131.899
| 21> H 	 -67.2555 	 51.7393 	 130.74
| 22> H 	 -65.9678 	 52.5702 	 131.533
| 23> S 	 -61.0077 	 55.7198 	 128.647
| 24> C 	 -59.7247 	 55.7309 	 127.418
| 25> C 	 -60.2748 	 55.6272 	 126.172
| 26> C 	 -61.7479 	 55.77 	 126.153
| 27> C 	 -62.2811 	 55.8328 	 127.462
| 28> H 	 -59.6445 	 55.5879 	 125.268
| 29> C 	 -62.4785 	 55.8218 	 124.795
| 30> H 	 -62.5136 	 56.882 	 124.614
| 31> H 	 -63.5085 	 55.4648 	 125.059
| 32> C 	 -61.9462 	 54.9633 	 123.618
| 33> H 	 -62.0317 	 53.9516 	 123.895
| 34> H 	 -60.9073 	 55.2284 	 123.61
| 35> C 	 -62.5857 	 55.2475 	 122.185
| 36> H 	 -62.0493 	 54.7728 	 121.348
| 37> H 	 -62.5882 	 56.3093 	 121.939
| 38> H 	 -63.6007 	 54.9482 	 122.19
| 39> H 	 -66.7881 	 57.3549 	 128.85
| 40> H 	 -58.66 	 55.6401 	 127.672
| 41> *
| 42>
| 43>                          ****END OF INPUT****

CARTESIAN COORDINATES (ANGSTROEM)
---------------------------------
  S    -64.616900   57.396800  127.500000
  C    -65.854600   56.839000  128.538000
  C    -65.554700   55.630500  129.111000
  C    -64.326000   55.100100  128.629000
  C    -63.643700   56.017000  127.863000
  H    -63.834600   54.210700  128.966000
  C    -66.230000   54.908900  130.195000
  H    -66.854200   55.518500  130.802000
  H    -65.492600   54.784300  130.961000
  C    -66.859700   53.524300  129.796000
  H    -67.839500   53.611300  129.272000
  H    -66.191900   52.975900  129.107000
  C    -66.926700   52.717500  131.043000
  H    -67.566600   53.036300  131.899000
  H    -67.255500   51.739300  130.740000
  H    -65.967800   52.570200  131.533000
  S    -61.007700   55.719800  128.647000
  C    -59.724700   55.730900  127.418000
  C    -60.274800   55.627200  126.172000
  C    -61.747900   55.770000  126.153000
  C    -62.281100   55.832800  127.462000
  H    -59.644500   55.587900  125.268000
  C    -62.478500   55.821800  124.795000
  H    -62.513600   56.882000  124.614000
  H    -63.508500   55.464800  125.059000
  C    -61.946200   54.963300  123.618000
  H    -62.031700   53.951600  123.895000
  H    -60.907300   55.228400  123.610000
  C    -62.585700   55.247500  122.185000
  H    -62.049300   54.772800  121.348000
  H    -62.588200   56.309300  121.939000
  H    -63.600700   54.948200  122.190000
  H    -66.788100   57.354900  128.850000
  H    -58.660000   55.640100  127.672000

 Total Charge           Charge          ....    0
 Multiplicity           Mult            ....    1
 Number of Electrons    NEL             ....  134
 Basis Dimension        Dim             ....  322

ORBITAL ENERGIES
----------------

  NO   OCC          E(Eh)            E(eV)
   0   2.0000     -88.967424     -2420.9267
   1   2.0000     -88.962704     -2420.7983
   2   2.0000     -10.324621      -280.9472
   3   2.0000     -10.321018      -280.8492
   4   2.0000     -10.319869      -280.8179
   5   2.0000     -10.308966      -280.5212
   6   2.0000     -10.308758      -280.5156
   7   2.0000     -10.297027      -280.1963
   8   2.0000     -10.293234      -280.0931
   9   2.0000     -10.292490      -280.0729
  10   2.0000     -10.290938      -280.0307
  11   2.0000     -10.288390      -279.9613
  12   2.0000     -10.285605      -279.8855
  13   2.0000     -10.282583      -279.8033
  14   2.0000     -10.281711      -279.7796
  15   2.0000     -10.274591      -279.5858
  16   2.0000      -8.082889      -219.9466
  17   2.0000      -8.077173      -219.7911
  18   2.0000      -6.041342      -164.3933
  19   2.0000      -6.037337      -164.2843
  20   2.0000      -6.035883      -164.2447
  21   2.0000      -6.033623      -164.1832
  22   2.0000      -6.031647      -164.1295
  23   2.0000      -6.027827      -164.0255
  24   2.0000      -1.010066       -27.4853
  25   2.0000      -0.981129       -26.6979
  26   2.0000      -0.916593       -24.9418
  27   2.0000      -0.899779       -24.4842
  28   2.0000      -0.873550       -23.7705
  29   2.0000      -0.856864       -23.3165
  30   2.0000      -0.839417       -22.8417
  31   2.0000      -0.813640       -22.1403
  32   2.0000      -0.781835       -21.2748
  33   2.0000      -0.768013       -20.8987
  34   2.0000      -0.711697       -19.3663
  35   2.0000      -0.705590       -19.2001
  36   2.0000      -0.695501       -18.9256
  37   2.0000      -0.655023       -17.8241
  38   2.0000      -0.639161       -17.3925
  39   2.0000      -0.620028       -16.8718
  40   2.0000      -0.590401       -16.0656
  41   2.0000      -0.568176       -15.4608
  42   2.0000      -0.565509       -15.3883
  43   2.0000      -0.553138       -15.0516
  44   2.0000      -0.534559       -14.5461
  45   2.0000      -0.519094       -14.1253
  46   2.0000      -0.517856       -14.0916
  47   2.0000      -0.510658       -13.8957
  48   2.0000      -0.503814       -13.7095
  49   2.0000      -0.499504       -13.5922
  50   2.0000      -0.493627       -13.4323
  51   2.0000      -0.474914       -12.9231
  52   2.0000      -0.470694       -12.8082
  53   2.0000      -0.464355       -12.6357
  54   2.0000      -0.456820       -12.4307
  55   2.0000      -0.451573       -12.2879
  56   2.0000      -0.448610       -12.2073
  57   2.0000      -0.444576       -12.0975
  58   2.0000      -0.437435       -11.9032
  59   2.0000      -0.423927       -11.5356
  60   2.0000      -0.421043       -11.4572
  61   2.0000      -0.411838       -11.2067
  62   2.0000      -0.405751       -11.0410
  63   2.0000      -0.341884        -9.3031
  64   2.0000      -0.330731        -8.9996
  65   2.0000      -0.320236        -8.7141
  66   2.0000      -0.296167        -8.0591
  67   0.0000       0.040299         1.0966
  68   0.0000       0.066864         1.8195
  69   0.0000       0.109894         2.9904
  70   0.0000       0.122908         3.3445
  71   0.0000       0.134813         3.6684

MULLIKEN ATOMIC CHARGES
-----------------------
   0 S :    0.139501
   1 C :   -0.128298
   2 C :   -0.070168
   3 C :    0.021316
   4 C :   -0.170167
   5 H :    0.008657
   6 C :    0.076132
   7 H :   -0.004760
   8 H :    0.014863
   9 C :   -0.058930
  10 H :    0.045341
  11 H :    0.034877
  12 C :   -0.055447
  13 H :    0.034845
  14 H :    0.021118
  15 H :    0.025018
  16 S :    0.101957
  17 C :   -0.106013
  18 C :   -0.040732
  19 C :   -0.070396
  20 C :   -0.159055
  21 H :    0.036120
  22 C :    0.058320
  23 H :    0.040238
  24 H :    0.035037
  25 C :   -0.065381
  26 H :    0.032213
  27 H :    0.022802
  28 C :   -0.038761
  29 H :    0.041980
  30 H :    0.026910
  31 H :    0.030437
  32 H :    0.051367
  33 H :    0.069057
Sum of atomic charges:   -0.0000000

LOEWDIN ATOMIC CHARGES
----------------------
   0 S :    0.434649
   1 C :   -0.221229
   2 C :   -0.068000
   3 C :   -0.054987
   4 C :   -0.204881
   5 H :    0.027837
   6 C :   -0.036269
   7 H :    0.024656
   8 H :    0.032979
   9 C :   -0.033407
  10 H :    0.031796
  11 H :    0.029391
  12 C :   -0.071522
  13 H :    0.027903
  14 H :    0.022183
  15 H :    0.023709
  16 S :    0.394806
  17 C :   -0.180451
  18 C :   -0.078842
  19 C :   -0.050726
  20 C :   -0.210787
  21 H :    0.033787
  22 C :   -0.036630
  23 H :    0.031828
  24 H :    0.032291
  25 C :   -0.030799
  26 H :    0.021878
  27 H :    0.017199
  28 C :   -0.060211
  29 H :    0.031355
  30 H :    0.026086
  31 H :    0.020706
  32 H :    0.038401
  33 H :    0.035300

  Mayer bond orders larger than 0.100000
B(  0-S ,  1-C ) :   1.1345 B(  0-S ,  4-C ) :   1.1511 B(  1-C ,  2-C ) :   1.6263
B(  1-C , 32-H ) :   0.9582 B(  2-C ,  3-C ) :   1.2295 B(  2-C ,  6-C ) :   1.0292
B(  3-C ,  4-C ) :   1.5731 B(  3-C ,  5-H ) :   0.9971 B(  4-C , 20-C ) :   1.0516
B(  6-C ,  7-H ) :   0.9293 B(  6-C ,  8-H ) :   0.9428 B(  6-C ,  9-C ) :   1.0393
B(  9-C , 10-H ) :   0.9543 B(  9-C , 11-H ) :   0.9599 B(  9-C , 12-C ) :   1.0792
B( 12-C , 13-H ) :   0.9734 B( 12-C , 14-H ) :   0.9706 B( 12-C , 15-H ) :   0.9748
B( 16-S , 17-C ) :   1.1421 B( 16-S , 20-C ) :   1.1327 B( 17-C , 18-C ) :   1.6325
B( 17-C , 33-H ) :   0.9638 B( 18-C , 19-C ) :   1.2213 B( 18-C , 21-H ) :   0.9782
B( 19-C , 20-C ) :   1.5957 B( 19-C , 22-C ) :   1.0262 B( 22-C , 23-H ) :   0.9336
B( 22-C , 24-H ) :   0.9331 B( 22-C , 25-C ) :   1.0596 B( 25-C , 26-H ) :   0.9623
B( 25-C , 27-H ) :   0.9537 B( 25-C , 28-C ) :   1.0751 B( 28-C , 29-H ) :   0.9768
B( 28-C , 30-H ) :   0.9768 B( 28-C , 31-H ) :   0.9786

Dispersion correction           -0.013626530
FINAL SINGLE POINT ENERGY     -1339.869972714416

DIPOLE MOMENT
-------------
                                X             Y             Z
Electronic contribution:     10.71301      14.22214       7.10184
Nuclear contribution   :    -10.80624     -14.52878      -7.20477
                        -----------------------------------------
Total Dipole Moment    :     -0.09323      -0.30665      -0.10293
                        -----------------------------------------
Magnitude (a.u.)       :      0.33663
Magnitude (Debye)      :      0.85564

Rotational constants in cm-1:     0.018673     0.007320     0.006497
Rotational constants in MHz :   559.788963   219.438157   194.779083

                             ****ORCA TERMINATED NORMALLY****
TOTAL RUN TIME: 0 days 0 hours 0 minutes 32 seconds 103 msec
