                         Program Version 4.2.1 -  RELEASE  -
|  1> ! wB97X-D3 SP def2-SVP
|  2> %pal
|  3> nprocs 16
|  4> end
|  5>
|  6> * xyz 0 1
|  7> S 	 -39.139 	 -0.654038 	 96.8264
|  8> C 	 -38.1089 	 0.800342 	 96.9297
|  9> C 	 -38.8508 	 1.94989 	 96.6657
| 10> C 	 -40.1232 	 1.60499 	 96.1212
| 11> C 	 -40.3882 	 0.322648 	 96.0424
| 12> H 	 -40.8188 	 2.26885 	 95.6311
| 13> C 	 -38.4 	 3.36526 	 96.7693
| 14> H 	 -37.5707 	 3.31016 	 97.45
| 15> H 	 -39.2303 	 3.87711 	 97.2507
| 16> C 	 -38.0225 	 4.00575 	 95.3883
| 17> H 	 -37.2505 	 3.36731 	 94.894
| 18> H 	 -38.9293 	 4.15006 	 94.7771
| 19> C 	 -37.3588 	 5.37833 	 95.4828
| 20> H 	 -37.8432 	 6.07395 	 96.1111
| 21> H 	 -36.4197 	 5.3009 	 96.07
| 22> H 	 -37.0743 	 5.83877 	 94.5443
| 23> S 	 -42.6745 	 -0.973881 	 96.6069
| 24> C 	 -43.9 	 -1.12131 	 95.4032
| 25> C 	 -43.3541 	 -0.965447 	 94.1512
| 26> C 	 -42.0923 	 -0.194876 	 94.1865
| 27> C 	 -41.5633 	 -0.317944 	 95.459
| 28> H 	 -43.9169 	 -1.23155 	 93.2485
| 29> C 	 -41.3917 	 0.3115 	 92.9072
| 30> H 	 -40.6936 	 1.1078 	 93.2438
| 31> H 	 -42.1805 	 0.832047 	 92.4088
| 32> C 	 -40.5297 	 -0.661049 	 92.0763
| 33> H 	 -41.1572 	 -1.5307 	 91.7767
| 34> H 	 -39.7216 	 -1.08192 	 92.6869
| 35> C 	 -39.857 	 0.131183 	 90.9376
| 36> H 	 -40.5335 	 0.761395 	 90.3059
| 37> H 	 -39.4452 	 -0.597443 	 90.1644
| 38> H 	 -39.1013 	 0.8255 	 91.329
| 39> H 	 -37.0798 	 0.777228 	 97.1299
| 40> H 	 -44.7081 	 -1.78467 	 95.5851
| 41> *
| 42>
| 43>                          ****END OF INPUT****

CARTESIAN COORDINATES (ANGSTROEM)
---------------------------------
  S    -39.139000   -0.654038   96.826400
  C    -38.108900    0.800342   96.929700
  C    -38.850800    1.949890   96.665700
  C    -40.123200    1.604990   96.121200
  C    -40.388200    0.322648   96.042400
  H    -40.818800    2.268850   95.631100
  C    -38.400000    3.365260   96.769300
  H    -37.570700    3.310160   97.450000
  H    -39.230300    3.877110   97.250700
  C    -38.022500    4.005750   95.388300
  H    -37.250500    3.367310   94.894000
  H    -38.929300    4.150060   94.777100
  C    -37.358800    5.378330   95.482800
  H    -37.843200    6.073950   96.111100
  H    -36.419700    5.300900   96.070000
  H    -37.074300    5.838770   94.544300
  S    -42.674500   -0.973881   96.606900
  C    -43.900000   -1.121310   95.403200
  C    -43.354100   -0.965447   94.151200
  C    -42.092300   -0.194876   94.186500
  C    -41.563300   -0.317944   95.459000
  H    -43.916900   -1.231550   93.248500
  C    -41.391700    0.311500   92.907200
  H    -40.693600    1.107800   93.243800
  H    -42.180500    0.832047   92.408800
  C    -40.529700   -0.661049   92.076300
  H    -41.157200   -1.530700   91.776700
  H    -39.721600   -1.081920   92.686900
  C    -39.857000    0.131183   90.937600
  H    -40.533500    0.761395   90.305900
  H    -39.445200   -0.597443   90.164400
  H    -39.101300    0.825500   91.329000
  H    -37.079800    0.777228   97.129900
  H    -44.708100   -1.784670   95.585100

 Total Charge           Charge          ....    0
 Multiplicity           Mult            ....    1
 Number of Electrons    NEL             ....  134
 Basis Dimension        Dim             ....  322

ORBITAL ENERGIES
----------------

  NO   OCC          E(Eh)            E(eV)
   0   2.0000     -88.960496     -2420.7382
   1   2.0000     -88.959922     -2420.7225
   2   2.0000     -10.322347      -280.8853
   3   2.0000     -10.319224      -280.8004
   4   2.0000     -10.313377      -280.6412
   5   2.0000     -10.308780      -280.5162
   6   2.0000     -10.307422      -280.4792
   7   2.0000     -10.300250      -280.2841
   8   2.0000     -10.299442      -280.2621
   9   2.0000     -10.297302      -280.2038
  10   2.0000     -10.293980      -280.1134
  11   2.0000     -10.293672      -280.1051
  12   2.0000     -10.293510      -280.1006
  13   2.0000     -10.288518      -279.9648
  14   2.0000     -10.282910      -279.8122
  15   2.0000     -10.275697      -279.6159
  16   2.0000      -8.076065      -219.7609
  17   2.0000      -8.074925      -219.7299
  18   2.0000      -6.034613      -164.2102
  19   2.0000      -6.033559      -164.1815
  20   2.0000      -6.030410      -164.0958
  21   2.0000      -6.029689      -164.0762
  22   2.0000      -6.026663      -163.9938
  23   2.0000      -6.025368      -163.9586
  24   2.0000      -1.009780       -27.4775
  25   2.0000      -0.985105       -26.8061
  26   2.0000      -0.911719       -24.8091
  27   2.0000      -0.905596       -24.6425
  28   2.0000      -0.870034       -23.6748
  29   2.0000      -0.850656       -23.1475
  30   2.0000      -0.845136       -22.9973
  31   2.0000      -0.819006       -22.2863
  32   2.0000      -0.780568       -21.2403
  33   2.0000      -0.769618       -20.9424
  34   2.0000      -0.707015       -19.2388
  35   2.0000      -0.702171       -19.1071
  36   2.0000      -0.694576       -18.9004
  37   2.0000      -0.659985       -17.9591
  38   2.0000      -0.645762       -17.5721
  39   2.0000      -0.620016       -16.8715
  40   2.0000      -0.593158       -16.1407
  41   2.0000      -0.570881       -15.5345
  42   2.0000      -0.563253       -15.3269
  43   2.0000      -0.552420       -15.0321
  44   2.0000      -0.533340       -14.5129
  45   2.0000      -0.525099       -14.2887
  46   2.0000      -0.515488       -14.0271
  47   2.0000      -0.511265       -13.9122
  48   2.0000      -0.505829       -13.7643
  49   2.0000      -0.496910       -13.5216
  50   2.0000      -0.493520       -13.4294
  51   2.0000      -0.483273       -13.1505
  52   2.0000      -0.467998       -12.7349
  53   2.0000      -0.461762       -12.5652
  54   2.0000      -0.454744       -12.3742
  55   2.0000      -0.447106       -12.1664
  56   2.0000      -0.441789       -12.0217
  57   2.0000      -0.438191       -11.9238
  58   2.0000      -0.433810       -11.8046
  59   2.0000      -0.423847       -11.5335
  60   2.0000      -0.421630       -11.4731
  61   2.0000      -0.419657       -11.4195
  62   2.0000      -0.415877       -11.3166
  63   2.0000      -0.343362        -9.3433
  64   2.0000      -0.328873        -8.9491
  65   2.0000      -0.324284        -8.8242
  66   2.0000      -0.299278        -8.1438
  67   0.0000       0.043210         1.1758
  68   0.0000       0.059420         1.6169
  69   0.0000       0.106174         2.8891
  70   0.0000       0.113253         3.0818
  71   0.0000       0.129822         3.5326

MULLIKEN ATOMIC CHARGES
-----------------------
   0 S :    0.088154
   1 C :   -0.110828
   2 C :   -0.095889
   3 C :    0.043864
   4 C :   -0.157208
   5 H :    0.008069
   6 C :    0.094650
   7 H :    0.013088
   8 H :    0.035352
   9 C :   -0.085551
  10 H :    0.041773
  11 H :    0.039959
  12 C :   -0.029960
  13 H :    0.012480
  14 H :    0.013611
  15 H :    0.039733
  16 S :    0.101527
  17 C :   -0.075326
  18 C :   -0.043483
  19 C :   -0.088189
  20 C :   -0.128563
  21 H :    0.031686
  22 C :    0.055051
  23 H :    0.017759
  24 H :    0.022859
  25 C :   -0.042054
  26 H :    0.034365
  27 H :    0.042239
  28 C :   -0.085202
  29 H :    0.030369
  30 H :    0.046054
  31 H :    0.046254
  32 H :    0.027977
  33 H :    0.055380
Sum of atomic charges:   -0.0000000

LOEWDIN ATOMIC CHARGES
----------------------
   0 S :    0.364982
   1 C :   -0.174621
   2 C :   -0.056623
   3 C :   -0.065189
   4 C :   -0.183649
   5 H :    0.032655
   6 C :   -0.029224
   7 H :    0.027710
   8 H :    0.036570
   9 C :   -0.037535
  10 H :    0.032493
  11 H :    0.026644
  12 C :   -0.072389
  13 H :    0.016782
  14 H :    0.026573
  15 H :    0.026993
  16 S :    0.420068
  17 C :   -0.199027
  18 C :   -0.060395
  19 C :   -0.056786
  20 C :   -0.203187
  21 H :    0.032068
  22 C :   -0.035660
  23 H :    0.032812
  24 H :    0.026791
  25 C :   -0.038836
  26 H :    0.026059
  27 H :    0.032894
  28 C :   -0.075329
  29 H :    0.025431
  30 H :    0.034912
  31 H :    0.028912
  32 H :    0.016022
  33 H :    0.021079

  Mayer bond orders larger than 0.100000
B(  0-S ,  1-C ) :   1.1186 B(  0-S ,  4-C ) :   1.1123 B(  1-C ,  2-C ) :   1.6407
B(  1-C , 32-H ) :   0.9785 B(  2-C ,  3-C ) :   1.1726 B(  2-C ,  6-C ) :   1.0360
B(  3-C ,  4-C ) :   1.6828 B(  3-C ,  5-H ) :   0.9930 B(  4-C , 20-C ) :   0.9747
B(  6-C ,  7-H ) :   0.9364 B(  6-C ,  8-H ) :   0.9301 B(  6-C ,  9-C ) :   1.0597
B(  9-C , 10-H ) :   0.9582 B(  9-C , 11-H ) :   0.9555 B(  9-C , 12-C ) :   1.0864
B( 12-C , 13-H ) :   0.9712 B( 12-C , 14-H ) :   0.9699 B( 12-C , 15-H ) :   0.9752
B( 16-S , 17-C ) :   1.1498 B( 16-S , 20-C ) :   1.1630 B( 17-C , 18-C ) :   1.6464
B( 17-C , 33-H ) :   0.9608 B( 18-C , 19-C ) :   1.1984 B( 18-C , 21-H ) :   0.9798
B( 19-C , 20-C ) :   1.6236 B( 19-C , 22-C ) :   1.0477 B( 22-C , 23-H ) :   0.9340
B( 22-C , 24-H ) :   0.9315 B( 22-C , 25-C ) :   1.0595 B( 25-C , 26-H ) :   0.9581
B( 25-C , 27-H ) :   0.9529 B( 25-C , 28-C ) :   1.0675 B( 28-C , 29-H ) :   0.9765
B( 28-C , 30-H ) :   0.9735 B( 28-C , 31-H ) :   0.9752

Dispersion correction           -0.014051930
FINAL SINGLE POINT ENERGY     -1339.864160439013

DIPOLE MOMENT
-------------
                                X             Y             Z
Electronic contribution:    -12.47902     -19.38518      19.15005
Nuclear contribution   :     12.64652      19.84645     -19.70073
                        -----------------------------------------
Total Dipole Moment    :      0.16750       0.46127      -0.55068
                        -----------------------------------------
Magnitude (a.u.)       :      0.73762
Magnitude (Debye)      :      1.87487

Rotational constants in cm-1:     0.016810     0.008793     0.006954
Rotational constants in MHz :   503.948781   263.617833   208.464461

                             ****ORCA TERMINATED NORMALLY****
TOTAL RUN TIME: 0 days 0 hours 0 minutes 29 seconds 731 msec
