                         Program Version 4.2.1 -  RELEASE  -
|  1> ! wB97X-D3 SP def2-SVP
|  2> %pal
|  3> nprocs 16
|  4> end
|  5>
|  6> * xyz 0 1
|  7> S 	 41.6697 	 7.65984 	 86.1236
|  8> C 	 41.1 	 6.67432 	 87.4277
|  9> C 	 39.9298 	 7.16636 	 88.0074
| 10> C 	 39.5402 	 8.36971 	 87.3762
| 11> C 	 40.3641 	 8.80431 	 86.3852
| 12> H 	 38.7855 	 9.0575 	 87.7217
| 13> C 	 39.1818 	 6.46628 	 89.1588
| 14> H 	 38.9168 	 7.23307 	 89.9055
| 15> H 	 39.8099 	 5.7818 	 89.6868
| 16> C 	 37.9361 	 5.73454 	 88.7029
| 17> H 	 37.6704 	 5.13464 	 89.5258
| 18> H 	 37.0717 	 6.39389 	 88.4863
| 19> C 	 38.0082 	 4.76658 	 87.5093
| 20> H 	 36.9761 	 4.41001 	 87.3449
| 21> H 	 38.3681 	 5.2534 	 86.6466
| 22> H 	 38.6478 	 3.98036 	 87.7239
| 23> S 	 41.457 	 11.267 	 86.6075
| 24> C 	 40.8169 	 12.6137 	 85.6551
| 25> C 	 39.6585 	 12.2007 	 84.9999
| 26> C 	 39.3904 	 10.8116 	 85.1368
| 27> C 	 40.3833 	 10.1587 	 85.8721
| 28> H 	 39.0883 	 12.9469 	 84.5351
| 29> C 	 38.1358 	 10.2029 	 84.6233
| 30> H 	 37.2585 	 10.8746 	 84.5492
| 31> H 	 37.8108 	 9.42651 	 85.3161
| 32> C 	 38.2244 	 9.56547 	 83.1654
| 33> H 	 38.9037 	 10.0892 	 82.4763
| 34> H 	 37.2501 	 9.50007 	 82.63
| 35> C 	 38.7623 	 8.12329 	 83.2834
| 36> H 	 38.2236 	 7.57862 	 84.0586
| 37> H 	 39.8612 	 8.24035 	 83.6661
| 38> H 	 38.8043 	 7.4374 	 82.3998
| 39> H 	 41.5873 	 5.80792 	 87.7837
| 40> H 	 40.9731 	 13.6278 	 85.7568
| 41> *
| 42>
| 43>                          ****END OF INPUT****

CARTESIAN COORDINATES (ANGSTROEM)
---------------------------------
  S     41.669700    7.659840   86.123600
  C     41.100000    6.674320   87.427700
  C     39.929800    7.166360   88.007400
  C     39.540200    8.369710   87.376200
  C     40.364100    8.804310   86.385200
  H     38.785500    9.057500   87.721700
  C     39.181800    6.466280   89.158800
  H     38.916800    7.233070   89.905500
  H     39.809900    5.781800   89.686800
  C     37.936100    5.734540   88.702900
  H     37.670400    5.134640   89.525800
  H     37.071700    6.393890   88.486300
  C     38.008200    4.766580   87.509300
  H     36.976100    4.410010   87.344900
  H     38.368100    5.253400   86.646600
  H     38.647800    3.980360   87.723900
  S     41.457000   11.267000   86.607500
  C     40.816900   12.613700   85.655100
  C     39.658500   12.200700   84.999900
  C     39.390400   10.811600   85.136800
  C     40.383300   10.158700   85.872100
  H     39.088300   12.946900   84.535100
  C     38.135800   10.202900   84.623300
  H     37.258500   10.874600   84.549200
  H     37.810800    9.426510   85.316100
  C     38.224400    9.565470   83.165400
  H     38.903700   10.089200   82.476300
  H     37.250100    9.500070   82.630000
  C     38.762300    8.123290   83.283400
  H     38.223600    7.578620   84.058600
  H     39.861200    8.240350   83.666100
  H     38.804300    7.437400   82.399800
  H     41.587300    5.807920   87.783700
  H     40.973100   13.627800   85.756800

 Total Charge           Charge          ....    0
 Multiplicity           Mult            ....    1
 Number of Electrons    NEL             ....  134
 Basis Dimension        Dim             ....  322

ORBITAL ENERGIES
----------------

  NO   OCC          E(Eh)            E(eV)
   0   2.0000     -88.968481     -2420.9554
   1   2.0000     -88.967731     -2420.9350
   2   2.0000     -10.324322      -280.9391
   3   2.0000     -10.323356      -280.9128
   4   2.0000     -10.311841      -280.5995
   5   2.0000     -10.311449      -280.5888
   6   2.0000     -10.302752      -280.3521
   7   2.0000     -10.301989      -280.3314
   8   2.0000     -10.294320      -280.1227
   9   2.0000     -10.293966      -280.1131
  10   2.0000     -10.291271      -280.0397
  11   2.0000     -10.289879      -280.0018
  12   2.0000     -10.289449      -279.9901
  13   2.0000     -10.280599      -279.7493
  14   2.0000     -10.276537      -279.6388
  15   2.0000     -10.266308      -279.3604
  16   2.0000      -8.083234      -219.9560
  17   2.0000      -8.082389      -219.9330
  18   2.0000      -6.041784      -164.4053
  19   2.0000      -6.040763      -164.3775
  20   2.0000      -6.037687      -164.2938
  21   2.0000      -6.036857      -164.2712
  22   2.0000      -6.033994      -164.1933
  23   2.0000      -6.033343      -164.1756
  24   2.0000      -1.012116       -27.5411
  25   2.0000      -0.986834       -26.8531
  26   2.0000      -0.912846       -24.8398
  27   2.0000      -0.901402       -24.5284
  28   2.0000      -0.873241       -23.7621
  29   2.0000      -0.850419       -23.1411
  30   2.0000      -0.843231       -22.9455
  31   2.0000      -0.817061       -22.2334
  32   2.0000      -0.787915       -21.4403
  33   2.0000      -0.766003       -20.8440
  34   2.0000      -0.707501       -19.2521
  35   2.0000      -0.694228       -18.8909
  36   2.0000      -0.691309       -18.8115
  37   2.0000      -0.662497       -18.0275
  38   2.0000      -0.647347       -17.6152
  39   2.0000      -0.623280       -16.9603
  40   2.0000      -0.597438       -16.2571
  41   2.0000      -0.572868       -15.5885
  42   2.0000      -0.553509       -15.0617
  43   2.0000      -0.549786       -14.9604
  44   2.0000      -0.545152       -14.8343
  45   2.0000      -0.529597       -14.4111
  46   2.0000      -0.518397       -14.1063
  47   2.0000      -0.510824       -13.9002
  48   2.0000      -0.502309       -13.6685
  49   2.0000      -0.497251       -13.5309
  50   2.0000      -0.487572       -13.2675
  51   2.0000      -0.479610       -13.0509
  52   2.0000      -0.472214       -12.8496
  53   2.0000      -0.465430       -12.6650
  54   2.0000      -0.461156       -12.5487
  55   2.0000      -0.442753       -12.0479
  56   2.0000      -0.442676       -12.0458
  57   2.0000      -0.437052       -11.8928
  58   2.0000      -0.427913       -11.6441
  59   2.0000      -0.423279       -11.5180
  60   2.0000      -0.420240       -11.4353
  61   2.0000      -0.413887       -11.2624
  62   2.0000      -0.407137       -11.0788
  63   2.0000      -0.345963        -9.4141
  64   2.0000      -0.329047        -8.9538
  65   2.0000      -0.323711        -8.8086
  66   2.0000      -0.301954        -8.2166
  67   0.0000       0.035218         0.9583
  68   0.0000       0.057957         1.5771
  69   0.0000       0.107583         2.9275
  70   0.0000       0.122265         3.3270
  71   0.0000       0.125138         3.4052

MULLIKEN ATOMIC CHARGES
-----------------------
   0 S :    0.125431
   1 C :   -0.105989
   2 C :   -0.107583
   3 C :    0.054422
   4 C :   -0.204648
   5 H :    0.016002
   6 C :    0.105447
   7 H :    0.033228
   8 H :    0.009845
   9 C :   -0.091300
  10 H :    0.016407
  11 H :    0.030250
  12 C :   -0.013421
  13 H :    0.034519
  14 H :    0.034305
  15 H :    0.009993
  16 S :    0.126418
  17 C :   -0.060846
  18 C :   -0.033485
  19 C :   -0.007971
  20 C :   -0.145116
  21 H :    0.001289
  22 C :    0.057414
  23 H :    0.030000
  24 H :    0.017921
  25 C :   -0.073399
  26 H :    0.037895
  27 H :    0.033584
  28 C :   -0.099603
  29 H :    0.027251
  30 H :    0.037956
  31 H :    0.043384
  32 H :    0.031011
  33 H :    0.029390
Sum of atomic charges:    0.0000000

LOEWDIN ATOMIC CHARGES
----------------------
   0 S :    0.417516
   1 C :   -0.193704
   2 C :   -0.062041
   3 C :   -0.057669
   4 C :   -0.201070
   5 H :    0.032267
   6 C :   -0.026937
   7 H :    0.037448
   8 H :    0.025544
   9 C :   -0.041881
  10 H :    0.018888
  11 H :    0.024834
  12 C :   -0.051665
  13 H :    0.032776
  14 H :    0.019407
  15 H :    0.012404
  16 S :    0.431269
  17 C :   -0.177211
  18 C :   -0.055083
  19 C :   -0.057108
  20 C :   -0.216624
  21 H :    0.023625
  22 C :   -0.031998
  23 H :    0.036006
  24 H :    0.029454
  25 C :   -0.041476
  26 H :    0.025600
  27 H :    0.023287
  28 C :   -0.083472
  29 H :    0.017819
  30 H :    0.029677
  31 H :    0.025718
  32 H :    0.018511
  33 H :    0.015887

  Mayer bond orders larger than 0.100000
B(  0-S ,  1-C ) :   1.1559 B(  0-S ,  4-C ) :   1.1443 B(  1-C ,  2-C ) :   1.5962
B(  1-C , 32-H ) :   0.9724 B(  2-C ,  3-C ) :   1.2447 B(  2-C ,  6-C ) :   1.0273
B(  3-C ,  4-C ) :   1.5951 B(  3-C ,  5-H ) :   0.9889 B(  4-C , 20-C ) :   1.0124
B(  6-C ,  7-H ) :   0.9368 B(  6-C ,  8-H ) :   0.9390 B(  6-C ,  9-C ) :   1.0739
B(  9-C , 10-H ) :   0.9549 B(  9-C , 11-H ) :   0.9586 B(  9-C , 12-C ) :   1.0835
B( 12-C , 13-H ) :   0.9731 B( 12-C , 14-H ) :   0.9725 B( 12-C , 15-H ) :   0.9753
B( 16-S , 17-C ) :   1.1539 B( 16-S , 20-C ) :   1.1716 B( 17-C , 18-C ) :   1.6033
B( 17-C , 33-H ) :   0.9731 B( 18-C , 19-C ) :   1.2616 B( 18-C , 21-H ) :   0.9978
B( 19-C , 20-C ) :   1.5505 B( 19-C , 22-C ) :   1.0558 B( 22-C , 23-H ) :   0.9417
B( 22-C , 24-H ) :   0.9326 B( 22-C , 25-C ) :   1.0460 B( 25-C , 26-H ) :   0.9619
B( 25-C , 27-H ) :   0.9601 B( 25-C , 28-C ) :   1.0679 B( 28-C , 29-H ) :   0.9765
B( 28-C , 30-H ) :   0.9700 B( 28-C , 31-H ) :   0.9752

Dispersion correction           -0.015901672
FINAL SINGLE POINT ENERGY     -1339.872518558043

DIPOLE MOMENT
-------------
                                X             Y             Z
Electronic contribution:     20.19131      15.22615       2.69534
Nuclear contribution   :    -20.79519     -15.25424      -2.33651
                        -----------------------------------------
Total Dipole Moment    :     -0.60388      -0.02809       0.35883
                        -----------------------------------------
Magnitude (a.u.)       :      0.70301
Magnitude (Debye)      :      1.78690

Rotational constants in cm-1:     0.020315     0.009307     0.007885
Rotational constants in MHz :   609.017749   279.021186   236.391267

                             ****ORCA TERMINATED NORMALLY****
TOTAL RUN TIME: 0 days 0 hours 0 minutes 30 seconds 736 msec
