                         Program Version 4.2.1 -  RELEASE  -
|  1> ! wB97X-D3 SP def2-SVP
|  2> %pal
|  3> nprocs 16
|  4> end
|  5>
|  6> * xyz 0 1
|  7> S 	 -36.0756 	 40.5989 	 98.285
|  8> C 	 -34.4783 	 40.3711 	 98.9754
|  9> C 	 -33.8931 	 39.345 	 98.3176
| 10> C 	 -34.6997 	 38.7845 	 97.2798
| 11> C 	 -35.967 	 39.2905 	 97.1353
| 12> H 	 -34.2956 	 38.0008 	 96.6618
| 13> C 	 -32.4252 	 38.9484 	 98.4419
| 14> H 	 -31.9028 	 39.8354 	 98.1062
| 15> H 	 -32.1293 	 38.1078 	 97.7385
| 16> C 	 -32.0163 	 38.6246 	 99.8278
| 17> H 	 -32.3209 	 39.5113 	 100.419
| 18> H 	 -32.5716 	 37.7637 	 100.232
| 19> C 	 -30.5926 	 38.0727 	 99.897
| 20> H 	 -29.8277 	 38.8519 	 100.102
| 21> H 	 -30.4539 	 37.4095 	 100.758
| 22> H 	 -30.3395 	 37.5604 	 98.9337
| 23> S 	 -38.3098 	 39.8592 	 95.6571
| 24> C 	 -39.1855 	 38.5528 	 94.9533
| 25> C 	 -38.4936 	 37.359 	 94.9897
| 26> C 	 -37.2187 	 37.4861 	 95.6889
| 27> C 	 -36.9924 	 38.797 	 96.1862
| 28> H 	 -38.9424 	 36.377 	 94.6526
| 29> C 	 -36.3587 	 36.2575 	 96.0235
| 30> H 	 -36.1011 	 36.4205 	 97.0712
| 31> H 	 -35.5335 	 36.4874 	 95.3867
| 32> C 	 -36.9059 	 34.9129 	 95.6793
| 33> H 	 -37.2308 	 35.0527 	 94.6302
| 34> H 	 -37.7993 	 34.666 	 96.2706
| 35> C 	 -35.8706 	 33.8202 	 95.9049
| 36> H 	 -36.2174 	 32.8419 	 95.6166
| 37> H 	 -35.5555 	 33.7522 	 96.9997
| 38> H 	 -34.9321 	 33.9853 	 95.3402
| 39> H 	 -34.0869 	 41.07 	 99.755
| 40> H 	 -40.2928 	 38.599 	 94.7542
| 41> *
| 42>
| 43>                          ****END OF INPUT****

CARTESIAN COORDINATES (ANGSTROEM)
---------------------------------
  S    -36.075600   40.598900   98.285000
  C    -34.478300   40.371100   98.975400
  C    -33.893100   39.345000   98.317600
  C    -34.699700   38.784500   97.279800
  C    -35.967000   39.290500   97.135300
  H    -34.295600   38.000800   96.661800
  C    -32.425200   38.948400   98.441900
  H    -31.902800   39.835400   98.106200
  H    -32.129300   38.107800   97.738500
  C    -32.016300   38.624600   99.827800
  H    -32.320900   39.511300  100.419000
  H    -32.571600   37.763700  100.232000
  C    -30.592600   38.072700   99.897000
  H    -29.827700   38.851900  100.102000
  H    -30.453900   37.409500  100.758000
  H    -30.339500   37.560400   98.933700
  S    -38.309800   39.859200   95.657100
  C    -39.185500   38.552800   94.953300
  C    -38.493600   37.359000   94.989700
  C    -37.218700   37.486100   95.688900
  C    -36.992400   38.797000   96.186200
  H    -38.942400   36.377000   94.652600
  C    -36.358700   36.257500   96.023500
  H    -36.101100   36.420500   97.071200
  H    -35.533500   36.487400   95.386700
  C    -36.905900   34.912900   95.679300
  H    -37.230800   35.052700   94.630200
  H    -37.799300   34.666000   96.270600
  C    -35.870600   33.820200   95.904900
  H    -36.217400   32.841900   95.616600
  H    -35.555500   33.752200   96.999700
  H    -34.932100   33.985300   95.340200
  H    -34.086900   41.070000   99.755000
  H    -40.292800   38.599000   94.754200

 Total Charge           Charge          ....    0
 Multiplicity           Mult            ....    1
 Number of Electrons    NEL             ....  134
 Basis Dimension        Dim             ....  322

ORBITAL ENERGIES
----------------

  NO   OCC          E(Eh)            E(eV)
   0   2.0000     -88.966542     -2420.9027
   1   2.0000     -88.962307     -2420.7875
   2   2.0000     -10.334954      -281.2284
   3   2.0000     -10.333966      -281.2015
   4   2.0000     -10.321284      -280.8564
   5   2.0000     -10.317553      -280.7549
   6   2.0000     -10.312764      -280.6246
   7   2.0000     -10.302465      -280.3443
   8   2.0000     -10.297460      -280.2081
   9   2.0000     -10.291787      -280.0538
  10   2.0000     -10.291295      -280.0404
  11   2.0000     -10.289150      -279.9820
  12   2.0000     -10.288663      -279.9687
  13   2.0000     -10.286751      -279.9167
  14   2.0000     -10.285211      -279.8748
  15   2.0000     -10.284580      -279.8576
  16   2.0000      -8.081354      -219.9048
  17   2.0000      -8.077174      -219.7911
  18   2.0000      -6.039937      -164.3551
  19   2.0000      -6.035861      -164.2441
  20   2.0000      -6.035781      -164.2419
  21   2.0000      -6.032105      -164.1419
  22   2.0000      -6.031516      -164.1259
  23   2.0000      -6.027860      -164.0264
  24   2.0000      -1.006494       -27.3881
  25   2.0000      -0.985836       -26.8260
  26   2.0000      -0.919408       -25.0184
  27   2.0000      -0.918506       -24.9938
  28   2.0000      -0.870442       -23.6859
  29   2.0000      -0.851461       -23.1694
  30   2.0000      -0.841801       -22.9066
  31   2.0000      -0.814906       -22.1747
  32   2.0000      -0.782134       -21.2830
  33   2.0000      -0.771676       -20.9984
  34   2.0000      -0.709995       -19.3199
  35   2.0000      -0.703010       -19.1299
  36   2.0000      -0.690159       -18.7802
  37   2.0000      -0.649600       -17.6765
  38   2.0000      -0.635494       -17.2927
  39   2.0000      -0.621174       -16.9030
  40   2.0000      -0.593929       -16.1616
  41   2.0000      -0.580351       -15.7922
  42   2.0000      -0.578554       -15.7433
  43   2.0000      -0.560044       -15.2396
  44   2.0000      -0.528736       -14.3876
  45   2.0000      -0.524820       -14.2811
  46   2.0000      -0.517300       -14.0765
  47   2.0000      -0.512348       -13.9417
  48   2.0000      -0.507654       -13.8140
  49   2.0000      -0.498790       -13.5728
  50   2.0000      -0.492080       -13.3902
  51   2.0000      -0.481571       -13.1042
  52   2.0000      -0.474731       -12.9181
  53   2.0000      -0.468927       -12.7602
  54   2.0000      -0.457903       -12.4602
  55   2.0000      -0.452911       -12.3243
  56   2.0000      -0.449239       -12.2244
  57   2.0000      -0.438168       -11.9232
  58   2.0000      -0.433001       -11.7826
  59   2.0000      -0.424364       -11.5475
  60   2.0000      -0.416070       -11.3218
  61   2.0000      -0.411838       -11.2067
  62   2.0000      -0.401985       -10.9386
  63   2.0000      -0.358072        -9.7436
  64   2.0000      -0.330907        -9.0044
  65   2.0000      -0.327201        -8.9036
  66   2.0000      -0.287506        -7.8234
  67   0.0000       0.020278         0.5518
  68   0.0000       0.085381         2.3233
  69   0.0000       0.110024         2.9939
  70   0.0000       0.128196         3.4884
  71   0.0000       0.133306         3.6275

MULLIKEN ATOMIC CHARGES
-----------------------
   0 S :    0.092454
   1 C :   -0.168185
   2 C :   -0.049569
   3 C :   -0.020869
   4 C :   -0.092415
   5 H :   -0.001403
   6 C :    0.044834
   7 H :    0.041112
   8 H :    0.025753
   9 C :   -0.094220
  10 H :    0.030758
  11 H :    0.032084
  12 C :   -0.054441
  13 H :    0.032936
  14 H :    0.035118
  15 H :    0.039053
  16 S :    0.108613
  17 C :   -0.106274
  18 C :   -0.062294
  19 C :   -0.088097
  20 C :   -0.150624
  21 H :    0.046824
  22 C :    0.042480
  23 H :    0.049043
  24 H :    0.042237
  25 C :   -0.076461
  26 H :    0.037944
  27 H :    0.037757
  28 C :   -0.036960
  29 H :    0.030164
  30 H :    0.040784
  31 H :    0.028678
  32 H :    0.079499
  33 H :    0.083686
Sum of atomic charges:    0.0000000

LOEWDIN ATOMIC CHARGES
----------------------
   0 S :    0.400146
   1 C :   -0.202299
   2 C :   -0.067810
   3 C :   -0.074144
   4 C :   -0.190975
   5 H :    0.025216
   6 C :   -0.034416
   7 H :    0.033679
   8 H :    0.029827
   9 C :   -0.052604
  10 H :    0.026455
  11 H :    0.029019
  12 C :   -0.070666
  13 H :    0.026526
  14 H :    0.026653
  15 H :    0.031795
  16 S :    0.406665
  17 C :   -0.202558
  18 C :   -0.089044
  19 C :   -0.043022
  20 C :   -0.198880
  21 H :    0.043115
  22 C :   -0.035806
  23 H :    0.035587
  24 H :    0.033186
  25 C :   -0.047732
  26 H :    0.028653
  27 H :    0.028425
  28 C :   -0.065842
  29 H :    0.022535
  30 H :    0.035244
  31 H :    0.026285
  32 H :    0.042103
  33 H :    0.044685

  Mayer bond orders larger than 0.100000
B(  0-S ,  1-C ) :   1.1304 B(  0-S ,  4-C ) :   1.1477 B(  1-C ,  2-C ) :   1.5866
B(  1-C , 32-H ) :   0.9667 B(  2-C ,  3-C ) :   1.2757 B(  2-C ,  6-C ) :   1.0053
B(  3-C ,  4-C ) :   1.5264 B(  3-C ,  5-H ) :   1.0001 B(  4-C , 20-C ) :   1.0842
B(  6-C ,  7-H ) :   0.9399 B(  6-C ,  8-H ) :   0.9435 B(  6-C ,  9-C ) :   1.0689
B(  9-C , 10-H ) :   0.9543 B(  9-C , 11-H ) :   0.9611 B(  9-C , 12-C ) :   1.0673
B( 12-C , 13-H ) :   0.9731 B( 12-C , 14-H ) :   0.9798 B( 12-C , 15-H ) :   0.9711
B( 16-S , 17-C ) :   1.1710 B( 16-S , 20-C ) :   1.1255 B( 17-C , 18-C ) :   1.6008
B( 17-C , 33-H ) :   0.9521 B( 18-C , 19-C ) :   1.2629 B( 18-C , 21-H ) :   0.9705
B( 19-C , 20-C ) :   1.5815 B( 19-C , 22-C ) :   1.0051 B( 22-C , 23-H ) :   0.9311
B( 22-C , 24-H ) :   0.9227 B( 22-C , 25-C ) :   1.0901 B( 25-C , 26-H ) :   0.9385
B( 25-C , 27-H ) :   0.9488 B( 25-C , 28-C ) :   1.0878 B( 28-C , 29-H ) :   0.9729
B( 28-C , 30-H ) :   0.9715 B( 28-C , 31-H ) :   0.9738

Dispersion correction           -0.013119407
FINAL SINGLE POINT ENERGY     -1339.874786451806

DIPOLE MOMENT
-------------
                                X             Y             Z
Electronic contribution:    -21.55934      23.35672      -5.46378
Nuclear contribution   :     21.93074     -24.03529       5.54235
                        -----------------------------------------
Total Dipole Moment    :      0.37140      -0.67857       0.07856
                        -----------------------------------------
Magnitude (a.u.)       :      0.77754
Magnitude (Debye)      :      1.97634

Rotational constants in cm-1:     0.017511     0.008312     0.005803
Rotational constants in MHz :   524.953281   249.186972   173.977421

                             ****ORCA TERMINATED NORMALLY****
TOTAL RUN TIME: 0 days 0 hours 0 minutes 29 seconds 647 msec
