                         Program Version 4.2.1 -  RELEASE  -
|  1> ! wB97X-D3 SP def2-SVP
|  2> %pal
|  3> nprocs 16
|  4> end
|  5>
|  6> * xyz 0 1
|  7> S 	 42.2174 	 19.6619 	 46.0422
|  8> C 	 40.6849 	 18.9894 	 45.5084
|  9> C 	 40.0878 	 19.7908 	 44.4894
| 10> C 	 40.9041 	 20.8598 	 44.1043
| 11> C 	 42.0104 	 21.0028 	 44.8927
| 12> H 	 40.6711 	 21.5456 	 43.2926
| 13> C 	 38.7769 	 19.323 	 43.8521
| 14> H 	 38.7635 	 18.264 	 44.0267
| 15> H 	 38.9388 	 19.5665 	 42.7476
| 16> C 	 37.5667 	 19.9453 	 44.4397
| 17> H 	 37.7888 	 20.9994 	 44.5104
| 18> H 	 36.7593 	 19.9249 	 43.6895
| 19> C 	 37.0804 	 19.2401 	 45.7684
| 20> H 	 36.9397 	 18.1892 	 45.6589
| 21> H 	 37.7599 	 19.4711 	 46.5938
| 22> H 	 36.1549 	 19.7275 	 46.0716
| 23> S 	 44.7092 	 21.8724 	 44.4066
| 24> C 	 45.1188 	 23.5876 	 44.6355
| 25> C 	 43.9422 	 24.2828 	 44.7458
| 26> C 	 42.749 	 23.5079 	 44.8923
| 27> C 	 42.9471 	 22.1287 	 44.8152
| 28> H 	 44.0177 	 25.3915 	 44.7601
| 29> C 	 41.3868 	 24.2308 	 44.9888
| 30> H 	 41.0245 	 24.1293 	 46.0643
| 31> H 	 40.6523 	 23.694 	 44.4011
| 32> C 	 41.3807 	 25.7105 	 44.5844
| 33> H 	 42.1491 	 26.3064 	 45.1151
| 34> H 	 40.4524 	 26.0823 	 44.9955
| 35> C 	 41.5808 	 25.9344 	 43.0691
| 36> H 	 40.6642 	 25.9699 	 42.5531
| 37> H 	 42.0644 	 25.0617 	 42.5759
| 38> H 	 42.1239 	 26.8817 	 42.8836
| 39> H 	 40.3518 	 18.016 	 45.9179
| 40> H 	 46.0768 	 24.0521 	 44.5702
| 41> *
| 42>
| 43>                          ****END OF INPUT****

CARTESIAN COORDINATES (ANGSTROEM)
---------------------------------
  S     42.217400   19.661900   46.042200
  C     40.684900   18.989400   45.508400
  C     40.087800   19.790800   44.489400
  C     40.904100   20.859800   44.104300
  C     42.010400   21.002800   44.892700
  H     40.671100   21.545600   43.292600
  C     38.776900   19.323000   43.852100
  H     38.763500   18.264000   44.026700
  H     38.938800   19.566500   42.747600
  C     37.566700   19.945300   44.439700
  H     37.788800   20.999400   44.510400
  H     36.759300   19.924900   43.689500
  C     37.080400   19.240100   45.768400
  H     36.939700   18.189200   45.658900
  H     37.759900   19.471100   46.593800
  H     36.154900   19.727500   46.071600
  S     44.709200   21.872400   44.406600
  C     45.118800   23.587600   44.635500
  C     43.942200   24.282800   44.745800
  C     42.749000   23.507900   44.892300
  C     42.947100   22.128700   44.815200
  H     44.017700   25.391500   44.760100
  C     41.386800   24.230800   44.988800
  H     41.024500   24.129300   46.064300
  H     40.652300   23.694000   44.401100
  C     41.380700   25.710500   44.584400
  H     42.149100   26.306400   45.115100
  H     40.452400   26.082300   44.995500
  C     41.580800   25.934400   43.069100
  H     40.664200   25.969900   42.553100
  H     42.064400   25.061700   42.575900
  H     42.123900   26.881700   42.883600
  H     40.351800   18.016000   45.917900
  H     46.076800   24.052100   44.570200

 Total Charge           Charge          ....    0
 Multiplicity           Mult            ....    1
 Number of Electrons    NEL             ....  134
 Basis Dimension        Dim             ....  322

ORBITAL ENERGIES
----------------

  NO   OCC          E(Eh)            E(eV)
   0   2.0000     -88.969072     -2420.9715
   1   2.0000     -88.959587     -2420.7134
   2   2.0000     -10.331591      -281.1369
   3   2.0000     -10.331200      -281.1262
   4   2.0000     -10.321767      -280.8696
   5   2.0000     -10.317311      -280.7483
   6   2.0000     -10.306118      -280.4437
   7   2.0000     -10.303474      -280.3718
   8   2.0000     -10.296669      -280.1866
   9   2.0000     -10.296185      -280.1734
  10   2.0000     -10.292742      -280.0798
  11   2.0000     -10.292541      -280.0743
  12   2.0000     -10.289376      -279.9882
  13   2.0000     -10.287087      -279.9259
  14   2.0000     -10.280963      -279.7592
  15   2.0000     -10.278375      -279.6888
  16   2.0000      -8.083189      -219.9548
  17   2.0000      -8.072894      -219.6746
  18   2.0000      -6.041564      -164.3993
  19   2.0000      -6.037734      -164.2951
  20   2.0000      -6.034169      -164.1981
  21   2.0000      -6.031663      -164.1299
  22   2.0000      -6.027607      -164.0195
  23   2.0000      -6.023440      -163.9061
  24   2.0000      -0.999523       -27.1984
  25   2.0000      -0.976668       -26.5765
  26   2.0000      -0.914654       -24.8890
  27   2.0000      -0.904796       -24.6208
  28   2.0000      -0.865558       -23.5530
  29   2.0000      -0.850532       -23.1442
  30   2.0000      -0.835773       -22.7425
  31   2.0000      -0.812139       -22.0994
  32   2.0000      -0.783021       -21.3071
  33   2.0000      -0.772577       -21.0229
  34   2.0000      -0.711523       -19.3615
  35   2.0000      -0.699058       -19.0223
  36   2.0000      -0.693550       -18.8725
  37   2.0000      -0.648711       -17.6523
  38   2.0000      -0.643381       -17.5073
  39   2.0000      -0.620965       -16.8973
  40   2.0000      -0.598218       -16.2783
  41   2.0000      -0.566373       -15.4118
  42   2.0000      -0.550846       -14.9893
  43   2.0000      -0.549859       -14.9624
  44   2.0000      -0.540038       -14.6952
  45   2.0000      -0.529206       -14.4004
  46   2.0000      -0.522153       -14.2085
  47   2.0000      -0.514337       -13.9958
  48   2.0000      -0.499284       -13.5862
  49   2.0000      -0.494437       -13.4543
  50   2.0000      -0.485629       -13.2146
  51   2.0000      -0.481290       -13.0966
  52   2.0000      -0.472339       -12.8530
  53   2.0000      -0.466394       -12.6912
  54   2.0000      -0.458012       -12.4632
  55   2.0000      -0.449523       -12.2321
  56   2.0000      -0.440901       -11.9975
  57   2.0000      -0.434567       -11.8252
  58   2.0000      -0.433395       -11.7933
  59   2.0000      -0.430708       -11.7202
  60   2.0000      -0.429915       -11.6986
  61   2.0000      -0.405552       -11.0356
  62   2.0000      -0.403956       -10.9922
  63   2.0000      -0.343389        -9.3441
  64   2.0000      -0.330031        -8.9806
  65   2.0000      -0.324433        -8.8283
  66   2.0000      -0.294086        -8.0025
  67   0.0000       0.024307         0.6614
  68   0.0000       0.063777         1.7355
  69   0.0000       0.110039         2.9943
  70   0.0000       0.118422         3.2224
  71   0.0000       0.127435         3.4677

MULLIKEN ATOMIC CHARGES
-----------------------
   0 S :    0.123624
   1 C :   -0.145851
   2 C :   -0.112417
   3 C :    0.038762
   4 C :   -0.164299
   5 H :    0.022277
   6 C :    0.062047
   7 H :    0.015493
   8 H :    0.039257
   9 C :   -0.050166
  10 H :    0.018337
  11 H :    0.027293
  12 C :   -0.043109
  13 H :    0.033813
  14 H :    0.040936
  15 H :    0.032435
  16 S :    0.076363
  17 C :   -0.075133
  18 C :   -0.058462
  19 C :   -0.023156
  20 C :   -0.162644
  21 H :    0.029721
  22 C :    0.052939
  23 H :    0.049376
  24 H :    0.017242
  25 C :   -0.075658
  26 H :    0.030439
  27 H :    0.026058
  28 C :   -0.051380
  29 H :    0.020547
  30 H :    0.047234
  31 H :    0.042003
  32 H :    0.065983
  33 H :    0.050097
Sum of atomic charges:    0.0000000

LOEWDIN ATOMIC CHARGES
----------------------
   0 S :    0.403132
   1 C :   -0.200785
   2 C :   -0.062848
   3 C :   -0.058262
   4 C :   -0.187685
   5 H :    0.036434
   6 C :   -0.033433
   7 H :    0.025253
   8 H :    0.039281
   9 C :   -0.043210
  10 H :    0.022862
  11 H :    0.024665
  12 C :   -0.059947
  13 H :    0.021464
  14 H :    0.028957
  15 H :    0.028784
  16 S :    0.355101
  17 C :   -0.169007
  18 C :   -0.081926
  19 C :   -0.056146
  20 C :   -0.182278
  21 H :    0.036060
  22 C :   -0.033005
  23 H :    0.044070
  24 H :    0.023899
  25 C :   -0.045847
  26 H :    0.023202
  27 H :    0.025397
  28 C :   -0.070269
  29 H :    0.019262
  30 H :    0.034298
  31 H :    0.031626
  32 H :    0.031214
  33 H :    0.029688

  Mayer bond orders larger than 0.100000
B(  0-S ,  1-C ) :   1.1562 B(  0-S ,  4-C ) :   1.1546 B(  1-C ,  2-C ) :   1.5670
B(  1-C ,  4-C ) :   0.1072 B(  1-C , 32-H ) :   0.9649 B(  2-C ,  3-C ) :   1.2769
B(  2-C ,  6-C ) :   1.0120 B(  3-C ,  4-C ) :   1.5589 B(  3-C ,  5-H ) :   0.9877
B(  4-C , 20-C ) :   1.0496 B(  6-C ,  7-H ) :   0.9434 B(  6-C ,  8-H ) :   0.9408
B(  6-C ,  9-C ) :   1.0692 B(  9-C , 10-H ) :   0.9539 B(  9-C , 11-H ) :   0.9545
B(  9-C , 12-C ) :   1.0689 B( 12-C , 13-H ) :   0.9771 B( 12-C , 14-H ) :   0.9752
B( 12-C , 15-H ) :   0.9736 B( 16-S , 17-C ) :   1.1420 B( 16-S , 20-C ) :   1.1183
B( 17-C , 18-C ) :   1.6220 B( 17-C , 20-C ) :   0.1007 B( 17-C , 33-H ) :   0.9671
B( 18-C , 19-C ) :   1.2446 B( 18-C , 21-H ) :   0.9750 B( 19-C , 20-C ) :   1.6010
B( 19-C , 22-C ) :   1.0185 B( 22-C , 23-H ) :   0.9251 B( 22-C , 24-H ) :   0.9407
B( 22-C , 25-C ) :   1.0920 B( 25-C , 26-H ) :   0.9554 B( 25-C , 27-H ) :   0.9530
B( 25-C , 28-C ) :   1.0521 B( 28-C , 29-H ) :   0.9738 B( 28-C , 30-H ) :   0.9794
B( 28-C , 31-H ) :   0.9781

Dispersion correction           -0.014496565
FINAL SINGLE POINT ENERGY     -1339.874802076594

DIPOLE MOMENT
-------------
                                X             Y             Z
Electronic contribution:     24.60956     -10.90898       4.91100
Nuclear contribution   :    -25.29579      11.28373      -5.10321
                        -----------------------------------------
Total Dipole Moment    :     -0.68622       0.37475      -0.19221
                        -----------------------------------------
Magnitude (a.u.)       :      0.80516
Magnitude (Debye)      :      2.04656

Rotational constants in cm-1:     0.019796     0.008343     0.006378
Rotational constants in MHz :   593.483550   250.106507   191.193821

                             ****ORCA TERMINATED NORMALLY****
TOTAL RUN TIME: 0 days 0 hours 0 minutes 34 seconds 425 msec
