                         Program Version 4.2.1 -  RELEASE  -
|  1> ! wB97X-D3 SP def2-SVP
|  2> %pal
|  3> nprocs 16
|  4> end
|  5>
|  6> * xyz 0 1
|  7> S 	 -89.6747 	 41.3872 	 114.117
|  8> C 	 -89.0106 	 42.2518 	 112.725
|  9> C 	 -89.948 	 43.1746 	 112.262
| 10> C 	 -91.2589 	 43.041 	 112.876
| 11> C 	 -91.3115 	 41.9616 	 113.794
| 12> H 	 -92.1826 	 43.4905 	 112.548
| 13> C 	 -89.7811 	 44.0455 	 111.01
| 14> H 	 -90.8488 	 44.1429 	 110.73
| 15> H 	 -89.2131 	 43.4725 	 110.286
| 16> C 	 -89.1525 	 45.4571 	 111.249
| 17> H 	 -88.2124 	 45.3542 	 111.728
| 18> H 	 -89.0156 	 46.0418 	 110.314
| 19> C 	 -90.0384 	 46.31 	 112.165
| 20> H 	 -89.5688 	 47.3045 	 112.446
| 21> H 	 -91.0286 	 46.4627 	 111.642
| 22> H 	 -90.3603 	 45.8417 	 113.125
| 23> S 	 -93.5451 	 40.638 	 113.763
| 24> C 	 -94.6685 	 40.6643 	 115.072
| 25> C 	 -94.0978 	 41.3327 	 116.188
| 26> C 	 -92.803 	 41.8323 	 115.938
| 27> C 	 -92.4029 	 41.5794 	 114.679
| 28> H 	 -94.6016 	 41.4031 	 117.056
| 29> C 	 -91.9021 	 42.5186 	 116.941
| 30> H 	 -90.7475 	 42.3664 	 116.687
| 31> H 	 -92.1537 	 42.1371 	 117.898
| 32> C 	 -92.0789 	 43.9963 	 116.93
| 33> H 	 -93.1461 	 44.2408 	 116.606
| 34> H 	 -91.319 	 44.3583 	 116.182
| 35> C 	 -91.7478 	 44.6542 	 118.283
| 36> H 	 -92.0427 	 45.7728 	 118.284
| 37> H 	 -90.7576 	 44.5414 	 118.593
| 38> H 	 -92.2557 	 44.1758 	 119.142
| 39> H 	 -87.9523 	 42.0468 	 112.442
| 40> H 	 -95.6489 	 40.1676 	 115.083
| 41> *
| 42>
| 43>                          ****END OF INPUT****

CARTESIAN COORDINATES (ANGSTROEM)
---------------------------------
  S    -89.674700   41.387200  114.117000
  C    -89.010600   42.251800  112.725000
  C    -89.948000   43.174600  112.262000
  C    -91.258900   43.041000  112.876000
  C    -91.311500   41.961600  113.794000
  H    -92.182600   43.490500  112.548000
  C    -89.781100   44.045500  111.010000
  H    -90.848800   44.142900  110.730000
  H    -89.213100   43.472500  110.286000
  C    -89.152500   45.457100  111.249000
  H    -88.212400   45.354200  111.728000
  H    -89.015600   46.041800  110.314000
  C    -90.038400   46.310000  112.165000
  H    -89.568800   47.304500  112.446000
  H    -91.028600   46.462700  111.642000
  H    -90.360300   45.841700  113.125000
  S    -93.545100   40.638000  113.763000
  C    -94.668500   40.664300  115.072000
  C    -94.097800   41.332700  116.188000
  C    -92.803000   41.832300  115.938000
  C    -92.402900   41.579400  114.679000
  H    -94.601600   41.403100  117.056000
  C    -91.902100   42.518600  116.941000
  H    -90.747500   42.366400  116.687000
  H    -92.153700   42.137100  117.898000
  C    -92.078900   43.996300  116.930000
  H    -93.146100   44.240800  116.606000
  H    -91.319000   44.358300  116.182000
  C    -91.747800   44.654200  118.283000
  H    -92.042700   45.772800  118.284000
  H    -90.757600   44.541400  118.593000
  H    -92.255700   44.175800  119.142000
  H    -87.952300   42.046800  112.442000
  H    -95.648900   40.167600  115.083000

 Total Charge           Charge          ....    0
 Multiplicity           Mult            ....    1
 Number of Electrons    NEL             ....  134
 Basis Dimension        Dim             ....  322

ORBITAL ENERGIES
----------------

  NO   OCC          E(Eh)            E(eV)
   0   2.0000     -88.964652     -2420.8512
   1   2.0000     -88.964032     -2420.8344
   2   2.0000     -10.334195      -281.2077
   3   2.0000     -10.323517      -280.9172
   4   2.0000     -10.320205      -280.8270
   5   2.0000     -10.317974      -280.7664
   6   2.0000     -10.309541      -280.5369
   7   2.0000     -10.303360      -280.3687
   8   2.0000     -10.298283      -280.2305
   9   2.0000     -10.296723      -280.1881
  10   2.0000     -10.291961      -280.0585
  11   2.0000     -10.289475      -279.9908
  12   2.0000     -10.289032      -279.9788
  13   2.0000     -10.288142      -279.9546
  14   2.0000     -10.284921      -279.8669
  15   2.0000     -10.279272      -279.7132
  16   2.0000      -8.079443      -219.8528
  17   2.0000      -8.078839      -219.8364
  18   2.0000      -6.037832      -164.2978
  19   2.0000      -6.037294      -164.2831
  20   2.0000      -6.033627      -164.1833
  21   2.0000      -6.033331      -164.1753
  22   2.0000      -6.030517      -164.0987
  23   2.0000      -6.029790      -164.0789
  24   2.0000      -1.009911       -27.4811
  25   2.0000      -0.981401       -26.7053
  26   2.0000      -0.914330       -24.8802
  27   2.0000      -0.907061       -24.6824
  28   2.0000      -0.867373       -23.6024
  29   2.0000      -0.852034       -23.1850
  30   2.0000      -0.842639       -22.9294
  31   2.0000      -0.809541       -22.0287
  32   2.0000      -0.780084       -21.2272
  33   2.0000      -0.767595       -20.8873
  34   2.0000      -0.701282       -19.0829
  35   2.0000      -0.698847       -19.0166
  36   2.0000      -0.684778       -18.6338
  37   2.0000      -0.675510       -18.3816
  38   2.0000      -0.645171       -17.5560
  39   2.0000      -0.610224       -16.6050
  40   2.0000      -0.595410       -16.2019
  41   2.0000      -0.569115       -15.4864
  42   2.0000      -0.565582       -15.3903
  43   2.0000      -0.547230       -14.8909
  44   2.0000      -0.539942       -14.6926
  45   2.0000      -0.521631       -14.1943
  46   2.0000      -0.517682       -14.0868
  47   2.0000      -0.516128       -14.0445
  48   2.0000      -0.510555       -13.8929
  49   2.0000      -0.494622       -13.4593
  50   2.0000      -0.485714       -13.2169
  51   2.0000      -0.479213       -13.0401
  52   2.0000      -0.465621       -12.6702
  53   2.0000      -0.464155       -12.6303
  54   2.0000      -0.454132       -12.3575
  55   2.0000      -0.446750       -12.1567
  56   2.0000      -0.436685       -11.8828
  57   2.0000      -0.433963       -11.8087
  58   2.0000      -0.430441       -11.7129
  59   2.0000      -0.428722       -11.6661
  60   2.0000      -0.418222       -11.3804
  61   2.0000      -0.413486       -11.2515
  62   2.0000      -0.408114       -11.1053
  63   2.0000      -0.336702        -9.1621
  64   2.0000      -0.329085        -8.9549
  65   2.0000      -0.326636        -8.8882
  66   2.0000      -0.303764        -8.2658
  67   0.0000       0.035254         0.9593
  68   0.0000       0.054887         1.4936
  69   0.0000       0.107765         2.9324
  70   0.0000       0.115648         3.1469
  71   0.0000       0.120138         3.2691

MULLIKEN ATOMIC CHARGES
-----------------------
   0 S :    0.093826
   1 C :   -0.143217
   2 C :   -0.088003
   3 C :    0.064068
   4 C :   -0.165740
   5 H :    0.021730
   6 C :    0.047301
   7 H :    0.027007
   8 H :    0.036596
   9 C :   -0.023718
  10 H :    0.023428
  11 H :    0.042375
  12 C :   -0.121797
  13 H :    0.047912
  14 H :    0.028628
  15 H :    0.045177
  16 S :    0.116413
  17 C :   -0.098440
  18 C :   -0.019139
  19 C :    0.010914
  20 C :   -0.209777
  21 H :   -0.031706
  22 C :    0.071869
  23 H :    0.050580
  24 H :    0.004135
  25 C :   -0.099482
  26 H :    0.045829
  27 H :    0.049029
  28 C :   -0.057737
  29 H :    0.051308
  30 H :    0.017225
  31 H :    0.021982
  32 H :    0.073804
  33 H :    0.067620
Sum of atomic charges:    0.0000000

LOEWDIN ATOMIC CHARGES
----------------------
   0 S :    0.394464
   1 C :   -0.194878
   2 C :   -0.064754
   3 C :   -0.058387
   4 C :   -0.199394
   5 H :    0.031680
   6 C :   -0.027441
   7 H :    0.032614
   8 H :    0.031022
   9 C :   -0.039041
  10 H :    0.018048
  11 H :    0.030520
  12 C :   -0.080815
  13 H :    0.031886
  14 H :    0.025870
  15 H :    0.026466
  16 S :    0.433302
  17 C :   -0.195677
  18 C :   -0.058057
  19 C :   -0.057202
  20 C :   -0.204923
  21 H :    0.009873
  22 C :   -0.034393
  23 H :    0.041665
  24 H :    0.019306
  25 C :   -0.050515
  26 H :    0.030008
  27 H :    0.034083
  28 C :   -0.073518
  29 H :    0.038084
  30 H :    0.015260
  31 H :    0.023388
  32 H :    0.037383
  33 H :    0.034074

  Mayer bond orders larger than 0.100000
B(  0-S ,  1-C ) :   1.1434 B(  0-S ,  4-C ) :   1.1582 B(  1-C ,  2-C ) :   1.5910
B(  1-C ,  4-C ) :   0.1057 B(  1-C , 32-H ) :   0.9709 B(  2-C ,  3-C ) :   1.2366
B(  2-C ,  6-C ) :   0.9992 B(  3-C ,  4-C ) :   1.5769 B(  3-C ,  5-H ) :   0.9850
B(  4-C , 20-C ) :   0.9814 B(  6-C ,  7-H ) :   0.9508 B(  6-C ,  8-H ) :   0.9502
B(  6-C ,  9-C ) :   1.0590 B(  9-C , 10-H ) :   0.9570 B(  9-C , 11-H ) :   0.9579
B(  9-C , 12-C ) :   1.0699 B( 12-C , 13-H ) :   0.9734 B( 12-C , 14-H ) :   0.9749
B( 12-C , 15-H ) :   0.9745 B( 16-S , 17-C ) :   1.1754 B( 16-S , 20-C ) :   1.1621
B( 17-C , 18-C ) :   1.5689 B( 17-C , 20-C ) :   0.1066 B( 17-C , 33-H ) :   0.9680
B( 18-C , 19-C ) :   1.2396 B( 18-C , 21-H ) :   1.0116 B( 19-C , 20-C ) :   1.6204
B( 19-C , 22-C ) :   1.0353 B( 22-C , 23-H ) :   0.9379 B( 22-C , 24-H ) :   0.9314
B( 22-C , 25-C ) :   1.0484 B( 25-C , 26-H ) :   0.9615 B( 25-C , 27-H ) :   0.9525
B( 25-C , 28-C ) :   1.0776 B( 28-C , 29-H ) :   0.9750 B( 28-C , 30-H ) :   0.9713
B( 28-C , 31-H ) :   0.9745

Dispersion correction           -0.014805281
FINAL SINGLE POINT ENERGY     -1339.860434873337

DIPOLE MOMENT
-------------
                                X             Y             Z
Electronic contribution:     -4.98034     -24.47220      -4.57137
Nuclear contribution   :      5.01027      24.83526       4.59569
                        -----------------------------------------
Total Dipole Moment    :      0.02992       0.36306       0.02432
                        -----------------------------------------
Magnitude (a.u.)       :      0.36510
Magnitude (Debye)      :      0.92801

Rotational constants in cm-1:     0.017612     0.009075     0.007481
Rotational constants in MHz :   527.991212   272.068981   224.265185

                             ****ORCA TERMINATED NORMALLY****
TOTAL RUN TIME: 0 days 0 hours 0 minutes 34 seconds 414 msec
