                         Program Version 4.2.1 -  RELEASE  -
|  1> ! wB97X-D3 SP def2-SVP
|  2> %pal
|  3> nprocs 16
|  4> end
|  5>
|  6> * xyz 0 1
|  7> S 	 -55.3844 	 52.579 	 136.156
|  8> C 	 -55.3029 	 54.3053 	 135.89
|  9> C 	 -56.5573 	 54.9365 	 135.894
| 10> C 	 -57.4765 	 54.0747 	 136.528
| 11> C 	 -56.9546 	 52.8274 	 136.88
| 12> H 	 -58.5089 	 54.2997 	 136.82
| 13> C 	 -56.8573 	 56.313 	 135.421
| 14> H 	 -57.8835 	 56.2564 	 135.015
| 15> H 	 -56.2353 	 56.5019 	 134.531
| 16> C 	 -56.6291 	 57.5663 	 136.255
| 17> H 	 -57.4749 	 57.5209 	 137.053
| 18> H 	 -55.713 	 57.4844 	 136.936
| 19> C 	 -56.7937 	 58.9489 	 135.415
| 20> H 	 -56.9322 	 59.867 	 136.047
| 21> H 	 -55.9042 	 59.0517 	 134.684
| 22> H 	 -57.7262 	 58.7876 	 134.826
| 23> S 	 -56.318 	 51.9652 	 139.403
| 24> C 	 -57.2663 	 50.7744 	 140.242
| 25> C 	 -58.3995 	 50.4929 	 139.505
| 26> C 	 -58.4769 	 51.1165 	 138.247
| 27> C 	 -57.3686 	 51.9155 	 137.952
| 28> H 	 -59.1947 	 49.8803 	 139.898
| 29> C 	 -59.7698 	 51.049 	 137.428
| 30> H 	 -59.8564 	 49.9893 	 137.162
| 31> H 	 -59.595 	 51.565 	 136.566
| 32> C 	 -61.1198 	 51.5357 	 138.084
| 33> H 	 -61.0233 	 52.5625 	 138.42
| 34> H 	 -61.249 	 51.0124 	 138.99
| 35> C 	 -62.2394 	 51.2746 	 137.085
| 36> H 	 -62.0809 	 51.5403 	 136.035
| 37> H 	 -63.1403 	 51.826 	 137.279
| 38> H 	 -62.6799 	 50.2902 	 137.233
| 39> H 	 -54.4003 	 54.7965 	 135.623
| 40> H 	 -57.0476 	 50.4772 	 141.296
| 41> *
| 42>
| 43>                          ****END OF INPUT****

CARTESIAN COORDINATES (ANGSTROEM)
---------------------------------
  S    -55.384400   52.579000  136.156000
  C    -55.302900   54.305300  135.890000
  C    -56.557300   54.936500  135.894000
  C    -57.476500   54.074700  136.528000
  C    -56.954600   52.827400  136.880000
  H    -58.508900   54.299700  136.820000
  C    -56.857300   56.313000  135.421000
  H    -57.883500   56.256400  135.015000
  H    -56.235300   56.501900  134.531000
  C    -56.629100   57.566300  136.255000
  H    -57.474900   57.520900  137.053000
  H    -55.713000   57.484400  136.936000
  C    -56.793700   58.948900  135.415000
  H    -56.932200   59.867000  136.047000
  H    -55.904200   59.051700  134.684000
  H    -57.726200   58.787600  134.826000
  S    -56.318000   51.965200  139.403000
  C    -57.266300   50.774400  140.242000
  C    -58.399500   50.492900  139.505000
  C    -58.476900   51.116500  138.247000
  C    -57.368600   51.915500  137.952000
  H    -59.194700   49.880300  139.898000
  C    -59.769800   51.049000  137.428000
  H    -59.856400   49.989300  137.162000
  H    -59.595000   51.565000  136.566000
  C    -61.119800   51.535700  138.084000
  H    -61.023300   52.562500  138.420000
  H    -61.249000   51.012400  138.990000
  C    -62.239400   51.274600  137.085000
  H    -62.080900   51.540300  136.035000
  H    -63.140300   51.826000  137.279000
  H    -62.679900   50.290200  137.233000
  H    -54.400300   54.796500  135.623000
  H    -57.047600   50.477200  141.296000

 Total Charge           Charge          ....    0
 Multiplicity           Mult            ....    1
 Number of Electrons    NEL             ....  134
 Basis Dimension        Dim             ....  322

ORBITAL ENERGIES
----------------

  NO   OCC          E(Eh)            E(eV)
   0   2.0000     -88.966048     -2420.8892
   1   2.0000     -88.959095     -2420.7001
   2   2.0000     -10.327161      -281.0163
   3   2.0000     -10.326021      -280.9853
   4   2.0000     -10.319282      -280.8019
   5   2.0000     -10.313100      -280.6337
   6   2.0000     -10.306457      -280.4530
   7   2.0000     -10.303156      -280.3631
   8   2.0000     -10.302931      -280.3570
   9   2.0000     -10.299879      -280.2740
  10   2.0000     -10.297323      -280.2044
  11   2.0000     -10.295175      -280.1459
  12   2.0000     -10.288566      -279.9661
  13   2.0000     -10.288054      -279.9522
  14   2.0000     -10.284218      -279.8478
  15   2.0000     -10.277946      -279.6771
  16   2.0000      -8.081094      -219.8978
  17   2.0000      -8.073587      -219.6935
  18   2.0000      -6.039343      -164.3389
  19   2.0000      -6.035856      -164.2440
  20   2.0000      -6.032053      -164.1405
  21   2.0000      -6.031806      -164.1338
  22   2.0000      -6.028054      -164.0317
  23   2.0000      -6.024453      -163.9337
  24   2.0000      -1.004157       -27.3245
  25   2.0000      -0.982074       -26.7236
  26   2.0000      -0.908905       -24.7326
  27   2.0000      -0.905363       -24.6362
  28   2.0000      -0.860782       -23.4231
  29   2.0000      -0.850703       -23.1488
  30   2.0000      -0.845020       -22.9942
  31   2.0000      -0.807816       -21.9818
  32   2.0000      -0.780965       -21.2511
  33   2.0000      -0.768971       -20.9248
  34   2.0000      -0.713715       -19.4212
  35   2.0000      -0.698827       -19.0161
  36   2.0000      -0.694735       -18.9047
  37   2.0000      -0.656771       -17.8716
  38   2.0000      -0.642692       -17.4885
  39   2.0000      -0.617135       -16.7931
  40   2.0000      -0.596447       -16.2301
  41   2.0000      -0.568142       -15.4599
  42   2.0000      -0.563584       -15.3359
  43   2.0000      -0.549469       -14.9518
  44   2.0000      -0.525507       -14.2998
  45   2.0000      -0.522380       -14.2147
  46   2.0000      -0.513681       -13.9780
  47   2.0000      -0.506212       -13.7747
  48   2.0000      -0.500821       -13.6280
  49   2.0000      -0.495907       -13.4943
  50   2.0000      -0.487359       -13.2617
  51   2.0000      -0.482711       -13.1352
  52   2.0000      -0.470705       -12.8085
  53   2.0000      -0.464208       -12.6317
  54   2.0000      -0.455931       -12.4065
  55   2.0000      -0.449530       -12.2323
  56   2.0000      -0.445218       -12.1150
  57   2.0000      -0.444429       -12.0935
  58   2.0000      -0.432827       -11.7778
  59   2.0000      -0.427420       -11.6307
  60   2.0000      -0.423485       -11.5236
  61   2.0000      -0.414033       -11.2664
  62   2.0000      -0.404194       -10.9987
  63   2.0000      -0.341026        -9.2798
  64   2.0000      -0.323634        -8.8065
  65   2.0000      -0.319573        -8.6960
  66   2.0000      -0.292802        -7.9676
  67   0.0000       0.024991         0.6800
  68   0.0000       0.059641         1.6229
  69   0.0000       0.096191         2.6175
  70   0.0000       0.118175         3.2157
  71   0.0000       0.137612         3.7446

MULLIKEN ATOMIC CHARGES
-----------------------
   0 S :    0.129250
   1 C :   -0.122227
   2 C :   -0.069940
   3 C :    0.053536
   4 C :   -0.198879
   5 H :    0.014731
   6 C :    0.052221
   7 H :    0.031054
   8 H :    0.020865
   9 C :   -0.103621
  10 H :    0.031276
  11 H :    0.047661
  12 C :   -0.097870
  13 H :    0.060545
  14 H :    0.057311
  15 H :    0.043474
  16 S :    0.098266
  17 C :   -0.105253
  18 C :   -0.040522
  19 C :   -0.023553
  20 C :   -0.164019
  21 H :    0.012974
  22 C :    0.086011
  23 H :    0.030224
  24 H :   -0.007025
  25 C :   -0.030476
  26 H :    0.029980
  27 H :    0.010818
  28 C :   -0.043745
  29 H :    0.040177
  30 H :    0.012175
  31 H :    0.032310
  32 H :    0.033942
  33 H :    0.078329
Sum of atomic charges:   -0.0000000

LOEWDIN ATOMIC CHARGES
----------------------
   0 S :    0.413126
   1 C :   -0.178087
   2 C :   -0.067807
   3 C :   -0.050140
   4 C :   -0.209295
   5 H :    0.033626
   6 C :   -0.047483
   7 H :    0.036742
   8 H :    0.031992
   9 C :   -0.054949
  10 H :    0.026951
  11 H :    0.030829
  12 C :   -0.076653
  13 H :    0.035074
  14 H :    0.034846
  15 H :    0.029791
  16 S :    0.398481
  17 C :   -0.191311
  18 C :   -0.080185
  19 C :   -0.057007
  20 C :   -0.196043
  21 H :    0.027779
  22 C :   -0.020031
  23 H :    0.035047
  24 H :    0.011728
  25 C :   -0.028556
  26 H :    0.024144
  27 H :    0.017557
  28 C :   -0.073221
  29 H :    0.030416
  30 H :    0.025189
  31 H :    0.031301
  32 H :    0.016032
  33 H :    0.040115

  Mayer bond orders larger than 0.100000
B(  0-S ,  1-C ) :   1.1652 B(  0-S ,  4-C ) :   1.1556 B(  1-C ,  2-C ) :   1.5661
B(  1-C , 32-H ) :   0.9762 B(  2-C ,  3-C ) :   1.2489 B(  2-C ,  6-C ) :   1.0323
B(  3-C ,  4-C ) :   1.5655 B(  3-C ,  5-H ) :   0.9933 B(  4-C , 20-C ) :   1.0155
B(  6-C ,  7-H ) :   0.9329 B(  6-C ,  8-H ) :   0.9366 B(  6-C ,  9-C ) :   1.0511
B(  9-C , 10-H ) :   0.9552 B(  9-C , 11-H ) :   0.9597 B(  9-C , 12-C ) :   1.0454
B( 12-C , 13-H ) :   0.9762 B( 12-C , 14-H ) :   0.9757 B( 12-C , 15-H ) :   0.9754
B( 16-S , 17-C ) :   1.1724 B( 16-S , 20-C ) :   1.1416 B( 17-C , 18-C ) :   1.5691
B( 17-C , 20-C ) :   0.1048 B( 17-C , 33-H ) :   0.9636 B( 18-C , 19-C ) :   1.2639
B( 18-C , 21-H ) :   0.9928 B( 19-C , 20-C ) :   1.5818 B( 19-C , 22-C ) :   1.0412
B( 22-C , 23-H ) :   0.9332 B( 22-C , 24-H ) :   0.9338 B( 22-C , 25-C ) :   1.0571
B( 25-C , 26-H ) :   0.9586 B( 25-C , 27-H ) :   0.9522 B( 25-C , 28-C ) :   1.0810
B( 28-C , 29-H ) :   0.9765 B( 28-C , 30-H ) :   0.9680 B( 28-C , 31-H ) :   0.9725

Dispersion correction           -0.013414933
FINAL SINGLE POINT ENERGY     -1339.846222584383

DIPOLE MOMENT
-------------
                                X             Y             Z
Electronic contribution:     20.41269     -15.79842       7.06659
Nuclear contribution   :    -21.02743      16.19295      -7.06577
                        -----------------------------------------
Total Dipole Moment    :     -0.61474       0.39453       0.00081
                        -----------------------------------------
Magnitude (a.u.)       :      0.73045
Magnitude (Debye)      :      1.85666

Rotational constants in cm-1:     0.017602     0.007548     0.006151
Rotational constants in MHz :   527.689760   226.269043   184.392727

                             ****ORCA TERMINATED NORMALLY****
TOTAL RUN TIME: 0 days 0 hours 0 minutes 32 seconds 710 msec
