                         Program Version 4.2.1 -  RELEASE  -
|  1> ! wB97X-D3 SP def2-SVP
|  2> %pal
|  3> nprocs 16
|  4> end
|  5>
|  6> * xyz 0 1
|  7> S 	 -11.3714 	 58.436 	 54.6419
|  8> C 	 -10.2253 	 57.3237 	 53.8933
|  9> C 	 -8.93319 	 57.7041 	 54.0964
| 10> C 	 -8.90136 	 58.8831 	 54.9491
| 11> C 	 -10.1295 	 59.4147 	 55.306
| 12> H 	 -8.04476 	 59.4525 	 55.2595
| 13> C 	 -7.6891 	 56.941 	 53.6168
| 14> H 	 -7.2116 	 57.426 	 52.7627
| 15> H 	 -8.1316 	 55.9931 	 53.286
| 16> C 	 -6.64468 	 56.7902 	 54.7736
| 17> H 	 -5.762 	 56.3192 	 54.3293
| 18> H 	 -6.12574 	 57.6778 	 54.9607
| 19> C 	 -7.15141 	 56.029 	 56.0342
| 20> H 	 -7.99544 	 56.6106 	 56.2768
| 21> H 	 -7.55471 	 55.012 	 55.7992
| 22> H 	 -6.33705 	 56.0797 	 56.8135
| 23> S 	 -9.45435 	 60.788 	 57.5981
| 24> C 	 -10.2358 	 62.3215 	 57.9364
| 25> C 	 -11.092 	 62.6175 	 56.9396
| 26> C 	 -11.1679 	 61.7433 	 55.867
| 27> C 	 -10.355 	 60.6583 	 56.0891
| 28> H 	 -11.6658 	 63.5065 	 56.938
| 29> C 	 -12.0571 	 62.0013 	 54.6184
| 30> H 	 -13.0051 	 62.471 	 54.9675
| 31> H 	 -12.5305 	 61.0749 	 54.3214
| 32> C 	 -11.5029 	 62.7557 	 53.457
| 33> H 	 -11.1158 	 63.6031 	 53.8731
| 34> H 	 -12.2644 	 63.1895 	 52.8557
| 35> C 	 -10.4414 	 61.9878 	 52.6564
| 36> H 	 -10.6908 	 61.8223 	 51.5967
| 37> H 	 -10.4173 	 60.916 	 53.0618
| 38> H 	 -9.46702 	 62.4398 	 52.821
| 39> H 	 -10.5842 	 56.4412 	 53.3853
| 40> H 	 -10.1235 	 62.8386 	 58.8896
| 41> *
| 42>
| 43>                          ****END OF INPUT****

CARTESIAN COORDINATES (ANGSTROEM)
---------------------------------
  S    -11.371400   58.436000   54.641900
  C    -10.225300   57.323700   53.893300
  C     -8.933190   57.704100   54.096400
  C     -8.901360   58.883100   54.949100
  C    -10.129500   59.414700   55.306000
  H     -8.044760   59.452500   55.259500
  C     -7.689100   56.941000   53.616800
  H     -7.211600   57.426000   52.762700
  H     -8.131600   55.993100   53.286000
  C     -6.644680   56.790200   54.773600
  H     -5.762000   56.319200   54.329300
  H     -6.125740   57.677800   54.960700
  C     -7.151410   56.029000   56.034200
  H     -7.995440   56.610600   56.276800
  H     -7.554710   55.012000   55.799200
  H     -6.337050   56.079700   56.813500
  S     -9.454350   60.788000   57.598100
  C    -10.235800   62.321500   57.936400
  C    -11.092000   62.617500   56.939600
  C    -11.167900   61.743300   55.867000
  C    -10.355000   60.658300   56.089100
  H    -11.665800   63.506500   56.938000
  C    -12.057100   62.001300   54.618400
  H    -13.005100   62.471000   54.967500
  H    -12.530500   61.074900   54.321400
  C    -11.502900   62.755700   53.457000
  H    -11.115800   63.603100   53.873100
  H    -12.264400   63.189500   52.855700
  C    -10.441400   61.987800   52.656400
  H    -10.690800   61.822300   51.596700
  H    -10.417300   60.916000   53.061800
  H     -9.467020   62.439800   52.821000
  H    -10.584200   56.441200   53.385300
  H    -10.123500   62.838600   58.889600

 Total Charge           Charge          ....    0
 Multiplicity           Mult            ....    1
 Number of Electrons    NEL             ....  134
 Basis Dimension        Dim             ....  322

ORBITAL ENERGIES
----------------

  NO   OCC          E(Eh)            E(eV)
   0   2.0000     -88.966280     -2420.8956
   1   2.0000     -88.964769     -2420.8544
   2   2.0000     -10.330007      -281.0938
   3   2.0000     -10.328699      -281.0582
   4   2.0000     -10.315222      -280.6915
   5   2.0000     -10.313916      -280.6559
   6   2.0000     -10.304010      -280.3864
   7   2.0000     -10.299804      -280.2719
   8   2.0000     -10.299179      -280.2549
   9   2.0000     -10.291667      -280.0505
  10   2.0000     -10.290602      -280.0215
  11   2.0000     -10.284347      -279.8513
  12   2.0000     -10.284081      -279.8441
  13   2.0000     -10.280168      -279.7376
  14   2.0000     -10.273897      -279.5669
  15   2.0000     -10.270009      -279.4612
  16   2.0000      -8.080885      -219.8920
  17   2.0000      -8.079538      -219.8554
  18   2.0000      -6.039349      -164.3390
  19   2.0000      -6.038046      -164.3036
  20   2.0000      -6.035423      -164.2322
  21   2.0000      -6.033964      -164.1925
  22   2.0000      -6.031689      -164.1306
  23   2.0000      -6.030369      -164.0947
  24   2.0000      -1.009862       -27.4797
  25   2.0000      -0.988976       -26.9114
  26   2.0000      -0.910918       -24.7873
  27   2.0000      -0.907881       -24.7047
  28   2.0000      -0.869019       -23.6472
  29   2.0000      -0.850571       -23.1452
  30   2.0000      -0.838484       -22.8163
  31   2.0000      -0.813687       -22.1415
  32   2.0000      -0.783100       -21.3092
  33   2.0000      -0.775383       -21.0992
  34   2.0000      -0.711700       -19.3663
  35   2.0000      -0.704755       -19.1774
  36   2.0000      -0.691316       -18.8117
  37   2.0000      -0.668295       -18.1852
  38   2.0000      -0.639520       -17.4022
  39   2.0000      -0.615363       -16.7449
  40   2.0000      -0.602708       -16.4005
  41   2.0000      -0.563736       -15.3400
  42   2.0000      -0.554508       -15.0889
  43   2.0000      -0.552008       -15.0209
  44   2.0000      -0.539576       -14.6826
  45   2.0000      -0.531710       -14.4686
  46   2.0000      -0.516804       -14.0629
  47   2.0000      -0.508836       -13.8461
  48   2.0000      -0.503475       -13.7003
  49   2.0000      -0.494590       -13.4585
  50   2.0000      -0.486716       -13.2442
  51   2.0000      -0.480313       -13.0700
  52   2.0000      -0.477007       -12.9800
  53   2.0000      -0.467428       -12.7194
  54   2.0000      -0.456054       -12.4099
  55   2.0000      -0.446023       -12.1369
  56   2.0000      -0.439464       -11.9584
  57   2.0000      -0.434781       -11.8310
  58   2.0000      -0.432367       -11.7653
  59   2.0000      -0.423915       -11.5353
  60   2.0000      -0.414578       -11.2812
  61   2.0000      -0.413770       -11.2593
  62   2.0000      -0.402924       -10.9641
  63   2.0000      -0.350607        -9.5405
  64   2.0000      -0.338074        -9.1995
  65   2.0000      -0.328664        -8.9434
  66   2.0000      -0.295741        -8.0475
  67   0.0000       0.033031         0.8988
  68   0.0000       0.075771         2.0618
  69   0.0000       0.109541         2.9808
  70   0.0000       0.124763         3.3950
  71   0.0000       0.132930         3.6172

MULLIKEN ATOMIC CHARGES
-----------------------
   0 S :    0.104844
   1 C :   -0.147132
   2 C :   -0.085563
   3 C :    0.008805
   4 C :   -0.152159
   5 H :    0.002751
   6 C :    0.101473
   7 H :    0.045107
   8 H :    0.016116
   9 C :   -0.088344
  10 H :    0.010239
  11 H :    0.012276
  12 C :   -0.030615
  13 H :    0.035165
  14 H :    0.040081
  15 H :    0.051809
  16 S :    0.104976
  17 C :   -0.090077
  18 C :   -0.011415
  19 C :   -0.021344
  20 C :   -0.168600
  21 H :   -0.003387
  22 C :    0.029311
  23 H :    0.013155
  24 H :    0.011835
  25 C :    0.042393
  26 H :   -0.011719
  27 H :    0.013928
  28 C :   -0.073726
  29 H :    0.039796
  30 H :    0.045422
  31 H :    0.042484
  32 H :    0.048796
  33 H :    0.063318
Sum of atomic charges:    0.0000000

LOEWDIN ATOMIC CHARGES
----------------------
   0 S :    0.414846
   1 C :   -0.192232
   2 C :   -0.065463
   3 C :   -0.072960
   4 C :   -0.205374
   5 H :    0.023102
   6 C :   -0.021923
   7 H :    0.036361
   8 H :    0.029768
   9 C :   -0.047362
  10 H :    0.022818
  11 H :    0.017083
  12 C :   -0.062266
  13 H :    0.020761
  14 H :    0.031832
  15 H :    0.036678
  16 S :    0.403392
  17 C :   -0.183401
  18 C :   -0.067701
  19 C :   -0.063068
  20 C :   -0.181557
  21 H :    0.025479
  22 C :   -0.033819
  23 H :    0.034738
  24 H :    0.018989
  25 C :   -0.039990
  26 H :    0.013720
  27 H :    0.024945
  28 C :   -0.071270
  29 H :    0.029025
  30 H :    0.036530
  31 H :    0.028150
  32 H :    0.026047
  33 H :    0.034118

  Mayer bond orders larger than 0.100000
B(  0-S ,  1-C ) :   1.1373 B(  0-S ,  4-C ) :   1.1553 B(  1-C ,  2-C ) :   1.6218
B(  1-C , 32-H ) :   0.9688 B(  2-C ,  3-C ) :   1.2120 B(  2-C ,  6-C ) :   1.0090
B(  3-C ,  4-C ) :   1.5908 B(  3-C ,  5-H ) :   0.9950 B(  4-C , 20-C ) :   1.0080
B(  6-C ,  7-H ) :   0.9359 B(  6-C ,  8-H ) :   0.9436 B(  6-C ,  9-C ) :   1.0807
B(  9-C , 10-H ) :   0.9486 B(  9-C , 11-H ) :   0.9481 B(  9-C , 12-C ) :   1.0556
B( 12-C , 13-H ) :   0.9759 B( 12-C , 14-H ) :   0.9742 B( 12-C , 15-H ) :   0.9727
B( 16-S , 17-C ) :   1.1366 B( 16-S , 20-C ) :   1.1630 B( 17-C , 18-C ) :   1.5975
B( 17-C , 20-C ) :   0.1002 B( 17-C , 33-H ) :   0.9693 B( 18-C , 19-C ) :   1.2715
B( 18-C , 21-H ) :   0.9897 B( 19-C , 20-C ) :   1.5873 B( 19-C , 22-C ) :   1.0237
B( 22-C , 23-H ) :   0.9277 B( 22-C , 24-H ) :   0.9329 B( 22-C , 25-C ) :   1.0890
B( 25-C , 26-H ) :   0.9464 B( 25-C , 27-H ) :   0.9466 B( 25-C , 28-C ) :   1.0540
B( 28-C , 29-H ) :   0.9745 B( 28-C , 30-H ) :   0.9838 B( 28-C , 31-H ) :   0.9765

Dispersion correction           -0.015742863
FINAL SINGLE POINT ENERGY     -1339.872510617982

DIPOLE MOMENT
-------------
                                X             Y             Z
Electronic contribution:     -8.41223       2.38188      11.64004
Nuclear contribution   :      8.55036      -2.22507     -11.87073
                        -----------------------------------------
Total Dipole Moment    :      0.13813       0.15681      -0.23069
                        -----------------------------------------
Magnitude (a.u.)       :      0.31127
Magnitude (Debye)      :      0.79120

Rotational constants in cm-1:     0.020421     0.009391     0.007604
Rotational constants in MHz :   612.204182   281.526524   227.973163

                             ****ORCA TERMINATED NORMALLY****
TOTAL RUN TIME: 0 days 0 hours 0 minutes 35 seconds 883 msec
