                         Program Version 4.2.1 -  RELEASE  -
|  1> ! wB97X-D3 SP def2-SVP
|  2> %pal
|  3> nprocs 16
|  4> end
|  5>
|  6> * xyz 0 1
|  7> S 	 51.1091 	 22.5243 	 86.327
|  8> C 	 51.1228 	 23.7463 	 87.6152
|  9> C 	 50.5255 	 23.16 	 88.6955
| 10> C 	 49.8969 	 21.9243 	 88.4477
| 11> C 	 50.1963 	 21.4203 	 87.2027
| 12> H 	 49.2879 	 21.3129 	 89.0402
| 13> C 	 50.6219 	 23.8705 	 90.0292
| 14> H 	 49.9347 	 23.3957 	 90.744
| 15> H 	 50.1592 	 24.9197 	 89.9597
| 16> C 	 51.9587 	 23.9586 	 90.8583
| 17> H 	 52.6902 	 24.6495 	 90.3952
| 18> H 	 51.6505 	 24.4161 	 91.8167
| 19> C 	 52.6825 	 22.6035 	 91.0321
| 20> H 	 52.7561 	 22.0924 	 90.0407
| 21> H 	 53.7778 	 22.7294 	 91.4124
| 22> H 	 52.2602 	 21.8031 	 91.6204
| 23> S 	 48.2095 	 19.5666 	 86.8873
| 24> C 	 48.6904 	 17.8304 	 86.7293
| 25> C 	 50.0293 	 17.6728 	 86.6221
| 26> C 	 50.7083 	 18.9434 	 86.642
| 27> C 	 49.8868 	 20.0964 	 86.7042
| 28> H 	 50.543 	 16.6955 	 86.665
| 29> C 	 52.2382 	 18.9896 	 86.82
| 30> H 	 52.5206 	 17.9943 	 87.2208
| 31> H 	 52.4894 	 19.749 	 87.5523
| 32> C 	 52.9076 	 19.3052 	 85.4922
| 33> H 	 54.0005 	 19.3557 	 85.523
| 34> H 	 52.5676 	 20.3459 	 85.2337
| 35> C 	 52.6673 	 18.2567 	 84.4036
| 36> H 	 53.3877 	 17.399 	 84.5519
| 37> H 	 52.9551 	 18.5558 	 83.3824
| 38> H 	 51.6802 	 17.8882 	 84.4714
| 39> H 	 51.7606 	 24.6493 	 87.7847
| 40> H 	 48.0122 	 17.0681 	 87.0013
| 41> *
| 42>
| 43>                          ****END OF INPUT****

CARTESIAN COORDINATES (ANGSTROEM)
---------------------------------
  S     51.109100   22.524300   86.327000
  C     51.122800   23.746300   87.615200
  C     50.525500   23.160000   88.695500
  C     49.896900   21.924300   88.447700
  C     50.196300   21.420300   87.202700
  H     49.287900   21.312900   89.040200
  C     50.621900   23.870500   90.029200
  H     49.934700   23.395700   90.744000
  H     50.159200   24.919700   89.959700
  C     51.958700   23.958600   90.858300
  H     52.690200   24.649500   90.395200
  H     51.650500   24.416100   91.816700
  C     52.682500   22.603500   91.032100
  H     52.756100   22.092400   90.040700
  H     53.777800   22.729400   91.412400
  H     52.260200   21.803100   91.620400
  S     48.209500   19.566600   86.887300
  C     48.690400   17.830400   86.729300
  C     50.029300   17.672800   86.622100
  C     50.708300   18.943400   86.642000
  C     49.886800   20.096400   86.704200
  H     50.543000   16.695500   86.665000
  C     52.238200   18.989600   86.820000
  H     52.520600   17.994300   87.220800
  H     52.489400   19.749000   87.552300
  C     52.907600   19.305200   85.492200
  H     54.000500   19.355700   85.523000
  H     52.567600   20.345900   85.233700
  C     52.667300   18.256700   84.403600
  H     53.387700   17.399000   84.551900
  H     52.955100   18.555800   83.382400
  H     51.680200   17.888200   84.471400
  H     51.760600   24.649300   87.784700
  H     48.012200   17.068100   87.001300

 Total Charge           Charge          ....    0
 Multiplicity           Mult            ....    1
 Number of Electrons    NEL             ....  134
 Basis Dimension        Dim             ....  322

ORBITAL ENERGIES
----------------

  NO   OCC          E(Eh)            E(eV)
   0   2.0000     -88.968012     -2420.9427
   1   2.0000     -88.967586     -2420.9311
   2   2.0000     -10.332409      -281.1591
   3   2.0000     -10.327573      -281.0276
   4   2.0000     -10.322948      -280.9017
   5   2.0000     -10.315126      -280.6888
   6   2.0000     -10.312223      -280.6098
   7   2.0000     -10.303054      -280.3603
   8   2.0000     -10.300547      -280.2921
   9   2.0000     -10.299560      -280.2653
  10   2.0000     -10.298874      -280.2466
  11   2.0000     -10.293411      -280.0980
  12   2.0000     -10.289704      -279.9971
  13   2.0000     -10.286495      -279.9098
  14   2.0000     -10.284322      -279.8506
  15   2.0000     -10.273635      -279.5598
  16   2.0000      -8.083083      -219.9519
  17   2.0000      -8.081215      -219.9010
  18   2.0000      -6.041579      -164.3997
  19   2.0000      -6.039890      -164.3538
  20   2.0000      -6.037219      -164.2811
  21   2.0000      -6.035898      -164.2451
  22   2.0000      -6.034126      -164.1969
  23   2.0000      -6.031829      -164.1344
  24   2.0000      -1.015841       -27.6425
  25   2.0000      -0.985763       -26.8240
  26   2.0000      -0.908295       -24.7160
  27   2.0000      -0.907631       -24.6979
  28   2.0000      -0.874207       -23.7884
  29   2.0000      -0.849008       -23.1027
  30   2.0000      -0.839139       -22.8341
  31   2.0000      -0.819973       -22.3126
  32   2.0000      -0.782449       -21.2915
  33   2.0000      -0.771055       -20.9815
  34   2.0000      -0.711865       -19.3708
  35   2.0000      -0.701411       -19.0864
  36   2.0000      -0.685925       -18.6650
  37   2.0000      -0.667282       -18.1577
  38   2.0000      -0.641077       -17.4446
  39   2.0000      -0.608475       -16.5574
  40   2.0000      -0.593704       -16.1555
  41   2.0000      -0.579017       -15.7559
  42   2.0000      -0.557130       -15.1603
  43   2.0000      -0.553747       -15.0682
  44   2.0000      -0.541150       -14.7254
  45   2.0000      -0.539035       -14.6679
  46   2.0000      -0.516563       -14.0564
  47   2.0000      -0.507557       -13.8113
  48   2.0000      -0.502591       -13.6762
  49   2.0000      -0.491552       -13.3758
  50   2.0000      -0.489110       -13.3094
  51   2.0000      -0.481225       -13.0948
  52   2.0000      -0.472979       -12.8704
  53   2.0000      -0.467959       -12.7338
  54   2.0000      -0.460134       -12.5209
  55   2.0000      -0.449089       -12.2203
  56   2.0000      -0.437141       -11.8952
  57   2.0000      -0.433884       -11.8066
  58   2.0000      -0.428290       -11.6544
  59   2.0000      -0.427821       -11.6416
  60   2.0000      -0.420473       -11.4417
  61   2.0000      -0.409693       -11.1483
  62   2.0000      -0.400774       -10.9056
  63   2.0000      -0.345587        -9.4039
  64   2.0000      -0.336705        -9.1622
  65   2.0000      -0.331471        -9.0198
  66   2.0000      -0.299553        -8.1513
  67   0.0000       0.023929         0.6512
  68   0.0000       0.063917         1.7393
  69   0.0000       0.098393         2.6774
  70   0.0000       0.119084         3.2404
  71   0.0000       0.125602         3.4178

MULLIKEN ATOMIC CHARGES
-----------------------
   0 S :    0.111090
   1 C :   -0.114778
   2 C :   -0.088857
   3 C :    0.066258
   4 C :   -0.168423
   5 H :   -0.015255
   6 C :   -0.000879
   7 H :    0.017705
   8 H :    0.050168
   9 C :   -0.042768
  10 H :    0.031799
  11 H :    0.039477
  12 C :   -0.105844
  13 H :    0.042746
  14 H :    0.048130
  15 H :    0.032006
  16 S :    0.075381
  17 C :   -0.082617
  18 C :   -0.005286
  19 C :   -0.097442
  20 C :   -0.123551
  21 H :    0.042495
  22 C :    0.080056
  23 H :    0.018427
  24 H :    0.042312
  25 C :   -0.068305
  26 H :    0.026685
  27 H :    0.030545
  28 C :   -0.055470
  29 H :    0.021895
  30 H :    0.037112
  31 H :    0.030859
  32 H :    0.070311
  33 H :    0.054019
Sum of atomic charges:   -0.0000000

LOEWDIN ATOMIC CHARGES
----------------------
   0 S :    0.444474
   1 C :   -0.206153
   2 C :   -0.070874
   3 C :   -0.063939
   4 C :   -0.214201
   5 H :    0.020520
   6 C :   -0.046292
   7 H :    0.028034
   8 H :    0.042311
   9 C :   -0.039560
  10 H :    0.023533
  11 H :    0.029442
  12 C :   -0.085112
  13 H :    0.031186
  14 H :    0.037227
  15 H :    0.020890
  16 S :    0.379484
  17 C :   -0.152797
  18 C :   -0.074248
  19 C :   -0.041317
  20 C :   -0.202979
  21 H :    0.042919
  22 C :   -0.028822
  23 H :    0.027949
  24 H :    0.031908
  25 C :   -0.046843
  26 H :    0.022733
  27 H :    0.016313
  28 C :   -0.067809
  29 H :    0.028441
  30 H :    0.029711
  31 H :    0.015396
  32 H :    0.045770
  33 H :    0.022705

  Mayer bond orders larger than 0.100000
B(  0-S ,  1-C ) :   1.1282 B(  0-S ,  4-C ) :   1.1881 B(  1-C ,  2-C ) :   1.5995
B(  1-C , 32-H ) :   0.9644 B(  2-C ,  3-C ) :   1.2439 B(  2-C ,  6-C ) :   1.0203
B(  3-C ,  4-C ) :   1.5494 B(  3-C ,  5-H ) :   1.0068 B(  4-C , 20-C ) :   1.0106
B(  6-C ,  7-H ) :   0.9448 B(  6-C ,  8-H ) :   0.9438 B(  6-C ,  9-C ) :   1.0640
B(  9-C , 10-H ) :   0.9573 B(  9-C , 11-H ) :   0.9562 B(  9-C , 12-C ) :   1.0603
B( 12-C , 13-H ) :   0.9725 B( 12-C , 14-H ) :   0.9755 B( 12-C , 15-H ) :   0.9783
B( 16-S , 17-C ) :   1.1523 B( 16-S , 20-C ) :   1.1158 B( 17-C , 18-C ) :   1.6178
B( 17-C , 33-H ) :   0.9674 B( 18-C , 19-C ) :   1.2474 B( 18-C , 21-H ) :   0.9805
B( 19-C , 20-C ) :   1.5940 B( 19-C , 22-C ) :   1.0271 B( 22-C , 23-H ) :   0.9405
B( 22-C , 24-H ) :   0.9335 B( 22-C , 25-C ) :   1.0699 B( 25-C , 26-H ) :   0.9574
B( 25-C , 27-H ) :   0.9501 B( 25-C , 28-C ) :   1.0662 B( 28-C , 29-H ) :   0.9735
B( 28-C , 30-H ) :   0.9730 B( 28-C , 31-H ) :   0.9781

Dispersion correction           -0.015422337
FINAL SINGLE POINT ENERGY     -1339.863005509968

DIPOLE MOMENT
-------------
                                X             Y             Z
Electronic contribution:    -17.92100       0.70547      -9.59978
Nuclear contribution   :     18.31138      -0.99913      10.24318
                        -----------------------------------------
Total Dipole Moment    :      0.39038      -0.29367       0.64340
                        -----------------------------------------
Magnitude (a.u.)       :      0.80783
Magnitude (Debye)      :      2.05335

Rotational constants in cm-1:     0.020509     0.008654     0.007659
Rotational constants in MHz :   614.848305   259.449455   229.607371

                             ****ORCA TERMINATED NORMALLY****
TOTAL RUN TIME: 0 days 0 hours 0 minutes 31 seconds 744 msec
