                         Program Version 4.2.1 -  RELEASE  -
|  1> ! wB97X-D3 SP def2-SVP
|  2> %pal
|  3> nprocs 16
|  4> end
|  5>
|  6> * xyz 0 1
|  7> S 	 -32.1042 	 33.4918 	 41.1256
|  8> C 	 -30.947 	 33.8519 	 39.8428
|  9> C 	 -29.6278 	 33.5464 	 40.2115
| 10> C 	 -29.5352 	 33.1467 	 41.5815
| 11> C 	 -30.7382 	 33.2047 	 42.2342
| 12> H 	 -28.5901 	 32.8761 	 42.1277
| 13> C 	 -28.3365 	 33.8005 	 39.3811
| 14> H 	 -27.5998 	 34.2241 	 40.0527
| 15> H 	 -28.4254 	 34.5573 	 38.5795
| 16> C 	 -27.6847 	 32.4565 	 38.9604
| 17> H 	 -26.8937 	 32.6403 	 38.3318
| 18> H 	 -27.1569 	 32.1271 	 39.896
| 19> C 	 -28.6762 	 31.4101 	 38.3961
| 20> H 	 -29.1332 	 31.72 	 37.4744
| 21> H 	 -28.2768 	 30.504 	 38.2609
| 22> H 	 -29.4042 	 31.2437 	 39.1885
| 23> S 	 -31.0996 	 31.367 	 44.3014
| 24> C 	 -31.128 	 31.9648 	 45.9854
| 25> C 	 -31.0747 	 33.3056 	 46.0307
| 26> C 	 -31.0281 	 33.9622 	 44.7284
| 27> C 	 -30.9401 	 33.0334 	 43.6902
| 28> H 	 -31.1328 	 33.7674 	 47.0258
| 29> C 	 -30.9362 	 35.4809 	 44.5549
| 30> H 	 -31.8012 	 35.9517 	 45.0598
| 31> H 	 -31.173 	 35.6291 	 43.4873
| 32> C 	 -29.6943 	 36.1682 	 44.9366
| 33> H 	 -29.6128 	 36.2728 	 45.9763
| 34> H 	 -29.9088 	 37.1978 	 44.6716
| 35> C 	 -28.3169 	 35.7925 	 44.2351
| 36> H 	 -28.4991 	 35.9177 	 43.2217
| 37> H 	 -27.9428 	 34.7474 	 44.3516
| 38> H 	 -27.5326 	 36.5062 	 44.3895
| 39> H 	 -30.9968 	 34.1734 	 38.8202
| 40> H 	 -31.1698 	 31.327 	 46.9369
| 41> *
| 42>
| 43>                          ****END OF INPUT****

CARTESIAN COORDINATES (ANGSTROEM)
---------------------------------
  S    -32.104200   33.491800   41.125600
  C    -30.947000   33.851900   39.842800
  C    -29.627800   33.546400   40.211500
  C    -29.535200   33.146700   41.581500
  C    -30.738200   33.204700   42.234200
  H    -28.590100   32.876100   42.127700
  C    -28.336500   33.800500   39.381100
  H    -27.599800   34.224100   40.052700
  H    -28.425400   34.557300   38.579500
  C    -27.684700   32.456500   38.960400
  H    -26.893700   32.640300   38.331800
  H    -27.156900   32.127100   39.896000
  C    -28.676200   31.410100   38.396100
  H    -29.133200   31.720000   37.474400
  H    -28.276800   30.504000   38.260900
  H    -29.404200   31.243700   39.188500
  S    -31.099600   31.367000   44.301400
  C    -31.128000   31.964800   45.985400
  C    -31.074700   33.305600   46.030700
  C    -31.028100   33.962200   44.728400
  C    -30.940100   33.033400   43.690200
  H    -31.132800   33.767400   47.025800
  C    -30.936200   35.480900   44.554900
  H    -31.801200   35.951700   45.059800
  H    -31.173000   35.629100   43.487300
  C    -29.694300   36.168200   44.936600
  H    -29.612800   36.272800   45.976300
  H    -29.908800   37.197800   44.671600
  C    -28.316900   35.792500   44.235100
  H    -28.499100   35.917700   43.221700
  H    -27.942800   34.747400   44.351600
  H    -27.532600   36.506200   44.389500
  H    -30.996800   34.173400   38.820200
  H    -31.169800   31.327000   46.936900

 Total Charge           Charge          ....    0
 Multiplicity           Mult            ....    1
 Number of Electrons    NEL             ....  134
 Basis Dimension        Dim             ....  322

ORBITAL ENERGIES
----------------

  NO   OCC          E(Eh)            E(eV)
   0   2.0000     -88.972600     -2421.0675
   1   2.0000     -88.961380     -2420.7622
   2   2.0000     -10.331869      -281.1444
   3   2.0000     -10.329615      -281.0831
   4   2.0000     -10.320973      -280.8479
   5   2.0000     -10.315322      -280.6942
   6   2.0000     -10.307367      -280.4777
   7   2.0000     -10.303965      -280.3851
   8   2.0000     -10.299481      -280.2631
   9   2.0000     -10.296935      -280.1938
  10   2.0000     -10.292568      -280.0750
  11   2.0000     -10.290556      -280.0203
  12   2.0000     -10.284129      -279.8454
  13   2.0000     -10.281305      -279.7685
  14   2.0000     -10.273842      -279.5654
  15   2.0000     -10.263048      -279.2717
  16   2.0000      -8.085897      -220.0285
  17   2.0000      -8.075290      -219.7398
  18   2.0000      -6.044608      -164.4822
  19   2.0000      -6.040705      -164.3759
  20   2.0000      -6.036403      -164.2589
  21   2.0000      -6.034030      -164.1943
  22   2.0000      -6.029992      -164.0844
  23   2.0000      -6.025770      -163.9695
  24   2.0000      -0.998404       -27.1680
  25   2.0000      -0.976846       -26.5813
  26   2.0000      -0.908602       -24.7243
  27   2.0000      -0.907374       -24.6909
  28   2.0000      -0.864759       -23.5313
  29   2.0000      -0.844568       -22.9819
  30   2.0000      -0.838374       -22.8133
  31   2.0000      -0.813820       -22.1452
  32   2.0000      -0.788906       -21.4672
  33   2.0000      -0.779479       -21.2107
  34   2.0000      -0.710979       -19.3467
  35   2.0000      -0.700111       -19.0510
  36   2.0000      -0.692458       -18.8427
  37   2.0000      -0.649123       -17.6635
  38   2.0000      -0.631040       -17.1715
  39   2.0000      -0.616122       -16.7655
  40   2.0000      -0.588878       -16.0242
  41   2.0000      -0.566550       -15.4166
  42   2.0000      -0.551491       -15.0068
  43   2.0000      -0.549757       -14.9597
  44   2.0000      -0.543637       -14.7931
  45   2.0000      -0.538950       -14.6656
  46   2.0000      -0.511051       -13.9064
  47   2.0000      -0.506629       -13.7861
  48   2.0000      -0.498688       -13.5700
  49   2.0000      -0.494099       -13.4451
  50   2.0000      -0.483802       -13.1649
  51   2.0000      -0.474845       -12.9212
  52   2.0000      -0.467664       -12.7258
  53   2.0000      -0.460574       -12.5328
  54   2.0000      -0.458534       -12.4773
  55   2.0000      -0.451431       -12.2841
  56   2.0000      -0.445096       -12.1117
  57   2.0000      -0.438316       -11.9272
  58   2.0000      -0.436680       -11.8827
  59   2.0000      -0.421702       -11.4751
  60   2.0000      -0.419063       -11.4033
  61   2.0000      -0.416463       -11.3325
  62   2.0000      -0.406098       -11.0505
  63   2.0000      -0.337968        -9.1966
  64   2.0000      -0.331252        -9.0138
  65   2.0000      -0.317873        -8.6498
  66   2.0000      -0.310838        -8.4583
  67   0.0000       0.042242         1.1495
  68   0.0000       0.054795         1.4911
  69   0.0000       0.110877         3.0171
  70   0.0000       0.117594         3.1999
  71   0.0000       0.122155         3.3240

MULLIKEN ATOMIC CHARGES
-----------------------
   0 S :    0.131741
   1 C :   -0.079169
   2 C :   -0.142590
   3 C :    0.047792
   4 C :   -0.185276
   5 H :    0.039558
   6 C :    0.058406
   7 H :    0.026014
   8 H :    0.030973
   9 C :   -0.086382
  10 H :    0.009685
  11 H :    0.024826
  12 C :    0.021920
  13 H :    0.027041
  14 H :    0.000066
  15 H :    0.041490
  16 S :    0.091389
  17 C :   -0.117178
  18 C :   -0.037295
  19 C :   -0.021668
  20 C :   -0.191565
  21 H :    0.026510
  22 C :    0.070854
  23 H :    0.031058
  24 H :    0.021755
  25 C :   -0.034469
  26 H :    0.010150
  27 H :    0.017532
  28 C :   -0.027774
  29 H :    0.009334
  30 H :    0.048369
  31 H :    0.025587
  32 H :    0.029798
  33 H :    0.081519
Sum of atomic charges:    0.0000000

LOEWDIN ATOMIC CHARGES
----------------------
   0 S :    0.394118
   1 C :   -0.199379
   2 C :   -0.061749
   3 C :   -0.057167
   4 C :   -0.190672
   5 H :    0.043754
   6 C :   -0.030188
   7 H :    0.030990
   8 H :    0.028000
   9 C :   -0.035105
  10 H :    0.009641
  11 H :    0.027237
  12 C :   -0.052039
  13 H :    0.024871
  14 H :    0.008348
  15 H :    0.032956
  16 S :    0.366593
  17 C :   -0.183398
  18 C :   -0.081015
  19 C :   -0.049595
  20 C :   -0.194300
  21 H :    0.036804
  22 C :   -0.035498
  23 H :    0.039498
  24 H :    0.031775
  25 C :   -0.038013
  26 H :    0.013807
  27 H :    0.031179
  28 C :   -0.063241
  29 H :    0.017193
  30 H :    0.030693
  31 H :    0.025788
  32 H :    0.029279
  33 H :    0.048833

  Mayer bond orders larger than 0.100000
B(  0-S ,  1-C ) :   1.1221 B(  0-S ,  4-C ) :   1.1275 B(  1-C ,  2-C ) :   1.6458
B(  1-C , 32-H ) :   0.9588 B(  2-C ,  3-C ) :   1.2127 B(  2-C ,  6-C ) :   1.0178
B(  3-C ,  4-C ) :   1.6258 B(  3-C ,  5-H ) :   0.9788 B(  4-C , 20-C ) :   1.0085
B(  6-C ,  7-H ) :   0.9509 B(  6-C ,  8-H ) :   0.9503 B(  6-C ,  9-C ) :   1.0553
B(  9-C , 10-H ) :   0.9579 B(  9-C , 11-H ) :   0.9581 B(  9-C , 12-C ) :   1.0794
B( 12-C , 13-H ) :   0.9756 B( 12-C , 14-H ) :   0.9705 B( 12-C , 15-H ) :   0.9646
B( 16-S , 17-C ) :   1.1215 B( 16-S , 20-C ) :   1.1291 B( 17-C , 18-C ) :   1.6827
B( 17-C , 33-H ) :   0.9527 B( 18-C , 19-C ) :   1.1833 B( 18-C , 21-H ) :   0.9849
B( 19-C , 20-C ) :   1.6374 B( 19-C , 22-C ) :   1.0438 B( 22-C , 23-H ) :   0.9256
B( 22-C , 24-H ) :   0.9243 B( 22-C , 25-C ) :   1.0973 B( 25-C , 26-H ) :   0.9519
B( 25-C , 27-H ) :   0.9432 B( 25-C , 28-C ) :   1.0602 B( 28-C , 29-H ) :   0.9712
B( 28-C , 30-H ) :   0.9776 B( 28-C , 31-H ) :   0.9730

Dispersion correction           -0.015862663
FINAL SINGLE POINT ENERGY     -1339.855474371688

DIPOLE MOMENT
-------------
                                X             Y             Z
Electronic contribution:    -18.24388      -9.82732       7.00038
Nuclear contribution   :     18.75619      10.25751      -6.96751
                        -----------------------------------------
Total Dipole Moment    :      0.51231       0.43019       0.03287
                        -----------------------------------------
Magnitude (a.u.)       :      0.66978
Magnitude (Debye)      :      1.70244

Rotational constants in cm-1:     0.019819     0.008751     0.007724
Rotational constants in MHz :   594.165941   262.348202   231.558298

                             ****ORCA TERMINATED NORMALLY****
TOTAL RUN TIME: 0 days 0 hours 0 minutes 35 seconds 7 msec
