                         Program Version 4.2.1 -  RELEASE  -
|  1> ! wB97X-D3 SP def2-SVP
|  2> %pal
|  3> nprocs 16
|  4> end
|  5>
|  6> * xyz 0 1
|  7> S 	 25.6198 	 6.82959 	 73.0963
|  8> C 	 25.8397 	 5.17131 	 72.8341
|  9> C 	 25.5279 	 4.42503 	 73.9472
| 10> C 	 25.1989 	 5.29817 	 75.0078
| 11> C 	 25.3228 	 6.64613 	 74.829
| 12> H 	 24.7656 	 5.02469 	 75.9726
| 13> C 	 25.4289 	 2.93998 	 73.9367
| 14> H 	 25.5848 	 2.64333 	 74.9216
| 15> H 	 26.2807 	 2.58451 	 73.3744
| 16> C 	 24.1426 	 2.38654 	 73.3644
| 17> H 	 24.1891 	 1.31868 	 73.5981
| 18> H 	 23.3782 	 2.7846 	 73.9458
| 19> C 	 23.8503 	 2.69398 	 71.8455
| 20> H 	 24.6656 	 2.32619 	 71.2116
| 21> H 	 22.8183 	 2.23413 	 71.6223
| 22> H 	 23.7762 	 3.7435 	 71.7801
| 23> S 	 23.933 	 9.04828 	 74.7564
| 24> C 	 23.6936 	 9.9543 	 76.2354
| 25> C 	 24.2989 	 9.32934 	 77.2489
| 26> C 	 24.9176 	 8.05251 	 76.9369
| 27> C 	 24.7971 	 7.75857 	 75.5843
| 28> H 	 24.2531 	 9.6147 	 78.3082
| 29> C 	 25.604 	 7.28609 	 77.9909
| 30> H 	 26.5745 	 7.8151 	 78.0223
| 31> H 	 25.7817 	 6.25128 	 77.6552
| 32> C 	 24.8658 	 6.83908 	 79.3031
| 33> H 	 24.4636 	 7.77233 	 79.6754
| 34> H 	 25.5322 	 6.40808 	 80.0526
| 35> C 	 23.7499 	 5.85359 	 79.0369
| 36> H 	 23.2401 	 5.92168 	 79.9984
| 37> H 	 24.1696 	 4.85478 	 78.7941
| 38> H 	 23.0176 	 6.15811 	 78.3073
| 39> H 	 26.081 	 4.75987 	 71.8188
| 40> H 	 23.3456 	 10.9798 	 76.238
| 41> *
| 42>
| 43>                          ****END OF INPUT****

CARTESIAN COORDINATES (ANGSTROEM)
---------------------------------
  S     25.619800    6.829590   73.096300
  C     25.839700    5.171310   72.834100
  C     25.527900    4.425030   73.947200
  C     25.198900    5.298170   75.007800
  C     25.322800    6.646130   74.829000
  H     24.765600    5.024690   75.972600
  C     25.428900    2.939980   73.936700
  H     25.584800    2.643330   74.921600
  H     26.280700    2.584510   73.374400
  C     24.142600    2.386540   73.364400
  H     24.189100    1.318680   73.598100
  H     23.378200    2.784600   73.945800
  C     23.850300    2.693980   71.845500
  H     24.665600    2.326190   71.211600
  H     22.818300    2.234130   71.622300
  H     23.776200    3.743500   71.780100
  S     23.933000    9.048280   74.756400
  C     23.693600    9.954300   76.235400
  C     24.298900    9.329340   77.248900
  C     24.917600    8.052510   76.936900
  C     24.797100    7.758570   75.584300
  H     24.253100    9.614700   78.308200
  C     25.604000    7.286090   77.990900
  H     26.574500    7.815100   78.022300
  H     25.781700    6.251280   77.655200
  C     24.865800    6.839080   79.303100
  H     24.463600    7.772330   79.675400
  H     25.532200    6.408080   80.052600
  C     23.749900    5.853590   79.036900
  H     23.240100    5.921680   79.998400
  H     24.169600    4.854780   78.794100
  H     23.017600    6.158110   78.307300
  H     26.081000    4.759870   71.818800
  H     23.345600   10.979800   76.238000

 Total Charge           Charge          ....    0
 Multiplicity           Mult            ....    1
 Number of Electrons    NEL             ....  134
 Basis Dimension        Dim             ....  322

ORBITAL ENERGIES
----------------

  NO   OCC          E(Eh)            E(eV)
   0   2.0000     -88.962051     -2420.7805
   1   2.0000     -88.960187     -2420.7297
   2   2.0000     -10.327833      -281.0346
   3   2.0000     -10.325274      -280.9650
   4   2.0000     -10.314460      -280.6707
   5   2.0000     -10.313544      -280.6458
   6   2.0000     -10.300036      -280.2782
   7   2.0000     -10.295408      -280.1523
   8   2.0000     -10.292431      -280.0713
   9   2.0000     -10.292065      -280.0613
  10   2.0000     -10.291158      -280.0367
  11   2.0000     -10.289174      -279.9827
  12   2.0000     -10.284820      -279.8642
  13   2.0000     -10.282115      -279.7906
  14   2.0000     -10.282022      -279.7880
  15   2.0000     -10.281057      -279.7618
  16   2.0000      -8.076920      -219.7842
  17   2.0000      -8.076103      -219.7619
  18   2.0000      -6.035650      -164.2384
  19   2.0000      -6.034473      -164.2064
  20   2.0000      -6.031415      -164.1232
  21   2.0000      -6.030437      -164.0965
  22   2.0000      -6.027420      -164.0144
  23   2.0000      -6.026923      -164.0009
  24   2.0000      -1.012960       -27.5641
  25   2.0000      -0.990092       -26.9418
  26   2.0000      -0.918276       -24.9876
  27   2.0000      -0.914092       -24.8737
  28   2.0000      -0.873933       -23.7809
  29   2.0000      -0.855041       -23.2669
  30   2.0000      -0.845022       -22.9942
  31   2.0000      -0.818297       -22.2670
  32   2.0000      -0.785772       -21.3819
  33   2.0000      -0.774766       -21.0824
  34   2.0000      -0.712688       -19.3932
  35   2.0000      -0.699330       -19.0297
  36   2.0000      -0.695150       -18.9160
  37   2.0000      -0.658330       -17.9141
  38   2.0000      -0.643471       -17.5097
  39   2.0000      -0.620535       -16.8856
  40   2.0000      -0.603520       -16.4226
  41   2.0000      -0.572958       -15.5910
  42   2.0000      -0.561960       -15.2917
  43   2.0000      -0.553639       -15.0653
  44   2.0000      -0.549060       -14.9407
  45   2.0000      -0.537978       -14.6391
  46   2.0000      -0.521156       -14.1814
  47   2.0000      -0.513251       -13.9663
  48   2.0000      -0.505411       -13.7529
  49   2.0000      -0.500074       -13.6077
  50   2.0000      -0.490662       -13.3516
  51   2.0000      -0.478944       -13.0327
  52   2.0000      -0.472918       -12.8687
  53   2.0000      -0.472426       -12.8554
  54   2.0000      -0.464957       -12.6521
  55   2.0000      -0.449361       -12.2277
  56   2.0000      -0.442023       -12.0280
  57   2.0000      -0.437561       -11.9066
  58   2.0000      -0.435383       -11.8474
  59   2.0000      -0.428773       -11.6675
  60   2.0000      -0.421085       -11.4583
  61   2.0000      -0.409518       -11.1436
  62   2.0000      -0.396459       -10.7882
  63   2.0000      -0.361488        -9.8366
  64   2.0000      -0.330052        -8.9812
  65   2.0000      -0.324304        -8.8248
  66   2.0000      -0.287776        -7.8308
  67   0.0000       0.026315         0.7161
  68   0.0000       0.077427         2.1069
  69   0.0000       0.110514         3.0072
  70   0.0000       0.124450         3.3865
  71   0.0000       0.131274         3.5721

MULLIKEN ATOMIC CHARGES
-----------------------
   0 S :    0.085560
   1 C :   -0.138679
   2 C :   -0.109337
   3 C :    0.007585
   4 C :   -0.133902
   5 H :    0.003086
   6 C :    0.121993
   7 H :   -0.000747
   8 H :    0.017355
   9 C :   -0.044220
  10 H :    0.030499
  11 H :    0.009402
  12 C :   -0.066640
  13 H :    0.038841
  14 H :    0.053616
  15 H :    0.039693
  16 S :    0.087294
  17 C :   -0.082249
  18 C :   -0.020874
  19 C :   -0.084221
  20 C :   -0.132302
  21 H :    0.023203
  22 C :    0.039344
  23 H :    0.056269
  24 H :    0.005144
  25 C :   -0.063366
  26 H :    0.015063
  27 H :    0.041075
  28 C :   -0.064966
  29 H :    0.038833
  30 H :    0.046443
  31 H :    0.046805
  32 H :    0.068689
  33 H :    0.065712
Sum of atomic charges:   -0.0000000

LOEWDIN ATOMIC CHARGES
----------------------
   0 S :    0.415900
   1 C :   -0.208758
   2 C :   -0.075036
   3 C :   -0.062341
   4 C :   -0.191018
   5 H :    0.027165
   6 C :   -0.027160
   7 H :    0.022792
   8 H :    0.030819
   9 C :   -0.031392
  10 H :    0.024882
  11 H :    0.015486
  12 C :   -0.063222
  13 H :    0.024422
  14 H :    0.040957
  15 H :    0.018193
  16 S :    0.389720
  17 C :   -0.183150
  18 C :   -0.073548
  19 C :   -0.064110
  20 C :   -0.193499
  21 H :    0.032015
  22 C :   -0.050085
  23 H :    0.043832
  24 H :    0.028657
  25 C :   -0.032833
  26 H :    0.013309
  27 H :    0.030794
  28 C :   -0.066107
  29 H :    0.035372
  30 H :    0.028131
  31 H :    0.026844
  32 H :    0.038215
  33 H :    0.034752

  Mayer bond orders larger than 0.100000
B(  0-S ,  1-C ) :   1.1776 B(  0-S ,  4-C ) :   1.1353 B(  1-C ,  2-C ) :   1.5598
B(  1-C , 32-H ) :   0.9592 B(  2-C ,  3-C ) :   1.2826 B(  2-C ,  6-C ) :   1.0226
B(  3-C ,  4-C ) :   1.5590 B(  3-C ,  5-H ) :   0.9831 B(  4-C , 20-C ) :   1.0724
B(  6-C ,  7-H ) :   0.9265 B(  6-C ,  8-H ) :   0.9324 B(  6-C ,  9-C ) :   1.0786
B(  9-C , 10-H ) :   0.9558 B(  9-C , 11-H ) :   0.9515 B(  9-C , 12-C ) :   1.0720
B( 12-C , 13-H ) :   0.9772 B( 12-C , 14-H ) :   0.9720 B( 12-C , 15-H ) :   0.9714
B( 16-S , 17-C ) :   1.1312 B( 16-S , 20-C ) :   1.1266 B( 17-C , 18-C ) :   1.6283
B( 17-C , 33-H ) :   0.9665 B( 18-C , 19-C ) :   1.2336 B( 18-C , 21-H ) :   0.9830
B( 19-C , 20-C ) :   1.5962 B( 19-C , 22-C ) :   1.0565 B( 22-C , 23-H ) :   0.9280
B( 22-C , 24-H ) :   0.9337 B( 22-C , 25-C ) :   1.0399 B( 25-C , 26-H ) :   0.9611
B( 25-C , 27-H ) :   0.9555 B( 25-C , 28-C ) :   1.0767 B( 28-C , 29-H ) :   0.9711
B( 28-C , 30-H ) :   0.9699 B( 28-C , 31-H ) :   0.9745

Dispersion correction           -0.014667036
FINAL SINGLE POINT ENERGY     -1339.865160544505

DIPOLE MOMENT
-------------
                                X             Y             Z
Electronic contribution:      3.71755      21.40011     -10.95073
Nuclear contribution   :     -3.82933     -21.86618      11.46438
                        -----------------------------------------
Total Dipole Moment    :     -0.11178      -0.46608       0.51365
                        -----------------------------------------
Magnitude (a.u.)       :      0.70254
Magnitude (Debye)      :      1.78572

Rotational constants in cm-1:     0.020510     0.008654     0.006799
Rotational constants in MHz :   614.875639   259.449075   203.816224

                             ****ORCA TERMINATED NORMALLY****
TOTAL RUN TIME: 0 days 0 hours 0 minutes 36 seconds 251 msec
