                         Program Version 4.2.1 -  RELEASE  -
|  1> ! wB97X-D3 SP def2-SVP
|  2> %pal
|  3> nprocs 16
|  4> end
|  5>
|  6> * xyz 0 1
|  7> S 	 44.6595 	 5.33144 	 88.0899
|  8> C 	 45.517 	 6.79244 	 88.5409
|  9> C 	 46.2609 	 6.55569 	 89.6787
| 10> C 	 46.2295 	 5.19409 	 90.1333
| 11> C 	 45.2493 	 4.46728 	 89.508
| 12> H 	 46.6864 	 4.79329 	 90.9984
| 13> C 	 47.0702 	 7.6295 	 90.33
| 14> H 	 46.9599 	 7.55833 	 91.4252
| 15> H 	 46.7663 	 8.66531 	 90.0878
| 16> C 	 48.6058 	 7.44757 	 89.9323
| 17> H 	 49.2479 	 7.80822 	 90.7611
| 18> H 	 48.7512 	 6.37404 	 89.6941
| 19> C 	 48.9234 	 8.21891 	 88.731
| 20> H 	 49.9891 	 8.08131 	 88.412
| 21> H 	 48.2618 	 7.9064 	 87.9471
| 22> H 	 48.6432 	 9.25437 	 88.8229
| 23> S 	 44.8197 	 2.45029 	 91.2994
| 24> C 	 44.7777 	 0.79851 	 90.7998
| 25> C 	 44.8349 	 0.779048 	 89.4576
| 26> C 	 44.9331 	 1.97901 	 88.6787
| 27> C 	 44.9391 	 3.03842 	 89.6409
| 28> H 	 44.7421 	 -0.132893 	 88.981
| 29> C 	 45.1136 	 2.06289 	 87.1299
| 30> H 	 46.1888 	 2.16101 	 86.8218
| 31> H 	 44.6598 	 3.00562 	 86.8128
| 32> C 	 44.3203 	 1.097 	 86.3118
| 33> H 	 43.2412 	 1.41859 	 86.29
| 34> H 	 44.4531 	 0.121372 	 86.6579
| 35> C 	 44.8292 	 1.02499 	 84.8958
| 36> H 	 44.7323 	 2.0271 	 84.511
| 37> H 	 44.0934 	 0.464131 	 84.2537
| 38> H 	 45.8476 	 0.699503 	 84.7435
| 39> H 	 45.6268 	 7.67467 	 88.0111
| 40> H 	 44.7708 	 -0.0727096 	 91.3636
| 41> *
| 42>
| 43>                          ****END OF INPUT****

CARTESIAN COORDINATES (ANGSTROEM)
---------------------------------
  S     44.659500    5.331440   88.089900
  C     45.517000    6.792440   88.540900
  C     46.260900    6.555690   89.678700
  C     46.229500    5.194090   90.133300
  C     45.249300    4.467280   89.508000
  H     46.686400    4.793290   90.998400
  C     47.070200    7.629500   90.330000
  H     46.959900    7.558330   91.425200
  H     46.766300    8.665310   90.087800
  C     48.605800    7.447570   89.932300
  H     49.247900    7.808220   90.761100
  H     48.751200    6.374040   89.694100
  C     48.923400    8.218910   88.731000
  H     49.989100    8.081310   88.412000
  H     48.261800    7.906400   87.947100
  H     48.643200    9.254370   88.822900
  S     44.819700    2.450290   91.299400
  C     44.777700    0.798510   90.799800
  C     44.834900    0.779048   89.457600
  C     44.933100    1.979010   88.678700
  C     44.939100    3.038420   89.640900
  H     44.742100   -0.132893   88.981000
  C     45.113600    2.062890   87.129900
  H     46.188800    2.161010   86.821800
  H     44.659800    3.005620   86.812800
  C     44.320300    1.097000   86.311800
  H     43.241200    1.418590   86.290000
  H     44.453100    0.121372   86.657900
  C     44.829200    1.024990   84.895800
  H     44.732300    2.027100   84.511000
  H     44.093400    0.464131   84.253700
  H     45.847600    0.699503   84.743500
  H     45.626800    7.674670   88.011100
  H     44.770800   -0.072710   91.363600

 Total Charge           Charge          ....    0
 Multiplicity           Mult            ....    1
 Number of Electrons    NEL             ....  134
 Basis Dimension        Dim             ....  322

ORBITAL ENERGIES
----------------

  NO   OCC          E(Eh)            E(eV)
   0   2.0000     -88.967424     -2420.9267
   1   2.0000     -88.964266     -2420.8408
   2   2.0000     -10.334516      -281.2165
   3   2.0000     -10.331501      -281.1344
   4   2.0000     -10.312506      -280.6176
   5   2.0000     -10.308341      -280.5042
   6   2.0000     -10.308216      -280.5008
   7   2.0000     -10.300500      -280.2909
   8   2.0000     -10.297900      -280.2201
   9   2.0000     -10.294183      -280.1190
  10   2.0000     -10.292811      -280.0816
  11   2.0000     -10.286171      -279.9009
  12   2.0000     -10.283254      -279.8216
  13   2.0000     -10.282254      -279.7944
  14   2.0000     -10.277089      -279.6538
  15   2.0000     -10.270865      -279.4844
  16   2.0000      -8.082103      -219.9252
  17   2.0000      -8.078523      -219.8278
  18   2.0000      -6.040651      -164.3745
  19   2.0000      -6.037183      -164.2801
  20   2.0000      -6.036537      -164.2625
  21   2.0000      -6.033063      -164.1680
  22   2.0000      -6.032907      -164.1637
  23   2.0000      -6.029195      -164.0627
  24   2.0000      -1.007341       -27.4111
  25   2.0000      -0.986360       -26.8402
  26   2.0000      -0.919006       -25.0074
  27   2.0000      -0.914428       -24.8829
  28   2.0000      -0.873052       -23.7570
  29   2.0000      -0.854500       -23.2521
  30   2.0000      -0.846645       -23.0384
  31   2.0000      -0.818763       -22.2797
  32   2.0000      -0.783510       -21.3204
  33   2.0000      -0.771372       -20.9901
  34   2.0000      -0.709892       -19.3171
  35   2.0000      -0.698736       -19.0136
  36   2.0000      -0.688011       -18.7217
  37   2.0000      -0.661138       -17.9905
  38   2.0000      -0.639023       -17.3887
  39   2.0000      -0.622305       -16.9338
  40   2.0000      -0.607344       -16.5267
  41   2.0000      -0.579371       -15.7655
  42   2.0000      -0.577342       -15.7103
  43   2.0000      -0.551280       -15.0011
  44   2.0000      -0.537987       -14.6394
  45   2.0000      -0.528248       -14.3743
  46   2.0000      -0.523028       -14.2323
  47   2.0000      -0.517717       -14.0878
  48   2.0000      -0.507704       -13.8153
  49   2.0000      -0.500099       -13.6084
  50   2.0000      -0.490553       -13.3486
  51   2.0000      -0.479833       -13.0569
  52   2.0000      -0.468780       -12.7562
  53   2.0000      -0.466664       -12.6986
  54   2.0000      -0.463324       -12.6077
  55   2.0000      -0.444300       -12.0900
  56   2.0000      -0.442279       -12.0350
  57   2.0000      -0.438009       -11.9188
  58   2.0000      -0.436835       -11.8869
  59   2.0000      -0.424889       -11.5618
  60   2.0000      -0.419841       -11.4244
  61   2.0000      -0.414252       -11.2724
  62   2.0000      -0.404682       -11.0120
  63   2.0000      -0.351520        -9.5654
  64   2.0000      -0.333389        -9.0720
  65   2.0000      -0.326062        -8.8726
  66   2.0000      -0.291477        -7.9315
  67   0.0000       0.024497         0.6666
  68   0.0000       0.079397         2.1605
  69   0.0000       0.114366         3.1121
  70   0.0000       0.120677         3.2838
  71   0.0000       0.131171         3.5694

MULLIKEN ATOMIC CHARGES
-----------------------
   0 S :    0.084305
   1 C :   -0.066873
   2 C :   -0.110452
   3 C :    0.054353
   4 C :   -0.137195
   5 H :    0.005751
   6 C :    0.032777
   7 H :    0.034290
   8 H :    0.022883
   9 C :   -0.080997
  10 H :    0.035399
  11 H :    0.042979
  12 C :   -0.028085
  13 H :    0.048109
  14 H :    0.006146
  15 H :    0.014841
  16 S :    0.102637
  17 C :   -0.041085
  18 C :   -0.030991
  19 C :   -0.010569
  20 C :   -0.172414
  21 H :   -0.020060
  22 C :    0.059334
  23 H :    0.054945
  24 H :    0.022476
  25 C :   -0.075117
  26 H :    0.048848
  27 H :    0.021015
  28 C :   -0.054530
  29 H :    0.012129
  30 H :    0.036756
  31 H :    0.040237
  32 H :    0.019382
  33 H :    0.028778
Sum of atomic charges:    0.0000000

LOEWDIN ATOMIC CHARGES
----------------------
   0 S :    0.404422
   1 C :   -0.190391
   2 C :   -0.060373
   3 C :   -0.060400
   4 C :   -0.180950
   5 H :    0.024409
   6 C :   -0.031807
   7 H :    0.032712
   8 H :    0.028445
   9 C :   -0.040435
  10 H :    0.024361
  11 H :    0.030069
  12 C :   -0.069750
  13 H :    0.033458
  14 H :    0.019543
  15 H :    0.019203
  16 S :    0.416425
  17 C :   -0.187931
  18 C :   -0.065080
  19 C :   -0.052530
  20 C :   -0.189948
  21 H :    0.013538
  22 C :   -0.038561
  23 H :    0.041427
  24 H :    0.022157
  25 C :   -0.042301
  26 H :    0.037922
  27 H :    0.010795
  28 C :   -0.063445
  29 H :    0.019783
  30 H :    0.033039
  31 H :    0.023936
  32 H :    0.014996
  33 H :    0.023260

  Mayer bond orders larger than 0.100000
B(  0-S ,  1-C ) :   1.1225 B(  0-S ,  4-C ) :   1.1459 B(  1-C ,  2-C ) :   1.6219
B(  1-C , 32-H ) :   0.9725 B(  2-C ,  3-C ) :   1.2227 B(  2-C ,  6-C ) :   1.0425
B(  3-C ,  4-C ) :   1.5977 B(  3-C ,  5-H ) :   0.9846 B(  4-C , 20-C ) :   1.0265
B(  6-C ,  7-H ) :   0.9406 B(  6-C ,  8-H ) :   0.9513 B(  6-C ,  9-C ) :   1.0370
B(  9-C , 10-H ) :   0.9546 B(  9-C , 11-H ) :   0.9577 B(  9-C , 12-C ) :   1.0930
B( 12-C , 13-H ) :   0.9687 B( 12-C , 14-H ) :   0.9670 B( 12-C , 15-H ) :   0.9700
B( 16-S , 17-C ) :   1.1281 B( 16-S , 20-C ) :   1.1733 B( 17-C , 18-C ) :   1.6221
B( 17-C , 33-H ) :   0.9751 B( 18-C , 19-C ) :   1.2604 B( 18-C , 21-H ) :   0.9900
B( 19-C , 20-C ) :   1.5427 B( 19-C , 22-C ) :   1.0174 B( 22-C , 23-H ) :   0.9388
B( 22-C , 24-H ) :   0.9286 B( 22-C , 25-C ) :   1.0591 B( 25-C , 26-H ) :   0.9542
B( 25-C , 27-H ) :   0.9558 B( 25-C , 28-C ) :   1.0906 B( 28-C , 29-H ) :   0.9697
B( 28-C , 30-H ) :   0.9704 B( 28-C , 31-H ) :   0.9759

Dispersion correction           -0.013733120
FINAL SINGLE POINT ENERGY     -1339.861330551557

DIPOLE MOMENT
-------------
                                X             Y             Z
Electronic contribution:    -11.98569      -4.74555      14.43089
Nuclear contribution   :     12.36643       4.65570     -14.64152
                        -----------------------------------------
Total Dipole Moment    :      0.38074      -0.08985      -0.21064
                        -----------------------------------------
Magnitude (a.u.)       :      0.44430
Magnitude (Debye)      :      1.12932

Rotational constants in cm-1:     0.019668     0.007932     0.006361
Rotational constants in MHz :   589.646580   237.793130   190.689397

                             ****ORCA TERMINATED NORMALLY****
TOTAL RUN TIME: 0 days 0 hours 0 minutes 29 seconds 449 msec
