                         Program Version 4.2.1 -  RELEASE  -
|  1> ! wB97X-D3 SP def2-SVP
|  2> %pal
|  3> nprocs 16
|  4> end
|  5>
|  6> * xyz 0 1
|  7> S 	 9.01971 	 -7.33056 	 92.8806
|  8> C 	 9.65576 	 -7.94178 	 94.3787
|  9> C 	 10.9796 	 -7.61052 	 94.5273
| 10> C 	 11.4285 	 -6.66348 	 93.5812
| 11> C 	 10.4027 	 -6.25963 	 92.7036
| 12> H 	 12.3708 	 -6.16739 	 93.4807
| 13> C 	 11.8887 	 -8.05407 	 95.6802
| 14> H 	 12.9736 	 -8.00986 	 95.395
| 15> H 	 11.7528 	 -9.11686 	 95.8662
| 16> C 	 11.7129 	 -7.36391 	 97.0325
| 17> H 	 12.4961 	 -7.65743 	 97.7669
| 18> H 	 11.9332 	 -6.29366 	 96.8894
| 19> C 	 10.3886 	 -7.42666 	 97.687
| 20> H 	 10.2028 	 -8.48804 	 97.8244
| 21> H 	 10.4713 	 -7.03145 	 98.6809
| 22> H 	 9.56819 	 -6.91591 	 97.1927
| 23> S 	 9.28532 	 -5.50904 	 90.2532
| 24> C 	 9.87576 	 -4.11679 	 89.4605
| 25> C 	 10.8667 	 -3.45026 	 90.2186
| 26> C 	 11.1002 	 -4.07813 	 91.4974
| 27> C 	 10.399 	 -5.23963 	 91.5976
| 28> H 	 11.2876 	 -2.54502 	 89.8699
| 29> C 	 12.0215 	 -3.5533 	 92.614
| 30> H 	 12.4991 	 -2.57689 	 92.2782
| 31> H 	 12.7344 	 -4.31397 	 92.7159
| 32> C 	 11.3697 	 -3.28444 	 93.9775
| 33> H 	 10.8725 	 -4.20078 	 94.3316
| 34> H 	 10.4996 	 -2.5565 	 93.8731
| 35> C 	 12.4013 	 -2.71094 	 94.9954
| 36> H 	 13.1138 	 -3.47833 	 95.2338
| 37> H 	 11.9534 	 -2.26276 	 95.8838
| 38> H 	 13.1493 	 -2.0208 	 94.5552
| 39> H 	 9.21784 	 -8.78643 	 94.9091
| 40> H 	 9.61472 	 -3.84692 	 88.4719
| 41> *
| 42>
| 43>                          ****END OF INPUT****

CARTESIAN COORDINATES (ANGSTROEM)
---------------------------------
  S      9.019710   -7.330560   92.880600
  C      9.655760   -7.941780   94.378700
  C     10.979600   -7.610520   94.527300
  C     11.428500   -6.663480   93.581200
  C     10.402700   -6.259630   92.703600
  H     12.370800   -6.167390   93.480700
  C     11.888700   -8.054070   95.680200
  H     12.973600   -8.009860   95.395000
  H     11.752800   -9.116860   95.866200
  C     11.712900   -7.363910   97.032500
  H     12.496100   -7.657430   97.766900
  H     11.933200   -6.293660   96.889400
  C     10.388600   -7.426660   97.687000
  H     10.202800   -8.488040   97.824400
  H     10.471300   -7.031450   98.680900
  H      9.568190   -6.915910   97.192700
  S      9.285320   -5.509040   90.253200
  C      9.875760   -4.116790   89.460500
  C     10.866700   -3.450260   90.218600
  C     11.100200   -4.078130   91.497400
  C     10.399000   -5.239630   91.597600
  H     11.287600   -2.545020   89.869900
  C     12.021500   -3.553300   92.614000
  H     12.499100   -2.576890   92.278200
  H     12.734400   -4.313970   92.715900
  C     11.369700   -3.284440   93.977500
  H     10.872500   -4.200780   94.331600
  H     10.499600   -2.556500   93.873100
  C     12.401300   -2.710940   94.995400
  H     13.113800   -3.478330   95.233800
  H     11.953400   -2.262760   95.883800
  H     13.149300   -2.020800   94.555200
  H      9.217840   -8.786430   94.909100
  H      9.614720   -3.846920   88.471900

 Total Charge           Charge          ....    0
 Multiplicity           Mult            ....    1
 Number of Electrons    NEL             ....  134
 Basis Dimension        Dim             ....  322

ORBITAL ENERGIES
----------------

  NO   OCC          E(Eh)            E(eV)
   0   2.0000     -88.969110     -2420.9726
   1   2.0000     -88.966549     -2420.9029
   2   2.0000     -10.336528      -281.2712
   3   2.0000     -10.328626      -281.0562
   4   2.0000     -10.318047      -280.7683
   5   2.0000     -10.312040      -280.6049
   6   2.0000     -10.305515      -280.4273
   7   2.0000     -10.303092      -280.3614
   8   2.0000     -10.298274      -280.2303
   9   2.0000     -10.297909      -280.2204
  10   2.0000     -10.295525      -280.1555
  11   2.0000     -10.295241      -280.1477
  12   2.0000     -10.291181      -280.0373
  13   2.0000     -10.284009      -279.8421
  14   2.0000     -10.280443      -279.7451
  15   2.0000     -10.268912      -279.4313
  16   2.0000      -8.084385      -219.9873
  17   2.0000      -8.081464      -219.9078
  18   2.0000      -6.042883      -164.4352
  19   2.0000      -6.039907      -164.3542
  20   2.0000      -6.038813      -164.3245
  21   2.0000      -6.036079      -164.2501
  22   2.0000      -6.035149      -164.2248
  23   2.0000      -6.032165      -164.1435
  24   2.0000      -1.008643       -27.4466
  25   2.0000      -0.987591       -26.8737
  26   2.0000      -0.912853       -24.8400
  27   2.0000      -0.908983       -24.7347
  28   2.0000      -0.865344       -23.5472
  29   2.0000      -0.855180       -23.2706
  30   2.0000      -0.846710       -23.0402
  31   2.0000      -0.812978       -22.1222
  32   2.0000      -0.786458       -21.4006
  33   2.0000      -0.777078       -21.1454
  34   2.0000      -0.705707       -19.2033
  35   2.0000      -0.693417       -18.8688
  36   2.0000      -0.690799       -18.7976
  37   2.0000      -0.667886       -18.1741
  38   2.0000      -0.642887       -17.4938
  39   2.0000      -0.619837       -16.8666
  40   2.0000      -0.595501       -16.2044
  41   2.0000      -0.569495       -15.4968
  42   2.0000      -0.564498       -15.3608
  43   2.0000      -0.548890       -14.9361
  44   2.0000      -0.544432       -14.8147
  45   2.0000      -0.528008       -14.3678
  46   2.0000      -0.519155       -14.1269
  47   2.0000      -0.512138       -13.9360
  48   2.0000      -0.500053       -13.6071
  49   2.0000      -0.498232       -13.5576
  50   2.0000      -0.488513       -13.2931
  51   2.0000      -0.485186       -13.2026
  52   2.0000      -0.472808       -12.8658
  53   2.0000      -0.465389       -12.6639
  54   2.0000      -0.457901       -12.4601
  55   2.0000      -0.454099       -12.3567
  56   2.0000      -0.444188       -12.0870
  57   2.0000      -0.442803       -12.0493
  58   2.0000      -0.437389       -11.9020
  59   2.0000      -0.425353       -11.5744
  60   2.0000      -0.418164       -11.3788
  61   2.0000      -0.410467       -11.1694
  62   2.0000      -0.406697       -11.0668
  63   2.0000      -0.356137        -9.6910
  64   2.0000      -0.337585        -9.1862
  65   2.0000      -0.330293        -8.9877
  66   2.0000      -0.284090        -7.7305
  67   0.0000       0.019218         0.5230
  68   0.0000       0.074645         2.0312
  69   0.0000       0.094081         2.5601
  70   0.0000       0.119851         3.2613
  71   0.0000       0.126271         3.4360

MULLIKEN ATOMIC CHARGES
-----------------------
   0 S :    0.096260
   1 C :   -0.104359
   2 C :   -0.077913
   3 C :    0.019794
   4 C :   -0.147264
   5 H :   -0.001831
   6 C :    0.051731
   7 H :    0.031379
   8 H :    0.017878
   9 C :   -0.082601
  10 H :    0.031513
  11 H :    0.016138
  12 C :   -0.024426
  13 H :    0.011711
  14 H :    0.024273
  15 H :    0.048796
  16 S :    0.111755
  17 C :   -0.074519
  18 C :   -0.026208
  19 C :   -0.051903
  20 C :   -0.129654
  21 H :    0.001866
  22 C :    0.060722
  23 H :    0.030681
  24 H :    0.021328
  25 C :   -0.101271
  26 H :    0.056437
  27 H :    0.037996
  28 C :   -0.030416
  29 H :    0.012427
  30 H :    0.050133
  31 H :    0.018873
  32 H :    0.054101
  33 H :    0.046571
Sum of atomic charges:   -0.0000000

LOEWDIN ATOMIC CHARGES
----------------------
   0 S :    0.402781
   1 C :   -0.204622
   2 C :   -0.062176
   3 C :   -0.067096
   4 C :   -0.175381
   5 H :    0.026628
   6 C :   -0.035608
   7 H :    0.037351
   8 H :    0.025217
   9 C :   -0.049391
  10 H :    0.029987
  11 H :    0.020989
  12 C :   -0.065065
  13 H :    0.021124
  14 H :    0.027429
  15 H :    0.027438
  16 S :    0.414041
  17 C :   -0.188231
  18 C :   -0.062956
  19 C :   -0.055614
  20 C :   -0.193305
  21 H :    0.023491
  22 C :   -0.027031
  23 H :    0.037541
  24 H :    0.019310
  25 C :   -0.044916
  26 H :    0.027522
  27 H :    0.030306
  28 C :   -0.071487
  29 H :    0.021437
  30 H :    0.030019
  31 H :    0.027423
  32 H :    0.030873
  33 H :    0.021975

  Mayer bond orders larger than 0.100000
B(  0-S ,  1-C ) :   1.1363 B(  0-S ,  4-C ) :   1.1687 B(  1-C ,  2-C ) :   1.6124
B(  1-C ,  4-C ) :   0.1038 B(  1-C , 32-H ) :   0.9623 B(  2-C ,  3-C ) :   1.2475
B(  2-C ,  6-C ) :   1.0230 B(  3-C ,  4-C ) :   1.5379 B(  3-C ,  5-H ) :   1.0015
B(  4-C , 20-C ) :   1.0432 B(  6-C ,  7-H ) :   0.9431 B(  6-C ,  8-H ) :   0.9375
B(  6-C ,  9-C ) :   1.0756 B(  9-C , 10-H ) :   0.9513 B(  9-C , 11-H ) :   0.9475
B(  9-C , 12-C ) :   1.0986 B( 12-C , 13-H ) :   0.9712 B( 12-C , 14-H ) :   0.9655
B( 12-C , 15-H ) :   0.9685 B( 16-S , 17-C ) :   1.1703 B( 16-S , 20-C ) :   1.1336
B( 17-C , 18-C ) :   1.5926 B( 17-C , 33-H ) :   0.9729 B( 18-C , 19-C ) :   1.2414
B( 18-C , 21-H ) :   0.9981 B( 19-C , 20-C ) :   1.6142 B( 19-C , 22-C ) :   1.0240
B( 22-C , 23-H ) :   0.9352 B( 22-C , 24-H ) :   0.9340 B( 22-C , 25-C ) :   1.0622
B( 25-C , 26-H ) :   0.9508 B( 25-C , 27-H ) :   0.9561 B( 25-C , 28-C ) :   1.0726
B( 28-C , 29-H ) :   0.9691 B( 28-C , 30-H ) :   0.9764 B( 28-C , 31-H ) :   0.9708

Dispersion correction           -0.015206498
FINAL SINGLE POINT ENERGY     -1339.880012659021

DIPOLE MOMENT
-------------
                                X             Y             Z
Electronic contribution:    -14.74751      -6.79320     -26.70333
Nuclear contribution   :     15.25422       7.00224      27.01384
                        -----------------------------------------
Total Dipole Moment    :      0.50670       0.20903       0.31051
                        -----------------------------------------
Magnitude (a.u.)       :      0.62997
Magnitude (Debye)      :      1.60125

Rotational constants in cm-1:     0.020434     0.009540     0.007012
Rotational constants in MHz :   612.581617   286.000618   210.225002

                             ****ORCA TERMINATED NORMALLY****
TOTAL RUN TIME: 0 days 0 hours 0 minutes 35 seconds 944 msec
