                         Program Version 4.2.1 -  RELEASE  -
|  1> ! wB97X-D3 SP def2-SVP
|  2> %pal
|  3> nprocs 16
|  4> end
|  5>
|  6> * xyz 0 1
|  7> S 	 -30.7068 	 74.2841 	 160.488
|  8> C 	 -29.8158 	 75.6924 	 160.991
|  9> C 	 -30.2034 	 76.7758 	 160.266
| 10> C 	 -31.0638 	 76.4312 	 159.203
| 11> C 	 -31.3694 	 75.1241 	 159.096
| 12> H 	 -31.4434 	 77.1494 	 158.488
| 13> C 	 -29.9638 	 78.1857 	 160.629
| 14> H 	 -30.7827 	 78.4327 	 161.214
| 15> H 	 -30.1683 	 78.7391 	 159.716
| 16> C 	 -28.6009 	 78.6406 	 161.138
| 17> H 	 -28.7347 	 79.7071 	 161.339
| 18> H 	 -28.4323 	 78.1265 	 162.097
| 19> C 	 -27.3464 	 78.2994 	 160.276
| 20> H 	 -26.471 	 78.4939 	 160.893
| 21> H 	 -27.3114 	 77.2527 	 159.98
| 22> H 	 -27.3003 	 78.9746 	 159.409
| 23> S 	 -33.8634 	 73.9894 	 158.782
| 24> C 	 -34.3938 	 73.5731 	 157.213
| 25> C 	 -33.4851 	 73.9651 	 156.24
| 26> C 	 -32.224 	 74.4774 	 156.781
| 27> C 	 -32.3015 	 74.4961 	 158.19
| 28> H 	 -33.5928 	 73.8614 	 155.179
| 29> C 	 -30.9881 	 74.7768 	 155.944
| 30> H 	 -30.2079 	 74.2734 	 156.491
| 31> H 	 -30.6938 	 75.7902 	 156.059
| 32> C 	 -30.9604 	 74.3248 	 154.458
| 33> H 	 -30.0849 	 74.7279 	 153.932
| 34> H 	 -31.8359 	 74.587 	 153.871
| 35> C 	 -30.7235 	 72.7543 	 154.337
| 36> H 	 -30.5386 	 72.4925 	 153.333
| 37> H 	 -31.5908 	 72.1014 	 154.726
| 38> H 	 -29.7733 	 72.4232 	 154.879
| 39> H 	 -29.3004 	 75.9123 	 161.958
| 40> H 	 -35.2784 	 73.1053 	 156.92
| 41> *
| 42>
| 43>                          ****END OF INPUT****

CARTESIAN COORDINATES (ANGSTROEM)
---------------------------------
  S    -30.706800   74.284100  160.488000
  C    -29.815800   75.692400  160.991000
  C    -30.203400   76.775800  160.266000
  C    -31.063800   76.431200  159.203000
  C    -31.369400   75.124100  159.096000
  H    -31.443400   77.149400  158.488000
  C    -29.963800   78.185700  160.629000
  H    -30.782700   78.432700  161.214000
  H    -30.168300   78.739100  159.716000
  C    -28.600900   78.640600  161.138000
  H    -28.734700   79.707100  161.339000
  H    -28.432300   78.126500  162.097000
  C    -27.346400   78.299400  160.276000
  H    -26.471000   78.493900  160.893000
  H    -27.311400   77.252700  159.980000
  H    -27.300300   78.974600  159.409000
  S    -33.863400   73.989400  158.782000
  C    -34.393800   73.573100  157.213000
  C    -33.485100   73.965100  156.240000
  C    -32.224000   74.477400  156.781000
  C    -32.301500   74.496100  158.190000
  H    -33.592800   73.861400  155.179000
  C    -30.988100   74.776800  155.944000
  H    -30.207900   74.273400  156.491000
  H    -30.693800   75.790200  156.059000
  C    -30.960400   74.324800  154.458000
  H    -30.084900   74.727900  153.932000
  H    -31.835900   74.587000  153.871000
  C    -30.723500   72.754300  154.337000
  H    -30.538600   72.492500  153.333000
  H    -31.590800   72.101400  154.726000
  H    -29.773300   72.423200  154.879000
  H    -29.300400   75.912300  161.958000
  H    -35.278400   73.105300  156.920000

 Total Charge           Charge          ....    0
 Multiplicity           Mult            ....    1
 Number of Electrons    NEL             ....  134
 Basis Dimension        Dim             ....  322

ORBITAL ENERGIES
----------------

  NO   OCC          E(Eh)            E(eV)
   0   2.0000     -88.967389     -2420.9257
   1   2.0000     -88.961849     -2420.7750
   2   2.0000     -10.322458      -280.8884
   3   2.0000     -10.322232      -280.8822
   4   2.0000     -10.311649      -280.5942
   5   2.0000     -10.308816      -280.5172
   6   2.0000     -10.307453      -280.4801
   7   2.0000     -10.297519      -280.2097
   8   2.0000     -10.292902      -280.0841
   9   2.0000     -10.291726      -280.0521
  10   2.0000     -10.291101      -280.0351
  11   2.0000     -10.289346      -279.9873
  12   2.0000     -10.285852      -279.8923
  13   2.0000     -10.285699      -279.8881
  14   2.0000     -10.280911      -279.7578
  15   2.0000     -10.280833      -279.7557
  16   2.0000      -8.082616      -219.9392
  17   2.0000      -8.076724      -219.7788
  18   2.0000      -6.041083      -164.3862
  19   2.0000      -6.036991      -164.2749
  20   2.0000      -6.035271      -164.2281
  21   2.0000      -6.033465      -164.1789
  22   2.0000      -6.031264      -164.1190
  23   2.0000      -6.027366      -164.0130
  24   2.0000      -1.010348       -27.4930
  25   2.0000      -0.987054       -26.8591
  26   2.0000      -0.915681       -24.9169
  27   2.0000      -0.904639       -24.6165
  28   2.0000      -0.869267       -23.6539
  29   2.0000      -0.849464       -23.1151
  30   2.0000      -0.841500       -22.8984
  31   2.0000      -0.814737       -22.1701
  32   2.0000      -0.787105       -21.4182
  33   2.0000      -0.774290       -21.0695
  34   2.0000      -0.709181       -19.2978
  35   2.0000      -0.706785       -19.2326
  36   2.0000      -0.699333       -19.0298
  37   2.0000      -0.654454       -17.8086
  38   2.0000      -0.633207       -17.2304
  39   2.0000      -0.612474       -16.6663
  40   2.0000      -0.599331       -16.3086
  41   2.0000      -0.578133       -15.7318
  42   2.0000      -0.559962       -15.2374
  43   2.0000      -0.550257       -14.9733
  44   2.0000      -0.538277       -14.6473
  45   2.0000      -0.532640       -14.4939
  46   2.0000      -0.517683       -14.0869
  47   2.0000      -0.506175       -13.7737
  48   2.0000      -0.504827       -13.7370
  49   2.0000      -0.496406       -13.5079
  50   2.0000      -0.493366       -13.4252
  51   2.0000      -0.477627       -12.9969
  52   2.0000      -0.469136       -12.7658
  53   2.0000      -0.464774       -12.6471
  54   2.0000      -0.456944       -12.4341
  55   2.0000      -0.448223       -12.1968
  56   2.0000      -0.445969       -12.1354
  57   2.0000      -0.439885       -11.9699
  58   2.0000      -0.432076       -11.7574
  59   2.0000      -0.431105       -11.7310
  60   2.0000      -0.421048       -11.4573
  61   2.0000      -0.420086       -11.4311
  62   2.0000      -0.411517       -11.1979
  63   2.0000      -0.340929        -9.2771
  64   2.0000      -0.326577        -8.8866
  65   2.0000      -0.324289        -8.8244
  66   2.0000      -0.299272        -8.1436
  67   0.0000       0.034391         0.9358
  68   0.0000       0.067742         1.8434
  69   0.0000       0.118865         3.2345
  70   0.0000       0.124891         3.3984
  71   0.0000       0.136356         3.7104

MULLIKEN ATOMIC CHARGES
-----------------------
   0 S :    0.101082
   1 C :   -0.116757
   2 C :   -0.132305
   3 C :    0.035310
   4 C :   -0.173079
   5 H :    0.007909
   6 C :    0.099313
   7 H :    0.029219
   8 H :    0.003864
   9 C :   -0.085934
  10 H :    0.035921
  11 H :    0.022212
  12 C :   -0.044875
  13 H :    0.034304
  14 H :    0.047411
  15 H :    0.035175
  16 S :    0.133814
  17 C :   -0.048849
  18 C :   -0.037812
  19 C :   -0.066845
  20 C :   -0.162959
  21 H :    0.006024
  22 C :    0.120334
  23 H :    0.029566
  24 H :    0.021497
  25 C :   -0.078331
  26 H :    0.036053
  27 H :    0.041008
  28 C :   -0.102890
  29 H :    0.025386
  30 H :    0.054624
  31 H :    0.039945
  32 H :    0.058639
  33 H :    0.032028
Sum of atomic charges:    0.0000000

LOEWDIN ATOMIC CHARGES
----------------------
   0 S :    0.402335
   1 C :   -0.214253
   2 C :   -0.071027
   3 C :   -0.059534
   4 C :   -0.195988
   5 H :    0.031173
   6 C :   -0.034990
   7 H :    0.030942
   8 H :    0.028451
   9 C :   -0.040260
  10 H :    0.029519
  11 H :    0.020194
  12 C :   -0.062100
  13 H :    0.028229
  14 H :    0.028844
  15 H :    0.025671
  16 S :    0.433334
  17 C :   -0.193198
  18 C :   -0.069299
  19 C :   -0.041737
  20 C :   -0.216077
  21 H :    0.023589
  22 C :   -0.032778
  23 H :    0.039679
  24 H :    0.028901
  25 C :   -0.038010
  26 H :    0.032252
  27 H :    0.022492
  28 C :   -0.075805
  29 H :    0.014460
  30 H :    0.032759
  31 H :    0.031862
  32 H :    0.039803
  33 H :    0.020566

  Mayer bond orders larger than 0.100000
B(  0-S ,  1-C ) :   1.1297 B(  0-S ,  4-C ) :   1.1396 B(  1-C ,  2-C ) :   1.6280
B(  1-C , 32-H ) :   0.9576 B(  2-C ,  3-C ) :   1.2525 B(  2-C ,  6-C ) :   1.0073
B(  3-C ,  4-C ) :   1.5891 B(  3-C ,  5-H ) :   0.9965 B(  4-C , 20-C ) :   1.0243
B(  6-C ,  7-H ) :   0.9276 B(  6-C ,  8-H ) :   0.9311 B(  6-C ,  9-C ) :   1.0777
B(  9-C , 10-H ) :   0.9538 B(  9-C , 11-H ) :   0.9537 B(  9-C , 12-C ) :   1.0760
B( 12-C , 13-H ) :   0.9752 B( 12-C , 14-H ) :   0.9724 B( 12-C , 15-H ) :   0.9771
B( 16-S , 17-C ) :   1.1616 B( 16-S , 20-C ) :   1.1581 B( 17-C , 18-C ) :   1.5864
B( 17-C , 33-H ) :   0.9724 B( 18-C , 19-C ) :   1.2721 B( 18-C , 21-H ) :   0.9821
B( 19-C , 20-C ) :   1.5775 B( 19-C , 22-C ) :   1.0239 B( 22-C , 23-H ) :   0.9314
B( 22-C , 24-H ) :   0.9209 B( 22-C , 25-C ) :   1.0714 B( 25-C , 26-H ) :   0.9536
B( 25-C , 27-H ) :   0.9573 B( 25-C , 28-C ) :   1.0681 B( 28-C , 29-H ) :   0.9779
B( 28-C , 30-H ) :   0.9769 B( 28-C , 31-H ) :   0.9744

Dispersion correction           -0.014238115
FINAL SINGLE POINT ENERGY     -1339.873496084880

DIPOLE MOMENT
-------------
                                X             Y             Z
Electronic contribution:    -17.58112     -11.19989      12.05693
Nuclear contribution   :     17.74570      11.76037     -12.43008
                        -----------------------------------------
Total Dipole Moment    :      0.16458       0.56048      -0.37314
                        -----------------------------------------
Magnitude (a.u.)       :      0.69315
Magnitude (Debye)      :      1.76185

Rotational constants in cm-1:     0.020971     0.007680     0.006392
Rotational constants in MHz :   628.702589   230.234209   191.628762

                             ****ORCA TERMINATED NORMALLY****
TOTAL RUN TIME: 0 days 0 hours 0 minutes 34 seconds 102 msec
