                         Program Version 4.2.1 -  RELEASE  -
|  1> ! wB97X-D3 SP def2-SVP
|  2> %pal
|  3> nprocs 16
|  4> end
|  5>
|  6> * xyz 0 1
|  7> S 	 54.0496 	 16.2786 	 51.4254
|  8> C 	 55.0442 	 16.8446 	 52.6905
|  9> C 	 54.4114 	 17.5744 	 53.6541
| 10> C 	 53.0481 	 17.763 	 53.2988
| 11> C 	 52.672 	 17.1439 	 52.0844
| 12> H 	 52.3233 	 18.42 	 53.8041
| 13> C 	 54.9443 	 17.9846 	 54.9463
| 14> H 	 55.7279 	 17.3301 	 55.3029
| 15> H 	 54.1386 	 17.8589 	 55.5913
| 16> C 	 55.3336 	 19.4574 	 55.0876
| 17> H 	 54.4652 	 20.0728 	 54.8487
| 18> H 	 55.7719 	 19.6124 	 56.0647
| 19> C 	 56.4397 	 19.9273 	 54.112
| 20> H 	 56.0935 	 19.8763 	 53.1025
| 21> H 	 56.5745 	 21.0046 	 54.2159
| 22> H 	 57.4247 	 19.5173 	 54.1346
| 23> S 	 51.2663 	 16.7808 	 49.8735
| 24> C 	 49.5438 	 17.1004 	 49.8594
| 25> C 	 49.0644 	 17.255 	 51.1182
| 26> C 	 50.1089 	 17.3155 	 52.0976
| 27> C 	 51.3604 	 17.1737 	 51.5181
| 28> H 	 47.9985 	 17.2896 	 51.3668
| 29> C 	 49.8316 	 17.4533 	 53.6004
| 30> H 	 50.0777 	 18.502 	 53.7685
| 31> H 	 50.6297 	 16.9327 	 54.1409
| 32> C 	 48.5335 	 16.8871 	 54.1351
| 33> H 	 48.3295 	 16.0048 	 53.5648
| 34> H 	 47.6922 	 17.4567 	 53.8315
| 35> C 	 48.4662 	 16.6656 	 55.7136
| 36> H 	 49.2759 	 16.0052 	 55.8294
| 37> H 	 47.5295 	 16.1245 	 55.9991
| 38> H 	 48.5361 	 17.5797 	 56.3213
| 39> H 	 56.0443 	 16.432 	 52.869
| 40> H 	 48.8553 	 16.9626 	 49.0008
| 41> *
| 42>
| 43>                          ****END OF INPUT****

CARTESIAN COORDINATES (ANGSTROEM)
---------------------------------
  S     54.049600   16.278600   51.425400
  C     55.044200   16.844600   52.690500
  C     54.411400   17.574400   53.654100
  C     53.048100   17.763000   53.298800
  C     52.672000   17.143900   52.084400
  H     52.323300   18.420000   53.804100
  C     54.944300   17.984600   54.946300
  H     55.727900   17.330100   55.302900
  H     54.138600   17.858900   55.591300
  C     55.333600   19.457400   55.087600
  H     54.465200   20.072800   54.848700
  H     55.771900   19.612400   56.064700
  C     56.439700   19.927300   54.112000
  H     56.093500   19.876300   53.102500
  H     56.574500   21.004600   54.215900
  H     57.424700   19.517300   54.134600
  S     51.266300   16.780800   49.873500
  C     49.543800   17.100400   49.859400
  C     49.064400   17.255000   51.118200
  C     50.108900   17.315500   52.097600
  C     51.360400   17.173700   51.518100
  H     47.998500   17.289600   51.366800
  C     49.831600   17.453300   53.600400
  H     50.077700   18.502000   53.768500
  H     50.629700   16.932700   54.140900
  C     48.533500   16.887100   54.135100
  H     48.329500   16.004800   53.564800
  H     47.692200   17.456700   53.831500
  C     48.466200   16.665600   55.713600
  H     49.275900   16.005200   55.829400
  H     47.529500   16.124500   55.999100
  H     48.536100   17.579700   56.321300
  H     56.044300   16.432000   52.869000
  H     48.855300   16.962600   49.000800

 Total Charge           Charge          ....    0
 Multiplicity           Mult            ....    1
 Number of Electrons    NEL             ....  134
 Basis Dimension        Dim             ....  322

ORBITAL ENERGIES
----------------

  NO   OCC          E(Eh)            E(eV)
   0   2.0000     -88.968671     -2420.9606
   1   2.0000     -88.963987     -2420.8331
   2   2.0000     -10.329238      -281.0729
   3   2.0000     -10.320026      -280.8222
   4   2.0000     -10.315662      -280.7034
   5   2.0000     -10.307343      -280.4771
   6   2.0000     -10.302600      -280.3480
   7   2.0000     -10.294358      -280.1237
   8   2.0000     -10.293466      -280.0994
   9   2.0000     -10.293414      -280.0980
  10   2.0000     -10.292847      -280.0826
  11   2.0000     -10.287851      -279.9467
  12   2.0000     -10.286468      -279.9090
  13   2.0000     -10.286369      -279.9063
  14   2.0000     -10.280853      -279.7562
  15   2.0000     -10.266615      -279.3688
  16   2.0000      -8.083966      -219.9759
  17   2.0000      -8.080083      -219.8702
  18   2.0000      -6.042482      -164.4243
  19   2.0000      -6.038560      -164.3176
  20   2.0000      -6.038442      -164.3144
  21   2.0000      -6.034657      -164.2114
  22   2.0000      -6.034604      -164.2099
  23   2.0000      -6.030591      -164.1007
  24   2.0000      -1.016067       -27.6486
  25   2.0000      -0.991500       -26.9801
  26   2.0000      -0.919623       -25.0242
  27   2.0000      -0.909543       -24.7499
  28   2.0000      -0.875237       -23.8164
  29   2.0000      -0.854354       -23.2481
  30   2.0000      -0.845987       -23.0205
  31   2.0000      -0.813702       -22.1420
  32   2.0000      -0.787487       -21.4286
  33   2.0000      -0.775581       -21.1046
  34   2.0000      -0.717679       -19.5290
  35   2.0000      -0.704092       -19.1593
  36   2.0000      -0.697834       -18.9890
  37   2.0000      -0.659307       -17.9407
  38   2.0000      -0.634042       -17.2532
  39   2.0000      -0.623905       -16.9773
  40   2.0000      -0.597532       -16.2597
  41   2.0000      -0.571218       -15.5436
  42   2.0000      -0.569250       -15.4901
  43   2.0000      -0.553182       -15.0529
  44   2.0000      -0.541852       -14.7445
  45   2.0000      -0.524650       -14.2765
  46   2.0000      -0.522226       -14.2105
  47   2.0000      -0.514201       -13.9921
  48   2.0000      -0.502562       -13.6754
  49   2.0000      -0.498678       -13.5697
  50   2.0000      -0.488445       -13.2913
  51   2.0000      -0.484561       -13.1856
  52   2.0000      -0.467867       -12.7313
  53   2.0000      -0.465593       -12.6694
  54   2.0000      -0.464290       -12.6340
  55   2.0000      -0.454702       -12.3731
  56   2.0000      -0.449708       -12.2372
  57   2.0000      -0.434306       -11.8181
  58   2.0000      -0.432727       -11.7751
  59   2.0000      -0.431012       -11.7284
  60   2.0000      -0.422381       -11.4936
  61   2.0000      -0.417863       -11.3706
  62   2.0000      -0.415085       -11.2950
  63   2.0000      -0.364241        -9.9115
  64   2.0000      -0.333824        -9.0838
  65   2.0000      -0.326971        -8.8973
  66   2.0000      -0.279355        -7.6016
  67   0.0000       0.023307         0.6342
  68   0.0000       0.083421         2.2700
  69   0.0000       0.101709         2.7676
  70   0.0000       0.124675         3.3926
  71   0.0000       0.139674         3.8007

MULLIKEN ATOMIC CHARGES
-----------------------
   0 S :    0.121135
   1 C :   -0.122178
   2 C :   -0.081034
   3 C :   -0.039641
   4 C :   -0.125317
   5 H :    0.015498
   6 C :    0.125966
   7 H :    0.016542
   8 H :    0.006558
   9 C :   -0.059093
  10 H :    0.030774
  11 H :    0.033402
  12 C :   -0.059601
  13 H :    0.026666
  14 H :    0.021301
  15 H :    0.026041
  16 S :    0.098797
  17 C :   -0.082646
  18 C :   -0.045418
  19 C :   -0.090077
  20 C :   -0.133764
  21 H :    0.024774
  22 C :    0.052894
  23 H :    0.045548
  24 H :    0.024836
  25 C :   -0.060569
  26 H :    0.023436
  27 H :    0.014795
  28 C :   -0.042304
  29 H :    0.029318
  30 H :    0.042582
  31 H :    0.048989
  32 H :    0.048172
  33 H :    0.063616
Sum of atomic charges:   -0.0000000

LOEWDIN ATOMIC CHARGES
----------------------
   0 S :    0.417767
   1 C :   -0.211418
   2 C :   -0.066662
   3 C :   -0.067915
   4 C :   -0.190919
   5 H :    0.031181
   6 C :   -0.029960
   7 H :    0.030501
   8 H :    0.027396
   9 C :   -0.028089
  10 H :    0.027858
  11 H :    0.025420
  12 C :   -0.072065
  13 H :    0.022001
  14 H :    0.026924
  15 H :    0.018927
  16 S :    0.422804
  17 C :   -0.191750
  18 C :   -0.073845
  19 C :   -0.056894
  20 C :   -0.213121
  21 H :    0.035573
  22 C :   -0.037784
  23 H :    0.031712
  24 H :    0.030964
  25 C :   -0.041591
  26 H :    0.025646
  27 H :    0.014344
  28 C :   -0.057352
  29 H :    0.018931
  30 H :    0.034058
  31 H :    0.029899
  32 H :    0.030187
  33 H :    0.037271

  Mayer bond orders larger than 0.100000
B(  0-S ,  1-C ) :   1.1414 B(  0-S ,  4-C ) :   1.1469 B(  1-C ,  2-C ) :   1.6060
B(  1-C , 32-H ) :   0.9569 B(  2-C ,  3-C ) :   1.2521 B(  2-C ,  6-C ) :   1.0277
B(  3-C ,  4-C ) :   1.5454 B(  3-C ,  5-H ) :   0.9845 B(  4-C , 20-C ) :   1.1124
B(  6-C ,  7-H ) :   0.9360 B(  6-C ,  8-H ) :   0.9276 B(  6-C ,  9-C ) :   1.0793
B(  9-C , 10-H ) :   0.9539 B(  9-C , 11-H ) :   0.9571 B(  9-C , 12-C ) :   1.0806
B( 12-C , 13-H ) :   0.9716 B( 12-C , 14-H ) :   0.9722 B( 12-C , 15-H ) :   0.9779
B( 16-S , 17-C ) :   1.1459 B( 16-S , 20-C ) :   1.1414 B( 17-C , 18-C ) :   1.6100
B( 17-C , 33-H ) :   0.9610 B( 18-C , 19-C ) :   1.2604 B( 18-C , 21-H ) :   0.9862
B( 19-C , 20-C ) :   1.5722 B( 19-C , 22-C ) :   1.0262 B( 22-C , 23-H ) :   0.9215
B( 22-C , 24-H ) :   0.9328 B( 22-C , 25-C ) :   1.0618 B( 25-C , 26-H ) :   0.9555
B( 25-C , 27-H ) :   0.9425 B( 25-C , 28-C ) :   1.0704 B( 28-C , 29-H ) :   0.9791
B( 28-C , 30-H ) :   0.9751 B( 28-C , 31-H ) :   0.9783

Dispersion correction           -0.013870565
FINAL SINGLE POINT ENERGY     -1339.873741565372

DIPOLE MOMENT
-------------
                                X             Y             Z
Electronic contribution:      1.93734      -9.87475     -25.25845
Nuclear contribution   :     -2.22530       9.93758      25.91533
                        -----------------------------------------
Total Dipole Moment    :     -0.28796       0.06282       0.65688
                        -----------------------------------------
Magnitude (a.u.)       :      0.71997
Magnitude (Debye)      :      1.83001

Rotational constants in cm-1:     0.017660     0.008825     0.006524
Rotational constants in MHz :   529.436121   264.578737   195.594283

                             ****ORCA TERMINATED NORMALLY****
TOTAL RUN TIME: 0 days 0 hours 0 minutes 30 seconds 422 msec
