                         Program Version 4.2.1 -  RELEASE  -
|  1> ! wB97X-D3 SP def2-SVP
|  2> %pal
|  3> nprocs 16
|  4> end
|  5>
|  6> * xyz 0 1
|  7> S 	 5.99576 	 -19.6721 	 78.0216
|  8> C 	 5.61809 	 -20.0811 	 79.6779
|  9> C 	 4.54347 	 -19.3561 	 80.1455
| 10> C 	 4.27161 	 -18.2281 	 79.3202
| 11> C 	 4.99873 	 -18.235 	 78.1362
| 12> H 	 3.51197 	 -17.5039 	 79.3927
| 13> C 	 3.68272 	 -19.675 	 81.3833
| 14> H 	 3.7443 	 -18.8211 	 82.0822
| 15> H 	 4.16892 	 -20.5076 	 81.9497
| 16> C 	 2.21702 	 -19.8258 	 81.0829
| 17> H 	 1.69411 	 -18.8506 	 80.9485
| 18> H 	 2.06358 	 -20.2467 	 80.1422
| 19> C 	 1.3658 	 -20.5409 	 82.2134
| 20> H 	 1.73276 	 -21.5805 	 82.2855
| 21> H 	 1.46496 	 -19.9942 	 83.1625
| 22> H 	 0.299516 	 -20.6395 	 82.0382
| 23> S 	 4.63571 	 -17.5843 	 75.4586
| 24> C 	 4.33548 	 -15.9494 	 75.1105
| 25> C 	 4.52238 	 -15.0538 	 76.1243
| 26> C 	 4.8498 	 -15.7861 	 77.3225
| 27> C 	 4.92454 	 -17.1567 	 77.1397
| 28> H 	 4.39387 	 -14.0153 	 75.9496
| 29> C 	 5.05188 	 -15.0931 	 78.6474
| 30> H 	 4.6952 	 -15.5675 	 79.556
| 31> H 	 4.3397 	 -14.3089 	 78.6708
| 32> C 	 6.50178 	 -14.6368 	 78.9038
| 33> H 	 6.74816 	 -13.8084 	 78.1738
| 34> H 	 7.2081 	 -15.441 	 78.6347
| 35> C 	 6.90517 	 -14.3078 	 80.3023
| 36> H 	 7.65654 	 -13.4926 	 80.2538
| 37> H 	 7.35394 	 -15.0523 	 80.9389
| 38> H 	 6.08669 	 -13.9361 	 80.8902
| 39> H 	 5.9041 	 -20.9605 	 80.2623
| 40> H 	 4.0086 	 -15.6649 	 74.153
| 41> *
| 42>
| 43>                          ****END OF INPUT****

CARTESIAN COORDINATES (ANGSTROEM)
---------------------------------
  S      5.995760  -19.672100   78.021600
  C      5.618090  -20.081100   79.677900
  C      4.543470  -19.356100   80.145500
  C      4.271610  -18.228100   79.320200
  C      4.998730  -18.235000   78.136200
  H      3.511970  -17.503900   79.392700
  C      3.682720  -19.675000   81.383300
  H      3.744300  -18.821100   82.082200
  H      4.168920  -20.507600   81.949700
  C      2.217020  -19.825800   81.082900
  H      1.694110  -18.850600   80.948500
  H      2.063580  -20.246700   80.142200
  C      1.365800  -20.540900   82.213400
  H      1.732760  -21.580500   82.285500
  H      1.464960  -19.994200   83.162500
  H      0.299516  -20.639500   82.038200
  S      4.635710  -17.584300   75.458600
  C      4.335480  -15.949400   75.110500
  C      4.522380  -15.053800   76.124300
  C      4.849800  -15.786100   77.322500
  C      4.924540  -17.156700   77.139700
  H      4.393870  -14.015300   75.949600
  C      5.051880  -15.093100   78.647400
  H      4.695200  -15.567500   79.556000
  H      4.339700  -14.308900   78.670800
  C      6.501780  -14.636800   78.903800
  H      6.748160  -13.808400   78.173800
  H      7.208100  -15.441000   78.634700
  C      6.905170  -14.307800   80.302300
  H      7.656540  -13.492600   80.253800
  H      7.353940  -15.052300   80.938900
  H      6.086690  -13.936100   80.890200
  H      5.904100  -20.960500   80.262300
  H      4.008600  -15.664900   74.153000

 Total Charge           Charge          ....    0
 Multiplicity           Mult            ....    1
 Number of Electrons    NEL             ....  134
 Basis Dimension        Dim             ....  322

ORBITAL ENERGIES
----------------

  NO   OCC          E(Eh)            E(eV)
   0   2.0000     -88.968508     -2420.9562
   1   2.0000     -88.964875     -2420.8573
   2   2.0000     -10.328934      -281.0646
   3   2.0000     -10.325082      -280.9598
   4   2.0000     -10.312212      -280.6096
   5   2.0000     -10.310114      -280.5525
   6   2.0000     -10.305390      -280.4239
   7   2.0000     -10.300927      -280.3025
   8   2.0000     -10.298264      -280.2300
   9   2.0000     -10.293091      -280.0892
  10   2.0000     -10.287391      -279.9342
  11   2.0000     -10.286350      -279.9058
  12   2.0000     -10.284537      -279.8565
  13   2.0000     -10.284409      -279.8530
  14   2.0000     -10.283937      -279.8401
  15   2.0000     -10.270817      -279.4831
  16   2.0000      -8.082987      -219.9493
  17   2.0000      -8.080969      -219.8944
  18   2.0000      -6.041593      -164.4001
  19   2.0000      -6.039226      -164.3357
  20   2.0000      -6.037688      -164.2938
  21   2.0000      -6.035448      -164.2329
  22   2.0000      -6.033512      -164.1802
  23   2.0000      -6.031770      -164.1328
  24   2.0000      -1.009075       -27.4583
  25   2.0000      -0.987817       -26.8799
  26   2.0000      -0.909260       -24.7422
  27   2.0000      -0.908822       -24.7303
  28   2.0000      -0.869231       -23.6530
  29   2.0000      -0.856313       -23.3015
  30   2.0000      -0.844659       -22.9844
  31   2.0000      -0.814799       -22.1718
  32   2.0000      -0.785423       -21.3724
  33   2.0000      -0.774061       -21.0633
  34   2.0000      -0.708573       -19.2812
  35   2.0000      -0.697624       -18.9833
  36   2.0000      -0.692433       -18.8421
  37   2.0000      -0.665704       -18.1147
  38   2.0000      -0.639446       -17.4002
  39   2.0000      -0.620658       -16.8890
  40   2.0000      -0.603109       -16.4114
  41   2.0000      -0.574906       -15.6440
  42   2.0000      -0.558810       -15.2060
  43   2.0000      -0.550772       -14.9873
  44   2.0000      -0.526589       -14.3292
  45   2.0000      -0.524147       -14.2628
  46   2.0000      -0.511306       -13.9133
  47   2.0000      -0.510154       -13.8820
  48   2.0000      -0.505833       -13.7644
  49   2.0000      -0.500948       -13.6315
  50   2.0000      -0.496791       -13.5184
  51   2.0000      -0.478871       -13.0308
  52   2.0000      -0.474323       -12.9070
  53   2.0000      -0.469025       -12.7628
  54   2.0000      -0.458757       -12.4834
  55   2.0000      -0.451921       -12.2974
  56   2.0000      -0.444330       -12.0908
  57   2.0000      -0.439231       -11.9521
  58   2.0000      -0.432153       -11.7595
  59   2.0000      -0.426586       -11.6080
  60   2.0000      -0.425218       -11.5708
  61   2.0000      -0.411347       -11.1933
  62   2.0000      -0.396004       -10.7758
  63   2.0000      -0.350896        -9.5484
  64   2.0000      -0.334280        -9.0962
  65   2.0000      -0.329293        -8.9605
  66   2.0000      -0.287356        -7.8194
  67   0.0000       0.031311         0.8520
  68   0.0000       0.070446         1.9169
  69   0.0000       0.108851         2.9620
  70   0.0000       0.122562         3.3351
  71   0.0000       0.133353         3.6287

MULLIKEN ATOMIC CHARGES
-----------------------
   0 S :    0.115685
   1 C :   -0.112348
   2 C :   -0.099115
   3 C :    0.021715
   4 C :   -0.132471
   5 H :    0.005016
   6 C :    0.079691
   7 H :    0.031748
   8 H :    0.022600
   9 C :   -0.076977
  10 H :    0.030637
  11 H :    0.022396
  12 C :   -0.069885
  13 H :    0.036450
  14 H :    0.037215
  15 H :    0.036828
  16 S :    0.110056
  17 C :   -0.069668
  18 C :   -0.011294
  19 C :   -0.063860
  20 C :   -0.140378
  21 H :    0.010267
  22 C :    0.094427
  23 H :    0.006154
  24 H :    0.001739
  25 C :   -0.082330
  26 H :    0.031290
  27 H :    0.038570
  28 C :   -0.035066
  29 H :    0.029211
  30 H :    0.037242
  31 H :    0.014158
  32 H :    0.046467
  33 H :    0.033830
Sum of atomic charges:   -0.0000000

LOEWDIN ATOMIC CHARGES
----------------------
   0 S :    0.402416
   1 C :   -0.207655
   2 C :   -0.059740
   3 C :   -0.058058
   4 C :   -0.187285
   5 H :    0.023083
   6 C :   -0.034046
   7 H :    0.034718
   8 H :    0.031182
   9 C :   -0.042683
  10 H :    0.028850
  11 H :    0.015165
  12 C :   -0.066271
  13 H :    0.026231
  14 H :    0.026659
  15 H :    0.026000
  16 S :    0.417066
  17 C :   -0.180329
  18 C :   -0.065776
  19 C :   -0.047222
  20 C :   -0.197271
  21 H :    0.031567
  22 C :   -0.038507
  23 H :    0.027925
  24 H :    0.024413
  25 C :   -0.046710
  26 H :    0.027837
  27 H :    0.033244
  28 C :   -0.071178
  29 H :    0.033822
  30 H :    0.026071
  31 H :    0.018600
  32 H :    0.032223
  33 H :    0.015657

  Mayer bond orders larger than 0.100000
B(  0-S ,  1-C ) :   1.1270 B(  0-S ,  4-C ) :   1.1437 B(  1-C ,  2-C ) :   1.6385
B(  1-C , 32-H ) :   0.9579 B(  2-C ,  3-C ) :   1.2185 B(  2-C ,  6-C ) :   1.0293
B(  3-C ,  4-C ) :   1.5857 B(  3-C ,  5-H ) :   0.9969 B(  4-C , 20-C ) :   1.0329
B(  6-C ,  7-H ) :   0.9339 B(  6-C ,  8-H ) :   0.9471 B(  6-C ,  9-C ) :   1.0484
B(  9-C , 10-H ) :   0.9482 B(  9-C , 11-H ) :   0.9649 B(  9-C , 12-C ) :   1.0774
B( 12-C , 13-H ) :   0.9787 B( 12-C , 14-H ) :   0.9765 B( 12-C , 15-H ) :   0.9776
B( 16-S , 17-C ) :   1.1779 B( 16-S , 20-C ) :   1.1258 B( 17-C , 18-C ) :   1.6123
B( 17-C , 33-H ) :   0.9688 B( 18-C , 19-C ) :   1.2175 B( 18-C , 21-H ) :   1.0043
B( 19-C , 20-C ) :   1.6248 B( 19-C , 22-C ) :   1.0459 B( 22-C , 23-H ) :   0.9353
B( 22-C , 24-H ) :   0.9174 B( 22-C , 25-C ) :   1.0559 B( 25-C , 26-H ) :   0.9589
B( 25-C , 27-H ) :   0.9593 B( 25-C , 28-C ) :   1.0787 B( 28-C , 29-H ) :   0.9712
B( 28-C , 30-H ) :   0.9765 B( 28-C , 31-H ) :   0.9727

Dispersion correction           -0.014004086
FINAL SINGLE POINT ENERGY     -1339.867722057143

DIPOLE MOMENT
-------------
                                X             Y             Z
Electronic contribution:      7.18440      -7.72916     -25.08568
Nuclear contribution   :     -7.61526       8.07106      25.48393
                        -----------------------------------------
Total Dipole Moment    :     -0.43086       0.34190       0.39825
                        -----------------------------------------
Magnitude (a.u.)       :      0.67907
Magnitude (Debye)      :      1.72606

Rotational constants in cm-1:     0.017045     0.008335     0.007163
Rotational constants in MHz :   510.994829   249.889838   214.754509

                             ****ORCA TERMINATED NORMALLY****
TOTAL RUN TIME: 0 days 0 hours 0 minutes 35 seconds 394 msec
