                         Program Version 4.2.1 -  RELEASE  -
|  1> ! wB97X-D3 SP def2-SVP
|  2> %pal
|  3> nprocs 16
|  4> end
|  5>
|  6> * xyz 0 1
|  7> S 	 13.4345 	 -12.054 	 78.7284
|  8> C 	 13.7318 	 -13.7376 	 79.1755
|  9> C 	 13.7987 	 -14.6276 	 78.0562
| 10> C 	 13.6611 	 -13.909 	 76.8383
| 11> C 	 13.4648 	 -12.5002 	 77.0182
| 12> H 	 13.7597 	 -14.3681 	 75.8958
| 13> C 	 13.9098 	 -16.1466 	 78.1881
| 14> H 	 14.9392 	 -16.5073 	 78.4757
| 15> H 	 13.7247 	 -16.5393 	 77.1837
| 16> C 	 12.8463 	 -16.7176 	 79.1846
| 17> H 	 13.1975 	 -16.6643 	 80.2114
| 18> H 	 11.9632 	 -16.0436 	 79.1696
| 19> C 	 12.5817 	 -18.2295 	 78.7092
| 20> H 	 13.4589 	 -18.7636 	 78.6963
| 21> H 	 11.9926 	 -18.6833 	 79.5409
| 22> H 	 12.0245 	 -18.4222 	 77.7623
| 23> S 	 12.0319 	 -10.2562 	 76.2342
| 24> C 	 12.1474 	 -9.67738 	 74.5861
| 25> C 	 13.1153 	 -10.3436 	 73.9029
| 26> C 	 13.7447 	 -11.4037 	 74.6186
| 27> C 	 13.1942 	 -11.5884 	 75.8992
| 28> H 	 13.276 	 -10.1008 	 72.8689
| 29> C 	 14.8135 	 -12.2294 	 73.9816
| 30> H 	 15.3862 	 -12.7641 	 74.7905
| 31> H 	 15.6313 	 -11.656 	 73.4983
| 32> C 	 14.1892 	 -13.4058 	 73.1275
| 33> H 	 13.8254 	 -12.8006 	 72.2874
| 34> H 	 13.3178 	 -13.9111 	 73.6428
| 35> C 	 15.0922 	 -14.4543 	 72.4983
| 36> H 	 15.9655 	 -14.0115 	 71.9488
| 37> H 	 14.4802 	 -15.1377 	 71.89
| 38> H 	 15.5493 	 -15.1582 	 73.1704
| 39> H 	 13.7091 	 -14.0808 	 80.2487
| 40> H 	 11.541 	 -8.91368 	 74.1062
| 41> *
| 42>
| 43>                          ****END OF INPUT****

CARTESIAN COORDINATES (ANGSTROEM)
---------------------------------
  S     13.434500  -12.054000   78.728400
  C     13.731800  -13.737600   79.175500
  C     13.798700  -14.627600   78.056200
  C     13.661100  -13.909000   76.838300
  C     13.464800  -12.500200   77.018200
  H     13.759700  -14.368100   75.895800
  C     13.909800  -16.146600   78.188100
  H     14.939200  -16.507300   78.475700
  H     13.724700  -16.539300   77.183700
  C     12.846300  -16.717600   79.184600
  H     13.197500  -16.664300   80.211400
  H     11.963200  -16.043600   79.169600
  C     12.581700  -18.229500   78.709200
  H     13.458900  -18.763600   78.696300
  H     11.992600  -18.683300   79.540900
  H     12.024500  -18.422200   77.762300
  S     12.031900  -10.256200   76.234200
  C     12.147400   -9.677380   74.586100
  C     13.115300  -10.343600   73.902900
  C     13.744700  -11.403700   74.618600
  C     13.194200  -11.588400   75.899200
  H     13.276000  -10.100800   72.868900
  C     14.813500  -12.229400   73.981600
  H     15.386200  -12.764100   74.790500
  H     15.631300  -11.656000   73.498300
  C     14.189200  -13.405800   73.127500
  H     13.825400  -12.800600   72.287400
  H     13.317800  -13.911100   73.642800
  C     15.092200  -14.454300   72.498300
  H     15.965500  -14.011500   71.948800
  H     14.480200  -15.137700   71.890000
  H     15.549300  -15.158200   73.170400
  H     13.709100  -14.080800   80.248700
  H     11.541000   -8.913680   74.106200

 Total Charge           Charge          ....    0
 Multiplicity           Mult            ....    1
 Number of Electrons    NEL             ....  134
 Basis Dimension        Dim             ....  322

ORBITAL ENERGIES
----------------

  NO   OCC          E(Eh)            E(eV)
   0   2.0000     -88.975640     -2421.1502
   1   2.0000     -88.963231     -2420.8126
   2   2.0000     -10.337847      -281.3071
   3   2.0000     -10.334157      -281.2067
   4   2.0000     -10.321986      -280.8755
   5   2.0000     -10.315196      -280.6908
   6   2.0000     -10.306475      -280.4534
   7   2.0000     -10.305594      -280.4295
   8   2.0000     -10.300034      -280.2782
   9   2.0000     -10.297344      -280.2050
  10   2.0000     -10.297300      -280.2038
  11   2.0000     -10.296941      -280.1940
  12   2.0000     -10.295194      -280.1465
  13   2.0000     -10.288822      -279.9731
  14   2.0000     -10.283353      -279.8243
  15   2.0000     -10.282787      -279.8088
  16   2.0000      -8.089017      -220.1133
  17   2.0000      -8.077451      -219.7986
  18   2.0000      -6.047554      -164.5623
  19   2.0000      -6.043687      -164.4571
  20   2.0000      -6.039868      -164.3532
  21   2.0000      -6.036067      -164.2497
  22   2.0000      -6.032092      -164.1416
  23   2.0000      -6.028065      -164.0320
  24   2.0000      -0.998429       -27.1686
  25   2.0000      -0.976369       -26.5683
  26   2.0000      -0.905080       -24.6285
  27   2.0000      -0.903618       -24.5887
  28   2.0000      -0.861930       -23.4543
  29   2.0000      -0.851883       -23.1809
  30   2.0000      -0.845791       -23.0151
  31   2.0000      -0.808327       -21.9957
  32   2.0000      -0.779909       -21.2224
  33   2.0000      -0.765912       -20.8415
  34   2.0000      -0.711743       -19.3675
  35   2.0000      -0.699791       -19.0423
  36   2.0000      -0.690607       -18.7924
  37   2.0000      -0.661367       -17.9967
  38   2.0000      -0.633901       -17.2493
  39   2.0000      -0.617122       -16.7928
  40   2.0000      -0.594892       -16.1878
  41   2.0000      -0.563816       -15.3422
  42   2.0000      -0.560802       -15.2602
  43   2.0000      -0.557485       -15.1700
  44   2.0000      -0.527102       -14.3432
  45   2.0000      -0.518722       -14.1152
  46   2.0000      -0.512653       -13.9500
  47   2.0000      -0.505928       -13.7670
  48   2.0000      -0.502549       -13.6750
  49   2.0000      -0.497599       -13.5404
  50   2.0000      -0.492374       -13.3982
  51   2.0000      -0.476498       -12.9662
  52   2.0000      -0.470821       -12.8117
  53   2.0000      -0.467744       -12.7280
  54   2.0000      -0.459344       -12.4994
  55   2.0000      -0.452476       -12.3125
  56   2.0000      -0.441115       -12.0034
  57   2.0000      -0.438827       -11.9411
  58   2.0000      -0.436789       -11.8856
  59   2.0000      -0.431259       -11.7352
  60   2.0000      -0.419873       -11.4253
  61   2.0000      -0.415895       -11.3171
  62   2.0000      -0.400595       -10.9007
  63   2.0000      -0.350057        -9.5255
  64   2.0000      -0.334346        -9.0980
  65   2.0000      -0.329066        -8.9543
  66   2.0000      -0.279519        -7.6061
  67   0.0000       0.018970         0.5162
  68   0.0000       0.070123         1.9081
  69   0.0000       0.101856         2.7717
  70   0.0000       0.123596         3.3632
  71   0.0000       0.128112         3.4861

MULLIKEN ATOMIC CHARGES
-----------------------
   0 S :    0.129531
   1 C :   -0.155443
   2 C :   -0.093731
   3 C :    0.033366
   4 C :   -0.123549
   5 H :   -0.018106
   6 C :    0.062991
   7 H :    0.054088
   8 H :    0.019909
   9 C :   -0.106969
  10 H :    0.037008
  11 H :    0.051531
  12 C :   -0.059016
  13 H :    0.019464
  14 H :    0.032425
  15 H :    0.054447
  16 S :    0.082589
  17 C :   -0.078294
  18 C :   -0.031236
  19 C :   -0.022835
  20 C :   -0.150784
  21 H :    0.013101
  22 C :    0.027112
  23 H :    0.022183
  24 H :    0.042038
  25 C :   -0.111693
  26 H :    0.027323
  27 H :    0.053566
  28 C :   -0.029692
  29 H :    0.038342
  30 H :    0.036279
  31 H :    0.016804
  32 H :    0.070475
  33 H :    0.056776
Sum of atomic charges:    0.0000000

LOEWDIN ATOMIC CHARGES
----------------------
   0 S :    0.408071
   1 C :   -0.211306
   2 C :   -0.060526
   3 C :   -0.056192
   4 C :   -0.191166
   5 H :    0.021170
   6 C :   -0.035289
   7 H :    0.039300
   8 H :    0.027542
   9 C :   -0.035842
  10 H :    0.022802
  11 H :    0.029262
  12 C :   -0.065636
  13 H :    0.012247
  14 H :    0.030077
  15 H :    0.033551
  16 S :    0.376821
  17 C :   -0.181572
  18 C :   -0.072832
  19 C :   -0.057090
  20 C :   -0.173541
  21 H :    0.029553
  22 C :   -0.043270
  23 H :    0.029759
  24 H :    0.036082
  25 C :   -0.048087
  26 H :    0.025477
  27 H :    0.032479
  28 C :   -0.073695
  29 H :    0.031891
  30 H :    0.032221
  31 H :    0.017677
  32 H :    0.035861
  33 H :    0.034199

  Mayer bond orders larger than 0.100000
B(  0-S ,  1-C ) :   1.1479 B(  0-S ,  4-C ) :   1.1615 B(  1-C ,  2-C ) :   1.5535
B(  1-C ,  4-C ) :   0.1059 B(  1-C , 32-H ) :   0.9611 B(  2-C ,  3-C ) :   1.3071
B(  2-C ,  6-C ) :   1.0189 B(  3-C ,  4-C ) :   1.4969 B(  3-C ,  5-H ) :   0.9957
B(  4-C , 20-C ) :   1.0810 B(  6-C ,  7-H ) :   0.9337 B(  6-C ,  8-H ) :   0.9505
B(  6-C ,  9-C ) :   1.0448 B(  9-C , 10-H ) :   0.9544 B(  9-C , 11-H ) :   0.9677
B(  9-C , 12-C ) :   1.0680 B( 12-C , 13-H ) :   0.9753 B( 12-C , 14-H ) :   0.9762
B( 12-C , 15-H ) :   0.9789 B( 16-S , 17-C ) :   1.1409 B( 16-S , 20-C ) :   1.1227
B( 17-C , 18-C ) :   1.6327 B( 17-C , 33-H ) :   0.9644 B( 18-C , 19-C ) :   1.2277
B( 18-C , 21-H ) :   0.9904 B( 19-C , 20-C ) :   1.5810 B( 19-C , 22-C ) :   1.0616
B( 22-C , 23-H ) :   0.9297 B( 22-C , 24-H ) :   0.9405 B( 22-C , 25-C ) :   1.0333
B( 25-C , 26-H ) :   0.9566 B( 25-C , 27-H ) :   0.9529 B( 25-C , 28-C ) :   1.0859
B( 28-C , 29-H ) :   0.9708 B( 28-C , 30-H ) :   0.9702 B( 28-C , 31-H ) :   0.9726

Dispersion correction           -0.013964585
FINAL SINGLE POINT ENERGY     -1339.868422199221

DIPOLE MOMENT
-------------
                                X             Y             Z
Electronic contribution:     -6.26902      28.39211       9.83503
Nuclear contribution   :      6.43450     -29.00112     -10.18305
                        -----------------------------------------
Total Dipole Moment    :      0.16549      -0.60902      -0.34802
                        -----------------------------------------
Magnitude (a.u.)       :      0.72070
Magnitude (Debye)      :      1.83187

Rotational constants in cm-1:     0.017641     0.008434     0.006231
Rotational constants in MHz :   528.849796   252.830234   186.788969

                             ****ORCA TERMINATED NORMALLY****
TOTAL RUN TIME: 0 days 0 hours 0 minutes 29 seconds 168 msec
