                         Program Version 4.2.1 -  RELEASE  -
|  1> ! wB97X-D3 SP def2-SVP
|  2> %pal
|  3> nprocs 16
|  4> end
|  5>
|  6> * xyz 0 1
|  7> S 	 -114.836 	 44.6047 	 134.096
|  8> C 	 -114.764 	 43.4104 	 135.327
|  9> C 	 -114.808 	 43.917 	 136.583
| 10> C 	 -114.994 	 45.3509 	 136.616
| 11> C 	 -114.963 	 45.8739 	 135.338
| 12> H 	 -115.147 	 45.9515 	 137.467
| 13> C 	 -114.572 	 43.1078 	 137.938
| 14> H 	 -115.509 	 42.4764 	 138.062
| 15> H 	 -114.619 	 43.8587 	 138.797
| 16> C 	 -113.261 	 42.3109 	 138.062
| 17> H 	 -113.13 	 42.1183 	 139.131
| 18> H 	 -113.408 	 41.3741 	 137.499
| 19> C 	 -111.973 	 43.0175 	 137.589
| 20> H 	 -111.081 	 42.3491 	 137.845
| 21> H 	 -111.964 	 43.2293 	 136.515
| 22> H 	 -111.87 	 43.9424 	 138.13
| 23> S 	 -113.896 	 47.7967 	 133.729
| 24> C 	 -114.293 	 49.4985 	 133.865
| 25> C 	 -115.319 	 49.6272 	 134.819
| 26> C 	 -115.725 	 48.4487 	 135.455
| 27> C 	 -115.012 	 47.3265 	 135.031
| 28> H 	 -115.513 	 50.6597 	 135.182
| 29> C 	 -116.702 	 48.4488 	 136.639
| 30> H 	 -116.307 	 49.0421 	 137.452
| 31> H 	 -116.923 	 47.5013 	 137.089
| 32> C 	 -118.089 	 49.1195 	 136.313
| 33> H 	 -117.846 	 50.1014 	 135.873
| 34> H 	 -118.696 	 49.36 	 137.271
| 35> C 	 -118.885 	 48.2326 	 135.335
| 36> H 	 -118.328 	 47.9615 	 134.413
| 37> H 	 -119.824 	 48.7735 	 135.076
| 38> H 	 -119.011 	 47.2434 	 135.773
| 39> H 	 -114.706 	 42.3066 	 135.262
| 40> H 	 -113.809 	 50.2758 	 133.301
| 41> *
| 42>
| 43>                          ****END OF INPUT****

CARTESIAN COORDINATES (ANGSTROEM)
---------------------------------
  S    -114.836000   44.604700  134.096000
  C    -114.764000   43.410400  135.327000
  C    -114.808000   43.917000  136.583000
  C    -114.994000   45.350900  136.616000
  C    -114.963000   45.873900  135.338000
  H    -115.147000   45.951500  137.467000
  C    -114.572000   43.107800  137.938000
  H    -115.509000   42.476400  138.062000
  H    -114.619000   43.858700  138.797000
  C    -113.261000   42.310900  138.062000
  H    -113.130000   42.118300  139.131000
  H    -113.408000   41.374100  137.499000
  C    -111.973000   43.017500  137.589000
  H    -111.081000   42.349100  137.845000
  H    -111.964000   43.229300  136.515000
  H    -111.870000   43.942400  138.130000
  S    -113.896000   47.796700  133.729000
  C    -114.293000   49.498500  133.865000
  C    -115.319000   49.627200  134.819000
  C    -115.725000   48.448700  135.455000
  C    -115.012000   47.326500  135.031000
  H    -115.513000   50.659700  135.182000
  C    -116.702000   48.448800  136.639000
  H    -116.307000   49.042100  137.452000
  H    -116.923000   47.501300  137.089000
  C    -118.089000   49.119500  136.313000
  H    -117.846000   50.101400  135.873000
  H    -118.696000   49.360000  137.271000
  C    -118.885000   48.232600  135.335000
  H    -118.328000   47.961500  134.413000
  H    -119.824000   48.773500  135.076000
  H    -119.011000   47.243400  135.773000
  H    -114.706000   42.306600  135.262000
  H    -113.809000   50.275800  133.301000

 Total Charge           Charge          ....    0
 Multiplicity           Mult            ....    1
 Number of Electrons    NEL             ....  134
 Basis Dimension        Dim             ....  322

ORBITAL ENERGIES
----------------

  NO   OCC          E(Eh)            E(eV)
   0   2.0000     -88.972869     -2421.0749
   1   2.0000     -88.964070     -2420.8354
   2   2.0000     -10.335682      -281.2482
   3   2.0000     -10.334080      -281.2046
   4   2.0000     -10.322138      -280.8797
   5   2.0000     -10.311619      -280.5934
   6   2.0000     -10.308587      -280.5109
   7   2.0000     -10.307112      -280.4708
   8   2.0000     -10.301692      -280.3233
   9   2.0000     -10.298655      -280.2407
  10   2.0000     -10.294473      -280.1268
  11   2.0000     -10.293782      -280.1081
  12   2.0000     -10.292529      -280.0739
  13   2.0000     -10.291257      -280.0393
  14   2.0000     -10.280156      -279.7373
  15   2.0000     -10.276322      -279.6329
  16   2.0000      -8.087210      -220.0642
  17   2.0000      -8.078540      -219.8282
  18   2.0000      -6.045934      -164.5182
  19   2.0000      -6.041813      -164.4061
  20   2.0000      -6.037730      -164.2950
  21   2.0000      -6.037002      -164.2752
  22   2.0000      -6.032901      -164.1636
  23   2.0000      -6.029539      -164.0721
  24   2.0000      -1.005610       -27.3640
  25   2.0000      -0.984664       -26.7941
  26   2.0000      -0.903579       -24.5876
  27   2.0000      -0.901329       -24.5264
  28   2.0000      -0.867062       -23.5940
  29   2.0000      -0.849848       -23.1255
  30   2.0000      -0.841157       -22.8890
  31   2.0000      -0.809478       -22.0270
  32   2.0000      -0.779236       -21.2041
  33   2.0000      -0.773304       -21.0427
  34   2.0000      -0.702273       -19.1098
  35   2.0000      -0.695444       -18.9240
  36   2.0000      -0.689210       -18.7544
  37   2.0000      -0.658411       -17.9163
  38   2.0000      -0.637341       -17.3429
  39   2.0000      -0.613154       -16.6848
  40   2.0000      -0.596882       -16.2420
  41   2.0000      -0.572867       -15.5885
  42   2.0000      -0.548804       -14.9337
  43   2.0000      -0.545721       -14.8498
  44   2.0000      -0.540022       -14.6947
  45   2.0000      -0.528964       -14.3938
  46   2.0000      -0.519809       -14.1447
  47   2.0000      -0.502932       -13.6855
  48   2.0000      -0.499646       -13.5961
  49   2.0000      -0.494050       -13.4438
  50   2.0000      -0.492215       -13.3939
  51   2.0000      -0.476709       -12.9719
  52   2.0000      -0.474199       -12.9036
  53   2.0000      -0.467437       -12.7196
  54   2.0000      -0.459636       -12.5073
  55   2.0000      -0.449142       -12.2218
  56   2.0000      -0.439611       -11.9624
  57   2.0000      -0.434800       -11.8315
  58   2.0000      -0.425486       -11.5781
  59   2.0000      -0.419428       -11.4132
  60   2.0000      -0.418064       -11.3761
  61   2.0000      -0.412829       -11.2337
  62   2.0000      -0.407972       -11.1015
  63   2.0000      -0.354760        -9.6535
  64   2.0000      -0.332883        -9.0582
  65   2.0000      -0.332553        -9.0492
  66   2.0000      -0.289285        -7.8719
  67   0.0000       0.027478         0.7477
  68   0.0000       0.067583         1.8390
  69   0.0000       0.107497         2.9252
  70   0.0000       0.119224         3.2442
  71   0.0000       0.134315         3.6549

MULLIKEN ATOMIC CHARGES
-----------------------
   0 S :    0.132207
   1 C :   -0.116524
   2 C :   -0.104104
   3 C :    0.026702
   4 C :   -0.120330
   5 H :    0.002068
   6 C :    0.019521
   7 H :    0.053300
   8 H :    0.026738
   9 C :   -0.078993
  10 H :    0.038048
  11 H :    0.033436
  12 C :   -0.058676
  13 H :    0.045232
  14 H :    0.048231
  15 H :    0.027679
  16 S :    0.083257
  17 C :   -0.099695
  18 C :   -0.061692
  19 C :   -0.001877
  20 C :   -0.172236
  21 H :    0.042160
  22 C :    0.059106
  23 H :    0.031901
  24 H :    0.015520
  25 C :   -0.124082
  26 H :    0.028259
  27 H :    0.044305
  28 C :   -0.050480
  29 H :    0.044468
  30 H :    0.046589
  31 H :    0.026103
  32 H :    0.050595
  33 H :    0.063265
Sum of atomic charges:    0.0000000

LOEWDIN ATOMIC CHARGES
----------------------
   0 S :    0.409099
   1 C :   -0.219047
   2 C :   -0.067182
   3 C :   -0.054816
   4 C :   -0.183727
   5 H :    0.024319
   6 C :   -0.039705
   7 H :    0.039173
   8 H :    0.030342
   9 C :   -0.048371
  10 H :    0.029573
  11 H :    0.023134
  12 C :   -0.067145
  13 H :    0.035619
  14 H :    0.027288
  15 H :    0.022134
  16 S :    0.394512
  17 C :   -0.181978
  18 C :   -0.079278
  19 C :   -0.063924
  20 C :   -0.179368
  21 H :    0.038304
  22 C :   -0.028958
  23 H :    0.030952
  24 H :    0.022025
  25 C :   -0.046400
  26 H :    0.018420
  27 H :    0.031768
  28 C :   -0.073421
  29 H :    0.032199
  30 H :    0.030495
  31 H :    0.024544
  32 H :    0.039622
  33 H :    0.029798

  Mayer bond orders larger than 0.100000
B(  0-S ,  1-C ) :   1.1199 B(  0-S ,  4-C ) :   1.1384 B(  1-C ,  2-C ) :   1.6649
B(  1-C , 32-H ) :   0.9570 B(  2-C ,  3-C ) :   1.2249 B(  2-C ,  6-C ) :   0.9917
B(  3-C ,  4-C ) :   1.5856 B(  3-C ,  5-H ) :   1.0019 B(  4-C , 20-C ) :   1.0394
B(  6-C ,  7-H ) :   0.9447 B(  6-C ,  8-H ) :   0.9504 B(  6-C ,  9-C ) :   1.0668
B(  9-C , 10-H ) :   0.9572 B(  9-C , 11-H ) :   0.9539 B(  9-C , 12-C ) :   1.0828
B( 12-C , 13-H ) :   0.9738 B( 12-C , 14-H ) :   0.9706 B( 12-C , 15-H ) :   0.9760
B( 16-S , 17-C ) :   1.1662 B( 16-S , 20-C ) :   1.1496 B( 17-C , 18-C ) :   1.5816
B( 17-C , 20-C ) :   0.1137 B( 17-C , 33-H ) :   0.9727 B( 18-C , 19-C ) :   1.2606
B( 18-C , 21-H ) :   0.9757 B( 19-C , 20-C ) :   1.5683 B( 19-C , 22-C ) :   1.0329
B( 22-C , 23-H ) :   0.9381 B( 22-C , 24-H ) :   0.9449 B( 22-C , 25-C ) :   1.0645
B( 25-C , 26-H ) :   0.9565 B( 25-C , 27-H ) :   0.9568 B( 25-C , 28-C ) :   1.0673
B( 28-C , 29-H ) :   0.9734 B( 28-C , 30-H ) :   0.9740 B( 28-C , 31-H ) :   0.9730

Dispersion correction           -0.014527788
FINAL SINGLE POINT ENERGY     -1339.879540865226

DIPOLE MOMENT
-------------
                                X             Y             Z
Electronic contribution:      6.70599       3.45129     -18.30921
Nuclear contribution   :     -6.75105      -3.39812      18.94703
                        -----------------------------------------
Total Dipole Moment    :     -0.04506       0.05317       0.63782
                        -----------------------------------------
Magnitude (a.u.)       :      0.64162
Magnitude (Debye)      :      1.63086

Rotational constants in cm-1:     0.021162     0.007931     0.006929
Rotational constants in MHz :   634.417433   237.770904   207.713525

                             ****ORCA TERMINATED NORMALLY****
TOTAL RUN TIME: 0 days 0 hours 0 minutes 34 seconds 524 msec
