                         Program Version 4.2.1 -  RELEASE  -
|  1> ! wB97X-D3 SP def2-SVP
|  2> %pal
|  3> nprocs 16
|  4> end
|  5>
|  6> * xyz 0 1
|  7> S 	 47.7607 	 11.3597 	 49.3968
|  8> C 	 47.2986 	 11.9214 	 47.827
|  9> C 	 46.9623 	 13.3033 	 47.861
| 10> C 	 47.073 	 13.8726 	 49.1935
| 11> C 	 47.5787 	 12.9638 	 50.1503
| 12> H 	 46.7711 	 14.9306 	 49.4043
| 13> C 	 46.6815 	 14.1547 	 46.6057
| 14> H 	 47.112 	 13.5311 	 45.8696
| 15> H 	 47.3305 	 15.064 	 46.5584
| 16> C 	 45.2471 	 14.3392 	 46.1822
| 17> H 	 44.7593 	 14.8209 	 47.0629
| 18> H 	 45.0819 	 14.9815 	 45.3061
| 19> C 	 44.5226 	 12.9917 	 45.8967
| 20> H 	 44.2902 	 12.2403 	 46.6311
| 21> H 	 43.5936 	 13.3008 	 45.4399
| 22> H 	 45.087 	 12.4439 	 45.2455
| 23> S 	 48.8917 	 12.0799 	 52.395
| 24> C 	 48.8798 	 12.9864 	 53.8653
| 25> C 	 48.1035 	 14.0723 	 53.7644
| 26> C 	 47.5801 	 14.2085 	 52.4457
| 27> C 	 47.9214 	 13.2085 	 51.5775
| 28> H 	 47.9269 	 14.7113 	 54.5783
| 29> C 	 46.7974 	 15.4504 	 52.0751
| 30> H 	 47.345 	 16.0114 	 51.3092
| 31> H 	 46.9326 	 16.1544 	 52.8469
| 32> C 	 45.2989 	 15.3091 	 51.6238
| 33> H 	 44.7704 	 14.7288 	 52.3737
| 34> H 	 45.2949 	 14.5701 	 50.8342
| 35> C 	 44.5554 	 16.5936 	 51.2639
| 36> H 	 44.7586 	 16.7212 	 50.2068
| 37> H 	 44.9598 	 17.5012 	 51.7084
| 38> H 	 43.4767 	 16.4432 	 51.4667
| 39> H 	 47.473 	 11.2826 	 46.9786
| 40> H 	 49.4762 	 12.8388 	 54.7543
| 41> *
| 42>
| 43>                          ****END OF INPUT****

CARTESIAN COORDINATES (ANGSTROEM)
---------------------------------
  S     47.760700   11.359700   49.396800
  C     47.298600   11.921400   47.827000
  C     46.962300   13.303300   47.861000
  C     47.073000   13.872600   49.193500
  C     47.578700   12.963800   50.150300
  H     46.771100   14.930600   49.404300
  C     46.681500   14.154700   46.605700
  H     47.112000   13.531100   45.869600
  H     47.330500   15.064000   46.558400
  C     45.247100   14.339200   46.182200
  H     44.759300   14.820900   47.062900
  H     45.081900   14.981500   45.306100
  C     44.522600   12.991700   45.896700
  H     44.290200   12.240300   46.631100
  H     43.593600   13.300800   45.439900
  H     45.087000   12.443900   45.245500
  S     48.891700   12.079900   52.395000
  C     48.879800   12.986400   53.865300
  C     48.103500   14.072300   53.764400
  C     47.580100   14.208500   52.445700
  C     47.921400   13.208500   51.577500
  H     47.926900   14.711300   54.578300
  C     46.797400   15.450400   52.075100
  H     47.345000   16.011400   51.309200
  H     46.932600   16.154400   52.846900
  C     45.298900   15.309100   51.623800
  H     44.770400   14.728800   52.373700
  H     45.294900   14.570100   50.834200
  C     44.555400   16.593600   51.263900
  H     44.758600   16.721200   50.206800
  H     44.959800   17.501200   51.708400
  H     43.476700   16.443200   51.466700
  H     47.473000   11.282600   46.978600
  H     49.476200   12.838800   54.754300

 Total Charge           Charge          ....    0
 Multiplicity           Mult            ....    1
 Number of Electrons    NEL             ....  134
 Basis Dimension        Dim             ....  322

ORBITAL ENERGIES
----------------

  NO   OCC          E(Eh)            E(eV)
   0   2.0000     -88.969551     -2420.9846
   1   2.0000     -88.964535     -2420.8481
   2   2.0000     -10.342471      -281.4329
   3   2.0000     -10.325767      -280.9784
   4   2.0000     -10.320090      -280.8239
   5   2.0000     -10.311816      -280.5988
   6   2.0000     -10.311664      -280.5946
   7   2.0000     -10.304726      -280.4059
   8   2.0000     -10.298670      -280.2411
   9   2.0000     -10.291780      -280.0536
  10   2.0000     -10.290589      -280.0212
  11   2.0000     -10.287129      -279.9270
  12   2.0000     -10.286289      -279.9042
  13   2.0000     -10.281650      -279.7779
  14   2.0000     -10.280953      -279.7590
  15   2.0000     -10.266649      -279.3697
  16   2.0000      -8.083913      -219.9745
  17   2.0000      -8.080813      -219.8901
  18   2.0000      -6.042512      -164.4251
  19   2.0000      -6.039298      -164.3377
  20   2.0000      -6.038358      -164.3121
  21   2.0000      -6.035086      -164.2230
  22   2.0000      -6.034738      -164.2136
  23   2.0000      -6.031523      -164.1261
  24   2.0000      -1.015616       -27.6363
  25   2.0000      -0.984073       -26.7780
  26   2.0000      -0.911755       -24.8101
  27   2.0000      -0.905091       -24.6288
  28   2.0000      -0.872945       -23.7540
  29   2.0000      -0.853753       -23.2318
  30   2.0000      -0.844331       -22.9754
  31   2.0000      -0.819182       -22.2911
  32   2.0000      -0.784137       -21.3375
  33   2.0000      -0.774190       -21.0668
  34   2.0000      -0.710950       -19.3459
  35   2.0000      -0.704564       -19.1722
  36   2.0000      -0.691831       -18.8257
  37   2.0000      -0.668425       -18.1888
  38   2.0000      -0.639182       -17.3930
  39   2.0000      -0.624392       -16.9906
  40   2.0000      -0.597967       -16.2715
  41   2.0000      -0.569665       -15.5014
  42   2.0000      -0.557974       -15.1833
  43   2.0000      -0.550326       -14.9751
  44   2.0000      -0.543352       -14.7854
  45   2.0000      -0.529528       -14.4092
  46   2.0000      -0.518606       -14.1120
  47   2.0000      -0.514277       -13.9942
  48   2.0000      -0.504135       -13.7182
  49   2.0000      -0.499247       -13.5852
  50   2.0000      -0.495209       -13.4753
  51   2.0000      -0.487568       -13.2674
  52   2.0000      -0.470896       -12.8137
  53   2.0000      -0.462240       -12.5782
  54   2.0000      -0.457568       -12.4511
  55   2.0000      -0.454320       -12.3627
  56   2.0000      -0.444167       -12.0864
  57   2.0000      -0.438401       -11.9295
  58   2.0000      -0.436368       -11.8742
  59   2.0000      -0.425775       -11.5859
  60   2.0000      -0.415714       -11.3122
  61   2.0000      -0.408754       -11.1228
  62   2.0000      -0.405199       -11.0260
  63   2.0000      -0.364114        -9.9081
  64   2.0000      -0.335508        -9.1296
  65   2.0000      -0.327354        -8.9078
  66   2.0000      -0.285391        -7.7659
  67   0.0000       0.020610         0.5608
  68   0.0000       0.084464         2.2984
  69   0.0000       0.104722         2.8496
  70   0.0000       0.116132         3.1601
  71   0.0000       0.127045         3.4571

MULLIKEN ATOMIC CHARGES
-----------------------
   0 S :    0.102770
   1 C :   -0.121054
   2 C :   -0.114467
   3 C :   -0.006036
   4 C :   -0.116860
   5 H :    0.035201
   6 C :    0.069404
   7 H :   -0.003777
   8 H :    0.042732
   9 C :   -0.059782
  10 H :    0.028890
  11 H :    0.040888
  12 C :   -0.029188
  13 H :    0.038990
  14 H :    0.027874
  15 H :   -0.004754
  16 S :    0.099232
  17 C :   -0.068322
  18 C :   -0.012418
  19 C :   -0.084189
  20 C :   -0.087895
  21 H :   -0.000126
  22 C :    0.055303
  23 H :    0.020620
  24 H :   -0.012115
  25 C :   -0.079193
  26 H :    0.016800
  27 H :    0.024427
  28 C :   -0.017963
  29 H :    0.021303
  30 H :    0.031817
  31 H :    0.052418
  32 H :    0.057650
  33 H :    0.051818
Sum of atomic charges:    0.0000000

LOEWDIN ATOMIC CHARGES
----------------------
   0 S :    0.403386
   1 C :   -0.205208
   2 C :   -0.055255
   3 C :   -0.072440
   4 C :   -0.176769
   5 H :    0.040534
   6 C :   -0.040616
   7 H :    0.021490
   8 H :    0.037200
   9 C :   -0.037663
  10 H :    0.025095
  11 H :    0.030038
  12 C :   -0.061763
  13 H :    0.028057
  14 H :    0.028183
  15 H :    0.008523
  16 S :    0.430095
  17 C :   -0.186381
  18 C :   -0.064728
  19 C :   -0.060404
  20 C :   -0.209679
  21 H :    0.027189
  22 C :   -0.036272
  23 H :    0.028412
  24 H :    0.019186
  25 C :   -0.046726
  26 H :    0.021462
  27 H :    0.021299
  28 C :   -0.064124
  29 H :    0.024591
  30 H :    0.025589
  31 H :    0.036995
  32 H :    0.026675
  33 H :    0.034028

  Mayer bond orders larger than 0.100000
B(  0-S ,  1-C ) :   1.1508 B(  0-S ,  4-C ) :   1.1574 B(  1-C ,  2-C ) :   1.5768
B(  1-C ,  4-C ) :   0.1049 B(  1-C , 32-H ) :   0.9687 B(  2-C ,  3-C ) :   1.2696
B(  2-C ,  6-C ) :   1.0136 B(  3-C ,  4-C ) :   1.5382 B(  3-C ,  5-H ) :   0.9783
B(  4-C , 20-C ) :   1.0603 B(  6-C ,  7-H ) :   0.9362 B(  6-C ,  8-H ) :   0.9463
B(  6-C ,  9-C ) :   1.0695 B(  9-C , 10-H ) :   0.9559 B(  9-C , 11-H ) :   0.9574
B(  9-C , 12-C ) :   1.0656 B( 12-C , 13-H ) :   0.9743 B( 12-C , 14-H ) :   0.9750
B( 12-C , 15-H ) :   0.9750 B( 16-S , 17-C ) :   1.1600 B( 16-S , 20-C ) :   1.1355
B( 17-C , 18-C ) :   1.6065 B( 17-C , 33-H ) :   0.9638 B( 18-C , 19-C ) :   1.2616
B( 18-C , 21-H ) :   1.0025 B( 19-C , 20-C ) :   1.5886 B( 19-C , 22-C ) :   1.0396
B( 22-C , 23-H ) :   0.9326 B( 22-C , 24-H ) :   0.9249 B( 22-C , 25-C ) :   1.0416
B( 25-C , 26-H ) :   0.9539 B( 25-C , 27-H ) :   0.9585 B( 25-C , 28-C ) :   1.0619
B( 28-C , 29-H ) :   0.9741 B( 28-C , 30-H ) :   0.9766 B( 28-C , 31-H ) :   0.9753

Dispersion correction           -0.014672039
FINAL SINGLE POINT ENERGY     -1339.864751408222

DIPOLE MOMENT
-------------
                                X             Y             Z
Electronic contribution:     19.82368     -18.84733      13.98366
Nuclear contribution   :    -19.99261      19.40655     -14.12532
                        -----------------------------------------
Total Dipole Moment    :     -0.16893       0.55922      -0.14166
                        -----------------------------------------
Magnitude (a.u.)       :      0.60111
Magnitude (Debye)      :      1.52789

Rotational constants in cm-1:     0.019633     0.009257     0.006654
Rotational constants in MHz :   588.575614   277.510132   199.486011

                             ****ORCA TERMINATED NORMALLY****
TOTAL RUN TIME: 0 days 0 hours 0 minutes 36 seconds 96 msec
