                         Program Version 4.2.1 -  RELEASE  -
|  1> ! wB97X-D3 SP def2-SVP
|  2> %pal
|  3> nprocs 16
|  4> end
|  5>
|  6> * xyz 0 1
|  7> S 	 -10.7507 	 59.3782 	 57.1819
|  8> C 	 -10.7999 	 58.7243 	 55.5534
|  9> C 	 -11.0632 	 59.7623 	 54.6295
| 10> C 	 -11.2281 	 61.0452 	 55.2597
| 11> C 	 -11.1007 	 60.9814 	 56.6124
| 12> H 	 -11.4088 	 61.953 	 54.7734
| 13> C 	 -11.0067 	 59.4782 	 53.1478
| 14> H 	 -11.742 	 60.0937 	 52.6473
| 15> H 	 -11.2589 	 58.4605 	 52.8856
| 16> C 	 -9.58787 	 59.5959 	 52.5972
| 17> H 	 -9.56116 	 59.4168 	 51.4957
| 18> H 	 -9.31812 	 60.6893 	 52.7038
| 19> C 	 -8.4983 	 58.7349 	 53.2106
| 20> H 	 -8.74572 	 57.6676 	 53.1417
| 21> H 	 -7.48721 	 58.8929 	 52.8179
| 22> H 	 -8.33726 	 58.9343 	 54.2568
| 23> S 	 -10.0039 	 61.9873 	 58.9818
| 24> C 	 -10.2467 	 63.7167 	 59.3966
| 25> C 	 -11.0657 	 64.3507 	 58.5008
| 26> C 	 -11.5523 	 63.4212 	 57.4745
| 27> C 	 -11.0593 	 62.0986 	 57.5426
| 28> H 	 -11.3902 	 65.3598 	 58.5373
| 29> C 	 -12.445 	 63.9336 	 56.3807
| 30> H 	 -13.3435 	 64.0915 	 56.9459
| 31> H 	 -12.7731 	 63.2233 	 55.6856
| 32> C 	 -12.0004 	 65.1877 	 55.5659
| 33> H 	 -11.742 	 66.0588 	 56.1645
| 34> H 	 -12.794 	 65.4725 	 54.8408
| 35> C 	 -10.7854 	 64.9621 	 54.712
| 36> H 	 -9.92087 	 64.4736 	 55.1737
| 37> H 	 -10.4143 	 65.8156 	 54.2505
| 38> H 	 -11.0078 	 64.3218 	 53.824
| 39> H 	 -10.7859 	 57.6963 	 55.3247
| 40> H 	 -9.77972 	 64.1841 	 60.2723
| 41> *
| 42>
| 43>                          ****END OF INPUT****

CARTESIAN COORDINATES (ANGSTROEM)
---------------------------------
  S    -10.750700   59.378200   57.181900
  C    -10.799900   58.724300   55.553400
  C    -11.063200   59.762300   54.629500
  C    -11.228100   61.045200   55.259700
  C    -11.100700   60.981400   56.612400
  H    -11.408800   61.953000   54.773400
  C    -11.006700   59.478200   53.147800
  H    -11.742000   60.093700   52.647300
  H    -11.258900   58.460500   52.885600
  C     -9.587870   59.595900   52.597200
  H     -9.561160   59.416800   51.495700
  H     -9.318120   60.689300   52.703800
  C     -8.498300   58.734900   53.210600
  H     -8.745720   57.667600   53.141700
  H     -7.487210   58.892900   52.817900
  H     -8.337260   58.934300   54.256800
  S    -10.003900   61.987300   58.981800
  C    -10.246700   63.716700   59.396600
  C    -11.065700   64.350700   58.500800
  C    -11.552300   63.421200   57.474500
  C    -11.059300   62.098600   57.542600
  H    -11.390200   65.359800   58.537300
  C    -12.445000   63.933600   56.380700
  H    -13.343500   64.091500   56.945900
  H    -12.773100   63.223300   55.685600
  C    -12.000400   65.187700   55.565900
  H    -11.742000   66.058800   56.164500
  H    -12.794000   65.472500   54.840800
  C    -10.785400   64.962100   54.712000
  H     -9.920870   64.473600   55.173700
  H    -10.414300   65.815600   54.250500
  H    -11.007800   64.321800   53.824000
  H    -10.785900   57.696300   55.324700
  H     -9.779720   64.184100   60.272300

 Total Charge           Charge          ....    0
 Multiplicity           Mult            ....    1
 Number of Electrons    NEL             ....  134
 Basis Dimension        Dim             ....  322

ORBITAL ENERGIES
----------------

  NO   OCC          E(Eh)            E(eV)
   0   2.0000     -88.966991     -2420.9149
   1   2.0000     -88.963459     -2420.8188
   2   2.0000     -10.332366      -281.1580
   3   2.0000     -10.330434      -281.1054
   4   2.0000     -10.325851      -280.9807
   5   2.0000     -10.314010      -280.6585
   6   2.0000     -10.309133      -280.5258
   7   2.0000     -10.305654      -280.4311
   8   2.0000     -10.298685      -280.2415
   9   2.0000     -10.293525      -280.1011
  10   2.0000     -10.291663      -280.0504
  11   2.0000     -10.290783      -280.0264
  12   2.0000     -10.290511      -280.0190
  13   2.0000     -10.287285      -279.9313
  14   2.0000     -10.273610      -279.5592
  15   2.0000     -10.272047      -279.5166
  16   2.0000      -8.081836      -219.9179
  17   2.0000      -8.077090      -219.7888
  18   2.0000      -6.040347      -164.3662
  19   2.0000      -6.036313      -164.2564
  20   2.0000      -6.035907      -164.2454
  21   2.0000      -6.032620      -164.1559
  22   2.0000      -6.031759      -164.1325
  23   2.0000      -6.027574      -164.0186
  24   2.0000      -1.005004       -27.3476
  25   2.0000      -0.976973       -26.5848
  26   2.0000      -0.914393       -24.8819
  27   2.0000      -0.910020       -24.7629
  28   2.0000      -0.868397       -23.6303
  29   2.0000      -0.853415       -23.2226
  30   2.0000      -0.844395       -22.9771
  31   2.0000      -0.818933       -22.2843
  32   2.0000      -0.786702       -21.4072
  33   2.0000      -0.774242       -21.0682
  34   2.0000      -0.710593       -19.3362
  35   2.0000      -0.697789       -18.9878
  36   2.0000      -0.692595       -18.8465
  37   2.0000      -0.660502       -17.9732
  38   2.0000      -0.646394       -17.5893
  39   2.0000      -0.626379       -17.0446
  40   2.0000      -0.601541       -16.3688
  41   2.0000      -0.568485       -15.4693
  42   2.0000      -0.558951       -15.2098
  43   2.0000      -0.553816       -15.0701
  44   2.0000      -0.548032       -14.9127
  45   2.0000      -0.540123       -14.6975
  46   2.0000      -0.520102       -14.1527
  47   2.0000      -0.510326       -13.8867
  48   2.0000      -0.501945       -13.6586
  49   2.0000      -0.494446       -13.4546
  50   2.0000      -0.492869       -13.4116
  51   2.0000      -0.479975       -13.0608
  52   2.0000      -0.471423       -12.8281
  53   2.0000      -0.463954       -12.6248
  54   2.0000      -0.461792       -12.5660
  55   2.0000      -0.453557       -12.3419
  56   2.0000      -0.446317       -12.1449
  57   2.0000      -0.443067       -12.0565
  58   2.0000      -0.438431       -11.9303
  59   2.0000      -0.419148       -11.4056
  60   2.0000      -0.412369       -11.2211
  61   2.0000      -0.411287       -11.1917
  62   2.0000      -0.406376       -11.0581
  63   2.0000      -0.360847        -9.8192
  64   2.0000      -0.335094        -9.1184
  65   2.0000      -0.324185        -8.8215
  66   2.0000      -0.282650        -7.6913
  67   0.0000       0.021421         0.5829
  68   0.0000       0.077858         2.1186
  69   0.0000       0.099261         2.7010
  70   0.0000       0.114498         3.1156
  71   0.0000       0.132285         3.5997

MULLIKEN ATOMIC CHARGES
-----------------------
   0 S :    0.104788
   1 C :   -0.102009
   2 C :   -0.106956
   3 C :    0.037918
   4 C :   -0.108798
   5 H :   -0.032564
   6 C :    0.101767
   7 H :    0.023337
   8 H :    0.011140
   9 C :   -0.099605
  10 H :    0.037592
  11 H :    0.027231
  12 C :   -0.048664
  13 H :    0.021987
  14 H :    0.035326
  15 H :    0.039261
  16 S :    0.072636
  17 C :   -0.089753
  18 C :    0.008900
  19 C :   -0.097128
  20 C :   -0.098434
  21 H :    0.012847
  22 C :    0.078092
  23 H :    0.031675
  24 H :    0.002335
  25 C :   -0.061701
  26 H :    0.030129
  27 H :    0.038586
  28 C :   -0.058425
  29 H :    0.042517
  30 H :    0.015094
  31 H :    0.021715
  32 H :    0.038782
  33 H :    0.070383
Sum of atomic charges:    0.0000000

LOEWDIN ATOMIC CHARGES
----------------------
   0 S :    0.407922
   1 C :   -0.188325
   2 C :   -0.051032
   3 C :   -0.059239
   4 C :   -0.185406
   5 H :    0.020123
   6 C :   -0.032592
   7 H :    0.029955
   8 H :    0.027175
   9 C :   -0.046143
  10 H :    0.027013
  11 H :    0.024992
  12 C :   -0.071592
  13 H :    0.022596
  14 H :    0.031628
  15 H :    0.024647
  16 S :    0.360814
  17 C :   -0.163246
  18 C :   -0.064886
  19 C :   -0.052299
  20 C :   -0.188066
  21 H :    0.028916
  22 C :   -0.035542
  23 H :    0.038375
  24 H :    0.022057
  25 C :   -0.037261
  26 H :    0.021724
  27 H :    0.033937
  28 C :   -0.071027
  29 H :    0.028719
  30 H :    0.017724
  31 H :    0.023603
  32 H :    0.019632
  33 H :    0.035103

  Mayer bond orders larger than 0.100000
B(  0-S ,  1-C ) :   1.1325 B(  0-S ,  4-C ) :   1.1531 B(  1-C ,  2-C ) :   1.5868
B(  1-C , 32-H ) :   0.9764 B(  2-C ,  3-C ) :   1.2413 B(  2-C ,  6-C ) :   1.0409
B(  3-C ,  4-C ) :   1.5585 B(  3-C ,  5-H ) :   0.9992 B(  4-C , 20-C ) :   1.0636
B(  6-C ,  7-H ) :   0.9371 B(  6-C ,  8-H ) :   0.9393 B(  6-C ,  9-C ) :   1.0622
B(  9-C , 10-H ) :   0.9571 B(  9-C , 11-H ) :   0.9547 B(  9-C , 12-C ) :   1.0833
B( 12-C , 13-H ) :   0.9723 B( 12-C , 14-H ) :   0.9701 B( 12-C , 15-H ) :   0.9670
B( 16-S , 17-C ) :   1.1389 B( 16-S , 20-C ) :   1.1034 B( 17-C , 18-C ) :   1.6151
B( 17-C , 33-H ) :   0.9651 B( 18-C , 19-C ) :   1.2247 B( 18-C , 21-H ) :   0.9949
B( 19-C , 20-C ) :   1.6063 B( 19-C , 22-C ) :   1.0390 B( 22-C , 23-H ) :   0.9212
B( 22-C , 24-H ) :   0.9390 B( 22-C , 25-C ) :   1.0683 B( 25-C , 26-H ) :   0.9582
B( 25-C , 27-H ) :   0.9531 B( 25-C , 28-C ) :   1.0829 B( 28-C , 29-H ) :   0.9736
B( 28-C , 30-H ) :   0.9695 B( 28-C , 31-H ) :   0.9662

Dispersion correction           -0.015232328
FINAL SINGLE POINT ENERGY     -1339.880991205991

DIPOLE MOMENT
-------------
                                X             Y             Z
Electronic contribution:     -1.53694      -7.61766      25.12709
Nuclear contribution   :      1.40855       8.07377     -25.70851
                        -----------------------------------------
Total Dipole Moment    :     -0.12839       0.45611      -0.58141
                        -----------------------------------------
Magnitude (a.u.)       :      0.75004
Magnitude (Debye)      :      1.90646

Rotational constants in cm-1:     0.019594     0.009334     0.007163
Rotational constants in MHz :   587.404606   279.812187   214.754319

                             ****ORCA TERMINATED NORMALLY****
TOTAL RUN TIME: 0 days 0 hours 0 minutes 35 seconds 303 msec
