                         Program Version 4.2.1 -  RELEASE  -
|  1> ! wB97X-D3 SP def2-SVP
|  2> %pal
|  3> nprocs 16
|  4> end
|  5>
|  6> * xyz 0 1
|  7> S 	 -34.3802 	 41.188 	 97.7859
|  8> C 	 -33.7459 	 39.61 	 97.1673
|  9> C 	 -34.4986 	 38.5382 	 97.5974
| 10> C 	 -35.6475 	 38.941 	 98.3724
| 11> C 	 -35.7041 	 40.3441 	 98.632
| 12> H 	 -36.4002 	 38.3449 	 98.7914
| 13> C 	 -34.1864 	 37.0686 	 97.3657
| 14> H 	 -35.1055 	 36.5389 	 97.1697
| 15> H 	 -33.7303 	 36.6954 	 98.2815
| 16> C 	 -33.2176 	 36.7451 	 96.1894
| 17> H 	 -33.5335 	 37.2204 	 95.2357
| 18> H 	 -32.2886 	 37.2346 	 96.4085
| 19> C 	 -33.0142 	 35.1954 	 95.9546
| 20> H 	 -32.1438 	 34.8688 	 95.3508
| 21> H 	 -32.7972 	 34.7316 	 96.944
| 22> H 	 -33.8318 	 34.6147 	 95.4679
| 23> S 	 -37.6125 	 42.3389 	 98.6389
| 24> C 	 -38.6883 	 42.5058 	 99.9869
| 25> C 	 -38.402 	 41.6258 	 101.029
| 26> C 	 -37.2894 	 40.7605 	 100.673
| 27> C 	 -36.6773 	 41.0862 	 99.4006
| 28> H 	 -39.0296 	 41.604 	 101.929
| 29> C 	 -36.6531 	 39.7336 	 101.622
| 30> H 	 -36.1469 	 38.9695 	 101.075
| 31> H 	 -37.3316 	 39.2024 	 102.335
| 32> C 	 -35.5161 	 40.1851 	 102.458
| 33> H 	 -35.8594 	 41.0414 	 103.073
| 34> H 	 -34.7189 	 40.5614 	 101.744
| 35> C 	 -34.953 	 39.1077 	 103.441
| 36> H 	 -35.0967 	 39.3996 	 104.449
| 37> H 	 -33.8857 	 39.096 	 103.41
| 38> H 	 -35.4219 	 38.149 	 103.344
| 39> H 	 -32.7474 	 39.5276 	 96.7692
| 40> H 	 -39.5614 	 43.103 	 100.024
| 41> *
| 42>
| 43>                          ****END OF INPUT****

CARTESIAN COORDINATES (ANGSTROEM)
---------------------------------
  S    -34.380200   41.188000   97.785900
  C    -33.745900   39.610000   97.167300
  C    -34.498600   38.538200   97.597400
  C    -35.647500   38.941000   98.372400
  C    -35.704100   40.344100   98.632000
  H    -36.400200   38.344900   98.791400
  C    -34.186400   37.068600   97.365700
  H    -35.105500   36.538900   97.169700
  H    -33.730300   36.695400   98.281500
  C    -33.217600   36.745100   96.189400
  H    -33.533500   37.220400   95.235700
  H    -32.288600   37.234600   96.408500
  C    -33.014200   35.195400   95.954600
  H    -32.143800   34.868800   95.350800
  H    -32.797200   34.731600   96.944000
  H    -33.831800   34.614700   95.467900
  S    -37.612500   42.338900   98.638900
  C    -38.688300   42.505800   99.986900
  C    -38.402000   41.625800  101.029000
  C    -37.289400   40.760500  100.673000
  C    -36.677300   41.086200   99.400600
  H    -39.029600   41.604000  101.929000
  C    -36.653100   39.733600  101.622000
  H    -36.146900   38.969500  101.075000
  H    -37.331600   39.202400  102.335000
  C    -35.516100   40.185100  102.458000
  H    -35.859400   41.041400  103.073000
  H    -34.718900   40.561400  101.744000
  C    -34.953000   39.107700  103.441000
  H    -35.096700   39.399600  104.449000
  H    -33.885700   39.096000  103.410000
  H    -35.421900   38.149000  103.344000
  H    -32.747400   39.527600   96.769200
  H    -39.561400   43.103000  100.024000

 Total Charge           Charge          ....    0
 Multiplicity           Mult            ....    1
 Number of Electrons    NEL             ....  134
 Basis Dimension        Dim             ....  322

ORBITAL ENERGIES
----------------

  NO   OCC          E(Eh)            E(eV)
   0   2.0000     -88.971242     -2421.0306
   1   2.0000     -88.967528     -2420.9295
   2   2.0000     -10.339595      -281.3547
   3   2.0000     -10.332542      -281.1628
   4   2.0000     -10.318323      -280.7758
   5   2.0000     -10.317757      -280.7604
   6   2.0000     -10.316920      -280.7377
   7   2.0000     -10.308335      -280.5041
   8   2.0000     -10.303023      -280.3595
   9   2.0000     -10.298904      -280.2474
  10   2.0000     -10.297018      -280.1961
  11   2.0000     -10.295922      -280.1663
  12   2.0000     -10.290337      -280.0143
  13   2.0000     -10.285851      -279.8922
  14   2.0000     -10.282964      -279.8137
  15   2.0000     -10.270285      -279.4687
  16   2.0000      -8.086066      -220.0331
  17   2.0000      -8.080822      -219.8904
  18   2.0000      -6.044512      -164.4795
  19   2.0000      -6.040327      -164.3657
  20   2.0000      -6.039410      -164.3407
  21   2.0000      -6.037110      -164.2781
  22   2.0000      -6.035578      -164.2364
  23   2.0000      -6.031538      -164.1265
  24   2.0000      -1.000847       -27.2344
  25   2.0000      -0.975721       -26.5507
  26   2.0000      -0.910931       -24.7877
  27   2.0000      -0.907444       -24.6928
  28   2.0000      -0.866941       -23.5907
  29   2.0000      -0.847031       -23.0489
  30   2.0000      -0.842283       -22.9197
  31   2.0000      -0.811456       -22.0809
  32   2.0000      -0.784625       -21.3507
  33   2.0000      -0.772130       -21.0107
  34   2.0000      -0.715049       -19.4575
  35   2.0000      -0.702705       -19.1216
  36   2.0000      -0.684550       -18.6275
  37   2.0000      -0.658995       -17.9322
  38   2.0000      -0.640370       -17.4254
  39   2.0000      -0.614254       -16.7147
  40   2.0000      -0.598195       -16.2777
  41   2.0000      -0.571951       -15.5636
  42   2.0000      -0.568391       -15.4667
  43   2.0000      -0.561894       -15.2899
  44   2.0000      -0.521859       -14.2005
  45   2.0000      -0.519854       -14.1459
  46   2.0000      -0.515756       -14.0344
  47   2.0000      -0.511400       -13.9159
  48   2.0000      -0.505310       -13.7502
  49   2.0000      -0.498472       -13.5641
  50   2.0000      -0.491987       -13.3876
  51   2.0000      -0.478880       -13.0310
  52   2.0000      -0.474894       -12.9225
  53   2.0000      -0.459769       -12.5110
  54   2.0000      -0.453505       -12.3405
  55   2.0000      -0.452347       -12.3090
  56   2.0000      -0.450692       -12.2640
  57   2.0000      -0.436256       -11.8711
  58   2.0000      -0.432085       -11.7576
  59   2.0000      -0.424628       -11.5547
  60   2.0000      -0.422854       -11.5064
  61   2.0000      -0.416789       -11.3414
  62   2.0000      -0.401734       -10.9317
  63   2.0000      -0.349052        -9.4982
  64   2.0000      -0.332265        -9.0414
  65   2.0000      -0.330967        -9.0061
  66   2.0000      -0.288181        -7.8418
  67   0.0000       0.021737         0.5915
  68   0.0000       0.062663         1.7051
  69   0.0000       0.106357         2.8941
  70   0.0000       0.114361         3.1119
  71   0.0000       0.132027         3.5926

MULLIKEN ATOMIC CHARGES
-----------------------
   0 S :    0.093364
   1 C :   -0.128333
   2 C :   -0.085357
   3 C :    0.060425
   4 C :   -0.176541
   5 H :    0.002903
   6 C :    0.071772
   7 H :    0.033716
   8 H :    0.044145
   9 C :   -0.087411
  10 H :    0.040067
  11 H :    0.025565
  12 C :   -0.079872
  13 H :    0.035982
  14 H :    0.028355
  15 H :    0.045368
  16 S :    0.128722
  17 C :   -0.081590
  18 C :   -0.036408
  19 C :   -0.032875
  20 C :   -0.138574
  21 H :    0.034105
  22 C :    0.049536
  23 H :    0.003911
  24 H :    0.024637
  25 C :   -0.105366
  26 H :    0.023817
  27 H :    0.042952
  28 C :   -0.007217
  29 H :    0.014943
  30 H :    0.027472
  31 H :    0.026248
  32 H :    0.053902
  33 H :    0.047638
Sum of atomic charges:    0.0000000

LOEWDIN ATOMIC CHARGES
----------------------
   0 S :    0.368101
   1 C :   -0.185961
   2 C :   -0.056662
   3 C :   -0.052887
   4 C :   -0.178286
   5 H :    0.023041
   6 C :   -0.026659
   7 H :    0.031095
   8 H :    0.036859
   9 C :   -0.041250
  10 H :    0.028160
  11 H :    0.018431
  12 C :   -0.079686
  13 H :    0.030007
  14 H :    0.026578
  15 H :    0.030047
  16 S :    0.434780
  17 C :   -0.187195
  18 C :   -0.070955
  19 C :   -0.041510
  20 C :   -0.220048
  21 H :    0.039038
  22 C :   -0.046852
  23 H :    0.024106
  24 H :    0.030148
  25 C :   -0.043000
  26 H :    0.019561
  27 H :    0.029471
  28 C :   -0.063535
  29 H :    0.024336
  30 H :    0.028300
  31 H :    0.021828
  32 H :    0.026118
  33 H :    0.024481

  Mayer bond orders larger than 0.100000
B(  0-S ,  1-C ) :   1.1095 B(  0-S ,  4-C ) :   1.1464 B(  1-C ,  2-C ) :   1.6453
B(  1-C , 32-H ) :   0.9631 B(  2-C ,  3-C ) :   1.2236 B(  2-C ,  6-C ) :   1.0121
B(  3-C ,  4-C ) :   1.5718 B(  3-C ,  5-H ) :   0.9953 B(  4-C , 20-C ) :   1.0543
B(  6-C ,  7-H ) :   0.9484 B(  6-C ,  8-H ) :   0.9295 B(  6-C ,  9-C ) :   1.0733
B(  9-C , 10-H ) :   0.9626 B(  9-C , 11-H ) :   0.9499 B(  9-C , 12-C ) :   1.0684
B( 12-C , 13-H ) :   0.9766 B( 12-C , 14-H ) :   0.9751 B( 12-C , 15-H ) :   0.9783
B( 16-S , 17-C ) :   1.1786 B( 16-S , 20-C ) :   1.1539 B( 17-C , 18-C ) :   1.5790
B( 17-C , 20-C ) :   0.1018 B( 17-C , 33-H ) :   0.9691 B( 18-C , 19-C ) :   1.2677
B( 18-C , 21-H ) :   0.9892 B( 19-C , 20-C ) :   1.5291 B( 19-C , 22-C ) :   1.0546
B( 22-C , 23-H ) :   0.9274 B( 22-C , 24-H ) :   0.9396 B( 22-C , 25-C ) :   1.0706
B( 25-C , 26-H ) :   0.9598 B( 25-C , 27-H ) :   0.9608 B( 25-C , 28-C ) :   1.0565
B( 28-C , 29-H ) :   0.9738 B( 28-C , 30-H ) :   0.9741 B( 28-C , 31-H ) :   0.9783

Dispersion correction           -0.013637969
FINAL SINGLE POINT ENERGY     -1339.868790201367

DIPOLE MOMENT
-------------
                                X             Y             Z
Electronic contribution:    -11.31525      25.49737      -8.46764
Nuclear contribution   :     11.28660     -26.12408       8.83181
                        -----------------------------------------
Total Dipole Moment    :     -0.02865      -0.62671       0.36416
                        -----------------------------------------
Magnitude (a.u.)       :      0.72539
Magnitude (Debye)      :      1.84380

Rotational constants in cm-1:     0.019196     0.007563     0.006172
Rotational constants in MHz :   575.494386   226.733340   185.042918

                             ****ORCA TERMINATED NORMALLY****
TOTAL RUN TIME: 0 days 0 hours 0 minutes 36 seconds 437 msec
