                         Program Version 4.2.1 -  RELEASE  -
|  1> ! wB97X-D3 SP def2-SVP
|  2> %pal
|  3> nprocs 16
|  4> end
|  5>
|  6> * xyz 0 1
|  7> S 	 27.0273 	 -8.56508 	 76.64
|  8> C 	 26.9716 	 -9.65774 	 75.3163
|  9> C 	 27.1332 	 -10.9911 	 75.6886
| 10> C 	 27.1566 	 -11.1562 	 77.1369
| 11> C 	 27.0379 	 -9.93582 	 77.7943
| 12> H 	 27.2643 	 -12.09 	 77.6455
| 13> C 	 27.2558 	 -12.2284 	 74.8289
| 14> H 	 26.4258 	 -12.1966 	 74.151
| 15> H 	 27.0879 	 -13.0864 	 75.4255
| 16> C 	 28.6188 	 -12.335 	 74.0833
| 17> H 	 28.8461 	 -11.5418 	 73.3965
| 18> H 	 29.4427 	 -12.2684 	 74.8423
| 19> C 	 28.764 	 -13.5472 	 73.2434
| 20> H 	 27.8591 	 -13.6315 	 72.6187
| 21> H 	 29.7053 	 -13.5852 	 72.6621
| 22> H 	 28.8902 	 -14.3564 	 73.9165
| 23> S 	 26.3761 	 -11.0166 	 80.1564
| 24> C 	 26.7474 	 -10.1442 	 81.5936
| 25> C 	 27.4181 	 -8.96478 	 81.4459
| 26> C 	 27.4184 	 -8.66033 	 80.0029
| 27> C 	 27.0042 	 -9.68609 	 79.2323
| 28> H 	 27.6255 	 -8.4158 	 82.3278
| 29> C 	 27.9899 	 -7.34394 	 79.5515
| 30> H 	 27.9827 	 -6.613 	 80.3695
| 31> H 	 27.3653 	 -6.96928 	 78.7628
| 32> C 	 29.3821 	 -7.40887 	 79.0374
| 33> H 	 29.3147 	 -8.07892 	 78.2179
| 34> H 	 30.0156 	 -7.79622 	 79.8239
| 35> C 	 29.8309 	 -6.10519 	 78.5058
| 36> H 	 29.1716 	 -5.71407 	 77.7012
| 37> H 	 30.7966 	 -6.21334 	 78.039
| 38> H 	 29.9163 	 -5.25769 	 79.2535
| 39> H 	 26.9703 	 -9.22255 	 74.3219
| 40> H 	 26.646 	 -10.6805 	 82.5374
| 41> *
| 42>
| 43>                          ****END OF INPUT****

CARTESIAN COORDINATES (ANGSTROEM)
---------------------------------
  S     27.027300   -8.565080   76.640000
  C     26.971600   -9.657740   75.316300
  C     27.133200  -10.991100   75.688600
  C     27.156600  -11.156200   77.136900
  C     27.037900   -9.935820   77.794300
  H     27.264300  -12.090000   77.645500
  C     27.255800  -12.228400   74.828900
  H     26.425800  -12.196600   74.151000
  H     27.087900  -13.086400   75.425500
  C     28.618800  -12.335000   74.083300
  H     28.846100  -11.541800   73.396500
  H     29.442700  -12.268400   74.842300
  C     28.764000  -13.547200   73.243400
  H     27.859100  -13.631500   72.618700
  H     29.705300  -13.585200   72.662100
  H     28.890200  -14.356400   73.916500
  S     26.376100  -11.016600   80.156400
  C     26.747400  -10.144200   81.593600
  C     27.418100   -8.964780   81.445900
  C     27.418400   -8.660330   80.002900
  C     27.004200   -9.686090   79.232300
  H     27.625500   -8.415800   82.327800
  C     27.989900   -7.343940   79.551500
  H     27.982700   -6.613000   80.369500
  H     27.365300   -6.969280   78.762800
  C     29.382100   -7.408870   79.037400
  H     29.314700   -8.078920   78.217900
  H     30.015600   -7.796220   79.823900
  C     29.830900   -6.105190   78.505800
  H     29.171600   -5.714070   77.701200
  H     30.796600   -6.213340   78.039000
  H     29.916300   -5.257690   79.253500
  H     26.970300   -9.222550   74.321900
  H     26.646000  -10.680500   82.537400

 Total Charge           Charge          ....    0
 Multiplicity           Mult            ....    1
 Number of Electrons    NEL             ....  134
 Basis Dimension        Dim             ....  322

ORBITAL ENERGIES
----------------

  NO   OCC          E(Eh)            E(eV)
   0   2.0000     -88.967829     -2420.9377
   1   2.0000     -88.962787     -2420.8005
   2   2.0000     -10.335004      -281.2297
   3   2.0000     -10.320833      -280.8442
   4   2.0000     -10.313781      -280.6523
   5   2.0000     -10.312248      -280.6105
   6   2.0000     -10.305679      -280.4318
   7   2.0000     -10.302011      -280.3320
   8   2.0000     -10.296897      -280.1928
   9   2.0000     -10.294186      -280.1191
  10   2.0000     -10.290154      -280.0093
  11   2.0000     -10.283685      -279.8333
  12   2.0000     -10.280426      -279.7446
  13   2.0000     -10.274509      -279.5836
  14   2.0000     -10.273699      -279.5616
  15   2.0000     -10.269269      -279.4410
  16   2.0000      -8.081999      -219.9224
  17   2.0000      -8.078741      -219.8337
  18   2.0000      -6.040578      -164.3725
  19   2.0000      -6.037210      -164.2808
  20   2.0000      -6.036600      -164.2642
  21   2.0000      -6.033296      -164.1743
  22   2.0000      -6.032763      -164.1598
  23   2.0000      -6.029274      -164.0649
  24   2.0000      -1.010343       -27.4928
  25   2.0000      -0.984071       -26.7779
  26   2.0000      -0.922372       -25.0990
  27   2.0000      -0.913589       -24.8600
  28   2.0000      -0.872981       -23.7550
  29   2.0000      -0.858971       -23.3738
  30   2.0000      -0.850717       -23.1492
  31   2.0000      -0.815774       -22.1983
  32   2.0000      -0.782919       -21.3043
  33   2.0000      -0.769327       -20.9344
  34   2.0000      -0.702120       -19.1056
  35   2.0000      -0.697951       -18.9922
  36   2.0000      -0.686503       -18.6807
  37   2.0000      -0.673115       -18.3164
  38   2.0000      -0.642932       -17.4951
  39   2.0000      -0.619096       -16.8465
  40   2.0000      -0.599145       -16.3036
  41   2.0000      -0.579116       -15.7585
  42   2.0000      -0.571471       -15.5505
  43   2.0000      -0.562024       -15.2934
  44   2.0000      -0.529156       -14.3991
  45   2.0000      -0.524086       -14.2611
  46   2.0000      -0.519816       -14.1449
  47   2.0000      -0.515156       -14.0181
  48   2.0000      -0.509030       -13.8514
  49   2.0000      -0.504982       -13.7412
  50   2.0000      -0.491049       -13.3621
  51   2.0000      -0.480379       -13.0718
  52   2.0000      -0.469916       -12.7871
  53   2.0000      -0.464856       -12.6494
  54   2.0000      -0.461585       -12.5604
  55   2.0000      -0.453087       -12.3291
  56   2.0000      -0.438514       -11.9326
  57   2.0000      -0.432440       -11.7673
  58   2.0000      -0.430980       -11.7276
  59   2.0000      -0.424475       -11.5506
  60   2.0000      -0.420266       -11.4360
  61   2.0000      -0.415945       -11.3184
  62   2.0000      -0.412135       -11.2148
  63   2.0000      -0.361714        -9.8427
  64   2.0000      -0.331195        -9.0123
  65   2.0000      -0.330308        -8.9881
  66   2.0000      -0.283835        -7.7236
  67   0.0000       0.026590         0.7236
  68   0.0000       0.081612         2.2208
  69   0.0000       0.103002         2.8028
  70   0.0000       0.114306         3.1104
  71   0.0000       0.125331         3.4104

MULLIKEN ATOMIC CHARGES
-----------------------
   0 S :    0.082422
   1 C :   -0.119166
   2 C :   -0.084632
   3 C :   -0.002015
   4 C :   -0.125499
   5 H :    0.015172
   6 C :    0.113194
   7 H :    0.022455
   8 H :    0.005097
   9 C :   -0.093107
  10 H :    0.021023
  11 H :    0.028667
  12 C :   -0.026137
  13 H :    0.036694
  14 H :    0.037250
  15 H :    0.014485
  16 S :    0.092559
  17 C :   -0.089182
  18 C :   -0.013020
  19 C :   -0.081611
  20 C :   -0.089611
  21 H :    0.017908
  22 C :    0.041146
  23 H :    0.011823
  24 H :    0.019191
  25 C :   -0.021883
  26 H :    0.014553
  27 H :    0.023259
  28 C :   -0.041939
  29 H :    0.024981
  30 H :    0.028900
  31 H :    0.030287
  32 H :    0.051723
  33 H :    0.055011
Sum of atomic charges:    0.0000000

LOEWDIN ATOMIC CHARGES
----------------------
   0 S :    0.410884
   1 C :   -0.207203
   2 C :   -0.053525
   3 C :   -0.069043
   4 C :   -0.168699
   5 H :    0.025742
   6 C :   -0.023973
   7 H :    0.030072
   8 H :    0.024740
   9 C :   -0.044136
  10 H :    0.019564
  11 H :    0.027220
  12 C :   -0.066218
  13 H :    0.028742
  14 H :    0.031618
  15 H :    0.017452
  16 S :    0.414795
  17 C :   -0.181720
  18 C :   -0.064565
  19 C :   -0.051783
  20 C :   -0.199664
  21 H :    0.032360
  22 C :   -0.036297
  23 H :    0.028012
  24 H :    0.016125
  25 C :   -0.041612
  26 H :    0.014295
  27 H :    0.024670
  28 C :   -0.067301
  29 H :    0.027491
  30 H :    0.024929
  31 H :    0.026745
  32 H :    0.026184
  33 H :    0.024101

  Mayer bond orders larger than 0.100000
B(  0-S ,  1-C ) :   1.1389 B(  0-S ,  4-C ) :   1.1413 B(  1-C ,  2-C ) :   1.6095
B(  1-C , 32-H ) :   0.9711 B(  2-C ,  3-C ) :   1.2348 B(  2-C ,  6-C ) :   1.0271
B(  3-C ,  4-C ) :   1.5686 B(  3-C ,  5-H ) :   0.9867 B(  4-C , 20-C ) :   1.0581
B(  6-C ,  7-H ) :   0.9309 B(  6-C ,  8-H ) :   0.9403 B(  6-C ,  9-C ) :   1.0545
B(  9-C , 10-H ) :   0.9586 B(  9-C , 11-H ) :   0.9554 B(  9-C , 12-C ) :   1.0892
B( 12-C , 13-H ) :   0.9707 B( 12-C , 14-H ) :   0.9714 B( 12-C , 15-H ) :   0.9740
B( 16-S , 17-C ) :   1.1584 B( 16-S , 20-C ) :   1.1177 B( 17-C , 18-C ) :   1.6587
B( 17-C , 33-H ) :   0.9598 B( 18-C , 19-C ) :   1.1788 B( 18-C , 21-H ) :   0.9959
B( 19-C , 20-C ) :   1.6403 B( 19-C , 22-C ) :   1.0544 B( 22-C , 23-H ) :   0.9268
B( 22-C , 24-H ) :   0.9265 B( 22-C , 25-C ) :   1.0808 B( 25-C , 26-H ) :   0.9411
B( 25-C , 27-H ) :   0.9468 B( 25-C , 28-C ) :   1.1015 B( 28-C , 29-H ) :   0.9668
B( 28-C , 30-H ) :   0.9694 B( 28-C , 31-H ) :   0.9710

Dispersion correction           -0.014025461
FINAL SINGLE POINT ENERGY     -1339.880601515534

DIPOLE MOMENT
-------------
                                X             Y             Z
Electronic contribution:    -14.35972       0.27266      13.63678
Nuclear contribution   :     14.68698      -0.40812     -13.73168
                        -----------------------------------------
Total Dipole Moment    :      0.32727      -0.13545      -0.09490
                        -----------------------------------------
Magnitude (a.u.)       :      0.36668
Magnitude (Debye)      :      0.93203

Rotational constants in cm-1:     0.020170     0.008198     0.006527
Rotational constants in MHz :   604.685198   245.767337   195.689297

                             ****ORCA TERMINATED NORMALLY****
TOTAL RUN TIME: 0 days 0 hours 0 minutes 29 seconds 31 msec
