                         Program Version 4.2.1 -  RELEASE  -
|  1> ! wB97X-D3 SP def2-SVP
|  2> %pal
|  3> nprocs 16
|  4> end
|  5>
|  6> * xyz 0 1
|  7> S 	 7.9887 	 -13.3313 	 69.7294
|  8> C 	 7.86571 	 -13.1916 	 67.9794
|  9> C 	 7.6849 	 -11.8882 	 67.5693
| 10> C 	 7.85313 	 -10.9494 	 68.6492
| 11> C 	 7.96131 	 -11.5406 	 69.899
| 12> H 	 7.8268 	 -9.85328 	 68.5884
| 13> C 	 7.48091 	 -11.5148 	 66.0971
| 14> H 	 7.56799 	 -12.3008 	 65.4082
| 15> H 	 8.33226 	 -10.872 	 65.757
| 16> C 	 6.28098 	 -10.5695 	 65.9376
| 17> H 	 6.26421 	 -9.74768 	 66.6804
| 18> H 	 6.42674 	 -10.0476 	 64.997
| 19> C 	 4.89889 	 -11.2634 	 66.072
| 20> H 	 4.01196 	 -10.6054 	 65.8667
| 21> H 	 4.94518 	 -12.094 	 65.3556
| 22> H 	 4.85411 	 -11.7149 	 67.1165
| 23> S 	 9.54526 	 -11.1344 	 72.1239
| 24> C 	 9.10168 	 -10.1629 	 73.4323
| 25> C 	 8.0116 	 -9.38858 	 73.0486
| 26> C 	 7.56178 	 -9.67737 	 71.676
| 27> C 	 8.17715 	 -10.8324 	 71.1621
| 28> H 	 7.57231 	 -8.69238 	 73.7202
| 29> C 	 6.26439 	 -9.03591 	 71.073
| 30> H 	 5.44421 	 -9.76521 	 71.1327
| 31> H 	 6.43668 	 -8.91666 	 69.9993
| 32> C 	 5.72729 	 -7.71339 	 71.688
| 33> H 	 5.16932 	 -7.33393 	 70.8652
| 34> H 	 6.60361 	 -7.04336 	 71.8447
| 35> C 	 4.71877 	 -7.89923 	 72.8104
| 36> H 	 4.56235 	 -6.99949 	 73.2912
| 37> H 	 5.17188 	 -8.52419 	 73.5989
| 38> H 	 3.76765 	 -8.37951 	 72.6424
| 39> H 	 7.64809 	 -14.0363 	 67.3429
| 40> H 	 9.57457 	 -10.1012 	 74.3733
| 41> *
| 42>
| 43>                          ****END OF INPUT****

CARTESIAN COORDINATES (ANGSTROEM)
---------------------------------
  S      7.988700  -13.331300   69.729400
  C      7.865710  -13.191600   67.979400
  C      7.684900  -11.888200   67.569300
  C      7.853130  -10.949400   68.649200
  C      7.961310  -11.540600   69.899000
  H      7.826800   -9.853280   68.588400
  C      7.480910  -11.514800   66.097100
  H      7.567990  -12.300800   65.408200
  H      8.332260  -10.872000   65.757000
  C      6.280980  -10.569500   65.937600
  H      6.264210   -9.747680   66.680400
  H      6.426740  -10.047600   64.997000
  C      4.898890  -11.263400   66.072000
  H      4.011960  -10.605400   65.866700
  H      4.945180  -12.094000   65.355600
  H      4.854110  -11.714900   67.116500
  S      9.545260  -11.134400   72.123900
  C      9.101680  -10.162900   73.432300
  C      8.011600   -9.388580   73.048600
  C      7.561780   -9.677370   71.676000
  C      8.177150  -10.832400   71.162100
  H      7.572310   -8.692380   73.720200
  C      6.264390   -9.035910   71.073000
  H      5.444210   -9.765210   71.132700
  H      6.436680   -8.916660   69.999300
  C      5.727290   -7.713390   71.688000
  H      5.169320   -7.333930   70.865200
  H      6.603610   -7.043360   71.844700
  C      4.718770   -7.899230   72.810400
  H      4.562350   -6.999490   73.291200
  H      5.171880   -8.524190   73.598900
  H      3.767650   -8.379510   72.642400
  H      7.648090  -14.036300   67.342900
  H      9.574570  -10.101200   74.373300

 Total Charge           Charge          ....    0
 Multiplicity           Mult            ....    1
 Number of Electrons    NEL             ....  134
 Basis Dimension        Dim             ....  322

ORBITAL ENERGIES
----------------

  NO   OCC          E(Eh)            E(eV)
   0   2.0000     -88.967746     -2420.9355
   1   2.0000     -88.961189     -2420.7570
   2   2.0000     -10.336776      -281.2780
   3   2.0000     -10.324631      -280.9475
   4   2.0000     -10.315583      -280.7013
   5   2.0000     -10.310809      -280.5714
   6   2.0000     -10.309220      -280.5281
   7   2.0000     -10.306642      -280.4580
   8   2.0000     -10.301592      -280.3206
   9   2.0000     -10.296297      -280.1765
  10   2.0000     -10.294724      -280.1337
  11   2.0000     -10.293397      -280.0976
  12   2.0000     -10.290151      -280.0092
  13   2.0000     -10.288661      -279.9687
  14   2.0000     -10.285593      -279.8852
  15   2.0000     -10.273159      -279.5469
  16   2.0000      -8.081502      -219.9088
  17   2.0000      -8.077886      -219.8104
  18   2.0000      -6.040131      -164.3603
  19   2.0000      -6.036230      -164.2542
  20   2.0000      -6.036207      -164.2536
  21   2.0000      -6.032125      -164.1425
  22   2.0000      -6.031934      -164.1373
  23   2.0000      -6.028848      -164.0533
  24   2.0000      -1.008921       -27.4541
  25   2.0000      -0.984350       -26.7855
  26   2.0000      -0.910477       -24.7753
  27   2.0000      -0.906141       -24.6574
  28   2.0000      -0.871578       -23.7169
  29   2.0000      -0.845915       -23.0185
  30   2.0000      -0.839008       -22.8306
  31   2.0000      -0.816736       -22.2245
  32   2.0000      -0.785224       -21.3670
  33   2.0000      -0.775710       -21.1082
  34   2.0000      -0.710228       -19.3263
  35   2.0000      -0.700137       -19.0517
  36   2.0000      -0.689016       -18.7491
  37   2.0000      -0.654185       -17.8013
  38   2.0000      -0.642664       -17.4878
  39   2.0000      -0.623554       -16.9678
  40   2.0000      -0.599026       -16.3003
  41   2.0000      -0.575108       -15.6495
  42   2.0000      -0.551534       -15.0080
  43   2.0000      -0.547243       -14.8912
  44   2.0000      -0.534953       -14.5568
  45   2.0000      -0.531036       -14.4502
  46   2.0000      -0.520638       -14.1673
  47   2.0000      -0.518729       -14.1153
  48   2.0000      -0.509428       -13.8622
  49   2.0000      -0.499191       -13.5837
  50   2.0000      -0.494127       -13.4459
  51   2.0000      -0.478396       -13.0178
  52   2.0000      -0.471973       -12.8430
  53   2.0000      -0.468447       -12.7471
  54   2.0000      -0.464388       -12.6366
  55   2.0000      -0.450343       -12.2545
  56   2.0000      -0.441759       -12.0209
  57   2.0000      -0.438827       -11.9411
  58   2.0000      -0.429905       -11.6983
  59   2.0000      -0.421695       -11.4749
  60   2.0000      -0.419763       -11.4223
  61   2.0000      -0.412525       -11.2254
  62   2.0000      -0.403473       -10.9791
  63   2.0000      -0.350307        -9.5323
  64   2.0000      -0.329374        -8.9627
  65   2.0000      -0.322927        -8.7873
  66   2.0000      -0.294572        -8.0157
  67   0.0000       0.025061         0.6819
  68   0.0000       0.074967         2.0400
  69   0.0000       0.112775         3.0688
  70   0.0000       0.115212         3.1351
  71   0.0000       0.128150         3.4871

MULLIKEN ATOMIC CHARGES
-----------------------
   0 S :    0.105892
   1 C :   -0.118974
   2 C :   -0.083089
   3 C :    0.023113
   4 C :   -0.157520
   5 H :    0.031627
   6 C :    0.079307
   7 H :    0.008484
   8 H :    0.038164
   9 C :   -0.098804
  10 H :    0.028326
  11 H :    0.023876
  12 C :   -0.071370
  13 H :    0.052562
  14 H :    0.025609
  15 H :    0.052253
  16 S :    0.122630
  17 C :   -0.069536
  18 C :   -0.048348
  19 C :   -0.042203
  20 C :   -0.144693
  21 H :    0.013952
  22 C :    0.027133
  23 H :    0.040326
  24 H :    0.011449
  25 C :   -0.067374
  26 H :    0.020947
  27 H :    0.042427
  28 C :   -0.015020
  29 H :    0.015776
  30 H :    0.016780
  31 H :    0.036972
  32 H :    0.054195
  33 H :    0.045131
Sum of atomic charges:   -0.0000000

LOEWDIN ATOMIC CHARGES
----------------------
   0 S :    0.381680
   1 C :   -0.192324
   2 C :   -0.061606
   3 C :   -0.055796
   4 C :   -0.177493
   5 H :    0.034126
   6 C :   -0.027505
   7 H :    0.021797
   8 H :    0.042725
   9 C :   -0.046259
  10 H :    0.023049
  11 H :    0.020116
  12 C :   -0.074819
  13 H :    0.031455
  14 H :    0.020968
  15 H :    0.035526
  16 S :    0.455755
  17 C :   -0.202547
  18 C :   -0.073267
  19 C :   -0.056031
  20 C :   -0.224549
  21 H :    0.022955
  22 C :   -0.035606
  23 H :    0.035954
  24 H :    0.024378
  25 C :   -0.043798
  26 H :    0.025473
  27 H :    0.032065
  28 C :   -0.063966
  29 H :    0.018321
  30 H :    0.025748
  31 H :    0.029073
  32 H :    0.028486
  33 H :    0.025918

  Mayer bond orders larger than 0.100000
B(  0-S ,  1-C ) :   1.1300 B(  0-S ,  4-C ) :   1.1363 B(  1-C ,  2-C ) :   1.6275
B(  1-C , 32-H ) :   0.9641 B(  2-C ,  3-C ) :   1.2180 B(  2-C ,  6-C ) :   1.0275
B(  3-C ,  4-C ) :   1.5987 B(  3-C ,  5-H ) :   0.9783 B(  4-C , 20-C ) :   1.0461
B(  6-C ,  7-H ) :   0.9490 B(  6-C ,  8-H ) :   0.9374 B(  6-C ,  9-C ) :   1.0631
B(  9-C , 10-H ) :   0.9581 B(  9-C , 11-H ) :   0.9569 B(  9-C , 12-C ) :   1.0586
B( 12-C , 13-H ) :   0.9752 B( 12-C , 14-H ) :   0.9773 B( 12-C , 15-H ) :   0.9740
B( 16-S , 17-C ) :   1.1816 B( 16-S , 20-C ) :   1.1754 B( 17-C , 18-C ) :   1.5613
B( 17-C , 33-H ) :   0.9775 B( 18-C , 19-C ) :   1.2653 B( 18-C , 21-H ) :   0.9924
B( 19-C , 20-C ) :   1.5413 B( 19-C , 22-C ) :   1.0340 B( 22-C , 23-H ) :   0.9393
B( 22-C , 24-H ) :   0.9359 B( 22-C , 25-C ) :   1.0734 B( 25-C , 26-H ) :   0.9515
B( 25-C , 27-H ) :   0.9579 B( 25-C , 28-C ) :   1.0759 B( 28-C , 29-H ) :   0.9701
B( 28-C , 30-H ) :   0.9745 B( 28-C , 31-H ) :   0.9707

Dispersion correction           -0.014358064
FINAL SINGLE POINT ENERGY     -1339.866515954386

DIPOLE MOMENT
-------------
                                X             Y             Z
Electronic contribution:     20.61255     -16.37467      11.31477
Nuclear contribution   :    -21.02821      16.88035     -11.64086
                        -----------------------------------------
Total Dipole Moment    :     -0.41566       0.50567      -0.32610
                        -----------------------------------------
Magnitude (a.u.)       :      0.73132
Magnitude (Debye)      :      1.85886

Rotational constants in cm-1:     0.017655     0.009051     0.006547
Rotational constants in MHz :   529.287159   271.347269   196.273552

                             ****ORCA TERMINATED NORMALLY****
TOTAL RUN TIME: 0 days 0 hours 0 minutes 34 seconds 695 msec
