                         Program Version 4.2.1 -  RELEASE  -
|  1> ! wB97X-D3 SP def2-SVP
|  2> %pal
|  3> nprocs 16
|  4> end
|  5>
|  6> * xyz 0 1
|  7> S 	 -34.2415 	 69.5414 	 144.395
|  8> C 	 -35.6943 	 69.5615 	 143.449
|  9> C 	 -35.6866 	 68.5283 	 142.504
| 10> C 	 -34.616 	 67.5944 	 142.837
| 11> C 	 -33.8229 	 67.8934 	 143.928
| 12> H 	 -34.4291 	 66.6485 	 142.278
| 13> C 	 -36.6769 	 68.2432 	 141.422
| 14> H 	 -36.2274 	 67.7437 	 140.527
| 15> H 	 -37.1017 	 69.1934 	 140.961
| 16> C 	 -37.8532 	 67.3235 	 141.955
| 17> H 	 -38.403 	 68.0052 	 142.62
| 18> H 	 -38.5342 	 67.1745 	 141.119
| 19> C 	 -37.6132 	 65.9536 	 142.602
| 20> H 	 -38.5754 	 65.4204 	 142.742
| 21> H 	 -37.0522 	 65.2991 	 141.912
| 22> H 	 -37.1664 	 66.0231 	 143.594
| 23> S 	 -31.143 	 67.7051 	 144.389
| 24> C 	 -30.3824 	 66.421 	 145.246
| 25> C 	 -31.3466 	 65.5086 	 145.589
| 26> C 	 -32.643 	 65.8112 	 145.126
| 27> C 	 -32.7365 	 67.0422 	 144.533
| 28> H 	 -31.0645 	 64.6631 	 146.229
| 29> C 	 -33.8974 	 64.9226 	 145.452
| 30> H 	 -34.832 	 65.4058 	 145.25
| 31> H 	 -33.9432 	 64.7759 	 146.52
| 32> C 	 -33.9765 	 63.6038 	 144.732
| 33> H 	 -34.6614 	 62.9886 	 145.328
| 34> H 	 -33.0229 	 63.1206 	 144.824
| 35> C 	 -34.3523 	 63.7035 	 143.246
| 36> H 	 -33.917 	 64.5865 	 142.696
| 37> H 	 -35.415 	 63.8395 	 143.128
| 38> H 	 -34.0197 	 62.8243 	 142.611
| 39> H 	 -36.3416 	 70.3998 	 143.393
| 40> H 	 -29.3306 	 66.4323 	 145.546
| 41> *
| 42>
| 43>                          ****END OF INPUT****

CARTESIAN COORDINATES (ANGSTROEM)
---------------------------------
  S    -34.241500   69.541400  144.395000
  C    -35.694300   69.561500  143.449000
  C    -35.686600   68.528300  142.504000
  C    -34.616000   67.594400  142.837000
  C    -33.822900   67.893400  143.928000
  H    -34.429100   66.648500  142.278000
  C    -36.676900   68.243200  141.422000
  H    -36.227400   67.743700  140.527000
  H    -37.101700   69.193400  140.961000
  C    -37.853200   67.323500  141.955000
  H    -38.403000   68.005200  142.620000
  H    -38.534200   67.174500  141.119000
  C    -37.613200   65.953600  142.602000
  H    -38.575400   65.420400  142.742000
  H    -37.052200   65.299100  141.912000
  H    -37.166400   66.023100  143.594000
  S    -31.143000   67.705100  144.389000
  C    -30.382400   66.421000  145.246000
  C    -31.346600   65.508600  145.589000
  C    -32.643000   65.811200  145.126000
  C    -32.736500   67.042200  144.533000
  H    -31.064500   64.663100  146.229000
  C    -33.897400   64.922600  145.452000
  H    -34.832000   65.405800  145.250000
  H    -33.943200   64.775900  146.520000
  C    -33.976500   63.603800  144.732000
  H    -34.661400   62.988600  145.328000
  H    -33.022900   63.120600  144.824000
  C    -34.352300   63.703500  143.246000
  H    -33.917000   64.586500  142.696000
  H    -35.415000   63.839500  143.128000
  H    -34.019700   62.824300  142.611000
  H    -36.341600   70.399800  143.393000
  H    -29.330600   66.432300  145.546000

 Total Charge           Charge          ....    0
 Multiplicity           Mult            ....    1
 Number of Electrons    NEL             ....  134
 Basis Dimension        Dim             ....  322

ORBITAL ENERGIES
----------------

  NO   OCC          E(Eh)            E(eV)
   0   2.0000     -88.964891     -2420.8578
   1   2.0000     -88.959927     -2420.7227
   2   2.0000     -10.334937      -281.2279
   3   2.0000     -10.329604      -281.0828
   4   2.0000     -10.316342      -280.7219
   5   2.0000     -10.316186      -280.7177
   6   2.0000     -10.306867      -280.4641
   7   2.0000     -10.304945      -280.4118
   8   2.0000     -10.304922      -280.4112
   9   2.0000     -10.298694      -280.2417
  10   2.0000     -10.293617      -280.1036
  11   2.0000     -10.291894      -280.0567
  12   2.0000     -10.287089      -279.9259
  13   2.0000     -10.284908      -279.8666
  14   2.0000     -10.282756      -279.8080
  15   2.0000     -10.282552      -279.8025
  16   2.0000      -8.079678      -219.8592
  17   2.0000      -8.075929      -219.7572
  18   2.0000      -6.038298      -164.3104
  19   2.0000      -6.034338      -164.2027
  20   2.0000      -6.034201      -164.1990
  21   2.0000      -6.030267      -164.0919
  22   2.0000      -6.030052      -164.0861
  23   2.0000      -6.026906      -164.0004
  24   2.0000      -1.009559       -27.4715
  25   2.0000      -0.988304       -26.8931
  26   2.0000      -0.908897       -24.7324
  27   2.0000      -0.905762       -24.6470
  28   2.0000      -0.867183       -23.5973
  29   2.0000      -0.845037       -22.9946
  30   2.0000      -0.841494       -22.8982
  31   2.0000      -0.816692       -22.2233
  32   2.0000      -0.782022       -21.2799
  33   2.0000      -0.778107       -21.1734
  34   2.0000      -0.700885       -19.0721
  35   2.0000      -0.698621       -19.0104
  36   2.0000      -0.693758       -18.8781
  37   2.0000      -0.657328       -17.8868
  38   2.0000      -0.641683       -17.4611
  39   2.0000      -0.615917       -16.7600
  40   2.0000      -0.601482       -16.3672
  41   2.0000      -0.575474       -15.6594
  42   2.0000      -0.551883       -15.0175
  43   2.0000      -0.546068       -14.8593
  44   2.0000      -0.538787       -14.6611
  45   2.0000      -0.534786       -14.5523
  46   2.0000      -0.516132       -14.0447
  47   2.0000      -0.509722       -13.8703
  48   2.0000      -0.504598       -13.7308
  49   2.0000      -0.500205       -13.6113
  50   2.0000      -0.485597       -13.2138
  51   2.0000      -0.479063       -13.0360
  52   2.0000      -0.477222       -12.9859
  53   2.0000      -0.471826       -12.8390
  54   2.0000      -0.455773       -12.4022
  55   2.0000      -0.444146       -12.0858
  56   2.0000      -0.440575       -11.9887
  57   2.0000      -0.435699       -11.8560
  58   2.0000      -0.432100       -11.7580
  59   2.0000      -0.424357       -11.5473
  60   2.0000      -0.417463       -11.3597
  61   2.0000      -0.413564       -11.2536
  62   2.0000      -0.405897       -11.0450
  63   2.0000      -0.342928        -9.3316
  64   2.0000      -0.331382        -9.0173
  65   2.0000      -0.324046        -8.8177
  66   2.0000      -0.303268        -8.2523
  67   0.0000       0.035882         0.9764
  68   0.0000       0.062616         1.7039
  69   0.0000       0.110660         3.0112
  70   0.0000       0.125616         3.4182
  71   0.0000       0.135419         3.6849

MULLIKEN ATOMIC CHARGES
-----------------------
   0 S :    0.112585
   1 C :   -0.103441
   2 C :   -0.078662
   3 C :    0.023279
   4 C :   -0.138832
   5 H :    0.016561
   6 C :    0.025804
   7 H :    0.036210
   8 H :    0.037176
   9 C :   -0.079366
  10 H :    0.022922
  11 H :    0.025785
  12 C :   -0.061570
  13 H :    0.037341
  14 H :    0.038164
  15 H :    0.054455
  16 S :    0.095324
  17 C :   -0.097986
  18 C :   -0.050372
  19 C :   -0.021159
  20 C :   -0.169685
  21 H :    0.027129
  22 C :    0.072797
  23 H :    0.010819
  24 H :    0.024707
  25 C :   -0.039425
  26 H :    0.027438
  27 H :    0.016140
  28 C :   -0.084571
  29 H :    0.038230
  30 H :    0.027912
  31 H :    0.043638
  32 H :    0.041307
  33 H :    0.069348
Sum of atomic charges:    0.0000000

LOEWDIN ATOMIC CHARGES
----------------------
   0 S :    0.406519
   1 C :   -0.191870
   2 C :   -0.066043
   3 C :   -0.060185
   4 C :   -0.201047
   5 H :    0.031862
   6 C :   -0.042136
   7 H :    0.033754
   8 H :    0.039075
   9 C :   -0.041319
  10 H :    0.022861
  11 H :    0.022050
  12 C :   -0.070742
  13 H :    0.034630
  14 H :    0.025901
  15 H :    0.026945
  16 S :    0.423441
  17 C :   -0.194705
  18 C :   -0.079217
  19 C :   -0.060400
  20 C :   -0.198177
  21 H :    0.035497
  22 C :   -0.024012
  23 H :    0.025478
  24 H :    0.030256
  25 C :   -0.041358
  26 H :    0.027786
  27 H :    0.018246
  28 C :   -0.075430
  29 H :    0.028472
  30 H :    0.020840
  31 H :    0.034638
  32 H :    0.021965
  33 H :    0.036423

  Mayer bond orders larger than 0.100000
B(  0-S ,  1-C ) :   1.1561 B(  0-S ,  4-C ) :   1.1403 B(  1-C ,  2-C ) :   1.5872
B(  1-C , 32-H ) :   0.9712 B(  2-C ,  3-C ) :   1.2348 B(  2-C ,  6-C ) :   1.0437
B(  3-C ,  4-C ) :   1.5901 B(  3-C ,  5-H ) :   0.9839 B(  4-C , 20-C ) :   0.9929
B(  6-C ,  7-H ) :   0.9419 B(  6-C ,  8-H ) :   0.9410 B(  6-C ,  9-C ) :   1.0581
B(  9-C , 10-H ) :   0.9556 B(  9-C , 11-H ) :   0.9557 B(  9-C , 12-C ) :   1.0871
B( 12-C , 13-H ) :   0.9673 B( 12-C , 14-H ) :   0.9680 B( 12-C , 15-H ) :   0.9706
B( 16-S , 17-C ) :   1.1698 B( 16-S , 20-C ) :   1.1682 B( 17-C , 18-C ) :   1.5838
B( 17-C , 20-C ) :   0.1026 B( 17-C , 33-H ) :   0.9690 B( 18-C , 19-C ) :   1.2526
B( 18-C , 21-H ) :   0.9894 B( 19-C , 20-C ) :   1.6099 B( 19-C , 22-C ) :   1.0259
B( 22-C , 23-H ) :   0.9419 B( 22-C , 24-H ) :   0.9387 B( 22-C , 25-C ) :   1.0756
B( 25-C , 26-H ) :   0.9533 B( 25-C , 27-H ) :   0.9587 B( 25-C , 28-C ) :   1.0632
B( 28-C , 29-H ) :   0.9727 B( 28-C , 30-H ) :   0.9742 B( 28-C , 31-H ) :   0.9708

Dispersion correction           -0.016229372
FINAL SINGLE POINT ENERGY     -1339.883611530636

DIPOLE MOMENT
-------------
                                X             Y             Z
Electronic contribution:     20.19013      20.54316       8.18560
Nuclear contribution   :    -20.61668     -21.01087      -8.31717
                        -----------------------------------------
Total Dipole Moment    :     -0.42656      -0.46771      -0.13157
                        -----------------------------------------
Magnitude (a.u.)       :      0.64654
Magnitude (Debye)      :      1.64338

Rotational constants in cm-1:     0.018544     0.010489     0.007356
Rotational constants in MHz :   555.948114   314.449694   220.529740

                             ****ORCA TERMINATED NORMALLY****
TOTAL RUN TIME: 0 days 0 hours 0 minutes 37 seconds 64 msec
