                         Program Version 4.2.1 -  RELEASE  -
|  1> ! wB97X-D3 SP def2-SVP
|  2> %pal
|  3> nprocs 16
|  4> end
|  5>
|  6> * xyz 0 1
|  7> S 	 57.0388 	 27.1322 	 39.8003
|  8> C 	 58.5124 	 26.7437 	 40.5608
|  9> C 	 58.2801 	 26.1281 	 41.8053
| 10> C 	 56.9069 	 25.8097 	 41.9854
| 11> C 	 56.1007 	 26.3607 	 41.0625
| 12> H 	 56.3353 	 25.3261 	 42.7935
| 13> C 	 59.4412 	 25.6569 	 42.7311
| 14> H 	 60.3099 	 25.5517 	 42.1081
| 15> H 	 59.3933 	 24.604 	 43.1766
| 16> C 	 59.8924 	 26.5219 	 43.8932
| 17> H 	 60.7658 	 26.0268 	 44.3426
| 18> H 	 60.2688 	 27.4307 	 43.3624
| 19> C 	 58.7962 	 26.8053 	 44.9255
| 20> H 	 58.1095 	 27.5696 	 44.7827
| 21> H 	 58.3468 	 25.8099 	 45.1831
| 22> H 	 59.2059 	 27.2202 	 45.845
| 23> S 	 53.6985 	 27.7777 	 40.9106
| 24> C 	 52.2057 	 26.8931 	 41.0162
| 25> C 	 52.3538 	 25.5219 	 41.0955
| 26> C 	 53.7442 	 25.1825 	 40.9661
| 27> C 	 54.6286 	 26.3017 	 40.9501
| 28> H 	 51.4777 	 24.9113 	 41.0209
| 29> C 	 54.2242 	 23.7809 	 40.92
| 30> H 	 53.6328 	 23.243 	 41.6465
| 31> H 	 55.2309 	 23.6007 	 41.2997
| 32> C 	 54.2603 	 23.2514 	 39.4689
| 33> H 	 55.1551 	 23.5694 	 38.8275
| 34> H 	 53.4151 	 23.6389 	 38.9713
| 35> C 	 54.2199 	 21.7552 	 39.3458
| 36> H 	 53.8995 	 21.4562 	 38.3328
| 37> H 	 53.4319 	 21.3263 	 40.0421
| 38> H 	 55.2153 	 21.2863 	 39.5138
| 39> H 	 59.4676 	 27.2016 	 40.3941
| 40> H 	 51.1824 	 27.3259 	 40.8432
| 41> *
| 42>
| 43>                          ****END OF INPUT****

CARTESIAN COORDINATES (ANGSTROEM)
---------------------------------
  S     57.038800   27.132200   39.800300
  C     58.512400   26.743700   40.560800
  C     58.280100   26.128100   41.805300
  C     56.906900   25.809700   41.985400
  C     56.100700   26.360700   41.062500
  H     56.335300   25.326100   42.793500
  C     59.441200   25.656900   42.731100
  H     60.309900   25.551700   42.108100
  H     59.393300   24.604000   43.176600
  C     59.892400   26.521900   43.893200
  H     60.765800   26.026800   44.342600
  H     60.268800   27.430700   43.362400
  C     58.796200   26.805300   44.925500
  H     58.109500   27.569600   44.782700
  H     58.346800   25.809900   45.183100
  H     59.205900   27.220200   45.845000
  S     53.698500   27.777700   40.910600
  C     52.205700   26.893100   41.016200
  C     52.353800   25.521900   41.095500
  C     53.744200   25.182500   40.966100
  C     54.628600   26.301700   40.950100
  H     51.477700   24.911300   41.020900
  C     54.224200   23.780900   40.920000
  H     53.632800   23.243000   41.646500
  H     55.230900   23.600700   41.299700
  C     54.260300   23.251400   39.468900
  H     55.155100   23.569400   38.827500
  H     53.415100   23.638900   38.971300
  C     54.219900   21.755200   39.345800
  H     53.899500   21.456200   38.332800
  H     53.431900   21.326300   40.042100
  H     55.215300   21.286300   39.513800
  H     59.467600   27.201600   40.394100
  H     51.182400   27.325900   40.843200

 Total Charge           Charge          ....    0
 Multiplicity           Mult            ....    1
 Number of Electrons    NEL             ....  134
 Basis Dimension        Dim             ....  322

ORBITAL ENERGIES
----------------

  NO   OCC          E(Eh)            E(eV)
   0   2.0000     -88.968513     -2420.9563
   1   2.0000     -88.965663     -2420.8788
   2   2.0000     -10.328199      -281.0446
   3   2.0000     -10.325565      -280.9729
   4   2.0000     -10.321615      -280.8654
   5   2.0000     -10.312892      -280.6281
   6   2.0000     -10.308006      -280.4951
   7   2.0000     -10.307405      -280.4788
   8   2.0000     -10.296019      -280.1689
   9   2.0000     -10.293721      -280.1064
  10   2.0000     -10.292222      -280.0656
  11   2.0000     -10.288307      -279.9591
  12   2.0000     -10.284979      -279.8685
  13   2.0000     -10.282194      -279.7927
  14   2.0000     -10.279923      -279.7309
  15   2.0000     -10.273332      -279.5516
  16   2.0000      -8.083339      -219.9588
  17   2.0000      -8.081194      -219.9005
  18   2.0000      -6.041796      -164.4056
  19   2.0000      -6.039589      -164.3456
  20   2.0000      -6.037761      -164.2958
  21   2.0000      -6.035470      -164.2335
  22   2.0000      -6.034222      -164.1995
  23   2.0000      -6.032143      -164.1429
  24   2.0000      -1.009727       -27.4761
  25   2.0000      -0.987434       -26.8694
  26   2.0000      -0.910295       -24.7704
  27   2.0000      -0.908019       -24.7085
  28   2.0000      -0.870393       -23.6846
  29   2.0000      -0.853323       -23.2201
  30   2.0000      -0.846079       -23.0230
  31   2.0000      -0.819651       -22.3038
  32   2.0000      -0.786119       -21.3914
  33   2.0000      -0.766587       -20.8599
  34   2.0000      -0.700555       -19.0631
  35   2.0000      -0.693228       -18.8637
  36   2.0000      -0.688839       -18.7443
  37   2.0000      -0.658456       -17.9175
  38   2.0000      -0.644397       -17.5349
  39   2.0000      -0.616091       -16.7647
  40   2.0000      -0.596547       -16.2329
  41   2.0000      -0.577646       -15.7185
  42   2.0000      -0.560956       -15.2644
  43   2.0000      -0.551721       -15.0131
  44   2.0000      -0.537960       -14.6386
  45   2.0000      -0.525853       -14.3092
  46   2.0000      -0.515145       -14.0178
  47   2.0000      -0.510833       -13.9005
  48   2.0000      -0.500781       -13.6269
  49   2.0000      -0.499645       -13.5960
  50   2.0000      -0.486545       -13.2396
  51   2.0000      -0.481721       -13.1083
  52   2.0000      -0.469235       -12.7685
  53   2.0000      -0.463442       -12.6109
  54   2.0000      -0.458944       -12.4885
  55   2.0000      -0.449321       -12.2266
  56   2.0000      -0.439376       -11.9560
  57   2.0000      -0.432632       -11.7725
  58   2.0000      -0.429335       -11.6828
  59   2.0000      -0.423676       -11.5288
  60   2.0000      -0.419893       -11.4259
  61   2.0000      -0.408447       -11.1144
  62   2.0000      -0.403633       -10.9834
  63   2.0000      -0.347628        -9.4594
  64   2.0000      -0.334535        -9.1032
  65   2.0000      -0.327277        -8.9057
  66   2.0000      -0.296448        -8.0668
  67   0.0000       0.032464         0.8834
  68   0.0000       0.066242         1.8025
  69   0.0000       0.114138         3.1058
  70   0.0000       0.122692         3.3386
  71   0.0000       0.126571         3.4442

MULLIKEN ATOMIC CHARGES
-----------------------
   0 S :    0.116850
   1 C :   -0.086159
   2 C :   -0.087490
   3 C :    0.042607
   4 C :   -0.170111
   5 H :    0.026159
   6 C :    0.008714
   7 H :    0.011694
   8 H :    0.034842
   9 C :   -0.064454
  10 H :    0.033524
  11 H :    0.020814
  12 C :   -0.024168
  13 H :    0.027187
  14 H :    0.030960
  15 H :    0.017364
  16 S :    0.121102
  17 C :   -0.113710
  18 C :   -0.021939
  19 C :   -0.050800
  20 C :   -0.156858
  21 H :    0.021229
  22 C :    0.072257
  23 H :    0.020716
  24 H :    0.017212
  25 C :   -0.068531
  26 H :    0.048956
  27 H :    0.014199
  28 C :   -0.071754
  29 H :    0.031451
  30 H :    0.031189
  31 H :    0.040774
  32 H :    0.051708
  33 H :    0.074468
Sum of atomic charges:   -0.0000000

LOEWDIN ATOMIC CHARGES
----------------------
   0 S :    0.424499
   1 C :   -0.211054
   2 C :   -0.059332
   3 C :   -0.065007
   4 C :   -0.195057
   5 H :    0.042026
   6 C :   -0.043458
   7 H :    0.025752
   8 H :    0.034280
   9 C :   -0.044070
  10 H :    0.027945
  11 H :    0.022808
  12 C :   -0.070857
  13 H :    0.020620
  14 H :    0.030750
  15 H :    0.028550
  16 S :    0.418551
  17 C :   -0.193095
  18 C :   -0.074253
  19 C :   -0.046929
  20 C :   -0.214534
  21 H :    0.033329
  22 C :   -0.038784
  23 H :    0.029496
  24 H :    0.030990
  25 C :   -0.042633
  26 H :    0.039276
  27 H :    0.014451
  28 C :   -0.073277
  29 H :    0.026757
  30 H :    0.026741
  31 H :    0.026573
  32 H :    0.028287
  33 H :    0.040660

  Mayer bond orders larger than 0.100000
B(  0-S ,  1-C ) :   1.1623 B(  0-S ,  4-C ) :   1.1525 B(  1-C ,  2-C ) :   1.6070
B(  1-C ,  4-C ) :   0.1033 B(  1-C , 32-H ) :   0.9593 B(  2-C ,  3-C ) :   1.2249
B(  2-C ,  6-C ) :   1.0042 B(  3-C ,  4-C ) :   1.6197 B(  3-C ,  5-H ) :   0.9886
B(  4-C , 20-C ) :   1.0049 B(  6-C ,  7-H ) :   0.9436 B(  6-C ,  8-H ) :   0.9499
B(  6-C ,  9-C ) :   1.0854 B(  9-C , 10-H ) :   0.9538 B(  9-C , 11-H ) :   0.9527
B(  9-C , 12-C ) :   1.0745 B( 12-C , 13-H ) :   0.9731 B( 12-C , 14-H ) :   0.9739
B( 12-C , 15-H ) :   0.9688 B( 16-S , 17-C ) :   1.1753 B( 16-S , 20-C ) :   1.1434
B( 17-C , 18-C ) :   1.6017 B( 17-C , 33-H ) :   0.9552 B( 18-C , 19-C ) :   1.2516
B( 18-C , 21-H ) :   0.9917 B( 19-C , 20-C ) :   1.5667 B( 19-C , 22-C ) :   1.0640
B( 22-C , 23-H ) :   0.9398 B( 22-C , 24-H ) :   0.9285 B( 22-C , 25-C ) :   1.0432
B( 25-C , 26-H ) :   0.9506 B( 25-C , 27-H ) :   0.9618 B( 25-C , 28-C ) :   1.0897
B( 28-C , 29-H ) :   0.9730 B( 28-C , 30-H ) :   0.9745 B( 28-C , 31-H ) :   0.9748

Dispersion correction           -0.014227520
FINAL SINGLE POINT ENERGY     -1339.863583791767

DIPOLE MOMENT
-------------
                                X             Y             Z
Electronic contribution:     -9.05042      18.29695      -9.76225
Nuclear contribution   :      9.06389     -18.66512       9.99429
                        -----------------------------------------
Total Dipole Moment    :      0.01347      -0.36817       0.23203
                        -----------------------------------------
Magnitude (a.u.)       :      0.43540
Magnitude (Debye)      :      1.10669

Rotational constants in cm-1:     0.018241     0.008222     0.007173
Rotational constants in MHz :   546.862019   246.474589   215.035855

                             ****ORCA TERMINATED NORMALLY****
TOTAL RUN TIME: 0 days 0 hours 0 minutes 30 seconds 152 msec
