                         Program Version 4.2.1 -  RELEASE  -
|  1> ! wB97X-D3 SP def2-SVP
|  2> %pal
|  3> nprocs 16
|  4> end
|  5>
|  6> * xyz 0 1
|  7> S 	 -31.331 	 32.8111 	 38.7477
|  8> C 	 -30.1552 	 34.0624 	 38.5872
|  9> C 	 -29.409 	 34.1597 	 39.7384
| 10> C 	 -29.7409 	 33.1887 	 40.6957
| 11> C 	 -30.9091 	 32.4625 	 40.4332
| 12> H 	 -29.2714 	 33.0966 	 41.7168
| 13> C 	 -28.3354 	 35.1759 	 39.9605
| 14> H 	 -28.3036 	 35.4752 	 41.0346
| 15> H 	 -28.3821 	 36.0214 	 39.3356
| 16> C 	 -26.9057 	 34.557 	 39.5601
| 17> H 	 -26.8713 	 34.0404 	 38.5739
| 18> H 	 -26.2681 	 35.4474 	 39.4354
| 19> C 	 -26.2847 	 33.6646 	 40.6581
| 20> H 	 -25.2589 	 33.4016 	 40.4061
| 21> H 	 -26.1801 	 34.2414 	 41.507
| 22> H 	 -26.7115 	 32.7308 	 40.8754
| 23> S 	 -31.75 	 29.7804 	 40.6468
| 24> C 	 -32.191 	 29.3078 	 42.2738
| 25> C 	 -32.0418 	 30.3424 	 43.2088
| 26> C 	 -31.5893 	 31.566 	 42.6532
| 27> C 	 -31.5924 	 31.4844 	 41.2685
| 28> H 	 -32.2042 	 30.1091 	 44.2708
| 29> C 	 -31.3869 	 32.7632 	 43.5681
| 30> H 	 -32.3808 	 33.3007 	 43.7457
| 31> H 	 -30.8919 	 33.4878 	 43.0464
| 32> C 	 -30.7647 	 32.5046 	 44.9529
| 33> H 	 -31.4584 	 31.8134 	 45.4591
| 34> H 	 -30.77 	 33.4998 	 45.5052
| 35> C 	 -29.3596 	 32.0068 	 44.9343
| 36> H 	 -28.5683 	 32.7351 	 44.7523
| 37> H 	 -29.1768 	 31.1759 	 44.2634
| 38> H 	 -29.1701 	 31.634 	 45.9173
| 39> H 	 -30.0104 	 34.8425 	 37.8676
| 40> H 	 -32.5718 	 28.4314 	 42.6977
| 41> *
| 42>
| 43>                          ****END OF INPUT****

CARTESIAN COORDINATES (ANGSTROEM)
---------------------------------
  S    -31.331000   32.811100   38.747700
  C    -30.155200   34.062400   38.587200
  C    -29.409000   34.159700   39.738400
  C    -29.740900   33.188700   40.695700
  C    -30.909100   32.462500   40.433200
  H    -29.271400   33.096600   41.716800
  C    -28.335400   35.175900   39.960500
  H    -28.303600   35.475200   41.034600
  H    -28.382100   36.021400   39.335600
  C    -26.905700   34.557000   39.560100
  H    -26.871300   34.040400   38.573900
  H    -26.268100   35.447400   39.435400
  C    -26.284700   33.664600   40.658100
  H    -25.258900   33.401600   40.406100
  H    -26.180100   34.241400   41.507000
  H    -26.711500   32.730800   40.875400
  S    -31.750000   29.780400   40.646800
  C    -32.191000   29.307800   42.273800
  C    -32.041800   30.342400   43.208800
  C    -31.589300   31.566000   42.653200
  C    -31.592400   31.484400   41.268500
  H    -32.204200   30.109100   44.270800
  C    -31.386900   32.763200   43.568100
  H    -32.380800   33.300700   43.745700
  H    -30.891900   33.487800   43.046400
  C    -30.764700   32.504600   44.952900
  H    -31.458400   31.813400   45.459100
  H    -30.770000   33.499800   45.505200
  C    -29.359600   32.006800   44.934300
  H    -28.568300   32.735100   44.752300
  H    -29.176800   31.175900   44.263400
  H    -29.170100   31.634000   45.917300
  H    -30.010400   34.842500   37.867600
  H    -32.571800   28.431400   42.697700

 Total Charge           Charge          ....    0
 Multiplicity           Mult            ....    1
 Number of Electrons    NEL             ....  134
 Basis Dimension        Dim             ....  322

ORBITAL ENERGIES
----------------

  NO   OCC          E(Eh)            E(eV)
   0   2.0000     -88.973901     -2421.1029
   1   2.0000     -88.962912     -2420.8039
   2   2.0000     -10.331137      -281.1245
   3   2.0000     -10.329268      -281.0737
   4   2.0000     -10.317262      -280.7470
   5   2.0000     -10.306950      -280.4664
   6   2.0000     -10.306089      -280.4429
   7   2.0000     -10.296530      -280.1828
   8   2.0000     -10.294502      -280.1276
   9   2.0000     -10.293405      -280.0978
  10   2.0000     -10.293325      -280.0956
  11   2.0000     -10.293059      -280.0884
  12   2.0000     -10.292460      -280.0721
  13   2.0000     -10.290465      -280.0178
  14   2.0000     -10.274183      -279.5747
  15   2.0000     -10.265941      -279.3504
  16   2.0000      -8.087124      -220.0618
  17   2.0000      -8.077479      -219.7994
  18   2.0000      -6.045819      -164.5151
  19   2.0000      -6.042089      -164.4136
  20   2.0000      -6.037511      -164.2890
  21   2.0000      -6.035973      -164.2472
  22   2.0000      -6.031891      -164.1361
  23   2.0000      -6.028388      -164.0408
  24   2.0000      -1.003799       -27.3148
  25   2.0000      -0.982721       -26.7412
  26   2.0000      -0.914548       -24.8861
  27   2.0000      -0.905042       -24.6274
  28   2.0000      -0.868785       -23.6409
  29   2.0000      -0.854576       -23.2542
  30   2.0000      -0.842486       -22.9252
  31   2.0000      -0.812821       -22.1180
  32   2.0000      -0.792105       -21.5543
  33   2.0000      -0.775464       -21.1015
  34   2.0000      -0.709716       -19.3124
  35   2.0000      -0.701655       -19.0930
  36   2.0000      -0.698434       -19.0054
  37   2.0000      -0.654430       -17.8079
  38   2.0000      -0.635752       -17.2997
  39   2.0000      -0.615181       -16.7399
  40   2.0000      -0.599478       -16.3126
  41   2.0000      -0.572365       -15.5748
  42   2.0000      -0.550424       -14.9778
  43   2.0000      -0.547094       -14.8872
  44   2.0000      -0.541965       -14.7476
  45   2.0000      -0.532141       -14.4803
  46   2.0000      -0.523195       -14.2369
  47   2.0000      -0.513958       -13.9855
  48   2.0000      -0.504432       -13.7263
  49   2.0000      -0.497628       -13.5411
  50   2.0000      -0.493671       -13.4335
  51   2.0000      -0.475712       -12.9448
  52   2.0000      -0.472165       -12.8483
  53   2.0000      -0.464255       -12.6330
  54   2.0000      -0.461831       -12.5671
  55   2.0000      -0.449690       -12.2367
  56   2.0000      -0.440754       -11.9935
  57   2.0000      -0.437700       -11.9104
  58   2.0000      -0.433702       -11.8016
  59   2.0000      -0.427441       -11.6313
  60   2.0000      -0.424402       -11.5486
  61   2.0000      -0.418923       -11.3995
  62   2.0000      -0.408750       -11.1226
  63   2.0000      -0.347011        -9.4427
  64   2.0000      -0.335195        -9.1211
  65   2.0000      -0.324312        -8.8250
  66   2.0000      -0.285377        -7.7655
  67   0.0000       0.021501         0.5851
  68   0.0000       0.065441         1.7807
  69   0.0000       0.100630         2.7383
  70   0.0000       0.118788         3.2324
  71   0.0000       0.124756         3.3948

MULLIKEN ATOMIC CHARGES
-----------------------
   0 S :    0.105587
   1 C :   -0.078941
   2 C :   -0.109421
   3 C :    0.012508
   4 C :   -0.181430
   5 H :    0.030458
   6 C :    0.073369
   7 H :    0.033739
   8 H :    0.008850
   9 C :   -0.105738
  10 H :    0.041248
  11 H :    0.027763
  12 C :   -0.004560
  13 H :    0.019143
  14 H :    0.003667
  15 H :    0.032035
  16 S :    0.115876
  17 C :   -0.045644
  18 C :   -0.073639
  19 C :   -0.050821
  20 C :   -0.105009
  21 H :    0.025185
  22 C :    0.096747
  23 H :    0.051695
  24 H :   -0.020987
  25 C :   -0.102704
  26 H :    0.037661
  27 H :    0.042678
  28 C :   -0.027624
  29 H :    0.031848
  30 H :    0.036639
  31 H :    0.021771
  32 H :    0.031410
  33 H :    0.026642
Sum of atomic charges:    0.0000000

LOEWDIN ATOMIC CHARGES
----------------------
   0 S :    0.405176
   1 C :   -0.208826
   2 C :   -0.070878
   3 C :   -0.072088
   4 C :   -0.189697
   5 H :    0.036409
   6 C :   -0.024839
   7 H :    0.034670
   8 H :    0.021816
   9 C :   -0.032933
  10 H :    0.027769
  11 H :    0.022480
  12 C :   -0.062187
  13 H :    0.028828
  14 H :    0.013269
  15 H :    0.019426
  16 S :    0.389001
  17 C :   -0.176109
  18 C :   -0.071471
  19 C :   -0.044334
  20 C :   -0.184841
  21 H :    0.032354
  22 C :   -0.032356
  23 H :    0.049400
  24 H :    0.008903
  25 C :   -0.041548
  26 H :    0.023962
  27 H :    0.038109
  28 C :   -0.070097
  29 H :    0.026939
  30 H :    0.026302
  31 H :    0.026919
  32 H :    0.029545
  33 H :    0.020930

  Mayer bond orders larger than 0.100000
B(  0-S ,  1-C ) :   1.1409 B(  0-S ,  4-C ) :   1.1509 B(  1-C ,  2-C ) :   1.6005
B(  1-C ,  4-C ) :   0.1005 B(  1-C , 32-H ) :   0.9630 B(  2-C ,  3-C ) :   1.2751
B(  2-C ,  6-C ) :   1.0427 B(  3-C ,  4-C ) :   1.5457 B(  3-C ,  5-H ) :   0.9672
B(  4-C , 20-C ) :   1.0457 B(  6-C ,  7-H ) :   0.9439 B(  6-C ,  8-H ) :   0.9395
B(  6-C ,  9-C ) :   1.0556 B(  9-C , 10-H ) :   0.9589 B(  9-C , 11-H ) :   0.9601
B(  9-C , 12-C ) :   1.0833 B( 12-C , 13-H ) :   0.9686 B( 12-C , 14-H ) :   0.9729
B( 12-C , 15-H ) :   0.9744 B( 16-S , 17-C ) :   1.1458 B( 16-S , 20-C ) :   1.1166
B( 17-C , 18-C ) :   1.6395 B( 17-C , 33-H ) :   0.9639 B( 18-C , 19-C ) :   1.2258
B( 18-C , 21-H ) :   0.9817 B( 19-C , 20-C ) :   1.5975 B( 19-C , 22-C ) :   1.0304
B( 22-C , 23-H ) :   0.9279 B( 22-C , 24-H ) :   0.9257 B( 22-C , 25-C ) :   1.0761
B( 25-C , 26-H ) :   0.9530 B( 25-C , 27-H ) :   0.9490 B( 25-C , 28-C ) :   1.0874
B( 28-C , 29-H ) :   0.9707 B( 28-C , 30-H ) :   0.9724 B( 28-C , 31-H ) :   0.9682

Dispersion correction           -0.014961062
FINAL SINGLE POINT ENERGY     -1339.854715608123

DIPOLE MOMENT
-------------
                                X             Y             Z
Electronic contribution:    -20.33464     -12.23643     -17.59539
Nuclear contribution   :     20.80033      12.57214      18.34053
                        -----------------------------------------
Total Dipole Moment    :      0.46569       0.33571       0.74513
                        -----------------------------------------
Magnitude (a.u.)       :      0.94063
Magnitude (Debye)      :      2.39090

Rotational constants in cm-1:     0.017241     0.009930     0.007358
Rotational constants in MHz :   516.871834   297.690518   220.598689

                             ****ORCA TERMINATED NORMALLY****
TOTAL RUN TIME: 0 days 0 hours 0 minutes 35 seconds 680 msec
