                         Program Version 4.2.1 -  RELEASE  -
|  1> ! wB97X-D3 SP def2-SVP
|  2> %pal
|  3> nprocs 16
|  4> end
|  5>
|  6> * xyz 0 1
|  7> S 	 -35.8281 	 64.7411 	 144.279
|  8> C 	 -34.3257 	 64.7889 	 143.399
|  9> C 	 -33.4085 	 65.5975 	 144.009
| 10> C 	 -33.8657 	 66.1584 	 145.228
| 11> C 	 -35.149 	 65.7236 	 145.626
| 12> H 	 -33.3548 	 66.7339 	 146.005
| 13> C 	 -31.9599 	 65.8373 	 143.435
| 14> H 	 -31.9797 	 65.8936 	 142.333
| 15> H 	 -31.3379 	 64.9213 	 143.612
| 16> C 	 -31.3613 	 67.2235 	 143.923
| 17> H 	 -31.2831 	 67.2282 	 145.062
| 18> H 	 -30.3838 	 67.3359 	 143.507
| 19> C 	 -32.1367 	 68.3955 	 143.397
| 20> H 	 -33.1463 	 68.3465 	 143.556
| 21> H 	 -31.7243 	 69.3462 	 143.845
| 22> H 	 -31.9808 	 68.3995 	 142.349
| 23> S 	 -36.8826 	 64.6995 	 147.439
| 24> C 	 -37.331 	 65.522 	 148.806
| 25> C 	 -36.6719 	 66.7261 	 148.939
| 26> C 	 -35.7853 	 66.9457 	 147.882
| 27> C 	 -35.8006 	 65.9441 	 146.926
| 28> H 	 -36.6996 	 67.3727 	 149.781
| 29> C 	 -34.9451 	 68.1604 	 147.91
| 30> H 	 -35.6447 	 69.013 	 148.011
| 31> H 	 -34.6 	 68.4032 	 146.899
| 32> C 	 -33.8036 	 68.2213 	 148.905
| 33> H 	 -32.927 	 67.6371 	 148.401
| 34> H 	 -34.1204 	 67.6169 	 149.841
| 35> C 	 -33.1789 	 69.5907 	 149.101
| 36> H 	 -32.1449 	 69.4442 	 149.322
| 37> H 	 -33.6032 	 70.1797 	 149.875
| 38> H 	 -33.3033 	 70.2466 	 148.26
| 39> H 	 -34.102 	 64.2171 	 142.516
| 40> H 	 -37.9247 	 65.173 	 149.647
| 41> *
| 42>
| 43>                          ****END OF INPUT****

CARTESIAN COORDINATES (ANGSTROEM)
---------------------------------
  S    -35.828100   64.741100  144.279000
  C    -34.325700   64.788900  143.399000
  C    -33.408500   65.597500  144.009000
  C    -33.865700   66.158400  145.228000
  C    -35.149000   65.723600  145.626000
  H    -33.354800   66.733900  146.005000
  C    -31.959900   65.837300  143.435000
  H    -31.979700   65.893600  142.333000
  H    -31.337900   64.921300  143.612000
  C    -31.361300   67.223500  143.923000
  H    -31.283100   67.228200  145.062000
  H    -30.383800   67.335900  143.507000
  C    -32.136700   68.395500  143.397000
  H    -33.146300   68.346500  143.556000
  H    -31.724300   69.346200  143.845000
  H    -31.980800   68.399500  142.349000
  S    -36.882600   64.699500  147.439000
  C    -37.331000   65.522000  148.806000
  C    -36.671900   66.726100  148.939000
  C    -35.785300   66.945700  147.882000
  C    -35.800600   65.944100  146.926000
  H    -36.699600   67.372700  149.781000
  C    -34.945100   68.160400  147.910000
  H    -35.644700   69.013000  148.011000
  H    -34.600000   68.403200  146.899000
  C    -33.803600   68.221300  148.905000
  H    -32.927000   67.637100  148.401000
  H    -34.120400   67.616900  149.841000
  C    -33.178900   69.590700  149.101000
  H    -32.144900   69.444200  149.322000
  H    -33.603200   70.179700  149.875000
  H    -33.303300   70.246600  148.260000
  H    -34.102000   64.217100  142.516000
  H    -37.924700   65.173000  149.647000

 Total Charge           Charge          ....    0
 Multiplicity           Mult            ....    1
 Number of Electrons    NEL             ....  134
 Basis Dimension        Dim             ....  322

ORBITAL ENERGIES
----------------

  NO   OCC          E(Eh)            E(eV)
   0   2.0000     -88.967289     -2420.9230
   1   2.0000     -88.966879     -2420.9118
   2   2.0000     -10.337412      -281.2953
   3   2.0000     -10.326671      -281.0030
   4   2.0000     -10.311075      -280.5786
   5   2.0000     -10.310335      -280.5585
   6   2.0000     -10.303114      -280.3620
   7   2.0000     -10.302999      -280.3589
   8   2.0000     -10.302008      -280.3319
   9   2.0000     -10.296633      -280.1856
  10   2.0000     -10.295786      -280.1626
  11   2.0000     -10.290840      -280.0280
  12   2.0000     -10.287915      -279.9484
  13   2.0000     -10.285385      -279.8796
  14   2.0000     -10.274337      -279.5789
  15   2.0000     -10.267956      -279.4053
  16   2.0000      -8.084126      -219.9802
  17   2.0000      -8.080703      -219.8871
  18   2.0000      -6.042350      -164.4207
  19   2.0000      -6.039330      -164.3385
  20   2.0000      -6.038209      -164.3080
  21   2.0000      -6.035329      -164.2297
  22   2.0000      -6.035163      -164.2251
  23   2.0000      -6.031394      -164.1226
  24   2.0000      -1.017638       -27.6913
  25   2.0000      -0.986229       -26.8367
  26   2.0000      -0.917829       -24.9754
  27   2.0000      -0.905665       -24.6444
  28   2.0000      -0.872204       -23.7339
  29   2.0000      -0.862461       -23.4688
  30   2.0000      -0.842015       -22.9124
  31   2.0000      -0.815823       -22.1997
  32   2.0000      -0.787533       -21.4299
  33   2.0000      -0.772283       -21.0149
  34   2.0000      -0.708352       -19.2752
  35   2.0000      -0.696699       -18.9581
  36   2.0000      -0.690986       -18.8027
  37   2.0000      -0.668134       -18.1809
  38   2.0000      -0.639886       -17.4122
  39   2.0000      -0.621821       -16.9206
  40   2.0000      -0.603649       -16.4261
  41   2.0000      -0.568427       -15.4677
  42   2.0000      -0.557655       -15.1746
  43   2.0000      -0.547162       -14.8890
  44   2.0000      -0.540255       -14.7011
  45   2.0000      -0.532275       -14.4840
  46   2.0000      -0.519840       -14.1456
  47   2.0000      -0.516366       -14.0510
  48   2.0000      -0.506020       -13.7695
  49   2.0000      -0.501324       -13.6417
  50   2.0000      -0.494136       -13.4461
  51   2.0000      -0.487181       -13.2569
  52   2.0000      -0.471707       -12.8358
  53   2.0000      -0.464628       -12.6432
  54   2.0000      -0.457871       -12.4593
  55   2.0000      -0.454869       -12.3776
  56   2.0000      -0.442384       -12.0379
  57   2.0000      -0.438895       -11.9429
  58   2.0000      -0.438349       -11.9281
  59   2.0000      -0.425709       -11.5841
  60   2.0000      -0.420598       -11.4450
  61   2.0000      -0.410991       -11.1836
  62   2.0000      -0.401562       -10.9271
  63   2.0000      -0.358886        -9.7658
  64   2.0000      -0.334455        -9.1010
  65   2.0000      -0.331312        -9.0155
  66   2.0000      -0.282878        -7.6975
  67   0.0000       0.023613         0.6426
  68   0.0000       0.081440         2.2161
  69   0.0000       0.112555         3.0628
  70   0.0000       0.119715         3.2576
  71   0.0000       0.123401         3.3579

MULLIKEN ATOMIC CHARGES
-----------------------
   0 S :    0.107012
   1 C :   -0.120962
   2 C :   -0.066990
   3 C :    0.003562
   4 C :   -0.137751
   5 H :    0.007377
   6 C :    0.036110
   7 H :    0.022953
   8 H :    0.054499
   9 C :   -0.093177
  10 H :    0.040642
  11 H :    0.025083
  12 C :   -0.015098
  13 H :    0.025906
  14 H :    0.038973
  15 H :    0.016752
  16 S :    0.128877
  17 C :   -0.068343
  18 C :   -0.036183
  19 C :   -0.048391
  20 C :   -0.150530
  21 H :    0.003069
  22 C :    0.037203
  23 H :    0.023877
  24 H :    0.010297
  25 C :   -0.118822
  26 H :    0.039806
  27 H :    0.051411
  28 C :    0.003527
  29 H :    0.032150
  30 H :    0.022385
  31 H :    0.023224
  32 H :    0.043683
  33 H :    0.057871
Sum of atomic charges:   -0.0000000

LOEWDIN ATOMIC CHARGES
----------------------
   0 S :    0.385035
   1 C :   -0.199398
   2 C :   -0.067641
   3 C :   -0.073172
   4 C :   -0.173914
   5 H :    0.031326
   6 C :   -0.032474
   7 H :    0.027647
   8 H :    0.037331
   9 C :   -0.042599
  10 H :    0.024976
  11 H :    0.022057
  12 C :   -0.055474
  13 H :    0.011475
  14 H :    0.035374
  15 H :    0.022219
  16 S :    0.465028
  17 C :   -0.213642
  18 C :   -0.070187
  19 C :   -0.060746
  20 C :   -0.206657
  21 H :    0.026209
  22 C :   -0.049613
  23 H :    0.033593
  24 H :    0.026276
  25 C :   -0.049348
  26 H :    0.032868
  27 H :    0.034499
  28 C :   -0.061694
  29 H :    0.027275
  30 H :    0.021695
  31 H :    0.027200
  32 H :    0.029492
  33 H :    0.034985

  Mayer bond orders larger than 0.100000
B(  0-S ,  1-C ) :   1.1307 B(  0-S ,  4-C ) :   1.1423 B(  1-C ,  2-C ) :   1.6273
B(  1-C ,  4-C ) :   0.1019 B(  1-C , 32-H ) :   0.9701 B(  2-C ,  3-C ) :   1.2429
B(  2-C ,  6-C ) :   0.9913 B(  3-C ,  4-C ) :   1.5681 B(  3-C ,  5-H ) :   0.9863
B(  4-C , 20-C ) :   1.0700 B(  6-C ,  7-H ) :   0.9490 B(  6-C ,  8-H ) :   0.9453
B(  6-C ,  9-C ) :   1.0721 B(  9-C , 10-H ) :   0.9529 B(  9-C , 11-H ) :   0.9569
B(  9-C , 12-C ) :   1.0719 B( 12-C , 13-H ) :   0.9780 B( 12-C , 14-H ) :   0.9709
B( 12-C , 15-H ) :   0.9715 B( 16-S , 17-C ) :   1.1983 B( 16-S , 20-C ) :   1.1534
B( 17-C , 18-C ) :   1.5409 B( 17-C , 33-H ) :   0.9638 B( 18-C , 19-C ) :   1.3090
B( 18-C , 21-H ) :   0.9945 B( 19-C , 20-C ) :   1.5438 B( 19-C , 22-C ) :   1.0497
B( 22-C , 23-H ) :   0.9319 B( 22-C , 24-H ) :   0.9189 B( 22-C , 25-C ) :   1.0565
B( 25-C , 26-H ) :   0.9567 B( 25-C , 27-H ) :   0.9571 B( 25-C , 28-C ) :   1.0634
B( 28-C , 29-H ) :   0.9776 B( 28-C , 30-H ) :   0.9714 B( 28-C , 31-H ) :   0.9706

Dispersion correction           -0.014388871
FINAL SINGLE POINT ENERGY     -1339.868801917050

DIPOLE MOMENT
-------------
                                X             Y             Z
Electronic contribution:    -22.98160     -22.11490      -1.77201
Nuclear contribution   :     23.50978      22.52785       1.99910
                        -----------------------------------------
Total Dipole Moment    :      0.52818       0.41296       0.22709
                        -----------------------------------------
Magnitude (a.u.)       :      0.70787
Magnitude (Debye)      :      1.79926

Rotational constants in cm-1:     0.016096     0.010633     0.006724
Rotational constants in MHz :   482.534944   318.765027   201.571005

                             ****ORCA TERMINATED NORMALLY****
TOTAL RUN TIME: 0 days 0 hours 0 minutes 35 seconds 287 msec
