                         Program Version 4.2.1 -  RELEASE  -
|  1> ! wB97X-D3 SP def2-SVP
|  2> %pal
|  3> nprocs 16
|  4> end
|  5>
|  6> * xyz 0 1
|  7> S 	 -41.6268 	 54.6912 	 108.742
|  8> C 	 -42.8806 	 55.3227 	 107.683
|  9> C 	 -42.4581 	 56.4222 	 106.891
| 10> C 	 -41.1295 	 56.7262 	 107.283
| 11> C 	 -40.568 	 55.8981 	 108.218
| 12> H 	 -40.5181 	 57.469 	 106.834
| 13> C 	 -43.0852 	 57.0481 	 105.726
| 14> H 	 -43.9657 	 56.5037 	 105.621
| 15> H 	 -42.4948 	 56.9798 	 104.83
| 16> C 	 -43.356 	 58.5282 	 105.903
| 17> H 	 -43.9424 	 58.7358 	 106.795
| 18> H 	 -42.4245 	 59.03 	 105.842
| 19> C 	 -44.1768 	 59.2663 	 104.814
| 20> H 	 -43.5239 	 59.303 	 103.981
| 21> H 	 -45.1984 	 58.7582 	 104.674
| 22> H 	 -44.6256 	 60.2275 	 105
| 23> S 	 -39.2742 	 55.8776 	 110.724
| 24> C 	 -37.5476 	 56.218 	 110.791
| 25> C 	 -37.0482 	 56.4493 	 109.58
| 26> C 	 -38.0156 	 56.3522 	 108.501
| 27> C 	 -39.3349 	 56.1349 	 108.983
| 28> H 	 -36.1207 	 56.8754 	 109.497
| 29> C 	 -37.6688 	 56.7348 	 107.095
| 30> H 	 -37.6671 	 57.7964 	 106.954
| 31> H 	 -38.5412 	 56.3769 	 106.506
| 32> C 	 -36.3995 	 56.0842 	 106.678
| 33> H 	 -36.4126 	 55.0881 	 107.057
| 34> H 	 -35.5626 	 56.5834 	 107.166
| 35> C 	 -36.2918 	 56.1554 	 105.148
| 36> H 	 -37.1384 	 55.6962 	 104.558
| 37> H 	 -35.4508 	 55.5278 	 104.854
| 38> H 	 -36.0966 	 57.1927 	 104.812
| 39> H 	 -43.7932 	 54.8251 	 107.458
| 40> H 	 -37.0614 	 56.3523 	 111.726
| 41> *
| 42>
| 43>                          ****END OF INPUT****

CARTESIAN COORDINATES (ANGSTROEM)
---------------------------------
  S    -41.626800   54.691200  108.742000
  C    -42.880600   55.322700  107.683000
  C    -42.458100   56.422200  106.891000
  C    -41.129500   56.726200  107.283000
  C    -40.568000   55.898100  108.218000
  H    -40.518100   57.469000  106.834000
  C    -43.085200   57.048100  105.726000
  H    -43.965700   56.503700  105.621000
  H    -42.494800   56.979800  104.830000
  C    -43.356000   58.528200  105.903000
  H    -43.942400   58.735800  106.795000
  H    -42.424500   59.030000  105.842000
  C    -44.176800   59.266300  104.814000
  H    -43.523900   59.303000  103.981000
  H    -45.198400   58.758200  104.674000
  H    -44.625600   60.227500  105.000000
  S    -39.274200   55.877600  110.724000
  C    -37.547600   56.218000  110.791000
  C    -37.048200   56.449300  109.580000
  C    -38.015600   56.352200  108.501000
  C    -39.334900   56.134900  108.983000
  H    -36.120700   56.875400  109.497000
  C    -37.668800   56.734800  107.095000
  H    -37.667100   57.796400  106.954000
  H    -38.541200   56.376900  106.506000
  C    -36.399500   56.084200  106.678000
  H    -36.412600   55.088100  107.057000
  H    -35.562600   56.583400  107.166000
  C    -36.291800   56.155400  105.148000
  H    -37.138400   55.696200  104.558000
  H    -35.450800   55.527800  104.854000
  H    -36.096600   57.192700  104.812000
  H    -43.793200   54.825100  107.458000
  H    -37.061400   56.352300  111.726000

 Total Charge           Charge          ....    0
 Multiplicity           Mult            ....    1
 Number of Electrons    NEL             ....  134
 Basis Dimension        Dim             ....  322

ORBITAL ENERGIES
----------------

  NO   OCC          E(Eh)            E(eV)
   0   2.0000     -88.970111     -2420.9998
   1   2.0000     -88.960867     -2420.7483
   2   2.0000     -10.328254      -281.0461
   3   2.0000     -10.322985      -280.9027
   4   2.0000     -10.315570      -280.7009
   5   2.0000     -10.311090      -280.5790
   6   2.0000     -10.302079      -280.3338
   7   2.0000     -10.300525      -280.2915
   8   2.0000     -10.286251      -279.9031
   9   2.0000     -10.285990      -279.8960
  10   2.0000     -10.283541      -279.8294
  11   2.0000     -10.283435      -279.8265
  12   2.0000     -10.282397      -279.7982
  13   2.0000     -10.282033      -279.7884
  14   2.0000     -10.280407      -279.7441
  15   2.0000     -10.279891      -279.7301
  16   2.0000      -8.085629      -220.0212
  17   2.0000      -8.075543      -219.7467
  18   2.0000      -6.044015      -164.4660
  19   2.0000      -6.040044      -164.3580
  20   2.0000      -6.036447      -164.2601
  21   2.0000      -6.034147      -164.1975
  22   2.0000      -6.030082      -164.0869
  23   2.0000      -6.026186      -163.9808
  24   2.0000      -1.010480       -27.4966
  25   2.0000      -0.984790       -26.7975
  26   2.0000      -0.924879       -25.1672
  27   2.0000      -0.917643       -24.9703
  28   2.0000      -0.871466       -23.7138
  29   2.0000      -0.854251       -23.2453
  30   2.0000      -0.842949       -22.9378
  31   2.0000      -0.819148       -22.2901
  32   2.0000      -0.788709       -21.4619
  33   2.0000      -0.768627       -20.9154
  34   2.0000      -0.708690       -19.2844
  35   2.0000      -0.703731       -19.1495
  36   2.0000      -0.694349       -18.8942
  37   2.0000      -0.655161       -17.8278
  38   2.0000      -0.644147       -17.5281
  39   2.0000      -0.626993       -17.0614
  40   2.0000      -0.602403       -16.3922
  41   2.0000      -0.593247       -16.1431
  42   2.0000      -0.573646       -15.6097
  43   2.0000      -0.566547       -15.4165
  44   2.0000      -0.528370       -14.3777
  45   2.0000      -0.523801       -14.2534
  46   2.0000      -0.521975       -14.2036
  47   2.0000      -0.516048       -14.0424
  48   2.0000      -0.506520       -13.7831
  49   2.0000      -0.500567       -13.6211
  50   2.0000      -0.490923       -13.3587
  51   2.0000      -0.481535       -13.1032
  52   2.0000      -0.473071       -12.8729
  53   2.0000      -0.466843       -12.7034
  54   2.0000      -0.456677       -12.4268
  55   2.0000      -0.453323       -12.3356
  56   2.0000      -0.444569       -12.0973
  57   2.0000      -0.437716       -11.9108
  58   2.0000      -0.436601       -11.8805
  59   2.0000      -0.431148       -11.7321
  60   2.0000      -0.422401       -11.4941
  61   2.0000      -0.408025       -11.1029
  62   2.0000      -0.402425       -10.9505
  63   2.0000      -0.351636        -9.5685
  64   2.0000      -0.332925        -9.0593
  65   2.0000      -0.325943        -8.8693
  66   2.0000      -0.288053        -7.8383
  67   0.0000       0.031466         0.8562
  68   0.0000       0.074107         2.0166
  69   0.0000       0.103733         2.8227
  70   0.0000       0.118891         3.2352
  71   0.0000       0.136287         3.7086

MULLIKEN ATOMIC CHARGES
-----------------------
   0 S :    0.126013
   1 C :   -0.114445
   2 C :   -0.094703
   3 C :    0.017599
   4 C :   -0.144934
   5 H :   -0.002844
   6 C :    0.156591
   7 H :   -0.012042
   8 H :    0.029852
   9 C :   -0.096617
  10 H :    0.034674
  11 H :    0.026903
  12 C :   -0.057404
  13 H :    0.025979
  14 H :    0.026008
  15 H :    0.032847
  16 S :    0.082465
  17 C :   -0.080851
  18 C :    0.022792
  19 C :   -0.081085
  20 C :   -0.126421
  21 H :   -0.008936
  22 C :    0.054761
  23 H :    0.035210
  24 H :    0.021210
  25 C :   -0.070023
  26 H :    0.028503
  27 H :    0.030765
  28 C :   -0.050844
  29 H :    0.043089
  30 H :    0.026783
  31 H :    0.035831
  32 H :    0.033679
  33 H :    0.049596
Sum of atomic charges:    0.0000000

LOEWDIN ATOMIC CHARGES
----------------------
   0 S :    0.439295
   1 C :   -0.194339
   2 C :   -0.051329
   3 C :   -0.059970
   4 C :   -0.212373
   5 H :    0.021533
   6 C :   -0.024237
   7 H :    0.022445
   8 H :    0.035511
   9 C :   -0.035152
  10 H :    0.026773
  11 H :    0.019477
  12 C :   -0.071366
  13 H :    0.016711
  14 H :    0.031454
  15 H :    0.026584
  16 S :    0.382662
  17 C :   -0.165727
  18 C :   -0.065683
  19 C :   -0.054032
  20 C :   -0.195564
  21 H :    0.018590
  22 C :   -0.039012
  23 H :    0.027355
  24 H :    0.032525
  25 C :   -0.039314
  26 H :    0.024291
  27 H :    0.025348
  28 C :   -0.068625
  29 H :    0.032063
  30 H :    0.024071
  31 H :    0.027692
  32 H :    0.017492
  33 H :    0.024852

  Mayer bond orders larger than 0.100000
B(  0-S ,  1-C ) :   1.1537 B(  0-S ,  4-C ) :   1.1622 B(  1-C ,  2-C ) :   1.5812
B(  1-C , 32-H ) :   0.9644 B(  2-C ,  3-C ) :   1.2555 B(  2-C ,  6-C ) :   1.0447
B(  3-C ,  4-C ) :   1.5642 B(  3-C ,  5-H ) :   0.9919 B(  4-C , 20-C ) :   1.0295
B(  6-C ,  7-H ) :   0.9180 B(  6-C ,  8-H ) :   0.9344 B(  6-C ,  9-C ) :   1.0627
B(  9-C , 10-H ) :   0.9596 B(  9-C , 11-H ) :   0.9602 B(  9-C , 12-C ) :   1.0812
B( 12-C , 13-H ) :   0.9780 B( 12-C , 14-H ) :   0.9714 B( 12-C , 15-H ) :   0.9763
B( 16-S , 17-C ) :   1.1399 B( 16-S , 20-C ) :   1.1305 B( 17-C , 18-C ) :   1.6377
B( 17-C , 33-H ) :   0.9686 B( 18-C , 19-C ) :   1.2128 B( 18-C , 21-H ) :   0.9987
B( 19-C , 20-C ) :   1.5951 B( 19-C , 22-C ) :   1.0557 B( 22-C , 23-H ) :   0.9333
B( 22-C , 24-H ) :   0.9252 B( 22-C , 25-C ) :   1.0669 B( 25-C , 26-H ) :   0.9600
B( 25-C , 27-H ) :   0.9432 B( 25-C , 28-C ) :   1.0886 B( 28-C , 29-H ) :   0.9753
B( 28-C , 30-H ) :   0.9733 B( 28-C , 31-H ) :   0.9712

Dispersion correction           -0.013375105
FINAL SINGLE POINT ENERGY     -1339.856102715007

DIPOLE MOMENT
-------------
                                X             Y             Z
Electronic contribution:     -1.29774     -13.72880      25.93971
Nuclear contribution   :      1.46727      14.14416     -26.51008
                        -----------------------------------------
Total Dipole Moment    :      0.16953       0.41536      -0.57037
                        -----------------------------------------
Magnitude (a.u.)       :      0.72566
Magnitude (Debye)      :      1.84448

Rotational constants in cm-1:     0.017248     0.008265     0.006426
Rotational constants in MHz :   517.092145   247.770214   192.641176

                             ****ORCA TERMINATED NORMALLY****
TOTAL RUN TIME: 0 days 0 hours 0 minutes 29 seconds 599 msec
