                         Program Version 4.2.1 -  RELEASE  -
|  1> ! wB97X-D3 SP def2-SVP
|  2> %pal
|  3> nprocs 16
|  4> end
|  5>
|  6> * xyz 0 1
|  7> S 	 -39.8889 	 28.2706 	 94.8994
|  8> C 	 -41.2882 	 28.4973 	 95.9767
|  9> C 	 -42.2092 	 29.3656 	 95.4539
| 10> C 	 -41.8008 	 29.8638 	 94.1841
| 11> C 	 -40.5984 	 29.3897 	 93.7458
| 12> H 	 -42.4352 	 30.648 	 93.7424
| 13> C 	 -43.4804 	 29.7501 	 96.185
| 14> H 	 -43.8402 	 28.8827 	 96.7135
| 15> H 	 -44.3935 	 30.0023 	 95.552
| 16> C 	 -43.482 	 30.9254 	 97.2083
| 17> H 	 -44.5263 	 31.0131 	 97.4597
| 18> H 	 -42.7871 	 30.7186 	 98.0542
| 19> C 	 -43.0737 	 32.2427 	 96.6364
| 20> H 	 -43.7991 	 32.4553 	 95.8793
| 21> H 	 -43.0934 	 33.025 	 97.4208
| 22> H 	 -42.0724 	 32.1243 	 96.2563
| 23> S 	 -38.1828 	 29.3543 	 92.5597
| 24> C 	 -37.9773 	 30.0572 	 90.9756
| 25> C 	 -39.1863 	 30.344 	 90.3781
| 26> C 	 -40.2892 	 30.1309 	 91.2935
| 27> C 	 -39.8978 	 29.6734 	 92.5432
| 28> H 	 -39.3359 	 30.729 	 89.3122
| 29> C 	 -41.7318 	 30.3933 	 90.8603
| 30> H 	 -41.6064 	 31.0745 	 89.9533
| 31> H 	 -42.2523 	 30.8982 	 91.7059
| 32> C 	 -42.4846 	 29.1345 	 90.5765
| 33> H 	 -43.5641 	 29.2926 	 90.4833
| 34> H 	 -42.3619 	 28.5057 	 91.5318
| 35> C 	 -41.9196 	 28.219 	 89.3877
| 36> H 	 -40.8417 	 27.9847 	 89.5513
| 37> H 	 -42.0291 	 28.8103 	 88.4414
| 38> H 	 -42.5084 	 27.3329 	 89.2341
| 39> H 	 -41.2061 	 28.0989 	 96.9814
| 40> H 	 -37.1794 	 30.412 	 90.4908
| 41> *
| 42>
| 43>                          ****END OF INPUT****

CARTESIAN COORDINATES (ANGSTROEM)
---------------------------------
  S    -39.888900   28.270600   94.899400
  C    -41.288200   28.497300   95.976700
  C    -42.209200   29.365600   95.453900
  C    -41.800800   29.863800   94.184100
  C    -40.598400   29.389700   93.745800
  H    -42.435200   30.648000   93.742400
  C    -43.480400   29.750100   96.185000
  H    -43.840200   28.882700   96.713500
  H    -44.393500   30.002300   95.552000
  C    -43.482000   30.925400   97.208300
  H    -44.526300   31.013100   97.459700
  H    -42.787100   30.718600   98.054200
  C    -43.073700   32.242700   96.636400
  H    -43.799100   32.455300   95.879300
  H    -43.093400   33.025000   97.420800
  H    -42.072400   32.124300   96.256300
  S    -38.182800   29.354300   92.559700
  C    -37.977300   30.057200   90.975600
  C    -39.186300   30.344000   90.378100
  C    -40.289200   30.130900   91.293500
  C    -39.897800   29.673400   92.543200
  H    -39.335900   30.729000   89.312200
  C    -41.731800   30.393300   90.860300
  H    -41.606400   31.074500   89.953300
  H    -42.252300   30.898200   91.705900
  C    -42.484600   29.134500   90.576500
  H    -43.564100   29.292600   90.483300
  H    -42.361900   28.505700   91.531800
  C    -41.919600   28.219000   89.387700
  H    -40.841700   27.984700   89.551300
  H    -42.029100   28.810300   88.441400
  H    -42.508400   27.332900   89.234100
  H    -41.206100   28.098900   96.981400
  H    -37.179400   30.412000   90.490800

 Total Charge           Charge          ....    0
 Multiplicity           Mult            ....    1
 Number of Electrons    NEL             ....  134
 Basis Dimension        Dim             ....  322

ORBITAL ENERGIES
----------------

  NO   OCC          E(Eh)            E(eV)
   0   2.0000     -88.968350     -2420.9519
   1   2.0000     -88.966678     -2420.9064
   2   2.0000     -10.331851      -281.1440
   3   2.0000     -10.325091      -280.9600
   4   2.0000     -10.316384      -280.7231
   5   2.0000     -10.310950      -280.5752
   6   2.0000     -10.303867      -280.3825
   7   2.0000     -10.303833      -280.3816
   8   2.0000     -10.301828      -280.3270
   9   2.0000     -10.298000      -280.2228
  10   2.0000     -10.297085      -280.1979
  11   2.0000     -10.295746      -280.1615
  12   2.0000     -10.290902      -280.0297
  13   2.0000     -10.285373      -279.8792
  14   2.0000     -10.281630      -279.7774
  15   2.0000     -10.271686      -279.5068
  16   2.0000      -8.083255      -219.9565
  17   2.0000      -8.081356      -219.9049
  18   2.0000      -6.041923      -164.4091
  19   2.0000      -6.039952      -164.3554
  20   2.0000      -6.037802      -164.2970
  21   2.0000      -6.036014      -164.2483
  22   2.0000      -6.033767      -164.1871
  23   2.0000      -6.031894      -164.1362
  24   2.0000      -1.013071       -27.5671
  25   2.0000      -0.985428       -26.8149
  26   2.0000      -0.915707       -24.9176
  27   2.0000      -0.907256       -24.6877
  28   2.0000      -0.878328       -23.9005
  29   2.0000      -0.850579       -23.1454
  30   2.0000      -0.837984       -22.8027
  31   2.0000      -0.818691       -22.2777
  32   2.0000      -0.784420       -21.3452
  33   2.0000      -0.773957       -21.0605
  34   2.0000      -0.714576       -19.4446
  35   2.0000      -0.693805       -18.8794
  36   2.0000      -0.684851       -18.6357
  37   2.0000      -0.666747       -18.1431
  38   2.0000      -0.638325       -17.3697
  39   2.0000      -0.625981       -17.0338
  40   2.0000      -0.587154       -15.9773
  41   2.0000      -0.582623       -15.8540
  42   2.0000      -0.551490       -15.0068
  43   2.0000      -0.550222       -14.9723
  44   2.0000      -0.544081       -14.8052
  45   2.0000      -0.542984       -14.7753
  46   2.0000      -0.514990       -14.0136
  47   2.0000      -0.509891       -13.8748
  48   2.0000      -0.505397       -13.7526
  49   2.0000      -0.498671       -13.5695
  50   2.0000      -0.484956       -13.1963
  51   2.0000      -0.479660       -13.0522
  52   2.0000      -0.472779       -12.8650
  53   2.0000      -0.464000       -12.6261
  54   2.0000      -0.458815       -12.4850
  55   2.0000      -0.453970       -12.3532
  56   2.0000      -0.448042       -12.1919
  57   2.0000      -0.438192       -11.9238
  58   2.0000      -0.430663       -11.7189
  59   2.0000      -0.420798       -11.4505
  60   2.0000      -0.415181       -11.2976
  61   2.0000      -0.412594       -11.2272
  62   2.0000      -0.404114       -10.9965
  63   2.0000      -0.362183        -9.8555
  64   2.0000      -0.339792        -9.2462
  65   2.0000      -0.328678        -8.9438
  66   2.0000      -0.282362        -7.6835
  67   0.0000       0.016106         0.4383
  68   0.0000       0.073428         1.9981
  69   0.0000       0.090719         2.4686
  70   0.0000       0.115832         3.1520
  71   0.0000       0.139662         3.8004

MULLIKEN ATOMIC CHARGES
-----------------------
   0 S :    0.085025
   1 C :   -0.138491
   2 C :   -0.052474
   3 C :   -0.032761
   4 C :   -0.074781
   5 H :    0.017784
   6 C :    0.022149
   7 H :    0.026408
   8 H :    0.027154
   9 C :   -0.075159
  10 H :    0.025862
  11 H :    0.032215
  12 C :   -0.039371
  13 H :    0.015578
  14 H :    0.040086
  15 H :    0.042526
  16 S :    0.101170
  17 C :   -0.009920
  18 C :   -0.074506
  19 C :   -0.101954
  20 C :   -0.113808
  21 H :    0.048924
  22 C :    0.070894
  23 H :    0.028491
  24 H :    0.034628
  25 C :   -0.101473
  26 H :    0.034616
  27 H :    0.048695
  28 C :   -0.073096
  29 H :    0.059150
  30 H :    0.026707
  31 H :    0.038204
  32 H :    0.055569
  33 H :    0.005957
Sum of atomic charges:    0.0000000

LOEWDIN ATOMIC CHARGES
----------------------
   0 S :    0.381050
   1 C :   -0.179523
   2 C :   -0.064500
   3 C :   -0.073823
   4 C :   -0.179370
   5 H :    0.034880
   6 C :   -0.040386
   7 H :    0.031642
   8 H :    0.035659
   9 C :   -0.038310
  10 H :    0.022598
  11 H :    0.023323
  12 C :   -0.063016
  13 H :    0.017708
  14 H :    0.030443
  15 H :    0.025256
  16 S :    0.407816
  17 C :   -0.170078
  18 C :   -0.073305
  19 C :   -0.056977
  20 C :   -0.198841
  21 H :    0.045499
  22 C :   -0.038559
  23 H :    0.032645
  24 H :    0.034413
  25 C :   -0.048753
  26 H :    0.022430
  27 H :    0.035233
  28 C :   -0.070591
  29 H :    0.032794
  30 H :    0.024074
  31 H :    0.023584
  32 H :    0.026786
  33 H :    0.008201

  Mayer bond orders larger than 0.100000
B(  0-S ,  1-C ) :   1.1204 B(  0-S ,  4-C ) :   1.1345 B(  1-C ,  2-C ) :   1.6199
B(  1-C , 32-H ) :   0.9702 B(  2-C ,  3-C ) :   1.2501 B(  2-C ,  6-C ) :   1.0154
B(  3-C ,  4-C ) :   1.5566 B(  3-C ,  5-H ) :   0.9917 B(  4-C , 20-C ) :   1.1017
B(  6-C ,  7-H ) :   0.9389 B(  6-C ,  8-H ) :   0.9447 B(  6-C ,  9-C ) :   1.0759
B(  9-C , 10-H ) :   0.9550 B(  9-C , 11-H ) :   0.9557 B(  9-C , 12-C ) :   1.0865
B( 12-C , 13-H ) :   0.9738 B( 12-C , 14-H ) :   0.9717 B( 12-C , 15-H ) :   0.9731
B( 16-S , 17-C ) :   1.1470 B( 16-S , 20-C ) :   1.1182 B( 17-C , 18-C ) :   1.6159
B( 17-C , 33-H ) :   0.9753 B( 18-C , 19-C ) :   1.2498 B( 18-C , 21-H ) :   0.9710
B( 19-C , 20-C ) :   1.5909 B( 19-C , 22-C ) :   1.0319 B( 22-C , 23-H ) :   0.9328
B( 22-C , 24-H ) :   0.9318 B( 22-C , 25-C ) :   1.0713 B( 25-C , 26-H ) :   0.9582
B( 25-C , 27-H ) :   0.9526 B( 25-C , 28-C ) :   1.0625 B( 28-C , 29-H ) :   0.9747
B( 28-C , 30-H ) :   0.9767 B( 28-C , 31-H ) :   0.9766

Dispersion correction           -0.015030961
FINAL SINGLE POINT ENERGY     -1339.870719974226

DIPOLE MOMENT
-------------
                                X             Y             Z
Electronic contribution:     22.67289      -8.21822       1.73684
Nuclear contribution   :    -23.20689       8.55900      -1.78809
                        -----------------------------------------
Total Dipole Moment    :     -0.53400       0.34078      -0.05125
                        -----------------------------------------
Magnitude (a.u.)       :      0.63554
Magnitude (Debye)      :      1.61541

Rotational constants in cm-1:     0.020470     0.008651     0.007368
Rotational constants in MHz :   613.681070   259.358644   220.889310

                             ****ORCA TERMINATED NORMALLY****
TOTAL RUN TIME: 0 days 0 hours 0 minutes 31 seconds 357 msec
