                         Program Version 4.2.1 -  RELEASE  -
|  1> ! wB97X-D3 SP def2-SVP
|  2> %pal
|  3> nprocs 16
|  4> end
|  5>
|  6> * xyz 0 1
|  7> S 	 6.1798 	 -14.2076 	 54.5631
|  8> C 	 7.03415 	 -13.6396 	 55.9356
|  9> C 	 7.25321 	 -14.6754 	 56.8218
| 10> C 	 6.73424 	 -15.9151 	 56.316
| 11> C 	 6.08196 	 -15.8655 	 55.1066
| 12> H 	 6.79775 	 -16.8195 	 56.8373
| 13> C 	 8.06049 	 -14.5469 	 58.1536
| 14> H 	 7.53343 	 -13.8693 	 58.8335
| 15> H 	 9.06922 	 -14.1526 	 57.9786
| 16> C 	 8.26272 	 -15.7928 	 58.9747
| 17> H 	 7.30025 	 -16.2417 	 59.324
| 18> H 	 8.73742 	 -16.523 	 58.3488
| 19> C 	 9.11848 	 -15.5695 	 60.2772
| 20> H 	 9.85534 	 -16.3714 	 60.5153
| 21> H 	 9.73755 	 -14.664 	 60.2425
| 22> H 	 8.33479 	 -15.4779 	 61.0568
| 23> S 	 3.66938 	 -16.3938 	 54.3151
| 24> C 	 3.21403 	 -18.0777 	 53.6468
| 25> C 	 4.39071 	 -18.8665 	 53.7255
| 26> C 	 5.57119 	 -18.2056 	 54.2384
| 27> C 	 5.29999 	 -16.872 	 54.511
| 28> H 	 4.3667 	 -19.8774 	 53.4289
| 29> C 	 6.87543 	 -18.9981 	 54.4395
| 30> H 	 6.65072 	 -20.024 	 54.7172
| 31> H 	 7.47859 	 -18.469 	 55.2176
| 32> C 	 7.74164 	 -19.1309 	 53.1546
| 33> H 	 7.04918 	 -19.1855 	 52.304
| 34> H 	 8.4071 	 -19.9732 	 53.3826
| 35> C 	 8.69607 	 -17.9181 	 52.9103
| 36> H 	 8.29896 	 -16.9436 	 53.1627
| 37> H 	 8.95741 	 -17.9613 	 51.9271
| 38> H 	 9.55235 	 -17.8895 	 53.5365
| 39> H 	 7.46981 	 -12.656 	 55.9532
| 40> H 	 2.20032 	 -18.3716 	 53.3677
| 41> *
| 42>
| 43>                          ****END OF INPUT****

CARTESIAN COORDINATES (ANGSTROEM)
---------------------------------
  S      6.179800  -14.207600   54.563100
  C      7.034150  -13.639600   55.935600
  C      7.253210  -14.675400   56.821800
  C      6.734240  -15.915100   56.316000
  C      6.081960  -15.865500   55.106600
  H      6.797750  -16.819500   56.837300
  C      8.060490  -14.546900   58.153600
  H      7.533430  -13.869300   58.833500
  H      9.069220  -14.152600   57.978600
  C      8.262720  -15.792800   58.974700
  H      7.300250  -16.241700   59.324000
  H      8.737420  -16.523000   58.348800
  C      9.118480  -15.569500   60.277200
  H      9.855340  -16.371400   60.515300
  H      9.737550  -14.664000   60.242500
  H      8.334790  -15.477900   61.056800
  S      3.669380  -16.393800   54.315100
  C      3.214030  -18.077700   53.646800
  C      4.390710  -18.866500   53.725500
  C      5.571190  -18.205600   54.238400
  C      5.299990  -16.872000   54.511000
  H      4.366700  -19.877400   53.428900
  C      6.875430  -18.998100   54.439500
  H      6.650720  -20.024000   54.717200
  H      7.478590  -18.469000   55.217600
  C      7.741640  -19.130900   53.154600
  H      7.049180  -19.185500   52.304000
  H      8.407100  -19.973200   53.382600
  C      8.696070  -17.918100   52.910300
  H      8.298960  -16.943600   53.162700
  H      8.957410  -17.961300   51.927100
  H      9.552350  -17.889500   53.536500
  H      7.469810  -12.656000   55.953200
  H      2.200320  -18.371600   53.367700

 Total Charge           Charge          ....    0
 Multiplicity           Mult            ....    1
 Number of Electrons    NEL             ....  134
 Basis Dimension        Dim             ....  322

ORBITAL ENERGIES
----------------

  NO   OCC          E(Eh)            E(eV)
   0   2.0000     -88.964963     -2420.8597
   1   2.0000     -88.964699     -2420.8525
   2   2.0000     -10.330499      -281.1072
   3   2.0000     -10.324632      -280.9475
   4   2.0000     -10.324288      -280.9382
   5   2.0000     -10.313088      -280.6334
   6   2.0000     -10.306076      -280.4426
   7   2.0000     -10.305836      -280.4361
   8   2.0000     -10.300882      -280.3012
   9   2.0000     -10.296693      -280.1873
  10   2.0000     -10.296538      -280.1830
  11   2.0000     -10.289360      -279.9877
  12   2.0000     -10.289031      -279.9788
  13   2.0000     -10.288563      -279.9660
  14   2.0000     -10.287668      -279.9417
  15   2.0000     -10.260542      -279.2035
  16   2.0000      -8.080121      -219.8713
  17   2.0000      -8.078845      -219.8366
  18   2.0000      -6.038561      -164.3176
  19   2.0000      -6.037507      -164.2889
  20   2.0000      -6.034306      -164.2018
  21   2.0000      -6.033462      -164.1788
  22   2.0000      -6.031113      -164.1149
  23   2.0000      -6.029454      -164.0698
  24   2.0000      -1.012160       -27.5423
  25   2.0000      -0.979217       -26.6458
  26   2.0000      -0.910889       -24.7866
  27   2.0000      -0.902211       -24.5504
  28   2.0000      -0.876087       -23.8395
  29   2.0000      -0.847253       -23.0549
  30   2.0000      -0.840094       -22.8601
  31   2.0000      -0.813751       -22.1433
  32   2.0000      -0.781337       -21.2613
  33   2.0000      -0.773764       -21.0552
  34   2.0000      -0.712065       -19.3763
  35   2.0000      -0.692089       -18.8327
  36   2.0000      -0.690452       -18.7881
  37   2.0000      -0.667444       -18.1621
  38   2.0000      -0.647676       -17.6242
  39   2.0000      -0.622047       -16.9268
  40   2.0000      -0.595978       -16.2174
  41   2.0000      -0.576666       -15.6919
  42   2.0000      -0.564516       -15.3613
  43   2.0000      -0.550821       -14.9886
  44   2.0000      -0.541714       -14.7408
  45   2.0000      -0.528128       -14.3711
  46   2.0000      -0.515990       -14.0408
  47   2.0000      -0.510773       -13.8988
  48   2.0000      -0.506613       -13.7856
  49   2.0000      -0.503846       -13.7104
  50   2.0000      -0.494953       -13.4684
  51   2.0000      -0.479560       -13.0495
  52   2.0000      -0.470744       -12.8096
  53   2.0000      -0.464074       -12.6281
  54   2.0000      -0.459189       -12.4952
  55   2.0000      -0.444298       -12.0900
  56   2.0000      -0.435471       -11.8498
  57   2.0000      -0.430768       -11.7218
  58   2.0000      -0.427719       -11.6388
  59   2.0000      -0.424436       -11.5495
  60   2.0000      -0.422587       -11.4992
  61   2.0000      -0.415666       -11.3108
  62   2.0000      -0.411461       -11.1964
  63   2.0000      -0.351654        -9.5690
  64   2.0000      -0.329348        -8.9620
  65   2.0000      -0.328009        -8.9256
  66   2.0000      -0.290664        -7.9094
  67   0.0000       0.029015         0.7895
  68   0.0000       0.065737         1.7888
  69   0.0000       0.099821         2.7163
  70   0.0000       0.122901         3.3443
  71   0.0000       0.131344         3.5741

MULLIKEN ATOMIC CHARGES
-----------------------
   0 S :    0.113006
   1 C :   -0.130027
   2 C :   -0.072016
   3 C :    0.040516
   4 C :   -0.159609
   5 H :   -0.005940
   6 C :    0.062876
   7 H :    0.036223
   8 H :    0.038460
   9 C :   -0.124966
  10 H :    0.041499
  11 H :    0.025568
  12 C :   -0.061650
  13 H :    0.045754
  14 H :    0.031170
  15 H :    0.043123
  16 S :    0.094071
  17 C :   -0.110950
  18 C :   -0.016950
  19 C :   -0.034188
  20 C :   -0.148043
  21 H :    0.008756
  22 C :    0.064477
  23 H :    0.025473
  24 H :    0.026654
  25 C :   -0.077850
  26 H :    0.039881
  27 H :    0.037972
  28 C :   -0.007622
  29 H :    0.021655
  30 H :    0.017470
  31 H :    0.012803
  32 H :    0.053456
  33 H :    0.068952
Sum of atomic charges:   -0.0000000

LOEWDIN ATOMIC CHARGES
----------------------
   0 S :    0.424726
   1 C :   -0.202272
   2 C :   -0.063318
   3 C :   -0.058800
   4 C :   -0.207042
   5 H :    0.019146
   6 C :   -0.033322
   7 H :    0.033086
   8 H :    0.032943
   9 C :   -0.049436
  10 H :    0.026690
  11 H :    0.015167
  12 C :   -0.069317
  13 H :    0.032749
  14 H :    0.023468
  15 H :    0.031552
  16 S :    0.386595
  17 C :   -0.163657
  18 C :   -0.053892
  19 C :   -0.061389
  20 C :   -0.204195
  21 H :    0.023236
  22 C :   -0.030845
  23 H :    0.030032
  24 H :    0.032445
  25 C :   -0.032842
  26 H :    0.027685
  27 H :    0.028497
  28 C :   -0.059555
  29 H :    0.025519
  30 H :    0.013749
  31 H :    0.020208
  32 H :    0.029797
  33 H :    0.032594

  Mayer bond orders larger than 0.100000
B(  0-S ,  1-C ) :   1.1625 B(  0-S ,  4-C ) :   1.1465 B(  1-C ,  2-C ) :   1.5808
B(  1-C ,  4-C ) :   0.1004 B(  1-C , 32-H ) :   0.9778 B(  2-C ,  3-C ) :   1.2876
B(  2-C ,  6-C ) :   0.9943 B(  3-C ,  4-C ) :   1.5369 B(  3-C ,  5-H ) :   0.9974
B(  4-C , 20-C ) :   1.0475 B(  6-C ,  7-H ) :   0.9423 B(  6-C ,  8-H ) :   0.9411
B(  6-C ,  9-C ) :   1.0954 B(  9-C , 10-H ) :   0.9602 B(  9-C , 11-H ) :   0.9511
B(  9-C , 12-C ) :   1.0536 B( 12-C , 13-H ) :   0.9778 B( 12-C , 14-H ) :   0.9785
B( 12-C , 15-H ) :   0.9820 B( 16-S , 17-C ) :   1.1138 B( 16-S , 20-C ) :   1.1604
B( 17-C , 18-C ) :   1.6100 B( 17-C , 20-C ) :   0.1062 B( 17-C , 33-H ) :   0.9729
B( 18-C , 19-C ) :   1.2253 B( 18-C , 21-H ) :   0.9875 B( 19-C , 20-C ) :   1.5874
B( 19-C , 22-C ) :   1.0510 B( 22-C , 23-H ) :   0.9357 B( 22-C , 24-H ) :   0.9338
B( 22-C , 25-C ) :   1.0650 B( 25-C , 26-H ) :   0.9608 B( 25-C , 27-H ) :   0.9571
B( 25-C , 28-C ) :   1.0782 B( 28-C , 29-H ) :   0.9753 B( 28-C , 30-H ) :   0.9755
B( 28-C , 31-H ) :   0.9722

Dispersion correction           -0.014277534
FINAL SINGLE POINT ENERGY     -1339.862673578418

DIPOLE MOMENT
-------------
                                X             Y             Z
Electronic contribution:    -21.83755       9.73857     -12.95719
Nuclear contribution   :     22.29080     -10.12936      13.34670
                        -----------------------------------------
Total Dipole Moment    :      0.45324      -0.39079       0.38951
                        -----------------------------------------
Magnitude (a.u.)       :      0.71405
Magnitude (Debye)      :      1.81497

Rotational constants in cm-1:     0.017945     0.008483     0.007351
Rotational constants in MHz :   537.966866   254.303135   220.385022

                             ****ORCA TERMINATED NORMALLY****
TOTAL RUN TIME: 0 days 0 hours 0 minutes 29 seconds 932 msec
