                         Program Version 4.2.1 -  RELEASE  -
|  1> ! wB97X-D3 SP def2-SVP
|  2> %pal
|  3> nprocs 16
|  4> end
|  5>
|  6> * xyz 0 1
|  7> S 	 -42.9953 	 37.1307 	 75.6777
|  8> C 	 -44.0448 	 37.52 	 77.0833
|  9> C 	 -43.3572 	 38.0621 	 78.1117
| 10> C 	 -42.0057 	 38.1712 	 77.7324
| 11> C 	 -41.6144 	 37.6431 	 76.5424
| 12> H 	 -41.2491 	 38.5986 	 78.3899
| 13> C 	 -43.9372 	 38.598 	 79.386
| 14> H 	 -43.7916 	 37.7195 	 79.9874
| 15> H 	 -45.03 	 38.7527 	 79.2297
| 16> C 	 -43.31 	 39.8186 	 80.1274
| 17> H 	 -42.256 	 39.748 	 80.3848
| 18> H 	 -43.3214 	 40.6123 	 79.3703
| 19> C 	 -44.2048 	 40.2299 	 81.347
| 20> H 	 -43.6937 	 40.9992 	 81.9486
| 21> H 	 -45.1198 	 40.6718 	 80.9816
| 22> H 	 -44.4935 	 39.328 	 81.9459
| 23> S 	 -40.3213 	 38.7614 	 74.5286
| 24> C 	 -38.6146 	 38.6294 	 74.3519
| 25> C 	 -38.0383 	 37.9362 	 75.373
| 26> C 	 -39.0049 	 37.3303 	 76.2311
| 27> C 	 -40.3076 	 37.6817 	 75.8738
| 28> H 	 -36.9316 	 37.9266 	 75.3216
| 29> C 	 -38.6351 	 36.5307 	 77.4429
| 30> H 	 -39.3319 	 36.7722 	 78.1805
| 31> H 	 -37.6376 	 36.8549 	 77.8183
| 32> C 	 -38.8269 	 34.995 	 77.2888
| 33> H 	 -39.6702 	 34.8352 	 76.5478
| 34> H 	 -39.0563 	 34.5008 	 78.2166
| 35> C 	 -37.5584 	 34.3558 	 76.6784
| 36> H 	 -37.2268 	 35.0377 	 75.8894
| 37> H 	 -37.8244 	 33.3804 	 76.3172
| 38> H 	 -36.6979 	 34.1896 	 77.3713
| 39> H 	 -45.1594 	 37.3479 	 77.1308
| 40> H 	 -38.0723 	 39.2953 	 73.7279
| 41> *
| 42>
| 43>                          ****END OF INPUT****

CARTESIAN COORDINATES (ANGSTROEM)
---------------------------------
  S    -42.995300   37.130700   75.677700
  C    -44.044800   37.520000   77.083300
  C    -43.357200   38.062100   78.111700
  C    -42.005700   38.171200   77.732400
  C    -41.614400   37.643100   76.542400
  H    -41.249100   38.598600   78.389900
  C    -43.937200   38.598000   79.386000
  H    -43.791600   37.719500   79.987400
  H    -45.030000   38.752700   79.229700
  C    -43.310000   39.818600   80.127400
  H    -42.256000   39.748000   80.384800
  H    -43.321400   40.612300   79.370300
  C    -44.204800   40.229900   81.347000
  H    -43.693700   40.999200   81.948600
  H    -45.119800   40.671800   80.981600
  H    -44.493500   39.328000   81.945900
  S    -40.321300   38.761400   74.528600
  C    -38.614600   38.629400   74.351900
  C    -38.038300   37.936200   75.373000
  C    -39.004900   37.330300   76.231100
  C    -40.307600   37.681700   75.873800
  H    -36.931600   37.926600   75.321600
  C    -38.635100   36.530700   77.442900
  H    -39.331900   36.772200   78.180500
  H    -37.637600   36.854900   77.818300
  C    -38.826900   34.995000   77.288800
  H    -39.670200   34.835200   76.547800
  H    -39.056300   34.500800   78.216600
  C    -37.558400   34.355800   76.678400
  H    -37.226800   35.037700   75.889400
  H    -37.824400   33.380400   76.317200
  H    -36.697900   34.189600   77.371300
  H    -45.159400   37.347900   77.130800
  H    -38.072300   39.295300   73.727900

 Total Charge           Charge          ....    0
 Multiplicity           Mult            ....    1
 Number of Electrons    NEL             ....  134
 Basis Dimension        Dim             ....  322

ORBITAL ENERGIES
----------------

  NO   OCC          E(Eh)            E(eV)
   0   2.0000     -88.963115     -2420.8094
   1   2.0000     -88.962861     -2420.8025
   2   2.0000     -10.324814      -280.9525
   3   2.0000     -10.324126      -280.9337
   4   2.0000     -10.313991      -280.6580
   5   2.0000     -10.308131      -280.4985
   6   2.0000     -10.306084      -280.4428
   7   2.0000     -10.297562      -280.2109
   8   2.0000     -10.296078      -280.1705
   9   2.0000     -10.296049      -280.1697
  10   2.0000     -10.294703      -280.1331
  11   2.0000     -10.288387      -279.9612
  12   2.0000     -10.286501      -279.9099
  13   2.0000     -10.286246      -279.9030
  14   2.0000     -10.285286      -279.8769
  15   2.0000     -10.272884      -279.5394
  16   2.0000      -8.078885      -219.8376
  17   2.0000      -8.078078      -219.8157
  18   2.0000      -6.037162      -164.2795
  19   2.0000      -6.036603      -164.2643
  20   2.0000      -6.033117      -164.1695
  21   2.0000      -6.032649      -164.1567
  22   2.0000      -6.029884      -164.0815
  23   2.0000      -6.028700      -164.0493
  24   2.0000      -1.015043       -27.6207
  25   2.0000      -0.991184       -26.9715
  26   2.0000      -0.913778       -24.8652
  27   2.0000      -0.907631       -24.6979
  28   2.0000      -0.873240       -23.7621
  29   2.0000      -0.846998       -23.0480
  30   2.0000      -0.844534       -22.9809
  31   2.0000      -0.815769       -22.1982
  32   2.0000      -0.784153       -21.3379
  33   2.0000      -0.772527       -21.0215
  34   2.0000      -0.715040       -19.4572
  35   2.0000      -0.697990       -18.9933
  36   2.0000      -0.685716       -18.6593
  37   2.0000      -0.660934       -17.9849
  38   2.0000      -0.638771       -17.3819
  39   2.0000      -0.620688       -16.8898
  40   2.0000      -0.594506       -16.1773
  41   2.0000      -0.569545       -15.4981
  42   2.0000      -0.568389       -15.4667
  43   2.0000      -0.552786       -15.0421
  44   2.0000      -0.541819       -14.7437
  45   2.0000      -0.525590       -14.3020
  46   2.0000      -0.516369       -14.0511
  47   2.0000      -0.508030       -13.8242
  48   2.0000      -0.499559       -13.5937
  49   2.0000      -0.495304       -13.4779
  50   2.0000      -0.484745       -13.1906
  51   2.0000      -0.482469       -13.1286
  52   2.0000      -0.472056       -12.8453
  53   2.0000      -0.468396       -12.7457
  54   2.0000      -0.456687       -12.4271
  55   2.0000      -0.450215       -12.2510
  56   2.0000      -0.441062       -12.0019
  57   2.0000      -0.438156       -11.9228
  58   2.0000      -0.434202       -11.8152
  59   2.0000      -0.427004       -11.6194
  60   2.0000      -0.420766       -11.4496
  61   2.0000      -0.420334       -11.4379
  62   2.0000      -0.411496       -11.1974
  63   2.0000      -0.344297        -9.3688
  64   2.0000      -0.331909        -9.0317
  65   2.0000      -0.326404        -8.8819
  66   2.0000      -0.297184        -8.0868
  67   0.0000       0.038343         1.0434
  68   0.0000       0.066417         1.8073
  69   0.0000       0.113602         3.0913
  70   0.0000       0.120777         3.2865
  71   0.0000       0.138549         3.7701

MULLIKEN ATOMIC CHARGES
-----------------------
   0 S :    0.102636
   1 C :   -0.170999
   2 C :   -0.054154
   3 C :    0.023074
   4 C :   -0.159974
   5 H :    0.003503
   6 C :    0.051552
   7 H :    0.040109
   8 H :    0.032787
   9 C :   -0.083405
  10 H :    0.038516
  11 H :    0.033156
  12 C :   -0.055454
  13 H :    0.043871
  14 H :    0.032079
  15 H :    0.042985
  16 S :    0.113095
  17 C :   -0.080639
  18 C :   -0.066623
  19 C :   -0.041849
  20 C :   -0.142683
  21 H :    0.034626
  22 C :    0.099970
  23 H :   -0.000441
  24 H :    0.028869
  25 C :   -0.080327
  26 H :    0.047336
  27 H :    0.029550
  28 C :   -0.055542
  29 H :    0.029348
  30 H :    0.028324
  31 H :    0.033593
  32 H :    0.057811
  33 H :    0.045300
Sum of atomic charges:   -0.0000000

LOEWDIN ATOMIC CHARGES
----------------------
   0 S :    0.400570
   1 C :   -0.194194
   2 C :   -0.068574
   3 C :   -0.071493
   4 C :   -0.212801
   5 H :    0.027010
   6 C :   -0.033393
   7 H :    0.036378
   8 H :    0.036879
   9 C :   -0.041092
  10 H :    0.022733
  11 H :    0.026207
  12 C :   -0.064196
  13 H :    0.030370
  14 H :    0.023875
  15 H :    0.030990
  16 S :    0.436044
  17 C :   -0.191542
  18 C :   -0.078760
  19 C :   -0.053363
  20 C :   -0.207970
  21 H :    0.041189
  22 C :   -0.032647
  23 H :    0.022787
  24 H :    0.033620
  25 C :   -0.032999
  26 H :    0.035681
  27 H :    0.019120
  28 C :   -0.068916
  29 H :    0.024199
  30 H :    0.020706
  31 H :    0.025467
  32 H :    0.036783
  33 H :    0.021333

  Mayer bond orders larger than 0.100000
B(  0-S ,  1-C ) :   1.1231 B(  0-S ,  4-C ) :   1.1573 B(  1-C ,  2-C ) :   1.6386
B(  1-C , 32-H ) :   0.9571 B(  2-C ,  3-C ) :   1.2424 B(  2-C ,  6-C ) :   0.9966
B(  3-C ,  4-C ) :   1.5949 B(  3-C ,  5-H ) :   0.9915 B(  4-C , 20-C ) :   0.9833
B(  6-C ,  7-H ) :   0.9201 B(  6-C ,  8-H ) :   0.9497 B(  6-C ,  9-C ) :   1.0638
B(  9-C , 10-H ) :   0.9524 B(  9-C , 11-H ) :   0.9607 B(  9-C , 12-C ) :   1.0732
B( 12-C , 13-H ) :   0.9753 B( 12-C , 14-H ) :   0.9763 B( 12-C , 15-H ) :   0.9770
B( 16-S , 17-C ) :   1.1714 B( 16-S , 20-C ) :   1.1743 B( 17-C , 18-C ) :   1.6180
B( 17-C , 33-H ) :   0.9663 B( 18-C , 19-C ) :   1.2290 B( 18-C , 21-H ) :   0.9893
B( 19-C , 20-C ) :   1.5915 B( 19-C , 22-C ) :   1.0533 B( 22-C , 23-H ) :   0.9188
B( 22-C , 24-H ) :   0.9421 B( 22-C , 25-C ) :   1.0578 B( 25-C , 26-H ) :   0.9589
B( 25-C , 27-H ) :   0.9594 B( 25-C , 28-C ) :   1.0722 B( 28-C , 29-H ) :   0.9771
B( 28-C , 30-H ) :   0.9754 B( 28-C , 31-H ) :   0.9773

Dispersion correction           -0.013863797
FINAL SINGLE POINT ENERGY     -1339.873625918936

DIPOLE MOMENT
-------------
                                X             Y             Z
Electronic contribution:     -3.54034       2.87788     -22.89965
Nuclear contribution   :      3.68925      -2.60034      23.59824
                        -----------------------------------------
Total Dipole Moment    :      0.14891       0.27753       0.69859
                        -----------------------------------------
Magnitude (a.u.)       :      0.76631
Magnitude (Debye)      :      1.94780

Rotational constants in cm-1:     0.019323     0.007566     0.006870
Rotational constants in MHz :   579.281225   226.831664   205.954496

                             ****ORCA TERMINATED NORMALLY****
TOTAL RUN TIME: 0 days 0 hours 0 minutes 29 seconds 910 msec
