                         Program Version 4.2.1 -  RELEASE  -
|  1> ! wB97X-D3 SP def2-SVP
|  2> %pal
|  3> nprocs 16
|  4> end
|  5>
|  6> * xyz 0 1
|  7> S 	 32.3526 	 26.8951 	 53.7824
|  8> C 	 31.7405 	 27.1045 	 52.1906
|  9> C 	 30.5901 	 26.35 	 52.0551
| 10> C 	 30.5236 	 25.2988 	 53.0922
| 11> C 	 31.4002 	 25.4765 	 54.1079
| 12> H 	 29.7541 	 24.5541 	 53.1592
| 13> C 	 29.7598 	 26.2551 	 50.7431
| 14> H 	 30.3556 	 26.1657 	 49.7865
| 15> H 	 29.3795 	 27.2767 	 50.8273
| 16> C 	 28.6275 	 25.2143 	 50.7141
| 17> H 	 28.9707 	 24.2202 	 50.7797
| 18> H 	 27.9833 	 25.3057 	 51.5887
| 19> C 	 27.6779 	 25.4478 	 49.5056
| 20> H 	 28.0981 	 25.0405 	 48.588
| 21> H 	 26.8673 	 24.8763 	 49.698
| 22> H 	 27.2266 	 26.4089 	 49.4819
| 23> S 	 30.9792 	 25.3079 	 56.7741
| 24> C 	 31.2903 	 23.832 	 57.6247
| 25> C 	 31.7875 	 22.8561 	 56.8416
| 26> C 	 31.73 	 23.2499 	 55.4209
| 27> C 	 31.4567 	 24.6394 	 55.2971
| 28> H 	 32.0193 	 21.8478 	 57.2718
| 29> C 	 32.1916 	 22.3292 	 54.3036
| 30> H 	 31.8088 	 22.7176 	 53.4189
| 31> H 	 31.6113 	 21.4075 	 54.4354
| 32> C 	 33.7348 	 22.0842 	 54.2669
| 33> H 	 34.1712 	 22.2765 	 55.3053
| 34> H 	 34.278 	 22.7875 	 53.623
| 35> C 	 34.0267 	 20.5651 	 54.0052
| 36> H 	 33.4858 	 20.208 	 53.1006
| 37> H 	 33.5996 	 19.9616 	 54.7793
| 38> H 	 35.0876 	 20.2991 	 53.8931
| 39> H 	 32.2234 	 27.55 	 51.3174
| 40> H 	 30.9108 	 23.6705 	 58.5899
| 41> *
| 42>
| 43>                          ****END OF INPUT****

CARTESIAN COORDINATES (ANGSTROEM)
---------------------------------
  S     32.352600   26.895100   53.782400
  C     31.740500   27.104500   52.190600
  C     30.590100   26.350000   52.055100
  C     30.523600   25.298800   53.092200
  C     31.400200   25.476500   54.107900
  H     29.754100   24.554100   53.159200
  C     29.759800   26.255100   50.743100
  H     30.355600   26.165700   49.786500
  H     29.379500   27.276700   50.827300
  C     28.627500   25.214300   50.714100
  H     28.970700   24.220200   50.779700
  H     27.983300   25.305700   51.588700
  C     27.677900   25.447800   49.505600
  H     28.098100   25.040500   48.588000
  H     26.867300   24.876300   49.698000
  H     27.226600   26.408900   49.481900
  S     30.979200   25.307900   56.774100
  C     31.290300   23.832000   57.624700
  C     31.787500   22.856100   56.841600
  C     31.730000   23.249900   55.420900
  C     31.456700   24.639400   55.297100
  H     32.019300   21.847800   57.271800
  C     32.191600   22.329200   54.303600
  H     31.808800   22.717600   53.418900
  H     31.611300   21.407500   54.435400
  C     33.734800   22.084200   54.266900
  H     34.171200   22.276500   55.305300
  H     34.278000   22.787500   53.623000
  C     34.026700   20.565100   54.005200
  H     33.485800   20.208000   53.100600
  H     33.599600   19.961600   54.779300
  H     35.087600   20.299100   53.893100
  H     32.223400   27.550000   51.317400
  H     30.910800   23.670500   58.589900

 Total Charge           Charge          ....    0
 Multiplicity           Mult            ....    1
 Number of Electrons    NEL             ....  134
 Basis Dimension        Dim             ....  322

ORBITAL ENERGIES
----------------

  NO   OCC          E(Eh)            E(eV)
   0   2.0000     -88.962526     -2420.7934
   1   2.0000     -88.961849     -2420.7750
   2   2.0000     -10.324697      -280.9493
   3   2.0000     -10.324430      -280.9420
   4   2.0000     -10.311861      -280.6000
   5   2.0000     -10.308130      -280.4985
   6   2.0000     -10.307106      -280.4706
   7   2.0000     -10.304859      -280.4095
   8   2.0000     -10.297683      -280.2142
   9   2.0000     -10.296827      -280.1909
  10   2.0000     -10.294308      -280.1224
  11   2.0000     -10.292008      -280.0598
  12   2.0000     -10.286492      -279.9097
  13   2.0000     -10.286178      -279.9011
  14   2.0000     -10.279745      -279.7261
  15   2.0000     -10.269208      -279.4394
  16   2.0000      -8.078367      -219.8235
  17   2.0000      -8.077996      -219.8134
  18   2.0000      -6.036750      -164.2683
  19   2.0000      -6.036624      -164.2649
  20   2.0000      -6.032588      -164.1551
  21   2.0000      -6.032352      -164.1486
  22   2.0000      -6.029195      -164.0627
  23   2.0000      -6.028604      -164.0466
  24   2.0000      -1.011509       -27.5246
  25   2.0000      -0.988572       -26.9004
  26   2.0000      -0.908051       -24.7093
  27   2.0000      -0.901442       -24.5295
  28   2.0000      -0.876930       -23.8625
  29   2.0000      -0.845757       -23.0142
  30   2.0000      -0.842567       -22.9274
  31   2.0000      -0.820320       -22.3221
  32   2.0000      -0.780851       -21.2480
  33   2.0000      -0.769031       -20.9264
  34   2.0000      -0.714409       -19.4400
  35   2.0000      -0.701036       -19.0762
  36   2.0000      -0.690807       -18.7978
  37   2.0000      -0.656044       -17.8519
  38   2.0000      -0.638661       -17.3789
  39   2.0000      -0.617785       -16.8108
  40   2.0000      -0.595475       -16.2037
  41   2.0000      -0.573485       -15.6053
  42   2.0000      -0.567689       -15.4476
  43   2.0000      -0.552327       -15.0296
  44   2.0000      -0.530835       -14.4447
  45   2.0000      -0.518959       -14.1216
  46   2.0000      -0.517124       -14.0717
  47   2.0000      -0.512759       -13.9529
  48   2.0000      -0.504993       -13.7416
  49   2.0000      -0.500360       -13.6155
  50   2.0000      -0.493749       -13.4356
  51   2.0000      -0.481639       -13.1061
  52   2.0000      -0.469735       -12.7821
  53   2.0000      -0.459826       -12.5125
  54   2.0000      -0.457748       -12.4560
  55   2.0000      -0.449363       -12.2278
  56   2.0000      -0.445648       -12.1267
  57   2.0000      -0.441484       -12.0134
  58   2.0000      -0.435881       -11.8609
  59   2.0000      -0.426103       -11.5949
  60   2.0000      -0.420905       -11.4534
  61   2.0000      -0.410967       -11.1830
  62   2.0000      -0.404088       -10.9958
  63   2.0000      -0.349370        -9.5068
  64   2.0000      -0.325653        -8.8615
  65   2.0000      -0.323575        -8.8049
  66   2.0000      -0.294178        -8.0050
  67   0.0000       0.044625         1.2143
  68   0.0000       0.057375         1.5613
  69   0.0000       0.115161         3.1337
  70   0.0000       0.121572         3.3081
  71   0.0000       0.132453         3.6042

MULLIKEN ATOMIC CHARGES
-----------------------
   0 S :    0.119790
   1 C :   -0.133992
   2 C :   -0.092005
   3 C :    0.020489
   4 C :   -0.136611
   5 H :    0.011855
   6 C :    0.025064
   7 H :    0.050107
   8 H :    0.039339
   9 C :   -0.106357
  10 H :    0.025827
  11 H :    0.023914
  12 C :    0.028363
  13 H :    0.034710
  14 H :   -0.007296
  15 H :    0.025906
  16 S :    0.115206
  17 C :   -0.079113
  18 C :   -0.038762
  19 C :   -0.101842
  20 C :   -0.158723
  21 H :    0.040027
  22 C :    0.129013
  23 H :   -0.003624
  24 H :    0.023240
  25 C :   -0.074044
  26 H :    0.044114
  27 H :    0.044869
  28 C :   -0.076595
  29 H :    0.031113
  30 H :    0.026859
  31 H :    0.041135
  32 H :    0.064994
  33 H :    0.043029
Sum of atomic charges:    0.0000000

LOEWDIN ATOMIC CHARGES
----------------------
   0 S :    0.415000
   1 C :   -0.213058
   2 C :   -0.061489
   3 C :   -0.064912
   4 C :   -0.203235
   5 H :    0.026450
   6 C :   -0.042734
   7 H :    0.037088
   8 H :    0.037554
   9 C :   -0.039181
  10 H :    0.017506
  11 H :    0.024323
  12 C :   -0.052147
  13 H :    0.027754
  14 H :    0.014115
  15 H :    0.026469
  16 S :    0.434355
  17 C :   -0.186769
  18 C :   -0.074085
  19 C :   -0.051359
  20 C :   -0.219186
  21 H :    0.041867
  22 C :   -0.029757
  23 H :    0.019986
  24 H :    0.033741
  25 C :   -0.038138
  26 H :    0.031988
  27 H :    0.028076
  28 C :   -0.070690
  29 H :    0.024834
  30 H :    0.019532
  31 H :    0.026507
  32 H :    0.039800
  33 H :    0.019796

  Mayer bond orders larger than 0.100000
B(  0-S ,  1-C ) :   1.1404 B(  0-S ,  4-C ) :   1.1357 B(  1-C ,  2-C ) :   1.6199
B(  1-C , 32-H ) :   0.9711 B(  2-C ,  3-C ) :   1.2238 B(  2-C ,  6-C ) :   0.9865
B(  3-C ,  4-C ) :   1.5991 B(  3-C ,  5-H ) :   0.9900 B(  4-C , 20-C ) :   1.0169
B(  6-C ,  7-H ) :   0.9507 B(  6-C ,  8-H ) :   0.9382 B(  6-C ,  9-C ) :   1.0859
B(  9-C , 10-H ) :   0.9493 B(  9-C , 11-H ) :   0.9536 B(  9-C , 12-C ) :   1.0885
B( 12-C , 13-H ) :   0.9734 B( 12-C , 14-H ) :   0.9651 B( 12-C , 15-H ) :   0.9723
B( 16-S , 17-C ) :   1.1529 B( 16-S , 20-C ) :   1.1693 B( 17-C , 18-C ) :   1.6325
B( 17-C , 33-H ) :   0.9711 B( 18-C , 19-C ) :   1.2205 B( 18-C , 21-H ) :   0.9804
B( 19-C , 20-C ) :   1.5803 B( 19-C , 22-C ) :   1.0637 B( 22-C , 23-H ) :   0.9179
B( 22-C , 24-H ) :   0.9370 B( 22-C , 25-C ) :   1.0271 B( 25-C , 26-H ) :   0.9687
B( 25-C , 27-H ) :   0.9606 B( 25-C , 28-C ) :   1.0572 B( 28-C , 29-H ) :   0.9780
B( 28-C , 30-H ) :   0.9787 B( 28-C , 31-H ) :   0.9763

Dispersion correction           -0.013793354
FINAL SINGLE POINT ENERGY     -1339.846046142303

DIPOLE MOMENT
-------------
                                X             Y             Z
Electronic contribution:      4.76694      17.12367      19.89267
Nuclear contribution   :     -5.10315     -17.69635     -20.33454
                        -----------------------------------------
Total Dipole Moment    :     -0.33621      -0.57268      -0.44187
                        -----------------------------------------
Magnitude (a.u.)       :      0.79766
Magnitude (Debye)      :      2.02748

Rotational constants in cm-1:     0.016970     0.007956     0.006875
Rotational constants in MHz :   508.745375   238.502495   206.097414

                             ****ORCA TERMINATED NORMALLY****
TOTAL RUN TIME: 0 days 0 hours 0 minutes 33 seconds 583 msec
