                         Program Version 4.2.1 -  RELEASE  -
|  1> ! wB97X-D3 SP def2-SVP
|  2> %pal
|  3> nprocs 16
|  4> end
|  5>
|  6> * xyz 0 1
|  7> S 	 -66.7632 	 35.4463 	 144.877
|  8> C 	 -67.7246 	 34.122 	 144.353
|  9> C 	 -67.5877 	 33.9543 	 142.945
| 10> C 	 -66.4133 	 34.7024 	 142.467
| 11> C 	 -65.8858 	 35.5762 	 143.348
| 12> H 	 -65.9999 	 34.6795 	 141.485
| 13> C 	 -68.3644 	 32.8758 	 142.124
| 14> H 	 -69.165 	 32.4514 	 142.734
| 15> H 	 -67.6498 	 32.0177 	 141.992
| 16> C 	 -68.9698 	 33.352 	 140.795
| 17> H 	 -68.3618 	 34.1092 	 140.201
| 18> H 	 -69.1322 	 32.5167 	 140.064
| 19> C 	 -70.3387 	 33.9327 	 141.084
| 20> H 	 -70.9652 	 34.2855 	 140.231
| 21> H 	 -70.9578 	 33.2844 	 141.633
| 22> H 	 -70.1931 	 34.7349 	 141.764
| 23> S 	 -63.3331 	 36.2418 	 144.058
| 24> C 	 -62.4615 	 37.3879 	 143.096
| 25> C 	 -63.2756 	 38.0524 	 142.212
| 26> C 	 -64.5719 	 37.3905 	 142.101
| 27> C 	 -64.7971 	 36.4661 	 143.084
| 28> H 	 -63.0322 	 38.9388 	 141.683
| 29> C 	 -65.5784 	 37.8287 	 141.039
| 30> H 	 -66.3946 	 37.1295 	 140.722
| 31> H 	 -64.9707 	 38.1484 	 140.168
| 32> C 	 -66.1725 	 39.2154 	 141.539
| 33> H 	 -66.491 	 39.7966 	 140.726
| 34> H 	 -65.3261 	 39.8426 	 141.91
| 35> C 	 -67.1552 	 39.0723 	 142.591
| 36> H 	 -67.4911 	 39.9937 	 143.036
| 37> H 	 -66.8009 	 38.5028 	 143.463
| 38> H 	 -67.9701 	 38.4509 	 142.244
| 39> H 	 -68.498 	 33.6794 	 144.86
| 40> H 	 -61.3681 	 37.5832 	 143.242
| 41> *
| 42>
| 43>                          ****END OF INPUT****

CARTESIAN COORDINATES (ANGSTROEM)
---------------------------------
  S    -66.763200   35.446300  144.877000
  C    -67.724600   34.122000  144.353000
  C    -67.587700   33.954300  142.945000
  C    -66.413300   34.702400  142.467000
  C    -65.885800   35.576200  143.348000
  H    -65.999900   34.679500  141.485000
  C    -68.364400   32.875800  142.124000
  H    -69.165000   32.451400  142.734000
  H    -67.649800   32.017700  141.992000
  C    -68.969800   33.352000  140.795000
  H    -68.361800   34.109200  140.201000
  H    -69.132200   32.516700  140.064000
  C    -70.338700   33.932700  141.084000
  H    -70.965200   34.285500  140.231000
  H    -70.957800   33.284400  141.633000
  H    -70.193100   34.734900  141.764000
  S    -63.333100   36.241800  144.058000
  C    -62.461500   37.387900  143.096000
  C    -63.275600   38.052400  142.212000
  C    -64.571900   37.390500  142.101000
  C    -64.797100   36.466100  143.084000
  H    -63.032200   38.938800  141.683000
  C    -65.578400   37.828700  141.039000
  H    -66.394600   37.129500  140.722000
  H    -64.970700   38.148400  140.168000
  C    -66.172500   39.215400  141.539000
  H    -66.491000   39.796600  140.726000
  H    -65.326100   39.842600  141.910000
  C    -67.155200   39.072300  142.591000
  H    -67.491100   39.993700  143.036000
  H    -66.800900   38.502800  143.463000
  H    -67.970100   38.450900  142.244000
  H    -68.498000   33.679400  144.860000
  H    -61.368100   37.583200  143.242000

 Total Charge           Charge          ....    0
 Multiplicity           Mult            ....    1
 Number of Electrons    NEL             ....  134
 Basis Dimension        Dim             ....  322

ORBITAL ENERGIES
----------------

  NO   OCC          E(Eh)            E(eV)
   0   2.0000     -88.965177     -2420.8655
   1   2.0000     -88.961250     -2420.7587
   2   2.0000     -10.325215      -280.9634
   3   2.0000     -10.323564      -280.9185
   4   2.0000     -10.322916      -280.9008
   5   2.0000     -10.312475      -280.6167
   6   2.0000     -10.311931      -280.6019
   7   2.0000     -10.308584      -280.5108
   8   2.0000     -10.302947      -280.3574
   9   2.0000     -10.301681      -280.3230
  10   2.0000     -10.296782      -280.1897
  11   2.0000     -10.295986      -280.1680
  12   2.0000     -10.292163      -280.0640
  13   2.0000     -10.280274      -279.7405
  14   2.0000     -10.269530      -279.4481
  15   2.0000     -10.262969      -279.2696
  16   2.0000      -8.079936      -219.8662
  17   2.0000      -8.076515      -219.7732
  18   2.0000      -6.038520      -164.3165
  19   2.0000      -6.035093      -164.2232
  20   2.0000      -6.034388      -164.2040
  21   2.0000      -6.030994      -164.1117
  22   2.0000      -6.030644      -164.1022
  23   2.0000      -6.027104      -164.0058
  24   2.0000      -1.007917       -27.4268
  25   2.0000      -0.983633       -26.7660
  26   2.0000      -0.912550       -24.8318
  27   2.0000      -0.910598       -24.7786
  28   2.0000      -0.876572       -23.8527
  29   2.0000      -0.850845       -23.1527
  30   2.0000      -0.842116       -22.9151
  31   2.0000      -0.816388       -22.2150
  32   2.0000      -0.781206       -21.2577
  33   2.0000      -0.770371       -20.9629
  34   2.0000      -0.708544       -19.2805
  35   2.0000      -0.696286       -18.9469
  36   2.0000      -0.693665       -18.8756
  37   2.0000      -0.663217       -18.0471
  38   2.0000      -0.647333       -17.6148
  39   2.0000      -0.618450       -16.8289
  40   2.0000      -0.600868       -16.3505
  41   2.0000      -0.568711       -15.4754
  42   2.0000      -0.557064       -15.1585
  43   2.0000      -0.553610       -15.0645
  44   2.0000      -0.540753       -14.7146
  45   2.0000      -0.531026       -14.4499
  46   2.0000      -0.519598       -14.1390
  47   2.0000      -0.515944       -14.0396
  48   2.0000      -0.506590       -13.7850
  49   2.0000      -0.505049       -13.7431
  50   2.0000      -0.483033       -13.1440
  51   2.0000      -0.474549       -12.9131
  52   2.0000      -0.471061       -12.8182
  53   2.0000      -0.468065       -12.7367
  54   2.0000      -0.461149       -12.5485
  55   2.0000      -0.449373       -12.2281
  56   2.0000      -0.442854       -12.0507
  57   2.0000      -0.436658       -11.8821
  58   2.0000      -0.430682       -11.7195
  59   2.0000      -0.427886       -11.6434
  60   2.0000      -0.423310       -11.5189
  61   2.0000      -0.409079       -11.1316
  62   2.0000      -0.406221       -11.0538
  63   2.0000      -0.349112        -9.4998
  64   2.0000      -0.325555        -8.8588
  65   2.0000      -0.323598        -8.8056
  66   2.0000      -0.297380        -8.0921
  67   0.0000       0.037103         1.0096
  68   0.0000       0.064448         1.7537
  69   0.0000       0.107783         2.9329
  70   0.0000       0.115893         3.1536
  71   0.0000       0.126195         3.4339

MULLIKEN ATOMIC CHARGES
-----------------------
   0 S :    0.114510
   1 C :   -0.069248
   2 C :   -0.119262
   3 C :    0.043430
   4 C :   -0.140169
   5 H :    0.005072
   6 C :    0.036278
   7 H :    0.017104
   8 H :    0.054924
   9 C :   -0.084682
  10 H :    0.042593
  11 H :    0.034678
  12 C :   -0.033312
  13 H :    0.040119
  14 H :    0.006422
  15 H :    0.016571
  16 S :    0.101805
  17 C :   -0.102209
  18 C :   -0.011453
  19 C :   -0.047904
  20 C :   -0.164276
  21 H :    0.014211
  22 C :    0.039530
  23 H :    0.049476
  24 H :    0.026772
  25 C :   -0.071056
  26 H :    0.013328
  27 H :    0.016962
  28 C :    0.001194
  29 H :    0.027435
  30 H :    0.019371
  31 H :    0.018728
  32 H :    0.023582
  33 H :    0.079479
Sum of atomic charges:    0.0000000

LOEWDIN ATOMIC CHARGES
----------------------
   0 S :    0.407407
   1 C :   -0.196243
   2 C :   -0.056305
   3 C :   -0.058180
   4 C :   -0.194153
   5 H :    0.026870
   6 C :   -0.033322
   7 H :    0.029271
   8 H :    0.040783
   9 C :   -0.049638
  10 H :    0.030233
  11 H :    0.027478
  12 C :   -0.067225
  13 H :    0.029718
  14 H :    0.014787
  15 H :    0.021137
  16 S :    0.397408
  17 C :   -0.184694
  18 C :   -0.068484
  19 C :   -0.043395
  20 C :   -0.202309
  21 H :    0.026032
  22 C :   -0.029137
  23 H :    0.035332
  24 H :    0.034887
  25 C :   -0.039653
  26 H :    0.013791
  27 H :    0.026458
  28 C :   -0.067167
  29 H :    0.025123
  30 H :    0.026577
  31 H :    0.024039
  32 H :    0.011863
  33 H :    0.040711

  Mayer bond orders larger than 0.100000
B(  0-S ,  1-C ) :   1.1481 B(  0-S ,  4-C ) :   1.1241 B(  1-C ,  2-C ) :   1.6002
B(  1-C , 32-H ) :   0.9746 B(  2-C ,  3-C ) :   1.2023 B(  2-C ,  6-C ) :   1.0297
B(  3-C ,  4-C ) :   1.6245 B(  3-C ,  5-H ) :   0.9948 B(  4-C , 20-C ) :   1.0393
B(  6-C ,  7-H ) :   0.9471 B(  6-C ,  8-H ) :   0.9450 B(  6-C ,  9-C ) :   1.0460
B(  9-C , 10-H ) :   0.9618 B(  9-C , 11-H ) :   0.9569 B(  9-C , 12-C ) :   1.0712
B( 12-C , 13-H ) :   0.9733 B( 12-C , 14-H ) :   0.9714 B( 12-C , 15-H ) :   0.9754
B( 16-S , 17-C ) :   1.1612 B( 16-S , 20-C ) :   1.1097 B( 17-C , 18-C ) :   1.6214
B( 17-C , 33-H ) :   0.9613 B( 18-C , 19-C ) :   1.2074 B( 18-C , 21-H ) :   0.9893
B( 19-C , 20-C ) :   1.6453 B( 19-C , 22-C ) :   1.0462 B( 22-C , 23-H ) :   0.9491
B( 22-C , 24-H ) :   0.9239 B( 22-C , 25-C ) :   1.0672 B( 25-C , 26-H ) :   0.9523
B( 25-C , 27-H ) :   0.9496 B( 25-C , 28-C ) :   1.0899 B( 28-C , 29-H ) :   0.9662
B( 28-C , 30-H ) :   0.9651 B( 28-C , 31-H ) :   0.9689

Dispersion correction           -0.015362968
FINAL SINGLE POINT ENERGY     -1339.868025164240

DIPOLE MOMENT
-------------
                                X             Y             Z
Electronic contribution:     19.50078      -2.49319      17.36291
Nuclear contribution   :    -19.69917       2.60585     -17.97673
                        -----------------------------------------
Total Dipole Moment    :     -0.19839       0.11267      -0.61382
                        -----------------------------------------
Magnitude (a.u.)       :      0.65484
Magnitude (Debye)      :      1.66448

Rotational constants in cm-1:     0.020426     0.008896     0.007544
Rotational constants in MHz :   612.361465   266.694787   226.153417

                             ****ORCA TERMINATED NORMALLY****
TOTAL RUN TIME: 0 days 0 hours 0 minutes 37 seconds 883 msec
