                         Program Version 4.2.1 -  RELEASE  -
|  1> ! wB97X-D3 SP def2-SVP
|  2> %pal
|  3> nprocs 16
|  4> end
|  5>
|  6> * xyz 0 1
|  7> S 	 7.65487 	 -11.7458 	 60.4362
|  8> C 	 7.23067 	 -10.3995 	 61.4364
|  9> C 	 6.78733 	 -10.8256 	 62.7019
| 10> C 	 6.86691 	 -12.2631 	 62.7883
| 11> C 	 7.21489 	 -12.9269 	 61.6343
| 12> H 	 6.47484 	 -12.7288 	 63.6218
| 13> C 	 6.13693 	 -9.94693 	 63.7834
| 14> H 	 6.07404 	 -10.4834 	 64.6687
| 15> H 	 5.16018 	 -9.68913 	 63.4028
| 16> C 	 6.82466 	 -8.54164 	 64.0281
| 17> H 	 6.93732 	 -7.93353 	 63.0804
| 18> H 	 6.14111 	 -7.96258 	 64.6592
| 19> C 	 8.17633 	 -8.75285 	 64.7643
| 20> H 	 8.98967 	 -8.97206 	 63.9916
| 21> H 	 8.34843 	 -7.77379 	 65.1819
| 22> H 	 8.14436 	 -9.41539 	 65.5671
| 23> S 	 8.56527 	 -15.1761 	 61.1292
| 24> C 	 7.72582 	 -16.6931 	 60.8146
| 25> C 	 6.39447 	 -16.6086 	 61.0123
| 26> C 	 5.99524 	 -15.2573 	 61.3128
| 27> C 	 7.05439 	 -14.3574 	 61.3273
| 28> H 	 5.78065 	 -17.5064 	 60.9853
| 29> C 	 4.56569 	 -14.8459 	 61.5495
| 30> H 	 4.0092 	 -15.0653 	 60.6285
| 31> H 	 4.45894 	 -13.7698 	 61.7289
| 32> C 	 3.80934 	 -15.643 	 62.6193
| 33> H 	 4.44688 	 -15.7527 	 63.4674
| 34> H 	 3.73468 	 -16.6776 	 62.1445
| 35> C 	 2.42483 	 -15.0359 	 63.0252
| 36> H 	 2.62776 	 -13.9732 	 63.2745
| 37> H 	 1.86394 	 -15.4081 	 63.904
| 38> H 	 1.72264 	 -15.1357 	 62.235
| 39> H 	 7.0621 	 -9.36344 	 61.1629
| 40> H 	 8.2492 	 -17.6157 	 60.6132
| 41> *
| 42>
| 43>                          ****END OF INPUT****

CARTESIAN COORDINATES (ANGSTROEM)
---------------------------------
  S      7.654870  -11.745800   60.436200
  C      7.230670  -10.399500   61.436400
  C      6.787330  -10.825600   62.701900
  C      6.866910  -12.263100   62.788300
  C      7.214890  -12.926900   61.634300
  H      6.474840  -12.728800   63.621800
  C      6.136930   -9.946930   63.783400
  H      6.074040  -10.483400   64.668700
  H      5.160180   -9.689130   63.402800
  C      6.824660   -8.541640   64.028100
  H      6.937320   -7.933530   63.080400
  H      6.141110   -7.962580   64.659200
  C      8.176330   -8.752850   64.764300
  H      8.989670   -8.972060   63.991600
  H      8.348430   -7.773790   65.181900
  H      8.144360   -9.415390   65.567100
  S      8.565270  -15.176100   61.129200
  C      7.725820  -16.693100   60.814600
  C      6.394470  -16.608600   61.012300
  C      5.995240  -15.257300   61.312800
  C      7.054390  -14.357400   61.327300
  H      5.780650  -17.506400   60.985300
  C      4.565690  -14.845900   61.549500
  H      4.009200  -15.065300   60.628500
  H      4.458940  -13.769800   61.728900
  C      3.809340  -15.643000   62.619300
  H      4.446880  -15.752700   63.467400
  H      3.734680  -16.677600   62.144500
  C      2.424830  -15.035900   63.025200
  H      2.627760  -13.973200   63.274500
  H      1.863940  -15.408100   63.904000
  H      1.722640  -15.135700   62.235000
  H      7.062100   -9.363440   61.162900
  H      8.249200  -17.615700   60.613200

 Total Charge           Charge          ....    0
 Multiplicity           Mult            ....    1
 Number of Electrons    NEL             ....  134
 Basis Dimension        Dim             ....  322

ORBITAL ENERGIES
----------------

  NO   OCC          E(Eh)            E(eV)
   0   2.0000     -88.966459     -2420.9004
   1   2.0000     -88.960983     -2420.7514
   2   2.0000     -10.328257      -281.0462
   3   2.0000     -10.325721      -280.9772
   4   2.0000     -10.314430      -280.6699
   5   2.0000     -10.312582      -280.6196
   6   2.0000     -10.307004      -280.4678
   7   2.0000     -10.302138      -280.3354
   8   2.0000     -10.297511      -280.2095
   9   2.0000     -10.294743      -280.1342
  10   2.0000     -10.292040      -280.0606
  11   2.0000     -10.291204      -280.0379
  12   2.0000     -10.288333      -279.9598
  13   2.0000     -10.288061      -279.9524
  14   2.0000     -10.283710      -279.8340
  15   2.0000     -10.276072      -279.6261
  16   2.0000      -8.081410      -219.9063
  17   2.0000      -8.076359      -219.7689
  18   2.0000      -6.039992      -164.3565
  19   2.0000      -6.035699      -164.2397
  20   2.0000      -6.034859      -164.2169
  21   2.0000      -6.032241      -164.1456
  22   2.0000      -6.030817      -164.1069
  23   2.0000      -6.027050      -164.0044
  24   2.0000      -1.007821       -27.4242
  25   2.0000      -0.985465       -26.8159
  26   2.0000      -0.907740       -24.7009
  27   2.0000      -0.905941       -24.6519
  28   2.0000      -0.869580       -23.6625
  29   2.0000      -0.847554       -23.0631
  30   2.0000      -0.844337       -22.9756
  31   2.0000      -0.816531       -22.2189
  32   2.0000      -0.782623       -21.2963
  33   2.0000      -0.771785       -21.0013
  34   2.0000      -0.705593       -19.2002
  35   2.0000      -0.701809       -19.0972
  36   2.0000      -0.693518       -18.8716
  37   2.0000      -0.658953       -17.9310
  38   2.0000      -0.638636       -17.3782
  39   2.0000      -0.617410       -16.8006
  40   2.0000      -0.597719       -16.2648
  41   2.0000      -0.577362       -15.7108
  42   2.0000      -0.567012       -15.4292
  43   2.0000      -0.549622       -14.9560
  44   2.0000      -0.541397       -14.7322
  45   2.0000      -0.518374       -14.1057
  46   2.0000      -0.517446       -14.0804
  47   2.0000      -0.513733       -13.9794
  48   2.0000      -0.507465       -13.8088
  49   2.0000      -0.498710       -13.5706
  50   2.0000      -0.486661       -13.2427
  51   2.0000      -0.479550       -13.0492
  52   2.0000      -0.470734       -12.8093
  53   2.0000      -0.464661       -12.6441
  54   2.0000      -0.463715       -12.6183
  55   2.0000      -0.454935       -12.3794
  56   2.0000      -0.444130       -12.0854
  57   2.0000      -0.434878       -11.8336
  58   2.0000      -0.428793       -11.6680
  59   2.0000      -0.421793       -11.4776
  60   2.0000      -0.418880       -11.3983
  61   2.0000      -0.416952       -11.3458
  62   2.0000      -0.414722       -11.2852
  63   2.0000      -0.341265        -9.2863
  64   2.0000      -0.329032        -8.9534
  65   2.0000      -0.324027        -8.8172
  66   2.0000      -0.300729        -8.1833
  67   0.0000       0.040650         1.1061
  68   0.0000       0.059604         1.6219
  69   0.0000       0.116167         3.1611
  70   0.0000       0.124363         3.3841
  71   0.0000       0.126335         3.4377

MULLIKEN ATOMIC CHARGES
-----------------------
   0 S :    0.130490
   1 C :   -0.111963
   2 C :   -0.147724
   3 C :    0.086820
   4 C :   -0.156670
   5 H :   -0.025955
   6 C :    0.104127
   7 H :    0.007134
   8 H :    0.038349
   9 C :   -0.126146
  10 H :    0.039869
  11 H :    0.029732
  12 C :   -0.029948
  13 H :    0.059829
  14 H :    0.023819
  15 H :    0.022942
  16 S :    0.099136
  17 C :   -0.082941
  18 C :   -0.033585
  19 C :   -0.012529
  20 C :   -0.168988
  21 H :    0.027651
  22 C :    0.057238
  23 H :    0.031500
  24 H :    0.026847
  25 C :   -0.105964
  26 H :    0.027487
  27 H :    0.033402
  28 C :   -0.042932
  29 H :    0.032825
  30 H :    0.040200
  31 H :    0.027528
  32 H :    0.046080
  33 H :    0.052341
Sum of atomic charges:    0.0000000

LOEWDIN ATOMIC CHARGES
----------------------
   0 S :    0.428479
   1 C :   -0.213816
   2 C :   -0.060538
   3 C :   -0.053920
   4 C :   -0.210941
   5 H :    0.015450
   6 C :   -0.022691
   7 H :    0.018141
   8 H :    0.034033
   9 C :   -0.039733
  10 H :    0.028035
  11 H :    0.021224
  12 C :   -0.063163
  13 H :    0.040452
  14 H :    0.024581
  15 H :    0.014626
  16 S :    0.406936
  17 C :   -0.171505
  18 C :   -0.073352
  19 C :   -0.050273
  20 C :   -0.204764
  21 H :    0.036899
  22 C :   -0.036157
  23 H :    0.034231
  24 H :    0.027628
  25 C :   -0.041606
  26 H :    0.016201
  27 H :    0.026278
  28 C :   -0.068684
  29 H :    0.029764
  30 H :    0.031540
  31 H :    0.020370
  32 H :    0.029256
  33 H :    0.027019

  Mayer bond orders larger than 0.100000
B(  0-S ,  1-C ) :   1.1548 B(  0-S ,  4-C ) :   1.1629 B(  1-C ,  2-C ) :   1.5919
B(  1-C , 32-H ) :   0.9656 B(  2-C ,  3-C ) :   1.2686 B(  2-C ,  6-C ) :   1.0150
B(  3-C ,  4-C ) :   1.5595 B(  3-C ,  5-H ) :   1.0083 B(  4-C , 20-C ) :   0.9903
B(  6-C ,  7-H ) :   0.9453 B(  6-C ,  8-H ) :   0.9352 B(  6-C ,  9-C ) :   1.0760
B(  9-C , 10-H ) :   0.9552 B(  9-C , 11-H ) :   0.9604 B(  9-C , 12-C ) :   1.0652
B( 12-C , 13-H ) :   0.9753 B( 12-C , 14-H ) :   0.9760 B( 12-C , 15-H ) :   0.9790
B( 16-S , 17-C ) :   1.1501 B( 16-S , 20-C ) :   1.1518 B( 17-C , 18-C ) :   1.6392
B( 17-C , 33-H ) :   0.9664 B( 18-C , 19-C ) :   1.2025 B( 18-C , 21-H ) :   0.9920
B( 19-C , 20-C ) :   1.6272 B( 19-C , 22-C ) :   1.0541 B( 22-C , 23-H ) :   0.9323
B( 22-C , 24-H ) :   0.9411 B( 22-C , 25-C ) :   1.0411 B( 25-C , 26-H ) :   0.9658
B( 25-C , 27-H ) :   0.9545 B( 25-C , 28-C ) :   1.0702 B( 28-C , 29-H ) :   0.9748
B( 28-C , 30-H ) :   0.9774 B( 28-C , 31-H ) :   0.9769

Dispersion correction           -0.013958757
FINAL SINGLE POINT ENERGY     -1339.871911077088

DIPOLE MOMENT
-------------
                                X             Y             Z
Electronic contribution:     17.87453      -9.63581     -16.93732
Nuclear contribution   :    -18.57070       9.72853      17.38769
                        -----------------------------------------
Total Dipole Moment    :     -0.69617       0.09272       0.45038
                        -----------------------------------------
Magnitude (a.u.)       :      0.83432
Magnitude (Debye)      :      2.12067

Rotational constants in cm-1:     0.018661     0.008143     0.006363
Rotational constants in MHz :   559.445057   244.122043   190.752912

                             ****ORCA TERMINATED NORMALLY****
TOTAL RUN TIME: 0 days 0 hours 0 minutes 28 seconds 986 msec
