                         Program Version 4.2.1 -  RELEASE  -
|  1> ! wB97X-D3 SP def2-SVP
|  2> %pal
|  3> nprocs 16
|  4> end
|  5>
|  6> * xyz 0 1
|  7> S 	 -12.1762 	 49.5954 	 33.2401
|  8> C 	 -10.8333 	 48.6032 	 32.7053
|  9> C 	 -9.65269 	 49.1565 	 33.1633
| 10> C 	 -9.76204 	 50.3634 	 33.9125
| 11> C 	 -11.1136 	 50.7006 	 34.1611
| 12> H 	 -8.93266 	 50.8808 	 34.3388
| 13> C 	 -8.28972 	 48.5808 	 32.7892
| 14> H 	 -8.20525 	 47.4944 	 32.6291
| 15> H 	 -7.70486 	 48.8498 	 33.6909
| 16> C 	 -7.57052 	 49.3355 	 31.7422
| 17> H 	 -8.11372 	 49.3119 	 30.7775
| 18> H 	 -7.64626 	 50.4349 	 31.9751
| 19> C 	 -6.15164 	 48.8037 	 31.3542
| 20> H 	 -5.70766 	 49.3785 	 30.515
| 21> H 	 -5.42495 	 48.8846 	 32.1457
| 22> H 	 -6.09613 	 47.8765 	 30.9017
| 23> S 	 -12.8028 	 52.8899 	 34.3445
| 24> C 	 -12.8234 	 53.638 	 35.9012
| 25> C 	 -12.0966 	 53.0632 	 36.9118
| 26> C 	 -11.3417 	 51.9992 	 36.4502
| 27> C 	 -11.6181 	 51.7622 	 35.0373
| 28> H 	 -12.1337 	 53.3832 	 37.8873
| 29> C 	 -10.2223 	 51.3084 	 37.2538
| 30> H 	 -10.095 	 51.8757 	 38.2208
| 31> H 	 -9.32812 	 51.3449 	 36.709
| 32> C 	 -10.4601 	 49.7436 	 37.5117
| 33> H 	 -9.55662 	 49.3255 	 38.015
| 34> H 	 -10.5023 	 49.1855 	 36.591
| 35> C 	 -11.5819 	 49.4979 	 38.4737
| 36> H 	 -12.4973 	 49.5435 	 37.8906
| 37> H 	 -11.6545 	 50.1072 	 39.3413
| 38> H 	 -11.5498 	 48.4802 	 38.8257
| 39> H 	 -10.8887 	 47.8313 	 31.9957
| 40> H 	 -13.3615 	 54.4812 	 36.115
| 41> *
| 42>
| 43>                          ****END OF INPUT****

CARTESIAN COORDINATES (ANGSTROEM)
---------------------------------
  S    -12.176200   49.595400   33.240100
  C    -10.833300   48.603200   32.705300
  C     -9.652690   49.156500   33.163300
  C     -9.762040   50.363400   33.912500
  C    -11.113600   50.700600   34.161100
  H     -8.932660   50.880800   34.338800
  C     -8.289720   48.580800   32.789200
  H     -8.205250   47.494400   32.629100
  H     -7.704860   48.849800   33.690900
  C     -7.570520   49.335500   31.742200
  H     -8.113720   49.311900   30.777500
  H     -7.646260   50.434900   31.975100
  C     -6.151640   48.803700   31.354200
  H     -5.707660   49.378500   30.515000
  H     -5.424950   48.884600   32.145700
  H     -6.096130   47.876500   30.901700
  S    -12.802800   52.889900   34.344500
  C    -12.823400   53.638000   35.901200
  C    -12.096600   53.063200   36.911800
  C    -11.341700   51.999200   36.450200
  C    -11.618100   51.762200   35.037300
  H    -12.133700   53.383200   37.887300
  C    -10.222300   51.308400   37.253800
  H    -10.095000   51.875700   38.220800
  H     -9.328120   51.344900   36.709000
  C    -10.460100   49.743600   37.511700
  H     -9.556620   49.325500   38.015000
  H    -10.502300   49.185500   36.591000
  C    -11.581900   49.497900   38.473700
  H    -12.497300   49.543500   37.890600
  H    -11.654500   50.107200   39.341300
  H    -11.549800   48.480200   38.825700
  H    -10.888700   47.831300   31.995700
  H    -13.361500   54.481200   36.115000

 Total Charge           Charge          ....    0
 Multiplicity           Mult            ....    1
 Number of Electrons    NEL             ....  134
 Basis Dimension        Dim             ....  322

ORBITAL ENERGIES
----------------

  NO   OCC          E(Eh)            E(eV)
   0   2.0000     -88.975449     -2421.1450
   1   2.0000     -88.965343     -2420.8700
   2   2.0000     -10.336403      -281.2678
   3   2.0000     -10.331565      -281.1362
   4   2.0000     -10.310417      -280.5607
   5   2.0000     -10.309672      -280.5404
   6   2.0000     -10.309309      -280.5305
   7   2.0000     -10.300540      -280.2919
   8   2.0000     -10.298058      -280.2244
   9   2.0000     -10.295944      -280.1669
  10   2.0000     -10.289318      -279.9866
  11   2.0000     -10.288611      -279.9673
  12   2.0000     -10.285655      -279.8869
  13   2.0000     -10.284716      -279.8613
  14   2.0000     -10.275406      -279.6080
  15   2.0000     -10.264371      -279.3077
  16   2.0000      -8.089838      -220.1357
  17   2.0000      -8.079282      -219.8484
  18   2.0000      -6.047942      -164.5729
  19   2.0000      -6.044611      -164.4822
  20   2.0000      -6.040843      -164.3797
  21   2.0000      -6.037851      -164.2983
  22   2.0000      -6.033799      -164.1880
  23   2.0000      -6.030125      -164.0880
  24   2.0000      -1.001729       -27.2584
  25   2.0000      -0.981987       -26.7212
  26   2.0000      -0.912311       -24.8252
  27   2.0000      -0.902973       -24.5711
  28   2.0000      -0.868745       -23.6398
  29   2.0000      -0.855362       -23.2756
  30   2.0000      -0.844481       -22.9795
  31   2.0000      -0.813226       -22.1290
  32   2.0000      -0.786629       -21.4053
  33   2.0000      -0.771421       -20.9914
  34   2.0000      -0.711409       -19.3584
  35   2.0000      -0.696644       -18.9566
  36   2.0000      -0.689810       -18.7707
  37   2.0000      -0.665911       -18.1204
  38   2.0000      -0.642618       -17.4865
  39   2.0000      -0.622673       -16.9438
  40   2.0000      -0.596535       -16.2325
  41   2.0000      -0.568203       -15.4616
  42   2.0000      -0.561057       -15.2671
  43   2.0000      -0.548866       -14.9354
  44   2.0000      -0.541555       -14.7364
  45   2.0000      -0.519557       -14.1379
  46   2.0000      -0.516682       -14.0596
  47   2.0000      -0.509555       -13.8657
  48   2.0000      -0.508272       -13.8308
  49   2.0000      -0.498343       -13.5606
  50   2.0000      -0.486271       -13.2321
  51   2.0000      -0.478142       -13.0109
  52   2.0000      -0.476272       -12.9600
  53   2.0000      -0.470136       -12.7930
  54   2.0000      -0.462599       -12.5880
  55   2.0000      -0.457873       -12.4594
  56   2.0000      -0.448469       -12.2035
  57   2.0000      -0.438539       -11.9333
  58   2.0000      -0.431803       -11.7500
  59   2.0000      -0.423964       -11.5367
  60   2.0000      -0.423078       -11.5125
  61   2.0000      -0.407440       -11.0870
  62   2.0000      -0.397836       -10.8257
  63   2.0000      -0.345918        -9.4129
  64   2.0000      -0.335798        -9.1375
  65   2.0000      -0.327901        -8.9226
  66   2.0000      -0.284279        -7.7356
  67   0.0000       0.022026         0.5994
  68   0.0000       0.062831         1.7097
  69   0.0000       0.106233         2.8907
  70   0.0000       0.120815         3.2875
  71   0.0000       0.133261         3.6262

MULLIKEN ATOMIC CHARGES
-----------------------
   0 S :    0.097963
   1 C :   -0.095521
   2 C :   -0.090342
   3 C :    0.029629
   4 C :   -0.142873
   5 H :    0.010298
   6 C :    0.072026
   7 H :    0.030529
   8 H :    0.016224
   9 C :   -0.096586
  10 H :    0.019020
  11 H :    0.031279
  12 C :   -0.018622
  13 H :    0.023978
  14 H :    0.026644
  15 H :    0.016282
  16 S :    0.136833
  17 C :   -0.035907
  18 C :   -0.017037
  19 C :   -0.000185
  20 C :   -0.196428
  21 H :   -0.015883
  22 C :    0.068121
  23 H :    0.030371
  24 H :    0.020688
  25 C :   -0.093540
  26 H :    0.022142
  27 H :    0.047981
  28 C :   -0.020040
  29 H :    0.033686
  30 H :    0.021875
  31 H :    0.021313
  32 H :    0.031686
  33 H :    0.014398
Sum of atomic charges:   -0.0000000

LOEWDIN ATOMIC CHARGES
----------------------
   0 S :    0.386537
   1 C :   -0.194212
   2 C :   -0.060624
   3 C :   -0.065931
   4 C :   -0.180864
   5 H :    0.027244
   6 C :   -0.039853
   7 H :    0.031097
   8 H :    0.033048
   9 C :   -0.049854
  10 H :    0.022487
  11 H :    0.029790
  12 C :   -0.065699
  13 H :    0.034457
  14 H :    0.020414
  15 H :    0.016836
  16 S :    0.424182
  17 C :   -0.170241
  18 C :   -0.061603
  19 C :   -0.037011
  20 C :   -0.205096
  21 H :    0.021628
  22 C :   -0.023115
  23 H :    0.035635
  24 H :    0.022215
  25 C :   -0.036508
  26 H :    0.023413
  27 H :    0.027225
  28 C :   -0.066386
  29 H :    0.028489
  30 H :    0.018966
  31 H :    0.025234
  32 H :    0.020749
  33 H :    0.007352

  Mayer bond orders larger than 0.100000
B(  0-S ,  1-C ) :   1.1252 B(  0-S ,  4-C ) :   1.1551 B(  1-C ,  2-C ) :   1.6021
B(  1-C ,  4-C ) :   0.1001 B(  1-C , 32-H ) :   0.9783 B(  2-C ,  3-C ) :   1.2513
B(  2-C ,  6-C ) :   1.0226 B(  3-C ,  4-C ) :   1.5356 B(  3-C ,  5-H ) :   0.9951
B(  4-C , 20-C ) :   1.0642 B(  6-C ,  7-H ) :   0.9504 B(  6-C ,  8-H ) :   0.9299
B(  6-C ,  9-C ) :   1.0674 B(  9-C , 10-H ) :   0.9516 B(  9-C , 11-H ) :   0.9524
B(  9-C , 12-C ) :   1.0742 B( 12-C , 13-H ) :   0.9701 B( 12-C , 14-H ) :   0.9780
B( 12-C , 15-H ) :   0.9726 B( 16-S , 17-C ) :   1.1724 B( 16-S , 20-C ) :   1.1604
B( 17-C , 18-C ) :   1.5786 B( 17-C , 20-C ) :   0.1112 B( 17-C , 33-H ) :   0.9704
B( 18-C , 19-C ) :   1.2908 B( 18-C , 21-H ) :   1.0017 B( 19-C , 20-C ) :   1.5144
B( 19-C , 22-C ) :   1.0216 B( 22-C , 23-H ) :   0.9441 B( 22-C , 24-H ) :   0.9398
B( 22-C , 25-C ) :   1.0643 B( 25-C , 26-H ) :   0.9591 B( 25-C , 27-H ) :   0.9564
B( 25-C , 28-C ) :   1.0788 B( 28-C , 29-H ) :   0.9735 B( 28-C , 30-H ) :   0.9760
B( 28-C , 31-H ) :   0.9712

Dispersion correction           -0.014798776
FINAL SINGLE POINT ENERGY     -1339.855925732015

DIPOLE MOMENT
-------------
                                X             Y             Z
Electronic contribution:    -22.44348      11.85784      -5.89238
Nuclear contribution   :     22.93866     -11.87690       6.15015
                        -----------------------------------------
Total Dipole Moment    :      0.49518      -0.01906       0.25777
                        -----------------------------------------
Magnitude (a.u.)       :      0.55858
Magnitude (Debye)      :      1.41979

Rotational constants in cm-1:     0.019845     0.008012     0.007056
Rotational constants in MHz :   594.938784   240.188842   211.525515

                             ****ORCA TERMINATED NORMALLY****
TOTAL RUN TIME: 0 days 0 hours 0 minutes 34 seconds 300 msec
