                         Program Version 4.2.1 -  RELEASE  -
|  1> ! wB97X-D3 SP def2-SVP
|  2> %pal
|  3> nprocs 16
|  4> end
|  5>
|  6> * xyz 0 1
|  7> S 	 -31.0401 	 66.6512 	 108.154
|  8> C 	 -31.4797 	 67.4512 	 106.666
|  9> C 	 -30.5221 	 67.1323 	 105.679
| 10> C 	 -29.5379 	 66.2484 	 106.145
| 11> C 	 -29.6314 	 65.8526 	 107.5
| 12> H 	 -28.6461 	 65.8451 	 105.674
| 13> C 	 -30.7398 	 67.4586 	 104.261
| 14> H 	 -29.6482 	 67.5767 	 103.911
| 15> H 	 -31.0569 	 68.5433 	 104.166
| 16> C 	 -31.4547 	 66.4572 	 103.45
| 17> H 	 -31.2686 	 66.5995 	 102.42
| 18> H 	 -30.978 	 65.4773 	 103.707
| 19> C 	 -32.9289 	 66.3499 	 103.766
| 20> H 	 -32.954 	 65.909 	 104.803
| 21> H 	 -33.5032 	 67.2342 	 103.717
| 22> H 	 -33.3781 	 65.5791 	 103.085
| 23> S 	 -27.5431 	 65.9123 	 109.31
| 24> C 	 -26.8315 	 64.5034 	 109.722
| 25> C 	 -27.183 	 63.3892 	 109.023
| 26> C 	 -28.0857 	 63.7576 	 107.948
| 27> C 	 -28.5718 	 65.0688 	 108.2
| 28> H 	 -26.721 	 62.4615 	 109.187
| 29> C 	 -28.6012 	 62.7049 	 106.973
| 30> H 	 -28.8462 	 63.2299 	 106.113
| 31> H 	 -29.5565 	 62.2905 	 107.373
| 32> C 	 -27.6156 	 61.5957 	 106.503
| 33> H 	 -28.2012 	 60.861 	 105.92
| 34> H 	 -27.2766 	 61.0682 	 107.414
| 35> C 	 -26.3242 	 61.9727 	 105.706
| 36> H 	 -26.6208 	 62.6511 	 104.913
| 37> H 	 -25.7305 	 61.1282 	 105.353
| 38> H 	 -25.605 	 62.5115 	 106.375
| 39> H 	 -32.4774 	 67.8265 	 106.534
| 40> H 	 -26.1676 	 64.3959 	 110.536
| 41> *
| 42>
| 43>                          ****END OF INPUT****

CARTESIAN COORDINATES (ANGSTROEM)
---------------------------------
  S    -31.040100   66.651200  108.154000
  C    -31.479700   67.451200  106.666000
  C    -30.522100   67.132300  105.679000
  C    -29.537900   66.248400  106.145000
  C    -29.631400   65.852600  107.500000
  H    -28.646100   65.845100  105.674000
  C    -30.739800   67.458600  104.261000
  H    -29.648200   67.576700  103.911000
  H    -31.056900   68.543300  104.166000
  C    -31.454700   66.457200  103.450000
  H    -31.268600   66.599500  102.420000
  H    -30.978000   65.477300  103.707000
  C    -32.928900   66.349900  103.766000
  H    -32.954000   65.909000  104.803000
  H    -33.503200   67.234200  103.717000
  H    -33.378100   65.579100  103.085000
  S    -27.543100   65.912300  109.310000
  C    -26.831500   64.503400  109.722000
  C    -27.183000   63.389200  109.023000
  C    -28.085700   63.757600  107.948000
  C    -28.571800   65.068800  108.200000
  H    -26.721000   62.461500  109.187000
  C    -28.601200   62.704900  106.973000
  H    -28.846200   63.229900  106.113000
  H    -29.556500   62.290500  107.373000
  C    -27.615600   61.595700  106.503000
  H    -28.201200   60.861000  105.920000
  H    -27.276600   61.068200  107.414000
  C    -26.324200   61.972700  105.706000
  H    -26.620800   62.651100  104.913000
  H    -25.730500   61.128200  105.353000
  H    -25.605000   62.511500  106.375000
  H    -32.477400   67.826500  106.534000
  H    -26.167600   64.395900  110.536000

 Total Charge           Charge          ....    0
 Multiplicity           Mult            ....    1
 Number of Electrons    NEL             ....  134
 Basis Dimension        Dim             ....  322

ORBITAL ENERGIES
----------------

  NO   OCC          E(Eh)            E(eV)
   0   2.0000     -88.965943     -2420.8864
   1   2.0000     -88.965908     -2420.8854
   2   2.0000     -10.330807      -281.1155
   3   2.0000     -10.328105      -281.0420
   4   2.0000     -10.315284      -280.6932
   5   2.0000     -10.309795      -280.5438
   6   2.0000     -10.301012      -280.3048
   7   2.0000     -10.299904      -280.2746
   8   2.0000     -10.295584      -280.1571
   9   2.0000     -10.292605      -280.0760
  10   2.0000     -10.292195      -280.0649
  11   2.0000     -10.291353      -280.0420
  12   2.0000     -10.285475      -279.8820
  13   2.0000     -10.284511      -279.8558
  14   2.0000     -10.282024      -279.7881
  15   2.0000     -10.278013      -279.6790
  16   2.0000      -8.083534      -219.9641
  17   2.0000      -8.080341      -219.8772
  18   2.0000      -6.041681      -164.4025
  19   2.0000      -6.038720      -164.3219
  20   2.0000      -6.037696      -164.2941
  21   2.0000      -6.034501      -164.2071
  22   2.0000      -6.034445      -164.2056
  23   2.0000      -6.031643      -164.1294
  24   2.0000      -1.012938       -27.5635
  25   2.0000      -0.990243       -26.9459
  26   2.0000      -0.921367       -25.0717
  27   2.0000      -0.907353       -24.6903
  28   2.0000      -0.866164       -23.5695
  29   2.0000      -0.850794       -23.1513
  30   2.0000      -0.847767       -23.0689
  31   2.0000      -0.812886       -22.1198
  32   2.0000      -0.787020       -21.4159
  33   2.0000      -0.774619       -21.0784
  34   2.0000      -0.708072       -19.2676
  35   2.0000      -0.697828       -18.9889
  36   2.0000      -0.691990       -18.8300
  37   2.0000      -0.652623       -17.7588
  38   2.0000      -0.642848       -17.4928
  39   2.0000      -0.617799       -16.8112
  40   2.0000      -0.600965       -16.3531
  41   2.0000      -0.579155       -15.7596
  42   2.0000      -0.554583       -15.0910
  43   2.0000      -0.551459       -15.0060
  44   2.0000      -0.536043       -14.5865
  45   2.0000      -0.532227       -14.4826
  46   2.0000      -0.529100       -14.3975
  47   2.0000      -0.514564       -14.0020
  48   2.0000      -0.500340       -13.6149
  49   2.0000      -0.499800       -13.6003
  50   2.0000      -0.488336       -13.2883
  51   2.0000      -0.481958       -13.1148
  52   2.0000      -0.471867       -12.8402
  53   2.0000      -0.466110       -12.6835
  54   2.0000      -0.464481       -12.6392
  55   2.0000      -0.453060       -12.3284
  56   2.0000      -0.443768       -12.0756
  57   2.0000      -0.439152       -11.9499
  58   2.0000      -0.432173       -11.7600
  59   2.0000      -0.421841       -11.4789
  60   2.0000      -0.419073       -11.4036
  61   2.0000      -0.414135       -11.2692
  62   2.0000      -0.400166       -10.8891
  63   2.0000      -0.337776        -9.1913
  64   2.0000      -0.330581        -8.9956
  65   2.0000      -0.327073        -8.9001
  66   2.0000      -0.296257        -8.0616
  67   0.0000       0.034443         0.9373
  68   0.0000       0.062030         1.6879
  69   0.0000       0.113306         3.0832
  70   0.0000       0.124973         3.4007
  71   0.0000       0.129754         3.5308

MULLIKEN ATOMIC CHARGES
-----------------------
   0 S :    0.109053
   1 C :   -0.124704
   2 C :   -0.083367
   3 C :    0.028397
   4 C :   -0.182051
   5 H :    0.013735
   6 C :    0.005691
   7 H :    0.027755
   8 H :    0.035032
   9 C :   -0.009352
  10 H :    0.021943
  11 H :    0.024457
  12 C :   -0.065795
  13 H :    0.047385
  14 H :    0.028012
  15 H :    0.039011
  16 S :    0.151705
  17 C :   -0.055464
  18 C :   -0.027802
  19 C :   -0.060632
  20 C :   -0.189352
  21 H :   -0.001629
  22 C :    0.109896
  23 H :   -0.006364
  24 H :    0.058019
  25 C :   -0.112748
  26 H :    0.037293
  27 H :    0.029070
  28 C :   -0.056368
  29 H :    0.033361
  30 H :    0.044175
  31 H :    0.037178
  32 H :    0.061685
  33 H :    0.032775
Sum of atomic charges:   -0.0000000

LOEWDIN ATOMIC CHARGES
----------------------
   0 S :    0.418330
   1 C :   -0.199412
   2 C :   -0.072395
   3 C :   -0.067594
   4 C :   -0.210131
   5 H :    0.030995
   6 C :   -0.049441
   7 H :    0.039589
   8 H :    0.034807
   9 C :   -0.041898
  10 H :    0.018440
  11 H :    0.033463
  12 C :   -0.067132
  13 H :    0.035072
  14 H :    0.015130
  15 H :    0.032869
  16 S :    0.470458
  17 C :   -0.213228
  18 C :   -0.071283
  19 C :   -0.042457
  20 C :   -0.216874
  21 H :    0.022128
  22 C :   -0.030810
  23 H :    0.017091
  24 H :    0.047416
  25 C :   -0.043539
  26 H :    0.028602
  27 H :    0.020187
  28 C :   -0.068965
  29 H :    0.023003
  30 H :    0.030220
  31 H :    0.030138
  32 H :    0.027572
  33 H :    0.019651

  Mayer bond orders larger than 0.100000
B(  0-S ,  1-C ) :   1.1703 B(  0-S ,  4-C ) :   1.1768 B(  1-C ,  2-C ) :   1.5277
B(  1-C ,  4-C ) :   0.1138 B(  1-C , 32-H ) :   0.9713 B(  2-C ,  3-C ) :   1.2896
B(  2-C ,  6-C ) :   1.0346 B(  3-C ,  4-C ) :   1.5251 B(  3-C ,  5-H ) :   0.9910
B(  4-C , 20-C ) :   1.0243 B(  6-C ,  7-H ) :   0.9307 B(  6-C ,  8-H ) :   0.9392
B(  6-C ,  9-C ) :   1.0730 B(  9-C , 10-H ) :   0.9516 B(  9-C , 11-H ) :   0.9465
B(  9-C , 12-C ) :   1.0811 B( 12-C , 13-H ) :   0.9706 B( 12-C , 14-H ) :   0.9768
B( 12-C , 15-H ) :   0.9706 B( 16-S , 17-C ) :   1.1926 B( 16-S , 20-C ) :   1.1677
B( 17-C , 18-C ) :   1.6062 B( 17-C , 33-H ) :   0.9621 B( 18-C , 19-C ) :   1.2367
B( 18-C , 21-H ) :   0.9952 B( 19-C , 20-C ) :   1.5731 B( 19-C , 22-C ) :   1.0361
B( 22-C , 23-H ) :   0.9234 B( 22-C , 24-H ) :   0.9348 B( 22-C , 25-C ) :   1.0715
B( 25-C , 26-H ) :   0.9566 B( 25-C , 27-H ) :   0.9552 B( 25-C , 28-C ) :   1.0692
B( 28-C , 29-H ) :   0.9769 B( 28-C , 30-H ) :   0.9749 B( 28-C , 31-H ) :   0.9738

Dispersion correction           -0.014654595
FINAL SINGLE POINT ENERGY     -1339.857674425653

DIPOLE MOMENT
-------------
                                X             Y             Z
Electronic contribution:      1.78522      12.80884      23.44697
Nuclear contribution   :     -1.67144     -13.22090     -23.93678
                        -----------------------------------------
Total Dipole Moment    :      0.11378      -0.41206      -0.48981
                        -----------------------------------------
Magnitude (a.u.)       :      0.65012
Magnitude (Debye)      :      1.65248

Rotational constants in cm-1:     0.019210     0.008607     0.006602
Rotational constants in MHz :   575.908968   258.042367   197.922933

                             ****ORCA TERMINATED NORMALLY****
TOTAL RUN TIME: 0 days 0 hours 0 minutes 27 seconds 324 msec
