                         Program Version 4.2.1 -  RELEASE  -
|  1> ! wB97X-D3 SP def2-SVP
|  2> %pal
|  3> nprocs 16
|  4> end
|  5>
|  6> * xyz 0 1
|  7> S 	 -72.057 	 35.9081 	 124.209
|  8> C 	 -70.5702 	 35.1521 	 123.617
|  9> C 	 -69.7222 	 36.1222 	 123.115
| 10> C 	 -70.231 	 37.4573 	 123.248
| 11> C 	 -71.4801 	 37.4915 	 123.878
| 12> H 	 -69.7137 	 38.3823 	 122.997
| 13> C 	 -68.3809 	 35.8777 	 122.422
| 14> H 	 -68.3735 	 36.3278 	 121.414
| 15> H 	 -68.4022 	 34.7645 	 122.309
| 16> C 	 -67.0648 	 36.2749 	 123.085
| 17> H 	 -66.2338 	 35.8243 	 122.65
| 18> H 	 -66.8139 	 37.3493 	 122.996
| 19> C 	 -67.1864 	 36.0912 	 124.661
| 20> H 	 -67.7092 	 35.2196 	 124.971
| 21> H 	 -66.1766 	 36.015 	 125.123
| 22> H 	 -67.6956 	 37.009 	 125.09
| 23> S 	 -73.2279 	 38.6534 	 125.636
| 24> C 	 -73.715 	 40.3096 	 125.521
| 25> C 	 -73.147 	 40.8472 	 124.393
| 26> C 	 -72.4185 	 39.9366 	 123.533
| 27> C 	 -72.228 	 38.7105 	 124.245
| 28> H 	 -73.4155 	 41.8893 	 124.177
| 29> C 	 -71.8888 	 40.3338 	 122.171
| 30> H 	 -72.7213 	 40.7035 	 121.621
| 31> H 	 -71.4579 	 39.482 	 121.619
| 32> C 	 -70.7406 	 41.3773 	 122.135
| 33> H 	 -69.9272 	 41.0609 	 122.779
| 34> H 	 -71.1237 	 42.2528 	 122.612
| 35> C 	 -70.2739 	 41.7155 	 120.799
| 36> H 	 -69.7888 	 42.7249 	 120.716
| 37> H 	 -71.1112 	 41.8379 	 120.132
| 38> H 	 -69.5757 	 40.9085 	 120.469
| 39> H 	 -70.2779 	 34.1229 	 123.509
| 40> H 	 -74.4427 	 40.7749 	 126.203
| 41> *
| 42>
| 43>                          ****END OF INPUT****

CARTESIAN COORDINATES (ANGSTROEM)
---------------------------------
  S    -72.057000   35.908100  124.209000
  C    -70.570200   35.152100  123.617000
  C    -69.722200   36.122200  123.115000
  C    -70.231000   37.457300  123.248000
  C    -71.480100   37.491500  123.878000
  H    -69.713700   38.382300  122.997000
  C    -68.380900   35.877700  122.422000
  H    -68.373500   36.327800  121.414000
  H    -68.402200   34.764500  122.309000
  C    -67.064800   36.274900  123.085000
  H    -66.233800   35.824300  122.650000
  H    -66.813900   37.349300  122.996000
  C    -67.186400   36.091200  124.661000
  H    -67.709200   35.219600  124.971000
  H    -66.176600   36.015000  125.123000
  H    -67.695600   37.009000  125.090000
  S    -73.227900   38.653400  125.636000
  C    -73.715000   40.309600  125.521000
  C    -73.147000   40.847200  124.393000
  C    -72.418500   39.936600  123.533000
  C    -72.228000   38.710500  124.245000
  H    -73.415500   41.889300  124.177000
  C    -71.888800   40.333800  122.171000
  H    -72.721300   40.703500  121.621000
  H    -71.457900   39.482000  121.619000
  C    -70.740600   41.377300  122.135000
  H    -69.927200   41.060900  122.779000
  H    -71.123700   42.252800  122.612000
  C    -70.273900   41.715500  120.799000
  H    -69.788800   42.724900  120.716000
  H    -71.111200   41.837900  120.132000
  H    -69.575700   40.908500  120.469000
  H    -70.277900   34.122900  123.509000
  H    -74.442700   40.774900  126.203000

 Total Charge           Charge          ....    0
 Multiplicity           Mult            ....    1
 Number of Electrons    NEL             ....  134
 Basis Dimension        Dim             ....  322

ORBITAL ENERGIES
----------------

  NO   OCC          E(Eh)            E(eV)
   0   2.0000     -88.970851     -2421.0199
   1   2.0000     -88.964616     -2420.8503
   2   2.0000     -10.332699      -281.1670
   3   2.0000     -10.332285      -281.1558
   4   2.0000     -10.318158      -280.7713
   5   2.0000     -10.315790      -280.7069
   6   2.0000     -10.312107      -280.6067
   7   2.0000     -10.302868      -280.3553
   8   2.0000     -10.297358      -280.2054
   9   2.0000     -10.296803      -280.1902
  10   2.0000     -10.294382      -280.1244
  11   2.0000     -10.292751      -280.0800
  12   2.0000     -10.286610      -279.9129
  13   2.0000     -10.280208      -279.7387
  14   2.0000     -10.279051      -279.7072
  15   2.0000     -10.278137      -279.6823
  16   2.0000      -8.085408      -220.0151
  17   2.0000      -8.080445      -219.8801
  18   2.0000      -6.044084      -164.4679
  19   2.0000      -6.039857      -164.3529
  20   2.0000      -6.038837      -164.3251
  21   2.0000      -6.036074      -164.2499
  22   2.0000      -6.034665      -164.2116
  23   2.0000      -6.031394      -164.1226
  24   2.0000      -1.009470       -27.4691
  25   2.0000      -0.986431       -26.8421
  26   2.0000      -0.918441       -24.9921
  27   2.0000      -0.908212       -24.7137
  28   2.0000      -0.867025       -23.5929
  29   2.0000      -0.856992       -23.3199
  30   2.0000      -0.840307       -22.8659
  31   2.0000      -0.814556       -22.1652
  32   2.0000      -0.780544       -21.2397
  33   2.0000      -0.773064       -21.0361
  34   2.0000      -0.708441       -19.2777
  35   2.0000      -0.700454       -19.0603
  36   2.0000      -0.696194       -18.9444
  37   2.0000      -0.657551       -17.8929
  38   2.0000      -0.632283       -17.2053
  39   2.0000      -0.620526       -16.8854
  40   2.0000      -0.599367       -16.3096
  41   2.0000      -0.576122       -15.6771
  42   2.0000      -0.562606       -15.3093
  43   2.0000      -0.547869       -14.9083
  44   2.0000      -0.544240       -14.8095
  45   2.0000      -0.526144       -14.3171
  46   2.0000      -0.521394       -14.1878
  47   2.0000      -0.514971       -14.0131
  48   2.0000      -0.506196       -13.7743
  49   2.0000      -0.501712       -13.6523
  50   2.0000      -0.488993       -13.3062
  51   2.0000      -0.482425       -13.1275
  52   2.0000      -0.468145       -12.7389
  53   2.0000      -0.464224       -12.6322
  54   2.0000      -0.457747       -12.4559
  55   2.0000      -0.453928       -12.3520
  56   2.0000      -0.450207       -12.2507
  57   2.0000      -0.436407       -11.8752
  58   2.0000      -0.430964       -11.7271
  59   2.0000      -0.422050       -11.4846
  60   2.0000      -0.417415       -11.3584
  61   2.0000      -0.411867       -11.2075
  62   2.0000      -0.409476       -11.1424
  63   2.0000      -0.354784        -9.6542
  64   2.0000      -0.332288        -9.0420
  65   2.0000      -0.328504        -8.9391
  66   2.0000      -0.288985        -7.8637
  67   0.0000       0.024224         0.6592
  68   0.0000       0.083173         2.2632
  69   0.0000       0.106018         2.8849
  70   0.0000       0.121325         3.3014
  71   0.0000       0.122672         3.3381

MULLIKEN ATOMIC CHARGES
-----------------------
   0 S :    0.120375
   1 C :   -0.098350
   2 C :   -0.120021
   3 C :    0.014750
   4 C :   -0.122479
   5 H :    0.009961
   6 C :    0.057098
   7 H :    0.041009
   8 H :    0.019052
   9 C :   -0.048192
  10 H :    0.021710
  11 H :    0.024204
  12 C :   -0.078041
  13 H :    0.026612
  14 H :    0.034408
  15 H :    0.050324
  16 S :    0.102107
  17 C :   -0.104281
  18 C :   -0.043692
  19 C :   -0.034507
  20 C :   -0.149254
  21 H :    0.025054
  22 C :    0.060925
  23 H :    0.023315
  24 H :    0.022168
  25 C :   -0.064857
  26 H :    0.026573
  27 H :    0.009052
  28 C :   -0.038435
  29 H :    0.040530
  30 H :    0.021017
  31 H :    0.040599
  32 H :    0.037986
  33 H :    0.073280
Sum of atomic charges:   -0.0000000

LOEWDIN ATOMIC CHARGES
----------------------
   0 S :    0.417010
   1 C :   -0.200286
   2 C :   -0.060107
   3 C :   -0.069587
   4 C :   -0.196574
   5 H :    0.030703
   6 C :   -0.035385
   7 H :    0.035331
   8 H :    0.031836
   9 C :   -0.039039
  10 H :    0.016096
  11 H :    0.025568
  12 C :   -0.069683
  13 H :    0.015212
  14 H :    0.026329
  15 H :    0.036272
  16 S :    0.426666
  17 C :   -0.200070
  18 C :   -0.075373
  19 C :   -0.053316
  20 C :   -0.207074
  21 H :    0.031957
  22 C :   -0.029649
  23 H :    0.028972
  24 H :    0.030863
  25 C :   -0.045616
  26 H :    0.022223
  27 H :    0.016975
  28 C :   -0.068725
  29 H :    0.035542
  30 H :    0.023173
  31 H :    0.031086
  32 H :    0.029851
  33 H :    0.038817

  Mayer bond orders larger than 0.100000
B(  0-S ,  1-C ) :   1.1177 B(  0-S ,  4-C ) :   1.1654 B(  1-C ,  2-C ) :   1.6275
B(  1-C , 32-H ) :   0.9605 B(  2-C ,  3-C ) :   1.2371 B(  2-C ,  6-C ) :   1.0265
B(  3-C ,  4-C ) :   1.5515 B(  3-C ,  5-H ) :   0.9962 B(  4-C , 20-C ) :   1.0545
B(  6-C ,  7-H ) :   0.9425 B(  6-C ,  8-H ) :   0.9376 B(  6-C ,  9-C ) :   1.0691
B(  9-C , 10-H ) :   0.9619 B(  9-C , 11-H ) :   0.9553 B(  9-C , 12-C ) :   1.0696
B( 12-C , 13-H ) :   0.9814 B( 12-C , 14-H ) :   0.9763 B( 12-C , 15-H ) :   0.9717
B( 16-S , 17-C ) :   1.1559 B( 16-S , 20-C ) :   1.1709 B( 17-C , 18-C ) :   1.5973
B( 17-C , 33-H ) :   0.9687 B( 18-C , 19-C ) :   1.2481 B( 18-C , 21-H ) :   0.9846
B( 19-C , 20-C ) :   1.5266 B( 19-C , 22-C ) :   1.0600 B( 22-C , 23-H ) :   0.9221
B( 22-C , 24-H ) :   0.9356 B( 22-C , 25-C ) :   1.0646 B( 25-C , 26-H ) :   0.9533
B( 25-C , 27-H ) :   0.9464 B( 25-C , 28-C ) :   1.0976 B( 28-C , 29-H ) :   0.9693
B( 28-C , 30-H ) :   0.9675 B( 28-C , 31-H ) :   0.9724

Dispersion correction           -0.014394495
FINAL SINGLE POINT ENERGY     -1339.879697443084

DIPOLE MOMENT
-------------
                                X             Y             Z
Electronic contribution:    -22.89920      -9.13280      14.14646
Nuclear contribution   :     23.22942       9.55256     -14.56324
                        -----------------------------------------
Total Dipole Moment    :      0.33022       0.41976      -0.41678
                        -----------------------------------------
Magnitude (a.u.)       :      0.67746
Magnitude (Debye)      :      1.72196

Rotational constants in cm-1:     0.016533     0.009621     0.006919
Rotational constants in MHz :   495.656366   288.423836   207.419769

                             ****ORCA TERMINATED NORMALLY****
TOTAL RUN TIME: 0 days 0 hours 0 minutes 33 seconds 794 msec
