                         Program Version 4.2.1 -  RELEASE  -
|  1> ! wB97X-D3 SP def2-SVP
|  2> %pal
|  3> nprocs 16
|  4> end
|  5>
|  6> * xyz 0 1
|  7> S 	 -101.281 	 43.6829 	 120.416
|  8> C 	 -99.9402 	 42.6081 	 120.108
|  9> C 	 -98.8938 	 42.9469 	 120.977
| 10> C 	 -99.2147 	 43.9853 	 121.95
| 11> C 	 -100.416 	 44.6216 	 121.708
| 12> H 	 -98.4153 	 44.3802 	 122.682
| 13> C 	 -97.5491 	 42.1654 	 120.856
| 14> H 	 -96.8699 	 42.7121 	 121.602
| 15> H 	 -97.2455 	 42.2848 	 119.844
| 16> C 	 -97.7021 	 40.6456 	 121.301
| 17> H 	 -97.9577 	 40.4684 	 122.333
| 18> H 	 -98.5061 	 40.1798 	 120.672
| 19> C 	 -96.2816 	 39.9615 	 121.267
| 20> H 	 -96.4355 	 38.9139 	 121.512
| 21> H 	 -95.8979 	 40.0178 	 120.262
| 22> H 	 -95.5856 	 40.3822 	 121.991
| 23> S 	 -101.315 	 47.1628 	 122.11
| 24> C 	 -102.146 	 47.6354 	 123.586
| 25> C 	 -102.223 	 46.5651 	 124.474
| 26> C 	 -101.713 	 45.3578 	 123.827
| 27> C 	 -101.101 	 45.539 	 122.573
| 28> H 	 -102.671 	 46.704 	 125.432
| 29> C 	 -101.633 	 43.964 	 124.513
| 30> H 	 -101.315 	 43.2362 	 123.817
| 31> H 	 -102.651 	 43.6753 	 124.695
| 32> C 	 -100.888 	 43.8961 	 125.782
| 33> H 	 -101.405 	 44.4405 	 126.602
| 34> H 	 -99.9322 	 44.3816 	 125.744
| 35> C 	 -100.627 	 42.4615 	 126.288
| 36> H 	 -99.8375 	 42.0993 	 125.642
| 37> H 	 -101.429 	 41.704 	 126.14
| 38> H 	 -100.225 	 42.4133 	 127.334
| 39> H 	 -99.9186 	 41.7804 	 119.398
| 40> H 	 -102.521 	 48.6305 	 123.653
| 41> *
| 42>
| 43>                          ****END OF INPUT****

CARTESIAN COORDINATES (ANGSTROEM)
---------------------------------
  S    -101.281000   43.682900  120.416000
  C    -99.940200   42.608100  120.108000
  C    -98.893800   42.946900  120.977000
  C    -99.214700   43.985300  121.950000
  C    -100.416000   44.621600  121.708000
  H    -98.415300   44.380200  122.682000
  C    -97.549100   42.165400  120.856000
  H    -96.869900   42.712100  121.602000
  H    -97.245500   42.284800  119.844000
  C    -97.702100   40.645600  121.301000
  H    -97.957700   40.468400  122.333000
  H    -98.506100   40.179800  120.672000
  C    -96.281600   39.961500  121.267000
  H    -96.435500   38.913900  121.512000
  H    -95.897900   40.017800  120.262000
  H    -95.585600   40.382200  121.991000
  S    -101.315000   47.162800  122.110000
  C    -102.146000   47.635400  123.586000
  C    -102.223000   46.565100  124.474000
  C    -101.713000   45.357800  123.827000
  C    -101.101000   45.539000  122.573000
  H    -102.671000   46.704000  125.432000
  C    -101.633000   43.964000  124.513000
  H    -101.315000   43.236200  123.817000
  H    -102.651000   43.675300  124.695000
  C    -100.888000   43.896100  125.782000
  H    -101.405000   44.440500  126.602000
  H    -99.932200   44.381600  125.744000
  C    -100.627000   42.461500  126.288000
  H    -99.837500   42.099300  125.642000
  H    -101.429000   41.704000  126.140000
  H    -100.225000   42.413300  127.334000
  H    -99.918600   41.780400  119.398000
  H    -102.521000   48.630500  123.653000

 Total Charge           Charge          ....    0
 Multiplicity           Mult            ....    1
 Number of Electrons    NEL             ....  134
 Basis Dimension        Dim             ....  322

ORBITAL ENERGIES
----------------

  NO   OCC          E(Eh)            E(eV)
   0   2.0000     -88.964855     -2420.8568
   1   2.0000     -88.960494     -2420.7381
   2   2.0000     -10.334609      -281.2190
   3   2.0000     -10.322435      -280.8877
   4   2.0000     -10.320748      -280.8418
   5   2.0000     -10.319940      -280.8198
   6   2.0000     -10.310072      -280.5513
   7   2.0000     -10.309556      -280.5373
   8   2.0000     -10.305774      -280.4344
   9   2.0000     -10.302608      -280.3482
  10   2.0000     -10.301975      -280.3310
  11   2.0000     -10.297208      -280.2013
  12   2.0000     -10.280397      -279.7438
  13   2.0000     -10.280087      -279.7354
  14   2.0000     -10.279899      -279.7303
  15   2.0000     -10.278928      -279.7039
  16   2.0000      -8.078544      -219.8284
  17   2.0000      -8.076311      -219.7676
  18   2.0000      -6.037159      -164.2794
  19   2.0000      -6.034604      -164.2099
  20   2.0000      -6.033027      -164.1670
  21   2.0000      -6.030480      -164.0977
  22   2.0000      -6.029378      -164.0677
  23   2.0000      -6.027410      -164.0142
  24   2.0000      -1.003795       -27.3146
  25   2.0000      -0.978314       -26.6213
  26   2.0000      -0.910223       -24.7684
  27   2.0000      -0.900436       -24.5021
  28   2.0000      -0.871939       -23.7267
  29   2.0000      -0.843204       -22.9448
  30   2.0000      -0.840701       -22.8766
  31   2.0000      -0.818230       -22.2652
  32   2.0000      -0.777454       -21.1556
  33   2.0000      -0.763003       -20.7624
  34   2.0000      -0.703819       -19.1519
  35   2.0000      -0.701035       -19.0761
  36   2.0000      -0.698077       -18.9956
  37   2.0000      -0.660775       -17.9806
  38   2.0000      -0.637419       -17.3450
  39   2.0000      -0.615849       -16.7581
  40   2.0000      -0.595659       -16.2087
  41   2.0000      -0.567462       -15.4414
  42   2.0000      -0.561929       -15.2909
  43   2.0000      -0.558763       -15.2047
  44   2.0000      -0.530027       -14.4228
  45   2.0000      -0.525497       -14.2995
  46   2.0000      -0.518279       -14.1031
  47   2.0000      -0.515293       -14.0218
  48   2.0000      -0.504365       -13.7245
  49   2.0000      -0.498168       -13.5558
  50   2.0000      -0.492868       -13.4116
  51   2.0000      -0.474612       -12.9149
  52   2.0000      -0.469320       -12.7709
  53   2.0000      -0.463944       -12.6245
  54   2.0000      -0.460846       -12.5403
  55   2.0000      -0.449352       -12.2275
  56   2.0000      -0.445561       -12.1243
  57   2.0000      -0.440682       -11.9916
  58   2.0000      -0.437994       -11.9184
  59   2.0000      -0.419806       -11.4235
  60   2.0000      -0.410725       -11.1764
  61   2.0000      -0.404841       -11.0163
  62   2.0000      -0.402809       -10.9610
  63   2.0000      -0.337991        -9.1972
  64   2.0000      -0.332439        -9.0461
  65   2.0000      -0.320711        -8.7270
  66   2.0000      -0.305139        -8.3033
  67   0.0000       0.037828         1.0293
  68   0.0000       0.051911         1.4126
  69   0.0000       0.113073         3.0769
  70   0.0000       0.120781         3.2866
  71   0.0000       0.126783         3.4499

MULLIKEN ATOMIC CHARGES
-----------------------
   0 S :    0.102855
   1 C :   -0.122543
   2 C :   -0.117833
   3 C :    0.021031
   4 C :   -0.148643
   5 H :    0.054526
   6 C :    0.040963
   7 H :    0.032778
   8 H :    0.041938
   9 C :   -0.097601
  10 H :    0.032381
  11 H :    0.037366
  12 C :   -0.046369
  13 H :    0.033787
  14 H :    0.027966
  15 H :    0.041383
  16 S :    0.103156
  17 C :   -0.101817
  18 C :   -0.007672
  19 C :   -0.053078
  20 C :   -0.166252
  21 H :    0.022069
  22 C :    0.116818
  23 H :    0.013192
  24 H :    0.014842
  25 C :   -0.065453
  26 H :    0.023207
  27 H :    0.020393
  28 C :   -0.075025
  29 H :    0.022911
  30 H :    0.035012
  31 H :    0.043481
  32 H :    0.061662
  33 H :    0.058569
Sum of atomic charges:   -0.0000000

LOEWDIN ATOMIC CHARGES
----------------------
   0 S :    0.385275
   1 C :   -0.198791
   2 C :   -0.070875
   3 C :   -0.063470
   4 C :   -0.187560
   5 H :    0.049739
   6 C :   -0.030673
   7 H :    0.035483
   8 H :    0.027925
   9 C :   -0.038010
  10 H :    0.024028
  11 H :    0.025219
  12 C :   -0.064037
  13 H :    0.025658
  14 H :    0.019666
  15 H :    0.026933
  16 S :    0.425660
  17 C :   -0.171913
  18 C :   -0.068197
  19 C :   -0.040025
  20 C :   -0.233424
  21 H :    0.031960
  22 C :   -0.030098
  23 H :    0.024429
  24 H :    0.030852
  25 C :   -0.044224
  26 H :    0.022288
  27 H :    0.021092
  28 C :   -0.072143
  29 H :    0.022409
  30 H :    0.026580
  31 H :    0.031864
  32 H :    0.033021
  33 H :    0.023357

  Mayer bond orders larger than 0.100000
B(  0-S ,  1-C ) :   1.1476 B(  0-S ,  4-C ) :   1.1327 B(  1-C ,  2-C ) :   1.5908
B(  1-C ,  4-C ) :   0.1014 B(  1-C , 32-H ) :   0.9695 B(  2-C ,  3-C ) :   1.2588
B(  2-C ,  6-C ) :   1.0064 B(  3-C ,  4-C ) :   1.5839 B(  3-C ,  5-H ) :   0.9736
B(  4-C , 20-C ) :   1.0256 B(  6-C ,  7-H ) :   0.9486 B(  6-C ,  8-H ) :   0.9479
B(  6-C ,  9-C ) :   1.0546 B(  9-C , 10-H ) :   0.9620 B(  9-C , 11-H ) :   0.9599
B(  9-C , 12-C ) :   1.0692 B( 12-C , 13-H ) :   0.9761 B( 12-C , 14-H ) :   0.9780
B( 12-C , 15-H ) :   0.9772 B( 16-S , 17-C ) :   1.1870 B( 16-S , 20-C ) :   1.1491
B( 17-C , 18-C ) :   1.5634 B( 17-C , 33-H ) :   0.9749 B( 18-C , 19-C ) :   1.2418
B( 18-C , 21-H ) :   1.0021 B( 19-C , 20-C ) :   1.5742 B( 19-C , 22-C ) :   1.0411
B( 22-C , 23-H ) :   0.9379 B( 22-C , 24-H ) :   0.9170 B( 22-C , 25-C ) :   1.0701
B( 25-C , 26-H ) :   0.9497 B( 25-C , 27-H ) :   0.9571 B( 25-C , 28-C ) :   1.0761
B( 28-C , 29-H ) :   0.9764 B( 28-C , 30-H ) :   0.9760 B( 28-C , 31-H ) :   0.9741

Dispersion correction           -0.014176031
FINAL SINGLE POINT ENERGY     -1339.866785546375

DIPOLE MOMENT
-------------
                                X             Y             Z
Electronic contribution:    -15.33257      23.38443     -14.08852
Nuclear contribution   :     15.66611     -23.80858      14.49885
                        -----------------------------------------
Total Dipole Moment    :      0.33354      -0.42414       0.41033
                        -----------------------------------------
Magnitude (a.u.)       :      0.67788
Magnitude (Debye)      :      1.72303

Rotational constants in cm-1:     0.019115     0.008204     0.006430
Rotational constants in MHz :   573.049818   245.936930   192.773832

                             ****ORCA TERMINATED NORMALLY****
TOTAL RUN TIME: 0 days 0 hours 0 minutes 33 seconds 338 msec
