                         Program Version 4.2.1 -  RELEASE  -
|  1> ! wB97X-D3 SP def2-SVP
|  2> %pal
|  3> nprocs 16
|  4> end
|  5>
|  6> * xyz 0 1
|  7> S 	 -30.9152 	 61.2572 	 112.499
|  8> C 	 -29.5433 	 61.5104 	 111.394
|  9> C 	 -29.9144 	 61.8725 	 110.139
| 10> C 	 -31.3585 	 61.8614 	 110.046
| 11> C 	 -32.0716 	 61.4218 	 111.173
| 12> H 	 -31.9054 	 62.1689 	 109.199
| 13> C 	 -28.935 	 62.208 	 109.007
| 14> H 	 -29.3985 	 61.8225 	 108.072
| 15> H 	 -28.06 	 61.5316 	 109.082
| 16> C 	 -28.4826 	 63.6753 	 108.787
| 17> H 	 -27.584 	 63.8642 	 109.424
| 18> H 	 -27.9851 	 63.6744 	 107.866
| 19> C 	 -29.5858 	 64.7454 	 108.763
| 20> H 	 -30.3727 	 64.5547 	 107.994
| 21> H 	 -30.1513 	 64.725 	 109.681
| 22> H 	 -29.2223 	 65.7055 	 108.677
| 23> S 	 -34.3359 	 62.798 	 112.039
| 24> C 	 -35.8468 	 62.1639 	 111.454
| 25> C 	 -35.7023 	 61.0693 	 110.635
| 26> C 	 -34.338 	 60.6957 	 110.454
| 27> C 	 -33.5081 	 61.4127 	 111.269
| 28> H 	 -36.4694 	 60.5409 	 110.195
| 29> C 	 -33.8502 	 59.5917 	 109.585
| 30> H 	 -32.8335 	 59.8881 	 109.139
| 31> H 	 -34.411 	 59.4934 	 108.707
| 32> C 	 -33.561 	 58.3014 	 110.392
| 33> H 	 -34.5374 	 57.7813 	 110.578
| 34> H 	 -33.1797 	 58.5822 	 111.382
| 35> C 	 -32.5938 	 57.3533 	 109.655
| 36> H 	 -31.5537 	 57.6822 	 109.632
| 37> H 	 -33.0504 	 57.1858 	 108.698
| 38> H 	 -32.6402 	 56.3982 	 110.114
| 39> H 	 -28.5109 	 61.4329 	 111.72
| 40> H 	 -36.8186 	 62.7402 	 111.494
| 41> *
| 42>
| 43>                          ****END OF INPUT****

CARTESIAN COORDINATES (ANGSTROEM)
---------------------------------
  S    -30.915200   61.257200  112.499000
  C    -29.543300   61.510400  111.394000
  C    -29.914400   61.872500  110.139000
  C    -31.358500   61.861400  110.046000
  C    -32.071600   61.421800  111.173000
  H    -31.905400   62.168900  109.199000
  C    -28.935000   62.208000  109.007000
  H    -29.398500   61.822500  108.072000
  H    -28.060000   61.531600  109.082000
  C    -28.482600   63.675300  108.787000
  H    -27.584000   63.864200  109.424000
  H    -27.985100   63.674400  107.866000
  C    -29.585800   64.745400  108.763000
  H    -30.372700   64.554700  107.994000
  H    -30.151300   64.725000  109.681000
  H    -29.222300   65.705500  108.677000
  S    -34.335900   62.798000  112.039000
  C    -35.846800   62.163900  111.454000
  C    -35.702300   61.069300  110.635000
  C    -34.338000   60.695700  110.454000
  C    -33.508100   61.412700  111.269000
  H    -36.469400   60.540900  110.195000
  C    -33.850200   59.591700  109.585000
  H    -32.833500   59.888100  109.139000
  H    -34.411000   59.493400  108.707000
  C    -33.561000   58.301400  110.392000
  H    -34.537400   57.781300  110.578000
  H    -33.179700   58.582200  111.382000
  C    -32.593800   57.353300  109.655000
  H    -31.553700   57.682200  109.632000
  H    -33.050400   57.185800  108.698000
  H    -32.640200   56.398200  110.114000
  H    -28.510900   61.432900  111.720000
  H    -36.818600   62.740200  111.494000

 Total Charge           Charge          ....    0
 Multiplicity           Mult            ....    1
 Number of Electrons    NEL             ....  134
 Basis Dimension        Dim             ....  322

ORBITAL ENERGIES
----------------

  NO   OCC          E(Eh)            E(eV)
   0   2.0000     -88.966128     -2420.8914
   1   2.0000     -88.964010     -2420.8338
   2   2.0000     -10.327257      -281.0190
   3   2.0000     -10.321038      -280.8497
   4   2.0000     -10.319747      -280.8146
   5   2.0000     -10.313706      -280.6502
   6   2.0000     -10.301429      -280.3161
   7   2.0000     -10.300347      -280.2867
   8   2.0000     -10.297250      -280.2024
   9   2.0000     -10.292701      -280.0786
  10   2.0000     -10.288396      -279.9615
  11   2.0000     -10.287423      -279.9350
  12   2.0000     -10.286451      -279.9086
  13   2.0000     -10.286160      -279.9007
  14   2.0000     -10.274199      -279.5752
  15   2.0000     -10.270003      -279.4610
  16   2.0000      -8.080594      -219.8841
  17   2.0000      -8.077983      -219.8131
  18   2.0000      -6.039122      -164.3329
  19   2.0000      -6.036596      -164.2641
  20   2.0000      -6.035290      -164.2286
  21   2.0000      -6.032613      -164.1557
  22   2.0000      -6.031186      -164.1169
  23   2.0000      -6.028671      -164.0485
  24   2.0000      -1.004383       -27.3306
  25   2.0000      -0.979822       -26.6623
  26   2.0000      -0.907980       -24.7074
  27   2.0000      -0.905412       -24.6375
  28   2.0000      -0.869482       -23.6598
  29   2.0000      -0.851547       -23.1718
  30   2.0000      -0.841683       -22.9034
  31   2.0000      -0.809881       -22.0380
  32   2.0000      -0.787473       -21.4282
  33   2.0000      -0.772874       -21.0310
  34   2.0000      -0.708488       -19.2789
  35   2.0000      -0.702421       -19.1139
  36   2.0000      -0.690622       -18.7928
  37   2.0000      -0.665094       -18.0981
  38   2.0000      -0.639371       -17.3982
  39   2.0000      -0.610176       -16.6037
  40   2.0000      -0.597832       -16.2678
  41   2.0000      -0.567294       -15.4369
  42   2.0000      -0.559062       -15.2129
  43   2.0000      -0.550273       -14.9737
  44   2.0000      -0.540548       -14.7091
  45   2.0000      -0.524092       -14.2613
  46   2.0000      -0.510879       -13.9017
  47   2.0000      -0.507240       -13.8027
  48   2.0000      -0.505100       -13.7445
  49   2.0000      -0.493029       -13.4160
  50   2.0000      -0.489929       -13.3316
  51   2.0000      -0.479210       -13.0400
  52   2.0000      -0.469713       -12.7815
  53   2.0000      -0.468426       -12.7465
  54   2.0000      -0.454310       -12.3624
  55   2.0000      -0.446821       -12.1586
  56   2.0000      -0.442775       -12.0485
  57   2.0000      -0.436342       -11.8735
  58   2.0000      -0.431491       -11.7415
  59   2.0000      -0.429329       -11.6826
  60   2.0000      -0.426484       -11.6052
  61   2.0000      -0.413580       -11.2541
  62   2.0000      -0.407461       -11.0876
  63   2.0000      -0.337649        -9.1879
  64   2.0000      -0.329835        -8.9753
  65   2.0000      -0.328198        -8.9307
  66   2.0000      -0.296244        -8.0612
  67   0.0000       0.035357         0.9621
  68   0.0000       0.056677         1.5423
  69   0.0000       0.113289         3.0827
  70   0.0000       0.119852         3.2613
  71   0.0000       0.121685         3.3112

MULLIKEN ATOMIC CHARGES
-----------------------
   0 S :    0.100449
   1 C :   -0.128027
   2 C :   -0.068619
   3 C :    0.047901
   4 C :   -0.190498
   5 H :   -0.002227
   6 C :    0.032941
   7 H :    0.024517
   8 H :    0.029541
   9 C :   -0.036649
  10 H :    0.025846
  11 H :    0.010863
  12 C :   -0.021560
  13 H :    0.031912
  14 H :    0.036281
  15 H :    0.021822
  16 S :    0.110908
  17 C :   -0.099876
  18 C :    0.011338
  19 C :   -0.057926
  20 C :   -0.143613
  21 H :   -0.017532
  22 C :    0.070694
  23 H :    0.025841
  24 H :    0.006129
  25 C :   -0.085023
  26 H :    0.028111
  27 H :    0.035391
  28 C :   -0.014757
  29 H :    0.051608
  30 H :    0.019008
  31 H :    0.020073
  32 H :    0.046047
  33 H :    0.079084
Sum of atomic charges:    0.0000000

LOEWDIN ATOMIC CHARGES
----------------------
   0 S :    0.381062
   1 C :   -0.178559
   2 C :   -0.071206
   3 C :   -0.049682
   4 C :   -0.197815
   5 H :    0.019778
   6 C :   -0.035226
   7 H :    0.031473
   8 H :    0.036144
   9 C :   -0.040606
  10 H :    0.028828
  11 H :    0.018531
  12 C :   -0.059286
  13 H :    0.031766
  14 H :    0.027704
  15 H :    0.017539
  16 S :    0.395910
  17 C :   -0.190163
  18 C :   -0.062729
  19 C :   -0.044806
  20 C :   -0.197019
  21 H :    0.018258
  22 C :   -0.038672
  23 H :    0.039724
  24 H :    0.018620
  25 C :   -0.033588
  26 H :    0.025536
  27 H :    0.024199
  28 C :   -0.061980
  29 H :    0.030337
  30 H :    0.023129
  31 H :    0.022585
  32 H :    0.027372
  33 H :    0.042839

  Mayer bond orders larger than 0.100000
B(  0-S ,  1-C ) :   1.1374 B(  0-S ,  4-C ) :   1.1259 B(  1-C ,  2-C ) :   1.6282
B(  1-C , 32-H ) :   0.9669 B(  2-C ,  3-C ) :   1.2293 B(  2-C ,  6-C ) :   1.0094
B(  3-C ,  4-C ) :   1.5841 B(  3-C ,  5-H ) :   0.9929 B(  4-C , 20-C ) :   1.0408
B(  6-C ,  7-H ) :   0.9430 B(  6-C ,  8-H ) :   0.9430 B(  6-C ,  9-C ) :   1.0734
B(  9-C , 10-H ) :   0.9550 B(  9-C , 11-H ) :   0.9491 B(  9-C , 12-C ) :   1.0724
B( 12-C , 13-H ) :   0.9740 B( 12-C , 14-H ) :   0.9729 B( 12-C , 15-H ) :   0.9735
B( 16-S , 17-C ) :   1.1578 B( 16-S , 20-C ) :   1.1256 B( 17-C , 18-C ) :   1.6029
B( 17-C , 33-H ) :   0.9557 B( 18-C , 19-C ) :   1.2440 B( 18-C , 21-H ) :   1.0038
B( 19-C , 20-C ) :   1.6087 B( 19-C , 22-C ) :   1.0635 B( 22-C , 23-H ) :   0.9255
B( 22-C , 24-H ) :   0.9249 B( 22-C , 25-C ) :   1.0436 B( 25-C , 26-H ) :   0.9541
B( 25-C , 27-H ) :   0.9604 B( 25-C , 28-C ) :   1.0856 B( 28-C , 29-H ) :   0.9747
B( 28-C , 30-H ) :   0.9710 B( 28-C , 31-H ) :   0.9710

Dispersion correction           -0.015168874
FINAL SINGLE POINT ENERGY     -1339.871518663225

DIPOLE MOMENT
-------------
                                X             Y             Z
Electronic contribution:    -10.01614       6.05028      18.63728
Nuclear contribution   :     10.14224      -6.07937     -19.39573
                        -----------------------------------------
Total Dipole Moment    :      0.12610      -0.02909      -0.75845
                        -----------------------------------------
Magnitude (a.u.)       :      0.76941
Magnitude (Debye)      :      1.95569

Rotational constants in cm-1:     0.017585     0.009188     0.007733
Rotational constants in MHz :   527.189120   275.434353   231.833983

                             ****ORCA TERMINATED NORMALLY****
TOTAL RUN TIME: 0 days 0 hours 0 minutes 32 seconds 64 msec
