                         Program Version 4.2.1 -  RELEASE  -
|  1> ! wB97X-D3 SP def2-SVP
|  2> %pal
|  3> nprocs 16
|  4> end
|  5>
|  6> * xyz 0 1
|  7> S 	 -35.6287 	 71.6658 	 108.201
|  8> C 	 -35.2072 	 70.6669 	 106.803
|  9> C 	 -34.4224 	 71.4116 	 105.911
| 10> C 	 -34.4489 	 72.8337 	 106.181
| 11> C 	 -35.1502 	 73.112 	 107.336
| 12> H 	 -33.9761 	 73.6634 	 105.704
| 13> C 	 -33.7497 	 70.8249 	 104.623
| 14> H 	 -33.6209 	 71.6675 	 103.937
| 15> H 	 -34.4332 	 70.0952 	 104.106
| 16> C 	 -32.4081 	 70.2039 	 105.037
| 17> H 	 -31.744 	 70.9792 	 105.375
| 18> H 	 -32.6796 	 69.5148 	 105.758
| 19> C 	 -31.7253 	 69.3592 	 103.946
| 20> H 	 -30.897 	 68.8549 	 104.371
| 21> H 	 -32.3125 	 68.6209 	 103.544
| 22> H 	 -31.2848 	 69.9816 	 103.138
| 23> S 	 -34.4581 	 74.5835 	 109.642
| 24> C 	 -34.6588 	 76.3205 	 109.586
| 25> C 	 -35.1938 	 76.8172 	 108.395
| 26> C 	 -35.4306 	 75.6788 	 107.492
| 27> C 	 -35.2525 	 74.383 	 108.027
| 28> H 	 -35.4681 	 77.8655 	 108.282
| 29> C 	 -36.0628 	 75.8005 	 106.097
| 30> H 	 -36.3469 	 74.7652 	 105.722
| 31> H 	 -35.2227 	 76.1066 	 105.481
| 32> C 	 -37.3027 	 76.6519 	 106.138
| 33> H 	 -37.5998 	 76.6854 	 105.072
| 34> H 	 -37.1477 	 77.6646 	 106.467
| 35> C 	 -38.3311 	 76.0619 	 107.009
| 36> H 	 -39.3447 	 76.5011 	 106.84
| 37> H 	 -38.1751 	 76.1614 	 108.087
| 38> H 	 -38.6456 	 75.0579 	 106.75
| 39> H 	 -35.3868 	 69.5993 	 106.776
| 40> H 	 -34.2404 	 76.8948 	 110.393
| 41> *
| 42>
| 43>                          ****END OF INPUT****

CARTESIAN COORDINATES (ANGSTROEM)
---------------------------------
  S    -35.628700   71.665800  108.201000
  C    -35.207200   70.666900  106.803000
  C    -34.422400   71.411600  105.911000
  C    -34.448900   72.833700  106.181000
  C    -35.150200   73.112000  107.336000
  H    -33.976100   73.663400  105.704000
  C    -33.749700   70.824900  104.623000
  H    -33.620900   71.667500  103.937000
  H    -34.433200   70.095200  104.106000
  C    -32.408100   70.203900  105.037000
  H    -31.744000   70.979200  105.375000
  H    -32.679600   69.514800  105.758000
  C    -31.725300   69.359200  103.946000
  H    -30.897000   68.854900  104.371000
  H    -32.312500   68.620900  103.544000
  H    -31.284800   69.981600  103.138000
  S    -34.458100   74.583500  109.642000
  C    -34.658800   76.320500  109.586000
  C    -35.193800   76.817200  108.395000
  C    -35.430600   75.678800  107.492000
  C    -35.252500   74.383000  108.027000
  H    -35.468100   77.865500  108.282000
  C    -36.062800   75.800500  106.097000
  H    -36.346900   74.765200  105.722000
  H    -35.222700   76.106600  105.481000
  C    -37.302700   76.651900  106.138000
  H    -37.599800   76.685400  105.072000
  H    -37.147700   77.664600  106.467000
  C    -38.331100   76.061900  107.009000
  H    -39.344700   76.501100  106.840000
  H    -38.175100   76.161400  108.087000
  H    -38.645600   75.057900  106.750000
  H    -35.386800   69.599300  106.776000
  H    -34.240400   76.894800  110.393000

 Total Charge           Charge          ....    0
 Multiplicity           Mult            ....    1
 Number of Electrons    NEL             ....  134
 Basis Dimension        Dim             ....  322

ORBITAL ENERGIES
----------------

  NO   OCC          E(Eh)            E(eV)
   0   2.0000     -88.964481     -2420.8466
   1   2.0000     -88.962301     -2420.7873
   2   2.0000     -10.328765      -281.0600
   3   2.0000     -10.326878      -281.0086
   4   2.0000     -10.323094      -280.9057
   5   2.0000     -10.318334      -280.7762
   6   2.0000     -10.310219      -280.5553
   7   2.0000     -10.309246      -280.5289
   8   2.0000     -10.305028      -280.4141
   9   2.0000     -10.297422      -280.2071
  10   2.0000     -10.296502      -280.1821
  11   2.0000     -10.289890      -280.0021
  12   2.0000     -10.281310      -279.7687
  13   2.0000     -10.278917      -279.7036
  14   2.0000     -10.269324      -279.4425
  15   2.0000     -10.268347      -279.4159
  16   2.0000      -8.079115      -219.8439
  17   2.0000      -8.076457      -219.7716
  18   2.0000      -6.037600      -164.2914
  19   2.0000      -6.035010      -164.2210
  20   2.0000      -6.033797      -164.1880
  21   2.0000      -6.031079      -164.1140
  22   2.0000      -6.029754      -164.0779
  23   2.0000      -6.027162      -164.0074
  24   2.0000      -1.000219       -27.2173
  25   2.0000      -0.974391       -26.5145
  26   2.0000      -0.915168       -24.9030
  27   2.0000      -0.909407       -24.7462
  28   2.0000      -0.868195       -23.6248
  29   2.0000      -0.849164       -23.1069
  30   2.0000      -0.838910       -22.8279
  31   2.0000      -0.812564       -22.1110
  32   2.0000      -0.783035       -21.3075
  33   2.0000      -0.769019       -20.9261
  34   2.0000      -0.703076       -19.1317
  35   2.0000      -0.700065       -19.0497
  36   2.0000      -0.693579       -18.8733
  37   2.0000      -0.653319       -17.7777
  38   2.0000      -0.644471       -17.5369
  39   2.0000      -0.613573       -16.6962
  40   2.0000      -0.597997       -16.2723
  41   2.0000      -0.575955       -15.6725
  42   2.0000      -0.562222       -15.2988
  43   2.0000      -0.557312       -15.1652
  44   2.0000      -0.539188       -14.6720
  45   2.0000      -0.522576       -14.2200
  46   2.0000      -0.517084       -14.0706
  47   2.0000      -0.511390       -13.9156
  48   2.0000      -0.507487       -13.8094
  49   2.0000      -0.496517       -13.5109
  50   2.0000      -0.491092       -13.3633
  51   2.0000      -0.473974       -12.8975
  52   2.0000      -0.465406       -12.6643
  53   2.0000      -0.461436       -12.5563
  54   2.0000      -0.458183       -12.4678
  55   2.0000      -0.450944       -12.2708
  56   2.0000      -0.444098       -12.0845
  57   2.0000      -0.436453       -11.8765
  58   2.0000      -0.429328       -11.6826
  59   2.0000      -0.425076       -11.5669
  60   2.0000      -0.420345       -11.4382
  61   2.0000      -0.413379       -11.2486
  62   2.0000      -0.397832       -10.8255
  63   2.0000      -0.348478        -9.4826
  64   2.0000      -0.329618        -8.9694
  65   2.0000      -0.326233        -8.8773
  66   2.0000      -0.288310        -7.8453
  67   0.0000       0.026622         0.7244
  68   0.0000       0.061080         1.6621
  69   0.0000       0.108509         2.9527
  70   0.0000       0.116525         3.1708
  71   0.0000       0.123977         3.3736

MULLIKEN ATOMIC CHARGES
-----------------------
   0 S :    0.097047
   1 C :   -0.110866
   2 C :   -0.096038
   3 C :    0.046725
   4 C :   -0.170693
   5 H :    0.010770
   6 C :    0.032672
   7 H :    0.021539
   8 H :    0.039264
   9 C :   -0.047501
  10 H :    0.034665
  11 H :    0.012360
  12 C :   -0.003173
  13 H :    0.018772
  14 H :    0.009812
  15 H :    0.027863
  16 S :    0.081184
  17 C :   -0.096085
  18 C :   -0.015001
  19 C :   -0.115305
  20 C :   -0.094531
  21 H :    0.036248
  22 C :    0.025429
  23 H :    0.046940
  24 H :    0.035629
  25 C :   -0.034584
  26 H :    0.030184
  27 H :    0.024535
  28 C :   -0.053868
  29 H :    0.019692
  30 H :    0.050950
  31 H :    0.019798
  32 H :    0.053675
  33 H :    0.061892
Sum of atomic charges:   -0.0000000

LOEWDIN ATOMIC CHARGES
----------------------
   0 S :    0.395504
   1 C :   -0.192552
   2 C :   -0.052579
   3 C :   -0.059657
   4 C :   -0.188567
   5 H :    0.031788
   6 C :   -0.030174
   7 H :    0.024671
   8 H :    0.034117
   9 C :   -0.029763
  10 H :    0.027532
  11 H :    0.015597
  12 C :   -0.057885
  13 H :    0.023048
  14 H :    0.011552
  15 H :    0.027538
  16 S :    0.374167
  17 C :   -0.168377
  18 C :   -0.079331
  19 C :   -0.046288
  20 C :   -0.198733
  21 H :    0.037712
  22 C :   -0.038489
  23 H :    0.038353
  24 H :    0.027731
  25 C :   -0.045806
  26 H :    0.031189
  27 H :    0.020836
  28 C :   -0.072240
  29 H :    0.030710
  30 H :    0.030958
  31 H :    0.025285
  32 H :    0.027232
  33 H :    0.024925

  Mayer bond orders larger than 0.100000
B(  0-S ,  1-C ) :   1.1296 B(  0-S ,  4-C ) :   1.1528 B(  1-C ,  2-C ) :   1.6107
B(  1-C , 32-H ) :   0.9739 B(  2-C ,  3-C ) :   1.2200 B(  2-C ,  6-C ) :   1.0119
B(  3-C ,  4-C ) :   1.5740 B(  3-C ,  5-H ) :   0.9967 B(  4-C , 20-C ) :   1.0399
B(  6-C ,  7-H ) :   0.9469 B(  6-C ,  8-H ) :   0.9513 B(  6-C ,  9-C ) :   1.0564
B(  9-C , 10-H ) :   0.9558 B(  9-C , 11-H ) :   0.9596 B(  9-C , 12-C ) :   1.0925
B( 12-C , 13-H ) :   0.9720 B( 12-C , 14-H ) :   0.9729 B( 12-C , 15-H ) :   0.9735
B( 16-S , 17-C ) :   1.1792 B( 16-S , 20-C ) :   1.0956 B( 17-C , 18-C ) :   1.5986
B( 17-C , 33-H ) :   0.9654 B( 18-C , 19-C ) :   1.2087 B( 18-C , 21-H ) :   0.9922
B( 19-C , 20-C ) :   1.6196 B( 19-C , 22-C ) :   1.0233 B( 22-C , 23-H ) :   0.9424
B( 22-C , 24-H ) :   0.9319 B( 22-C , 25-C ) :   1.0732 B( 25-C , 26-H ) :   0.9499
B( 25-C , 27-H ) :   0.9507 B( 25-C , 28-C ) :   1.0882 B( 28-C , 29-H ) :   0.9658
B( 28-C , 30-H ) :   0.9693 B( 28-C , 31-H ) :   0.9691

Dispersion correction           -0.014421157
FINAL SINGLE POINT ENERGY     -1339.862379177053

DIPOLE MOMENT
-------------
                                X             Y             Z
Electronic contribution:     -0.75911       1.45838      21.04592
Nuclear contribution   :      0.94320      -1.28974     -21.59728
                        -----------------------------------------
Total Dipole Moment    :      0.18409       0.16864      -0.55136
                        -----------------------------------------
Magnitude (a.u.)       :      0.60525
Magnitude (Debye)      :      1.53841

Rotational constants in cm-1:     0.022404     0.007283     0.006670
Rotational constants in MHz :   671.644814   218.338581   199.964581

                             ****ORCA TERMINATED NORMALLY****
TOTAL RUN TIME: 0 days 0 hours 0 minutes 29 seconds 909 msec
