                         Program Version 4.2.1 -  RELEASE  -
|  1> ! wB97X-D3 SP def2-SVP
|  2> %pal
|  3> nprocs 16
|  4> end
|  5>
|  6> * xyz 0 1
|  7> S 	 3.5084 	 13.0325 	 49.0305
|  8> C 	 3.25608 	 12.4076 	 47.4269
|  9> C 	 3.13248 	 13.3466 	 46.4334
| 10> C 	 3.03191 	 14.5959 	 46.9567
| 11> C 	 3.21392 	 14.675 	 48.3512
| 12> H 	 2.87514 	 15.4971 	 46.4438
| 13> C 	 2.99707 	 12.9837 	 44.9784
| 14> H 	 2.0208 	 13.2572 	 44.6914
| 15> H 	 2.933 	 11.9197 	 44.8122
| 16> C 	 3.86124 	 13.7032 	 43.9478
| 17> H 	 3.39373 	 14.6458 	 43.7603
| 18> H 	 4.88464 	 13.7478 	 44.3885
| 19> C 	 3.9629 	 12.9632 	 42.5908
| 20> H 	 4.47591 	 13.5094 	 41.752
| 21> H 	 4.3326 	 11.8666 	 42.7181
| 22> H 	 3.01417 	 12.9574 	 42.0774
| 23> S 	 2.40323 	 15.6864 	 50.7667
| 24> C 	 2.60171 	 17.404 	 51.1171
| 25> C 	 3.05788 	 18.0358 	 50.0082
| 26> C 	 3.21888 	 17.2145 	 48.8826
| 27> C 	 3.06206 	 15.8466 	 49.157
| 28> H 	 3.1484 	 19.1022 	 50.1279
| 29> C 	 3.8074 	 17.7458 	 47.5723
| 30> H 	 4.32846 	 16.9715 	 47.0034
| 31> H 	 4.56455 	 18.508 	 47.8047
| 32> C 	 2.78913 	 18.4694 	 46.704
| 33> H 	 2.41124 	 19.2378 	 47.3846
| 34> H 	 1.90826 	 17.856 	 46.4527
| 35> C 	 3.23623 	 19.0557 	 45.4272
| 36> H 	 4.18718 	 19.5933 	 45.5883
| 37> H 	 2.51784 	 19.7555 	 44.9445
| 38> H 	 3.39114 	 18.3056 	 44.6356
| 39> H 	 3.45806 	 11.3356 	 47.2672
| 40> H 	 2.29658 	 17.8969 	 52.0279
| 41> *
| 42>
| 43>                          ****END OF INPUT****

CARTESIAN COORDINATES (ANGSTROEM)
---------------------------------
  S      3.508400   13.032500   49.030500
  C      3.256080   12.407600   47.426900
  C      3.132480   13.346600   46.433400
  C      3.031910   14.595900   46.956700
  C      3.213920   14.675000   48.351200
  H      2.875140   15.497100   46.443800
  C      2.997070   12.983700   44.978400
  H      2.020800   13.257200   44.691400
  H      2.933000   11.919700   44.812200
  C      3.861240   13.703200   43.947800
  H      3.393730   14.645800   43.760300
  H      4.884640   13.747800   44.388500
  C      3.962900   12.963200   42.590800
  H      4.475910   13.509400   41.752000
  H      4.332600   11.866600   42.718100
  H      3.014170   12.957400   42.077400
  S      2.403230   15.686400   50.766700
  C      2.601710   17.404000   51.117100
  C      3.057880   18.035800   50.008200
  C      3.218880   17.214500   48.882600
  C      3.062060   15.846600   49.157000
  H      3.148400   19.102200   50.127900
  C      3.807400   17.745800   47.572300
  H      4.328460   16.971500   47.003400
  H      4.564550   18.508000   47.804700
  C      2.789130   18.469400   46.704000
  H      2.411240   19.237800   47.384600
  H      1.908260   17.856000   46.452700
  C      3.236230   19.055700   45.427200
  H      4.187180   19.593300   45.588300
  H      2.517840   19.755500   44.944500
  H      3.391140   18.305600   44.635600
  H      3.458060   11.335600   47.267200
  H      2.296580   17.896900   52.027900

 Total Charge           Charge          ....    0
 Multiplicity           Mult            ....    1
 Number of Electrons    NEL             ....  134
 Basis Dimension        Dim             ....  322

ORBITAL ENERGIES
----------------

  NO   OCC          E(Eh)            E(eV)
   0   2.0000     -88.971616     -2421.0408
   1   2.0000     -88.962541     -2420.7938
   2   2.0000     -10.333848      -281.1983
   3   2.0000     -10.328151      -281.0433
   4   2.0000     -10.314338      -280.6674
   5   2.0000     -10.313663      -280.6490
   6   2.0000     -10.303321      -280.3676
   7   2.0000     -10.297071      -280.1976
   8   2.0000     -10.291939      -280.0579
   9   2.0000     -10.291582      -280.0482
  10   2.0000     -10.291552      -280.0474
  11   2.0000     -10.290078      -280.0073
  12   2.0000     -10.289403      -279.9889
  13   2.0000     -10.286118      -279.8995
  14   2.0000     -10.282238      -279.7939
  15   2.0000     -10.280643      -279.7505
  16   2.0000      -8.085587      -220.0200
  17   2.0000      -8.077352      -219.7959
  18   2.0000      -6.043971      -164.4648
  19   2.0000      -6.040332      -164.3658
  20   2.0000      -6.036408      -164.2590
  21   2.0000      -6.035884      -164.2448
  22   2.0000      -6.031797      -164.1335
  23   2.0000      -6.028122      -164.0336
  24   2.0000      -1.009927       -27.4815
  25   2.0000      -0.988929       -26.9101
  26   2.0000      -0.916319       -24.9343
  27   2.0000      -0.913998       -24.8711
  28   2.0000      -0.875585       -23.8259
  29   2.0000      -0.858707       -23.3666
  30   2.0000      -0.849527       -23.1168
  31   2.0000      -0.817234       -22.2381
  32   2.0000      -0.785250       -21.3678
  33   2.0000      -0.772424       -21.0187
  34   2.0000      -0.714434       -19.4407
  35   2.0000      -0.695196       -18.9173
  36   2.0000      -0.692239       -18.8368
  37   2.0000      -0.664815       -18.0905
  38   2.0000      -0.640524       -17.4295
  39   2.0000      -0.630306       -17.1515
  40   2.0000      -0.598656       -16.2903
  41   2.0000      -0.581523       -15.8240
  42   2.0000      -0.571538       -15.5523
  43   2.0000      -0.564778       -15.3684
  44   2.0000      -0.525005       -14.2861
  45   2.0000      -0.522998       -14.2315
  46   2.0000      -0.518491       -14.1089
  47   2.0000      -0.515315       -14.0224
  48   2.0000      -0.505815       -13.7639
  49   2.0000      -0.499352       -13.5880
  50   2.0000      -0.488798       -13.3009
  51   2.0000      -0.484999       -13.1975
  52   2.0000      -0.474784       -12.9195
  53   2.0000      -0.471641       -12.8340
  54   2.0000      -0.464044       -12.6273
  55   2.0000      -0.448072       -12.1927
  56   2.0000      -0.443982       -12.0814
  57   2.0000      -0.436813       -11.8863
  58   2.0000      -0.430315       -11.7095
  59   2.0000      -0.425699       -11.5839
  60   2.0000      -0.420922       -11.4539
  61   2.0000      -0.416849       -11.3430
  62   2.0000      -0.408384       -11.1127
  63   2.0000      -0.360445        -9.8082
  64   2.0000      -0.339829        -9.2472
  65   2.0000      -0.331688        -9.0257
  66   2.0000      -0.278328        -7.5737
  67   0.0000       0.015358         0.4179
  68   0.0000       0.080462         2.1895
  69   0.0000       0.103926         2.8280
  70   0.0000       0.119576         3.2538
  71   0.0000       0.129125         3.5137

MULLIKEN ATOMIC CHARGES
-----------------------
   0 S :    0.119532
   1 C :   -0.149896
   2 C :   -0.022262
   3 C :    0.022963
   4 C :   -0.145472
   5 H :   -0.024424
   6 C :    0.100290
   7 H :    0.009903
   8 H :    0.003966
   9 C :   -0.068070
  10 H :    0.029998
  11 H :    0.047799
  12 C :   -0.096516
  13 H :    0.040792
  14 H :    0.055990
  15 H :    0.018266
  16 S :    0.088294
  17 C :   -0.096387
  18 C :   -0.027639
  19 C :   -0.013868
  20 C :   -0.124593
  21 H :    0.016840
  22 C :    0.035668
  23 H :    0.026741
  24 H :    0.022574
  25 C :   -0.087238
  26 H :    0.019092
  27 H :    0.027650
  28 C :   -0.033855
  29 H :    0.025570
  30 H :    0.040430
  31 H :    0.025458
  32 H :    0.057270
  33 H :    0.055136
Sum of atomic charges:   -0.0000000

LOEWDIN ATOMIC CHARGES
----------------------
   0 S :    0.396199
   1 C :   -0.194687
   2 C :   -0.065768
   3 C :   -0.049220
   4 C :   -0.172481
   5 H :    0.023364
   6 C :   -0.031252
   7 H :    0.029073
   8 H :    0.027347
   9 C :   -0.038695
  10 H :    0.022084
  11 H :    0.030181
  12 C :   -0.083065
  13 H :    0.034595
  14 H :    0.037286
  15 H :    0.020516
  16 S :    0.396188
  17 C :   -0.179525
  18 C :   -0.072812
  19 C :   -0.060283
  20 C :   -0.191206
  21 H :    0.033713
  22 C :   -0.031375
  23 H :    0.024573
  24 H :    0.031538
  25 C :   -0.054458
  26 H :    0.024461
  27 H :    0.022997
  28 C :   -0.070569
  29 H :    0.024679
  30 H :    0.033163
  31 H :    0.024295
  32 H :    0.028017
  33 H :    0.031126

  Mayer bond orders larger than 0.100000
B(  0-S ,  1-C ) :   1.1517 B(  0-S ,  4-C ) :   1.1433 B(  1-C ,  2-C ) :   1.5760
B(  1-C ,  4-C ) :   0.1075 B(  1-C , 32-H ) :   0.9571 B(  2-C ,  3-C ) :   1.2742
B(  2-C ,  6-C ) :   1.0300 B(  3-C ,  4-C ) :   1.5243 B(  3-C ,  5-H ) :   1.0001
B(  4-C , 20-C ) :   1.1165 B(  6-C ,  7-H ) :   0.9250 B(  6-C ,  8-H ) :   0.9414
B(  6-C ,  9-C ) :   1.0448 B(  9-C , 10-H ) :   0.9502 B(  9-C , 11-H ) :   0.9660
B(  9-C , 12-C ) :   1.0894 B( 12-C , 13-H ) :   0.9715 B( 12-C , 14-H ) :   0.9740
B( 12-C , 15-H ) :   0.9697 B( 16-S , 17-C ) :   1.1413 B( 16-S , 20-C ) :   1.1416
B( 17-C , 18-C ) :   1.6136 B( 17-C , 20-C ) :   0.1012 B( 17-C , 33-H ) :   0.9687
B( 18-C , 19-C ) :   1.2498 B( 18-C , 21-H ) :   0.9924 B( 19-C , 20-C ) :   1.5501
B( 19-C , 22-C ) :   1.0399 B( 22-C , 23-H ) :   0.9433 B( 22-C , 24-H ) :   0.9337
B( 22-C , 25-C ) :   1.0541 B( 25-C , 26-H ) :   0.9508 B( 25-C , 27-H ) :   0.9492
B( 25-C , 28-C ) :   1.0981 B( 28-C , 29-H ) :   0.9681 B( 28-C , 30-H ) :   0.9704
B( 28-C , 31-H ) :   0.9699

Dispersion correction           -0.013855271
FINAL SINGLE POINT ENERGY     -1339.872581881762

DIPOLE MOMENT
-------------
                                X             Y             Z
Electronic contribution:     -2.97568      -9.53233      32.51498
Nuclear contribution   :      2.93256       9.87403     -33.16600
                        -----------------------------------------
Total Dipole Moment    :     -0.04312       0.34169      -0.65103
                        -----------------------------------------
Magnitude (a.u.)       :      0.73651
Magnitude (Debye)      :      1.87207

Rotational constants in cm-1:     0.017323     0.009375     0.006262
Rotational constants in MHz :   519.343752   281.060934   187.720382

                             ****ORCA TERMINATED NORMALLY****
TOTAL RUN TIME: 0 days 0 hours 0 minutes 35 seconds 789 msec
