                         Program Version 4.2.1 -  RELEASE  -
|  1> ! wB97X-D3 SP def2-SVP
|  2> %pal
|  3> nprocs 16
|  4> end
|  5>
|  6> * xyz 0 1
|  7> S 	 -32.7784 	 30.1617 	 42.7789
|  8> C 	 -31.413 	 29.2904 	 42.0956
|  9> C 	 -30.201 	 29.9937 	 42.2317
| 10> C 	 -30.4403 	 31.3305 	 42.6856
| 11> C 	 -31.7998 	 31.5997 	 42.8715
| 12> H 	 -29.6421 	 32.0566 	 42.7649
| 13> C 	 -28.7853 	 29.3591 	 42.1278
| 14> H 	 -28.9979 	 28.3635 	 41.698
| 15> H 	 -28.3439 	 29.362 	 43.1828
| 16> C 	 -27.7836 	 30.236 	 41.2885
| 17> H 	 -28.1707 	 30.5333 	 40.293
| 18> H 	 -27.56 	 31.1001 	 41.9179
| 19> C 	 -26.5611 	 29.3832 	 40.9351
| 20> H 	 -25.9396 	 29.9383 	 40.2264
| 21> H 	 -26.0512 	 29.298 	 41.8622
| 22> H 	 -26.8149 	 28.3828 	 40.555
| 23> S 	 -32.772 	 32.5847 	 45.2252
| 24> C 	 -33.2062 	 34.3237 	 45.2283
| 25> C 	 -32.9441 	 34.9497 	 44.067
| 26> C 	 -32.4356 	 34.0644 	 43.0896
| 27> C 	 -32.3491 	 32.7659 	 43.5383
| 28> H 	 -33.1354 	 35.9841 	 43.9255
| 29> C 	 -32.0702 	 34.5939 	 41.6699
| 30> H 	 -32.9258 	 35.2536 	 41.3615
| 31> H 	 -31.9712 	 33.7754 	 40.9535
| 32> C 	 -30.8726 	 35.5141 	 41.686
| 33> H 	 -31.0189 	 36.4411 	 42.2615
| 34> H 	 -30.6663 	 35.9184 	 40.7259
| 35> C 	 -29.5747 	 34.8706 	 42.1837
| 36> H 	 -29.3595 	 33.8869 	 41.6906
| 37> H 	 -29.5387 	 34.6141 	 43.2881
| 38> H 	 -28.6131 	 35.3908 	 42.0663
| 39> H 	 -31.4617 	 28.2778 	 41.8231
| 40> H 	 -33.5642 	 34.8016 	 46.1599
| 41> *
| 42>
| 43>                          ****END OF INPUT****

CARTESIAN COORDINATES (ANGSTROEM)
---------------------------------
  S    -32.778400   30.161700   42.778900
  C    -31.413000   29.290400   42.095600
  C    -30.201000   29.993700   42.231700
  C    -30.440300   31.330500   42.685600
  C    -31.799800   31.599700   42.871500
  H    -29.642100   32.056600   42.764900
  C    -28.785300   29.359100   42.127800
  H    -28.997900   28.363500   41.698000
  H    -28.343900   29.362000   43.182800
  C    -27.783600   30.236000   41.288500
  H    -28.170700   30.533300   40.293000
  H    -27.560000   31.100100   41.917900
  C    -26.561100   29.383200   40.935100
  H    -25.939600   29.938300   40.226400
  H    -26.051200   29.298000   41.862200
  H    -26.814900   28.382800   40.555000
  S    -32.772000   32.584700   45.225200
  C    -33.206200   34.323700   45.228300
  C    -32.944100   34.949700   44.067000
  C    -32.435600   34.064400   43.089600
  C    -32.349100   32.765900   43.538300
  H    -33.135400   35.984100   43.925500
  C    -32.070200   34.593900   41.669900
  H    -32.925800   35.253600   41.361500
  H    -31.971200   33.775400   40.953500
  C    -30.872600   35.514100   41.686000
  H    -31.018900   36.441100   42.261500
  H    -30.666300   35.918400   40.725900
  C    -29.574700   34.870600   42.183700
  H    -29.359500   33.886900   41.690600
  H    -29.538700   34.614100   43.288100
  H    -28.613100   35.390800   42.066300
  H    -31.461700   28.277800   41.823100
  H    -33.564200   34.801600   46.159900

 Total Charge           Charge          ....    0
 Multiplicity           Mult            ....    1
 Number of Electrons    NEL             ....  134
 Basis Dimension        Dim             ....  322

ORBITAL ENERGIES
----------------

  NO   OCC          E(Eh)            E(eV)
   0   2.0000     -88.966487     -2420.9012
   1   2.0000     -88.963005     -2420.8064
   2   2.0000     -10.325615      -280.9743
   3   2.0000     -10.319626      -280.8113
   4   2.0000     -10.316970      -280.7390
   5   2.0000     -10.310601      -280.5657
   6   2.0000     -10.306002      -280.4406
   7   2.0000     -10.302487      -280.3449
   8   2.0000     -10.298995      -280.2499
   9   2.0000     -10.297435      -280.2075
  10   2.0000     -10.294228      -280.1202
  11   2.0000     -10.291675      -280.0507
  12   2.0000     -10.287363      -279.9334
  13   2.0000     -10.286453      -279.9086
  14   2.0000     -10.281624      -279.7772
  15   2.0000     -10.277066      -279.6532
  16   2.0000      -8.081164      -219.8996
  17   2.0000      -8.077517      -219.8004
  18   2.0000      -6.039581      -164.3453
  19   2.0000      -6.036048      -164.2492
  20   2.0000      -6.035820      -164.2430
  21   2.0000      -6.032297      -164.1471
  22   2.0000      -6.031896      -164.1362
  23   2.0000      -6.028032      -164.0311
  24   2.0000      -1.004999       -27.3474
  25   2.0000      -0.979973       -26.6664
  26   2.0000      -0.908660       -24.7259
  27   2.0000      -0.906386       -24.6640
  28   2.0000      -0.869751       -23.6671
  29   2.0000      -0.847247       -23.0548
  30   2.0000      -0.842812       -22.9341
  31   2.0000      -0.811101       -22.0712
  32   2.0000      -0.779731       -21.2176
  33   2.0000      -0.768484       -20.9115
  34   2.0000      -0.708480       -19.2787
  35   2.0000      -0.694920       -18.9097
  36   2.0000      -0.687622       -18.7111
  37   2.0000      -0.660049       -17.9609
  38   2.0000      -0.638312       -17.3694
  39   2.0000      -0.617809       -16.8114
  40   2.0000      -0.594673       -16.1819
  41   2.0000      -0.577889       -15.7252
  42   2.0000      -0.558951       -15.2098
  43   2.0000      -0.549267       -14.9463
  44   2.0000      -0.541798       -14.7431
  45   2.0000      -0.525380       -14.2963
  46   2.0000      -0.512096       -13.9348
  47   2.0000      -0.510707       -13.8970
  48   2.0000      -0.495728       -13.4895
  49   2.0000      -0.491723       -13.3805
  50   2.0000      -0.487665       -13.2700
  51   2.0000      -0.474376       -12.9084
  52   2.0000      -0.471961       -12.8427
  53   2.0000      -0.462224       -12.5778
  54   2.0000      -0.460528       -12.5316
  55   2.0000      -0.444713       -12.1012
  56   2.0000      -0.443473       -12.0675
  57   2.0000      -0.439189       -11.9509
  58   2.0000      -0.434672       -11.8280
  59   2.0000      -0.428740       -11.6666
  60   2.0000      -0.423913       -11.5352
  61   2.0000      -0.411614       -11.2006
  62   2.0000      -0.410895       -11.1810
  63   2.0000      -0.343010        -9.3338
  64   2.0000      -0.326942        -8.8965
  65   2.0000      -0.324872        -8.8402
  66   2.0000      -0.295792        -8.0489
  67   0.0000       0.037700         1.0259
  68   0.0000       0.061512         1.6738
  69   0.0000       0.103989         2.8297
  70   0.0000       0.114932         3.1275
  71   0.0000       0.132789         3.6134

MULLIKEN ATOMIC CHARGES
-----------------------
   0 S :    0.110064
   1 C :   -0.102983
   2 C :   -0.087436
   3 C :    0.051905
   4 C :   -0.172565
   5 H :   -0.000910
   6 C :    0.024741
   7 H :    0.028077
   8 H :    0.062564
   9 C :   -0.118036
  10 H :    0.039026
  11 H :    0.040179
  12 C :   -0.021712
  13 H :    0.037621
  14 H :    0.016667
  15 H :    0.038750
  16 S :    0.103036
  17 C :   -0.106259
  18 C :   -0.002948
  19 C :   -0.035165
  20 C :   -0.169790
  21 H :    0.007137
  22 C :    0.086464
  23 H :    0.034903
  24 H :    0.039093
  25 C :   -0.037762
  26 H :    0.026964
  27 H :    0.020095
  28 C :   -0.110159
  29 H :    0.029844
  30 H :    0.047872
  31 H :    0.030903
  32 H :    0.026786
  33 H :    0.063034
Sum of atomic charges:    0.0000000

LOEWDIN ATOMIC CHARGES
----------------------
   0 S :    0.411760
   1 C :   -0.195018
   2 C :   -0.060601
   3 C :   -0.055177
   4 C :   -0.199682
   5 H :    0.026377
   6 C :   -0.030897
   7 H :    0.029926
   8 H :    0.045908
   9 C :   -0.043645
  10 H :    0.025198
  11 H :    0.022953
  12 C :   -0.061403
  13 H :    0.026553
  14 H :    0.018939
  15 H :    0.027578
  16 S :    0.381323
  17 C :   -0.166532
  18 C :   -0.066581
  19 C :   -0.055837
  20 C :   -0.205043
  21 H :    0.029819
  22 C :   -0.022809
  23 H :    0.039274
  24 H :    0.032346
  25 C :   -0.044486
  26 H :    0.026556
  27 H :    0.022656
  28 C :   -0.083804
  29 H :    0.023606
  30 H :    0.030135
  31 H :    0.026176
  32 H :    0.012987
  33 H :    0.031443

  Mayer bond orders larger than 0.100000
B(  0-S ,  1-C ) :   1.1424 B(  0-S ,  4-C ) :   1.1624 B(  1-C ,  2-C ) :   1.6034
B(  1-C , 32-H ) :   0.9706 B(  2-C ,  3-C ) :   1.2539 B(  2-C ,  6-C ) :   1.0203
B(  3-C ,  4-C ) :   1.5620 B(  3-C ,  5-H ) :   0.9880 B(  4-C , 20-C ) :   1.0129
B(  6-C ,  7-H ) :   0.9458 B(  6-C ,  8-H ) :   0.9418 B(  6-C ,  9-C ) :   1.0506
B(  9-C , 10-H ) :   0.9664 B(  9-C , 11-H ) :   0.9534 B(  9-C , 12-C ) :   1.0792
B( 12-C , 13-H ) :   0.9761 B( 12-C , 14-H ) :   0.9726 B( 12-C , 15-H ) :   0.9769
B( 16-S , 17-C ) :   1.1291 B( 16-S , 20-C ) :   1.1387 B( 17-C , 18-C ) :   1.6428
B( 17-C , 33-H ) :   0.9630 B( 18-C , 19-C ) :   1.2130 B( 18-C , 21-H ) :   0.9965
B( 19-C , 20-C ) :   1.6486 B( 19-C , 22-C ) :   1.0329 B( 22-C , 23-H ) :   0.9358
B( 22-C , 24-H ) :   0.9389 B( 22-C , 25-C ) :   1.0778 B( 25-C , 26-H ) :   0.9527
B( 25-C , 27-H ) :   0.9519 B( 25-C , 28-C ) :   1.0656 B( 28-C , 29-H ) :   0.9675
B( 28-C , 30-H ) :   0.9710 B( 28-C , 31-H ) :   0.9713

Dispersion correction           -0.015113637
FINAL SINGLE POINT ENERGY     -1339.877098849640

DIPOLE MOMENT
-------------
                                X             Y             Z
Electronic contribution:    -25.39580      -5.41414      14.11605
Nuclear contribution   :     25.96223       5.70900     -14.29923
                        -----------------------------------------
Total Dipole Moment    :      0.56643       0.29487      -0.18318
                        -----------------------------------------
Magnitude (a.u.)       :      0.66433
Magnitude (Debye)      :      1.68861

Rotational constants in cm-1:     0.019139     0.009021     0.006992
Rotational constants in MHz :   573.776940   270.443154   209.613454

                             ****ORCA TERMINATED NORMALLY****
TOTAL RUN TIME: 0 days 0 hours 0 minutes 35 seconds 274 msec
