                         Program Version 4.2.1 -  RELEASE  -
|  1> ! wB97X-D3 SP def2-SVP
|  2> %pal
|  3> nprocs 16
|  4> end
|  5>
|  6> * xyz 0 1
|  7> S 	 -31.0313 	 66.092 	 117.726
|  8> C 	 -32.3378 	 65.0934 	 118.479
|  9> C 	 -31.7963 	 64.445 	 119.576
| 10> C 	 -30.3438 	 64.5243 	 119.626
| 11> C 	 -29.7865 	 65.4449 	 118.779
| 12> H 	 -29.7687 	 64.0459 	 120.386
| 13> C 	 -32.5082 	 63.5733 	 120.534
| 14> H 	 -33.4135 	 64.0584 	 120.881
| 15> H 	 -32.0125 	 63.5772 	 121.517
| 16> C 	 -32.7863 	 62.1713 	 119.993
| 17> H 	 -33.4614 	 61.6278 	 120.614
| 18> H 	 -33.0271 	 62.2961 	 118.937
| 19> C 	 -31.5457 	 61.258 	 119.901
| 20> H 	 -30.828 	 61.6907 	 119.235
| 21> H 	 -31.0582 	 61.1999 	 120.882
| 22> H 	 -31.8391 	 60.2749 	 119.545
| 23> S 	 -27.8591 	 67.3364 	 119.555
| 24> C 	 -26.1583 	 66.995 	 119.186
| 25> C 	 -26.0148 	 65.8961 	 118.394
| 26> C 	 -27.2582 	 65.2075 	 118.116
| 27> C 	 -28.3711 	 65.8029 	 118.666
| 28> H 	 -25.0041 	 65.5913 	 117.97
| 29> C 	 -27.2443 	 63.8023 	 117.595
| 30> H 	 -26.5149 	 63.6764 	 116.767
| 31> H 	 -28.2737 	 63.6295 	 117.271
| 32> C 	 -26.9573 	 62.7508 	 118.632
| 33> H 	 -27.4513 	 63.1685 	 119.517
| 34> H 	 -25.955 	 62.768 	 118.999
| 35> C 	 -27.6471 	 61.4243 	 118.321
| 36> H 	 -27.3275 	 61.0745 	 117.333
| 37> H 	 -28.689 	 61.5845 	 118.3
| 38> H 	 -27.4689 	 60.6882 	 119.133
| 39> H 	 -33.3819 	 65.0998 	 118.153
| 40> H 	 -25.3258 	 67.6774 	 119.326
| 41> *
| 42>
| 43>                          ****END OF INPUT****

CARTESIAN COORDINATES (ANGSTROEM)
---------------------------------
  S    -31.031300   66.092000  117.726000
  C    -32.337800   65.093400  118.479000
  C    -31.796300   64.445000  119.576000
  C    -30.343800   64.524300  119.626000
  C    -29.786500   65.444900  118.779000
  H    -29.768700   64.045900  120.386000
  C    -32.508200   63.573300  120.534000
  H    -33.413500   64.058400  120.881000
  H    -32.012500   63.577200  121.517000
  C    -32.786300   62.171300  119.993000
  H    -33.461400   61.627800  120.614000
  H    -33.027100   62.296100  118.937000
  C    -31.545700   61.258000  119.901000
  H    -30.828000   61.690700  119.235000
  H    -31.058200   61.199900  120.882000
  H    -31.839100   60.274900  119.545000
  S    -27.859100   67.336400  119.555000
  C    -26.158300   66.995000  119.186000
  C    -26.014800   65.896100  118.394000
  C    -27.258200   65.207500  118.116000
  C    -28.371100   65.802900  118.666000
  H    -25.004100   65.591300  117.970000
  C    -27.244300   63.802300  117.595000
  H    -26.514900   63.676400  116.767000
  H    -28.273700   63.629500  117.271000
  C    -26.957300   62.750800  118.632000
  H    -27.451300   63.168500  119.517000
  H    -25.955000   62.768000  118.999000
  C    -27.647100   61.424300  118.321000
  H    -27.327500   61.074500  117.333000
  H    -28.689000   61.584500  118.300000
  H    -27.468900   60.688200  119.133000
  H    -33.381900   65.099800  118.153000
  H    -25.325800   67.677400  119.326000

 Total Charge           Charge          ....    0
 Multiplicity           Mult            ....    1
 Number of Electrons    NEL             ....  134
 Basis Dimension        Dim             ....  322

ORBITAL ENERGIES
----------------

  NO   OCC          E(Eh)            E(eV)
   0   2.0000     -88.966180     -2420.8928
   1   2.0000     -88.962685     -2420.7977
   2   2.0000     -10.334394      -281.2132
   3   2.0000     -10.333549      -281.1902
   4   2.0000     -10.325470      -280.9703
   5   2.0000     -10.320582      -280.8373
   6   2.0000     -10.306413      -280.4518
   7   2.0000     -10.305635      -280.4306
   8   2.0000     -10.299248      -280.2568
   9   2.0000     -10.296078      -280.1705
  10   2.0000     -10.289916      -280.0028
  11   2.0000     -10.287757      -279.9441
  12   2.0000     -10.285828      -279.8916
  13   2.0000     -10.278036      -279.6796
  14   2.0000     -10.277968      -279.6777
  15   2.0000     -10.275100      -279.5997
  16   2.0000      -8.080026      -219.8687
  17   2.0000      -8.076066      -219.7609
  18   2.0000      -6.038784      -164.3237
  19   2.0000      -6.034828      -164.2160
  20   2.0000      -6.034532      -164.2080
  21   2.0000      -6.030863      -164.1081
  22   2.0000      -6.030674      -164.1030
  23   2.0000      -6.026525      -163.9901
  24   2.0000      -1.000428       -27.2230
  25   2.0000      -0.978815       -26.6349
  26   2.0000      -0.917693       -24.9717
  27   2.0000      -0.914771       -24.8922
  28   2.0000      -0.869022       -23.6473
  29   2.0000      -0.847457       -23.0605
  30   2.0000      -0.843518       -22.9533
  31   2.0000      -0.816328       -22.2134
  32   2.0000      -0.783930       -21.3318
  33   2.0000      -0.772591       -21.0233
  34   2.0000      -0.708425       -19.2772
  35   2.0000      -0.700893       -19.0723
  36   2.0000      -0.696332       -18.9481
  37   2.0000      -0.658378       -17.9154
  38   2.0000      -0.646583       -17.5944
  39   2.0000      -0.617605       -16.8059
  40   2.0000      -0.596002       -16.2180
  41   2.0000      -0.581611       -15.8264
  42   2.0000      -0.568109       -15.4590
  43   2.0000      -0.549849       -14.9621
  44   2.0000      -0.542078       -14.7507
  45   2.0000      -0.524299       -14.2669
  46   2.0000      -0.520017       -14.1504
  47   2.0000      -0.516563       -14.0564
  48   2.0000      -0.508826       -13.8459
  49   2.0000      -0.497516       -13.5381
  50   2.0000      -0.489752       -13.3268
  51   2.0000      -0.485141       -13.2013
  52   2.0000      -0.471378       -12.8268
  53   2.0000      -0.462116       -12.5748
  54   2.0000      -0.459925       -12.5152
  55   2.0000      -0.445369       -12.1191
  56   2.0000      -0.441763       -12.0210
  57   2.0000      -0.438398       -11.9294
  58   2.0000      -0.435258       -11.8440
  59   2.0000      -0.423022       -11.5110
  60   2.0000      -0.420039       -11.4299
  61   2.0000      -0.408120       -11.1055
  62   2.0000      -0.405005       -11.0208
  63   2.0000      -0.335049        -9.1171
  64   2.0000      -0.328927        -8.9506
  65   2.0000      -0.325139        -8.8475
  66   2.0000      -0.315696        -8.5905
  67   0.0000       0.038504         1.0478
  68   0.0000       0.047433         1.2907
  69   0.0000       0.107950         2.9375
  70   0.0000       0.111801         3.0423
  71   0.0000       0.121796         3.3142

MULLIKEN ATOMIC CHARGES
-----------------------
   0 S :    0.103880
   1 C :   -0.131120
   2 C :   -0.101937
   3 C :    0.046155
   4 C :   -0.144728
   5 H :    0.009582
   6 C :    0.063028
   7 H :    0.020402
   8 H :    0.017150
   9 C :   -0.034905
  10 H :    0.030083
  11 H :    0.026466
  12 C :   -0.060779
  13 H :    0.030448
  14 H :    0.021613
  15 H :    0.038138
  16 S :    0.081677
  17 C :   -0.078110
  18 C :   -0.060128
  19 C :   -0.016627
  20 C :   -0.182596
  21 H :    0.045414
  22 C :    0.054750
  23 H :    0.028977
  24 H :    0.023411
  25 C :   -0.049961
  26 H :    0.005451
  27 H :    0.015773
  28 C :   -0.022219
  29 H :    0.032738
  30 H :    0.020208
  31 H :    0.041170
  32 H :    0.064498
  33 H :    0.062098
Sum of atomic charges:   -0.0000000

LOEWDIN ATOMIC CHARGES
----------------------
   0 S :    0.384375
   1 C :   -0.176542
   2 C :   -0.061312
   3 C :   -0.056296
   4 C :   -0.199344
   5 H :    0.026683
   6 C :   -0.043718
   7 H :    0.032333
   8 H :    0.032023
   9 C :   -0.030203
  10 H :    0.021020
  11 H :    0.028084
  12 C :   -0.060801
  13 H :    0.016725
  14 H :    0.021233
  15 H :    0.026493
  16 S :    0.351878
  17 C :   -0.171648
  18 C :   -0.082476
  19 C :   -0.048831
  20 C :   -0.171397
  21 H :    0.043696
  22 C :   -0.031813
  23 H :    0.030590
  24 H :    0.032170
  25 C :   -0.044586
  26 H :    0.023116
  27 H :    0.018650
  28 C :   -0.055471
  29 H :    0.025366
  30 H :    0.018177
  31 H :    0.032739
  32 H :    0.035647
  33 H :    0.033441

  Mayer bond orders larger than 0.100000
B(  0-S ,  1-C ) :   1.1255 B(  0-S ,  4-C ) :   1.1395 B(  1-C ,  2-C ) :   1.6136
B(  1-C , 32-H ) :   0.9707 B(  2-C ,  3-C ) :   1.2189 B(  2-C ,  6-C ) :   1.0434
B(  3-C ,  4-C ) :   1.5996 B(  3-C ,  5-H ) :   0.9917 B(  4-C , 20-C ) :   1.0153
B(  6-C ,  7-H ) :   0.9313 B(  6-C ,  8-H ) :   0.9352 B(  6-C ,  9-C ) :   1.0650
B(  9-C , 10-H ) :   0.9572 B(  9-C , 11-H ) :   0.9546 B(  9-C , 12-C ) :   1.0866
B( 12-C , 13-H ) :   0.9742 B( 12-C , 14-H ) :   0.9714 B( 12-C , 15-H ) :   0.9724
B( 16-S , 17-C ) :   1.1365 B( 16-S , 20-C ) :   1.0994 B( 17-C , 18-C ) :   1.6643
B( 17-C , 33-H ) :   0.9596 B( 18-C , 19-C ) :   1.1938 B( 18-C , 21-H ) :   0.9747
B( 19-C , 20-C ) :   1.6508 B( 19-C , 22-C ) :   1.0748 B( 22-C , 23-H ) :   0.9254
B( 22-C , 24-H ) :   0.9286 B( 22-C , 25-C ) :   1.0608 B( 25-C , 26-H ) :   0.9484
B( 25-C , 27-H ) :   0.9495 B( 25-C , 28-C ) :   1.0778 B( 28-C , 29-H ) :   0.9724
B( 28-C , 30-H ) :   0.9736 B( 28-C , 31-H ) :   0.9716

Dispersion correction           -0.016072322
FINAL SINGLE POINT ENERGY     -1339.874045573374

DIPOLE MOMENT
-------------
                                X             Y             Z
Electronic contribution:      1.88360      29.05385      -3.92926
Nuclear contribution   :     -1.87734     -29.68526       4.14063
                        -----------------------------------------
Total Dipole Moment    :      0.00626      -0.63141       0.21138
                        -----------------------------------------
Magnitude (a.u.)       :      0.66588
Magnitude (Debye)      :      1.69254

Rotational constants in cm-1:     0.018539     0.009956     0.007470
Rotational constants in MHz :   555.774811   298.460176   223.959368

                             ****ORCA TERMINATED NORMALLY****
TOTAL RUN TIME: 0 days 0 hours 0 minutes 31 seconds 100 msec
