                         Program Version 4.2.1 -  RELEASE  -
|  1> ! wB97X-D3 SP def2-SVP
|  2> %pal
|  3> nprocs 16
|  4> end
|  5>
|  6> * xyz 0 1
|  7> S 	 -106.905 	 52.9949 	 115.286
|  8> C 	 -107.825 	 52.2665 	 116.59
|  9> C 	 -107.549 	 52.8543 	 117.815
| 10> C 	 -106.523 	 53.7684 	 117.747
| 11> C 	 -106.23 	 54.0585 	 116.454
| 12> H 	 -106.084 	 54.3853 	 118.523
| 13> C 	 -108.271 	 52.7415 	 119.112
| 14> H 	 -107.753 	 53.4153 	 119.771
| 15> H 	 -108.085 	 51.709 	 119.469
| 16> C 	 -109.841 	 53.1275 	 119.12
| 17> H 	 -110.476 	 52.4522 	 118.465
| 18> H 	 -110.186 	 52.9092 	 120.075
| 19> C 	 -110.101 	 54.4418 	 118.55
| 20> H 	 -109.929 	 54.2461 	 117.449
| 21> H 	 -111.088 	 54.7548 	 118.774
| 22> H 	 -109.388 	 55.1995 	 118.896
| 23> S 	 -103.572 	 54.1039 	 115.9
| 24> C 	 -102.928 	 55.5892 	 115.334
| 25> C 	 -103.851 	 56.637 	 115.38
| 26> C 	 -105.133 	 56.248 	 115.79
| 27> C 	 -105.1 	 54.9127 	 116.016
| 28> H 	 -103.716 	 57.724 	 115.083
| 29> C 	 -106.304 	 57.1891 	 115.745
| 30> H 	 -105.949 	 58.0476 	 116.293
| 31> H 	 -107.101 	 56.821 	 116.43
| 32> C 	 -106.846 	 57.4831 	 114.368
| 33> H 	 -106.169 	 58.1843 	 113.851
| 34> H 	 -107.685 	 58.1347 	 114.454
| 35> C 	 -107.151 	 56.3238 	 113.363
| 36> H 	 -108.142 	 55.8563 	 113.518
| 37> H 	 -106.429 	 55.4614 	 113.408
| 38> H 	 -107.113 	 56.7028 	 112.407
| 39> H 	 -108.568 	 51.4977 	 116.472
| 40> H 	 -101.901 	 55.6068 	 114.958
| 41> *
| 42>
| 43>                          ****END OF INPUT****

CARTESIAN COORDINATES (ANGSTROEM)
---------------------------------
  S    -106.905000   52.994900  115.286000
  C    -107.825000   52.266500  116.590000
  C    -107.549000   52.854300  117.815000
  C    -106.523000   53.768400  117.747000
  C    -106.230000   54.058500  116.454000
  H    -106.084000   54.385300  118.523000
  C    -108.271000   52.741500  119.112000
  H    -107.753000   53.415300  119.771000
  H    -108.085000   51.709000  119.469000
  C    -109.841000   53.127500  119.120000
  H    -110.476000   52.452200  118.465000
  H    -110.186000   52.909200  120.075000
  C    -110.101000   54.441800  118.550000
  H    -109.929000   54.246100  117.449000
  H    -111.088000   54.754800  118.774000
  H    -109.388000   55.199500  118.896000
  S    -103.572000   54.103900  115.900000
  C    -102.928000   55.589200  115.334000
  C    -103.851000   56.637000  115.380000
  C    -105.133000   56.248000  115.790000
  C    -105.100000   54.912700  116.016000
  H    -103.716000   57.724000  115.083000
  C    -106.304000   57.189100  115.745000
  H    -105.949000   58.047600  116.293000
  H    -107.101000   56.821000  116.430000
  C    -106.846000   57.483100  114.368000
  H    -106.169000   58.184300  113.851000
  H    -107.685000   58.134700  114.454000
  C    -107.151000   56.323800  113.363000
  H    -108.142000   55.856300  113.518000
  H    -106.429000   55.461400  113.408000
  H    -107.113000   56.702800  112.407000
  H    -108.568000   51.497700  116.472000
  H    -101.901000   55.606800  114.958000

 Total Charge           Charge          ....    0
 Multiplicity           Mult            ....    1
 Number of Electrons    NEL             ....  134
 Basis Dimension        Dim             ....  322

ORBITAL ENERGIES
----------------

  NO   OCC          E(Eh)            E(eV)
   0   2.0000     -88.967082     -2420.9174
   1   2.0000     -88.964875     -2420.8573
   2   2.0000     -10.314443      -280.6703
   3   2.0000     -10.314077      -280.6603
   4   2.0000     -10.312408      -280.6149
   5   2.0000     -10.307353      -280.4773
   6   2.0000     -10.293046      -280.0880
   7   2.0000     -10.291372      -280.0425
   8   2.0000     -10.291247      -280.0391
   9   2.0000     -10.290457      -280.0176
  10   2.0000     -10.289521      -279.9921
  11   2.0000     -10.286130      -279.8998
  12   2.0000     -10.284479      -279.8549
  13   2.0000     -10.280941      -279.7586
  14   2.0000     -10.274221      -279.5758
  15   2.0000     -10.271515      -279.5021
  16   2.0000      -8.081948      -219.9210
  17   2.0000      -8.080821      -219.8903
  18   2.0000      -6.040175      -164.3615
  19   2.0000      -6.039024      -164.3302
  20   2.0000      -6.036532      -164.2624
  21   2.0000      -6.035364      -164.2306
  22   2.0000      -6.032918      -164.1641
  23   2.0000      -6.031638      -164.1292
  24   2.0000      -1.014708       -27.6116
  25   2.0000      -0.991552       -26.9815
  26   2.0000      -0.912691       -24.8356
  27   2.0000      -0.910736       -24.7824
  28   2.0000      -0.866343       -23.5744
  29   2.0000      -0.854653       -23.2563
  30   2.0000      -0.851831       -23.1795
  31   2.0000      -0.805491       -21.9185
  32   2.0000      -0.790299       -21.5051
  33   2.0000      -0.770046       -20.9540
  34   2.0000      -0.706034       -19.2122
  35   2.0000      -0.701633       -19.0924
  36   2.0000      -0.685633       -18.6570
  37   2.0000      -0.659554       -17.9474
  38   2.0000      -0.642923       -17.4948
  39   2.0000      -0.605834       -16.4856
  40   2.0000      -0.595716       -16.2103
  41   2.0000      -0.569042       -15.4844
  42   2.0000      -0.557619       -15.1736
  43   2.0000      -0.555464       -15.1149
  44   2.0000      -0.540120       -14.6974
  45   2.0000      -0.533875       -14.5275
  46   2.0000      -0.514065       -13.9884
  47   2.0000      -0.511340       -13.9143
  48   2.0000      -0.496646       -13.5144
  49   2.0000      -0.490983       -13.3603
  50   2.0000      -0.482665       -13.1340
  51   2.0000      -0.474561       -12.9135
  52   2.0000      -0.471295       -12.8246
  53   2.0000      -0.465207       -12.6589
  54   2.0000      -0.458532       -12.4773
  55   2.0000      -0.452935       -12.3250
  56   2.0000      -0.445939       -12.1346
  57   2.0000      -0.441624       -12.0172
  58   2.0000      -0.433450       -11.7948
  59   2.0000      -0.425808       -11.5868
  60   2.0000      -0.420714       -11.4482
  61   2.0000      -0.409604       -11.1459
  62   2.0000      -0.405242       -11.0272
  63   2.0000      -0.341954        -9.3050
  64   2.0000      -0.331253        -9.0138
  65   2.0000      -0.309781        -8.4296
  66   2.0000      -0.307156        -8.3581
  67   0.0000       0.048734         1.3261
  68   0.0000       0.057481         1.5641
  69   0.0000       0.111504         3.0342
  70   0.0000       0.115586         3.1453
  71   0.0000       0.137052         3.7294

MULLIKEN ATOMIC CHARGES
-----------------------
   0 S :    0.120769
   1 C :   -0.123637
   2 C :   -0.087422
   3 C :    0.026827
   4 C :   -0.175787
   5 H :    0.016748
   6 C :    0.067364
   7 H :    0.014562
   8 H :    0.040389
   9 C :   -0.059149
  10 H :    0.022899
  11 H :    0.012043
  12 C :   -0.033081
  13 H :    0.053024
  14 H :    0.030494
  15 H :    0.024908
  16 S :    0.140380
  17 C :   -0.105772
  18 C :   -0.041881
  19 C :   -0.039530
  20 C :   -0.225713
  21 H :    0.028352
  22 C :    0.108790
  23 H :    0.020067
  24 H :    0.028210
  25 C :   -0.055832
  26 H :    0.014696
  27 H :    0.019436
  28 C :   -0.032086
  29 H :    0.036403
  30 H :    0.040838
  31 H :    0.018101
  32 H :    0.033138
  33 H :    0.061453
Sum of atomic charges:    0.0000000

LOEWDIN ATOMIC CHARGES
----------------------
   0 S :    0.428045
   1 C :   -0.203922
   2 C :   -0.068414
   3 C :   -0.066672
   4 C :   -0.200618
   5 H :    0.036448
   6 C :   -0.026247
   7 H :    0.025181
   8 H :    0.036644
   9 C :   -0.036091
  10 H :    0.028223
  11 H :    0.009296
  12 C :   -0.065803
  13 H :    0.040646
  14 H :    0.022220
  15 H :    0.021224
  16 S :    0.430591
  17 C :   -0.201139
  18 C :   -0.074146
  19 C :   -0.065847
  20 C :   -0.211224
  21 H :    0.038396
  22 C :   -0.031872
  23 H :    0.034085
  24 H :    0.034903
  25 C :   -0.040608
  26 H :    0.024337
  27 H :    0.023817
  28 C :   -0.061436
  29 H :    0.027381
  30 H :    0.028649
  31 H :    0.016044
  32 H :    0.020795
  33 H :    0.027116

  Mayer bond orders larger than 0.100000
B(  0-S ,  1-C ) :   1.1373 B(  0-S ,  4-C ) :   1.1851 B(  1-C ,  2-C ) :   1.5905
B(  1-C ,  4-C ) :   0.1003 B(  1-C , 32-H ) :   0.9732 B(  2-C ,  3-C ) :   1.2478
B(  2-C ,  6-C ) :   1.0156 B(  3-C ,  4-C ) :   1.5976 B(  3-C ,  5-H ) :   0.9919
B(  4-C , 20-C ) :   0.9607 B(  6-C ,  7-H ) :   0.9467 B(  6-C ,  8-H ) :   0.9302
B(  6-C ,  9-C ) :   1.0615 B(  9-C , 10-H ) :   0.9595 B(  9-C , 11-H ) :   0.9601
B(  9-C , 12-C ) :   1.0686 B( 12-C , 13-H ) :   0.9700 B( 12-C , 14-H ) :   0.9700
B( 12-C , 15-H ) :   0.9770 B( 16-S , 17-C ) :   1.1604 B( 16-S , 20-C ) :   1.1738
B( 17-C , 18-C ) :   1.5795 B( 17-C , 33-H ) :   0.9704 B( 18-C , 19-C ) :   1.2574
B( 18-C , 21-H ) :   0.9790 B( 19-C , 20-C ) :   1.6229 B( 19-C , 22-C ) :   1.0432
B( 22-C , 23-H ) :   0.9238 B( 22-C , 24-H ) :   0.9247 B( 22-C , 25-C ) :   1.0759
B( 25-C , 26-H ) :   0.9542 B( 25-C , 27-H ) :   0.9504 B( 25-C , 28-C ) :   1.0685
B( 28-C , 29-H ) :   0.9761 B( 28-C , 30-H ) :   0.9738 B( 28-C , 31-H ) :   0.9735

Dispersion correction           -0.016168121
FINAL SINGLE POINT ENERGY     -1339.858558452665

DIPOLE MOMENT
-------------
                                X             Y             Z
Electronic contribution:     19.38119     -10.61465      -4.56484
Nuclear contribution   :    -19.69865      10.94403       4.77905
                        -----------------------------------------
Total Dipole Moment    :     -0.31746       0.32938       0.21421
                        -----------------------------------------
Magnitude (a.u.)       :      0.50513
Magnitude (Debye)      :      1.28394

Rotational constants in cm-1:     0.021080     0.009379     0.008094
Rotational constants in MHz :   631.953893   281.182046   242.661242

                             ****ORCA TERMINATED NORMALLY****
TOTAL RUN TIME: 0 days 0 hours 0 minutes 35 seconds 658 msec
