                         Program Version 4.2.1 -  RELEASE  -
|  1> ! wB97X-D3 SP def2-SVP
|  2> %pal
|  3> nprocs 16
|  4> end
|  5>
|  6> * xyz 0 1
|  7> S 	 -30.5664 	 60.9501 	 105.883
|  8> C 	 -29.2133 	 61.5612 	 106.712
|  9> C 	 -29.3744 	 62.8235 	 107.135
| 10> C 	 -30.7074 	 63.2927 	 107.003
| 11> C 	 -31.5152 	 62.3575 	 106.306
| 12> H 	 -31.1864 	 64.2171 	 107.284
| 13> C 	 -28.2406 	 63.6572 	 107.667
| 14> H 	 -27.274 	 63.2675 	 107.508
| 15> H 	 -28.3677 	 63.5601 	 108.732
| 16> C 	 -28.1368 	 65.1034 	 107.281
| 17> H 	 -28.9942 	 65.5336 	 107.784
| 18> H 	 -27.273 	 65.6428 	 107.765
| 19> C 	 -28.189 	 65.3043 	 105.734
| 20> H 	 -28.9909 	 64.7214 	 105.269
| 21> H 	 -28.3345 	 66.3346 	 105.344
| 22> H 	 -27.2618 	 64.974 	 105.3
| 23> S 	 -34.1432 	 62.5599 	 106.936
| 24> C 	 -35.2814 	 62.9985 	 105.731
| 25> C 	 -34.663 	 63.1688 	 104.508
| 26> C 	 -33.2258 	 63.0875 	 104.573
| 27> C 	 -32.8169 	 62.7102 	 105.816
| 28> H 	 -35.2348 	 63.2696 	 103.61
| 29> C 	 -32.4143 	 63.397 	 103.334
| 30> H 	 -31.536 	 64.0091 	 103.564
| 31> H 	 -33.0404 	 64.0271 	 102.629
| 32> C 	 -32.0225 	 62.1015 	 102.594
| 33> H 	 -32.8826 	 61.4225 	 102.516
| 34> H 	 -31.2822 	 61.57 	 103.181
| 35> C 	 -31.4593 	 62.4663 	 101.193
| 36> H 	 -30.5444 	 63.0379 	 101.166
| 37> H 	 -32.1619 	 63.0527 	 100.608
| 38> H 	 -31.203 	 61.556 	 100.704
| 39> H 	 -28.3051 	 61.0233 	 106.854
| 40> H 	 -36.3859 	 62.9982 	 105.757
| 41> *
| 42>
| 43>                          ****END OF INPUT****

CARTESIAN COORDINATES (ANGSTROEM)
---------------------------------
  S    -30.566400   60.950100  105.883000
  C    -29.213300   61.561200  106.712000
  C    -29.374400   62.823500  107.135000
  C    -30.707400   63.292700  107.003000
  C    -31.515200   62.357500  106.306000
  H    -31.186400   64.217100  107.284000
  C    -28.240600   63.657200  107.667000
  H    -27.274000   63.267500  107.508000
  H    -28.367700   63.560100  108.732000
  C    -28.136800   65.103400  107.281000
  H    -28.994200   65.533600  107.784000
  H    -27.273000   65.642800  107.765000
  C    -28.189000   65.304300  105.734000
  H    -28.990900   64.721400  105.269000
  H    -28.334500   66.334600  105.344000
  H    -27.261800   64.974000  105.300000
  S    -34.143200   62.559900  106.936000
  C    -35.281400   62.998500  105.731000
  C    -34.663000   63.168800  104.508000
  C    -33.225800   63.087500  104.573000
  C    -32.816900   62.710200  105.816000
  H    -35.234800   63.269600  103.610000
  C    -32.414300   63.397000  103.334000
  H    -31.536000   64.009100  103.564000
  H    -33.040400   64.027100  102.629000
  C    -32.022500   62.101500  102.594000
  H    -32.882600   61.422500  102.516000
  H    -31.282200   61.570000  103.181000
  C    -31.459300   62.466300  101.193000
  H    -30.544400   63.037900  101.166000
  H    -32.161900   63.052700  100.608000
  H    -31.203000   61.556000  100.704000
  H    -28.305100   61.023300  106.854000
  H    -36.385900   62.998200  105.757000

 Total Charge           Charge          ....    0
 Multiplicity           Mult            ....    1
 Number of Electrons    NEL             ....  134
 Basis Dimension        Dim             ....  322

ORBITAL ENERGIES
----------------

  NO   OCC          E(Eh)            E(eV)
   0   2.0000     -88.969548     -2420.9845
   1   2.0000     -88.962979     -2420.8057
   2   2.0000     -10.326454      -280.9971
   3   2.0000     -10.317942      -280.7655
   4   2.0000     -10.313365      -280.6409
   5   2.0000     -10.304486      -280.3993
   6   2.0000     -10.297623      -280.2126
   7   2.0000     -10.297004      -280.1957
   8   2.0000     -10.296608      -280.1849
   9   2.0000     -10.294010      -280.1142
  10   2.0000     -10.290199      -280.0106
  11   2.0000     -10.287414      -279.9348
  12   2.0000     -10.284771      -279.8629
  13   2.0000     -10.282186      -279.7925
  14   2.0000     -10.278157      -279.6829
  15   2.0000     -10.271789      -279.5096
  16   2.0000      -8.084449      -219.9890
  17   2.0000      -8.078514      -219.8275
  18   2.0000      -6.042798      -164.4329
  19   2.0000      -6.038906      -164.3270
  20   2.0000      -6.037069      -164.2770
  21   2.0000      -6.035387      -164.2312
  22   2.0000      -6.032851      -164.1622
  23   2.0000      -6.029231      -164.0637
  24   2.0000      -1.012844       -27.5609
  25   2.0000      -0.991589       -26.9825
  26   2.0000      -0.916654       -24.9434
  27   2.0000      -0.906093       -24.6560
  28   2.0000      -0.873807       -23.7775
  29   2.0000      -0.847983       -23.0748
  30   2.0000      -0.846097       -23.0235
  31   2.0000      -0.812944       -22.1213
  32   2.0000      -0.785410       -21.3721
  33   2.0000      -0.773000       -21.0344
  34   2.0000      -0.711865       -19.3708
  35   2.0000      -0.697340       -18.9756
  36   2.0000      -0.692555       -18.8454
  37   2.0000      -0.662449       -18.0261
  38   2.0000      -0.646085       -17.5809
  39   2.0000      -0.619434       -16.8557
  40   2.0000      -0.595840       -16.2136
  41   2.0000      -0.567770       -15.4498
  42   2.0000      -0.559611       -15.2278
  43   2.0000      -0.557394       -15.1675
  44   2.0000      -0.541529       -14.7358
  45   2.0000      -0.523464       -14.2442
  46   2.0000      -0.515127       -14.0173
  47   2.0000      -0.507093       -13.7987
  48   2.0000      -0.503804       -13.7092
  49   2.0000      -0.498650       -13.5689
  50   2.0000      -0.490107       -13.3365
  51   2.0000      -0.481614       -13.1054
  52   2.0000      -0.473302       -12.8792
  53   2.0000      -0.467812       -12.7298
  54   2.0000      -0.459769       -12.5109
  55   2.0000      -0.450355       -12.2548
  56   2.0000      -0.446333       -12.1453
  57   2.0000      -0.440207       -11.9786
  58   2.0000      -0.433581       -11.7983
  59   2.0000      -0.428690       -11.6653
  60   2.0000      -0.418696       -11.3933
  61   2.0000      -0.414550       -11.2805
  62   2.0000      -0.410186       -11.1617
  63   2.0000      -0.336317        -9.1517
  64   2.0000      -0.328490        -8.9387
  65   2.0000      -0.323596        -8.8055
  66   2.0000      -0.304156        -8.2765
  67   0.0000       0.045679         1.2430
  68   0.0000       0.057861         1.5745
  69   0.0000       0.112978         3.0743
  70   0.0000       0.123831         3.3696
  71   0.0000       0.132844         3.6149

MULLIKEN ATOMIC CHARGES
-----------------------
   0 S :    0.136438
   1 C :   -0.119798
   2 C :   -0.065984
   3 C :    0.024966
   4 C :   -0.160076
   5 H :    0.018347
   6 C :    0.095794
   7 H :   -0.000054
   8 H :    0.032741
   9 C :   -0.077392
  10 H :    0.020517
  11 H :    0.040748
  12 C :   -0.060345
  13 H :    0.044565
  14 H :    0.037268
  15 H :    0.023069
  16 S :    0.121783
  17 C :   -0.086387
  18 C :   -0.052214
  19 C :   -0.001339
  20 C :   -0.223434
  21 H :    0.010096
  22 C :    0.052326
  23 H :    0.036374
  24 H :    0.023092
  25 C :   -0.077736
  26 H :    0.031737
  27 H :    0.024847
  28 C :   -0.019093
  29 H :    0.022913
  30 H :    0.024689
  31 H :    0.024771
  32 H :    0.034294
  33 H :    0.062475
Sum of atomic charges:   -0.0000000

LOEWDIN ATOMIC CHARGES
----------------------
   0 S :    0.440383
   1 C :   -0.206112
   2 C :   -0.066452
   3 C :   -0.048903
   4 C :   -0.205063
   5 H :    0.032674
   6 C :   -0.032625
   7 H :    0.020009
   8 H :    0.036195
   9 C :   -0.043447
  10 H :    0.018312
  11 H :    0.034002
  12 C :   -0.070040
  13 H :    0.028147
  14 H :    0.029229
  15 H :    0.021760
  16 S :    0.424591
  17 C :   -0.205883
  18 C :   -0.071072
  19 C :   -0.054188
  20 C :   -0.211218
  21 H :    0.025497
  22 C :   -0.031787
  23 H :    0.032162
  24 H :    0.032770
  25 C :   -0.035999
  26 H :    0.025873
  27 H :    0.012288
  28 C :   -0.064013
  29 H :    0.024011
  30 H :    0.022137
  31 H :    0.022516
  32 H :    0.025519
  33 H :    0.038726

  Mayer bond orders larger than 0.100000
B(  0-S ,  1-C ) :   1.1525 B(  0-S ,  4-C ) :   1.1627 B(  1-C ,  2-C ) :   1.6161
B(  1-C , 32-H ) :   0.9694 B(  2-C ,  3-C ) :   1.2325 B(  2-C ,  6-C ) :   1.0069
B(  3-C ,  4-C ) :   1.5547 B(  3-C ,  5-H ) :   0.9965 B(  4-C , 20-C ) :   1.0274
B(  6-C ,  7-H ) :   0.9448 B(  6-C ,  8-H ) :   0.9296 B(  6-C ,  9-C ) :   1.0772
B(  9-C , 10-H ) :   0.9521 B(  9-C , 11-H ) :   0.9560 B(  9-C , 12-C ) :   1.0647
B( 12-C , 13-H ) :   0.9744 B( 12-C , 14-H ) :   0.9772 B( 12-C , 15-H ) :   0.9751
B( 16-S , 17-C ) :   1.1526 B( 16-S , 20-C ) :   1.1438 B( 17-C , 18-C ) :   1.6270
B( 17-C , 33-H ) :   0.9609 B( 18-C , 19-C ) :   1.2335 B( 18-C , 21-H ) :   0.9868
B( 19-C , 20-C ) :   1.6206 B( 19-C , 22-C ) :   1.0406 B( 22-C , 23-H ) :   0.9315
B( 22-C , 24-H ) :   0.9407 B( 22-C , 25-C ) :   1.0599 B( 25-C , 26-H ) :   0.9572
B( 25-C , 27-H ) :   0.9476 B( 25-C , 28-C ) :   1.0829 B( 28-C , 29-H ) :   0.9726
B( 28-C , 30-H ) :   0.9759 B( 28-C , 31-H ) :   0.9731

Dispersion correction           -0.015393152
FINAL SINGLE POINT ENERGY     -1339.882735487649

DIPOLE MOMENT
-------------
                                X             Y             Z
Electronic contribution:    -14.96068     -12.42375      14.25324
Nuclear contribution   :     15.28608      12.69237     -14.51686
                        -----------------------------------------
Total Dipole Moment    :      0.32540       0.26862      -0.26362
                        -----------------------------------------
Magnitude (a.u.)       :      0.49753
Magnitude (Debye)      :      1.26463

Rotational constants in cm-1:     0.017314     0.009660     0.008084
Rotational constants in MHz :   519.050228   289.594642   242.351834

                             ****ORCA TERMINATED NORMALLY****
TOTAL RUN TIME: 0 days 0 hours 0 minutes 32 seconds 166 msec
