                         Program Version 4.2.1 -  RELEASE  -
|  1> ! wB97X-D3 SP def2-SVP
|  2> %pal
|  3> nprocs 16
|  4> end
|  5>
|  6> * xyz 0 1
|  7> S 	 -12.9494 	 -7.67615 	 86.0047
|  8> C 	 -12.2024 	 -7.68385 	 87.5538
|  9> C 	 -12.9006 	 -6.94662 	 88.4905
| 10> C 	 -14.09 	 -6.35615 	 87.9066
| 11> C 	 -14.2837 	 -6.70526 	 86.6125
| 12> H 	 -14.7931 	 -5.70906 	 88.4501
| 13> C 	 -12.4439 	 -6.6553 	 89.9004
| 14> H 	 -12.6267 	 -5.5888 	 90.0262
| 15> H 	 -11.3336 	 -6.71196 	 89.9255
| 16> C 	 -13.1345 	 -7.44316 	 91.0041
| 17> H 	 -12.6799 	 -7.32122 	 91.9386
| 18> H 	 -14.104 	 -7.06097 	 91.2164
| 19> C 	 -13.3538 	 -8.98326 	 90.821
| 20> H 	 -13.9014 	 -9.58218 	 91.5392
| 21> H 	 -13.8864 	 -9.16825 	 89.8508
| 22> H 	 -12.4144 	 -9.50629 	 90.6874
| 23> S 	 -14.9799 	 -4.95798 	 84.5768
| 24> C 	 -16.6934 	 -4.82801 	 84.1145
| 25> C 	 -17.4733 	 -5.57084 	 84.8973
| 26> C 	 -16.7162 	 -6.3606 	 85.8518
| 27> C 	 -15.3526 	 -6.17314 	 85.7727
| 28> H 	 -18.529 	 -5.48384 	 84.7469
| 29> C 	 -17.4133 	 -7.33563 	 86.7769
| 30> H 	 -18.1787 	 -6.84097 	 87.3334
| 31> H 	 -16.6593 	 -7.81168 	 87.4249
| 32> C 	 -18.2048 	 -8.489 	 86.0993
| 33> H 	 -18.9493 	 -8.08535 	 85.3078
| 34> H 	 -18.8122 	 -8.9881 	 86.9163
| 35> C 	 -17.3247 	 -9.53225 	 85.5533
| 36> H 	 -16.9929 	 -9.21259 	 84.5467
| 37> H 	 -17.7613 	 -10.5272 	 85.4943
| 38> H 	 -16.4287 	 -9.83121 	 86.13
| 39> H 	 -11.268 	 -8.20063 	 87.7497
| 40> H 	 -17.1584 	 -4.11286 	 83.4083
| 41> *
| 42>
| 43>                          ****END OF INPUT****

CARTESIAN COORDINATES (ANGSTROEM)
---------------------------------
  S    -12.949400   -7.676150   86.004700
  C    -12.202400   -7.683850   87.553800
  C    -12.900600   -6.946620   88.490500
  C    -14.090000   -6.356150   87.906600
  C    -14.283700   -6.705260   86.612500
  H    -14.793100   -5.709060   88.450100
  C    -12.443900   -6.655300   89.900400
  H    -12.626700   -5.588800   90.026200
  H    -11.333600   -6.711960   89.925500
  C    -13.134500   -7.443160   91.004100
  H    -12.679900   -7.321220   91.938600
  H    -14.104000   -7.060970   91.216400
  C    -13.353800   -8.983260   90.821000
  H    -13.901400   -9.582180   91.539200
  H    -13.886400   -9.168250   89.850800
  H    -12.414400   -9.506290   90.687400
  S    -14.979900   -4.957980   84.576800
  C    -16.693400   -4.828010   84.114500
  C    -17.473300   -5.570840   84.897300
  C    -16.716200   -6.360600   85.851800
  C    -15.352600   -6.173140   85.772700
  H    -18.529000   -5.483840   84.746900
  C    -17.413300   -7.335630   86.776900
  H    -18.178700   -6.840970   87.333400
  H    -16.659300   -7.811680   87.424900
  C    -18.204800   -8.489000   86.099300
  H    -18.949300   -8.085350   85.307800
  H    -18.812200   -8.988100   86.916300
  C    -17.324700   -9.532250   85.553300
  H    -16.992900   -9.212590   84.546700
  H    -17.761300  -10.527200   85.494300
  H    -16.428700   -9.831210   86.130000
  H    -11.268000   -8.200630   87.749700
  H    -17.158400   -4.112860   83.408300

 Total Charge           Charge          ....    0
 Multiplicity           Mult            ....    1
 Number of Electrons    NEL             ....  134
 Basis Dimension        Dim             ....  322

ORBITAL ENERGIES
----------------

  NO   OCC          E(Eh)            E(eV)
   0   2.0000     -88.966460     -2420.9004
   1   2.0000     -88.961255     -2420.7588
   2   2.0000     -10.326592      -281.0008
   3   2.0000     -10.324312      -280.9388
   4   2.0000     -10.315513      -280.6994
   5   2.0000     -10.313615      -280.6477
   6   2.0000     -10.302842      -280.3546
   7   2.0000     -10.301533      -280.3190
   8   2.0000     -10.297349      -280.2051
   9   2.0000     -10.295796      -280.1628
  10   2.0000     -10.291480      -280.0454
  11   2.0000     -10.288615      -279.9674
  12   2.0000     -10.286494      -279.9097
  13   2.0000     -10.283183      -279.8196
  14   2.0000     -10.277094      -279.6539
  15   2.0000     -10.268399      -279.4173
  16   2.0000      -8.081684      -219.9138
  17   2.0000      -8.075955      -219.7579
  18   2.0000      -6.040143      -164.3606
  19   2.0000      -6.036171      -164.2525
  20   2.0000      -6.034602      -164.2099
  21   2.0000      -6.032416      -164.1504
  22   2.0000      -6.030585      -164.1005
  23   2.0000      -6.026428      -163.9874
  24   2.0000      -1.008313       -27.4376
  25   2.0000      -0.986140       -26.8342
  26   2.0000      -0.910716       -24.7818
  27   2.0000      -0.907193       -24.6860
  28   2.0000      -0.874357       -23.7925
  29   2.0000      -0.847909       -23.0728
  30   2.0000      -0.843096       -22.9418
  31   2.0000      -0.820566       -22.3287
  32   2.0000      -0.783724       -21.3262
  33   2.0000      -0.770983       -20.9795
  34   2.0000      -0.711694       -19.3662
  35   2.0000      -0.699430       -19.0325
  36   2.0000      -0.684612       -18.6292
  37   2.0000      -0.653285       -17.7768
  38   2.0000      -0.643475       -17.5098
  39   2.0000      -0.619813       -16.8660
  40   2.0000      -0.592755       -16.1297
  41   2.0000      -0.569360       -15.4931
  42   2.0000      -0.553736       -15.0679
  43   2.0000      -0.551213       -14.9993
  44   2.0000      -0.546428       -14.8691
  45   2.0000      -0.538815       -14.6619
  46   2.0000      -0.513733       -13.9794
  47   2.0000      -0.508159       -13.8277
  48   2.0000      -0.501690       -13.6517
  49   2.0000      -0.496178       -13.5017
  50   2.0000      -0.486862       -13.2482
  51   2.0000      -0.479877       -13.0581
  52   2.0000      -0.468442       -12.7470
  53   2.0000      -0.463134       -12.6025
  54   2.0000      -0.457470       -12.4484
  55   2.0000      -0.451275       -12.2798
  56   2.0000      -0.442877       -12.0513
  57   2.0000      -0.437412       -11.9026
  58   2.0000      -0.434838       -11.8325
  59   2.0000      -0.417302       -11.3554
  60   2.0000      -0.414570       -11.2810
  61   2.0000      -0.413486       -11.2515
  62   2.0000      -0.404583       -11.0093
  63   2.0000      -0.346827        -9.4376
  64   2.0000      -0.330113        -8.9828
  65   2.0000      -0.325127        -8.8472
  66   2.0000      -0.304336        -8.2814
  67   0.0000       0.043282         1.1778
  68   0.0000       0.067624         1.8401
  69   0.0000       0.118062         3.2126
  70   0.0000       0.120908         3.2901
  71   0.0000       0.131738         3.5848

MULLIKEN ATOMIC CHARGES
-----------------------
   0 S :    0.121046
   1 C :   -0.122301
   2 C :   -0.113407
   3 C :    0.047522
   4 C :   -0.184989
   5 H :    0.025438
   6 C :    0.076397
   7 H :    0.031255
   8 H :    0.029250
   9 C :   -0.015033
  10 H :    0.014874
  11 H :    0.013202
  12 C :   -0.083552
  13 H :    0.035778
  14 H :    0.039551
  15 H :    0.019452
  16 S :    0.097938
  17 C :   -0.093379
  18 C :   -0.030189
  19 C :   -0.025594
  20 C :   -0.151964
  21 H :    0.014244
  22 C :    0.090994
  23 H :    0.020431
  24 H :    0.030879
  25 C :   -0.117913
  26 H :    0.045677
  27 H :    0.032832
  28 C :   -0.051542
  29 H :    0.039849
  30 H :    0.024786
  31 H :    0.026029
  32 H :    0.050497
  33 H :    0.061942
Sum of atomic charges:    0.0000000

LOEWDIN ATOMIC CHARGES
----------------------
   0 S :    0.413501
   1 C :   -0.200640
   2 C :   -0.066321
   3 C :   -0.053201
   4 C :   -0.199576
   5 H :    0.037738
   6 C :   -0.031090
   7 H :    0.037755
   8 H :    0.034398
   9 C :   -0.037363
  10 H :    0.019544
  11 H :    0.021371
  12 C :   -0.074472
  13 H :    0.026108
  14 H :    0.029982
  15 H :    0.019233
  16 S :    0.385086
  17 C :   -0.174804
  18 C :   -0.073616
  19 C :   -0.054143
  20 C :   -0.201729
  21 H :    0.031393
  22 C :   -0.029816
  23 H :    0.027530
  24 H :    0.031985
  25 C :   -0.050870
  26 H :    0.031654
  27 H :    0.028224
  28 C :   -0.080028
  29 H :    0.030071
  30 H :    0.025079
  31 H :    0.028663
  32 H :    0.028988
  33 H :    0.039367

  Mayer bond orders larger than 0.100000
B(  0-S ,  1-C ) :   1.1462 B(  0-S ,  4-C ) :   1.1431 B(  1-C ,  2-C ) :   1.6174
B(  1-C , 32-H ) :   0.9664 B(  2-C ,  3-C ) :   1.2227 B(  2-C ,  6-C ) :   1.0218
B(  3-C ,  4-C ) :   1.6040 B(  3-C ,  5-H ) :   0.9924 B(  4-C , 20-C ) :   1.0149
B(  6-C ,  7-H ) :   0.9399 B(  6-C ,  8-H ) :   0.9444 B(  6-C ,  9-C ) :   1.0644
B(  9-C , 10-H ) :   0.9548 B(  9-C , 11-H ) :   0.9531 B(  9-C , 12-C ) :   1.0711
B( 12-C , 13-H ) :   0.9783 B( 12-C , 14-H ) :   0.9708 B( 12-C , 15-H ) :   0.9774
B( 16-S , 17-C ) :   1.1263 B( 16-S , 20-C ) :   1.1271 B( 17-C , 18-C ) :   1.6824
B( 17-C , 33-H ) :   0.9577 B( 18-C , 19-C ) :   1.1830 B( 18-C , 21-H ) :   0.9924
B( 19-C , 20-C ) :   1.6405 B( 19-C , 22-C ) :   1.0544 B( 22-C , 23-H ) :   0.9283
B( 22-C , 24-H ) :   0.9348 B( 22-C , 25-C ) :   1.0746 B( 25-C , 26-H ) :   0.9523
B( 25-C , 27-H ) :   0.9551 B( 25-C , 28-C ) :   1.0776 B( 28-C , 29-H ) :   0.9738
B( 28-C , 30-H ) :   0.9721 B( 28-C , 31-H ) :   0.9700

Dispersion correction           -0.015076646
FINAL SINGLE POINT ENERGY     -1339.885189124050

DIPOLE MOMENT
-------------
                                X             Y             Z
Electronic contribution:      8.56696      14.08863     -18.72135
Nuclear contribution   :     -8.87832     -14.08683      19.28623
                        -----------------------------------------
Total Dipole Moment    :     -0.31137       0.00180       0.56488
                        -----------------------------------------
Magnitude (a.u.)       :      0.64501
Magnitude (Debye)      :      1.63949

Rotational constants in cm-1:     0.019731     0.008771     0.007425
Rotational constants in MHz :   591.513154   262.961897   222.605448

                             ****ORCA TERMINATED NORMALLY****
TOTAL RUN TIME: 0 days 0 hours 0 minutes 34 seconds 404 msec
