                         Program Version 4.2.1 -  RELEASE  -
|  1> ! wB97X-D3 SP def2-SVP
|  2> %pal
|  3> nprocs 16
|  4> end
|  5>
|  6> * xyz 0 1
|  7> S 	 11.7676 	 -7.52951 	 65.3003
|  8> C 	 10.3139 	 -7.46446 	 66.2046
|  9> C 	 10.4219 	 -8.28166 	 67.2977
| 10> C 	 11.5676 	 -9.11961 	 67.1948
| 11> C 	 12.473 	 -8.87445 	 66.1415
| 12> H 	 11.8651 	 -9.8647 	 67.8861
| 13> C 	 9.36553 	 -8.44105 	 68.3789
| 14> H 	 8.99089 	 -7.38195 	 68.6596
| 15> H 	 9.94155 	 -8.91294 	 69.2783
| 16> C 	 8.1504 	 -9.38012 	 67.9877
| 17> H 	 7.81449 	 -9.15533 	 66.9477
| 18> H 	 8.56458 	 -10.3861 	 68.0026
| 19> C 	 7.03014 	 -9.36388 	 69.0365
| 20> H 	 6.14554 	 -9.83615 	 68.7108
| 21> H 	 7.35122 	 -9.83709 	 69.9679
| 22> H 	 6.68816 	 -8.32186 	 69.2444
| 23> S 	 15.2749 	 -8.96733 	 65.9951
| 24> C 	 15.9471 	 -10.4334 	 65.3247
| 25> C 	 15.0075 	 -11.192 	 64.6931
| 26> C 	 13.705 	 -10.708 	 64.853
| 27> C 	 13.6549 	 -9.60826 	 65.6814
| 28> H 	 15.3301 	 -12.0231 	 64.1588
| 29> C 	 12.5178 	 -11.4391 	 64.2503
| 30> H 	 12.7333 	 -11.9855 	 63.364
| 31> H 	 11.8454 	 -10.6622 	 63.976
| 32> C 	 11.7613 	 -12.2529 	 65.3058
| 33> H 	 11.3228 	 -11.6177 	 66.0419
| 34> H 	 12.4423 	 -12.8977 	 65.7971
| 35> C 	 10.5976 	 -13.09 	 64.6655
| 36> H 	 9.93247 	 -12.6004 	 64.0033
| 37> H 	 10.1099 	 -13.5181 	 65.4621
| 38> H 	 11.0248 	 -13.8623 	 64.0615
| 39> H 	 9.47497 	 -6.79907 	 66.0395
| 40> H 	 17.0262 	 -10.7024 	 65.3512
| 41> *
| 42>
| 43>                          ****END OF INPUT****

CARTESIAN COORDINATES (ANGSTROEM)
---------------------------------
  S     11.767600   -7.529510   65.300300
  C     10.313900   -7.464460   66.204600
  C     10.421900   -8.281660   67.297700
  C     11.567600   -9.119610   67.194800
  C     12.473000   -8.874450   66.141500
  H     11.865100   -9.864700   67.886100
  C      9.365530   -8.441050   68.378900
  H      8.990890   -7.381950   68.659600
  H      9.941550   -8.912940   69.278300
  C      8.150400   -9.380120   67.987700
  H      7.814490   -9.155330   66.947700
  H      8.564580  -10.386100   68.002600
  C      7.030140   -9.363880   69.036500
  H      6.145540   -9.836150   68.710800
  H      7.351220   -9.837090   69.967900
  H      6.688160   -8.321860   69.244400
  S     15.274900   -8.967330   65.995100
  C     15.947100  -10.433400   65.324700
  C     15.007500  -11.192000   64.693100
  C     13.705000  -10.708000   64.853000
  C     13.654900   -9.608260   65.681400
  H     15.330100  -12.023100   64.158800
  C     12.517800  -11.439100   64.250300
  H     12.733300  -11.985500   63.364000
  H     11.845400  -10.662200   63.976000
  C     11.761300  -12.252900   65.305800
  H     11.322800  -11.617700   66.041900
  H     12.442300  -12.897700   65.797100
  C     10.597600  -13.090000   64.665500
  H      9.932470  -12.600400   64.003300
  H     10.109900  -13.518100   65.462100
  H     11.024800  -13.862300   64.061500
  H      9.474970   -6.799070   66.039500
  H     17.026200  -10.702400   65.351200

 Total Charge           Charge          ....    0
 Multiplicity           Mult            ....    1
 Number of Electrons    NEL             ....  134
 Basis Dimension        Dim             ....  322

ORBITAL ENERGIES
----------------

  NO   OCC          E(Eh)            E(eV)
   0   2.0000     -88.965729     -2420.8806
   1   2.0000     -88.961991     -2420.7789
   2   2.0000     -10.328636      -281.0565
   3   2.0000     -10.325849      -280.9806
   4   2.0000     -10.317946      -280.7656
   5   2.0000     -10.311514      -280.5906
   6   2.0000     -10.309244      -280.5288
   7   2.0000     -10.300397      -280.2881
   8   2.0000     -10.298184      -280.2278
   9   2.0000     -10.294586      -280.1299
  10   2.0000     -10.292179      -280.0644
  11   2.0000     -10.283508      -279.8285
  12   2.0000     -10.281459      -279.7727
  13   2.0000     -10.279423      -279.7173
  14   2.0000     -10.277496      -279.6649
  15   2.0000     -10.264112      -279.3007
  16   2.0000      -8.080368      -219.8780
  17   2.0000      -8.077433      -219.7981
  18   2.0000      -6.038831      -164.3249
  19   2.0000      -6.035816      -164.2429
  20   2.0000      -6.035053      -164.2221
  21   2.0000      -6.031508      -164.1257
  22   2.0000      -6.031026      -164.1126
  23   2.0000      -6.028577      -164.0459
  24   2.0000      -1.009193       -27.4615
  25   2.0000      -0.990656       -26.9571
  26   2.0000      -0.908532       -24.7224
  27   2.0000      -0.903907       -24.5966
  28   2.0000      -0.870050       -23.6753
  29   2.0000      -0.851056       -23.1584
  30   2.0000      -0.845613       -23.0103
  31   2.0000      -0.816361       -22.2143
  32   2.0000      -0.783395       -21.3173
  33   2.0000      -0.769659       -20.9435
  34   2.0000      -0.709592       -19.3090
  35   2.0000      -0.699076       -19.0228
  36   2.0000      -0.694797       -18.9064
  37   2.0000      -0.661943       -18.0124
  38   2.0000      -0.644456       -17.5365
  39   2.0000      -0.616380       -16.7726
  40   2.0000      -0.596844       -16.2410
  41   2.0000      -0.572517       -15.5790
  42   2.0000      -0.567015       -15.4293
  43   2.0000      -0.557331       -15.1658
  44   2.0000      -0.530397       -14.4328
  45   2.0000      -0.519066       -14.1245
  46   2.0000      -0.515920       -14.0389
  47   2.0000      -0.510040       -13.8789
  48   2.0000      -0.506920       -13.7940
  49   2.0000      -0.504274       -13.7220
  50   2.0000      -0.495587       -13.4856
  51   2.0000      -0.478030       -13.0079
  52   2.0000      -0.471447       -12.8287
  53   2.0000      -0.465073       -12.6553
  54   2.0000      -0.463837       -12.6217
  55   2.0000      -0.447180       -12.1684
  56   2.0000      -0.444668       -12.1000
  57   2.0000      -0.437985       -11.9182
  58   2.0000      -0.431367       -11.7381
  59   2.0000      -0.424817       -11.5599
  60   2.0000      -0.422647       -11.5008
  61   2.0000      -0.418898       -11.3988
  62   2.0000      -0.411516       -11.1979
  63   2.0000      -0.335334        -9.1249
  64   2.0000      -0.326685        -8.8896
  65   2.0000      -0.323984        -8.8160
  66   2.0000      -0.307108        -8.3568
  67   0.0000       0.045046         1.2258
  68   0.0000       0.047643         1.2964
  69   0.0000       0.113125         3.0783
  70   0.0000       0.117248         3.1905
  71   0.0000       0.133823         3.6415

MULLIKEN ATOMIC CHARGES
-----------------------
   0 S :    0.118104
   1 C :   -0.123285
   2 C :   -0.070802
   3 C :    0.048850
   4 C :   -0.187415
   5 H :   -0.002723
   6 C :   -0.015717
   7 H :    0.043918
   8 H :    0.045047
   9 C :   -0.068070
  10 H :    0.037252
  11 H :    0.029414
  12 C :   -0.025582
  13 H :    0.025497
  14 H :    0.034345
  15 H :    0.025915
  16 S :    0.116524
  17 C :   -0.100557
  18 C :   -0.018578
  19 C :   -0.000518
  20 C :   -0.200067
  21 H :   -0.009604
  22 C :    0.135353
  23 H :    0.011572
  24 H :    0.011059
  25 C :   -0.079513
  26 H :    0.026466
  27 H :    0.015652
  28 C :    0.009083
  29 H :    0.021717
  30 H :    0.015203
  31 H :    0.013691
  32 H :    0.050349
  33 H :    0.067421
Sum of atomic charges:    0.0000000

LOEWDIN ATOMIC CHARGES
----------------------
   0 S :    0.431537
   1 C :   -0.204381
   2 C :   -0.080931
   3 C :   -0.059220
   4 C :   -0.209884
   5 H :    0.021455
   6 C :   -0.041212
   7 H :    0.035500
   8 H :    0.040748
   9 C :   -0.041104
  10 H :    0.026364
  11 H :    0.025120
  12 C :   -0.065371
  13 H :    0.020671
  14 H :    0.027752
  15 H :    0.026728
  16 S :    0.400108
  17 C :   -0.179729
  18 C :   -0.070818
  19 C :   -0.038924
  20 C :   -0.206731
  21 H :    0.023016
  22 C :   -0.022705
  23 H :    0.024524
  24 H :    0.029004
  25 C :   -0.022582
  26 H :    0.019900
  27 H :    0.016390
  28 C :   -0.051773
  29 H :    0.020359
  30 H :    0.016113
  31 H :    0.020783
  32 H :    0.032051
  33 H :    0.037243

  Mayer bond orders larger than 0.100000
B(  0-S ,  1-C ) :   1.1777 B(  0-S ,  4-C ) :   1.1665 B(  1-C ,  2-C ) :   1.5551
B(  1-C ,  4-C ) :   0.1070 B(  1-C , 32-H ) :   0.9714 B(  2-C ,  3-C ) :   1.2774
B(  2-C ,  6-C ) :   1.0261 B(  3-C ,  4-C ) :   1.5577 B(  3-C ,  5-H ) :   0.9931
B(  4-C , 20-C ) :   1.0230 B(  6-C ,  7-H ) :   0.9434 B(  6-C ,  8-H ) :   0.9441
B(  6-C ,  9-C ) :   1.0478 B(  9-C , 10-H ) :   0.9615 B(  9-C , 11-H ) :   0.9548
B(  9-C , 12-C ) :   1.0791 B( 12-C , 13-H ) :   0.9737 B( 12-C , 14-H ) :   0.9745
B( 12-C , 15-H ) :   0.9753 B( 16-S , 17-C ) :   1.1593 B( 16-S , 20-C ) :   1.1376
B( 17-C , 18-C ) :   1.6105 B( 17-C , 20-C ) :   0.1013 B( 17-C , 33-H ) :   0.9608
B( 18-C , 19-C ) :   1.2344 B( 18-C , 21-H ) :   1.0075 B( 19-C , 20-C ) :   1.5952
B( 19-C , 22-C ) :   1.0465 B( 22-C , 23-H ) :   0.9432 B( 22-C , 24-H ) :   0.9071
B( 22-C , 25-C ) :   1.0724 B( 25-C , 26-H ) :   0.9522 B( 25-C , 27-H ) :   0.9566
B( 25-C , 28-C ) :   1.0838 B( 28-C , 29-H ) :   0.9761 B( 28-C , 30-H ) :   0.9736
B( 28-C , 31-H ) :   0.9746

Dispersion correction           -0.014682606
FINAL SINGLE POINT ENERGY     -1339.871499727430

DIPOLE MOMENT
-------------
                                X             Y             Z
Electronic contribution:     25.65550      16.42006      -6.83218
Nuclear contribution   :    -26.06147     -16.95437       6.89724
                        -----------------------------------------
Total Dipole Moment    :     -0.40597      -0.53431       0.06506
                        -----------------------------------------
Magnitude (a.u.)       :      0.67419
Magnitude (Debye)      :      1.71365

Rotational constants in cm-1:     0.019864     0.008397     0.006743
Rotational constants in MHz :   595.514291   251.740305   202.147056

                             ****ORCA TERMINATED NORMALLY****
TOTAL RUN TIME: 0 days 0 hours 0 minutes 35 seconds 397 msec
