                         Program Version 4.2.1 -  RELEASE  -
|  1> ! wB97X-D3 SP def2-SVP
|  2> %pal
|  3> nprocs 16
|  4> end
|  5>
|  6> * xyz 0 1
|  7> S 	 15.2814 	 6.75657 	 82.3142
|  8> C 	 15.6588 	 8.42971 	 81.8763
|  9> C 	 14.8268 	 9.32524 	 82.5301
| 10> C 	 13.8343 	 8.66991 	 83.3382
| 11> C 	 13.8733 	 7.34915 	 83.2411
| 12> H 	 13.0844 	 9.13415 	 83.9972
| 13> C 	 14.8156 	 10.8268 	 82.296
| 14> H 	 15.712 	 11.1616 	 81.7373
| 15> H 	 14.9293 	 11.1623 	 83.2589
| 16> C 	 13.4902 	 11.3888 	 81.7006
| 17> H 	 12.7336 	 11.1095 	 82.3984
| 18> H 	 13.4769 	 12.5269 	 81.7502
| 19> C 	 13.1567 	 11.0225 	 80.2003
| 20> H 	 13.4527 	 10.0278 	 79.8297
| 21> H 	 12.0766 	 10.898 	 80.051
| 22> H 	 13.6408 	 11.7148 	 79.4435
| 23> S 	 13.3013 	 6.3131 	 85.6628
| 24> C 	 11.8915 	 5.25629 	 85.6518
| 25> C 	 11.3423 	 4.99809 	 84.4543
| 26> C 	 12.0835 	 5.65882 	 83.4787
| 27> C 	 13.0707 	 6.45407 	 83.9856
| 28> H 	 10.3602 	 4.46239 	 84.3982
| 29> C 	 11.5865 	 5.75491 	 82.0414
| 30> H 	 11.1969 	 4.79057 	 81.7727
| 31> H 	 12.4329 	 5.94988 	 81.4145
| 32> C 	 10.4503 	 6.72706 	 81.6199
| 33> H 	 9.62908 	 6.53578 	 82.2331
| 34> H 	 10.1687 	 6.45678 	 80.5864
| 35> C 	 10.7932 	 8.2398 	 81.6345
| 36> H 	 11.7286 	 8.50123 	 81.0725
| 37> H 	 10.9296 	 8.55241 	 82.717
| 38> H 	 9.89687 	 8.73164 	 81.3638
| 39> H 	 16.4814 	 8.79871 	 81.2671
| 40> H 	 11.3928 	 4.90416 	 86.5254
| 41> *
| 42>
| 43>                          ****END OF INPUT****

CARTESIAN COORDINATES (ANGSTROEM)
---------------------------------
  S     15.281400    6.756570   82.314200
  C     15.658800    8.429710   81.876300
  C     14.826800    9.325240   82.530100
  C     13.834300    8.669910   83.338200
  C     13.873300    7.349150   83.241100
  H     13.084400    9.134150   83.997200
  C     14.815600   10.826800   82.296000
  H     15.712000   11.161600   81.737300
  H     14.929300   11.162300   83.258900
  C     13.490200   11.388800   81.700600
  H     12.733600   11.109500   82.398400
  H     13.476900   12.526900   81.750200
  C     13.156700   11.022500   80.200300
  H     13.452700   10.027800   79.829700
  H     12.076600   10.898000   80.051000
  H     13.640800   11.714800   79.443500
  S     13.301300    6.313100   85.662800
  C     11.891500    5.256290   85.651800
  C     11.342300    4.998090   84.454300
  C     12.083500    5.658820   83.478700
  C     13.070700    6.454070   83.985600
  H     10.360200    4.462390   84.398200
  C     11.586500    5.754910   82.041400
  H     11.196900    4.790570   81.772700
  H     12.432900    5.949880   81.414500
  C     10.450300    6.727060   81.619900
  H      9.629080    6.535780   82.233100
  H     10.168700    6.456780   80.586400
  C     10.793200    8.239800   81.634500
  H     11.728600    8.501230   81.072500
  H     10.929600    8.552410   82.717000
  H      9.896870    8.731640   81.363800
  H     16.481400    8.798710   81.267100
  H     11.392800    4.904160   86.525400

 Total Charge           Charge          ....    0
 Multiplicity           Mult            ....    1
 Number of Electrons    NEL             ....  134
 Basis Dimension        Dim             ....  322

ORBITAL ENERGIES
----------------

  NO   OCC          E(Eh)            E(eV)
   0   2.0000     -88.969029     -2420.9704
   1   2.0000     -88.963297     -2420.8144
   2   2.0000     -10.317929      -280.7651
   3   2.0000     -10.313815      -280.6532
   4   2.0000     -10.310736      -280.5694
   5   2.0000     -10.309024      -280.5228
   6   2.0000     -10.299806      -280.2720
   7   2.0000     -10.297192      -280.2008
   8   2.0000     -10.293023      -280.0874
   9   2.0000     -10.290504      -280.0188
  10   2.0000     -10.289632      -279.9951
  11   2.0000     -10.289013      -279.9783
  12   2.0000     -10.285518      -279.8832
  13   2.0000     -10.282072      -279.7894
  14   2.0000     -10.280136      -279.7367
  15   2.0000     -10.277128      -279.6549
  16   2.0000      -8.084588      -219.9928
  17   2.0000      -8.077086      -219.7887
  18   2.0000      -6.042816      -164.4334
  19   2.0000      -6.039235      -164.3359
  20   2.0000      -6.035709      -164.2400
  21   2.0000      -6.035329      -164.2297
  22   2.0000      -6.031896      -164.1362
  23   2.0000      -6.027598      -164.0193
  24   2.0000      -1.017870       -27.6976
  25   2.0000      -0.986050       -26.8318
  26   2.0000      -0.906166       -24.6580
  27   2.0000      -0.902537       -24.5593
  28   2.0000      -0.875576       -23.8256
  29   2.0000      -0.850419       -23.1411
  30   2.0000      -0.840784       -22.8789
  31   2.0000      -0.819073       -22.2881
  32   2.0000      -0.783278       -21.3141
  33   2.0000      -0.771659       -20.9979
  34   2.0000      -0.711425       -19.3589
  35   2.0000      -0.697859       -18.9897
  36   2.0000      -0.690620       -18.7927
  37   2.0000      -0.663221       -18.0472
  38   2.0000      -0.637270       -17.3410
  39   2.0000      -0.618868       -16.8403
  40   2.0000      -0.595605       -16.2072
  41   2.0000      -0.561726       -15.2854
  42   2.0000      -0.549901       -14.9636
  43   2.0000      -0.547296       -14.8927
  44   2.0000      -0.539597       -14.6832
  45   2.0000      -0.532041       -14.4776
  46   2.0000      -0.518122       -14.0988
  47   2.0000      -0.509148       -13.8546
  48   2.0000      -0.499061       -13.5801
  49   2.0000      -0.496417       -13.5082
  50   2.0000      -0.492089       -13.3904
  51   2.0000      -0.475379       -12.9357
  52   2.0000      -0.468547       -12.7498
  53   2.0000      -0.462516       -12.5857
  54   2.0000      -0.458159       -12.4671
  55   2.0000      -0.450890       -12.2693
  56   2.0000      -0.442446       -12.0396
  57   2.0000      -0.435093       -11.8395
  58   2.0000      -0.429018       -11.6742
  59   2.0000      -0.425707       -11.5841
  60   2.0000      -0.423538       -11.5250
  61   2.0000      -0.412545       -11.2259
  62   2.0000      -0.410771       -11.1777
  63   2.0000      -0.344281        -9.3684
  64   2.0000      -0.336667        -9.1612
  65   2.0000      -0.321403        -8.7458
  66   2.0000      -0.301716        -8.2101
  67   0.0000       0.043668         1.1883
  68   0.0000       0.063217         1.7202
  69   0.0000       0.110245         2.9999
  70   0.0000       0.116493         3.1699
  71   0.0000       0.131381         3.5750

MULLIKEN ATOMIC CHARGES
-----------------------
   0 S :    0.105877
   1 C :   -0.114971
   2 C :   -0.105269
   3 C :    0.002847
   4 C :   -0.154542
   5 H :    0.029498
   6 C :    0.122880
   7 H :    0.018757
   8 H :    0.007538
   9 C :   -0.077059
  10 H :    0.021608
  11 H :    0.041373
  12 C :   -0.083641
  13 H :    0.033125
  14 H :    0.038602
  15 H :    0.046603
  16 S :    0.142192
  17 C :   -0.076874
  18 C :   -0.057314
  19 C :   -0.016295
  20 C :   -0.187748
  21 H :    0.041408
  22 C :    0.090913
  23 H :    0.008922
  24 H :    0.010185
  25 C :   -0.041949
  26 H :    0.003656
  27 H :    0.028979
  28 C :   -0.059232
  29 H :    0.054303
  30 H :    0.025358
  31 H :    0.025354
  32 H :    0.043591
  33 H :    0.031322
Sum of atomic charges:    0.0000000

LOEWDIN ATOMIC CHARGES
----------------------
   0 S :    0.374144
   1 C :   -0.193657
   2 C :   -0.060442
   3 C :   -0.060472
   4 C :   -0.178075
   5 H :    0.037202
   6 C :   -0.026122
   7 H :    0.030004
   8 H :    0.022491
   9 C :   -0.039007
  10 H :    0.018223
  11 H :    0.034333
  12 C :   -0.082803
  13 H :    0.024709
  14 H :    0.029961
  15 H :    0.033743
  16 S :    0.426932
  17 C :   -0.171421
  18 C :   -0.073090
  19 C :   -0.057440
  20 C :   -0.223214
  21 H :    0.047331
  22 C :   -0.029694
  23 H :    0.026788
  24 H :    0.020607
  25 C :   -0.028554
  26 H :    0.011666
  27 H :    0.026857
  28 C :   -0.070081
  29 H :    0.032896
  30 H :    0.027736
  31 H :    0.019467
  32 H :    0.030168
  33 H :    0.018816

  Mayer bond orders larger than 0.100000
B(  0-S ,  1-C ) :   1.1116 B(  0-S ,  4-C ) :   1.1125 B(  1-C ,  2-C ) :   1.6582
B(  1-C , 32-H ) :   0.9641 B(  2-C ,  3-C ) :   1.1766 B(  2-C ,  6-C ) :   1.0209
B(  3-C ,  4-C ) :   1.6462 B(  3-C ,  5-H ) :   0.9900 B(  4-C , 20-C ) :   1.0408
B(  6-C ,  7-H ) :   0.9445 B(  6-C ,  8-H ) :   0.9227 B(  6-C ,  9-C ) :   1.0754
B(  9-C , 10-H ) :   0.9578 B(  9-C , 11-H ) :   0.9574 B(  9-C , 12-C ) :   1.0531
B( 12-C , 13-H ) :   0.9758 B( 12-C , 14-H ) :   0.9749 B( 12-C , 15-H ) :   0.9750
B( 16-S , 17-C ) :   1.1446 B( 16-S , 20-C ) :   1.1464 B( 17-C , 18-C ) :   1.6552
B( 17-C , 33-H ) :   0.9611 B( 18-C , 19-C ) :   1.2246 B( 18-C , 21-H ) :   0.9847
B( 19-C , 20-C ) :   1.5993 B( 19-C , 22-C ) :   1.0636 B( 22-C , 23-H ) :   0.9273
B( 22-C , 24-H ) :   0.9170 B( 22-C , 25-C ) :   1.0775 B( 25-C , 26-H ) :   0.9513
B( 25-C , 27-H ) :   0.9526 B( 25-C , 28-C ) :   1.0872 B( 28-C , 29-H ) :   0.9693
B( 28-C , 30-H ) :   0.9708 B( 28-C , 31-H ) :   0.9686

Dispersion correction           -0.017387913
FINAL SINGLE POINT ENERGY     -1339.865292797879

DIPOLE MOMENT
-------------
                                X             Y             Z
Electronic contribution:     13.52910     -17.49950      16.89822
Nuclear contribution   :    -14.02359      17.87036     -16.95464
                        -----------------------------------------
Total Dipole Moment    :     -0.49449       0.37086      -0.05643
                        -----------------------------------------
Magnitude (a.u.)       :      0.62068
Magnitude (Debye)      :      1.57763

Rotational constants in cm-1:     0.020347     0.010160     0.008487
Rotational constants in MHz :   609.995274   304.586312   254.435936

                             ****ORCA TERMINATED NORMALLY****
TOTAL RUN TIME: 0 days 0 hours 0 minutes 39 seconds 263 msec
