                         Program Version 4.2.1 -  RELEASE  -
|  1> ! wB97X-D3 SP def2-SVP
|  2> %pal
|  3> nprocs 16
|  4> end
|  5>
|  6> * xyz 0 1
|  7> S 	 -65.8446 	 43.447 	 122.655
|  8> C 	 -66.7266 	 42.7813 	 124.062
|  9> C 	 -67.304 	 43.835 	 124.811
| 10> C 	 -67.127 	 45.0837 	 124.23
| 11> C 	 -66.2647 	 45.1401 	 123.141
| 12> H 	 -67.5633 	 46.0085 	 124.579
| 13> C 	 -68.2114 	 43.6331 	 126.001
| 14> H 	 -68.0286 	 42.6083 	 126.461
| 15> H 	 -69.2836 	 43.6783 	 125.791
| 16> C 	 -67.9012 	 44.63 	 127.166
| 17> H 	 -66.8592 	 44.4199 	 127.472
| 18> H 	 -67.9724 	 45.6633 	 126.901
| 19> C 	 -68.8243 	 44.244 	 128.398
| 20> H 	 -69.9035 	 44.1524 	 128.328
| 21> H 	 -68.5664 	 43.2213 	 128.762
| 22> H 	 -68.5431 	 44.9757 	 129.173
| 23> S 	 -65.9207 	 46.0687 	 120.626
| 24> C 	 -65.643 	 47.764 	 120.288
| 25> C 	 -65.7596 	 48.4308 	 121.478
| 26> C 	 -66.0148 	 47.6526 	 122.644
| 27> C 	 -66.0424 	 46.295 	 122.316
| 28> H 	 -65.8248 	 49.4816 	 121.433
| 29> C 	 -65.9899 	 48.2756 	 123.983
| 30> H 	 -65.0411 	 48.7819 	 124.122
| 31> H 	 -65.8775 	 47.4155 	 124.655
| 32> C 	 -67.1416 	 49.2488 	 124.241
| 33> H 	 -68.0707 	 48.8701 	 124.342
| 34> H 	 -67.1376 	 49.9298 	 123.379
| 35> C 	 -66.8641 	 49.9768 	 125.637
| 36> H 	 -66.8408 	 49.2029 	 126.434
| 37> H 	 -67.7231 	 50.5846 	 125.91
| 38> H 	 -66.0171 	 50.6093 	 125.651
| 39> H 	 -66.8352 	 41.7213 	 124.261
| 40> H 	 -65.786 	 48.2675 	 119.342
| 41> *
| 42>
| 43>                          ****END OF INPUT****

CARTESIAN COORDINATES (ANGSTROEM)
---------------------------------
  S    -65.844600   43.447000  122.655000
  C    -66.726600   42.781300  124.062000
  C    -67.304000   43.835000  124.811000
  C    -67.127000   45.083700  124.230000
  C    -66.264700   45.140100  123.141000
  H    -67.563300   46.008500  124.579000
  C    -68.211400   43.633100  126.001000
  H    -68.028600   42.608300  126.461000
  H    -69.283600   43.678300  125.791000
  C    -67.901200   44.630000  127.166000
  H    -66.859200   44.419900  127.472000
  H    -67.972400   45.663300  126.901000
  C    -68.824300   44.244000  128.398000
  H    -69.903500   44.152400  128.328000
  H    -68.566400   43.221300  128.762000
  H    -68.543100   44.975700  129.173000
  S    -65.920700   46.068700  120.626000
  C    -65.643000   47.764000  120.288000
  C    -65.759600   48.430800  121.478000
  C    -66.014800   47.652600  122.644000
  C    -66.042400   46.295000  122.316000
  H    -65.824800   49.481600  121.433000
  C    -65.989900   48.275600  123.983000
  H    -65.041100   48.781900  124.122000
  H    -65.877500   47.415500  124.655000
  C    -67.141600   49.248800  124.241000
  H    -68.070700   48.870100  124.342000
  H    -67.137600   49.929800  123.379000
  C    -66.864100   49.976800  125.637000
  H    -66.840800   49.202900  126.434000
  H    -67.723100   50.584600  125.910000
  H    -66.017100   50.609300  125.651000
  H    -66.835200   41.721300  124.261000
  H    -65.786000   48.267500  119.342000

 Total Charge           Charge          ....    0
 Multiplicity           Mult            ....    1
 Number of Electrons    NEL             ....  134
 Basis Dimension        Dim             ....  322

ORBITAL ENERGIES
----------------

  NO   OCC          E(Eh)            E(eV)
   0   2.0000     -88.970417     -2421.0081
   1   2.0000     -88.963170     -2420.8109
   2   2.0000     -10.334974      -281.2289
   3   2.0000     -10.326901      -281.0092
   4   2.0000     -10.323247      -280.9098
   5   2.0000     -10.313624      -280.6480
   6   2.0000     -10.303160      -280.3632
   7   2.0000     -10.298593      -280.2390
   8   2.0000     -10.297986      -280.2224
   9   2.0000     -10.294740      -280.1341
  10   2.0000     -10.293168      -280.0913
  11   2.0000     -10.288237      -279.9572
  12   2.0000     -10.288177      -279.9555
  13   2.0000     -10.287261      -279.9306
  14   2.0000     -10.286105      -279.8991
  15   2.0000     -10.282081      -279.7897
  16   2.0000      -8.083225      -219.9557
  17   2.0000      -8.078777      -219.8347
  18   2.0000      -6.041894      -164.4083
  19   2.0000      -6.037989      -164.3020
  20   2.0000      -6.037299      -164.2833
  21   2.0000      -6.033940      -164.1919
  22   2.0000      -6.033069      -164.1681
  23   2.0000      -6.029529      -164.0718
  24   2.0000      -1.010555       -27.4986
  25   2.0000      -0.981610       -26.7110
  26   2.0000      -0.914417       -24.8826
  27   2.0000      -0.906578       -24.6692
  28   2.0000      -0.872417       -23.7397
  29   2.0000      -0.852448       -23.1963
  30   2.0000      -0.843008       -22.9394
  31   2.0000      -0.815638       -22.1946
  32   2.0000      -0.778728       -21.1903
  33   2.0000      -0.768123       -20.9017
  34   2.0000      -0.717875       -19.5344
  35   2.0000      -0.709122       -19.2962
  36   2.0000      -0.697649       -18.9840
  37   2.0000      -0.664758       -18.0890
  38   2.0000      -0.640479       -17.4283
  39   2.0000      -0.624945       -17.0056
  40   2.0000      -0.597505       -16.2589
  41   2.0000      -0.571889       -15.5619
  42   2.0000      -0.567884       -15.4529
  43   2.0000      -0.560643       -15.2559
  44   2.0000      -0.530469       -14.4348
  45   2.0000      -0.524682       -14.2773
  46   2.0000      -0.516933       -14.0665
  47   2.0000      -0.512688       -13.9510
  48   2.0000      -0.504396       -13.7253
  49   2.0000      -0.501009       -13.6331
  50   2.0000      -0.493904       -13.4398
  51   2.0000      -0.483464       -13.1557
  52   2.0000      -0.469452       -12.7744
  53   2.0000      -0.468126       -12.7383
  54   2.0000      -0.460583       -12.5331
  55   2.0000      -0.446897       -12.1607
  56   2.0000      -0.444927       -12.1071
  57   2.0000      -0.440405       -11.9840
  58   2.0000      -0.436215       -11.8700
  59   2.0000      -0.428755       -11.6670
  60   2.0000      -0.423411       -11.5216
  61   2.0000      -0.416202       -11.3254
  62   2.0000      -0.409311       -11.1379
  63   2.0000      -0.359997        -9.7960
  64   2.0000      -0.334990        -9.1156
  65   2.0000      -0.327715        -8.9176
  66   2.0000      -0.282015        -7.6740
  67   0.0000       0.015672         0.4265
  68   0.0000       0.078004         2.1226
  69   0.0000       0.101738         2.7684
  70   0.0000       0.118304         3.2192
  71   0.0000       0.126045         3.4299

MULLIKEN ATOMIC CHARGES
-----------------------
   0 S :    0.097067
   1 C :   -0.125687
   2 C :   -0.039576
   3 C :    0.004077
   4 C :   -0.132572
   5 H :    0.012957
   6 C :    0.028547
   7 H :    0.024897
   8 H :    0.048328
   9 C :   -0.102984
  10 H :    0.041904
  11 H :    0.037346
  12 C :   -0.069333
  13 H :    0.036576
  14 H :    0.027207
  15 H :    0.040859
  16 S :    0.096156
  17 C :   -0.083104
  18 C :   -0.034468
  19 C :   -0.036881
  20 C :   -0.128598
  21 H :    0.003800
  22 C :    0.039792
  23 H :    0.031758
  24 H :    0.015291
  25 C :   -0.029995
  26 H :    0.007341
  27 H :    0.029127
  28 C :   -0.052435
  29 H :    0.032338
  30 H :    0.028085
  31 H :    0.033121
  32 H :    0.054795
  33 H :    0.064265
Sum of atomic charges:    0.0000000

LOEWDIN ATOMIC CHARGES
----------------------
   0 S :    0.370797
   1 C :   -0.181968
   2 C :   -0.068137
   3 C :   -0.059970
   4 C :   -0.172039
   5 H :    0.030317
   6 C :   -0.035999
   7 H :    0.034888
   8 H :    0.031694
   9 C :   -0.034436
  10 H :    0.031881
  11 H :    0.014983
  12 C :   -0.074164
  13 H :    0.022971
  14 H :    0.027321
  15 H :    0.029198
  16 S :    0.420914
  17 C :   -0.194080
  18 C :   -0.063149
  19 C :   -0.066062
  20 C :   -0.202227
  21 H :    0.020506
  22 C :   -0.038528
  23 H :    0.035775
  24 H :    0.028698
  25 C :   -0.019627
  26 H :    0.008232
  27 H :    0.026368
  28 C :   -0.059911
  29 H :    0.028758
  30 H :    0.023953
  31 H :    0.017734
  32 H :    0.030008
  33 H :    0.035302

  Mayer bond orders larger than 0.100000
B(  0-S ,  1-C ) :   1.1374 B(  0-S ,  4-C ) :   1.1328 B(  1-C ,  2-C ) :   1.5679
B(  1-C ,  4-C ) :   0.1087 B(  1-C , 32-H ) :   0.9708 B(  2-C ,  3-C ) :   1.2768
B(  2-C ,  6-C ) :   1.0260 B(  3-C ,  4-C ) :   1.5435 B(  3-C ,  5-H ) :   0.9844
B(  4-C , 20-C ) :   1.0919 B(  6-C ,  7-H ) :   0.9465 B(  6-C ,  8-H ) :   0.9467
B(  6-C ,  9-C ) :   1.0500 B(  9-C , 10-H ) :   0.9579 B(  9-C , 11-H ) :   0.9617
B(  9-C , 12-C ) :   1.0683 B( 12-C , 13-H ) :   0.9790 B( 12-C , 14-H ) :   0.9749
B( 12-C , 15-H ) :   0.9764 B( 16-S , 17-C ) :   1.1395 B( 16-S , 20-C ) :   1.1604
B( 17-C , 18-C ) :   1.6111 B( 17-C , 33-H ) :   0.9649 B( 18-C , 19-C ) :   1.2632
B( 18-C , 21-H ) :   0.9861 B( 19-C , 20-C ) :   1.5404 B( 19-C , 22-C ) :   1.0440
B( 22-C , 23-H ) :   0.9406 B( 22-C , 24-H ) :   0.9311 B( 22-C , 25-C ) :   1.0451
B( 25-C , 26-H ) :   0.9566 B( 25-C , 27-H ) :   0.9594 B( 25-C , 28-C ) :   1.0772
B( 28-C , 29-H ) :   0.9747 B( 28-C , 30-H ) :   0.9771 B( 28-C , 31-H ) :   0.9796

Dispersion correction           -0.013758773
FINAL SINGLE POINT ENERGY     -1339.866579654285

DIPOLE MOMENT
-------------
                                X             Y             Z
Electronic contribution:     11.27074     -12.68299     -29.57102
Nuclear contribution   :    -11.75652      13.10063      30.12742
                        -----------------------------------------
Total Dipole Moment    :     -0.48577       0.41765       0.55640
                        -----------------------------------------
Magnitude (a.u.)       :      0.84852
Magnitude (Debye)      :      2.15677

Rotational constants in cm-1:     0.016071     0.009876     0.006316
Rotational constants in MHz :   481.800628   296.077165   189.335586

                             ****ORCA TERMINATED NORMALLY****
TOTAL RUN TIME: 0 days 0 hours 0 minutes 33 seconds 748 msec
