                         Program Version 4.2.1 -  RELEASE  -
|  1> ! wB97X-D3 SP def2-SVP
|  2> %pal
|  3> nprocs 16
|  4> end
|  5>
|  6> * xyz 0 1
|  7> S 	 66.7607 	 23.9721 	 73.7668
|  8> C 	 67.5363 	 22.416 	 73.7423
|  9> C 	 68.6958 	 22.4022 	 74.4614
| 10> C 	 68.8156 	 23.6013 	 75.2848
| 11> C 	 67.8184 	 24.5119 	 75.0363
| 12> H 	 69.4757 	 23.7655 	 76.1775
| 13> C 	 69.686 	 21.3198 	 74.6915
| 14> H 	 69.6672 	 21.02 	 75.7298
| 15> H 	 70.7016 	 21.7811 	 74.5314
| 16> C 	 69.4942 	 20.1035 	 73.7657
| 17> H 	 68.3567 	 19.8181 	 73.7869
| 18> H 	 69.485 	 20.4881 	 72.7157
| 19> C 	 70.4534 	 18.957 	 74.1953
| 20> H 	 70.4104 	 18.727 	 75.2212
| 21> H 	 70.0714 	 18.0748 	 73.5814
| 22> H 	 71.5041 	 19.1426 	 74.0394
| 23> S 	 67.3141 	 27.1221 	 74.4435
| 24> C 	 67.1914 	 28.2693 	 75.7962
| 25> C 	 67.1907 	 27.6969 	 76.9384
| 26> C 	 67.6572 	 26.3419 	 76.9473
| 27> C 	 67.6631 	 25.8533 	 75.6309
| 28> H 	 67.0608 	 28.2422 	 77.8649
| 29> C 	 67.8506 	 25.4992 	 78.1373
| 30> H 	 68.1291 	 24.4518 	 78.0163
| 31> H 	 66.9524 	 25.5098 	 78.6432
| 32> C 	 68.7262 	 26.0925 	 79.1921
| 33> H 	 68.3781 	 27.1301 	 79.4384
| 34> H 	 69.7482 	 26.1408 	 78.6896
| 35> C 	 68.7692 	 25.3687 	 80.5787
| 36> H 	 68.7206 	 24.3097 	 80.5056
| 37> H 	 67.9423 	 25.7082 	 81.2248
| 38> H 	 69.5949 	 25.6058 	 81.1693
| 39> H 	 67.1171 	 21.5874 	 73.2564
| 40> H 	 66.9197 	 29.3386 	 75.6792
| 41> *
| 42>
| 43>                          ****END OF INPUT****

CARTESIAN COORDINATES (ANGSTROEM)
---------------------------------
  S     66.760700   23.972100   73.766800
  C     67.536300   22.416000   73.742300
  C     68.695800   22.402200   74.461400
  C     68.815600   23.601300   75.284800
  C     67.818400   24.511900   75.036300
  H     69.475700   23.765500   76.177500
  C     69.686000   21.319800   74.691500
  H     69.667200   21.020000   75.729800
  H     70.701600   21.781100   74.531400
  C     69.494200   20.103500   73.765700
  H     68.356700   19.818100   73.786900
  H     69.485000   20.488100   72.715700
  C     70.453400   18.957000   74.195300
  H     70.410400   18.727000   75.221200
  H     70.071400   18.074800   73.581400
  H     71.504100   19.142600   74.039400
  S     67.314100   27.122100   74.443500
  C     67.191400   28.269300   75.796200
  C     67.190700   27.696900   76.938400
  C     67.657200   26.341900   76.947300
  C     67.663100   25.853300   75.630900
  H     67.060800   28.242200   77.864900
  C     67.850600   25.499200   78.137300
  H     68.129100   24.451800   78.016300
  H     66.952400   25.509800   78.643200
  C     68.726200   26.092500   79.192100
  H     68.378100   27.130100   79.438400
  H     69.748200   26.140800   78.689600
  C     68.769200   25.368700   80.578700
  H     68.720600   24.309700   80.505600
  H     67.942300   25.708200   81.224800
  H     69.594900   25.605800   81.169300
  H     67.117100   21.587400   73.256400
  H     66.919700   29.338600   75.679200

 Total Charge           Charge          ....    0
 Multiplicity           Mult            ....    1
 Number of Electrons    NEL             ....  134
 Basis Dimension        Dim             ....  322

ORBITAL ENERGIES
----------------

  NO   OCC          E(Eh)            E(eV)
   0   2.0000     -88.962704     -2420.7982
   1   2.0000     -88.960132     -2420.7283
   2   2.0000     -10.328662      -281.0572
   3   2.0000     -10.326612      -281.0014
   4   2.0000     -10.309318      -280.5308
   5   2.0000     -10.308027      -280.4957
   6   2.0000     -10.303200      -280.3643
   7   2.0000     -10.300449      -280.2895
   8   2.0000     -10.300298      -280.2854
   9   2.0000     -10.294187      -280.1191
  10   2.0000     -10.294100      -280.1167
  11   2.0000     -10.292359      -280.0693
  12   2.0000     -10.285125      -279.8725
  13   2.0000     -10.284879      -279.8658
  14   2.0000     -10.281476      -279.7732
  15   2.0000     -10.277070      -279.6533
  16   2.0000      -8.078146      -219.8175
  17   2.0000      -8.074733      -219.7246
  18   2.0000      -6.036795      -164.2696
  19   2.0000      -6.033447      -164.1784
  20   2.0000      -6.032668      -164.1572
  21   2.0000      -6.029521      -164.0716
  22   2.0000      -6.028593      -164.0464
  23   2.0000      -6.025013      -163.9489
  24   2.0000      -1.008771       -27.4501
  25   2.0000      -0.988637       -26.9022
  26   2.0000      -0.919727       -25.0271
  27   2.0000      -0.912793       -24.8384
  28   2.0000      -0.871725       -23.7208
  29   2.0000      -0.850785       -23.1510
  30   2.0000      -0.845025       -22.9943
  31   2.0000      -0.820033       -22.3142
  32   2.0000      -0.785521       -21.3751
  33   2.0000      -0.775032       -21.0897
  34   2.0000      -0.716411       -19.4945
  35   2.0000      -0.699399       -19.0316
  36   2.0000      -0.690031       -18.7767
  37   2.0000      -0.658783       -17.9264
  38   2.0000      -0.640605       -17.4317
  39   2.0000      -0.613296       -16.6886
  40   2.0000      -0.602752       -16.4017
  41   2.0000      -0.574437       -15.6312
  42   2.0000      -0.566586       -15.4176
  43   2.0000      -0.561154       -15.2698
  44   2.0000      -0.527348       -14.3499
  45   2.0000      -0.526511       -14.3271
  46   2.0000      -0.520712       -14.1693
  47   2.0000      -0.513468       -13.9722
  48   2.0000      -0.502789       -13.6816
  49   2.0000      -0.500065       -13.6075
  50   2.0000      -0.490022       -13.3342
  51   2.0000      -0.486737       -13.2448
  52   2.0000      -0.477518       -12.9939
  53   2.0000      -0.470119       -12.7926
  54   2.0000      -0.464347       -12.6355
  55   2.0000      -0.460053       -12.5187
  56   2.0000      -0.447169       -12.1681
  57   2.0000      -0.438808       -11.9406
  58   2.0000      -0.425974       -11.5913
  59   2.0000      -0.422486       -11.4964
  60   2.0000      -0.414639       -11.2829
  61   2.0000      -0.413253       -11.2452
  62   2.0000      -0.409643       -11.1469
  63   2.0000      -0.356892        -9.7115
  64   2.0000      -0.328829        -8.9479
  65   2.0000      -0.324972        -8.8429
  66   2.0000      -0.288669        -7.8551
  67   0.0000       0.037543         1.0216
  68   0.0000       0.070778         1.9260
  69   0.0000       0.109572         2.9816
  70   0.0000       0.121906         3.3172
  71   0.0000       0.126997         3.4558

MULLIKEN ATOMIC CHARGES
-----------------------
   0 S :    0.107884
   1 C :   -0.122826
   2 C :   -0.064715
   3 C :   -0.007278
   4 C :   -0.133308
   5 H :    0.033582
   6 C :    0.046312
   7 H :    0.032422
   8 H :    0.044130
   9 C :   -0.140356
  10 H :    0.034367
  11 H :    0.038507
  12 C :   -0.005691
  13 H :    0.021943
  14 H :    0.047281
  15 H :    0.035001
  16 S :    0.077196
  17 C :   -0.078944
  18 C :   -0.007928
  19 C :   -0.031789
  20 C :   -0.155744
  21 H :    0.015901
  22 C :    0.129966
  23 H :    0.023797
  24 H :   -0.000102
  25 C :   -0.167122
  26 H :    0.033974
  27 H :    0.036739
  28 C :   -0.006145
  29 H :    0.021298
  30 H :    0.028344
  31 H :    0.022851
  32 H :    0.028390
  33 H :    0.062062
Sum of atomic charges:   -0.0000000

LOEWDIN ATOMIC CHARGES
----------------------
   0 S :    0.403016
   1 C :   -0.196933
   2 C :   -0.058350
   3 C :   -0.071497
   4 C :   -0.193687
   5 H :    0.038959
   6 C :   -0.041323
   7 H :    0.030409
   8 H :    0.041228
   9 C :   -0.054812
  10 H :    0.029193
  11 H :    0.028955
  12 C :   -0.062209
  13 H :    0.019717
  14 H :    0.039434
  15 H :    0.026269
  16 S :    0.365579
  17 C :   -0.171427
  18 C :   -0.070000
  19 C :   -0.051228
  20 C :   -0.176032
  21 H :    0.032943
  22 C :   -0.037717
  23 H :    0.031731
  24 H :    0.026694
  25 C :   -0.042480
  26 H :    0.024361
  27 H :    0.025814
  28 C :   -0.062903
  29 H :    0.019206
  30 H :    0.030329
  31 H :    0.021956
  32 H :    0.015986
  33 H :    0.038819

  Mayer bond orders larger than 0.100000
B(  0-S ,  1-C ) :   1.1114 B(  0-S ,  4-C ) :   1.1413 B(  1-C ,  2-C ) :   1.6439
B(  1-C , 32-H ) :   0.9761 B(  2-C ,  3-C ) :   1.1913 B(  2-C ,  6-C ) :   1.0203
B(  3-C ,  4-C ) :   1.6184 B(  3-C ,  5-H ) :   0.9860 B(  4-C , 20-C ) :   1.0298
B(  6-C ,  7-H ) :   0.9389 B(  6-C ,  8-H ) :   0.9317 B(  6-C ,  9-C ) :   1.0763
B(  9-C , 10-H ) :   0.9510 B(  9-C , 11-H ) :   0.9557 B(  9-C , 12-C ) :   1.0592
B( 12-C , 13-H ) :   0.9747 B( 12-C , 14-H ) :   0.9746 B( 12-C , 15-H ) :   0.9756
B( 16-S , 17-C ) :   1.1004 B( 16-S , 20-C ) :   1.1272 B( 17-C , 18-C ) :   1.7168
B( 17-C , 33-H ) :   0.9541 B( 18-C , 19-C ) :   1.1864 B( 18-C , 21-H ) :   0.9744
B( 19-C , 20-C ) :   1.6232 B( 19-C , 22-C ) :   1.0637 B( 22-C , 23-H ) :   0.9344
B( 22-C , 24-H ) :   0.9122 B( 22-C , 25-C ) :   1.0421 B( 25-C , 26-H ) :   0.9574
B( 25-C , 27-H ) :   0.9602 B( 25-C , 28-C ) :   1.0737 B( 28-C , 29-H ) :   0.9757
B( 28-C , 30-H ) :   0.9726 B( 28-C , 31-H ) :   0.9732

Dispersion correction           -0.013237627
FINAL SINGLE POINT ENERGY     -1339.850432710254

DIPOLE MOMENT
-------------
                                X             Y             Z
Electronic contribution:    -13.62940      18.10512     -17.90449
Nuclear contribution   :     13.85709     -18.43325      18.63461
                        -----------------------------------------
Total Dipole Moment    :      0.22769      -0.32814       0.73012
                        -----------------------------------------
Magnitude (a.u.)       :      0.83222
Magnitude (Debye)      :      2.11532

Rotational constants in cm-1:     0.018816     0.007710     0.005750
Rotational constants in MHz :   564.084787   231.140894   172.386876

                             ****ORCA TERMINATED NORMALLY****
TOTAL RUN TIME: 0 days 0 hours 0 minutes 29 seconds 89 msec
