                         Program Version 4.2.1 -  RELEASE  -
|  1> ! wB97X-D3 SP def2-SVP
|  2> %pal
|  3> nprocs 16
|  4> end
|  5>
|  6> * xyz 0 1
|  7> S 	 -22.8649 	 46.3612 	 62.8902
|  8> C 	 -21.5931 	 47.4884 	 62.5009
|  9> C 	 -21.9939 	 48.8009 	 62.7478
| 10> C 	 -23.2602 	 48.8625 	 63.3856
| 11> C 	 -23.8422 	 47.6134 	 63.6057
| 12> H 	 -23.7751 	 49.7323 	 63.6481
| 13> C 	 -21.1821 	 50.0538 	 62.3474
| 14> H 	 -21.7923 	 50.6534 	 61.6752
| 15> H 	 -20.3429 	 49.7614 	 61.7589
| 16> C 	 -20.6835 	 50.9261 	 63.5051
| 17> H 	 -20.3287 	 51.8105 	 63.1045
| 18> H 	 -21.5741 	 51.1632 	 64.0649
| 19> C 	 -19.629 	 50.3798 	 64.462
| 20> H 	 -19.2622 	 51.1353 	 65.1811
| 21> H 	 -20.0309 	 49.6432 	 65.1618
| 22> H 	 -18.7339 	 50.1416 	 63.9054
| 23> S 	 -26.4645 	 46.7707 	 63.5229
| 24> C 	 -27.3673 	 47.0009 	 64.9384
| 25> C 	 -26.6393 	 47.459 	 65.9853
| 26> C 	 -25.2918 	 47.6791 	 65.6764
| 27> C 	 -25.0199 	 47.3561 	 64.3872
| 28> H 	 -27.1858 	 47.5568 	 66.9726
| 29> C 	 -24.3066 	 48.329 	 66.6277
| 30> H 	 -24.9708 	 48.906 	 67.2285
| 31> H 	 -23.66 	 48.958 	 66.0347
| 32> C 	 -23.3403 	 47.4994 	 67.4995
| 33> H 	 -22.888 	 48.1157 	 68.2239
| 34> H 	 -22.6169 	 47.1631 	 66.7772
| 35> C 	 -23.8749 	 46.2253 	 68.124
| 36> H 	 -24.4874 	 45.5914 	 67.4443
| 37> H 	 -24.6058 	 46.4993 	 68.9268
| 38> H 	 -23.1252 	 45.6097 	 68.6451
| 39> H 	 -20.5956 	 47.1902 	 62.1028
| 40> H 	 -28.3596 	 46.5772 	 65.0015
| 41> *
| 42>
| 43>                          ****END OF INPUT****

CARTESIAN COORDINATES (ANGSTROEM)
---------------------------------
  S    -22.864900   46.361200   62.890200
  C    -21.593100   47.488400   62.500900
  C    -21.993900   48.800900   62.747800
  C    -23.260200   48.862500   63.385600
  C    -23.842200   47.613400   63.605700
  H    -23.775100   49.732300   63.648100
  C    -21.182100   50.053800   62.347400
  H    -21.792300   50.653400   61.675200
  H    -20.342900   49.761400   61.758900
  C    -20.683500   50.926100   63.505100
  H    -20.328700   51.810500   63.104500
  H    -21.574100   51.163200   64.064900
  C    -19.629000   50.379800   64.462000
  H    -19.262200   51.135300   65.181100
  H    -20.030900   49.643200   65.161800
  H    -18.733900   50.141600   63.905400
  S    -26.464500   46.770700   63.522900
  C    -27.367300   47.000900   64.938400
  C    -26.639300   47.459000   65.985300
  C    -25.291800   47.679100   65.676400
  C    -25.019900   47.356100   64.387200
  H    -27.185800   47.556800   66.972600
  C    -24.306600   48.329000   66.627700
  H    -24.970800   48.906000   67.228500
  H    -23.660000   48.958000   66.034700
  C    -23.340300   47.499400   67.499500
  H    -22.888000   48.115700   68.223900
  H    -22.616900   47.163100   66.777200
  C    -23.874900   46.225300   68.124000
  H    -24.487400   45.591400   67.444300
  H    -24.605800   46.499300   68.926800
  H    -23.125200   45.609700   68.645100
  H    -20.595600   47.190200   62.102800
  H    -28.359600   46.577200   65.001500

 Total Charge           Charge          ....    0
 Multiplicity           Mult            ....    1
 Number of Electrons    NEL             ....  134
 Basis Dimension        Dim             ....  322

ORBITAL ENERGIES
----------------

  NO   OCC          E(Eh)            E(eV)
   0   2.0000     -88.966331     -2420.8969
   1   2.0000     -88.961721     -2420.7715
   2   2.0000     -10.325298      -280.9656
   3   2.0000     -10.319529      -280.8087
   4   2.0000     -10.317736      -280.7599
   5   2.0000     -10.309155      -280.5264
   6   2.0000     -10.302309      -280.3401
   7   2.0000     -10.298771      -280.2438
   8   2.0000     -10.291753      -280.0528
   9   2.0000     -10.291504      -280.0461
  10   2.0000     -10.290381      -280.0155
  11   2.0000     -10.285506      -279.8828
  12   2.0000     -10.278639      -279.6960
  13   2.0000     -10.278530      -279.6930
  14   2.0000     -10.277442      -279.6634
  15   2.0000     -10.276762      -279.6449
  16   2.0000      -8.081279      -219.9028
  17   2.0000      -8.077659      -219.8043
  18   2.0000      -6.039701      -164.3486
  19   2.0000      -6.035901      -164.2452
  20   2.0000      -6.035669      -164.2389
  21   2.0000      -6.032206      -164.1447
  22   2.0000      -6.032138      -164.1428
  23   2.0000      -6.028491      -164.0436
  24   2.0000      -1.012503       -27.5516
  25   2.0000      -0.988162       -26.8893
  26   2.0000      -0.911393       -24.8003
  27   2.0000      -0.909868       -24.7588
  28   2.0000      -0.870794       -23.6955
  29   2.0000      -0.854378       -23.2488
  30   2.0000      -0.847064       -23.0498
  31   2.0000      -0.811564       -22.0838
  32   2.0000      -0.788596       -21.4588
  33   2.0000      -0.776591       -21.1321
  34   2.0000      -0.711954       -19.3733
  35   2.0000      -0.698122       -18.9969
  36   2.0000      -0.689436       -18.7605
  37   2.0000      -0.660063       -17.9612
  38   2.0000      -0.642842       -17.4926
  39   2.0000      -0.622301       -16.9337
  40   2.0000      -0.589247       -16.0342
  41   2.0000      -0.570157       -15.5148
  42   2.0000      -0.563345       -15.3294
  43   2.0000      -0.551899       -15.0179
  44   2.0000      -0.545787       -14.8516
  45   2.0000      -0.537479       -14.6255
  46   2.0000      -0.515010       -14.0141
  47   2.0000      -0.513482       -13.9725
  48   2.0000      -0.503079       -13.6895
  49   2.0000      -0.492092       -13.3905
  50   2.0000      -0.488752       -13.2996
  51   2.0000      -0.478458       -13.0195
  52   2.0000      -0.471669       -12.8348
  53   2.0000      -0.470225       -12.7955
  54   2.0000      -0.458930       -12.4881
  55   2.0000      -0.449261       -12.2250
  56   2.0000      -0.443572       -12.0702
  57   2.0000      -0.439010       -11.9461
  58   2.0000      -0.436434       -11.8760
  59   2.0000      -0.425234       -11.5712
  60   2.0000      -0.423520       -11.5246
  61   2.0000      -0.411212       -11.1897
  62   2.0000      -0.407450       -11.0873
  63   2.0000      -0.337319        -9.1789
  64   2.0000      -0.335041        -9.1169
  65   2.0000      -0.331722        -9.0266
  66   2.0000      -0.296701        -8.0736
  67   0.0000       0.035923         0.9775
  68   0.0000       0.063405         1.7253
  69   0.0000       0.117117         3.1869
  70   0.0000       0.121115         3.2957
  71   0.0000       0.128113         3.4861

MULLIKEN ATOMIC CHARGES
-----------------------
   0 S :    0.121568
   1 C :   -0.145295
   2 C :   -0.087547
   3 C :    0.057175
   4 C :   -0.178511
   5 H :   -0.003452
   6 C :    0.093243
   7 H :    0.033351
   8 H :    0.000539
   9 C :   -0.043941
  10 H :    0.009897
  11 H :    0.013929
  12 C :   -0.048695
  13 H :    0.025945
  14 H :    0.041692
  15 H :    0.027993
  16 S :    0.107485
  17 C :   -0.091568
  18 C :   -0.073161
  19 C :   -0.038854
  20 C :   -0.176067
  21 H :    0.039058
  22 C :    0.123893
  23 H :    0.008630
  24 H :    0.013115
  25 C :   -0.025607
  26 H :    0.025537
  27 H :    0.028431
  28 C :   -0.082502
  29 H :    0.046189
  30 H :    0.016536
  31 H :    0.039757
  32 H :    0.064345
  33 H :    0.056893
Sum of atomic charges:    0.0000000

LOEWDIN ATOMIC CHARGES
----------------------
   0 S :    0.416130
   1 C :   -0.206485
   2 C :   -0.063796
   3 C :   -0.054785
   4 C :   -0.202260
   5 H :    0.022159
   6 C :   -0.022918
   7 H :    0.035166
   8 H :    0.021005
   9 C :   -0.036766
  10 H :    0.015154
  11 H :    0.020029
  12 C :   -0.068285
  13 H :    0.030893
  14 H :    0.029078
  15 H :    0.023447
  16 S :    0.409971
  17 C :   -0.195491
  18 C :   -0.085800
  19 C :   -0.054215
  20 C :   -0.193999
  21 H :    0.044158
  22 C :   -0.020093
  23 H :    0.023455
  24 H :    0.030940
  25 C :   -0.033578
  26 H :    0.021624
  27 H :    0.026067
  28 C :   -0.075519
  29 H :    0.030168
  30 H :    0.021978
  31 H :    0.028197
  32 H :    0.037027
  33 H :    0.027347

  Mayer bond orders larger than 0.100000
B(  0-S ,  1-C ) :   1.1503 B(  0-S ,  4-C ) :   1.1644 B(  1-C ,  2-C ) :   1.5907
B(  1-C ,  4-C ) :   0.1039 B(  1-C , 32-H ) :   0.9638 B(  2-C ,  3-C ) :   1.2496
B(  2-C ,  6-C ) :   1.0202 B(  3-C ,  4-C ) :   1.5568 B(  3-C ,  5-H ) :   1.0037
B(  4-C , 20-C ) :   1.0179 B(  6-C ,  7-H ) :   0.9399 B(  6-C ,  8-H ) :   0.9390
B(  6-C ,  9-C ) :   1.0754 B(  9-C , 10-H ) :   0.9518 B(  9-C , 11-H ) :   0.9555
B(  9-C , 12-C ) :   1.0858 B( 12-C , 13-H ) :   0.9702 B( 12-C , 14-H ) :   0.9743
B( 12-C , 15-H ) :   0.9738 B( 16-S , 17-C ) :   1.1721 B( 16-S , 20-C ) :   1.1400
B( 17-C , 18-C ) :   1.6232 B( 17-C , 33-H ) :   0.9620 B( 18-C , 19-C ) :   1.2276
B( 18-C , 21-H ) :   0.9824 B( 19-C , 20-C ) :   1.6193 B( 19-C , 22-C ) :   1.0229
B( 22-C , 23-H ) :   0.9274 B( 22-C , 24-H ) :   0.9277 B( 22-C , 25-C ) :   1.0729
B( 25-C , 26-H ) :   0.9543 B( 25-C , 27-H ) :   0.9532 B( 25-C , 28-C ) :   1.0923
B( 28-C , 29-H ) :   0.9689 B( 28-C , 30-H ) :   0.9745 B( 28-C , 31-H ) :   0.9740

Dispersion correction           -0.015176962
FINAL SINGLE POINT ENERGY     -1339.882604413972

DIPOLE MOMENT
-------------
                                X             Y             Z
Electronic contribution:    -16.81357     -13.42395     -16.01159
Nuclear contribution   :     17.06332      13.92372      16.32638
                        -----------------------------------------
Total Dipole Moment    :      0.24976       0.49976       0.31479
                        -----------------------------------------
Magnitude (a.u.)       :      0.64128
Magnitude (Debye)      :      1.63000

Rotational constants in cm-1:     0.019087     0.009187     0.007562
Rotational constants in MHz :   572.209920   275.415265   226.715927

                             ****ORCA TERMINATED NORMALLY****
TOTAL RUN TIME: 0 days 0 hours 0 minutes 36 seconds 976 msec
