                         Program Version 4.2.1 -  RELEASE  -
|  1> ! wB97X-D3 SP def2-SVP
|  2> %pal
|  3> nprocs 16
|  4> end
|  5>
|  6> * xyz 0 1
|  7> S 	 11.1325 	 -10.5462 	 92.5472
|  8> C 	 11.3566 	 -9.58763 	 93.9172
|  9> C 	 11.0867 	 -8.28302 	 93.6847
| 10> C 	 10.7079 	 -8.05797 	 92.3501
| 11> C 	 10.538 	 -9.19908 	 91.6266
| 12> H 	 10.5144 	 -7.0748 	 91.95
| 13> C 	 11.339 	 -7.14912 	 94.6563
| 14> H 	 12.2083 	 -6.70295 	 94.2239
| 15> H 	 11.5703 	 -7.65401 	 95.6011
| 16> C 	 10.214 	 -6.11041 	 94.8119
| 17> H 	 10.0503 	 -5.51922 	 93.8827
| 18> H 	 9.22311 	 -6.52071 	 95.0065
| 19> C 	 10.3629 	 -5.1187 	 96.0169
| 20> H 	 10.1619 	 -5.64493 	 96.9328
| 21> H 	 11.3696 	 -4.73699 	 96.077
| 22> H 	 9.77195 	 -4.28158 	 95.9846
| 23> S 	 11.579 	 -9.82778 	 89.1032
| 24> C 	 10.6061 	 -9.48036 	 87.6809
| 25> C 	 9.42525 	 -8.91001 	 88.0107
| 26> C 	 9.19458 	 -8.77837 	 89.4354
| 27> C 	 10.2062 	 -9.31764 	 90.2161
| 28> H 	 8.76106 	 -8.50495 	 87.2669
| 29> C 	 7.91566 	 -8.11243 	 89.8768
| 30> H 	 7.36106 	 -7.81021 	 89
| 31> H 	 8.11728 	 -7.25174 	 90.4458
| 32> C 	 6.90986 	 -8.85747 	 90.706
| 33> H 	 7.26115 	 -9.3119 	 91.652
| 34> H 	 6.69243 	 -9.78571 	 90.1192
| 35> C 	 5.53072 	 -8.05567 	 90.8679
| 36> H 	 5.71497 	 -7.10705 	 91.3011
| 37> H 	 4.94977 	 -8.62274 	 91.5263
| 38> H 	 4.91825 	 -8.1032 	 89.9408
| 39> H 	 11.6037 	 -10.1048 	 94.8648
| 40> H 	 10.9837 	 -9.51568 	 86.6313
| 41> *
| 42>
| 43>                          ****END OF INPUT****

CARTESIAN COORDINATES (ANGSTROEM)
---------------------------------
  S     11.132500  -10.546200   92.547200
  C     11.356600   -9.587630   93.917200
  C     11.086700   -8.283020   93.684700
  C     10.707900   -8.057970   92.350100
  C     10.538000   -9.199080   91.626600
  H     10.514400   -7.074800   91.950000
  C     11.339000   -7.149120   94.656300
  H     12.208300   -6.702950   94.223900
  H     11.570300   -7.654010   95.601100
  C     10.214000   -6.110410   94.811900
  H     10.050300   -5.519220   93.882700
  H      9.223110   -6.520710   95.006500
  C     10.362900   -5.118700   96.016900
  H     10.161900   -5.644930   96.932800
  H     11.369600   -4.736990   96.077000
  H      9.771950   -4.281580   95.984600
  S     11.579000   -9.827780   89.103200
  C     10.606100   -9.480360   87.680900
  C      9.425250   -8.910010   88.010700
  C      9.194580   -8.778370   89.435400
  C     10.206200   -9.317640   90.216100
  H      8.761060   -8.504950   87.266900
  C      7.915660   -8.112430   89.876800
  H      7.361060   -7.810210   89.000000
  H      8.117280   -7.251740   90.445800
  C      6.909860   -8.857470   90.706000
  H      7.261150   -9.311900   91.652000
  H      6.692430   -9.785710   90.119200
  C      5.530720   -8.055670   90.867900
  H      5.714970   -7.107050   91.301100
  H      4.949770   -8.622740   91.526300
  H      4.918250   -8.103200   89.940800
  H     11.603700  -10.104800   94.864800
  H     10.983700   -9.515680   86.631300

 Total Charge           Charge          ....    0
 Multiplicity           Mult            ....    1
 Number of Electrons    NEL             ....  134
 Basis Dimension        Dim             ....  322

ORBITAL ENERGIES
----------------

  NO   OCC          E(Eh)            E(eV)
   0   2.0000     -88.961386     -2420.7624
   1   2.0000     -88.960504     -2420.7384
   2   2.0000     -10.330918      -281.1186
   3   2.0000     -10.324424      -280.9419
   4   2.0000     -10.318841      -280.7899
   5   2.0000     -10.308283      -280.5026
   6   2.0000     -10.306039      -280.4416
   7   2.0000     -10.293682      -280.1053
   8   2.0000     -10.293549      -280.1017
   9   2.0000     -10.292717      -280.0791
  10   2.0000     -10.290270      -280.0125
  11   2.0000     -10.288595      -279.9669
  12   2.0000     -10.286872      -279.9200
  13   2.0000     -10.282987      -279.8143
  14   2.0000     -10.277385      -279.6619
  15   2.0000     -10.271246      -279.4948
  16   2.0000      -8.078035      -219.8145
  17   2.0000      -8.074214      -219.7105
  18   2.0000      -6.036364      -164.2578
  19   2.0000      -6.032974      -164.1656
  20   2.0000      -6.032240      -164.1456
  21   2.0000      -6.028974      -164.0567
  22   2.0000      -6.028902      -164.0548
  23   2.0000      -6.024644      -163.9389
  24   2.0000      -1.014270       -27.5997
  25   2.0000      -0.982253       -26.7285
  26   2.0000      -0.910580       -24.7781
  27   2.0000      -0.907150       -24.6848
  28   2.0000      -0.872060       -23.7300
  29   2.0000      -0.854011       -23.2388
  30   2.0000      -0.842537       -22.9266
  31   2.0000      -0.816521       -22.2187
  32   2.0000      -0.785933       -21.3863
  33   2.0000      -0.774934       -21.0870
  34   2.0000      -0.713950       -19.4276
  35   2.0000      -0.700684       -19.0666
  36   2.0000      -0.686173       -18.6717
  37   2.0000      -0.659633       -17.9495
  38   2.0000      -0.645069       -17.5532
  39   2.0000      -0.624182       -16.9849
  40   2.0000      -0.598336       -16.2815
  41   2.0000      -0.570514       -15.5245
  42   2.0000      -0.565586       -15.3904
  43   2.0000      -0.557702       -15.1758
  44   2.0000      -0.529630       -14.4120
  45   2.0000      -0.524071       -14.2607
  46   2.0000      -0.517146       -14.0723
  47   2.0000      -0.512682       -13.9508
  48   2.0000      -0.506594       -13.7851
  49   2.0000      -0.497158       -13.5284
  50   2.0000      -0.493221       -13.4212
  51   2.0000      -0.485360       -13.2073
  52   2.0000      -0.470469       -12.8021
  53   2.0000      -0.468373       -12.7451
  54   2.0000      -0.461423       -12.5560
  55   2.0000      -0.448109       -12.1937
  56   2.0000      -0.442386       -12.0379
  57   2.0000      -0.438100       -11.9213
  58   2.0000      -0.436020       -11.8647
  59   2.0000      -0.425563       -11.5801
  60   2.0000      -0.416288       -11.3278
  61   2.0000      -0.414630       -11.2827
  62   2.0000      -0.408882       -11.1263
  63   2.0000      -0.347386        -9.4528
  64   2.0000      -0.329975        -8.9791
  65   2.0000      -0.326572        -8.8865
  66   2.0000      -0.297690        -8.1006
  67   0.0000       0.034903         0.9497
  68   0.0000       0.064180         1.7464
  69   0.0000       0.111457         3.0329
  70   0.0000       0.126301         3.4368
  71   0.0000       0.135857         3.6969

MULLIKEN ATOMIC CHARGES
-----------------------
   0 S :    0.111748
   1 C :   -0.152382
   2 C :   -0.085529
   3 C :    0.034465
   4 C :   -0.172990
   5 H :    0.009745
   6 C :    0.117067
   7 H :    0.039453
   8 H :    0.016967
   9 C :   -0.113809
  10 H :    0.031176
  11 H :    0.030116
  12 C :   -0.011682
  13 H :    0.027390
  14 H :    0.017629
  15 H :    0.015355
  16 S :    0.074675
  17 C :   -0.089006
  18 C :   -0.033200
  19 C :   -0.040624
  20 C :   -0.119208
  21 H :    0.016206
  22 C :    0.123881
  23 H :    0.005233
  24 H :    0.009407
  25 C :   -0.127435
  26 H :    0.042158
  27 H :    0.021956
  28 C :   -0.026201
  29 H :    0.033673
  30 H :    0.016759
  31 H :    0.040947
  32 H :    0.062283
  33 H :    0.073776
Sum of atomic charges:    0.0000000

LOEWDIN ATOMIC CHARGES
----------------------
   0 S :    0.434496
   1 C :   -0.216991
   2 C :   -0.071688
   3 C :   -0.054761
   4 C :   -0.204959
   5 H :    0.030297
   6 C :   -0.024010
   7 H :    0.036258
   8 H :    0.031517
   9 C :   -0.044716
  10 H :    0.024048
  11 H :    0.025243
  12 C :   -0.055940
  13 H :    0.023849
  14 H :    0.021977
  15 H :    0.015027
  16 S :    0.358952
  17 C :   -0.180807
  18 C :   -0.076990
  19 C :   -0.046261
  20 C :   -0.172648
  21 H :    0.029978
  22 C :   -0.034270
  23 H :    0.030336
  24 H :    0.023062
  25 C :   -0.042031
  26 H :    0.025268
  27 H :    0.024274
  28 C :   -0.057913
  29 H :    0.019657
  30 H :    0.020670
  31 H :    0.033158
  32 H :    0.033801
  33 H :    0.042114

  Mayer bond orders larger than 0.100000
B(  0-S ,  1-C ) :   1.1610 B(  0-S ,  4-C ) :   1.1640 B(  1-C ,  2-C ) :   1.5968
B(  1-C , 32-H ) :   0.9636 B(  2-C ,  3-C ) :   1.2582 B(  2-C ,  6-C ) :   1.0145
B(  3-C ,  4-C ) :   1.5665 B(  3-C ,  5-H ) :   0.9991 B(  4-C , 20-C ) :   1.0270
B(  6-C ,  7-H ) :   0.9310 B(  6-C ,  8-H ) :   0.9437 B(  6-C ,  9-C ) :   1.0570
B(  9-C , 10-H ) :   0.9537 B(  9-C , 11-H ) :   0.9639 B(  9-C , 12-C ) :   1.0839
B( 12-C , 13-H ) :   0.9780 B( 12-C , 14-H ) :   0.9746 B( 12-C , 15-H ) :   0.9751
B( 16-S , 17-C ) :   1.1416 B( 16-S , 20-C ) :   1.1052 B( 17-C , 18-C ) :   1.6423
B( 17-C , 33-H ) :   0.9567 B( 18-C , 19-C ) :   1.2222 B( 18-C , 21-H ) :   0.9879
B( 19-C , 20-C ) :   1.6326 B( 19-C , 22-C ) :   1.0466 B( 22-C , 23-H ) :   0.9330
B( 22-C , 24-H ) :   0.9181 B( 22-C , 25-C ) :   1.0655 B( 25-C , 26-H ) :   0.9587
B( 25-C , 27-H ) :   0.9541 B( 25-C , 28-C ) :   1.0752 B( 28-C , 29-H ) :   0.9785
B( 28-C , 30-H ) :   0.9729 B( 28-C , 31-H ) :   0.9745

Dispersion correction           -0.013659527
FINAL SINGLE POINT ENERGY     -1339.871930815621

DIPOLE MOMENT
-------------
                                X             Y             Z
Electronic contribution:     18.17823     -19.81081     -13.84976
Nuclear contribution   :    -18.53751      20.47072      14.05094
                        -----------------------------------------
Total Dipole Moment    :     -0.35928       0.65991       0.20118
                        -----------------------------------------
Magnitude (a.u.)       :      0.77784
Magnitude (Debye)      :      1.97712

Rotational constants in cm-1:     0.016451     0.008731     0.006741
Rotational constants in MHz :   493.179105   261.759175   202.087082

                             ****ORCA TERMINATED NORMALLY****
TOTAL RUN TIME: 0 days 0 hours 0 minutes 33 seconds 88 msec
