                         Program Version 4.2.1 -  RELEASE  -
|  1> ! wB97X-D3 SP def2-SVP
|  2> %pal
|  3> nprocs 16
|  4> end
|  5>
|  6> * xyz 0 1
|  7> S 	 34.3372 	 24.2249 	 80.9424
|  8> C 	 33.6271 	 25.7739 	 81.1707
|  9> C 	 34.5883 	 26.4833 	 81.952
| 10> C 	 35.7565 	 25.8153 	 82.3136
| 11> C 	 35.7472 	 24.52 	 81.8556
| 12> H 	 36.5795 	 26.2412 	 82.8926
| 13> C 	 34.4298 	 27.9353 	 82.38
| 14> H 	 34.5381 	 28.6897 	 81.5672
| 15> H 	 35.2624 	 28.1016 	 83.0908
| 16> C 	 33.155 	 28.2822 	 83.2237
| 17> H 	 32.22 	 28.171 	 82.6825
| 18> H 	 33.1058 	 27.5829 	 84.1453
| 19> C 	 33.1513 	 29.7886 	 83.5933
| 20> H 	 32.3956 	 29.9636 	 84.4219
| 21> H 	 34.0894 	 30.0545 	 84.0532
| 22> H 	 32.9215 	 30.4076 	 82.6737
| 23> S 	 36.2989 	 21.853 	 82.1128
| 24> C 	 37.9431 	 21.318 	 81.989
| 25> C 	 38.8135 	 22.3515 	 82.0563
| 26> C 	 38.2012 	 23.6483 	 82.0858
| 27> C 	 36.8273 	 23.5469 	 81.979
| 28> H 	 39.869 	 22.135 	 82.2166
| 29> C 	 39.0142 	 24.8338 	 82.3979
| 30> H 	 38.7678 	 25.6269 	 81.7389
| 31> H 	 40.0769 	 24.7356 	 82.0796
| 32> C 	 39.0483 	 25.2417 	 83.851
| 33> H 	 37.9742 	 25.4998 	 84.096
| 34> H 	 39.6053 	 26.1532 	 83.9866
| 35> C 	 39.7065 	 24.1604 	 84.7856
| 36> H 	 38.937 	 23.4605 	 85.1346
| 37> H 	 40.004 	 24.5655 	 85.7621
| 38> H 	 40.611 	 23.6536 	 84.3613
| 39> H 	 32.6296 	 26.028 	 80.6791
| 40> H 	 38.3891 	 20.3217 	 82.0905
| 41> *
| 42>
| 43>                          ****END OF INPUT****

CARTESIAN COORDINATES (ANGSTROEM)
---------------------------------
  S     34.337200   24.224900   80.942400
  C     33.627100   25.773900   81.170700
  C     34.588300   26.483300   81.952000
  C     35.756500   25.815300   82.313600
  C     35.747200   24.520000   81.855600
  H     36.579500   26.241200   82.892600
  C     34.429800   27.935300   82.380000
  H     34.538100   28.689700   81.567200
  H     35.262400   28.101600   83.090800
  C     33.155000   28.282200   83.223700
  H     32.220000   28.171000   82.682500
  H     33.105800   27.582900   84.145300
  C     33.151300   29.788600   83.593300
  H     32.395600   29.963600   84.421900
  H     34.089400   30.054500   84.053200
  H     32.921500   30.407600   82.673700
  S     36.298900   21.853000   82.112800
  C     37.943100   21.318000   81.989000
  C     38.813500   22.351500   82.056300
  C     38.201200   23.648300   82.085800
  C     36.827300   23.546900   81.979000
  H     39.869000   22.135000   82.216600
  C     39.014200   24.833800   82.397900
  H     38.767800   25.626900   81.738900
  H     40.076900   24.735600   82.079600
  C     39.048300   25.241700   83.851000
  H     37.974200   25.499800   84.096000
  H     39.605300   26.153200   83.986600
  C     39.706500   24.160400   84.785600
  H     38.937000   23.460500   85.134600
  H     40.004000   24.565500   85.762100
  H     40.611000   23.653600   84.361300
  H     32.629600   26.028000   80.679100
  H     38.389100   20.321700   82.090500

 Total Charge           Charge          ....    0
 Multiplicity           Mult            ....    1
 Number of Electrons    NEL             ....  134
 Basis Dimension        Dim             ....  322

ORBITAL ENERGIES
----------------

  NO   OCC          E(Eh)            E(eV)
   0   2.0000     -88.966859     -2420.9113
   1   2.0000     -88.965708     -2420.8800
   2   2.0000     -10.330058      -281.0952
   3   2.0000     -10.326837      -281.0075
   4   2.0000     -10.323137      -280.9068
   5   2.0000     -10.311508      -280.5904
   6   2.0000     -10.303691      -280.3777
   7   2.0000     -10.301097      -280.3071
   8   2.0000     -10.294720      -280.1336
   9   2.0000     -10.293541      -280.1015
  10   2.0000     -10.292412      -280.0708
  11   2.0000     -10.290913      -280.0300
  12   2.0000     -10.287739      -279.9436
  13   2.0000     -10.287461      -279.9360
  14   2.0000     -10.285568      -279.8845
  15   2.0000     -10.285463      -279.8817
  16   2.0000      -8.082637      -219.9397
  17   2.0000      -8.080281      -219.8756
  18   2.0000      -6.040949      -164.3826
  19   2.0000      -6.038946      -164.3281
  20   2.0000      -6.036637      -164.2652
  21   2.0000      -6.034941      -164.2191
  22   2.0000      -6.033877      -164.1901
  23   2.0000      -6.030752      -164.1051
  24   2.0000      -1.015177       -27.6244
  25   2.0000      -0.990510       -26.9531
  26   2.0000      -0.915430       -24.9101
  27   2.0000      -0.903597       -24.5881
  28   2.0000      -0.869829       -23.6692
  29   2.0000      -0.854193       -23.2438
  30   2.0000      -0.843783       -22.9605
  31   2.0000      -0.814355       -22.1597
  32   2.0000      -0.784660       -21.3517
  33   2.0000      -0.765810       -20.8387
  34   2.0000      -0.710466       -19.3328
  35   2.0000      -0.694480       -18.8978
  36   2.0000      -0.687537       -18.7088
  37   2.0000      -0.663782       -18.0624
  38   2.0000      -0.641247       -17.4492
  39   2.0000      -0.619559       -16.8591
  40   2.0000      -0.598495       -16.2859
  41   2.0000      -0.565503       -15.3881
  42   2.0000      -0.561898       -15.2900
  43   2.0000      -0.553242       -15.0545
  44   2.0000      -0.549420       -14.9505
  45   2.0000      -0.520845       -14.1729
  46   2.0000      -0.514393       -13.9974
  47   2.0000      -0.511922       -13.9301
  48   2.0000      -0.502625       -13.6771
  49   2.0000      -0.496758       -13.5175
  50   2.0000      -0.489441       -13.3184
  51   2.0000      -0.480402       -13.0724
  52   2.0000      -0.474153       -12.9024
  53   2.0000      -0.464582       -12.6419
  54   2.0000      -0.460900       -12.5417
  55   2.0000      -0.445750       -12.1295
  56   2.0000      -0.444682       -12.1004
  57   2.0000      -0.433445       -11.7946
  58   2.0000      -0.426427       -11.6037
  59   2.0000      -0.423444       -11.5225
  60   2.0000      -0.417113       -11.3502
  61   2.0000      -0.415461       -11.3053
  62   2.0000      -0.407286       -11.0828
  63   2.0000      -0.356957        -9.7133
  64   2.0000      -0.333375        -9.0716
  65   2.0000      -0.330348        -8.9892
  66   2.0000      -0.285904        -7.7798
  67   0.0000       0.023597         0.6421
  68   0.0000       0.078902         2.1470
  69   0.0000       0.105962         2.8834
  70   0.0000       0.122748         3.3401
  71   0.0000       0.134912         3.6711

MULLIKEN ATOMIC CHARGES
-----------------------
   0 S :    0.120251
   1 C :   -0.153973
   2 C :   -0.068637
   3 C :   -0.012775
   4 C :   -0.092137
   5 H :    0.013585
   6 C :    0.034542
   7 H :    0.043513
   8 H :    0.014723
   9 C :   -0.113216
  10 H :    0.030129
  11 H :    0.047008
  12 C :   -0.074692
  13 H :    0.043416
  14 H :    0.023959
  15 H :    0.050336
  16 S :    0.103172
  17 C :   -0.068964
  18 C :   -0.058192
  19 C :   -0.016978
  20 C :   -0.163462
  21 H :    0.019170
  22 C :    0.047868
  23 H :    0.018069
  24 H :    0.015082
  25 C :   -0.064860
  26 H :    0.036731
  27 H :    0.030072
  28 C :   -0.067710
  29 H :    0.044867
  30 H :    0.027584
  31 H :    0.043629
  32 H :    0.092687
  33 H :    0.055202
Sum of atomic charges:   -0.0000000

LOEWDIN ATOMIC CHARGES
----------------------
   0 S :    0.452340
   1 C :   -0.229727
   2 C :   -0.065441
   3 C :   -0.077758
   4 C :   -0.207769
   5 H :    0.034550
   6 C :   -0.038921
   7 H :    0.032580
   8 H :    0.027758
   9 C :   -0.048835
  10 H :    0.017776
  11 H :    0.032785
  12 C :   -0.073931
  13 H :    0.033447
  14 H :    0.016830
  15 H :    0.033133
  16 S :    0.396468
  17 C :   -0.196328
  18 C :   -0.071154
  19 C :   -0.055526
  20 C :   -0.177555
  21 H :    0.032170
  22 C :   -0.045017
  23 H :    0.028152
  24 H :    0.033944
  25 C :   -0.037203
  26 H :    0.026214
  27 H :    0.022624
  28 C :   -0.074745
  29 H :    0.032385
  30 H :    0.027082
  31 H :    0.030115
  32 H :    0.051507
  33 H :    0.038048

  Mayer bond orders larger than 0.100000
B(  0-S ,  1-C ) :   1.1600 B(  0-S ,  4-C ) :   1.2051 B(  1-C ,  2-C ) :   1.4960
B(  1-C ,  4-C ) :   0.1104 B(  1-C , 32-H ) :   0.9726 B(  2-C ,  3-C ) :   1.3287
B(  2-C ,  6-C ) :   1.0185 B(  3-C ,  4-C ) :   1.4867 B(  3-C ,  5-H ) :   0.9887
B(  4-C , 20-C ) :   1.0468 B(  6-C ,  7-H ) :   0.9417 B(  6-C ,  8-H ) :   0.9472
B(  6-C ,  9-C ) :   1.0564 B(  9-C , 10-H ) :   0.9579 B(  9-C , 11-H ) :   0.9582
B(  9-C , 12-C ) :   1.0729 B( 12-C , 13-H ) :   0.9743 B( 12-C , 14-H ) :   0.9767
B( 12-C , 15-H ) :   0.9738 B( 16-S , 17-C ) :   1.1319 B( 16-S , 20-C ) :   1.1354
B( 17-C , 18-C ) :   1.6515 B( 17-C , 33-H ) :   0.9585 B( 18-C , 19-C ) :   1.2285
B( 18-C , 21-H ) :   0.9827 B( 19-C , 20-C ) :   1.5962 B( 19-C , 22-C ) :   1.0613
B( 22-C , 23-H ) :   0.9171 B( 22-C , 24-H ) :   0.9260 B( 22-C , 25-C ) :   1.0810
B( 25-C , 26-H ) :   0.9469 B( 25-C , 27-H ) :   0.9570 B( 25-C , 28-C ) :   1.0655
B( 28-C , 29-H ) :   0.9729 B( 28-C , 30-H ) :   0.9740 B( 28-C , 31-H ) :   0.9752

Dispersion correction           -0.014443725
FINAL SINGLE POINT ENERGY     -1339.871571285297

DIPOLE MOMENT
-------------
                                X             Y             Z
Electronic contribution:     -6.41680     -23.74245     -14.45953
Nuclear contribution   :      6.81106      24.19829      14.76575
                        -----------------------------------------
Total Dipole Moment    :      0.39426       0.45584       0.30622
                        -----------------------------------------
Magnitude (a.u.)       :      0.67602
Magnitude (Debye)      :      1.71830

Rotational constants in cm-1:     0.021391     0.008142     0.006289
Rotational constants in MHz :   641.288154   244.088579   188.530792

                             ****ORCA TERMINATED NORMALLY****
TOTAL RUN TIME: 0 days 0 hours 0 minutes 28 seconds 694 msec
