                         Program Version 4.2.1 -  RELEASE  -
|  1> ! wB97X-D3 SP def2-SVP
|  2> %pal
|  3> nprocs 16
|  4> end
|  5>
|  6> * xyz 0 1
|  7> S 	 -31.5651 	 30.2377 	 42.9123
|  8> C 	 -31.1187 	 30.042 	 44.6115
|  9> C 	 -32.2195 	 30.3784 	 45.3501
| 10> C 	 -33.24 	 30.9911 	 44.6054
| 11> C 	 -33.1219 	 30.9033 	 43.2368
| 12> H 	 -34.0173 	 31.6328 	 45.1002
| 13> C 	 -32.3012 	 30.4186 	 46.8487
| 14> H 	 -31.9683 	 29.4897 	 47.3419
| 15> H 	 -33.367 	 30.5048 	 47.2021
| 16> C 	 -31.5776 	 31.5808 	 47.5509
| 17> H 	 -31.8537 	 32.4445 	 47.0246
| 18> H 	 -31.7917 	 31.6232 	 48.5989
| 19> C 	 -30.0325 	 31.5561 	 47.4615
| 20> H 	 -29.7449 	 31.7724 	 46.4268
| 21> H 	 -29.6911 	 32.3026 	 48.2052
| 22> H 	 -29.5544 	 30.5936 	 47.764
| 23> S 	 -32.8742 	 32.2328 	 40.8031
| 24> C 	 -34.4421 	 32.6271 	 39.9758
| 25> C 	 -35.5261 	 31.932 	 40.5572
| 26> C 	 -35.2125 	 31.3344 	 41.8382
| 27> C 	 -33.8822 	 31.4235 	 42.1184
| 28> H 	 -36.4938 	 32.0351 	 40.1102
| 29> C 	 -36.311 	 30.5618 	 42.4893
| 30> H 	 -37.1036 	 30.3278 	 41.7525
| 31> H 	 -36.6989 	 31.1797 	 43.2831
| 32> C 	 -35.9794 	 29.2227 	 43.2099
| 33> H 	 -35.1947 	 29.3295 	 43.9554
| 34> H 	 -35.6 	 28.4293 	 42.5189
| 35> C 	 -37.1511 	 28.566 	 43.9941
| 36> H 	 -37.2961 	 29.0215 	 45.0023
| 37> H 	 -37.0531 	 27.5532 	 44.1818
| 38> H 	 -38.1095 	 28.7932 	 43.4994
| 39> H 	 -30.2014 	 29.7226 	 45.0689
| 40> H 	 -34.6297 	 33.0975 	 39.0072
| 41> *
| 42>
| 43>                          ****END OF INPUT****

CARTESIAN COORDINATES (ANGSTROEM)
---------------------------------
  S    -31.565100   30.237700   42.912300
  C    -31.118700   30.042000   44.611500
  C    -32.219500   30.378400   45.350100
  C    -33.240000   30.991100   44.605400
  C    -33.121900   30.903300   43.236800
  H    -34.017300   31.632800   45.100200
  C    -32.301200   30.418600   46.848700
  H    -31.968300   29.489700   47.341900
  H    -33.367000   30.504800   47.202100
  C    -31.577600   31.580800   47.550900
  H    -31.853700   32.444500   47.024600
  H    -31.791700   31.623200   48.598900
  C    -30.032500   31.556100   47.461500
  H    -29.744900   31.772400   46.426800
  H    -29.691100   32.302600   48.205200
  H    -29.554400   30.593600   47.764000
  S    -32.874200   32.232800   40.803100
  C    -34.442100   32.627100   39.975800
  C    -35.526100   31.932000   40.557200
  C    -35.212500   31.334400   41.838200
  C    -33.882200   31.423500   42.118400
  H    -36.493800   32.035100   40.110200
  C    -36.311000   30.561800   42.489300
  H    -37.103600   30.327800   41.752500
  H    -36.698900   31.179700   43.283100
  C    -35.979400   29.222700   43.209900
  H    -35.194700   29.329500   43.955400
  H    -35.600000   28.429300   42.518900
  C    -37.151100   28.566000   43.994100
  H    -37.296100   29.021500   45.002300
  H    -37.053100   27.553200   44.181800
  H    -38.109500   28.793200   43.499400
  H    -30.201400   29.722600   45.068900
  H    -34.629700   33.097500   39.007200

 Total Charge           Charge          ....    0
 Multiplicity           Mult            ....    1
 Number of Electrons    NEL             ....  134
 Basis Dimension        Dim             ....  322

ORBITAL ENERGIES
----------------

  NO   OCC          E(Eh)            E(eV)
   0   2.0000     -88.972065     -2421.0530
   1   2.0000     -88.964803     -2420.8554
   2   2.0000     -10.335437      -281.2415
   3   2.0000     -10.329011      -281.0667
   4   2.0000     -10.327759      -281.0326
   5   2.0000     -10.314550      -280.6732
   6   2.0000     -10.308961      -280.5211
   7   2.0000     -10.299414      -280.2613
   8   2.0000     -10.298026      -280.2235
   9   2.0000     -10.297418      -280.2070
  10   2.0000     -10.294350      -280.1235
  11   2.0000     -10.292854      -280.0828
  12   2.0000     -10.285076      -279.8712
  13   2.0000     -10.280426      -279.7446
  14   2.0000     -10.280083      -279.7353
  15   2.0000     -10.274581      -279.5856
  16   2.0000      -8.084105      -219.9797
  17   2.0000      -8.079742      -219.8610
  18   2.0000      -6.042964      -164.4374
  19   2.0000      -6.039290      -164.3374
  20   2.0000      -6.038350      -164.3119
  21   2.0000      -6.034324      -164.2023
  22   2.0000      -6.034060      -164.1951
  23   2.0000      -6.030504      -164.0984
  24   2.0000      -1.010349       -27.4930
  25   2.0000      -0.978570       -26.6283
  26   2.0000      -0.913556       -24.8591
  27   2.0000      -0.902928       -24.5699
  28   2.0000      -0.869026       -23.6474
  29   2.0000      -0.850896       -23.1541
  30   2.0000      -0.843096       -22.9418
  31   2.0000      -0.812691       -22.1144
  32   2.0000      -0.783223       -21.3126
  33   2.0000      -0.777256       -21.1502
  34   2.0000      -0.714480       -19.4420
  35   2.0000      -0.696494       -18.9526
  36   2.0000      -0.689223       -18.7547
  37   2.0000      -0.662136       -18.0176
  38   2.0000      -0.640907       -17.4400
  39   2.0000      -0.620798       -16.8928
  40   2.0000      -0.593711       -16.1557
  41   2.0000      -0.578503       -15.7419
  42   2.0000      -0.565812       -15.3965
  43   2.0000      -0.549485       -14.9522
  44   2.0000      -0.531400       -14.4601
  45   2.0000      -0.526109       -14.3162
  46   2.0000      -0.517013       -14.0686
  47   2.0000      -0.511439       -13.9170
  48   2.0000      -0.505419       -13.7532
  49   2.0000      -0.497690       -13.5428
  50   2.0000      -0.492444       -13.4001
  51   2.0000      -0.483086       -13.1454
  52   2.0000      -0.478079       -13.0092
  53   2.0000      -0.462344       -12.5810
  54   2.0000      -0.456705       -12.4276
  55   2.0000      -0.448739       -12.2108
  56   2.0000      -0.438518       -11.9327
  57   2.0000      -0.433648       -11.8002
  58   2.0000      -0.429292       -11.6816
  59   2.0000      -0.422435       -11.4950
  60   2.0000      -0.420347       -11.4382
  61   2.0000      -0.412858       -11.2344
  62   2.0000      -0.407668       -11.0932
  63   2.0000      -0.349898        -9.5212
  64   2.0000      -0.333361        -9.0712
  65   2.0000      -0.329715        -8.9720
  66   2.0000      -0.290494        -7.9048
  67   0.0000       0.019581         0.5328
  68   0.0000       0.059722         1.6251
  69   0.0000       0.094723         2.5775
  70   0.0000       0.119419         3.2495
  71   0.0000       0.133063         3.6208

MULLIKEN ATOMIC CHARGES
-----------------------
   0 S :    0.089811
   1 C :   -0.105053
   2 C :   -0.084631
   3 C :   -0.008323
   4 C :   -0.134898
   5 H :    0.033850
   6 C :    0.023867
   7 H :    0.025399
   8 H :    0.027170
   9 C :   -0.028395
  10 H :    0.014023
  11 H :    0.028762
  12 C :   -0.096236
  13 H :    0.045838
  14 H :    0.041368
  15 H :    0.027783
  16 S :    0.099143
  17 C :   -0.086197
  18 C :   -0.057063
  19 C :    0.005478
  20 C :   -0.136643
  21 H :    0.021205
  22 C :    0.072759
  23 H :    0.038828
  24 H :    0.033065
  25 C :   -0.109807
  26 H :    0.043116
  27 H :    0.038309
  28 C :   -0.040978
  29 H :    0.023498
  30 H :    0.026520
  31 H :    0.020375
  32 H :    0.044815
  33 H :    0.063245
Sum of atomic charges:   -0.0000000

LOEWDIN ATOMIC CHARGES
----------------------
   0 S :    0.411945
   1 C :   -0.188590
   2 C :   -0.072199
   3 C :   -0.076973
   4 C :   -0.195112
   5 H :    0.038812
   6 C :   -0.039209
   7 H :    0.028835
   8 H :    0.034717
   9 C :   -0.031999
  10 H :    0.018760
  11 H :    0.022071
  12 C :   -0.072893
  13 H :    0.024118
  14 H :    0.031482
  15 H :    0.021143
  16 S :    0.344251
  17 C :   -0.167160
  18 C :   -0.061463
  19 C :   -0.049454
  20 C :   -0.166773
  21 H :    0.028456
  22 C :   -0.029910
  23 H :    0.037797
  24 H :    0.037307
  25 C :   -0.046636
  26 H :    0.024030
  27 H :    0.028181
  28 C :   -0.064951
  29 H :    0.026193
  30 H :    0.017221
  31 H :    0.022657
  32 H :    0.030905
  33 H :    0.034440

  Mayer bond orders larger than 0.100000
B(  0-S ,  1-C ) :   1.1285 B(  0-S ,  4-C ) :   1.1572 B(  1-C ,  2-C ) :   1.5951
B(  1-C ,  4-C ) :   0.1010 B(  1-C , 32-H ) :   0.9719 B(  2-C ,  3-C ) :   1.2636
B(  2-C ,  6-C ) :   1.0340 B(  3-C ,  4-C ) :   1.5558 B(  3-C ,  5-H ) :   0.9840
B(  4-C , 20-C ) :   1.0558 B(  6-C ,  7-H ) :   0.9402 B(  6-C ,  8-H ) :   0.9424
B(  6-C ,  9-C ) :   1.0751 B(  9-C , 10-H ) :   0.9508 B(  9-C , 11-H ) :   0.9589
B(  9-C , 12-C ) :   1.0804 B( 12-C , 13-H ) :   0.9732 B( 12-C , 14-H ) :   0.9740
B( 12-C , 15-H ) :   0.9763 B( 16-S , 17-C ) :   1.1157 B( 16-S , 20-C ) :   1.0894
B( 17-C , 18-C ) :   1.6726 B( 17-C , 33-H ) :   0.9604 B( 18-C , 19-C ) :   1.1919
B( 18-C , 21-H ) :   0.9823 B( 19-C , 20-C ) :   1.6509 B( 19-C , 22-C ) :   1.0390
B( 22-C , 23-H ) :   0.9438 B( 22-C , 24-H ) :   0.9157 B( 22-C , 25-C ) :   1.0656
B( 25-C , 26-H ) :   0.9499 B( 25-C , 27-H ) :   0.9604 B( 25-C , 28-C ) :   1.0774
B( 28-C , 29-H ) :   0.9745 B( 28-C , 30-H ) :   0.9759 B( 28-C , 31-H ) :   0.9760

Dispersion correction           -0.014535710
FINAL SINGLE POINT ENERGY     -1339.859443777160

DIPOLE MOMENT
-------------
                                X             Y             Z
Electronic contribution:      9.00813       6.14206     -22.88158
Nuclear contribution   :     -9.49071      -6.13130      23.31667
                        -----------------------------------------
Total Dipole Moment    :     -0.48258       0.01076       0.43508
                        -----------------------------------------
Magnitude (a.u.)       :      0.64985
Magnitude (Debye)      :      1.65178

Rotational constants in cm-1:     0.019029     0.008901     0.006859
Rotational constants in MHz :   570.467393   266.857262   205.637305

                             ****ORCA TERMINATED NORMALLY****
TOTAL RUN TIME: 0 days 0 hours 0 minutes 32 seconds 645 msec
