                         Program Version 4.2.1 -  RELEASE  -
|  1> ! wB97X-D3 SP def2-SVP
|  2> %pal
|  3> nprocs 16
|  4> end
|  5>
|  6> * xyz 0 1
|  7> S 	 43.4376 	 13.1691 	 88.8004
|  8> C 	 42.8303 	 13.8308 	 87.2957
|  9> C 	 42.0271 	 12.9162 	 86.6232
| 10> C 	 41.8571 	 11.7411 	 87.4256
| 11> C 	 42.5235 	 11.7373 	 88.5997
| 12> H 	 41.1933 	 10.9361 	 87.1371
| 13> C 	 41.4282 	 13.1269 	 85.2805
| 14> H 	 40.8004 	 14.0564 	 85.2218
| 15> H 	 40.6986 	 12.2763 	 85.2578
| 16> C 	 42.2714 	 13.1541 	 83.9963
| 17> H 	 42.7623 	 12.1885 	 83.7625
| 18> H 	 41.6104 	 13.3585 	 83.138
| 19> C 	 43.2775 	 14.312 	 83.7578
| 20> H 	 44.1254 	 14.4397 	 84.4178
| 21> H 	 43.6495 	 14.2638 	 82.7061
| 22> H 	 42.7732 	 15.2943 	 83.8268
| 23> S 	 41.568 	 11.0485 	 90.9643
| 24> C 	 42.0313 	 9.56176 	 91.7308
| 25> C 	 43.0498 	 8.94735 	 91.0636
| 26> C 	 43.4452 	 9.6191 	 89.8166
| 27> C 	 42.5887 	 10.6874 	 89.6173
| 28> H 	 43.4763 	 8.10397 	 91.4654
| 29> C 	 44.6668 	 9.23948 	 89.0141
| 30> H 	 45.3751 	 8.72839 	 89.6336
| 31> H 	 45.0132 	 10.151 	 88.5741
| 32> C 	 44.3361 	 8.41813 	 87.7478
| 33> H 	 43.5232 	 8.78635 	 87.1648
| 34> H 	 43.965 	 7.4522 	 88.084
| 35> C 	 45.6187 	 8.28935 	 86.8195
| 36> H 	 45.5277 	 7.72187 	 85.932
| 37> H 	 46.374 	 7.6957 	 87.32
| 38> H 	 46.0365 	 9.23797 	 86.508
| 39> H 	 43.0729 	 14.8217 	 86.8851
| 40> H 	 41.7896 	 9.08209 	 92.68
| 41> *
| 42>
| 43>                          ****END OF INPUT****

CARTESIAN COORDINATES (ANGSTROEM)
---------------------------------
  S     43.437600   13.169100   88.800400
  C     42.830300   13.830800   87.295700
  C     42.027100   12.916200   86.623200
  C     41.857100   11.741100   87.425600
  C     42.523500   11.737300   88.599700
  H     41.193300   10.936100   87.137100
  C     41.428200   13.126900   85.280500
  H     40.800400   14.056400   85.221800
  H     40.698600   12.276300   85.257800
  C     42.271400   13.154100   83.996300
  H     42.762300   12.188500   83.762500
  H     41.610400   13.358500   83.138000
  C     43.277500   14.312000   83.757800
  H     44.125400   14.439700   84.417800
  H     43.649500   14.263800   82.706100
  H     42.773200   15.294300   83.826800
  S     41.568000   11.048500   90.964300
  C     42.031300    9.561760   91.730800
  C     43.049800    8.947350   91.063600
  C     43.445200    9.619100   89.816600
  C     42.588700   10.687400   89.617300
  H     43.476300    8.103970   91.465400
  C     44.666800    9.239480   89.014100
  H     45.375100    8.728390   89.633600
  H     45.013200   10.151000   88.574100
  C     44.336100    8.418130   87.747800
  H     43.523200    8.786350   87.164800
  H     43.965000    7.452200   88.084000
  C     45.618700    8.289350   86.819500
  H     45.527700    7.721870   85.932000
  H     46.374000    7.695700   87.320000
  H     46.036500    9.237970   86.508000
  H     43.072900   14.821700   86.885100
  H     41.789600    9.082090   92.680000

 Total Charge           Charge          ....    0
 Multiplicity           Mult            ....    1
 Number of Electrons    NEL             ....  134
 Basis Dimension        Dim             ....  322

ORBITAL ENERGIES
----------------

  NO   OCC          E(Eh)            E(eV)
   0   2.0000     -88.965635     -2420.8780
   1   2.0000     -88.964739     -2420.8536
   2   2.0000     -10.321590      -280.8647
   3   2.0000     -10.320892      -280.8458
   4   2.0000     -10.314496      -280.6717
   5   2.0000     -10.310963      -280.5756
   6   2.0000     -10.305625      -280.4303
   7   2.0000     -10.299477      -280.2630
   8   2.0000     -10.299178      -280.2549
   9   2.0000     -10.294885      -280.1381
  10   2.0000     -10.290272      -280.0125
  11   2.0000     -10.289299      -279.9861
  12   2.0000     -10.286027      -279.8970
  13   2.0000     -10.285378      -279.8794
  14   2.0000     -10.283491      -279.8280
  15   2.0000     -10.274083      -279.5720
  16   2.0000      -8.080941      -219.8936
  17   2.0000      -8.079987      -219.8676
  18   2.0000      -6.039378      -164.3398
  19   2.0000      -6.038645      -164.3199
  20   2.0000      -6.035253      -164.2276
  21   2.0000      -6.034442      -164.2055
  22   2.0000      -6.031850      -164.1350
  23   2.0000      -6.030525      -164.0989
  24   2.0000      -1.012457       -27.5504
  25   2.0000      -0.986793       -26.8520
  26   2.0000      -0.910542       -24.7771
  27   2.0000      -0.907023       -24.6814
  28   2.0000      -0.868914       -23.6444
  29   2.0000      -0.850282       -23.1373
  30   2.0000      -0.844721       -22.9860
  31   2.0000      -0.817358       -22.2414
  32   2.0000      -0.785999       -21.3881
  33   2.0000      -0.773912       -21.0592
  34   2.0000      -0.710296       -19.3281
  35   2.0000      -0.701902       -19.0997
  36   2.0000      -0.693118       -18.8607
  37   2.0000      -0.662213       -18.0197
  38   2.0000      -0.640913       -17.4401
  39   2.0000      -0.621422       -16.9098
  40   2.0000      -0.592257       -16.1161
  41   2.0000      -0.573047       -15.5934
  42   2.0000      -0.565315       -15.3830
  43   2.0000      -0.547345       -14.8940
  44   2.0000      -0.538544       -14.6545
  45   2.0000      -0.520050       -14.1513
  46   2.0000      -0.516595       -14.0573
  47   2.0000      -0.507816       -13.8184
  48   2.0000      -0.503554       -13.7024
  49   2.0000      -0.498253       -13.5581
  50   2.0000      -0.489653       -13.3241
  51   2.0000      -0.476107       -12.9555
  52   2.0000      -0.472465       -12.8564
  53   2.0000      -0.468653       -12.7527
  54   2.0000      -0.460082       -12.5195
  55   2.0000      -0.445902       -12.1336
  56   2.0000      -0.441609       -12.0168
  57   2.0000      -0.439669       -11.9640
  58   2.0000      -0.435790       -11.8585
  59   2.0000      -0.425038       -11.5659
  60   2.0000      -0.424427       -11.5492
  61   2.0000      -0.421533       -11.4705
  62   2.0000      -0.412177       -11.2159
  63   2.0000      -0.336779        -9.1642
  64   2.0000      -0.326857        -8.8942
  65   2.0000      -0.319445        -8.6925
  66   2.0000      -0.312707        -8.5092
  67   0.0000       0.051233         1.3941
  68   0.0000       0.055702         1.5157
  69   0.0000       0.111408         3.0316
  70   0.0000       0.120683         3.2839
  71   0.0000       0.123436         3.3589

MULLIKEN ATOMIC CHARGES
-----------------------
   0 S :    0.129011
   1 C :   -0.133258
   2 C :   -0.081922
   3 C :    0.051075
   4 C :   -0.175651
   5 H :    0.008718
   6 C :    0.046834
   7 H :    0.040489
   8 H :    0.024064
   9 C :   -0.054094
  10 H :    0.034943
  11 H :    0.031545
  12 C :   -0.086626
  13 H :    0.036494
  14 H :    0.041117
  15 H :    0.020065
  16 S :    0.124761
  17 C :   -0.061143
  18 C :   -0.039018
  19 C :   -0.007567
  20 C :   -0.207306
  21 H :   -0.019718
  22 C :    0.130582
  23 H :    0.024250
  24 H :    0.013988
  25 C :   -0.072499
  26 H :    0.026393
  27 H :    0.015909
  28 C :   -0.034269
  29 H :    0.018888
  30 H :    0.019299
  31 H :    0.033400
  32 H :    0.052297
  33 H :    0.048947
Sum of atomic charges:   -0.0000000

LOEWDIN ATOMIC CHARGES
----------------------
   0 S :    0.424760
   1 C :   -0.195663
   2 C :   -0.070535
   3 C :   -0.062036
   4 C :   -0.220868
   5 H :    0.031582
   6 C :   -0.043459
   7 H :    0.039897
   8 H :    0.037996
   9 C :   -0.042559
  10 H :    0.025714
  11 H :    0.032575
  12 C :   -0.076304
  13 H :    0.017561
  14 H :    0.034073
  15 H :    0.023013
  16 S :    0.425855
  17 C :   -0.197358
  18 C :   -0.063765
  19 C :   -0.043729
  20 C :   -0.209970
  21 H :    0.013749
  22 C :   -0.020713
  23 H :    0.030585
  24 H :    0.029861
  25 C :   -0.028960
  26 H :    0.019513
  27 H :    0.019337
  28 C :   -0.067184
  29 H :    0.020751
  30 H :    0.024065
  31 H :    0.024863
  32 H :    0.030661
  33 H :    0.036694

  Mayer bond orders larger than 0.100000
B(  0-S ,  1-C ) :   1.1466 B(  0-S ,  4-C ) :   1.1632 B(  1-C ,  2-C ) :   1.5990
B(  1-C , 32-H ) :   0.9662 B(  2-C ,  3-C ) :   1.2529 B(  2-C ,  6-C ) :   1.0179
B(  3-C ,  4-C ) :   1.6035 B(  3-C ,  5-H ) :   0.9916 B(  4-C , 20-C ) :   0.9757
B(  6-C ,  7-H ) :   0.9380 B(  6-C ,  8-H ) :   0.9351 B(  6-C ,  9-C ) :   1.0802
B(  9-C , 10-H ) :   0.9571 B(  9-C , 11-H ) :   0.9514 B(  9-C , 12-C ) :   1.0699
B( 12-C , 13-H ) :   0.9758 B( 12-C , 14-H ) :   0.9736 B( 12-C , 15-H ) :   0.9737
B( 16-S , 17-C ) :   1.1298 B( 16-S , 20-C ) :   1.1596 B( 17-C , 18-C ) :   1.6632
B( 17-C , 33-H ) :   0.9608 B( 18-C , 19-C ) :   1.1949 B( 18-C , 21-H ) :   0.9975
B( 19-C , 20-C ) :   1.6230 B( 19-C , 22-C ) :   1.0510 B( 22-C , 23-H ) :   0.9367
B( 22-C , 24-H ) :   0.9227 B( 22-C , 25-C ) :   1.0581 B( 25-C , 26-H ) :   0.9619
B( 25-C , 27-H ) :   0.9552 B( 25-C , 28-C ) :   1.0721 B( 28-C , 29-H ) :   0.9751
B( 28-C , 30-H ) :   0.9743 B( 28-C , 31-H ) :   0.9776

Dispersion correction           -0.014203690
FINAL SINGLE POINT ENERGY     -1339.873373620811

DIPOLE MOMENT
-------------
                                X             Y             Z
Electronic contribution:     -8.81147       5.35312      26.30570
Nuclear contribution   :      8.97061      -5.60059     -26.76661
                        -----------------------------------------
Total Dipole Moment    :      0.15913      -0.24747      -0.46091
                        -----------------------------------------
Magnitude (a.u.)       :      0.54681
Magnitude (Debye)      :      1.38989

Rotational constants in cm-1:     0.019429     0.008571     0.006744
Rotational constants in MHz :   582.470025   256.941441   202.177429

                             ****ORCA TERMINATED NORMALLY****
TOTAL RUN TIME: 0 days 0 hours 0 minutes 29 seconds 412 msec
