                         Program Version 4.2.1 -  RELEASE  -
|  1> ! wB97X-D3 SP def2-SVP
|  2> %pal
|  3> nprocs 16
|  4> end
|  5>
|  6> * xyz 0 1
|  7> S 	 3.59003 	 -2.14642 	 82.6475
|  8> C 	 3.84194 	 -1.99532 	 84.3987
|  9> C 	 2.9381 	 -2.71396 	 85.1396
| 10> C 	 1.90028 	 -3.27495 	 84.3277
| 11> C 	 2.13543 	 -3.05549 	 82.9459
| 12> H 	 1.08006 	 -3.97274 	 84.6206
| 13> C 	 3.14837 	 -3.07006 	 86.5962
| 14> H 	 2.11222 	 -3.1063 	 87.0582
| 15> H 	 3.52445 	 -2.17594 	 87.1855
| 16> C 	 3.84921 	 -4.38295 	 86.8277
| 17> H 	 3.68555 	 -4.74343 	 87.8925
| 18> H 	 3.30551 	 -5.02579 	 86.1261
| 19> C 	 5.36464 	 -4.32212 	 86.5908
| 20> H 	 5.78237 	 -5.31206 	 86.3638
| 21> H 	 5.5977 	 -3.5911 	 85.816
| 22> H 	 5.75177 	 -4.12295 	 87.607
| 23> S 	 0.169069 	 -2.4246 	 81.1246
| 24> C 	 -0.348581 	 -3.67819 	 80.0423
| 25> C 	 0.20249 	 -4.90656 	 80.1866
| 26> C 	 1.34103 	 -4.80526 	 81.0914
| 27> C 	 1.43628 	 -3.56549 	 81.742
| 28> H 	 -0.21086 	 -5.80764 	 79.6217
| 29> C 	 2.2477 	 -6.06718 	 81.3699
| 30> H 	 3.12018 	 -5.55709 	 81.6281
| 31> H 	 2.50658 	 -6.64256 	 80.4385
| 32> C 	 1.92385 	 -7.06399 	 82.4242
| 33> H 	 1.84303 	 -6.61354 	 83.4135
| 34> H 	 2.79268 	 -7.74504 	 82.423
| 35> C 	 0.786483 	 -7.98884 	 82.1074
| 36> H 	 -0.025985 	 -7.39386 	 81.6524
| 37> H 	 0.33832 	 -8.59841 	 82.8795
| 38> H 	 1.11492 	 -8.65399 	 81.2331
| 39> H 	 4.73605 	 -1.5612 	 84.9402
| 40> H 	 -1.12141 	 -3.47698 	 79.3273
| 41> *
| 42>
| 43>                          ****END OF INPUT****

CARTESIAN COORDINATES (ANGSTROEM)
---------------------------------
  S      3.590030   -2.146420   82.647500
  C      3.841940   -1.995320   84.398700
  C      2.938100   -2.713960   85.139600
  C      1.900280   -3.274950   84.327700
  C      2.135430   -3.055490   82.945900
  H      1.080060   -3.972740   84.620600
  C      3.148370   -3.070060   86.596200
  H      2.112220   -3.106300   87.058200
  H      3.524450   -2.175940   87.185500
  C      3.849210   -4.382950   86.827700
  H      3.685550   -4.743430   87.892500
  H      3.305510   -5.025790   86.126100
  C      5.364640   -4.322120   86.590800
  H      5.782370   -5.312060   86.363800
  H      5.597700   -3.591100   85.816000
  H      5.751770   -4.122950   87.607000
  S      0.169069   -2.424600   81.124600
  C     -0.348581   -3.678190   80.042300
  C      0.202490   -4.906560   80.186600
  C      1.341030   -4.805260   81.091400
  C      1.436280   -3.565490   81.742000
  H     -0.210860   -5.807640   79.621700
  C      2.247700   -6.067180   81.369900
  H      3.120180   -5.557090   81.628100
  H      2.506580   -6.642560   80.438500
  C      1.923850   -7.063990   82.424200
  H      1.843030   -6.613540   83.413500
  H      2.792680   -7.745040   82.423000
  C      0.786483   -7.988840   82.107400
  H     -0.025985   -7.393860   81.652400
  H      0.338320   -8.598410   82.879500
  H      1.114920   -8.653990   81.233100
  H      4.736050   -1.561200   84.940200
  H     -1.121410   -3.476980   79.327300

 Total Charge           Charge          ....    0
 Multiplicity           Mult            ....    1
 Number of Electrons    NEL             ....  134
 Basis Dimension        Dim             ....  322

ORBITAL ENERGIES
----------------

  NO   OCC          E(Eh)            E(eV)
   0   2.0000     -88.970974     -2421.0233
   1   2.0000     -88.964108     -2420.8364
   2   2.0000     -10.336149      -281.2609
   3   2.0000     -10.333993      -281.2022
   4   2.0000     -10.318422      -280.7785
   5   2.0000     -10.317009      -280.7401
   6   2.0000     -10.313868      -280.6546
   7   2.0000     -10.305492      -280.4267
   8   2.0000     -10.302725      -280.3514
   9   2.0000     -10.299879      -280.2740
  10   2.0000     -10.298717      -280.2423
  11   2.0000     -10.291526      -280.0467
  12   2.0000     -10.290763      -280.0259
  13   2.0000     -10.283566      -279.8301
  14   2.0000     -10.279970      -279.7322
  15   2.0000     -10.279800      -279.7276
  16   2.0000      -8.085129      -220.0075
  17   2.0000      -8.078682      -219.8321
  18   2.0000      -6.043562      -164.4537
  19   2.0000      -6.039744      -164.3498
  20   2.0000      -6.037105      -164.2780
  21   2.0000      -6.035961      -164.2468
  22   2.0000      -6.033412      -164.1775
  23   2.0000      -6.029329      -164.0664
  24   2.0000      -1.001162       -27.2430
  25   2.0000      -0.980670       -26.6854
  26   2.0000      -0.915572       -24.9140
  27   2.0000      -0.914024       -24.8719
  28   2.0000      -0.865402       -23.5488
  29   2.0000      -0.846765       -23.0417
  30   2.0000      -0.844989       -22.9933
  31   2.0000      -0.810782       -22.0625
  32   2.0000      -0.786824       -21.4106
  33   2.0000      -0.775251       -21.0957
  34   2.0000      -0.707066       -19.2402
  35   2.0000      -0.690387       -18.7864
  36   2.0000      -0.682372       -18.5683
  37   2.0000      -0.655589       -17.8395
  38   2.0000      -0.635808       -17.3012
  39   2.0000      -0.613015       -16.6810
  40   2.0000      -0.593573       -16.1519
  41   2.0000      -0.576694       -15.6926
  42   2.0000      -0.562215       -15.2987
  43   2.0000      -0.549134       -14.9427
  44   2.0000      -0.545996       -14.8573
  45   2.0000      -0.537729       -14.6323
  46   2.0000      -0.513576       -13.9751
  47   2.0000      -0.503866       -13.7109
  48   2.0000      -0.496982       -13.5236
  49   2.0000      -0.486491       -13.2381
  50   2.0000      -0.485079       -13.1997
  51   2.0000      -0.479910       -13.0590
  52   2.0000      -0.472763       -12.8645
  53   2.0000      -0.466259       -12.6875
  54   2.0000      -0.457480       -12.4487
  55   2.0000      -0.449145       -12.2219
  56   2.0000      -0.442638       -12.0448
  57   2.0000      -0.440606       -11.9895
  58   2.0000      -0.435945       -11.8627
  59   2.0000      -0.423672       -11.5287
  60   2.0000      -0.417504       -11.3609
  61   2.0000      -0.410782       -11.1780
  62   2.0000      -0.400046       -10.8858
  63   2.0000      -0.339239        -9.2312
  64   2.0000      -0.330838        -9.0025
  65   2.0000      -0.317738        -8.6461
  66   2.0000      -0.314987        -8.5712
  67   0.0000       0.040277         1.0960
  68   0.0000       0.048590         1.3222
  69   0.0000       0.107526         2.9259
  70   0.0000       0.108652         2.9566
  71   0.0000       0.121473         3.3055

MULLIKEN ATOMIC CHARGES
-----------------------
   0 S :    0.126455
   1 C :   -0.123346
   2 C :   -0.112390
   3 C :    0.057492
   4 C :   -0.200381
   5 H :    0.035803
   6 C :   -0.000411
   7 H :    0.030350
   8 H :    0.032811
   9 C :   -0.059054
  10 H :    0.041617
  11 H :    0.026639
  12 C :   -0.040477
  13 H :    0.034878
  14 H :    0.038322
  15 H :    0.033140
  16 S :    0.103452
  17 C :   -0.078402
  18 C :   -0.054280
  19 C :   -0.040092
  20 C :   -0.178698
  21 H :    0.057606
  22 C :    0.071637
  23 H :    0.010065
  24 H :    0.028494
  25 C :   -0.030285
  26 H :    0.026850
  27 H :    0.030167
  28 C :   -0.072577
  29 H :    0.021278
  30 H :    0.042954
  31 H :    0.025383
  32 H :    0.067455
  33 H :    0.047546
Sum of atomic charges:    0.0000000

LOEWDIN ATOMIC CHARGES
----------------------
   0 S :    0.412455
   1 C :   -0.204165
   2 C :   -0.071547
   3 C :   -0.062143
   4 C :   -0.204866
   5 H :    0.041734
   6 C :   -0.046860
   7 H :    0.036826
   8 H :    0.032317
   9 C :   -0.044979
  10 H :    0.031913
  11 H :    0.023221
  12 C :   -0.067190
  13 H :    0.028352
  14 H :    0.024180
  15 H :    0.030910
  16 S :    0.385937
  17 C :   -0.174756
  18 C :   -0.089364
  19 C :   -0.039794
  20 C :   -0.198646
  21 H :    0.050109
  22 C :   -0.030413
  23 H :    0.025275
  24 H :    0.036757
  25 C :   -0.044728
  26 H :    0.022660
  27 H :    0.031537
  28 C :   -0.074628
  29 H :    0.022856
  30 H :    0.025587
  31 H :    0.030495
  32 H :    0.039579
  33 H :    0.021380

  Mayer bond orders larger than 0.100000
B(  0-S ,  1-C ) :   1.1282 B(  0-S ,  4-C ) :   1.1768 B(  1-C ,  2-C ) :   1.6403
B(  1-C , 32-H ) :   0.9503 B(  2-C ,  3-C ) :   1.2290 B(  2-C ,  6-C ) :   1.0317
B(  3-C ,  4-C ) :   1.5767 B(  3-C ,  5-H ) :   0.9871 B(  4-C , 20-C ) :   0.9888
B(  6-C ,  7-H ) :   0.9354 B(  6-C ,  8-H ) :   0.9415 B(  6-C ,  9-C ) :   1.0572
B(  9-C , 10-H ) :   0.9591 B(  9-C , 11-H ) :   0.9521 B(  9-C , 12-C ) :   1.0664
B( 12-C , 13-H ) :   0.9740 B( 12-C , 14-H ) :   0.9747 B( 12-C , 15-H ) :   0.9770
B( 16-S , 17-C ) :   1.1598 B( 16-S , 20-C ) :   1.1202 B( 17-C , 18-C ) :   1.6535
B( 17-C , 33-H ) :   0.9621 B( 18-C , 19-C ) :   1.1976 B( 18-C , 21-H ) :   0.9762
B( 19-C , 20-C ) :   1.6525 B( 19-C , 22-C ) :   1.0144 B( 22-C , 23-H ) :   0.9216
B( 22-C , 24-H ) :   0.9420 B( 22-C , 25-C ) :   1.0938 B( 25-C , 26-H ) :   0.9505
B( 25-C , 27-H ) :   0.9499 B( 25-C , 28-C ) :   1.0704 B( 28-C , 29-H ) :   0.9758
B( 28-C , 30-H ) :   0.9740 B( 28-C , 31-H ) :   0.9725

Dispersion correction           -0.014974283
FINAL SINGLE POINT ENERGY     -1339.857538625223

DIPOLE MOMENT
-------------
                                X             Y             Z
Electronic contribution:     -6.92934      22.13887     -15.61820
Nuclear contribution   :      6.93846     -22.77694      15.92963
                        -----------------------------------------
Total Dipole Moment    :      0.00912      -0.63808       0.31143
                        -----------------------------------------
Magnitude (a.u.)       :      0.71008
Magnitude (Debye)      :      1.80488

Rotational constants in cm-1:     0.018900     0.009131     0.007011
Rotational constants in MHz :   566.616143   273.729917   210.192208

                             ****ORCA TERMINATED NORMALLY****
TOTAL RUN TIME: 0 days 0 hours 0 minutes 35 seconds 934 msec
