                         Program Version 4.2.1 -  RELEASE  -
|  1> ! wB97X-D3 SP def2-SVP
|  2> %pal
|  3> nprocs 16
|  4> end
|  5>
|  6> * xyz 0 1
|  7> S 	 50.1023 	 29.1001 	 42.4003
|  8> C 	 51.8285 	 29.3291 	 43.0354
|  9> C 	 52.0539 	 28.3885 	 44.0588
| 10> C 	 50.896 	 27.5489 	 44.3263
| 11> C 	 49.8461 	 27.7639 	 43.5025
| 12> H 	 50.8197 	 26.842 	 45.2035
| 13> C 	 53.3414 	 28.23 	 44.8233
| 14> H 	 54.1617 	 28.3759 	 44.2179
| 15> H 	 53.4419 	 27.2086 	 45.0259
| 16> C 	 53.516 	 29.0173 	 46.1661
| 17> H 	 53.0551 	 29.9371 	 46.0351
| 18> H 	 52.9255 	 28.4501 	 46.9035
| 19> C 	 54.9371 	 29.212 	 46.6924
| 20> H 	 55.3073 	 28.3102 	 46.9573
| 21> H 	 55.6543 	 29.5098 	 45.8868
| 22> H 	 55.0472 	 29.9122 	 47.5205
| 23> S 	 47.1558 	 28.0653 	 44.1787
| 24> C 	 46.0447 	 26.7108 	 43.9352
| 25> C 	 46.6719 	 25.7048 	 43.2838
| 26> C 	 48.0763 	 25.9298 	 43.1791
| 27> C 	 48.4958 	 27.1735 	 43.5349
| 28> H 	 46.1327 	 24.8108 	 42.9759
| 29> C 	 49.0177 	 24.8124 	 42.7005
| 30> H 	 49.662 	 25.0484 	 41.7886
| 31> H 	 48.4667 	 23.9379 	 42.4047
| 32> C 	 50.0348 	 24.4036 	 43.77
| 33> H 	 49.5567 	 24.411 	 44.7892
| 34> H 	 50.8703 	 25.1266 	 43.6039
| 35> C 	 50.4288 	 22.876 	 43.667
| 36> H 	 51.1913 	 22.761 	 42.9169
| 37> H 	 49.6498 	 22.3054 	 43.2539
| 38> H 	 50.6709 	 22.4494 	 44.686
| 39> H 	 52.5061 	 30.1854 	 42.721
| 40> H 	 44.9852 	 26.6818 	 44.0603
| 41> *
| 42>
| 43>                          ****END OF INPUT****

CARTESIAN COORDINATES (ANGSTROEM)
---------------------------------
  S     50.102300   29.100100   42.400300
  C     51.828500   29.329100   43.035400
  C     52.053900   28.388500   44.058800
  C     50.896000   27.548900   44.326300
  C     49.846100   27.763900   43.502500
  H     50.819700   26.842000   45.203500
  C     53.341400   28.230000   44.823300
  H     54.161700   28.375900   44.217900
  H     53.441900   27.208600   45.025900
  C     53.516000   29.017300   46.166100
  H     53.055100   29.937100   46.035100
  H     52.925500   28.450100   46.903500
  C     54.937100   29.212000   46.692400
  H     55.307300   28.310200   46.957300
  H     55.654300   29.509800   45.886800
  H     55.047200   29.912200   47.520500
  S     47.155800   28.065300   44.178700
  C     46.044700   26.710800   43.935200
  C     46.671900   25.704800   43.283800
  C     48.076300   25.929800   43.179100
  C     48.495800   27.173500   43.534900
  H     46.132700   24.810800   42.975900
  C     49.017700   24.812400   42.700500
  H     49.662000   25.048400   41.788600
  H     48.466700   23.937900   42.404700
  C     50.034800   24.403600   43.770000
  H     49.556700   24.411000   44.789200
  H     50.870300   25.126600   43.603900
  C     50.428800   22.876000   43.667000
  H     51.191300   22.761000   42.916900
  H     49.649800   22.305400   43.253900
  H     50.670900   22.449400   44.686000
  H     52.506100   30.185400   42.721000
  H     44.985200   26.681800   44.060300

 Total Charge           Charge          ....    0
 Multiplicity           Mult            ....    1
 Number of Electrons    NEL             ....  134
 Basis Dimension        Dim             ....  322

ORBITAL ENERGIES
----------------

  NO   OCC          E(Eh)            E(eV)
   0   2.0000     -88.965711     -2420.8801
   1   2.0000     -88.964523     -2420.8477
   2   2.0000     -10.331285      -281.1286
   3   2.0000     -10.331041      -281.1219
   4   2.0000     -10.322289      -280.8838
   5   2.0000     -10.314569      -280.6737
   6   2.0000     -10.311230      -280.5828
   7   2.0000     -10.300387      -280.2878
   8   2.0000     -10.299883      -280.2741
   9   2.0000     -10.291444      -280.0444
  10   2.0000     -10.289780      -279.9992
  11   2.0000     -10.287535      -279.9381
  12   2.0000     -10.283575      -279.8303
  13   2.0000     -10.282449      -279.7997
  14   2.0000     -10.276373      -279.6343
  15   2.0000     -10.274621      -279.5867
  16   2.0000      -8.079249      -219.8475
  17   2.0000      -8.079062      -219.8425
  18   2.0000      -6.037886      -164.2992
  19   2.0000      -6.037775      -164.2962
  20   2.0000      -6.033791      -164.1878
  21   2.0000      -6.033738      -164.1864
  22   2.0000      -6.029868      -164.0810
  23   2.0000      -6.029646      -164.0750
  24   2.0000      -1.007632       -27.4191
  25   2.0000      -0.979309       -26.6484
  26   2.0000      -0.912022       -24.8174
  27   2.0000      -0.902386       -24.5552
  28   2.0000      -0.869809       -23.6687
  29   2.0000      -0.844864       -22.9899
  30   2.0000      -0.842301       -22.9202
  31   2.0000      -0.818922       -22.2840
  32   2.0000      -0.785368       -21.3710
  33   2.0000      -0.770482       -20.9659
  34   2.0000      -0.711576       -19.3630
  35   2.0000      -0.703584       -19.1455
  36   2.0000      -0.685317       -18.6484
  37   2.0000      -0.660394       -17.9702
  38   2.0000      -0.642962       -17.4959
  39   2.0000      -0.615903       -16.7596
  40   2.0000      -0.595759       -16.2114
  41   2.0000      -0.572864       -15.5884
  42   2.0000      -0.564253       -15.3541
  43   2.0000      -0.558244       -15.1906
  44   2.0000      -0.528135       -14.3713
  45   2.0000      -0.519122       -14.1260
  46   2.0000      -0.516398       -14.0519
  47   2.0000      -0.511689       -13.9238
  48   2.0000      -0.507077       -13.7983
  49   2.0000      -0.503438       -13.6993
  50   2.0000      -0.492146       -13.3920
  51   2.0000      -0.479881       -13.0582
  52   2.0000      -0.467416       -12.7190
  53   2.0000      -0.463210       -12.6046
  54   2.0000      -0.459546       -12.5049
  55   2.0000      -0.450754       -12.2656
  56   2.0000      -0.439856       -11.9691
  57   2.0000      -0.435075       -11.8390
  58   2.0000      -0.428814       -11.6686
  59   2.0000      -0.424683       -11.5562
  60   2.0000      -0.419609       -11.4181
  61   2.0000      -0.415367       -11.3027
  62   2.0000      -0.405821       -11.0430
  63   2.0000      -0.341231        -9.2854
  64   2.0000      -0.329316        -8.9612
  65   2.0000      -0.324760        -8.8372
  66   2.0000      -0.308882        -8.4051
  67   0.0000       0.038423         1.0456
  68   0.0000       0.058558         1.5934
  69   0.0000       0.103835         2.8255
  70   0.0000       0.120984         3.2922
  71   0.0000       0.126441         3.4406

MULLIKEN ATOMIC CHARGES
-----------------------
   0 S :    0.090754
   1 C :   -0.148139
   2 C :   -0.107857
   3 C :    0.038110
   4 C :   -0.169516
   5 H :    0.047160
   6 C :    0.108673
   7 H :   -0.006282
   8 H :    0.002992
   9 C :   -0.047928
  10 H :    0.016860
  11 H :    0.026618
  12 C :   -0.017903
  13 H :    0.001294
  14 H :    0.024956
  15 H :    0.042944
  16 S :    0.112170
  17 C :   -0.075132
  18 C :   -0.037761
  19 C :   -0.025462
  20 C :   -0.156993
  21 H :    0.024187
  22 C :    0.076360
  23 H :    0.044481
  24 H :   -0.002235
  25 C :   -0.152833
  26 H :    0.043408
  27 H :    0.068932
  28 C :   -0.034662
  29 H :    0.023112
  30 H :    0.011317
  31 H :    0.049305
  32 H :    0.081936
  33 H :    0.047134
Sum of atomic charges:    0.0000000

LOEWDIN ATOMIC CHARGES
----------------------
   0 S :    0.366611
   1 C :   -0.178166
   2 C :   -0.055560
   3 C :   -0.065679
   4 C :   -0.189015
   5 H :    0.046458
   6 C :   -0.027767
   7 H :    0.019306
   8 H :    0.024947
   9 C :   -0.028536
  10 H :    0.013339
  11 H :    0.026445
  12 C :   -0.059442
  13 H :    0.009074
  14 H :    0.029850
  15 H :    0.031605
  16 S :    0.406153
  17 C :   -0.174254
  18 C :   -0.071791
  19 C :   -0.055383
  20 C :   -0.212323
  21 H :    0.035250
  22 C :   -0.035507
  23 H :    0.039916
  24 H :    0.017677
  25 C :   -0.051048
  26 H :    0.027662
  27 H :    0.031679
  28 C :   -0.067277
  29 H :    0.022002
  30 H :    0.014814
  31 H :    0.034360
  32 H :    0.045768
  33 H :    0.028833

  Mayer bond orders larger than 0.100000
B(  0-S ,  1-C ) :   1.1080 B(  0-S ,  4-C ) :   1.1442 B(  1-C ,  2-C ) :   1.6322
B(  1-C , 32-H ) :   0.9629 B(  2-C ,  3-C ) :   1.2028 B(  2-C ,  6-C ) :   1.0348
B(  3-C ,  4-C ) :   1.6372 B(  3-C ,  5-H ) :   0.9755 B(  4-C , 20-C ) :   0.9894
B(  6-C ,  7-H ) :   0.9361 B(  6-C ,  8-H ) :   0.9313 B(  6-C ,  9-C ) :   1.0470
B(  9-C , 10-H ) :   0.9635 B(  9-C , 11-H ) :   0.9555 B(  9-C , 12-C ) :   1.0822
B( 12-C , 13-H ) :   0.9733 B( 12-C , 14-H ) :   0.9730 B( 12-C , 15-H ) :   0.9744
B( 16-S , 17-C ) :   1.1483 B( 16-S , 20-C ) :   1.1346 B( 17-C , 18-C ) :   1.6325
B( 17-C , 33-H ) :   0.9644 B( 18-C , 19-C ) :   1.2441 B( 18-C , 21-H ) :   0.9862
B( 19-C , 20-C ) :   1.6284 B( 19-C , 22-C ) :   1.0470 B( 22-C , 23-H ) :   0.9353
B( 22-C , 24-H ) :   0.9403 B( 22-C , 25-C ) :   1.0472 B( 25-C , 26-H ) :   0.9636
B( 25-C , 27-H ) :   0.9504 B( 25-C , 28-C ) :   1.0654 B( 28-C , 29-H ) :   0.9741
B( 28-C , 30-H ) :   0.9748 B( 28-C , 31-H ) :   0.9813

Dispersion correction           -0.014297138
FINAL SINGLE POINT ENERGY     -1339.853548318973

DIPOLE MOMENT
-------------
                                X             Y             Z
Electronic contribution:    -22.42130      14.21338     -10.11675
Nuclear contribution   :     22.77978     -14.66066      10.34887
                        -----------------------------------------
Total Dipole Moment    :      0.35848      -0.44728       0.23212
                        -----------------------------------------
Magnitude (a.u.)       :      0.61842
Magnitude (Debye)      :      1.57191

Rotational constants in cm-1:     0.018735     0.008118     0.006670
Rotational constants in MHz :   561.675680   243.364442   199.952741

                             ****ORCA TERMINATED NORMALLY****
TOTAL RUN TIME: 0 days 0 hours 0 minutes 32 seconds 54 msec
