                         Program Version 4.2.1 -  RELEASE  -
|  1> ! wB97X-D3 SP def2-SVP
|  2> %pal
|  3> nprocs 16
|  4> end
|  5>
|  6> * xyz 0 1
|  7> S 	 6.5575 	 10.7849 	 84.047
|  8> C 	 7.84043 	 11.0463 	 82.9791
|  9> C 	 7.48215 	 11.8351 	 81.8876
| 10> C 	 6.15594 	 12.3201 	 81.9658
| 11> C 	 5.47148 	 11.6679 	 82.9828
| 12> H 	 5.73491 	 13.0501 	 81.2679
| 13> C 	 8.50513 	 12.3434 	 80.8187
| 14> H 	 8.03696 	 12.2008 	 79.8717
| 15> H 	 9.45822 	 11.7726 	 80.7534
| 16> C 	 8.77017 	 13.7717 	 81.023
| 17> H 	 7.80413 	 14.3186 	 81.254
| 18> H 	 9.40035 	 13.8241 	 81.9302
| 19> C 	 9.45742 	 14.3718 	 79.8026
| 20> H 	 8.77501 	 14.6813 	 79.0743
| 21> H 	 9.95777 	 15.3085 	 80.1457
| 22> H 	 10.1957 	 13.7057 	 79.2853
| 23> S 	 2.96327 	 11.8709 	 81.8019
| 24> C 	 1.56294 	 12.0076 	 82.781
| 25> C 	 1.88763 	 11.8464 	 84.1159
| 26> C 	 3.2801 	 11.8121 	 84.4671
| 27> C 	 4.04882 	 11.817 	 83.2589
| 28> H 	 1.05066 	 11.8724 	 84.8056
| 29> C 	 3.81943 	 11.74 	 85.8175
| 30> H 	 4.86994 	 11.461 	 85.8484
| 31> H 	 3.33342 	 10.9447 	 86.3
| 32> C 	 3.70092 	 13.0403 	 86.6593
| 33> H 	 4.0586 	 12.961 	 87.6544
| 34> H 	 2.6922 	 13.2372 	 86.9052
| 35> C 	 4.24366 	 14.3894 	 86.106
| 36> H 	 5.26548 	 14.1984 	 85.7718
| 37> H 	 4.31821 	 15.1893 	 86.8093
| 38> H 	 3.69002 	 14.7769 	 85.2284
| 39> H 	 8.84467 	 10.5876 	 83.1156
| 40> H 	 0.649521 	 12.2748 	 82.3599
| 41> *
| 42>
| 43>                          ****END OF INPUT****

CARTESIAN COORDINATES (ANGSTROEM)
---------------------------------
  S      6.557500   10.784900   84.047000
  C      7.840430   11.046300   82.979100
  C      7.482150   11.835100   81.887600
  C      6.155940   12.320100   81.965800
  C      5.471480   11.667900   82.982800
  H      5.734910   13.050100   81.267900
  C      8.505130   12.343400   80.818700
  H      8.036960   12.200800   79.871700
  H      9.458220   11.772600   80.753400
  C      8.770170   13.771700   81.023000
  H      7.804130   14.318600   81.254000
  H      9.400350   13.824100   81.930200
  C      9.457420   14.371800   79.802600
  H      8.775010   14.681300   79.074300
  H      9.957770   15.308500   80.145700
  H     10.195700   13.705700   79.285300
  S      2.963270   11.870900   81.801900
  C      1.562940   12.007600   82.781000
  C      1.887630   11.846400   84.115900
  C      3.280100   11.812100   84.467100
  C      4.048820   11.817000   83.258900
  H      1.050660   11.872400   84.805600
  C      3.819430   11.740000   85.817500
  H      4.869940   11.461000   85.848400
  H      3.333420   10.944700   86.300000
  C      3.700920   13.040300   86.659300
  H      4.058600   12.961000   87.654400
  H      2.692200   13.237200   86.905200
  C      4.243660   14.389400   86.106000
  H      5.265480   14.198400   85.771800
  H      4.318210   15.189300   86.809300
  H      3.690020   14.776900   85.228400
  H      8.844670   10.587600   83.115600
  H      0.649521   12.274800   82.359900

 Total Charge           Charge          ....    0
 Multiplicity           Mult            ....    1
 Number of Electrons    NEL             ....  134
 Basis Dimension        Dim             ....  322

ORBITAL ENERGIES
----------------

  NO   OCC          E(Eh)            E(eV)
   0   2.0000     -88.969045     -2420.9708
   1   2.0000     -88.962793     -2420.8007
   2   2.0000     -10.332774      -281.1691
   3   2.0000     -10.330639      -281.1110
   4   2.0000     -10.311252      -280.5834
   5   2.0000     -10.310635      -280.5666
   6   2.0000     -10.307551      -280.4827
   7   2.0000     -10.299901      -280.2746
   8   2.0000     -10.296336      -280.1775
   9   2.0000     -10.294158      -280.1183
  10   2.0000     -10.288303      -279.9589
  11   2.0000     -10.287084      -279.9258
  12   2.0000     -10.284557      -279.8570
  13   2.0000     -10.279461      -279.7184
  14   2.0000     -10.277260      -279.6585
  15   2.0000     -10.272045      -279.5165
  16   2.0000      -8.084286      -219.9846
  17   2.0000      -8.077234      -219.7927
  18   2.0000      -6.042719      -164.4307
  19   2.0000      -6.038711      -164.3217
  20   2.0000      -6.035707      -164.2399
  21   2.0000      -6.035127      -164.2242
  22   2.0000      -6.031758      -164.1325
  23   2.0000      -6.028089      -164.0326
  24   2.0000      -1.007098       -27.4045
  25   2.0000      -0.982703       -26.7407
  26   2.0000      -0.918833       -25.0027
  27   2.0000      -0.910998       -24.7895
  28   2.0000      -0.867648       -23.6099
  29   2.0000      -0.853946       -23.2370
  30   2.0000      -0.845759       -23.0143
  31   2.0000      -0.807022       -21.9602
  32   2.0000      -0.787620       -21.4322
  33   2.0000      -0.770867       -20.9764
  34   2.0000      -0.710860       -19.3435
  35   2.0000      -0.698955       -19.0195
  36   2.0000      -0.687906       -18.7189
  37   2.0000      -0.661880       -18.0107
  38   2.0000      -0.638876       -17.3847
  39   2.0000      -0.622417       -16.9368
  40   2.0000      -0.600968       -16.3532
  41   2.0000      -0.566404       -15.4126
  42   2.0000      -0.561400       -15.2765
  43   2.0000      -0.556004       -15.1296
  44   2.0000      -0.539935       -14.6924
  45   2.0000      -0.522796       -14.2260
  46   2.0000      -0.519430       -14.1344
  47   2.0000      -0.510820       -13.9001
  48   2.0000      -0.501618       -13.6497
  49   2.0000      -0.496444       -13.5089
  50   2.0000      -0.490778       -13.3547
  51   2.0000      -0.479921       -13.0593
  52   2.0000      -0.469118       -12.7653
  53   2.0000      -0.466487       -12.6938
  54   2.0000      -0.464511       -12.6400
  55   2.0000      -0.450774       -12.2662
  56   2.0000      -0.446367       -12.1463
  57   2.0000      -0.440883       -11.9970
  58   2.0000      -0.435835       -11.8597
  59   2.0000      -0.419805       -11.4235
  60   2.0000      -0.416077       -11.3220
  61   2.0000      -0.414882       -11.2895
  62   2.0000      -0.404030       -10.9942
  63   2.0000      -0.352889        -9.6026
  64   2.0000      -0.331913        -9.0318
  65   2.0000      -0.329151        -8.9566
  66   2.0000      -0.279716        -7.6115
  67   0.0000       0.020266         0.5515
  68   0.0000       0.083280         2.2662
  69   0.0000       0.108677         2.9573
  70   0.0000       0.113728         3.0947
  71   0.0000       0.130392         3.5482

MULLIKEN ATOMIC CHARGES
-----------------------
   0 S :    0.115427
   1 C :   -0.131955
   2 C :   -0.082165
   3 C :   -0.016325
   4 C :   -0.123266
   5 H :    0.033282
   6 C :    0.073434
   7 H :    0.012672
   8 H :    0.027124
   9 C :   -0.103968
  10 H :    0.040767
  11 H :    0.029600
  12 C :   -0.032789
  13 H :    0.023174
  14 H :    0.035634
  15 H :    0.037588
  16 S :    0.090624
  17 C :   -0.076231
  18 C :   -0.036169
  19 C :   -0.030672
  20 C :   -0.155048
  21 H :    0.014979
  22 C :    0.110590
  23 H :    0.019828
  24 H :    0.020835
  25 C :   -0.056411
  26 H :    0.012525
  27 H :    0.005314
  28 C :   -0.055650
  29 H :    0.024262
  30 H :    0.027415
  31 H :    0.043226
  32 H :    0.061740
  33 H :    0.040606
Sum of atomic charges:   -0.0000000

LOEWDIN ATOMIC CHARGES
----------------------
   0 S :    0.438579
   1 C :   -0.227070
   2 C :   -0.059541
   3 C :   -0.065132
   4 C :   -0.190747
   5 H :    0.035544
   6 C :   -0.032015
   7 H :    0.021548
   8 H :    0.031654
   9 C :   -0.049130
  10 H :    0.031758
  11 H :    0.026472
  12 C :   -0.066693
  13 H :    0.017506
  14 H :    0.032401
  15 H :    0.029827
  16 S :    0.395270
  17 C :   -0.188017
  18 C :   -0.068793
  19 C :   -0.054864
  20 C :   -0.171593
  21 H :    0.028225
  22 C :   -0.032048
  23 H :    0.019190
  24 H :    0.034176
  25 C :   -0.037603
  26 H :    0.021975
  27 H :    0.015318
  28 C :   -0.065242
  29 H :    0.024242
  30 H :    0.022520
  31 H :    0.029140
  32 H :    0.035622
  33 H :    0.017517

  Mayer bond orders larger than 0.100000
B(  0-S ,  1-C ) :   1.1532 B(  0-S ,  4-C ) :   1.1561 B(  1-C ,  2-C ) :   1.5942
B(  1-C , 32-H ) :   0.9619 B(  2-C ,  3-C ) :   1.2655 B(  2-C ,  6-C ) :   1.0174
B(  3-C ,  4-C ) :   1.5261 B(  3-C ,  5-H ) :   0.9845 B(  4-C , 20-C ) :   1.0925
B(  6-C ,  7-H ) :   0.9375 B(  6-C ,  8-H ) :   0.9432 B(  6-C ,  9-C ) :   1.0674
B(  9-C , 10-H ) :   0.9547 B(  9-C , 11-H ) :   0.9551 B(  9-C , 12-C ) :   1.0692
B( 12-C , 13-H ) :   0.9740 B( 12-C , 14-H ) :   0.9729 B( 12-C , 15-H ) :   0.9732
B( 16-S , 17-C ) :   1.1554 B( 16-S , 20-C ) :   1.1449 B( 17-C , 18-C ) :   1.5898
B( 17-C , 20-C ) :   0.1018 B( 17-C , 33-H ) :   0.9783 B( 18-C , 19-C ) :   1.2374
B( 18-C , 21-H ) :   0.9895 B( 19-C , 20-C ) :   1.5258 B( 19-C , 22-C ) :   1.0628
B( 22-C , 23-H ) :   0.9277 B( 22-C , 24-H ) :   0.9177 B( 22-C , 25-C ) :   1.0658
B( 25-C , 26-H ) :   0.9536 B( 25-C , 27-H ) :   0.9534 B( 25-C , 28-C ) :   1.0733
B( 28-C , 29-H ) :   0.9773 B( 28-C , 30-H ) :   0.9749 B( 28-C , 31-H ) :   0.9745

Dispersion correction           -0.014407143
FINAL SINGLE POINT ENERGY     -1339.874205784281

DIPOLE MOMENT
-------------
                                X             Y             Z
Electronic contribution:    -11.67656     -15.52683      -1.87900
Nuclear contribution   :     11.80663      15.81097       1.99197
                        -----------------------------------------
Total Dipole Moment    :      0.13007       0.28414       0.11297
                        -----------------------------------------
Magnitude (a.u.)       :      0.33229
Magnitude (Debye)      :      0.84462

Rotational constants in cm-1:     0.020527     0.007924     0.007098
Rotational constants in MHz :   615.382902   237.543806   212.787582

                             ****ORCA TERMINATED NORMALLY****
TOTAL RUN TIME: 0 days 0 hours 0 minutes 33 seconds 635 msec
