                         Program Version 4.2.1 -  RELEASE  -
|  1> ! wB97X-D3 SP def2-SVP
|  2> %pal
|  3> nprocs 16
|  4> end
|  5>
|  6> * xyz 0 1
|  7> S 	 -41.6919 	 55.8646 	 107.379
|  8> C 	 -42.9499 	 56.503 	 108.453
|  9> C 	 -42.6736 	 57.7281 	 108.985
| 10> C 	 -41.3881 	 58.2038 	 108.64
| 11> C 	 -40.7661 	 57.3903 	 107.713
| 12> H 	 -41.0276 	 59.1228 	 108.945
| 13> C 	 -43.6303 	 58.532 	 109.877
| 14> H 	 -44.5426 	 58.6286 	 109.299
| 15> H 	 -43.2714 	 59.5495 	 110.05
| 16> C 	 -43.9088 	 57.8714 	 111.253
| 17> H 	 -44.6595 	 57.1134 	 111.114
| 18> H 	 -43.069 	 57.3472 	 111.714
| 19> C 	 -44.4755 	 58.9531 	 112.286
| 20> H 	 -45.4605 	 59.2454 	 112.094
| 21> H 	 -44.5095 	 58.5912 	 113.355
| 22> H 	 -43.8417 	 59.866 	 112.244
| 23> S 	 -38.2034 	 57.1584 	 108.562
| 24> C 	 -36.9047 	 57.8049 	 107.602
| 25> C 	 -37.3618 	 58.4435 	 106.457
| 26> C 	 -38.745 	 58.1345 	 106.18
| 27> C 	 -39.3539 	 57.5805 	 107.309
| 28> H 	 -36.5216 	 58.8911 	 105.878
| 29> C 	 -39.5294 	 58.63 	 104.975
| 30> H 	 -40.0023 	 59.602 	 105.192
| 31> H 	 -40.3215 	 57.8331 	 104.897
| 32> C 	 -38.6895 	 58.7183 	 103.733
| 33> H 	 -38.319 	 57.7451 	 103.312
| 34> H 	 -37.7788 	 59.3353 	 103.969
| 35> C 	 -39.3971 	 59.3495 	 102.55
| 36> H 	 -39.954 	 60.2243 	 102.876
| 37> H 	 -40.1733 	 58.6599 	 102.142
| 38> H 	 -38.8057 	 59.6804 	 101.695
| 39> H 	 -43.859 	 55.8937 	 108.652
| 40> H 	 -35.8391 	 57.7615 	 107.976
| 41> *
| 42>
| 43>                          ****END OF INPUT****

CARTESIAN COORDINATES (ANGSTROEM)
---------------------------------
  S    -41.691900   55.864600  107.379000
  C    -42.949900   56.503000  108.453000
  C    -42.673600   57.728100  108.985000
  C    -41.388100   58.203800  108.640000
  C    -40.766100   57.390300  107.713000
  H    -41.027600   59.122800  108.945000
  C    -43.630300   58.532000  109.877000
  H    -44.542600   58.628600  109.299000
  H    -43.271400   59.549500  110.050000
  C    -43.908800   57.871400  111.253000
  H    -44.659500   57.113400  111.114000
  H    -43.069000   57.347200  111.714000
  C    -44.475500   58.953100  112.286000
  H    -45.460500   59.245400  112.094000
  H    -44.509500   58.591200  113.355000
  H    -43.841700   59.866000  112.244000
  S    -38.203400   57.158400  108.562000
  C    -36.904700   57.804900  107.602000
  C    -37.361800   58.443500  106.457000
  C    -38.745000   58.134500  106.180000
  C    -39.353900   57.580500  107.309000
  H    -36.521600   58.891100  105.878000
  C    -39.529400   58.630000  104.975000
  H    -40.002300   59.602000  105.192000
  H    -40.321500   57.833100  104.897000
  C    -38.689500   58.718300  103.733000
  H    -38.319000   57.745100  103.312000
  H    -37.778800   59.335300  103.969000
  C    -39.397100   59.349500  102.550000
  H    -39.954000   60.224300  102.876000
  H    -40.173300   58.659900  102.142000
  H    -38.805700   59.680400  101.695000
  H    -43.859000   55.893700  108.652000
  H    -35.839100   57.761500  107.976000

 Total Charge           Charge          ....    0
 Multiplicity           Mult            ....    1
 Number of Electrons    NEL             ....  134
 Basis Dimension        Dim             ....  322

ORBITAL ENERGIES
----------------

  NO   OCC          E(Eh)            E(eV)
   0   2.0000     -88.968286     -2420.9501
   1   2.0000     -88.961665     -2420.7700
   2   2.0000     -10.332854      -281.1713
   3   2.0000     -10.323334      -280.9122
   4   2.0000     -10.318368      -280.7771
   5   2.0000     -10.315737      -280.7055
   6   2.0000     -10.307344      -280.4771
   7   2.0000     -10.298089      -280.2252
   8   2.0000     -10.297777      -280.2167
   9   2.0000     -10.295250      -280.1480
  10   2.0000     -10.294870      -280.1376
  11   2.0000     -10.291279      -280.0399
  12   2.0000     -10.290385      -280.0156
  13   2.0000     -10.288614      -279.9674
  14   2.0000     -10.283166      -279.8192
  15   2.0000     -10.275391      -279.6076
  16   2.0000      -8.081607      -219.9117
  17   2.0000      -8.076758      -219.7797
  18   2.0000      -6.040098      -164.3594
  19   2.0000      -6.036533      -164.2624
  20   2.0000      -6.035110      -164.2237
  21   2.0000      -6.032271      -164.1464
  22   2.0000      -6.031223      -164.1179
  23   2.0000      -6.027644      -164.0205
  24   2.0000      -1.000797       -27.2331
  25   2.0000      -0.979517       -26.6540
  26   2.0000      -0.911134       -24.7932
  27   2.0000      -0.902645       -24.5622
  28   2.0000      -0.862350       -23.4657
  29   2.0000      -0.848513       -23.0892
  30   2.0000      -0.847046       -23.0493
  31   2.0000      -0.810102       -22.0440
  32   2.0000      -0.779336       -21.2068
  33   2.0000      -0.765698       -20.8357
  34   2.0000      -0.707785       -19.2598
  35   2.0000      -0.697934       -18.9917
  36   2.0000      -0.691356       -18.8128
  37   2.0000      -0.645714       -17.5708
  38   2.0000      -0.642204       -17.4752
  39   2.0000      -0.617720       -16.8090
  40   2.0000      -0.592433       -16.1209
  41   2.0000      -0.569298       -15.4914
  42   2.0000      -0.566544       -15.4165
  43   2.0000      -0.554067       -15.0769
  44   2.0000      -0.524627       -14.2758
  45   2.0000      -0.516825       -14.0635
  46   2.0000      -0.511823       -13.9274
  47   2.0000      -0.507849       -13.8193
  48   2.0000      -0.504132       -13.7181
  49   2.0000      -0.498756       -13.5718
  50   2.0000      -0.484162       -13.1747
  51   2.0000      -0.475236       -12.9318
  52   2.0000      -0.462717       -12.5912
  53   2.0000      -0.461900       -12.5689
  54   2.0000      -0.458192       -12.4680
  55   2.0000      -0.447361       -12.1733
  56   2.0000      -0.446281       -12.1439
  57   2.0000      -0.439128       -11.9493
  58   2.0000      -0.429878       -11.6976
  59   2.0000      -0.426701       -11.6111
  60   2.0000      -0.421626       -11.4730
  61   2.0000      -0.419402       -11.4125
  62   2.0000      -0.410819       -11.1790
  63   2.0000      -0.340097        -9.2545
  64   2.0000      -0.328329        -8.9343
  65   2.0000      -0.320930        -8.7329
  66   2.0000      -0.302687        -8.2365
  67   0.0000       0.042924         1.1680
  68   0.0000       0.050237         1.3670
  69   0.0000       0.103117         2.8060
  70   0.0000       0.122830         3.3424
  71   0.0000       0.125461         3.4140

MULLIKEN ATOMIC CHARGES
-----------------------
   0 S :    0.104929
   1 C :   -0.159816
   2 C :   -0.057868
   3 C :    0.059391
   4 C :   -0.152320
   5 H :   -0.012487
   6 C :    0.074489
   7 H :    0.038785
   8 H :    0.015625
   9 C :   -0.068776
  10 H :    0.025374
  11 H :    0.043674
  12 C :   -0.076861
  13 H :    0.021612
  14 H :    0.042563
  15 H :    0.035767
  16 S :    0.118952
  17 C :   -0.136809
  18 C :   -0.059012
  19 C :   -0.026050
  20 C :   -0.179247
  21 H :    0.044805
  22 C :    0.081305
  23 H :    0.047507
  24 H :    0.036263
  25 C :   -0.119721
  26 H :    0.040454
  27 H :    0.035827
  28 C :   -0.037910
  29 H :    0.013761
  30 H :    0.029972
  31 H :    0.036403
  32 H :    0.060916
  33 H :    0.078504
Sum of atomic charges:    0.0000000

LOEWDIN ATOMIC CHARGES
----------------------
   0 S :    0.368591
   1 C :   -0.190990
   2 C :   -0.064849
   3 C :   -0.042119
   4 C :   -0.178426
   5 H :    0.022368
   6 C :   -0.026763
   7 H :    0.035152
   8 H :    0.025935
   9 C :   -0.035058
  10 H :    0.020021
  11 H :    0.027440
  12 C :   -0.069698
  13 H :    0.013972
  14 H :    0.032769
  15 H :    0.025853
  16 S :    0.412992
  17 C :   -0.197118
  18 C :   -0.087229
  19 C :   -0.053668
  20 C :   -0.203928
  21 H :    0.041313
  22 C :   -0.032803
  23 H :    0.038455
  24 H :    0.038671
  25 C :   -0.052675
  26 H :    0.032282
  27 H :    0.026752
  28 C :   -0.071575
  29 H :    0.019193
  30 H :    0.028034
  31 H :    0.026624
  32 H :    0.032046
  33 H :    0.038434

  Mayer bond orders larger than 0.100000
B(  0-S ,  1-C ) :   1.1321 B(  0-S ,  4-C ) :   1.1298 B(  1-C ,  2-C ) :   1.6308
B(  1-C , 32-H ) :   0.9627 B(  2-C ,  3-C ) :   1.2349 B(  2-C ,  6-C ) :   1.0127
B(  3-C ,  4-C ) :   1.5904 B(  3-C ,  5-H ) :   1.0070 B(  4-C , 20-C ) :   1.0122
B(  6-C ,  7-H ) :   0.9381 B(  6-C ,  8-H ) :   0.9518 B(  6-C ,  9-C ) :   1.0470
B(  9-C , 10-H ) :   0.9558 B(  9-C , 11-H ) :   0.9676 B(  9-C , 12-C ) :   1.0713
B( 12-C , 13-H ) :   0.9782 B( 12-C , 14-H ) :   0.9777 B( 12-C , 15-H ) :   0.9793
B( 16-S , 17-C ) :   1.1656 B( 16-S , 20-C ) :   1.1582 B( 17-C , 18-C ) :   1.6277
B( 17-C , 33-H ) :   0.9583 B( 18-C , 19-C ) :   1.2110 B( 18-C , 21-H ) :   0.9773
B( 19-C , 20-C ) :   1.5978 B( 19-C , 22-C ) :   1.0402 B( 22-C , 23-H ) :   0.9319
B( 22-C , 24-H ) :   0.9276 B( 22-C , 25-C ) :   1.0700 B( 25-C , 26-H ) :   0.9560
B( 25-C , 27-H ) :   0.9487 B( 25-C , 28-C ) :   1.0882 B( 28-C , 29-H ) :   0.9710
B( 28-C , 30-H ) :   0.9721 B( 28-C , 31-H ) :   0.9740

Dispersion correction           -0.013358299
FINAL SINGLE POINT ENERGY     -1339.874230716716

DIPOLE MOMENT
-------------
                                X             Y             Z
Electronic contribution:     11.26781     -14.22009       2.58687
Nuclear contribution   :    -11.45066      14.66635      -2.52074
                        -----------------------------------------
Total Dipole Moment    :     -0.18285       0.44625       0.06613
                        -----------------------------------------
Magnitude (a.u.)       :      0.48677
Magnitude (Debye)      :      1.23728

Rotational constants in cm-1:     0.021226     0.006723     0.006028
Rotational constants in MHz :   636.346794   201.542902   180.727433

                             ****ORCA TERMINATED NORMALLY****
TOTAL RUN TIME: 0 days 0 hours 0 minutes 28 seconds 191 msec
