                         Program Version 4.2.1 -  RELEASE  -
|  1> ! wB97X-D3 SP def2-SVP
|  2> %pal
|  3> nprocs 16
|  4> end
|  5>
|  6> * xyz 0 1
|  7> S 	 -30.4367 	 67.4407 	 118.207
|  8> C 	 -31.7047 	 66.2464 	 118.085
|  9> C 	 -31.1848 	 64.9549 	 118.116
| 10> C 	 -29.7868 	 64.9723 	 118.228
| 11> C 	 -29.2028 	 66.2434 	 118.152
| 12> H 	 -29.1163 	 64.1748 	 118.455
| 13> C 	 -32.0335 	 63.6967 	 118.271
| 14> H 	 -31.6655 	 62.8475 	 117.723
| 15> H 	 -32.994 	 63.8988 	 117.802
| 16> C 	 -32.4017 	 63.2522 	 119.665
| 17> H 	 -32.6153 	 62.1644 	 119.567
| 18> H 	 -31.5265 	 63.2963 	 120.325
| 19> C 	 -33.5873 	 64.0903 	 120.299
| 20> H 	 -34.4992 	 64.2055 	 119.69
| 21> H 	 -33.7256 	 63.6488 	 121.223
| 22> H 	 -33.3159 	 65.1145 	 120.58
| 23> S 	 -27.2801 	 67.6484 	 119.555
| 24> C 	 -25.601 	 67.3045 	 119.188
| 25> C 	 -25.4161 	 66.2403 	 118.25
| 26> C 	 -26.7063 	 65.7929 	 117.848
| 27> C 	 -27.7628 	 66.5079 	 118.303
| 28> H 	 -24.5324 	 65.8149 	 117.824
| 29> C 	 -26.8614 	 64.688 	 116.797
| 30> H 	 -26.2143 	 64.9395 	 116.005
| 31> H 	 -27.8521 	 64.5908 	 116.426
| 32> C 	 -26.5912 	 63.2794 	 117.206
| 33> H 	 -27.5349 	 62.8544 	 117.611
| 34> H 	 -25.8058 	 63.3317 	 117.962
| 35> C 	 -26.2204 	 62.4028 	 116.017
| 36> H 	 -25.2839 	 62.5957 	 115.499
| 37> H 	 -27.0314 	 62.6175 	 115.282
| 38> H 	 -26.2858 	 61.3906 	 116.343
| 39> H 	 -32.7524 	 66.4561 	 117.981
| 40> H 	 -24.7536 	 67.7539 	 119.578
| 41> *
| 42>
| 43>                          ****END OF INPUT****

CARTESIAN COORDINATES (ANGSTROEM)
---------------------------------
  S    -30.436700   67.440700  118.207000
  C    -31.704700   66.246400  118.085000
  C    -31.184800   64.954900  118.116000
  C    -29.786800   64.972300  118.228000
  C    -29.202800   66.243400  118.152000
  H    -29.116300   64.174800  118.455000
  C    -32.033500   63.696700  118.271000
  H    -31.665500   62.847500  117.723000
  H    -32.994000   63.898800  117.802000
  C    -32.401700   63.252200  119.665000
  H    -32.615300   62.164400  119.567000
  H    -31.526500   63.296300  120.325000
  C    -33.587300   64.090300  120.299000
  H    -34.499200   64.205500  119.690000
  H    -33.725600   63.648800  121.223000
  H    -33.315900   65.114500  120.580000
  S    -27.280100   67.648400  119.555000
  C    -25.601000   67.304500  119.188000
  C    -25.416100   66.240300  118.250000
  C    -26.706300   65.792900  117.848000
  C    -27.762800   66.507900  118.303000
  H    -24.532400   65.814900  117.824000
  C    -26.861400   64.688000  116.797000
  H    -26.214300   64.939500  116.005000
  H    -27.852100   64.590800  116.426000
  C    -26.591200   63.279400  117.206000
  H    -27.534900   62.854400  117.611000
  H    -25.805800   63.331700  117.962000
  C    -26.220400   62.402800  116.017000
  H    -25.283900   62.595700  115.499000
  H    -27.031400   62.617500  115.282000
  H    -26.285800   61.390600  116.343000
  H    -32.752400   66.456100  117.981000
  H    -24.753600   67.753900  119.578000

 Total Charge           Charge          ....    0
 Multiplicity           Mult            ....    1
 Number of Electrons    NEL             ....  134
 Basis Dimension        Dim             ....  322

ORBITAL ENERGIES
----------------

  NO   OCC          E(Eh)            E(eV)
   0   2.0000     -88.970344     -2421.0061
   1   2.0000     -88.969605     -2420.9860
   2   2.0000     -10.327808      -281.0339
   3   2.0000     -10.323283      -280.9108
   4   2.0000     -10.321247      -280.8554
   5   2.0000     -10.314326      -280.6671
   6   2.0000     -10.300955      -280.3032
   7   2.0000     -10.299542      -280.2648
   8   2.0000     -10.297220      -280.2016
   9   2.0000     -10.292312      -280.0680
  10   2.0000     -10.289242      -279.9845
  11   2.0000     -10.287491      -279.9369
  12   2.0000     -10.283321      -279.8234
  13   2.0000     -10.278123      -279.6819
  14   2.0000     -10.277017      -279.6519
  15   2.0000     -10.275641      -279.6144
  16   2.0000      -8.084743      -219.9970
  17   2.0000      -8.084538      -219.9915
  18   2.0000      -6.043324      -164.4472
  19   2.0000      -6.042964      -164.4374
  20   2.0000      -6.039398      -164.3404
  21   2.0000      -6.038881      -164.3263
  22   2.0000      -6.035555      -164.2358
  23   2.0000      -6.035350      -164.2302
  24   2.0000      -1.009554       -27.4713
  25   2.0000      -0.986085       -26.8327
  26   2.0000      -0.918864       -25.0036
  27   2.0000      -0.911507       -24.8034
  28   2.0000      -0.865829       -23.5604
  29   2.0000      -0.856247       -23.2997
  30   2.0000      -0.846243       -23.0275
  31   2.0000      -0.810400       -22.0521
  32   2.0000      -0.787948       -21.4411
  33   2.0000      -0.777644       -21.1608
  34   2.0000      -0.705572       -19.1996
  35   2.0000      -0.698097       -18.9962
  36   2.0000      -0.692257       -18.8373
  37   2.0000      -0.670970       -18.2580
  38   2.0000      -0.645813       -17.5735
  39   2.0000      -0.619560       -16.8591
  40   2.0000      -0.602736       -16.4013
  41   2.0000      -0.573537       -15.6067
  42   2.0000      -0.571449       -15.5499
  43   2.0000      -0.550751       -14.9867
  44   2.0000      -0.533306       -14.5120
  45   2.0000      -0.525470       -14.2988
  46   2.0000      -0.519327       -14.1316
  47   2.0000      -0.517492       -14.0817
  48   2.0000      -0.512155       -13.9364
  49   2.0000      -0.499937       -13.6040
  50   2.0000      -0.486552       -13.2397
  51   2.0000      -0.485025       -13.1982
  52   2.0000      -0.470468       -12.8021
  53   2.0000      -0.462306       -12.5800
  54   2.0000      -0.460671       -12.5355
  55   2.0000      -0.457810       -12.4577
  56   2.0000      -0.443383       -12.0651
  57   2.0000      -0.440511       -11.9869
  58   2.0000      -0.434299       -11.8179
  59   2.0000      -0.421674       -11.4743
  60   2.0000      -0.416862       -11.3434
  61   2.0000      -0.415765       -11.3135
  62   2.0000      -0.415185       -11.2977
  63   2.0000      -0.347485        -9.4555
  64   2.0000      -0.334784        -9.1099
  65   2.0000      -0.333451        -9.0737
  66   2.0000      -0.288065        -7.8387
  67   0.0000       0.026245         0.7142
  68   0.0000       0.070276         1.9123
  69   0.0000       0.104913         2.8548
  70   0.0000       0.121580         3.3084
  71   0.0000       0.129848         3.5334

MULLIKEN ATOMIC CHARGES
-----------------------
   0 S :    0.117192
   1 C :   -0.116832
   2 C :   -0.061248
   3 C :    0.018495
   4 C :   -0.161196
   5 H :   -0.003722
   6 C :    0.074539
   7 H :    0.018752
   8 H :    0.007687
   9 C :   -0.075194
  10 H :    0.034147
  11 H :    0.029193
  12 C :   -0.037520
  13 H :    0.037545
  14 H :    0.018957
  15 H :    0.032249
  16 S :    0.112103
  17 C :   -0.052863
  18 C :   -0.016161
  19 C :   -0.065320
  20 C :   -0.115325
  21 H :    0.015064
  22 C :    0.060470
  23 H :    0.013528
  24 H :    0.017753
  25 C :   -0.085595
  26 H :    0.032830
  27 H :    0.021811
  28 C :   -0.041720
  29 H :    0.037609
  30 H :    0.026644
  31 H :    0.032690
  32 H :    0.042030
  33 H :    0.031408
Sum of atomic charges:   -0.0000000

LOEWDIN ATOMIC CHARGES
----------------------
   0 S :    0.425737
   1 C :   -0.196582
   2 C :   -0.062252
   3 C :   -0.062578
   4 C :   -0.203677
   5 H :    0.024835
   6 C :   -0.036930
   7 H :    0.026825
   8 H :    0.028885
   9 C :   -0.035843
  10 H :    0.029467
  11 H :    0.025155
  12 C :   -0.064860
  13 H :    0.026675
  14 H :    0.018250
  15 H :    0.028826
  16 S :    0.404072
  17 C :   -0.166982
  18 C :   -0.059364
  19 C :   -0.056926
  20 C :   -0.196028
  21 H :    0.030890
  22 C :   -0.031500
  23 H :    0.023204
  24 H :    0.024950
  25 C :   -0.039910
  26 H :    0.024315
  27 H :    0.016559
  28 C :   -0.061254
  29 H :    0.023725
  30 H :    0.030027
  31 H :    0.023515
  32 H :    0.025516
  33 H :    0.013257

  Mayer bond orders larger than 0.100000
B(  0-S ,  1-C ) :   1.1531 B(  0-S ,  4-C ) :   1.1737 B(  1-C ,  2-C ) :   1.5702
B(  1-C ,  4-C ) :   0.1034 B(  1-C , 32-H ) :   0.9698 B(  2-C ,  3-C ) :   1.2742
B(  2-C ,  6-C ) :   1.0367 B(  3-C ,  4-C ) :   1.5247 B(  3-C ,  5-H ) :   0.9955
B(  4-C , 20-C ) :   1.0315 B(  6-C ,  7-H ) :   0.9411 B(  6-C ,  8-H ) :   0.9344
B(  6-C ,  9-C ) :   1.0711 B(  9-C , 10-H ) :   0.9565 B(  9-C , 11-H ) :   0.9553
B(  9-C , 12-C ) :   1.0712 B( 12-C , 13-H ) :   0.9773 B( 12-C , 14-H ) :   0.9721
B( 12-C , 15-H ) :   0.9724 B( 16-S , 17-C ) :   1.1662 B( 16-S , 20-C ) :   1.1156
B( 17-C , 18-C ) :   1.5799 B( 17-C , 33-H ) :   0.9741 B( 18-C , 19-C ) :   1.2452
B( 18-C , 21-H ) :   0.9910 B( 19-C , 20-C ) :   1.6423 B( 19-C , 22-C ) :   1.0400
B( 22-C , 23-H ) :   0.9422 B( 22-C , 24-H ) :   0.9296 B( 22-C , 25-C ) :   1.0588
B( 25-C , 26-H ) :   0.9484 B( 25-C , 27-H ) :   0.9580 B( 25-C , 28-C ) :   1.0826
B( 28-C , 29-H ) :   0.9754 B( 28-C , 30-H ) :   0.9713 B( 28-C , 31-H ) :   0.9737

Dispersion correction           -0.014385246
FINAL SINGLE POINT ENERGY     -1339.865600854986

DIPOLE MOMENT
-------------
                                X             Y             Z
Electronic contribution:      6.18270      26.14935       4.14886
Nuclear contribution   :     -6.16815     -26.78014      -4.17190
                        -----------------------------------------
Total Dipole Moment    :      0.01455      -0.63080      -0.02304
                        -----------------------------------------
Magnitude (a.u.)       :      0.63139
Magnitude (Debye)      :      1.60486

Rotational constants in cm-1:     0.017823     0.009027     0.006765
Rotational constants in MHz :   534.310334   270.613114   202.798563

                             ****ORCA TERMINATED NORMALLY****
TOTAL RUN TIME: 0 days 0 hours 0 minutes 30 seconds 348 msec
