                         Program Version 4.2.1 -  RELEASE  -
|  1> ! wB97X-D3 SP def2-SVP
|  2> %pal
|  3> nprocs 16
|  4> end
|  5>
|  6> * xyz 0 1
|  7> S 	 33.3109 	 0.0211432 	 66.8961
|  8> C 	 32.9683 	 1.0847 	 68.1665
|  9> C 	 31.8897 	 0.613033 	 68.9027
| 10> C 	 31.6 	 -0.774276 	 68.5904
| 11> C 	 32.3591 	 -1.26129 	 67.5758
| 12> H 	 30.9337 	 -1.46666 	 69.106
| 13> C 	 31.1475 	 1.35634 	 69.9977
| 14> H 	 30.4296 	 0.637034 	 70.4081
| 15> H 	 30.6125 	 2.15894 	 69.6295
| 16> C 	 32.1527 	 1.90453 	 71.0732
| 17> H 	 33.005 	 2.53481 	 70.7671
| 18> H 	 31.5615 	 2.38576 	 71.8675
| 19> C 	 32.8993 	 0.81768 	 71.8952
| 20> H 	 33.6649 	 0.257484 	 71.3179
| 21> H 	 33.3071 	 1.24742 	 72.8003
| 22> H 	 32.2817 	 0.0352275 	 72.3293
| 23> S 	 32.1252 	 -2.87224 	 65.3728
| 24> C 	 31.7808 	 -4.54526 	 65.6502
| 25> C 	 31.6899 	 -4.91346 	 66.9421
| 26> C 	 31.8385 	 -3.8058 	 67.8347
| 27> C 	 32.245 	 -2.62183 	 67.1462
| 28> H 	 31.3689 	 -5.9624 	 67.1791
| 29> C 	 31.6952 	 -3.93455 	 69.3317
| 30> H 	 30.6286 	 -3.96407 	 69.3567
| 31> H 	 32.1357 	 -3.07896 	 69.7592
| 32> C 	 32.3977 	 -5.158 	 69.9795
| 33> H 	 33.4797 	 -5.04571 	 69.9834
| 34> H 	 32.0676 	 -5.94096 	 69.4378
| 35> C 	 32.1614 	 -5.14447 	 71.5361
| 36> H 	 32.7997 	 -5.86831 	 72.0822
| 37> H 	 31.1509 	 -5.42552 	 71.8174
| 38> H 	 32.4908 	 -4.20772 	 71.8868
| 39> H 	 33.4369 	 2.11034 	 68.2043
| 40> H 	 31.726 	 -5.29722 	 64.9412
| 41> *
| 42>
| 43>                          ****END OF INPUT****

CARTESIAN COORDINATES (ANGSTROEM)
---------------------------------
  S     33.310900    0.021143   66.896100
  C     32.968300    1.084700   68.166500
  C     31.889700    0.613033   68.902700
  C     31.600000   -0.774276   68.590400
  C     32.359100   -1.261290   67.575800
  H     30.933700   -1.466660   69.106000
  C     31.147500    1.356340   69.997700
  H     30.429600    0.637034   70.408100
  H     30.612500    2.158940   69.629500
  C     32.152700    1.904530   71.073200
  H     33.005000    2.534810   70.767100
  H     31.561500    2.385760   71.867500
  C     32.899300    0.817680   71.895200
  H     33.664900    0.257484   71.317900
  H     33.307100    1.247420   72.800300
  H     32.281700    0.035228   72.329300
  S     32.125200   -2.872240   65.372800
  C     31.780800   -4.545260   65.650200
  C     31.689900   -4.913460   66.942100
  C     31.838500   -3.805800   67.834700
  C     32.245000   -2.621830   67.146200
  H     31.368900   -5.962400   67.179100
  C     31.695200   -3.934550   69.331700
  H     30.628600   -3.964070   69.356700
  H     32.135700   -3.078960   69.759200
  C     32.397700   -5.158000   69.979500
  H     33.479700   -5.045710   69.983400
  H     32.067600   -5.940960   69.437800
  C     32.161400   -5.144470   71.536100
  H     32.799700   -5.868310   72.082200
  H     31.150900   -5.425520   71.817400
  H     32.490800   -4.207720   71.886800
  H     33.436900    2.110340   68.204300
  H     31.726000   -5.297220   64.941200

 Total Charge           Charge          ....    0
 Multiplicity           Mult            ....    1
 Number of Electrons    NEL             ....  134
 Basis Dimension        Dim             ....  322

ORBITAL ENERGIES
----------------

  NO   OCC          E(Eh)            E(eV)
   0   2.0000     -88.963798     -2420.8280
   1   2.0000     -88.963578     -2420.8220
   2   2.0000     -10.328497      -281.0527
   3   2.0000     -10.320660      -280.8394
   4   2.0000     -10.314759      -280.6789
   5   2.0000     -10.307281      -280.4754
   6   2.0000     -10.306538      -280.4552
   7   2.0000     -10.302385      -280.3422
   8   2.0000     -10.293803      -280.1086
   9   2.0000     -10.292994      -280.0866
  10   2.0000     -10.291209      -280.0380
  11   2.0000     -10.289495      -279.9914
  12   2.0000     -10.286625      -279.9133
  13   2.0000     -10.283710      -279.8340
  14   2.0000     -10.280010      -279.7333
  15   2.0000     -10.273830      -279.5651
  16   2.0000      -8.079927      -219.8660
  17   2.0000      -8.078234      -219.8199
  18   2.0000      -6.038420      -164.3138
  19   2.0000      -6.036766      -164.2687
  20   2.0000      -6.034306      -164.2018
  21   2.0000      -6.032934      -164.1645
  22   2.0000      -6.030548      -164.0996
  23   2.0000      -6.028817      -164.0524
  24   2.0000      -1.011481       -27.5238
  25   2.0000      -0.986125       -26.8338
  26   2.0000      -0.912756       -24.8373
  27   2.0000      -0.907555       -24.6958
  28   2.0000      -0.876038       -23.8382
  29   2.0000      -0.852325       -23.1929
  30   2.0000      -0.843904       -22.9638
  31   2.0000      -0.815759       -22.1979
  32   2.0000      -0.784442       -21.3458
  33   2.0000      -0.770945       -20.9785
  34   2.0000      -0.714466       -19.4416
  35   2.0000      -0.704070       -19.1587
  36   2.0000      -0.695886       -18.9360
  37   2.0000      -0.658228       -17.9113
  38   2.0000      -0.638309       -17.3693
  39   2.0000      -0.614128       -16.7113
  40   2.0000      -0.597045       -16.2464
  41   2.0000      -0.577192       -15.7062
  42   2.0000      -0.573188       -15.5972
  43   2.0000      -0.548219       -14.9178
  44   2.0000      -0.538482       -14.6528
  45   2.0000      -0.526744       -14.3334
  46   2.0000      -0.521348       -14.1866
  47   2.0000      -0.512210       -13.9379
  48   2.0000      -0.503533       -13.7018
  49   2.0000      -0.500734       -13.6257
  50   2.0000      -0.494017       -13.4429
  51   2.0000      -0.482172       -13.1206
  52   2.0000      -0.473144       -12.8749
  53   2.0000      -0.466194       -12.6858
  54   2.0000      -0.461105       -12.5473
  55   2.0000      -0.454371       -12.3641
  56   2.0000      -0.439650       -11.9635
  57   2.0000      -0.435437       -11.8488
  58   2.0000      -0.433045       -11.7838
  59   2.0000      -0.426029       -11.5928
  60   2.0000      -0.421175       -11.4608
  61   2.0000      -0.415217       -11.2986
  62   2.0000      -0.409443       -11.1415
  63   2.0000      -0.359361        -9.7787
  64   2.0000      -0.331926        -9.0322
  65   2.0000      -0.323820        -8.8116
  66   2.0000      -0.281802        -7.6682
  67   0.0000       0.026948         0.7333
  68   0.0000       0.075786         2.0623
  69   0.0000       0.108792         2.9604
  70   0.0000       0.126696         3.4476
  71   0.0000       0.132048         3.5932

MULLIKEN ATOMIC CHARGES
-----------------------
   0 S :    0.123996
   1 C :   -0.153840
   2 C :   -0.103237
   3 C :   -0.018038
   4 C :   -0.123673
   5 H :    0.016885
   6 C :    0.150276
   7 H :    0.020479
   8 H :    0.023081
   9 C :   -0.110026
  10 H :    0.048939
  11 H :    0.033224
  12 C :   -0.079423
  13 H :    0.044686
  14 H :    0.027633
  15 H :    0.012640
  16 S :    0.089077
  17 C :   -0.031570
  18 C :   -0.072210
  19 C :   -0.081774
  20 C :   -0.134873
  21 H :    0.039992
  22 C :    0.057515
  23 H :    0.042144
  24 H :    0.023647
  25 C :   -0.026096
  26 H :    0.038854
  27 H :    0.003053
  28 C :   -0.040750
  29 H :    0.030830
  30 H :    0.031288
  31 H :    0.021731
  32 H :    0.076091
  33 H :    0.019447
Sum of atomic charges:   -0.0000000

LOEWDIN ATOMIC CHARGES
----------------------
   0 S :    0.429046
   1 C :   -0.224551
   2 C :   -0.062092
   3 C :   -0.068096
   4 C :   -0.208095
   5 H :    0.033548
   6 C :   -0.020778
   7 H :    0.033579
   8 H :    0.022821
   9 C :   -0.041196
  10 H :    0.030842
  11 H :    0.026539
  12 C :   -0.075304
  13 H :    0.026193
  14 H :    0.024311
  15 H :    0.017992
  16 S :    0.387871
  17 C :   -0.174394
  18 C :   -0.083458
  19 C :   -0.047232
  20 C :   -0.182169
  21 H :    0.042260
  22 C :   -0.029254
  23 H :    0.034578
  24 H :    0.023775
  25 C :   -0.019480
  26 H :    0.033185
  27 H :    0.001998
  28 C :   -0.058119
  29 H :    0.028336
  30 H :    0.021449
  31 H :    0.019065
  32 H :    0.041688
  33 H :    0.015144

  Mayer bond orders larger than 0.100000
B(  0-S ,  1-C ) :   1.1526 B(  0-S ,  4-C ) :   1.1448 B(  1-C ,  2-C ) :   1.5828
B(  1-C , 32-H ) :   0.9649 B(  2-C ,  3-C ) :   1.2366 B(  2-C ,  6-C ) :   1.0215
B(  3-C ,  4-C ) :   1.5669 B(  3-C ,  5-H ) :   0.9908 B(  4-C , 20-C ) :   1.0753
B(  6-C ,  7-H ) :   0.9446 B(  6-C ,  8-H ) :   0.9318 B(  6-C ,  9-C ) :   1.0645
B(  9-C , 10-H ) :   0.9611 B(  9-C , 11-H ) :   0.9595 B(  9-C , 12-C ) :   1.0658
B( 12-C , 13-H ) :   0.9759 B( 12-C , 14-H ) :   0.9763 B( 12-C , 15-H ) :   0.9753
B( 16-S , 17-C ) :   1.1495 B( 16-S , 20-C ) :   1.1177 B( 17-C , 18-C ) :   1.6587
B( 17-C , 33-H ) :   0.9606 B( 18-C , 19-C ) :   1.2246 B( 18-C , 21-H ) :   0.9766
B( 19-C , 20-C ) :   1.5988 B( 19-C , 22-C ) :   1.0239 B( 22-C , 23-H ) :   0.9231
B( 22-C , 24-H ) :   0.9374 B( 22-C , 25-C ) :   1.0667 B( 25-C , 26-H ) :   0.9597
B( 25-C , 27-H ) :   0.9581 B( 25-C , 28-C ) :   1.0743 B( 28-C , 29-H ) :   0.9774
B( 28-C , 30-H ) :   0.9788 B( 28-C , 31-H ) :   0.9747

Dispersion correction           -0.014068927
FINAL SINGLE POINT ENERGY     -1339.848887917325

DIPOLE MOMENT
-------------
                                X             Y             Z
Electronic contribution:      2.54038       2.70337     -31.11462
Nuclear contribution   :     -2.86102      -2.84845      31.79563
                        -----------------------------------------
Total Dipole Moment    :     -0.32065      -0.14508       0.68101
                        -----------------------------------------
Magnitude (a.u.)       :      0.76657
Magnitude (Debye)      :      1.94847

Rotational constants in cm-1:     0.016810     0.009769     0.006619
Rotational constants in MHz :   503.949709   292.873820   198.424542

                             ****ORCA TERMINATED NORMALLY****
TOTAL RUN TIME: 0 days 0 hours 0 minutes 31 seconds 124 msec
