                         Program Version 4.2.1 -  RELEASE  -
|  1> ! wB97X-D3 SP def2-SVP
|  2> %pal
|  3> nprocs 16
|  4> end
|  5>
|  6> * xyz 0 1
|  7> S 	 -103.585 	 58.5375 	 116.862
|  8> C 	 -102.209 	 57.4978 	 116.693
|  9> C 	 -102.612 	 56.1676 	 116.539
| 10> C 	 -104.015 	 56.0384 	 116.164
| 11> C 	 -104.679 	 57.2352 	 116.358
| 12> H 	 -104.683 	 55.1588 	 115.958
| 13> C 	 -101.648 	 54.9421 	 116.184
| 14> H 	 -101.997 	 54.036 	 116.77
| 15> H 	 -100.624 	 55.1944 	 116.528
| 16> C 	 -101.54 	 54.5549 	 114.769
| 17> H 	 -100.878 	 53.7849 	 114.606
| 18> H 	 -102.503 	 54.2313 	 114.463
| 19> C 	 -100.989 	 55.6668 	 113.924
| 20> H 	 -100.851 	 55.219 	 112.917
| 21> H 	 -101.516 	 56.6144 	 113.997
| 22> H 	 -99.9648 	 55.9049 	 114.193
| 23> S 	 -106.678 	 57.4699 	 114.435
| 24> C 	 -108.309 	 57.8904 	 114.986
| 25> C 	 -108.355 	 58.0343 	 116.334
| 26> C 	 -107.134 	 57.7981 	 116.989
| 27> C 	 -106.113 	 57.4743 	 116.14
| 28> H 	 -109.281 	 58.2833 	 116.867
| 29> C 	 -107.006 	 57.9226 	 118.509
| 30> H 	 -107.499 	 58.8448 	 118.824
| 31> H 	 -105.997 	 58.1189 	 118.894
| 32> C 	 -107.545 	 56.6872 	 119.288
| 33> H 	 -108.532 	 56.4225 	 118.963
| 34> H 	 -107.688 	 57.056 	 120.308
| 35> C 	 -106.63 	 55.4877 	 119.282
| 36> H 	 -105.542 	 55.6182 	 119.517
| 37> H 	 -106.729 	 54.9969 	 118.281
| 38> H 	 -106.989 	 54.7559 	 120.045
| 39> H 	 -101.211 	 57.6661 	 117.119
| 40> H 	 -109.198 	 58.1229 	 114.344
| 41> *
| 42>
| 43>                          ****END OF INPUT****

CARTESIAN COORDINATES (ANGSTROEM)
---------------------------------
  S    -103.585000   58.537500  116.862000
  C    -102.209000   57.497800  116.693000
  C    -102.612000   56.167600  116.539000
  C    -104.015000   56.038400  116.164000
  C    -104.679000   57.235200  116.358000
  H    -104.683000   55.158800  115.958000
  C    -101.648000   54.942100  116.184000
  H    -101.997000   54.036000  116.770000
  H    -100.624000   55.194400  116.528000
  C    -101.540000   54.554900  114.769000
  H    -100.878000   53.784900  114.606000
  H    -102.503000   54.231300  114.463000
  C    -100.989000   55.666800  113.924000
  H    -100.851000   55.219000  112.917000
  H    -101.516000   56.614400  113.997000
  H    -99.964800   55.904900  114.193000
  S    -106.678000   57.469900  114.435000
  C    -108.309000   57.890400  114.986000
  C    -108.355000   58.034300  116.334000
  C    -107.134000   57.798100  116.989000
  C    -106.113000   57.474300  116.140000
  H    -109.281000   58.283300  116.867000
  C    -107.006000   57.922600  118.509000
  H    -107.499000   58.844800  118.824000
  H    -105.997000   58.118900  118.894000
  C    -107.545000   56.687200  119.288000
  H    -108.532000   56.422500  118.963000
  H    -107.688000   57.056000  120.308000
  C    -106.630000   55.487700  119.282000
  H    -105.542000   55.618200  119.517000
  H    -106.729000   54.996900  118.281000
  H    -106.989000   54.755900  120.045000
  H    -101.211000   57.666100  117.119000
  H    -109.198000   58.122900  114.344000

 Total Charge           Charge          ....    0
 Multiplicity           Mult            ....    1
 Number of Electrons    NEL             ....  134
 Basis Dimension        Dim             ....  322

ORBITAL ENERGIES
----------------

  NO   OCC          E(Eh)            E(eV)
   0   2.0000     -88.969554     -2420.9846
   1   2.0000     -88.965734     -2420.8807
   2   2.0000     -10.332095      -281.1506
   3   2.0000     -10.327189      -281.0171
   4   2.0000     -10.321570      -280.8642
   5   2.0000     -10.318415      -280.7783
   6   2.0000     -10.311370      -280.5866
   7   2.0000     -10.301886      -280.3286
   8   2.0000     -10.301186      -280.3095
   9   2.0000     -10.295647      -280.1588
  10   2.0000     -10.292283      -280.0673
  11   2.0000     -10.291469      -280.0451
  12   2.0000     -10.284584      -279.8578
  13   2.0000     -10.280421      -279.7445
  14   2.0000     -10.268242      -279.4131
  15   2.0000     -10.267905      -279.4039
  16   2.0000      -8.083852      -219.9728
  17   2.0000      -8.079485      -219.8540
  18   2.0000      -6.042425      -164.4227
  19   2.0000      -6.038408      -164.3134
  20   2.0000      -6.038113      -164.3054
  21   2.0000      -6.034566      -164.2089
  22   2.0000      -6.034217      -164.1994
  23   2.0000      -6.030082      -164.0869
  24   2.0000      -1.003832       -27.3157
  25   2.0000      -0.982959       -26.7477
  26   2.0000      -0.917228       -24.9590
  27   2.0000      -0.904771       -24.6201
  28   2.0000      -0.869892       -23.6710
  29   2.0000      -0.847813       -23.0702
  30   2.0000      -0.843074       -22.9412
  31   2.0000      -0.811239       -22.0749
  32   2.0000      -0.780505       -21.2386
  33   2.0000      -0.772465       -21.0198
  34   2.0000      -0.704164       -19.1613
  35   2.0000      -0.693477       -18.8705
  36   2.0000      -0.688012       -18.7218
  37   2.0000      -0.660905       -17.9841
  38   2.0000      -0.637193       -17.3389
  39   2.0000      -0.612305       -16.6617
  40   2.0000      -0.599644       -16.3172
  41   2.0000      -0.567211       -15.4346
  42   2.0000      -0.556528       -15.1439
  43   2.0000      -0.546973       -14.8839
  44   2.0000      -0.543298       -14.7839
  45   2.0000      -0.536328       -14.5942
  46   2.0000      -0.513101       -13.9622
  47   2.0000      -0.503858       -13.7107
  48   2.0000      -0.496157       -13.5011
  49   2.0000      -0.493841       -13.4381
  50   2.0000      -0.487478       -13.2650
  51   2.0000      -0.475380       -12.9357
  52   2.0000      -0.473653       -12.8888
  53   2.0000      -0.464506       -12.6398
  54   2.0000      -0.454819       -12.3763
  55   2.0000      -0.447502       -12.1771
  56   2.0000      -0.439563       -11.9611
  57   2.0000      -0.431316       -11.7367
  58   2.0000      -0.430680       -11.7194
  59   2.0000      -0.427289       -11.6271
  60   2.0000      -0.422991       -11.5102
  61   2.0000      -0.409333       -11.1385
  62   2.0000      -0.402303       -10.9472
  63   2.0000      -0.340237        -9.2583
  64   2.0000      -0.336334        -9.1521
  65   2.0000      -0.327674        -8.9165
  66   2.0000      -0.305500        -8.3131
  67   0.0000       0.036468         0.9924
  68   0.0000       0.056847         1.5469
  69   0.0000       0.100551         2.7361
  70   0.0000       0.113639         3.0923
  71   0.0000       0.130104         3.5403

MULLIKEN ATOMIC CHARGES
-----------------------
   0 S :    0.122610
   1 C :   -0.108539
   2 C :   -0.102533
   3 C :    0.009243
   4 C :   -0.162129
   5 H :    0.048209
   6 C :    0.004978
   7 H :    0.037789
   8 H :    0.012989
   9 C :    0.012504
  10 H :    0.008733
  11 H :    0.013572
  12 C :   -0.064719
  13 H :    0.030646
  14 H :    0.053073
  15 H :    0.008287
  16 S :    0.103377
  17 C :   -0.100984
  18 C :   -0.039499
  19 C :   -0.003549
  20 C :   -0.189387
  21 H :    0.023251
  22 C :    0.061676
  23 H :    0.022134
  24 H :    0.016089
  25 C :   -0.050548
  26 H :    0.018251
  27 H :    0.023631
  28 C :   -0.077341
  29 H :    0.046768
  30 H :    0.041542
  31 H :    0.036460
  32 H :    0.069571
  33 H :    0.073845
Sum of atomic charges:    0.0000000

LOEWDIN ATOMIC CHARGES
----------------------
   0 S :    0.408368
   1 C :   -0.214839
   2 C :   -0.059204
   3 C :   -0.068132
   4 C :   -0.186173
   5 H :    0.046838
   6 C :   -0.032392
   7 H :    0.033957
   8 H :    0.022743
   9 C :   -0.040324
  10 H :    0.020060
  11 H :    0.018311
  12 C :   -0.063518
  13 H :    0.030694
  14 H :    0.026948
  15 H :    0.020072
  16 S :    0.377989
  17 C :   -0.181207
  18 C :   -0.076671
  19 C :   -0.058714
  20 C :   -0.188251
  21 H :    0.035812
  22 C :   -0.031028
  23 H :    0.030597
  24 H :    0.026907
  25 C :   -0.038740
  26 H :    0.019963
  27 H :    0.023812
  28 C :   -0.076063
  29 H :    0.031336
  30 H :    0.029944
  31 H :    0.030440
  32 H :    0.037255
  33 H :    0.043207

  Mayer bond orders larger than 0.100000
B(  0-S ,  1-C ) :   1.1404 B(  0-S ,  4-C ) :   1.1403 B(  1-C ,  2-C ) :   1.6283
B(  1-C , 32-H ) :   0.9532 B(  2-C ,  3-C ) :   1.1893 B(  2-C ,  6-C ) :   1.0306
B(  3-C ,  4-C ) :   1.6173 B(  3-C ,  5-H ) :   0.9774 B(  4-C , 20-C ) :   1.0210
B(  6-C ,  7-H ) :   0.9410 B(  6-C ,  8-H ) :   0.9479 B(  6-C ,  9-C ) :   1.0885
B(  9-C , 10-H ) :   0.9434 B(  9-C , 11-H ) :   0.9438 B(  9-C , 12-C ) :   1.0833
B( 12-C , 13-H ) :   0.9718 B( 12-C , 14-H ) :   0.9749 B( 12-C , 15-H ) :   0.9701
B( 16-S , 17-C ) :   1.1390 B( 16-S , 20-C ) :   1.1225 B( 17-C , 18-C ) :   1.6349
B( 17-C , 33-H ) :   0.9575 B( 18-C , 19-C ) :   1.2349 B( 18-C , 21-H ) :   0.9828
B( 19-C , 20-C ) :   1.6287 B( 19-C , 22-C ) :   1.0373 B( 22-C , 23-H ) :   0.9361
B( 22-C , 24-H ) :   0.9354 B( 22-C , 25-C ) :   1.0718 B( 25-C , 26-H ) :   0.9557
B( 25-C , 27-H ) :   0.9541 B( 25-C , 28-C ) :   1.0798 B( 28-C , 29-H ) :   0.9741
B( 28-C , 30-H ) :   0.9739 B( 28-C , 31-H ) :   0.9715

Dispersion correction           -0.015596928
FINAL SINGLE POINT ENERGY     -1339.873778894751

DIPOLE MOMENT
-------------
                                X             Y             Z
Electronic contribution:     -6.96540      14.28959      -7.30050
Nuclear contribution   :      6.83229     -14.56955       7.65222
                        -----------------------------------------
Total Dipole Moment    :     -0.13311      -0.27996       0.35173
                        -----------------------------------------
Magnitude (a.u.)       :      0.46884
Magnitude (Debye)      :      1.19169

Rotational constants in cm-1:     0.020779     0.008700     0.007603
Rotational constants in MHz :   622.935861   260.810348   227.918215

                             ****ORCA TERMINATED NORMALLY****
TOTAL RUN TIME: 0 days 0 hours 0 minutes 34 seconds 878 msec
