                         Program Version 4.2.1 -  RELEASE  -
|  1> ! wB97X-D3 SP def2-SVP
|  2> %pal
|  3> nprocs 16
|  4> end
|  5>
|  6> * xyz 0 1
|  7> S 	 -39.6896 	 25.3933 	 93.5206
|  8> C 	 -41.0774 	 24.3081 	 93.7062
|  9> C 	 -41.513 	 23.8795 	 92.4436
| 10> C 	 -40.8198 	 24.5322 	 91.3871
| 11> C 	 -39.8465 	 25.4545 	 91.7815
| 12> H 	 -41.0675 	 24.3981 	 90.2994
| 13> C 	 -42.7854 	 23.0892 	 92.2275
| 14> H 	 -42.6079 	 21.9564 	 92.3073
| 15> H 	 -43.0696 	 23.273 	 91.1573
| 16> C 	 -44.0189 	 23.4938 	 93.0642
| 17> H 	 -44.859 	 22.9017 	 92.6839
| 18> H 	 -43.7967 	 23.3147 	 94.1817
| 19> C 	 -44.3218 	 25.0191 	 92.876
| 20> H 	 -45.4088 	 25.2528 	 93.1834
| 21> H 	 -43.5511 	 25.5237 	 93.5834
| 22> H 	 -44.072 	 25.394 	 91.9375
| 23> S 	 -38.7233 	 27.9906 	 91.5792
| 24> C 	 -38.1505 	 28.5059 	 90.0801
| 25> C 	 -38.0242 	 27.4764 	 89.1845
| 26> C 	 -38.5378 	 26.1883 	 89.6472
| 27> C 	 -39.0015 	 26.3344 	 90.9765
| 28> H 	 -37.8185 	 27.6663 	 88.1091
| 29> C 	 -38.7354 	 25.0058 	 88.6544
| 30> H 	 -39.4058 	 24.2006 	 89.0323
| 31> H 	 -37.7941 	 24.4794 	 88.6048
| 32> C 	 -39.3046 	 25.4641 	 87.2586
| 33> H 	 -39.1958 	 24.5972 	 86.6164
| 34> H 	 -38.6859 	 26.2628 	 86.8458
| 35> C 	 -40.8196 	 25.9509 	 87.2889
| 36> H 	 -40.9991 	 26.5636 	 86.4346
| 37> H 	 -41.0757 	 26.4805 	 88.2131
| 38> H 	 -41.4944 	 25.0657 	 87.2918
| 39> H 	 -41.4905 	 24.0158 	 94.6647
| 40> H 	 -37.581 	 29.3987 	 89.9406
| 41> *
| 42>
| 43>                          ****END OF INPUT****

CARTESIAN COORDINATES (ANGSTROEM)
---------------------------------
  S    -39.689600   25.393300   93.520600
  C    -41.077400   24.308100   93.706200
  C    -41.513000   23.879500   92.443600
  C    -40.819800   24.532200   91.387100
  C    -39.846500   25.454500   91.781500
  H    -41.067500   24.398100   90.299400
  C    -42.785400   23.089200   92.227500
  H    -42.607900   21.956400   92.307300
  H    -43.069600   23.273000   91.157300
  C    -44.018900   23.493800   93.064200
  H    -44.859000   22.901700   92.683900
  H    -43.796700   23.314700   94.181700
  C    -44.321800   25.019100   92.876000
  H    -45.408800   25.252800   93.183400
  H    -43.551100   25.523700   93.583400
  H    -44.072000   25.394000   91.937500
  S    -38.723300   27.990600   91.579200
  C    -38.150500   28.505900   90.080100
  C    -38.024200   27.476400   89.184500
  C    -38.537800   26.188300   89.647200
  C    -39.001500   26.334400   90.976500
  H    -37.818500   27.666300   88.109100
  C    -38.735400   25.005800   88.654400
  H    -39.405800   24.200600   89.032300
  H    -37.794100   24.479400   88.604800
  C    -39.304600   25.464100   87.258600
  H    -39.195800   24.597200   86.616400
  H    -38.685900   26.262800   86.845800
  C    -40.819600   25.950900   87.288900
  H    -40.999100   26.563600   86.434600
  H    -41.075700   26.480500   88.213100
  H    -41.494400   25.065700   87.291800
  H    -41.490500   24.015800   94.664700
  H    -37.581000   29.398700   89.940600

 Total Charge           Charge          ....    0
 Multiplicity           Mult            ....    1
 Number of Electrons    NEL             ....  134
 Basis Dimension        Dim             ....  322

ORBITAL ENERGIES
----------------

  NO   OCC          E(Eh)            E(eV)
   0   2.0000     -88.966975     -2420.9145
   1   2.0000     -88.966645     -2420.9055
   2   2.0000     -10.334683      -281.2210
   3   2.0000     -10.333323      -281.1840
   4   2.0000     -10.318355      -280.7767
   5   2.0000     -10.314842      -280.6811
   6   2.0000     -10.312705      -280.6230
   7   2.0000     -10.304217      -280.3920
   8   2.0000     -10.303475      -280.3718
   9   2.0000     -10.301167      -280.3090
  10   2.0000     -10.299378      -280.2603
  11   2.0000     -10.297596      -280.2118
  12   2.0000     -10.297570      -280.2111
  13   2.0000     -10.297543      -280.2104
  14   2.0000     -10.284425      -279.8534
  15   2.0000     -10.282675      -279.8058
  16   2.0000      -8.082532      -219.9369
  17   2.0000      -8.080972      -219.8944
  18   2.0000      -6.040989      -164.3837
  19   2.0000      -6.039475      -164.3425
  20   2.0000      -6.036873      -164.2717
  21   2.0000      -6.035429      -164.2324
  22   2.0000      -6.033334      -164.1754
  23   2.0000      -6.031876      -164.1357
  24   2.0000      -1.005324       -27.3563
  25   2.0000      -0.983872       -26.7725
  26   2.0000      -0.908631       -24.7251
  27   2.0000      -0.903088       -24.5743
  28   2.0000      -0.864646       -23.5282
  29   2.0000      -0.846478       -23.0338
  30   2.0000      -0.838816       -22.8254
  31   2.0000      -0.807970       -21.9860
  32   2.0000      -0.784843       -21.3567
  33   2.0000      -0.770767       -20.9736
  34   2.0000      -0.708867       -19.2893
  35   2.0000      -0.700926       -19.0732
  36   2.0000      -0.692401       -18.8412
  37   2.0000      -0.652874       -17.7656
  38   2.0000      -0.633767       -17.2457
  39   2.0000      -0.615411       -16.7462
  40   2.0000      -0.597795       -16.2668
  41   2.0000      -0.572882       -15.5889
  42   2.0000      -0.551298       -15.0016
  43   2.0000      -0.543913       -14.8006
  44   2.0000      -0.537589       -14.6286
  45   2.0000      -0.533925       -14.5288
  46   2.0000      -0.517272       -14.0757
  47   2.0000      -0.505916       -13.7667
  48   2.0000      -0.503220       -13.6933
  49   2.0000      -0.493685       -13.4338
  50   2.0000      -0.488626       -13.2962
  51   2.0000      -0.480290       -13.0694
  52   2.0000      -0.472943       -12.8694
  53   2.0000      -0.463911       -12.6237
  54   2.0000      -0.459212       -12.4958
  55   2.0000      -0.449478       -12.2309
  56   2.0000      -0.441093       -12.0028
  57   2.0000      -0.434516       -11.8238
  58   2.0000      -0.432762       -11.7760
  59   2.0000      -0.423158       -11.5147
  60   2.0000      -0.422113       -11.4863
  61   2.0000      -0.415085       -11.2950
  62   2.0000      -0.410226       -11.1628
  63   2.0000      -0.352177        -9.5832
  64   2.0000      -0.332444        -9.0463
  65   2.0000      -0.330500        -8.9934
  66   2.0000      -0.287152        -7.8138
  67   0.0000       0.019412         0.5282
  68   0.0000       0.074694         2.0325
  69   0.0000       0.106320         2.8931
  70   0.0000       0.111965         3.0467
  71   0.0000       0.126620         3.4455

MULLIKEN ATOMIC CHARGES
-----------------------
   0 S :    0.101850
   1 C :   -0.133354
   2 C :   -0.072023
   3 C :   -0.008799
   4 C :   -0.131942
   5 H :    0.025301
   6 C :    0.006780
   7 H :    0.057191
   8 H :    0.026990
   9 C :   -0.103085
  10 H :    0.041839
  11 H :    0.046299
  12 C :   -0.065458
  13 H :    0.054702
  14 H :    0.046195
  15 H :    0.020074
  16 S :    0.111607
  17 C :   -0.068976
  18 C :   -0.073514
  19 C :   -0.049104
  20 C :   -0.147288
  21 H :    0.036070
  22 C :    0.055614
  23 H :    0.024804
  24 H :    0.040234
  25 C :   -0.092075
  26 H :    0.034465
  27 H :    0.034164
  28 C :   -0.059391
  29 H :    0.039891
  30 H :    0.050999
  31 H :    0.034052
  32 H :    0.053944
  33 H :    0.061943
Sum of atomic charges:    0.0000000

LOEWDIN ATOMIC CHARGES
----------------------
   0 S :    0.401083
   1 C :   -0.193224
   2 C :   -0.067948
   3 C :   -0.076426
   4 C :   -0.191706
   5 H :    0.034803
   6 C :   -0.044375
   7 H :    0.040266
   8 H :    0.030359
   9 C :   -0.046359
  10 H :    0.025841
  11 H :    0.029285
  12 C :   -0.073472
  13 H :    0.035469
  14 H :    0.039135
  15 H :    0.011314
  16 S :    0.420671
  17 C :   -0.205633
  18 C :   -0.079356
  19 C :   -0.047678
  20 C :   -0.195289
  21 H :    0.034336
  22 C :   -0.033144
  23 H :    0.032286
  24 H :    0.035228
  25 C :   -0.034366
  26 H :    0.025083
  27 H :    0.019027
  28 C :   -0.065286
  29 H :    0.024736
  30 H :    0.030036
  31 H :    0.027502
  32 H :    0.027301
  33 H :    0.030502

  Mayer bond orders larger than 0.100000
B(  0-S ,  1-C ) :   1.1422 B(  0-S ,  4-C ) :   1.1608 B(  1-C ,  2-C ) :   1.5718
B(  1-C ,  4-C ) :   0.1061 B(  1-C , 32-H ) :   0.9719 B(  2-C ,  3-C ) :   1.2823
B(  2-C ,  6-C ) :   1.0113 B(  3-C ,  4-C ) :   1.5554 B(  3-C ,  5-H ) :   0.9731
B(  4-C , 20-C ) :   1.0507 B(  6-C ,  7-H ) :   0.9330 B(  6-C ,  8-H ) :   0.9525
B(  6-C ,  9-C ) :   1.0749 B(  9-C , 10-H ) :   0.9571 B(  9-C , 11-H ) :   0.9554
B(  9-C , 12-C ) :   1.0606 B( 12-C , 13-H ) :   0.9752 B( 12-C , 14-H ) :   0.9693
B( 12-C , 15-H ) :   0.9793 B( 16-S , 17-C ) :   1.1687 B( 16-S , 20-C ) :   1.1443
B( 17-C , 18-C ) :   1.6230 B( 17-C , 33-H ) :   0.9589 B( 18-C , 19-C ) :   1.2509
B( 18-C , 21-H ) :   0.9751 B( 19-C , 20-C ) :   1.5785 B( 19-C , 22-C ) :   1.0226
B( 22-C , 23-H ) :   0.9451 B( 22-C , 24-H ) :   0.9300 B( 22-C , 25-C ) :   1.0654
B( 25-C , 26-H ) :   0.9565 B( 25-C , 27-H ) :   0.9621 B( 25-C , 28-C ) :   1.0573
B( 28-C , 29-H ) :   0.9773 B( 28-C , 30-H ) :   0.9796 B( 28-C , 31-H ) :   0.9761

Dispersion correction           -0.015128550
FINAL SINGLE POINT ENERGY     -1339.873794081194

DIPOLE MOMENT
-------------
                                X             Y             Z
Electronic contribution:     18.43759      10.29700      14.61623
Nuclear contribution   :    -18.71757     -10.53598     -15.24475
                        -----------------------------------------
Total Dipole Moment    :     -0.27998      -0.23898      -0.62852
                        -----------------------------------------
Magnitude (a.u.)       :      0.72838
Magnitude (Debye)      :      1.85139

Rotational constants in cm-1:     0.019577     0.008926     0.007105
Rotational constants in MHz :   586.907471   267.583871   213.003528

                             ****ORCA TERMINATED NORMALLY****
TOTAL RUN TIME: 0 days 0 hours 0 minutes 30 seconds 824 msec
