                         Program Version 4.2.1 -  RELEASE  -
|  1> ! wB97X-D3 SP def2-SVP
|  2> %pal
|  3> nprocs 16
|  4> end
|  5>
|  6> * xyz 0 1
|  7> S 	 -65.9749 	 40.6475 	 132.457
|  8> C 	 -65.6381 	 41.4038 	 134.039
|  9> C 	 -64.9989 	 40.5104 	 134.826
| 10> C 	 -64.4773 	 39.4434 	 134.102
| 11> C 	 -64.7333 	 39.4303 	 132.745
| 12> H 	 -63.8934 	 38.7043 	 134.484
| 13> C 	 -64.6208 	 40.5916 	 136.311
| 14> H 	 -64.4373 	 41.659 	 136.531
| 15> H 	 -63.6617 	 40.1208 	 136.426
| 16> C 	 -65.706 	 40.0491 	 137.213
| 17> H 	 -65.5955 	 40.2085 	 138.344
| 18> H 	 -66.6764 	 40.4017 	 136.94
| 19> C 	 -65.7285 	 38.5101 	 137.082
| 20> H 	 -65.9524 	 38.1097 	 136.112
| 21> H 	 -64.788 	 38.0512 	 137.373
| 22> H 	 -66.51 	 38.0451 	 137.707
| 23> S 	 -65.625 	 37.9718 	 130.565
| 24> C 	 -64.6262 	 36.7119 	 129.933
| 25> C 	 -63.3345 	 36.7843 	 130.503
| 26> C 	 -63.1919 	 37.8137 	 131.487
| 27> C 	 -64.3838 	 38.4759 	 131.74
| 28> H 	 -62.5648 	 36.1184 	 130.212
| 29> C 	 -61.8436 	 38.1197 	 132.147
| 30> H 	 -61.6923 	 37.4143 	 132.993
| 31> H 	 -61.7998 	 39.1189 	 132.672
| 32> C 	 -60.548 	 37.9579 	 131.267
| 33> H 	 -60.5218 	 37.0019 	 130.744
| 34> H 	 -59.691 	 37.9321 	 131.993
| 35> C 	 -60.3102 	 39.2194 	 130.249
| 36> H 	 -60.9506 	 39.1047 	 129.373
| 37> H 	 -59.2765 	 39.3267 	 129.995
| 38> H 	 -60.5674 	 40.1217 	 130.817
| 39> H 	 -66.1213 	 42.3286 	 134.323
| 40> H 	 -64.9064 	 35.8855 	 129.153
| 41> *
| 42>
| 43>                          ****END OF INPUT****

CARTESIAN COORDINATES (ANGSTROEM)
---------------------------------
  S    -65.974900   40.647500  132.457000
  C    -65.638100   41.403800  134.039000
  C    -64.998900   40.510400  134.826000
  C    -64.477300   39.443400  134.102000
  C    -64.733300   39.430300  132.745000
  H    -63.893400   38.704300  134.484000
  C    -64.620800   40.591600  136.311000
  H    -64.437300   41.659000  136.531000
  H    -63.661700   40.120800  136.426000
  C    -65.706000   40.049100  137.213000
  H    -65.595500   40.208500  138.344000
  H    -66.676400   40.401700  136.940000
  C    -65.728500   38.510100  137.082000
  H    -65.952400   38.109700  136.112000
  H    -64.788000   38.051200  137.373000
  H    -66.510000   38.045100  137.707000
  S    -65.625000   37.971800  130.565000
  C    -64.626200   36.711900  129.933000
  C    -63.334500   36.784300  130.503000
  C    -63.191900   37.813700  131.487000
  C    -64.383800   38.475900  131.740000
  H    -62.564800   36.118400  130.212000
  C    -61.843600   38.119700  132.147000
  H    -61.692300   37.414300  132.993000
  H    -61.799800   39.118900  132.672000
  C    -60.548000   37.957900  131.267000
  H    -60.521800   37.001900  130.744000
  H    -59.691000   37.932100  131.993000
  C    -60.310200   39.219400  130.249000
  H    -60.950600   39.104700  129.373000
  H    -59.276500   39.326700  129.995000
  H    -60.567400   40.121700  130.817000
  H    -66.121300   42.328600  134.323000
  H    -64.906400   35.885500  129.153000

 Total Charge           Charge          ....    0
 Multiplicity           Mult            ....    1
 Number of Electrons    NEL             ....  134
 Basis Dimension        Dim             ....  322

ORBITAL ENERGIES
----------------

  NO   OCC          E(Eh)            E(eV)
   0   2.0000     -88.968456     -2420.9548
   1   2.0000     -88.960425     -2420.7362
   2   2.0000     -10.329658      -281.0843
   3   2.0000     -10.328920      -281.0642
   4   2.0000     -10.328428      -281.0508
   5   2.0000     -10.315399      -280.6963
   6   2.0000     -10.307688      -280.4864
   7   2.0000     -10.302905      -280.3563
   8   2.0000     -10.300095      -280.2798
   9   2.0000     -10.297226      -280.2018
  10   2.0000     -10.295627      -280.1583
  11   2.0000     -10.293778      -280.1079
  12   2.0000     -10.291755      -280.0529
  13   2.0000     -10.282574      -279.8031
  14   2.0000     -10.280062      -279.7347
  15   2.0000     -10.272257      -279.5223
  16   2.0000      -8.083010      -219.9499
  17   2.0000      -8.075102      -219.7347
  18   2.0000      -6.041598      -164.4003
  19   2.0000      -6.037534      -164.2896
  20   2.0000      -6.033709      -164.1856
  21   2.0000      -6.033686      -164.1849
  22   2.0000      -6.029874      -164.0812
  23   2.0000      -6.025509      -163.9624
  24   2.0000      -1.009184       -27.4613
  25   2.0000      -0.985520       -26.8173
  26   2.0000      -0.914653       -24.8890
  27   2.0000      -0.896493       -24.3948
  28   2.0000      -0.871166       -23.7056
  29   2.0000      -0.846810       -23.0429
  30   2.0000      -0.837941       -22.8015
  31   2.0000      -0.811568       -22.0839
  32   2.0000      -0.782871       -21.3030
  33   2.0000      -0.773699       -21.0534
  34   2.0000      -0.708406       -19.2767
  35   2.0000      -0.704479       -19.1698
  36   2.0000      -0.693105       -18.8603
  37   2.0000      -0.659136       -17.9360
  38   2.0000      -0.644775       -17.5452
  39   2.0000      -0.621614       -16.9150
  40   2.0000      -0.595225       -16.1969
  41   2.0000      -0.573819       -15.6144
  42   2.0000      -0.548532       -14.9263
  43   2.0000      -0.545096       -14.8328
  44   2.0000      -0.540639       -14.7115
  45   2.0000      -0.530456       -14.4344
  46   2.0000      -0.518638       -14.1129
  47   2.0000      -0.512438       -13.9442
  48   2.0000      -0.504079       -13.7167
  49   2.0000      -0.493784       -13.4365
  50   2.0000      -0.485310       -13.2060
  51   2.0000      -0.482952       -13.1418
  52   2.0000      -0.468048       -12.7362
  53   2.0000      -0.464513       -12.6400
  54   2.0000      -0.460466       -12.5299
  55   2.0000      -0.450082       -12.2474
  56   2.0000      -0.442322       -12.0362
  57   2.0000      -0.437583       -11.9072
  58   2.0000      -0.430981       -11.7276
  59   2.0000      -0.425187       -11.5699
  60   2.0000      -0.419065       -11.4033
  61   2.0000      -0.414147       -11.2695
  62   2.0000      -0.412125       -11.2145
  63   2.0000      -0.356832        -9.7099
  64   2.0000      -0.333036        -9.0624
  65   2.0000      -0.328077        -8.9274
  66   2.0000      -0.282542        -7.6884
  67   0.0000       0.018819         0.5121
  68   0.0000       0.066327         1.8049
  69   0.0000       0.097883         2.6635
  70   0.0000       0.120211         3.2711
  71   0.0000       0.139646         3.8000

MULLIKEN ATOMIC CHARGES
-----------------------
   0 S :    0.071788
   1 C :   -0.127783
   2 C :   -0.059938
   3 C :    0.044189
   4 C :   -0.128269
   5 H :   -0.036402
   6 C :    0.079952
   7 H :    0.026976
   8 H :    0.021297
   9 C :   -0.038353
  10 H :    0.046008
  11 H :    0.025723
  12 C :   -0.082778
  13 H :    0.035631
  14 H :    0.020054
  15 H :    0.028691
  16 S :    0.110232
  17 C :   -0.121127
  18 C :   -0.041353
  19 C :   -0.002547
  20 C :   -0.146982
  21 H :    0.005041
  22 C :    0.010011
  23 H :    0.043110
  24 H :    0.043248
  25 C :   -0.107887
  26 H :    0.033947
  27 H :    0.033916
  28 C :   -0.047077
  29 H :    0.051270
  30 H :    0.034299
  31 H :    0.031053
  32 H :    0.046839
  33 H :    0.097222
Sum of atomic charges:   -0.0000000

LOEWDIN ATOMIC CHARGES
----------------------
   0 S :    0.370940
   1 C :   -0.171938
   2 C :   -0.063064
   3 C :   -0.055968
   4 C :   -0.174581
   5 H :    0.011950
   6 C :   -0.024577
   7 H :    0.032535
   8 H :    0.026798
   9 C :   -0.038257
  10 H :    0.034933
  11 H :    0.021820
  12 C :   -0.071082
  13 H :    0.021098
  14 H :    0.019756
  15 H :    0.026542
  16 S :    0.403685
  17 C :   -0.209198
  18 C :   -0.072777
  19 C :   -0.057116
  20 C :   -0.190392
  21 H :    0.022787
  22 C :   -0.041644
  23 H :    0.035293
  24 H :    0.036648
  25 C :   -0.039324
  26 H :    0.018153
  27 H :    0.028238
  28 C :   -0.062894
  29 H :    0.028661
  30 H :    0.021374
  31 H :    0.026997
  32 H :    0.026967
  33 H :    0.057639

  Mayer bond orders larger than 0.100000
B(  0-S ,  1-C ) :   1.1255 B(  0-S ,  4-C ) :   1.1313 B(  1-C ,  2-C ) :   1.6136
B(  1-C ,  4-C ) :   0.1055 B(  1-C , 32-H ) :   0.9763 B(  2-C ,  3-C ) :   1.2376
B(  2-C ,  6-C ) :   0.9996 B(  3-C ,  4-C ) :   1.5468 B(  3-C ,  5-H ) :   1.0165
B(  4-C , 20-C ) :   1.1036 B(  6-C ,  7-H ) :   0.9410 B(  6-C ,  8-H ) :   0.9525
B(  6-C ,  9-C ) :   1.0624 B(  9-C , 10-H ) :   0.9588 B(  9-C , 11-H ) :   0.9553
B(  9-C , 12-C ) :   1.0735 B( 12-C , 13-H ) :   0.9739 B( 12-C , 14-H ) :   0.9759
B( 12-C , 15-H ) :   0.9728 B( 16-S , 17-C ) :   1.1628 B( 16-S , 20-C ) :   1.1213
B( 17-C , 18-C ) :   1.5916 B( 17-C , 20-C ) :   0.1010 B( 17-C , 33-H ) :   0.9535
B( 18-C , 19-C ) :   1.2472 B( 18-C , 21-H ) :   0.9936 B( 19-C , 20-C ) :   1.5824
B( 19-C , 22-C ) :   1.0344 B( 22-C , 23-H ) :   0.9321 B( 22-C , 24-H ) :   0.9401
B( 22-C , 25-C ) :   1.0741 B( 25-C , 26-H ) :   0.9570 B( 25-C , 27-H ) :   0.9580
B( 25-C , 28-C ) :   1.0541 B( 28-C , 29-H ) :   0.9804 B( 28-C , 30-H ) :   0.9804
B( 28-C , 31-H ) :   0.9778

Dispersion correction           -0.014306051
FINAL SINGLE POINT ENERGY     -1339.865186602083

DIPOLE MOMENT
-------------
                                X             Y             Z
Electronic contribution:    -16.65740       2.36870     -15.34724
Nuclear contribution   :     17.14764      -2.60524      15.78786
                        -----------------------------------------
Total Dipole Moment    :      0.49024      -0.23654       0.44062
                        -----------------------------------------
Magnitude (a.u.)       :      0.70031
Magnitude (Debye)      :      1.78005

Rotational constants in cm-1:     0.019415     0.008194     0.007147
Rotational constants in MHz :   582.060713   245.664911   214.260644

                             ****ORCA TERMINATED NORMALLY****
TOTAL RUN TIME: 0 days 0 hours 0 minutes 35 seconds 48 msec
