                         Program Version 4.2.1 -  RELEASE  -
|  1> ! wB97X-D3 SP def2-SVP
|  2> %pal
|  3> nprocs 16
|  4> end
|  5>
|  6> * xyz 0 1
|  7> S 	 36.302 	 17.8335 	 49.2874
|  8> C 	 36.6478 	 19.1436 	 50.4053
|  9> C 	 37.0762 	 18.6449 	 51.6368
| 10> C 	 37.2415 	 17.2581 	 51.6398
| 11> C 	 36.8459 	 16.6338 	 50.4523
| 12> H 	 37.4569 	 16.5469 	 52.4373
| 13> C 	 37.3973 	 19.4416 	 52.8622
| 14> H 	 38.4674 	 19.1669 	 52.9273
| 15> H 	 36.7534 	 19.1236 	 53.7338
| 16> C 	 37.3286 	 20.9539 	 52.6697
| 17> H 	 37.7697 	 21.2285 	 51.7121
| 18> H 	 36.3301 	 21.3098 	 52.5779
| 19> C 	 37.982 	 21.8062 	 53.7773
| 20> H 	 38.9484 	 21.4606 	 54.0296
| 21> H 	 37.9046 	 22.8536 	 53.5878
| 22> H 	 37.4774 	 21.7921 	 54.748
| 23> S 	 35.1044 	 14.5427 	 49.7681
| 24> C 	 35.8208 	 12.9099 	 49.6978
| 25> C 	 37.219 	 12.9382 	 49.9164
| 26> C 	 37.6934 	 14.2753 	 50.1372
| 27> C 	 36.7003 	 15.2058 	 50.1805
| 28> H 	 37.7601 	 12.0086 	 49.8253
| 29> C 	 39.1871 	 14.4721 	 50.2101
| 30> H 	 39.5266 	 13.532 	 50.6493
| 31> H 	 39.4289 	 15.3244 	 50.7815
| 32> C 	 39.7863 	 14.5949 	 48.771
| 33> H 	 39.5354 	 13.6324 	 48.2965
| 34> H 	 40.8997 	 14.6761 	 48.7367
| 35> C 	 39.3214 	 15.7354 	 47.8633
| 36> H 	 38.2585 	 15.6706 	 47.6151
| 37> H 	 39.8096 	 15.764 	 46.9285
| 38> H 	 39.4398 	 16.7071 	 48.2905
| 39> H 	 36.5358 	 20.1611 	 50.0927
| 40> H 	 35.36 	 12.0138 	 49.4455
| 41> *
| 42>
| 43>                          ****END OF INPUT****

CARTESIAN COORDINATES (ANGSTROEM)
---------------------------------
  S     36.302000   17.833500   49.287400
  C     36.647800   19.143600   50.405300
  C     37.076200   18.644900   51.636800
  C     37.241500   17.258100   51.639800
  C     36.845900   16.633800   50.452300
  H     37.456900   16.546900   52.437300
  C     37.397300   19.441600   52.862200
  H     38.467400   19.166900   52.927300
  H     36.753400   19.123600   53.733800
  C     37.328600   20.953900   52.669700
  H     37.769700   21.228500   51.712100
  H     36.330100   21.309800   52.577900
  C     37.982000   21.806200   53.777300
  H     38.948400   21.460600   54.029600
  H     37.904600   22.853600   53.587800
  H     37.477400   21.792100   54.748000
  S     35.104400   14.542700   49.768100
  C     35.820800   12.909900   49.697800
  C     37.219000   12.938200   49.916400
  C     37.693400   14.275300   50.137200
  C     36.700300   15.205800   50.180500
  H     37.760100   12.008600   49.825300
  C     39.187100   14.472100   50.210100
  H     39.526600   13.532000   50.649300
  H     39.428900   15.324400   50.781500
  C     39.786300   14.594900   48.771000
  H     39.535400   13.632400   48.296500
  H     40.899700   14.676100   48.736700
  C     39.321400   15.735400   47.863300
  H     38.258500   15.670600   47.615100
  H     39.809600   15.764000   46.928500
  H     39.439800   16.707100   48.290500
  H     36.535800   20.161100   50.092700
  H     35.360000   12.013800   49.445500

 Total Charge           Charge          ....    0
 Multiplicity           Mult            ....    1
 Number of Electrons    NEL             ....  134
 Basis Dimension        Dim             ....  322

ORBITAL ENERGIES
----------------

  NO   OCC          E(Eh)            E(eV)
   0   2.0000     -88.969612     -2420.9862
   1   2.0000     -88.964863     -2420.8570
   2   2.0000     -10.329194      -281.0717
   3   2.0000     -10.325142      -280.9614
   4   2.0000     -10.319193      -280.7995
   5   2.0000     -10.313729      -280.6508
   6   2.0000     -10.301825      -280.3269
   7   2.0000     -10.300582      -280.2931
   8   2.0000     -10.297444      -280.2077
   9   2.0000     -10.297104      -280.1985
  10   2.0000     -10.292630      -280.0767
  11   2.0000     -10.289255      -279.9849
  12   2.0000     -10.288395      -279.9615
  13   2.0000     -10.284446      -279.8540
  14   2.0000     -10.273151      -279.5467
  15   2.0000     -10.262717      -279.2627
  16   2.0000      -8.083070      -219.9515
  17   2.0000      -8.079250      -219.8476
  18   2.0000      -6.041774      -164.4050
  19   2.0000      -6.037829      -164.2977
  20   2.0000      -6.037695      -164.2940
  21   2.0000      -6.033696      -164.1852
  22   2.0000      -6.033633      -164.1835
  23   2.0000      -6.030214      -164.0905
  24   2.0000      -1.003581       -27.3088
  25   2.0000      -0.980891       -26.6914
  26   2.0000      -0.913654       -24.8618
  27   2.0000      -0.904357       -24.6088
  28   2.0000      -0.865449       -23.5501
  29   2.0000      -0.853488       -23.2246
  30   2.0000      -0.845055       -22.9951
  31   2.0000      -0.812998       -22.1228
  32   2.0000      -0.785846       -21.3839
  33   2.0000      -0.771843       -21.0029
  34   2.0000      -0.716877       -19.5072
  35   2.0000      -0.699243       -19.0274
  36   2.0000      -0.691213       -18.8089
  37   2.0000      -0.663244       -18.0478
  38   2.0000      -0.645896       -17.5757
  39   2.0000      -0.608685       -16.5632
  40   2.0000      -0.591445       -16.0940
  41   2.0000      -0.576496       -15.6872
  42   2.0000      -0.566249       -15.4084
  43   2.0000      -0.549748       -14.9594
  44   2.0000      -0.543432       -14.7875
  45   2.0000      -0.526240       -14.3197
  46   2.0000      -0.517743       -14.0885
  47   2.0000      -0.507294       -13.8042
  48   2.0000      -0.503346       -13.6967
  49   2.0000      -0.500459       -13.6182
  50   2.0000      -0.492917       -13.4130
  51   2.0000      -0.481781       -13.1099
  52   2.0000      -0.469155       -12.7664
  53   2.0000      -0.457806       -12.4575
  54   2.0000      -0.454810       -12.3760
  55   2.0000      -0.448076       -12.1928
  56   2.0000      -0.441594       -12.0164
  57   2.0000      -0.439924       -11.9709
  58   2.0000      -0.437462       -11.9040
  59   2.0000      -0.421297       -11.4641
  60   2.0000      -0.420469       -11.4415
  61   2.0000      -0.417817       -11.3694
  62   2.0000      -0.410744       -11.1769
  63   2.0000      -0.340848        -9.2749
  64   2.0000      -0.332357        -9.0439
  65   2.0000      -0.328861        -8.9488
  66   2.0000      -0.293131        -7.9765
  67   0.0000       0.032380         0.8811
  68   0.0000       0.061342         1.6692
  69   0.0000       0.110699         3.0123
  70   0.0000       0.124927         3.3994
  71   0.0000       0.127741         3.4760

MULLIKEN ATOMIC CHARGES
-----------------------
   0 S :    0.106214
   1 C :   -0.134199
   2 C :   -0.085777
   3 C :    0.040466
   4 C :   -0.191179
   5 H :    0.020034
   6 C :    0.063703
   7 H :    0.042748
   8 H :    0.061033
   9 C :   -0.087513
  10 H :    0.024661
  11 H :    0.020919
  12 C :   -0.010574
  13 H :    0.019042
  14 H :    0.025824
  15 H :    0.015016
  16 S :    0.114813
  17 C :   -0.070857
  18 C :   -0.051322
  19 C :   -0.053117
  20 C :   -0.165340
  21 H :    0.025220
  22 C :    0.149943
  23 H :    0.024694
  24 H :    0.011571
  25 C :   -0.097330
  26 H :    0.020073
  27 H :    0.037531
  28 C :   -0.027272
  29 H :    0.028743
  30 H :    0.021493
  31 H :    0.024383
  32 H :    0.045167
  33 H :    0.031193
Sum of atomic charges:   -0.0000000

LOEWDIN ATOMIC CHARGES
----------------------
   0 S :    0.403520
   1 C :   -0.200673
   2 C :   -0.065965
   3 C :   -0.065966
   4 C :   -0.185578
   5 H :    0.037729
   6 C :   -0.034350
   7 H :    0.043569
   8 H :    0.044548
   9 C :   -0.043202
  10 H :    0.023496
  11 H :    0.020257
  12 C :   -0.062928
  13 H :    0.017613
  14 H :    0.026029
  15 H :    0.026128
  16 S :    0.384119
  17 C :   -0.163621
  18 C :   -0.066303
  19 C :   -0.054141
  20 C :   -0.201028
  21 H :    0.032078
  22 C :   -0.019279
  23 H :    0.034594
  24 H :    0.020468
  25 C :   -0.039256
  26 H :    0.022221
  27 H :    0.027398
  28 C :   -0.066364
  29 H :    0.023843
  30 H :    0.022412
  31 H :    0.020916
  32 H :    0.022097
  33 H :    0.015621

  Mayer bond orders larger than 0.100000
B(  0-S ,  1-C ) :   1.1347 B(  0-S ,  4-C ) :   1.1636 B(  1-C ,  2-C ) :   1.5807
B(  1-C ,  4-C ) :   0.1051 B(  1-C , 32-H ) :   0.9724 B(  2-C ,  3-C ) :   1.2555
B(  2-C ,  6-C ) :   0.9979 B(  3-C ,  4-C ) :   1.5748 B(  3-C ,  5-H ) :   0.9916
B(  4-C , 20-C ) :   1.0329 B(  6-C ,  7-H ) :   0.9365 B(  6-C ,  8-H ) :   0.9377
B(  6-C ,  9-C ) :   1.0952 B(  9-C , 10-H ) :   0.9479 B(  9-C , 11-H ) :   0.9487
B(  9-C , 12-C ) :   1.0892 B( 12-C , 13-H ) :   0.9765 B( 12-C , 14-H ) :   0.9711
B( 12-C , 15-H ) :   0.9700 B( 16-S , 17-C ) :   1.1419 B( 16-S , 20-C ) :   1.1160
B( 17-C , 18-C ) :   1.6363 B( 17-C , 33-H ) :   0.9723 B( 18-C , 19-C ) :   1.2135
B( 18-C , 21-H ) :   0.9860 B( 19-C , 20-C ) :   1.6277 B( 19-C , 22-C ) :   1.0399
B( 22-C , 23-H ) :   0.9315 B( 22-C , 24-H ) :   0.9276 B( 22-C , 25-C ) :   1.0671
B( 25-C , 26-H ) :   0.9544 B( 25-C , 27-H ) :   0.9596 B( 25-C , 28-C ) :   1.0828
B( 28-C , 29-H ) :   0.9711 B( 28-C , 30-H ) :   0.9705 B( 28-C , 31-H ) :   0.9731

Dispersion correction           -0.015086214
FINAL SINGLE POINT ENERGY     -1339.878561263755

DIPOLE MOMENT
-------------
                                X             Y             Z
Electronic contribution:    -17.46415     -12.79442      -7.82539
Nuclear contribution   :     17.86138      12.83210       8.10157
                        -----------------------------------------
Total Dipole Moment    :      0.39724       0.03768       0.27618
                        -----------------------------------------
Magnitude (a.u.)       :      0.48528
Magnitude (Debye)      :      1.23347

Rotational constants in cm-1:     0.024236     0.007326     0.006743
Rotational constants in MHz :   726.569692   219.628280   202.135560

                             ****ORCA TERMINATED NORMALLY****
TOTAL RUN TIME: 0 days 0 hours 0 minutes 33 seconds 295 msec
