                         Program Version 4.2.1 -  RELEASE  -
|  1> ! wB97X-D3 SP def2-SVP
|  2> %pal
|  3> nprocs 16
|  4> end
|  5>
|  6> * xyz 0 1
|  7> S 	 -5.41593 	 22.7451 	 52.1539
|  8> C 	 -5.10775 	 21.2367 	 51.3308
|  9> C 	 -4.09314 	 21.3359 	 50.4134
| 10> C 	 -3.52529 	 22.653 	 50.3185
| 11> C 	 -4.06406 	 23.5337 	 51.2657
| 12> H 	 -2.68962 	 22.8301 	 49.6243
| 13> C 	 -3.51343 	 20.215 	 49.6242
| 14> H 	 -3.90152 	 20.3595 	 48.6639
| 15> H 	 -3.97448 	 19.3155 	 50.0778
| 16> C 	 -2.04604 	 19.9457 	 49.4245
| 17> H 	 -1.55177 	 20.7808 	 48.9839
| 18> H 	 -1.50417 	 19.8832 	 50.3678
| 19> C 	 -1.7682 	 18.5699 	 48.6883
| 20> H 	 -0.737896 	 18.6244 	 48.4447
| 21> H 	 -1.96227 	 17.6846 	 49.2889
| 22> H 	 -2.351 	 18.4195 	 47.7862
| 23> S 	 -4.88339 	 26.1566 	 51.7695
| 24> C 	 -3.52934 	 27.329 	 52.068
| 25> C 	 -2.28638 	 26.8048 	 51.9543
| 26> C 	 -2.34584 	 25.4147 	 51.6999
| 27> C 	 -3.63359 	 24.8756 	 51.6226
| 28> H 	 -1.40977 	 27.4634 	 52.0448
| 29> C 	 -1.01549 	 24.6351 	 51.5674
| 30> H 	 -0.575823 	 24.8698 	 50.6112
| 31> H 	 -1.33264 	 23.5726 	 51.4712
| 32> C 	 0.0615426 	 24.8239 	 52.626
| 33> H 	 0.340563 	 25.9285 	 52.6917
| 34> H 	 1.06293 	 24.433 	 52.2213
| 35> C 	 -0.257053 	 24.2356 	 53.9651
| 36> H 	 -0.296286 	 23.1465 	 53.9081
| 37> H 	 -1.23243 	 24.4971 	 54.41
| 38> H 	 0.549287 	 24.4933 	 54.6794
| 39> H 	 -5.62702 	 20.3436 	 51.6933
| 40> H 	 -3.75682 	 28.3082 	 52.4439
| 41> *
| 42>
| 43>                          ****END OF INPUT****

CARTESIAN COORDINATES (ANGSTROEM)
---------------------------------
  S     -5.415930   22.745100   52.153900
  C     -5.107750   21.236700   51.330800
  C     -4.093140   21.335900   50.413400
  C     -3.525290   22.653000   50.318500
  C     -4.064060   23.533700   51.265700
  H     -2.689620   22.830100   49.624300
  C     -3.513430   20.215000   49.624200
  H     -3.901520   20.359500   48.663900
  H     -3.974480   19.315500   50.077800
  C     -2.046040   19.945700   49.424500
  H     -1.551770   20.780800   48.983900
  H     -1.504170   19.883200   50.367800
  C     -1.768200   18.569900   48.688300
  H     -0.737896   18.624400   48.444700
  H     -1.962270   17.684600   49.288900
  H     -2.351000   18.419500   47.786200
  S     -4.883390   26.156600   51.769500
  C     -3.529340   27.329000   52.068000
  C     -2.286380   26.804800   51.954300
  C     -2.345840   25.414700   51.699900
  C     -3.633590   24.875600   51.622600
  H     -1.409770   27.463400   52.044800
  C     -1.015490   24.635100   51.567400
  H     -0.575823   24.869800   50.611200
  H     -1.332640   23.572600   51.471200
  C      0.061543   24.823900   52.626000
  H      0.340563   25.928500   52.691700
  H      1.062930   24.433000   52.221300
  C     -0.257053   24.235600   53.965100
  H     -0.296286   23.146500   53.908100
  H     -1.232430   24.497100   54.410000
  H      0.549287   24.493300   54.679400
  H     -5.627020   20.343600   51.693300
  H     -3.756820   28.308200   52.443900

 Total Charge           Charge          ....    0
 Multiplicity           Mult            ....    1
 Number of Electrons    NEL             ....  134
 Basis Dimension        Dim             ....  322

ORBITAL ENERGIES
----------------

  NO   OCC          E(Eh)            E(eV)
   0   2.0000     -88.964563     -2420.8488
   1   2.0000     -88.964519     -2420.8476
   2   2.0000     -10.336301      -281.2650
   3   2.0000     -10.330644      -281.1111
   4   2.0000     -10.318844      -280.7900
   5   2.0000     -10.314089      -280.6606
   6   2.0000     -10.306162      -280.4449
   7   2.0000     -10.299988      -280.2769
   8   2.0000     -10.299122      -280.2534
   9   2.0000     -10.296058      -280.1700
  10   2.0000     -10.294510      -280.1279
  11   2.0000     -10.291118      -280.0355
  12   2.0000     -10.289443      -279.9900
  13   2.0000     -10.284398      -279.8527
  14   2.0000     -10.281714      -279.7797
  15   2.0000     -10.275917      -279.6219
  16   2.0000      -8.078891      -219.8378
  17   2.0000      -8.077931      -219.8117
  18   2.0000      -6.037449      -164.2873
  19   2.0000      -6.036542      -164.2627
  20   2.0000      -6.033497      -164.1798
  21   2.0000      -6.032904      -164.1637
  22   2.0000      -6.029580      -164.0732
  23   2.0000      -6.028384      -164.0407
  24   2.0000      -0.998851       -27.1801
  25   2.0000      -0.978379       -26.6230
  26   2.0000      -0.914138       -24.8750
  27   2.0000      -0.905189       -24.6314
  28   2.0000      -0.870439       -23.6859
  29   2.0000      -0.849829       -23.1250
  30   2.0000      -0.843681       -22.9577
  31   2.0000      -0.814462       -22.1626
  32   2.0000      -0.783773       -21.3275
  33   2.0000      -0.771864       -21.0035
  34   2.0000      -0.716566       -19.4987
  35   2.0000      -0.698599       -19.0098
  36   2.0000      -0.691438       -18.8150
  37   2.0000      -0.656148       -17.8547
  38   2.0000      -0.637846       -17.3567
  39   2.0000      -0.624124       -16.9833
  40   2.0000      -0.593519       -16.1505
  41   2.0000      -0.572703       -15.5840
  42   2.0000      -0.561770       -15.2865
  43   2.0000      -0.553077       -15.0500
  44   2.0000      -0.536502       -14.5990
  45   2.0000      -0.524168       -14.2633
  46   2.0000      -0.516244       -14.0477
  47   2.0000      -0.511116       -13.9082
  48   2.0000      -0.503687       -13.7060
  49   2.0000      -0.496523       -13.5111
  50   2.0000      -0.487619       -13.2688
  51   2.0000      -0.484923       -13.1954
  52   2.0000      -0.473121       -12.8743
  53   2.0000      -0.461322       -12.5532
  54   2.0000      -0.454960       -12.3801
  55   2.0000      -0.446810       -12.1583
  56   2.0000      -0.445482       -12.1222
  57   2.0000      -0.439123       -11.9492
  58   2.0000      -0.433724       -11.8022
  59   2.0000      -0.428219       -11.6524
  60   2.0000      -0.422872       -11.5069
  61   2.0000      -0.415798       -11.3144
  62   2.0000      -0.401244       -10.9184
  63   2.0000      -0.350701        -9.5431
  64   2.0000      -0.332461        -9.0467
  65   2.0000      -0.328512        -8.9393
  66   2.0000      -0.287341        -7.8189
  67   0.0000       0.023326         0.6347
  68   0.0000       0.071143         1.9359
  69   0.0000       0.098307         2.6751
  70   0.0000       0.121204         3.2981
  71   0.0000       0.131500         3.5783

MULLIKEN ATOMIC CHARGES
-----------------------
   0 S :    0.095199
   1 C :   -0.137998
   2 C :   -0.087944
   3 C :    0.026632
   4 C :   -0.152660
   5 H :    0.025962
   6 C :    0.082022
   7 H :    0.024769
   8 H :    0.015304
   9 C :   -0.068797
  10 H :    0.015909
  11 H :    0.024001
  12 C :   -0.042957
  13 H :    0.030146
  14 H :    0.038589
  15 H :    0.028867
  16 S :    0.081938
  17 C :   -0.090417
  18 C :   -0.027069
  19 C :   -0.047118
  20 C :   -0.129588
  21 H :    0.036373
  22 C :    0.071493
  23 H :    0.027596
  24 H :    0.021784
  25 C :   -0.099190
  26 H :    0.027294
  27 H :    0.032357
  28 C :   -0.042855
  29 H :    0.027316
  30 H :    0.046540
  31 H :    0.037250
  32 H :    0.057579
  33 H :    0.051672
Sum of atomic charges:    0.0000000

LOEWDIN ATOMIC CHARGES
----------------------
   0 S :    0.384112
   1 C :   -0.199361
   2 C :   -0.065119
   3 C :   -0.061312
   4 C :   -0.173934
   5 H :    0.035542
   6 C :   -0.037810
   7 H :    0.029727
   8 H :    0.033915
   9 C :   -0.037652
  10 H :    0.015839
  11 H :    0.025171
  12 C :   -0.055001
  13 H :    0.024795
  14 H :    0.027421
  15 H :    0.023469
  16 S :    0.351848
  17 C :   -0.148918
  18 C :   -0.071046
  19 C :   -0.051942
  20 C :   -0.188874
  21 H :    0.042119
  22 C :   -0.036729
  23 H :    0.029897
  24 H :    0.030659
  25 C :   -0.053719
  26 H :    0.024588
  27 H :    0.033351
  28 C :   -0.071817
  29 H :    0.026213
  30 H :    0.031489
  31 H :    0.030515
  32 H :    0.030510
  33 H :    0.022051

  Mayer bond orders larger than 0.100000
B(  0-S ,  1-C ) :   1.1259 B(  0-S ,  4-C ) :   1.1496 B(  1-C ,  2-C ) :   1.6252
B(  1-C , 32-H ) :   0.9644 B(  2-C ,  3-C ) :   1.2336 B(  2-C ,  6-C ) :   1.0228
B(  3-C ,  4-C ) :   1.5549 B(  3-C ,  5-H ) :   0.9889 B(  4-C , 20-C ) :   1.0551
B(  6-C ,  7-H ) :   0.9212 B(  6-C ,  8-H ) :   0.9444 B(  6-C ,  9-C ) :   1.0761
B(  9-C , 10-H ) :   0.9478 B(  9-C , 11-H ) :   0.9537 B(  9-C , 12-C ) :   1.0767
B( 12-C , 13-H ) :   0.9748 B( 12-C , 14-H ) :   0.9775 B( 12-C , 15-H ) :   0.9788
B( 16-S , 17-C ) :   1.1293 B( 16-S , 20-C ) :   1.1152 B( 17-C , 18-C ) :   1.6505
B( 17-C , 33-H ) :   0.9650 B( 18-C , 19-C ) :   1.2071 B( 18-C , 21-H ) :   0.9869
B( 19-C , 20-C ) :   1.6219 B( 19-C , 22-C ) :   1.0292 B( 22-C , 23-H ) :   0.9292
B( 22-C , 24-H ) :   0.9329 B( 22-C , 25-C ) :   1.0816 B( 25-C , 26-H ) :   0.9485
B( 25-C , 27-H ) :   0.9479 B( 25-C , 28-C ) :   1.0781 B( 28-C , 29-H ) :   0.9705
B( 28-C , 30-H ) :   0.9753 B( 28-C , 31-H ) :   0.9714

Dispersion correction           -0.014012198
FINAL SINGLE POINT ENERGY     -1339.879096132206

DIPOLE MOMENT
-------------
                                X             Y             Z
Electronic contribution:    -24.73686      16.82321       4.85503
Nuclear contribution   :     25.51473     -17.12310      -5.04385
                        -----------------------------------------
Total Dipole Moment    :      0.77788      -0.29989      -0.18882
                        -----------------------------------------
Magnitude (a.u.)       :      0.85480
Magnitude (Debye)      :      2.17273

Rotational constants in cm-1:     0.018027     0.008604     0.006631
Rotational constants in MHz :   540.428077   257.929432   198.802809

                             ****ORCA TERMINATED NORMALLY****
TOTAL RUN TIME: 0 days 0 hours 0 minutes 34 seconds 934 msec
