                         Program Version 4.2.1 -  RELEASE  -
|  1> ! wB97X-D3 SP def2-SVP
|  2> %pal
|  3> nprocs 16
|  4> end
|  5>
|  6> * xyz 0 1
|  7> S 	 31.5592 	 27.6406 	 51.9455
|  8> C 	 31.6221 	 28.8174 	 50.7195
|  9> C 	 31.5454 	 30.0992 	 51.195
| 10> C 	 31.5952 	 30.0837 	 52.6401
| 11> C 	 31.3442 	 28.8543 	 53.1589
| 12> H 	 31.6194 	 31.0204 	 53.156
| 13> C 	 31.3475 	 31.3664 	 50.4189
| 14> H 	 31.2104 	 31.0002 	 49.3413
| 15> H 	 32.2242 	 31.9878 	 50.3333
| 16> C 	 30.1342 	 32.203 	 50.8952
| 17> H 	 29.3295 	 31.4927 	 51.1063
| 18> H 	 30.3353 	 32.696 	 51.7985
| 19> C 	 29.7917 	 33.2225 	 49.7577
| 20> H 	 28.9337 	 33.8157 	 50.1006
| 21> H 	 30.667 	 33.9145 	 49.6098
| 22> H 	 29.6125 	 32.7397 	 48.8215
| 23> S 	 32.2961 	 27.0841 	 55.1289
| 24> C 	 31.5636 	 27.1473 	 56.7276
| 25> C 	 30.6253 	 28.1274 	 56.8517
| 26> C 	 30.4739 	 28.9258 	 55.6645
| 27> C 	 31.2454 	 28.4279 	 54.5848
| 28> H 	 30.1515 	 28.3115 	 57.835
| 29> C 	 29.6436 	 30.1865 	 55.4863
| 30> H 	 30.2769 	 31.0266 	 55.2465
| 31> H 	 29.3377 	 30.5036 	 56.495
| 32> C 	 28.2873 	 30.0479 	 54.696
| 33> H 	 27.5245 	 29.7231 	 55.3956
| 34> H 	 28.4969 	 29.3228 	 53.8971
| 35> C 	 27.7814 	 31.4071 	 54.1854
| 36> H 	 28.6176 	 31.9545 	 53.7651
| 37> H 	 27.4835 	 32.0559 	 55.0743
| 38> H 	 27.0522 	 31.2058 	 53.4034
| 39> H 	 31.5982 	 28.4428 	 49.6824
| 40> H 	 31.8352 	 26.4697 	 57.5507
| 41> *
| 42>
| 43>                          ****END OF INPUT****

CARTESIAN COORDINATES (ANGSTROEM)
---------------------------------
  S     31.559200   27.640600   51.945500
  C     31.622100   28.817400   50.719500
  C     31.545400   30.099200   51.195000
  C     31.595200   30.083700   52.640100
  C     31.344200   28.854300   53.158900
  H     31.619400   31.020400   53.156000
  C     31.347500   31.366400   50.418900
  H     31.210400   31.000200   49.341300
  H     32.224200   31.987800   50.333300
  C     30.134200   32.203000   50.895200
  H     29.329500   31.492700   51.106300
  H     30.335300   32.696000   51.798500
  C     29.791700   33.222500   49.757700
  H     28.933700   33.815700   50.100600
  H     30.667000   33.914500   49.609800
  H     29.612500   32.739700   48.821500
  S     32.296100   27.084100   55.128900
  C     31.563600   27.147300   56.727600
  C     30.625300   28.127400   56.851700
  C     30.473900   28.925800   55.664500
  C     31.245400   28.427900   54.584800
  H     30.151500   28.311500   57.835000
  C     29.643600   30.186500   55.486300
  H     30.276900   31.026600   55.246500
  H     29.337700   30.503600   56.495000
  C     28.287300   30.047900   54.696000
  H     27.524500   29.723100   55.395600
  H     28.496900   29.322800   53.897100
  C     27.781400   31.407100   54.185400
  H     28.617600   31.954500   53.765100
  H     27.483500   32.055900   55.074300
  H     27.052200   31.205800   53.403400
  H     31.598200   28.442800   49.682400
  H     31.835200   26.469700   57.550700

 Total Charge           Charge          ....    0
 Multiplicity           Mult            ....    1
 Number of Electrons    NEL             ....  134
 Basis Dimension        Dim             ....  322

ORBITAL ENERGIES
----------------

  NO   OCC          E(Eh)            E(eV)
   0   2.0000     -88.965218     -2420.8667
   1   2.0000     -88.961457     -2420.7643
   2   2.0000     -10.331133      -281.1244
   3   2.0000     -10.328658      -281.0571
   4   2.0000     -10.317231      -280.7461
   5   2.0000     -10.310624      -280.5663
   6   2.0000     -10.307250      -280.4745
   7   2.0000     -10.298298      -280.2309
   8   2.0000     -10.296767      -280.1893
   9   2.0000     -10.295807      -280.1632
  10   2.0000     -10.291105      -280.0352
  11   2.0000     -10.290769      -280.0261
  12   2.0000     -10.288598      -279.9670
  13   2.0000     -10.286843      -279.9192
  14   2.0000     -10.285073      -279.8711
  15   2.0000     -10.281990      -279.7872
  16   2.0000      -8.079157      -219.8450
  17   2.0000      -8.078032      -219.8144
  18   2.0000      -6.037725      -164.2949
  19   2.0000      -6.036468      -164.2606
  20   2.0000      -6.033801      -164.1881
  21   2.0000      -6.032294      -164.1471
  22   2.0000      -6.029878      -164.0813
  23   2.0000      -6.028758      -164.0508
  24   2.0000      -1.010297       -27.4916
  25   2.0000      -0.981706       -26.7136
  26   2.0000      -0.912339       -24.8260
  27   2.0000      -0.902369       -24.5547
  28   2.0000      -0.866260       -23.5721
  29   2.0000      -0.851582       -23.1727
  30   2.0000      -0.844886       -22.9905
  31   2.0000      -0.815749       -22.1976
  32   2.0000      -0.778557       -21.1856
  33   2.0000      -0.765497       -20.8302
  34   2.0000      -0.712882       -19.3985
  35   2.0000      -0.696335       -18.9482
  36   2.0000      -0.686079       -18.6692
  37   2.0000      -0.657720       -17.8975
  38   2.0000      -0.641252       -17.4493
  39   2.0000      -0.627121       -17.0648
  40   2.0000      -0.592667       -16.1273
  41   2.0000      -0.573731       -15.6120
  42   2.0000      -0.562988       -15.3197
  43   2.0000      -0.556668       -15.1477
  44   2.0000      -0.529373       -14.4050
  45   2.0000      -0.524784       -14.2801
  46   2.0000      -0.515959       -14.0400
  47   2.0000      -0.506918       -13.7939
  48   2.0000      -0.500746       -13.6260
  49   2.0000      -0.491979       -13.3874
  50   2.0000      -0.489810       -13.3284
  51   2.0000      -0.486727       -13.2445
  52   2.0000      -0.472280       -12.8514
  53   2.0000      -0.464642       -12.6436
  54   2.0000      -0.456873       -12.4322
  55   2.0000      -0.448483       -12.2039
  56   2.0000      -0.441723       -12.0199
  57   2.0000      -0.439228       -11.9520
  58   2.0000      -0.431748       -11.7484
  59   2.0000      -0.428783       -11.6678
  60   2.0000      -0.422115       -11.4863
  61   2.0000      -0.417982       -11.3739
  62   2.0000      -0.408866       -11.1258
  63   2.0000      -0.350054        -9.5255
  64   2.0000      -0.331354        -9.0166
  65   2.0000      -0.325977        -8.8703
  66   2.0000      -0.290892        -7.9156
  67   0.0000       0.030674         0.8347
  68   0.0000       0.073970         2.0128
  69   0.0000       0.108016         2.9393
  70   0.0000       0.120885         3.2895
  71   0.0000       0.126360         3.4384

MULLIKEN ATOMIC CHARGES
-----------------------
   0 S :    0.101807
   1 C :   -0.134707
   2 C :   -0.088167
   3 C :    0.041438
   4 C :   -0.134474
   5 H :    0.003099
   6 C :    0.040053
   7 H :    0.022140
   8 H :    0.032787
   9 C :   -0.087977
  10 H :    0.042262
  11 H :    0.031994
  12 C :   -0.046012
  13 H :    0.041577
  14 H :    0.034849
  15 H :    0.033470
  16 S :    0.098189
  17 C :   -0.101966
  18 C :   -0.031040
  19 C :   -0.042479
  20 C :   -0.148335
  21 H :    0.029679
  22 C :    0.038745
  23 H :    0.027912
  24 H :    0.000638
  25 C :   -0.065742
  26 H :    0.035999
  27 H :    0.050041
  28 C :   -0.050838
  29 H :    0.012755
  30 H :    0.040261
  31 H :    0.048451
  32 H :    0.058620
  33 H :    0.064969
Sum of atomic charges:   -0.0000000

LOEWDIN ATOMIC CHARGES
----------------------
   0 S :    0.424597
   1 C :   -0.210538
   2 C :   -0.068053
   3 C :   -0.056197
   4 C :   -0.197451
   5 H :    0.025265
   6 C :   -0.036831
   7 H :    0.036535
   8 H :    0.027902
   9 C :   -0.033593
  10 H :    0.027357
  11 H :    0.014041
  12 C :   -0.060464
  13 H :    0.028019
  14 H :    0.030728
  15 H :    0.020894
  16 S :    0.381264
  17 C :   -0.185576
  18 C :   -0.077171
  19 C :   -0.056173
  20 C :   -0.184443
  21 H :    0.039255
  22 C :   -0.041028
  23 H :    0.026214
  24 H :    0.028622
  25 C :   -0.033417
  26 H :    0.025997
  27 H :    0.026701
  28 C :   -0.069114
  29 H :    0.016920
  30 H :    0.034378
  31 H :    0.030143
  32 H :    0.030141
  33 H :    0.035077

  Mayer bond orders larger than 0.100000
B(  0-S ,  1-C ) :   1.1510 B(  0-S ,  4-C ) :   1.1553 B(  1-C ,  2-C ) :   1.6157
B(  1-C , 32-H ) :   0.9628 B(  2-C ,  3-C ) :   1.2307 B(  2-C ,  6-C ) :   1.0288
B(  3-C ,  4-C ) :   1.5803 B(  3-C ,  5-H ) :   0.9947 B(  4-C , 20-C ) :   1.0248
B(  6-C ,  7-H ) :   0.9477 B(  6-C ,  8-H ) :   0.9327 B(  6-C ,  9-C ) :   1.0515
B(  9-C , 10-H ) :   0.9602 B(  9-C , 11-H ) :   0.9473 B(  9-C , 12-C ) :   1.0814
B( 12-C , 13-H ) :   0.9751 B( 12-C , 14-H ) :   0.9731 B( 12-C , 15-H ) :   0.9786
B( 16-S , 17-C ) :   1.1426 B( 16-S , 20-C ) :   1.1393 B( 17-C , 18-C ) :   1.6301
B( 17-C , 33-H ) :   0.9611 B( 18-C , 19-C ) :   1.2436 B( 18-C , 21-H ) :   0.9830
B( 19-C , 20-C ) :   1.5968 B( 19-C , 22-C ) :   1.0425 B( 22-C , 23-H ) :   0.9449
B( 22-C , 24-H ) :   0.9237 B( 22-C , 25-C ) :   1.0389 B( 25-C , 26-H ) :   0.9572
B( 25-C , 27-H ) :   0.9664 B( 25-C , 28-C ) :   1.0764 B( 28-C , 29-H ) :   0.9771
B( 28-C , 30-H ) :   0.9716 B( 28-C , 31-H ) :   0.9722

Dispersion correction           -0.015327762
FINAL SINGLE POINT ENERGY     -1339.880557837607

DIPOLE MOMENT
-------------
                                X             Y             Z
Electronic contribution:     16.97633     -27.13761       7.58869
Nuclear contribution   :    -17.28440      27.78562      -7.57493
                        -----------------------------------------
Total Dipole Moment    :     -0.30807       0.64801       0.01376
                        -----------------------------------------
Magnitude (a.u.)       :      0.71764
Magnitude (Debye)      :      1.82410

Rotational constants in cm-1:     0.019955     0.009492     0.006933
Rotational constants in MHz :   598.228593   284.573120   207.857002

                             ****ORCA TERMINATED NORMALLY****
TOTAL RUN TIME: 0 days 0 hours 0 minutes 36 seconds 858 msec
