                         Program Version 4.2.1 -  RELEASE  -
|  1> ! wB97X-D3 SP def2-SVP
|  2> %pal
|  3> nprocs 16
|  4> end
|  5>
|  6> * xyz 0 1
|  7> S 	 40.4751 	 14.0734 	 84.4297
|  8> C 	 39.7183 	 15.565 	 84.7165
|  9> C 	 38.323 	 15.4575 	 84.8375
| 10> C 	 37.9803 	 14.0642 	 84.9816
| 11> C 	 39.0021 	 13.1805 	 84.8432
| 12> H 	 37.007 	 13.5757 	 85.117
| 13> C 	 37.3266 	 16.6114 	 85.0212
| 14> H 	 36.3496 	 16.3348 	 84.7689
| 15> H 	 37.5505 	 17.3805 	 84.3084
| 16> C 	 37.2714 	 17.0424 	 86.5509
| 17> H 	 38.2867 	 17.0996 	 86.9279
| 18> H 	 36.9343 	 18.1146 	 86.5176
| 19> C 	 36.3612 	 16.2259 	 87.4361
| 20> H 	 36.4685 	 16.4925 	 88.4964
| 21> H 	 35.3138 	 16.3921 	 87.2496
| 22> H 	 36.5977 	 15.1721 	 87.3188
| 23> S 	 39.2881 	 10.7846 	 83.5754
| 24> C 	 39.3281 	 9.27777 	 84.4777
| 25> C 	 39.0158 	 9.48917 	 85.786
| 26> C 	 38.7696 	 10.8957 	 86.0558
| 27> C 	 38.9832 	 11.7151 	 84.9924
| 28> H 	 38.8632 	 8.69739 	 86.5204
| 29> C 	 38.4504 	 11.4257 	 87.4778
| 30> H 	 39.111 	 12.3607 	 87.4666
| 31> H 	 38.8329 	 10.6632 	 88.1297
| 32> C 	 36.9539 	 11.6425 	 87.7883
| 33> H 	 36.4142 	 12.2792 	 87.0984
| 34> H 	 36.8329 	 12.1479 	 88.8316
| 35> C 	 36.2009 	 10.3414 	 87.7452
| 36> H 	 36.4947 	 9.64952 	 88.5294
| 37> H 	 36.3595 	 9.92426 	 86.7495
| 38> H 	 35.1347 	 10.5101 	 87.9389
| 39> H 	 39.9828 	 16.5435 	 84.5648
| 40> H 	 39.4258 	 8.3079 	 84.0645
| 41> *
| 42>
| 43>                          ****END OF INPUT****

CARTESIAN COORDINATES (ANGSTROEM)
---------------------------------
  S     40.475100   14.073400   84.429700
  C     39.718300   15.565000   84.716500
  C     38.323000   15.457500   84.837500
  C     37.980300   14.064200   84.981600
  C     39.002100   13.180500   84.843200
  H     37.007000   13.575700   85.117000
  C     37.326600   16.611400   85.021200
  H     36.349600   16.334800   84.768900
  H     37.550500   17.380500   84.308400
  C     37.271400   17.042400   86.550900
  H     38.286700   17.099600   86.927900
  H     36.934300   18.114600   86.517600
  C     36.361200   16.225900   87.436100
  H     36.468500   16.492500   88.496400
  H     35.313800   16.392100   87.249600
  H     36.597700   15.172100   87.318800
  S     39.288100   10.784600   83.575400
  C     39.328100    9.277770   84.477700
  C     39.015800    9.489170   85.786000
  C     38.769600   10.895700   86.055800
  C     38.983200   11.715100   84.992400
  H     38.863200    8.697390   86.520400
  C     38.450400   11.425700   87.477800
  H     39.111000   12.360700   87.466600
  H     38.832900   10.663200   88.129700
  C     36.953900   11.642500   87.788300
  H     36.414200   12.279200   87.098400
  H     36.832900   12.147900   88.831600
  C     36.200900   10.341400   87.745200
  H     36.494700    9.649520   88.529400
  H     36.359500    9.924260   86.749500
  H     35.134700   10.510100   87.938900
  H     39.982800   16.543500   84.564800
  H     39.425800    8.307900   84.064500

 Total Charge           Charge          ....    0
 Multiplicity           Mult            ....    1
 Number of Electrons    NEL             ....  134
 Basis Dimension        Dim             ....  322

ORBITAL ENERGIES
----------------

  NO   OCC          E(Eh)            E(eV)
   0   2.0000     -88.968950     -2420.9682
   1   2.0000     -88.962247     -2420.7858
   2   2.0000     -10.327597      -281.0282
   3   2.0000     -10.322371      -280.8860
   4   2.0000     -10.315400      -280.6963
   5   2.0000     -10.307235      -280.4741
   6   2.0000     -10.304121      -280.3894
   7   2.0000     -10.301296      -280.3125
   8   2.0000     -10.295639      -280.1586
   9   2.0000     -10.294912      -280.1388
  10   2.0000     -10.294309      -280.1224
  11   2.0000     -10.292984      -280.0863
  12   2.0000     -10.291580      -280.0481
  13   2.0000     -10.291375      -280.0426
  14   2.0000     -10.277485      -279.6646
  15   2.0000     -10.274133      -279.5734
  16   2.0000      -8.083814      -219.9718
  17   2.0000      -8.077693      -219.8052
  18   2.0000      -6.042360      -164.4210
  19   2.0000      -6.038284      -164.3101
  20   2.0000      -6.036289      -164.2558
  21   2.0000      -6.034536      -164.2081
  22   2.0000      -6.032083      -164.1413
  23   2.0000      -6.028326      -164.0391
  24   2.0000      -1.010579       -27.4993
  25   2.0000      -0.989016       -26.9125
  26   2.0000      -0.908274       -24.7154
  27   2.0000      -0.907958       -24.7068
  28   2.0000      -0.873548       -23.7704
  29   2.0000      -0.848786       -23.0967
  30   2.0000      -0.845309       -23.0020
  31   2.0000      -0.823300       -22.4031
  32   2.0000      -0.783758       -21.3271
  33   2.0000      -0.770958       -20.9788
  34   2.0000      -0.706784       -19.2326
  35   2.0000      -0.701621       -19.0921
  36   2.0000      -0.688252       -18.7283
  37   2.0000      -0.667384       -18.1604
  38   2.0000      -0.647390       -17.6164
  39   2.0000      -0.612145       -16.6573
  40   2.0000      -0.588558       -16.0155
  41   2.0000      -0.577960       -15.7271
  42   2.0000      -0.554132       -15.0787
  43   2.0000      -0.550023       -14.9669
  44   2.0000      -0.547837       -14.9074
  45   2.0000      -0.541420       -14.7328
  46   2.0000      -0.516967       -14.0674
  47   2.0000      -0.508400       -13.8343
  48   2.0000      -0.506783       -13.7903
  49   2.0000      -0.497086       -13.5264
  50   2.0000      -0.487116       -13.2551
  51   2.0000      -0.476987       -12.9795
  52   2.0000      -0.473960       -12.8971
  53   2.0000      -0.466305       -12.6888
  54   2.0000      -0.463711       -12.6182
  55   2.0000      -0.449104       -12.2207
  56   2.0000      -0.440720       -11.9926
  57   2.0000      -0.435250       -11.8438
  58   2.0000      -0.432767       -11.7762
  59   2.0000      -0.427253       -11.6261
  60   2.0000      -0.424442       -11.5497
  61   2.0000      -0.415597       -11.3090
  62   2.0000      -0.405186       -11.0257
  63   2.0000      -0.345687        -9.4066
  64   2.0000      -0.330390        -8.9904
  65   2.0000      -0.327105        -8.9010
  66   2.0000      -0.302596        -8.2341
  67   0.0000       0.039405         1.0723
  68   0.0000       0.061147         1.6639
  69   0.0000       0.117332         3.1928
  70   0.0000       0.123181         3.3519
  71   0.0000       0.129129         3.5138

MULLIKEN ATOMIC CHARGES
-----------------------
   0 S :    0.137802
   1 C :   -0.038851
   2 C :   -0.150692
   3 C :    0.039302
   4 C :   -0.177199
   5 H :    0.017491
   6 C :    0.098266
   7 H :    0.003069
   8 H :    0.024326
   9 C :   -0.080309
  10 H :    0.028914
  11 H :    0.029168
  12 C :   -0.033910
  13 H :    0.036259
  14 H :    0.027533
  15 H :    0.035509
  16 S :    0.103061
  17 C :   -0.069009
  18 C :   -0.026943
  19 C :   -0.088622
  20 C :   -0.178717
  21 H :    0.024765
  22 C :    0.079909
  23 H :    0.059611
  24 H :    0.013500
  25 C :   -0.073309
  26 H :    0.025031
  27 H :    0.042012
  28 C :   -0.064883
  29 H :    0.024456
  30 H :    0.046652
  31 H :    0.033685
  32 H :    0.006961
  33 H :    0.045160
Sum of atomic charges:    0.0000000

LOEWDIN ATOMIC CHARGES
----------------------
   0 S :    0.425192
   1 C :   -0.203179
   2 C :   -0.058638
   3 C :   -0.063684
   4 C :   -0.198916
   5 H :    0.033594
   6 C :   -0.025397
   7 H :    0.022342
   8 H :    0.029235
   9 C :   -0.036785
  10 H :    0.021652
  11 H :    0.026430
  12 C :   -0.066647
  13 H :    0.032614
  14 H :    0.023351
  15 H :    0.026144
  16 S :    0.409894
  17 C :   -0.173611
  18 C :   -0.074149
  19 C :   -0.062125
  20 C :   -0.213271
  21 H :    0.033822
  22 C :   -0.031070
  23 H :    0.045689
  24 H :    0.025173
  25 C :   -0.046065
  26 H :    0.018151
  27 H :    0.032328
  28 C :   -0.067973
  29 H :    0.020593
  30 H :    0.028387
  31 H :    0.028046
  32 H :    0.014354
  33 H :    0.024516

  Mayer bond orders larger than 0.100000
B(  0-S ,  1-C ) :   1.1620 B(  0-S ,  4-C ) :   1.1295 B(  1-C ,  2-C ) :   1.6073
B(  1-C , 32-H ) :   0.9628 B(  2-C ,  3-C ) :   1.2189 B(  2-C ,  6-C ) :   1.0393
B(  3-C ,  4-C ) :   1.6188 B(  3-C ,  5-H ) :   0.9865 B(  4-C , 20-C ) :   1.0003
B(  6-C ,  7-H ) :   0.9414 B(  6-C ,  8-H ) :   0.9390 B(  6-C ,  9-C ) :   1.0452
B(  9-C , 10-H ) :   0.9615 B(  9-C , 11-H ) :   0.9551 B(  9-C , 12-C ) :   1.0836
B( 12-C , 13-H ) :   0.9696 B( 12-C , 14-H ) :   0.9728 B( 12-C , 15-H ) :   0.9725
B( 16-S , 17-C ) :   1.1475 B( 16-S , 20-C ) :   1.1451 B( 17-C , 18-C ) :   1.6193
B( 17-C , 33-H ) :   0.9714 B( 18-C , 19-C ) :   1.2278 B( 18-C , 21-H ) :   0.9867
B( 19-C , 20-C ) :   1.6440 B( 19-C , 22-C ) :   1.0153 B( 22-C , 23-H ) :   0.9367
B( 22-C , 24-H ) :   0.9385 B( 22-C , 25-C ) :   1.0625 B( 25-C , 26-H ) :   0.9552
B( 25-C , 27-H ) :   0.9545 B( 25-C , 28-C ) :   1.0758 B( 28-C , 29-H ) :   0.9742
B( 28-C , 30-H ) :   0.9719 B( 28-C , 31-H ) :   0.9708

Dispersion correction           -0.015663459
FINAL SINGLE POINT ENERGY     -1339.874178148818

DIPOLE MOMENT
-------------
                                X             Y             Z
Electronic contribution:     19.51554      -8.25008     -20.33940
Nuclear contribution   :    -20.05724       8.39444      20.73019
                        -----------------------------------------
Total Dipole Moment    :     -0.54169       0.14436       0.39079
                        -----------------------------------------
Magnitude (a.u.)       :      0.68337
Magnitude (Debye)      :      1.73698

Rotational constants in cm-1:     0.018813     0.009995     0.007142
Rotational constants in MHz :   564.011105   299.640031   214.118623

                             ****ORCA TERMINATED NORMALLY****
TOTAL RUN TIME: 0 days 0 hours 0 minutes 32 seconds 462 msec
