                         Program Version 4.2.1 -  RELEASE  -
|  1> ! wB97X-D3 SP def2-SVP
|  2> %pal
|  3> nprocs 16
|  4> end
|  5>
|  6> * xyz 0 1
|  7> S 	 -9.75839 	 35.925 	 32.6496
|  8> C 	 -8.81917 	 35.7383 	 31.1744
|  9> C 	 -9.02219 	 36.6961 	 30.2516
| 10> C 	 -9.96367 	 37.6212 	 30.751
| 11> C 	 -10.3422 	 37.4487 	 32.0836
| 12> H 	 -10.2357 	 38.5491 	 30.276
| 13> C 	 -8.28714 	 36.7767 	 28.9499
| 14> H 	 -8.92181 	 37.2841 	 28.203
| 15> H 	 -8.14589 	 35.7419 	 28.5536
| 16> C 	 -6.96826 	 37.5254 	 28.9436
| 17> H 	 -7.07829 	 38.5638 	 29.2083
| 18> H 	 -6.18219 	 37.1284 	 29.6182
| 19> C 	 -6.27604 	 37.5644 	 27.477
| 20> H 	 -5.19668 	 37.8892 	 27.484
| 21> H 	 -6.31538 	 36.5632 	 27.0209
| 22> H 	 -6.94989 	 38.157 	 26.8392
| 23> S 	 -10.0449 	 39.8187 	 33.3749
| 24> C 	 -11.4236 	 40.3659 	 34.3529
| 25> C 	 -12.4397 	 39.4417 	 34.3278
| 26> C 	 -12.1621 	 38.2783 	 33.5957
| 27> C 	 -10.9456 	 38.3764 	 32.9968
| 28> H 	 -13.3347 	 39.5384 	 34.8932
| 29> C 	 -13.0714 	 37.0651 	 33.591
| 30> H 	 -13.6006 	 36.9386 	 34.5268
| 31> H 	 -12.5384 	 36.1603 	 33.5056
| 32> C 	 -14.1951 	 37.0847 	 32.5278
| 33> H 	 -14.4615 	 36.0853 	 32.4188
| 34> H 	 -13.8454 	 37.3475 	 31.515
| 35> C 	 -15.4201 	 37.8937 	 33.0766
| 36> H 	 -15.6564 	 37.5791 	 34.0206
| 37> H 	 -16.2385 	 37.6108 	 32.3781
| 38> H 	 -15.0416 	 38.9232 	 33.1238
| 39> H 	 -8.11018 	 34.9371 	 31.0391
| 40> H 	 -11.3893 	 41.1606 	 35.0742
| 41> *
| 42>
| 43>                          ****END OF INPUT****

CARTESIAN COORDINATES (ANGSTROEM)
---------------------------------
  S     -9.758390   35.925000   32.649600
  C     -8.819170   35.738300   31.174400
  C     -9.022190   36.696100   30.251600
  C     -9.963670   37.621200   30.751000
  C    -10.342200   37.448700   32.083600
  H    -10.235700   38.549100   30.276000
  C     -8.287140   36.776700   28.949900
  H     -8.921810   37.284100   28.203000
  H     -8.145890   35.741900   28.553600
  C     -6.968260   37.525400   28.943600
  H     -7.078290   38.563800   29.208300
  H     -6.182190   37.128400   29.618200
  C     -6.276040   37.564400   27.477000
  H     -5.196680   37.889200   27.484000
  H     -6.315380   36.563200   27.020900
  H     -6.949890   38.157000   26.839200
  S    -10.044900   39.818700   33.374900
  C    -11.423600   40.365900   34.352900
  C    -12.439700   39.441700   34.327800
  C    -12.162100   38.278300   33.595700
  C    -10.945600   38.376400   32.996800
  H    -13.334700   39.538400   34.893200
  C    -13.071400   37.065100   33.591000
  H    -13.600600   36.938600   34.526800
  H    -12.538400   36.160300   33.505600
  C    -14.195100   37.084700   32.527800
  H    -14.461500   36.085300   32.418800
  H    -13.845400   37.347500   31.515000
  C    -15.420100   37.893700   33.076600
  H    -15.656400   37.579100   34.020600
  H    -16.238500   37.610800   32.378100
  H    -15.041600   38.923200   33.123800
  H     -8.110180   34.937100   31.039100
  H    -11.389300   41.160600   35.074200

 Total Charge           Charge          ....    0
 Multiplicity           Mult            ....    1
 Number of Electrons    NEL             ....  134
 Basis Dimension        Dim             ....  322

ORBITAL ENERGIES
----------------

  NO   OCC          E(Eh)            E(eV)
   0   2.0000     -88.968752     -2420.9628
   1   2.0000     -88.963468     -2420.8190
   2   2.0000     -10.322319      -280.8846
   3   2.0000     -10.318975      -280.7936
   4   2.0000     -10.316898      -280.7371
   5   2.0000     -10.307029      -280.4685
   6   2.0000     -10.298121      -280.2261
   7   2.0000     -10.295381      -280.1516
   8   2.0000     -10.294809      -280.1360
   9   2.0000     -10.291522      -280.0465
  10   2.0000     -10.290603      -280.0215
  11   2.0000     -10.289032      -279.9788
  12   2.0000     -10.288594      -279.9669
  13   2.0000     -10.284877      -279.8657
  14   2.0000     -10.278718      -279.6981
  15   2.0000     -10.275053      -279.5984
  16   2.0000      -8.083071      -219.9515
  17   2.0000      -8.078549      -219.8285
  18   2.0000      -6.041549      -164.3989
  19   2.0000      -6.037733      -164.2951
  20   2.0000      -6.036920      -164.2729
  21   2.0000      -6.033793      -164.1879
  22   2.0000      -6.033029      -164.1671
  23   2.0000      -6.029417      -164.0688
  24   2.0000      -1.012371       -27.5480
  25   2.0000      -0.988572       -26.9004
  26   2.0000      -0.911284       -24.7973
  27   2.0000      -0.909362       -24.7450
  28   2.0000      -0.869627       -23.6638
  29   2.0000      -0.851702       -23.1760
  30   2.0000      -0.843191       -22.9444
  31   2.0000      -0.811942       -22.0941
  32   2.0000      -0.784326       -21.3426
  33   2.0000      -0.772860       -21.0306
  34   2.0000      -0.710383       -19.3305
  35   2.0000      -0.700627       -19.0650
  36   2.0000      -0.693688       -18.8762
  37   2.0000      -0.669599       -18.2207
  38   2.0000      -0.641367       -17.4525
  39   2.0000      -0.617310       -16.7979
  40   2.0000      -0.603647       -16.4261
  41   2.0000      -0.572923       -15.5900
  42   2.0000      -0.554044       -15.0763
  43   2.0000      -0.552398       -15.0315
  44   2.0000      -0.542759       -14.7692
  45   2.0000      -0.524506       -14.2725
  46   2.0000      -0.516868       -14.0647
  47   2.0000      -0.508956       -13.8494
  48   2.0000      -0.503004       -13.6874
  49   2.0000      -0.501371       -13.6430
  50   2.0000      -0.487939       -13.2775
  51   2.0000      -0.478646       -13.0246
  52   2.0000      -0.474386       -12.9087
  53   2.0000      -0.464066       -12.6279
  54   2.0000      -0.461317       -12.5531
  55   2.0000      -0.446859       -12.1597
  56   2.0000      -0.444633       -12.0991
  57   2.0000      -0.439227       -11.9520
  58   2.0000      -0.436903       -11.8887
  59   2.0000      -0.424913       -11.5625
  60   2.0000      -0.423226       -11.5166
  61   2.0000      -0.416307       -11.3283
  62   2.0000      -0.409414       -11.1407
  63   2.0000      -0.340387        -9.2624
  64   2.0000      -0.333044        -9.0626
  65   2.0000      -0.330355        -8.9894
  66   2.0000      -0.296546        -8.0694
  67   0.0000       0.039348         1.0707
  68   0.0000       0.057963         1.5772
  69   0.0000       0.110146         2.9972
  70   0.0000       0.112462         3.0602
  71   0.0000       0.131259         3.5717

MULLIKEN ATOMIC CHARGES
-----------------------
   0 S :    0.114000
   1 C :   -0.126844
   2 C :   -0.046859
   3 C :    0.039341
   4 C :   -0.199362
   5 H :    0.000523
   6 C :    0.054662
   7 H :    0.022798
   8 H :    0.032081
   9 C :   -0.070626
  10 H :    0.031417
  11 H :    0.033956
  12 C :   -0.088744
  13 H :    0.057679
  14 H :    0.027142
  15 H :    0.033038
  16 S :    0.128086
  17 C :   -0.082248
  18 C :   -0.026484
  19 C :    0.005983
  20 C :   -0.176696
  21 H :    0.003350
  22 C :    0.087680
  23 H :    0.010726
  24 H :    0.000372
  25 C :   -0.068644
  26 H :    0.006311
  27 H :    0.033972
  28 C :   -0.019157
  29 H :    0.002909
  30 H :    0.047811
  31 H :    0.044875
  32 H :    0.034578
  33 H :    0.052376
Sum of atomic charges:    0.0000000

LOEWDIN ATOMIC CHARGES
----------------------
   0 S :    0.411936
   1 C :   -0.183472
   2 C :   -0.070735
   3 C :   -0.061794
   4 C :   -0.200875
   5 H :    0.025962
   6 C :   -0.034562
   7 H :    0.034221
   8 H :    0.036113
   9 C :   -0.038620
  10 H :    0.022106
  11 H :    0.024663
  12 C :   -0.074269
  13 H :    0.034990
  14 H :    0.021711
  15 H :    0.023405
  16 S :    0.408471
  17 C :   -0.176758
  18 C :   -0.063952
  19 C :   -0.055366
  20 C :   -0.204140
  21 H :    0.024953
  22 C :   -0.025709
  23 H :    0.029861
  24 H :    0.017095
  25 C :   -0.030551
  26 H :    0.012292
  27 H :    0.026794
  28 C :   -0.056478
  29 H :    0.007061
  30 H :    0.035286
  31 H :    0.030936
  32 H :    0.022348
  33 H :    0.027079

  Mayer bond orders larger than 0.100000
B(  0-S ,  1-C ) :   1.1395 B(  0-S ,  4-C ) :   1.1596 B(  1-C ,  2-C ) :   1.6300
B(  1-C , 32-H ) :   0.9671 B(  2-C ,  3-C ) :   1.2322 B(  2-C ,  6-C ) :   1.0254
B(  3-C ,  4-C ) :   1.5851 B(  3-C ,  5-H ) :   0.9993 B(  4-C , 20-C ) :   1.0194
B(  6-C ,  7-H ) :   0.9362 B(  6-C ,  8-H ) :   0.9380 B(  6-C ,  9-C ) :   1.0665
B(  9-C , 10-H ) :   0.9581 B(  9-C , 11-H ) :   0.9590 B(  9-C , 12-C ) :   1.0628
B( 12-C , 13-H ) :   0.9762 B( 12-C , 14-H ) :   0.9774 B( 12-C , 15-H ) :   0.9780
B( 16-S , 17-C ) :   1.1403 B( 16-S , 20-C ) :   1.1487 B( 17-C , 18-C ) :   1.6094
B( 17-C , 33-H ) :   0.9678 B( 18-C , 19-C ) :   1.2584 B( 18-C , 21-H ) :   0.9837
B( 19-C , 20-C ) :   1.6056 B( 19-C , 22-C ) :   1.0453 B( 22-C , 23-H ) :   0.9348
B( 22-C , 24-H ) :   0.9251 B( 22-C , 25-C ) :   1.0777 B( 25-C , 26-H ) :   0.9540
B( 25-C , 27-H ) :   0.9581 B( 25-C , 28-C ) :   1.0674 B( 28-C , 29-H ) :   0.9749
B( 28-C , 30-H ) :   0.9754 B( 28-C , 31-H ) :   0.9772

Dispersion correction           -0.014186619
FINAL SINGLE POINT ENERGY     -1339.870884401224

DIPOLE MOMENT
-------------
                                X             Y             Z
Electronic contribution:      4.32069       2.84290      15.33523
Nuclear contribution   :     -4.41997      -2.93826     -15.46172
                        -----------------------------------------
Total Dipole Moment    :     -0.09928      -0.09536      -0.12649
                        -----------------------------------------
Magnitude (a.u.)       :      0.18695
Magnitude (Debye)      :      0.47519

Rotational constants in cm-1:     0.023175     0.007212     0.006437
Rotational constants in MHz :   694.765589   216.221862   192.967149

                             ****ORCA TERMINATED NORMALLY****
TOTAL RUN TIME: 0 days 0 hours 0 minutes 33 seconds 609 msec
