                         Program Version 4.2.1 -  RELEASE  -
|  1> ! wB97X-D3 SP def2-SVP
|  2> %pal
|  3> nprocs 16
|  4> end
|  5>
|  6> * xyz 0 1
|  7> S 	 40.1531 	 27.1639 	 47.6145
|  8> C 	 40.2083 	 27.8579 	 49.2147
|  9> C 	 39.3093 	 27.3055 	 50.0831
| 10> C 	 38.7934 	 26.1181 	 49.4567
| 11> C 	 39.0702 	 25.9518 	 48.1156
| 12> H 	 38.1875 	 25.3264 	 49.8687
| 13> C 	 39.0589 	 27.6661 	 51.5306
| 14> H 	 39.9155 	 27.3992 	 52.1247
| 15> H 	 38.2445 	 27.0244 	 52.0147
| 16> C 	 38.5032 	 29.0695 	 51.7989
| 17> H 	 39.1757 	 29.8468 	 51.3548
| 18> H 	 37.5798 	 29.2708 	 51.2631
| 19> C 	 38.2997 	 29.3854 	 53.3005
| 20> H 	 37.2356 	 29.0536 	 53.4959
| 21> H 	 39.0289 	 28.7532 	 53.9554
| 22> H 	 38.339 	 30.4403 	 53.6123
| 23> S 	 40.1842 	 24.0784 	 46.3021
| 24> C 	 39.4902 	 22.5201 	 46.3615
| 25> C 	 38.1404 	 22.5337 	 46.8091
| 26> C 	 37.8253 	 23.8262 	 47.4107
| 27> C 	 38.8325 	 24.7316 	 47.3419
| 28> H 	 37.5129 	 21.6924 	 46.8706
| 29> C 	 36.5623 	 23.9246 	 48.2381
| 30> H 	 36.388 	 24.9315 	 48.4653
| 31> H 	 36.8383 	 23.3568 	 49.1521
| 32> C 	 35.3267 	 23.388 	 47.5233
| 33> H 	 34.52 	 23.2283 	 48.1629
| 34> H 	 35.574 	 22.3887 	 47.0124
| 35> C 	 34.8137 	 24.2547 	 46.3878
| 36> H 	 33.8466 	 23.8953 	 45.8751
| 37> H 	 35.601 	 24.3068 	 45.6581
| 38> H 	 34.619 	 25.2679 	 46.736
| 39> H 	 40.7736 	 28.8109 	 49.3948
| 40> H 	 39.8303 	 21.5736 	 45.8942
| 41> *
| 42>
| 43>                          ****END OF INPUT****

CARTESIAN COORDINATES (ANGSTROEM)
---------------------------------
  S     40.153100   27.163900   47.614500
  C     40.208300   27.857900   49.214700
  C     39.309300   27.305500   50.083100
  C     38.793400   26.118100   49.456700
  C     39.070200   25.951800   48.115600
  H     38.187500   25.326400   49.868700
  C     39.058900   27.666100   51.530600
  H     39.915500   27.399200   52.124700
  H     38.244500   27.024400   52.014700
  C     38.503200   29.069500   51.798900
  H     39.175700   29.846800   51.354800
  H     37.579800   29.270800   51.263100
  C     38.299700   29.385400   53.300500
  H     37.235600   29.053600   53.495900
  H     39.028900   28.753200   53.955400
  H     38.339000   30.440300   53.612300
  S     40.184200   24.078400   46.302100
  C     39.490200   22.520100   46.361500
  C     38.140400   22.533700   46.809100
  C     37.825300   23.826200   47.410700
  C     38.832500   24.731600   47.341900
  H     37.512900   21.692400   46.870600
  C     36.562300   23.924600   48.238100
  H     36.388000   24.931500   48.465300
  H     36.838300   23.356800   49.152100
  C     35.326700   23.388000   47.523300
  H     34.520000   23.228300   48.162900
  H     35.574000   22.388700   47.012400
  C     34.813700   24.254700   46.387800
  H     33.846600   23.895300   45.875100
  H     35.601000   24.306800   45.658100
  H     34.619000   25.267900   46.736000
  H     40.773600   28.810900   49.394800
  H     39.830300   21.573600   45.894200

 Total Charge           Charge          ....    0
 Multiplicity           Mult            ....    1
 Number of Electrons    NEL             ....  134
 Basis Dimension        Dim             ....  322

ORBITAL ENERGIES
----------------

  NO   OCC          E(Eh)            E(eV)
   0   2.0000     -88.966067     -2420.8898
   1   2.0000     -88.964725     -2420.8532
   2   2.0000     -10.328458      -281.0516
   3   2.0000     -10.324365      -280.9403
   4   2.0000     -10.323736      -280.9231
   5   2.0000     -10.317027      -280.7406
   6   2.0000     -10.305643      -280.4308
   7   2.0000     -10.302671      -280.3499
   8   2.0000     -10.300979      -280.3039
   9   2.0000     -10.295111      -280.1442
  10   2.0000     -10.294028      -280.1147
  11   2.0000     -10.292255      -280.0665
  12   2.0000     -10.291993      -280.0594
  13   2.0000     -10.291442      -280.0444
  14   2.0000     -10.286723      -279.9160
  15   2.0000     -10.277802      -279.6732
  16   2.0000      -8.080715      -219.8874
  17   2.0000      -8.080601      -219.8843
  18   2.0000      -6.039317      -164.3382
  19   2.0000      -6.039111      -164.3326
  20   2.0000      -6.035294      -164.2287
  21   2.0000      -6.035141      -164.2245
  22   2.0000      -6.031420      -164.1233
  23   2.0000      -6.030987      -164.1115
  24   2.0000      -1.011076       -27.5128
  25   2.0000      -0.985130       -26.8067
  26   2.0000      -0.916345       -24.9350
  27   2.0000      -0.912069       -24.8186
  28   2.0000      -0.869781       -23.6679
  29   2.0000      -0.854817       -23.2608
  30   2.0000      -0.841904       -22.9094
  31   2.0000      -0.808684       -22.0054
  32   2.0000      -0.784769       -21.3546
  33   2.0000      -0.774944       -21.0873
  34   2.0000      -0.703027       -19.1303
  35   2.0000      -0.700934       -19.0734
  36   2.0000      -0.690911       -18.8006
  37   2.0000      -0.662384       -18.0244
  38   2.0000      -0.643696       -17.5159
  39   2.0000      -0.614965       -16.7341
  40   2.0000      -0.596380       -16.2283
  41   2.0000      -0.573592       -15.6082
  42   2.0000      -0.560878       -15.2623
  43   2.0000      -0.556782       -15.1508
  44   2.0000      -0.544376       -14.8132
  45   2.0000      -0.522369       -14.2144
  46   2.0000      -0.520392       -14.1606
  47   2.0000      -0.509828       -13.8731
  48   2.0000      -0.502580       -13.6759
  49   2.0000      -0.499811       -13.6005
  50   2.0000      -0.490651       -13.3513
  51   2.0000      -0.479023       -13.0349
  52   2.0000      -0.468901       -12.7594
  53   2.0000      -0.464887       -12.6502
  54   2.0000      -0.454885       -12.3781
  55   2.0000      -0.451282       -12.2800
  56   2.0000      -0.446358       -12.1460
  57   2.0000      -0.440812       -11.9951
  58   2.0000      -0.435275       -11.8444
  59   2.0000      -0.428163       -11.6509
  60   2.0000      -0.416689       -11.3387
  61   2.0000      -0.413743       -11.2585
  62   2.0000      -0.403381       -10.9765
  63   2.0000      -0.357231        -9.7207
  64   2.0000      -0.334157        -9.0929
  65   2.0000      -0.326789        -8.8924
  66   2.0000      -0.285996        -7.7823
  67   0.0000       0.027608         0.7513
  68   0.0000       0.067578         1.8389
  69   0.0000       0.102655         2.7934
  70   0.0000       0.120100         3.2681
  71   0.0000       0.130150         3.5416

MULLIKEN ATOMIC CHARGES
-----------------------
   0 S :    0.100528
   1 C :   -0.153230
   2 C :   -0.029805
   3 C :   -0.007919
   4 C :   -0.138432
   5 H :    0.000043
   6 C :    0.039028
   7 H :    0.044241
   8 H :    0.029208
   9 C :   -0.089273
  10 H :    0.025231
  11 H :    0.034276
  12 C :   -0.092406
  13 H :    0.040170
  14 H :    0.047240
  15 H :    0.048504
  16 S :    0.108574
  17 C :   -0.088859
  18 C :   -0.044297
  19 C :   -0.095890
  20 C :   -0.113774
  21 H :    0.011407
  22 C :    0.079009
  23 H :    0.015061
  24 H :    0.061294
  25 C :   -0.061259
  26 H :    0.017656
  27 H :    0.031455
  28 C :   -0.066548
  29 H :    0.048626
  30 H :    0.034419
  31 H :    0.025432
  32 H :    0.069920
  33 H :    0.070366
Sum of atomic charges:    0.0000000

LOEWDIN ATOMIC CHARGES
----------------------
   0 S :    0.420312
   1 C :   -0.195790
   2 C :   -0.064435
   3 C :   -0.062480
   4 C :   -0.209774
   5 H :    0.026529
   6 C :   -0.035641
   7 H :    0.032814
   8 H :    0.038770
   9 C :   -0.049735
  10 H :    0.019979
  11 H :    0.025956
  12 C :   -0.078283
  13 H :    0.031056
  14 H :    0.034556
  15 H :    0.029066
  16 S :    0.385591
  17 C :   -0.193372
  18 C :   -0.071840
  19 C :   -0.053212
  20 C :   -0.178536
  21 H :    0.019426
  22 C :   -0.027072
  23 H :    0.021036
  24 H :    0.042864
  25 C :   -0.040188
  26 H :    0.014657
  27 H :    0.029866
  28 C :   -0.066481
  29 H :    0.036713
  30 H :    0.022389
  31 H :    0.020623
  32 H :    0.035560
  33 H :    0.039076

  Mayer bond orders larger than 0.100000
B(  0-S ,  1-C ) :   1.1548 B(  0-S ,  4-C ) :   1.1441 B(  1-C ,  2-C ) :   1.6055
B(  1-C , 32-H ) :   0.9585 B(  2-C ,  3-C ) :   1.2309 B(  2-C ,  6-C ) :   1.0146
B(  3-C ,  4-C ) :   1.5849 B(  3-C ,  5-H ) :   0.9858 B(  4-C , 20-C ) :   1.0477
B(  6-C ,  7-H ) :   0.9407 B(  6-C ,  8-H ) :   0.9482 B(  6-C ,  9-C ) :   1.0511
B(  9-C , 10-H ) :   0.9606 B(  9-C , 11-H ) :   0.9606 B(  9-C , 12-C ) :   1.0605
B( 12-C , 13-H ) :   0.9775 B( 12-C , 14-H ) :   0.9760 B( 12-C , 15-H ) :   0.9764
B( 16-S , 17-C ) :   1.1689 B( 16-S , 20-C ) :   1.0863 B( 17-C , 18-C ) :   1.6206
B( 17-C , 33-H ) :   0.9580 B( 18-C , 19-C ) :   1.2021 B( 18-C , 21-H ) :   0.9917
B( 19-C , 20-C ) :   1.6513 B( 19-C , 22-C ) :   1.0388 B( 22-C , 23-H ) :   0.9292
B( 22-C , 24-H ) :   0.9298 B( 22-C , 25-C ) :   1.0636 B( 25-C , 26-H ) :   0.9541
B( 25-C , 27-H ) :   0.9547 B( 25-C , 28-C ) :   1.0745 B( 28-C , 29-H ) :   0.9736
B( 28-C , 30-H ) :   0.9756 B( 28-C , 31-H ) :   0.9719

Dispersion correction           -0.013581755
FINAL SINGLE POINT ENERGY     -1339.861095471650

DIPOLE MOMENT
-------------
                                X             Y             Z
Electronic contribution:     20.21651      -4.95643     -18.04342
Nuclear contribution   :    -20.66580       4.81982      18.63223
                        -----------------------------------------
Total Dipole Moment    :     -0.44930      -0.13660       0.58881
                        -----------------------------------------
Magnitude (a.u.)       :      0.75314
Magnitude (Debye)      :      1.91434

Rotational constants in cm-1:     0.020214     0.007585     0.006084
Rotational constants in MHz :   606.013557   227.404789   182.392968

                             ****ORCA TERMINATED NORMALLY****
TOTAL RUN TIME: 0 days 0 hours 0 minutes 35 seconds 179 msec
