                         Program Version 4.2.1 -  RELEASE  -
|  1> ! wB97X-D3 SP def2-SVP
|  2> %pal
|  3> nprocs 16
|  4> end
|  5>
|  6> * xyz 0 1
|  7> S 	 11.0541 	 -11.6293 	 98.3619
|  8> C 	 10.6765 	 -12.1605 	 99.9967
|  9> C 	 9.35133 	 -11.9988 	 100.37
| 10> C 	 8.69316 	 -11.1549 	 99.4044
| 11> C 	 9.41495 	 -11.0948 	 98.1922
| 12> H 	 7.7822 	 -10.6607 	 99.5507
| 13> C 	 8.70877 	 -12.3255 	 101.691
| 14> H 	 8.58124 	 -11.3943 	 102.275
| 15> H 	 9.42785 	 -12.9142 	 102.281
| 16> C 	 7.28326 	 -12.9715 	 101.647
| 17> H 	 6.95898 	 -13.1158 	 102.685
| 18> H 	 6.47342 	 -12.2376 	 101.34
| 19> C 	 7.29272 	 -14.356 	 100.957
| 20> H 	 7.00563 	 -14.4236 	 99.9472
| 21> H 	 8.3754 	 -14.6357 	 100.921
| 22> H 	 6.73513 	 -15.057 	 101.603
| 23> S 	 9.43297 	 -8.93322 	 96.4809
| 24> C 	 8.27139 	 -9.02092 	 95.1547
| 25> C 	 7.57046 	 -10.2208 	 95.0956
| 26> C 	 7.86554 	 -11.0431 	 96.2153
| 27> C 	 8.91043 	 -10.5563 	 96.9557
| 28> H 	 6.73933 	 -10.372 	 94.3806
| 29> C 	 7.09467 	 -12.2997 	 96.4582
| 30> H 	 6.01468 	 -12.0426 	 96.2892
| 31> H 	 7.29144 	 -12.7484 	 97.4298
| 32> C 	 7.47902 	 -13.3698 	 95.4469
| 33> H 	 8.48702 	 -13.8736 	 95.6607
| 34> H 	 7.86259 	 -12.8905 	 94.578
| 35> C 	 6.41399 	 -14.4266 	 95.1949
| 36> H 	 5.68329 	 -14.5453 	 96.0173
| 37> H 	 6.75082 	 -15.3924 	 94.9971
| 38> H 	 5.81967 	 -14.104 	 94.2833
| 39> H 	 11.4414 	 -12.4039 	 100.737
| 40> H 	 8.03084 	 -8.1584 	 94.5413
| 41> *
| 42>
| 43>                          ****END OF INPUT****

CARTESIAN COORDINATES (ANGSTROEM)
---------------------------------
  S     11.054100  -11.629300   98.361900
  C     10.676500  -12.160500   99.996700
  C      9.351330  -11.998800  100.370000
  C      8.693160  -11.154900   99.404400
  C      9.414950  -11.094800   98.192200
  H      7.782200  -10.660700   99.550700
  C      8.708770  -12.325500  101.691000
  H      8.581240  -11.394300  102.275000
  H      9.427850  -12.914200  102.281000
  C      7.283260  -12.971500  101.647000
  H      6.958980  -13.115800  102.685000
  H      6.473420  -12.237600  101.340000
  C      7.292720  -14.356000  100.957000
  H      7.005630  -14.423600   99.947200
  H      8.375400  -14.635700  100.921000
  H      6.735130  -15.057000  101.603000
  S      9.432970   -8.933220   96.480900
  C      8.271390   -9.020920   95.154700
  C      7.570460  -10.220800   95.095600
  C      7.865540  -11.043100   96.215300
  C      8.910430  -10.556300   96.955700
  H      6.739330  -10.372000   94.380600
  C      7.094670  -12.299700   96.458200
  H      6.014680  -12.042600   96.289200
  H      7.291440  -12.748400   97.429800
  C      7.479020  -13.369800   95.446900
  H      8.487020  -13.873600   95.660700
  H      7.862590  -12.890500   94.578000
  C      6.413990  -14.426600   95.194900
  H      5.683290  -14.545300   96.017300
  H      6.750820  -15.392400   94.997100
  H      5.819670  -14.104000   94.283300
  H     11.441400  -12.403900  100.737000
  H      8.030840   -8.158400   94.541300

 Total Charge           Charge          ....    0
 Multiplicity           Mult            ....    1
 Number of Electrons    NEL             ....  134
 Basis Dimension        Dim             ....  322

ORBITAL ENERGIES
----------------

  NO   OCC          E(Eh)            E(eV)
   0   2.0000     -88.966389     -2420.8985
   1   2.0000     -88.965951     -2420.8866
   2   2.0000     -10.323047      -280.9044
   3   2.0000     -10.320615      -280.8382
   4   2.0000     -10.318152      -280.7712
   5   2.0000     -10.312931      -280.6291
   6   2.0000     -10.301358      -280.3142
   7   2.0000     -10.299184      -280.2551
   8   2.0000     -10.297896      -280.2200
   9   2.0000     -10.296748      -280.1888
  10   2.0000     -10.296292      -280.1764
  11   2.0000     -10.291135      -280.0360
  12   2.0000     -10.290865      -280.0287
  13   2.0000     -10.281722      -279.7799
  14   2.0000     -10.277446      -279.6635
  15   2.0000     -10.277285      -279.6591
  16   2.0000      -8.081192      -219.9004
  17   2.0000      -8.080311      -219.8764
  18   2.0000      -6.039551      -164.3445
  19   2.0000      -6.038725      -164.3221
  20   2.0000      -6.035840      -164.2436
  21   2.0000      -6.035042      -164.2218
  22   2.0000      -6.031975      -164.1384
  23   2.0000      -6.031028      -164.1126
  24   2.0000      -1.004877       -27.3441
  25   2.0000      -0.980931       -26.6925
  26   2.0000      -0.911507       -24.8034
  27   2.0000      -0.907677       -24.6991
  28   2.0000      -0.865237       -23.5443
  29   2.0000      -0.850807       -23.1516
  30   2.0000      -0.845012       -22.9939
  31   2.0000      -0.806874       -21.9562
  32   2.0000      -0.783868       -21.3301
  33   2.0000      -0.770718       -20.9723
  34   2.0000      -0.707981       -19.2652
  35   2.0000      -0.698239       -19.0001
  36   2.0000      -0.691737       -18.8231
  37   2.0000      -0.661211       -17.9925
  38   2.0000      -0.638088       -17.3633
  39   2.0000      -0.617190       -16.7946
  40   2.0000      -0.600082       -16.3291
  41   2.0000      -0.560540       -15.2531
  42   2.0000      -0.553840       -15.0707
  43   2.0000      -0.549523       -14.9533
  44   2.0000      -0.543829       -14.7984
  45   2.0000      -0.519338       -14.1319
  46   2.0000      -0.515636       -14.0312
  47   2.0000      -0.510969       -13.9042
  48   2.0000      -0.502781       -13.6814
  49   2.0000      -0.492596       -13.4042
  50   2.0000      -0.490138       -13.3373
  51   2.0000      -0.475107       -12.9283
  52   2.0000      -0.463601       -12.6152
  53   2.0000      -0.461065       -12.5462
  54   2.0000      -0.458520       -12.4770
  55   2.0000      -0.454419       -12.3654
  56   2.0000      -0.451158       -12.2766
  57   2.0000      -0.438605       -11.9350
  58   2.0000      -0.434564       -11.8251
  59   2.0000      -0.429868       -11.6973
  60   2.0000      -0.427050       -11.6206
  61   2.0000      -0.414172       -11.2702
  62   2.0000      -0.394926       -10.7465
  63   2.0000      -0.335789        -9.1373
  64   2.0000      -0.326688        -8.8896
  65   2.0000      -0.321391        -8.7455
  66   2.0000      -0.297102        -8.0846
  67   0.0000       0.038743         1.0542
  68   0.0000       0.059790         1.6270
  69   0.0000       0.109291         2.9740
  70   0.0000       0.111776         3.0416
  71   0.0000       0.120055         3.2669

MULLIKEN ATOMIC CHARGES
-----------------------
   0 S :    0.123227
   1 C :   -0.123068
   2 C :   -0.081114
   3 C :    0.057477
   4 C :   -0.195413
   5 H :    0.001338
   6 C :    0.030248
   7 H :    0.042044
   8 H :    0.022997
   9 C :   -0.097256
  10 H :    0.026212
  11 H :    0.038368
  12 C :   -0.039741
  13 H :    0.036375
  14 H :    0.032902
  15 H :    0.039878
  16 S :    0.111751
  17 C :   -0.097600
  18 C :   -0.035274
  19 C :   -0.040968
  20 C :   -0.169996
  21 H :    0.032998
  22 C :    0.098427
  23 H :    0.036850
  24 H :    0.039603
  25 C :   -0.098556
  26 H :    0.026583
  27 H :    0.013262
  28 C :   -0.031471
  29 H :    0.032591
  30 H :    0.021515
  31 H :    0.036121
  32 H :    0.050709
  33 H :    0.058978
Sum of atomic charges:    0.0000000

LOEWDIN ATOMIC CHARGES
----------------------
   0 S :    0.409834
   1 C :   -0.201566
   2 C :   -0.064879
   3 C :   -0.043150
   4 C :   -0.205398
   5 H :    0.021911
   6 C :   -0.039503
   7 H :    0.038578
   8 H :    0.028954
   9 C :   -0.049957
  10 H :    0.026736
  11 H :    0.028564
  12 C :   -0.067315
  13 H :    0.019221
  14 H :    0.034591
  15 H :    0.030905
  16 S :    0.389802
  17 C :   -0.172363
  18 C :   -0.073365
  19 C :   -0.048687
  20 C :   -0.207812
  21 H :    0.038426
  22 C :   -0.028337
  23 H :    0.038105
  24 H :    0.032911
  25 C :   -0.053489
  26 H :    0.033606
  27 H :    0.017038
  28 C :   -0.067585
  29 H :    0.028002
  30 H :    0.017046
  31 H :    0.034067
  32 H :    0.027808
  33 H :    0.027301

  Mayer bond orders larger than 0.100000
B(  0-S ,  1-C ) :   1.1358 B(  0-S ,  4-C ) :   1.1571 B(  1-C ,  2-C ) :   1.6188
B(  1-C , 32-H ) :   0.9609 B(  2-C ,  3-C ) :   1.2203 B(  2-C ,  6-C ) :   1.0316
B(  3-C ,  4-C ) :   1.5714 B(  3-C ,  5-H ) :   1.0020 B(  4-C , 20-C ) :   1.0285
B(  6-C ,  7-H ) :   0.9347 B(  6-C ,  8-H ) :   0.9422 B(  6-C ,  9-C ) :   1.0845
B(  9-C , 10-H ) :   0.9582 B(  9-C , 11-H ) :   0.9530 B(  9-C , 12-C ) :   1.0506
B( 12-C , 13-H ) :   0.9764 B( 12-C , 14-H ) :   0.9784 B( 12-C , 15-H ) :   0.9783
B( 16-S , 17-C ) :   1.1535 B( 16-S , 20-C ) :   1.1274 B( 17-C , 18-C ) :   1.6250
B( 17-C , 33-H ) :   0.9660 B( 18-C , 19-C ) :   1.2191 B( 18-C , 21-H ) :   0.9804
B( 19-C , 20-C ) :   1.6318 B( 19-C , 22-C ) :   1.0555 B( 22-C , 23-H ) :   0.9364
B( 22-C , 24-H ) :   0.9195 B( 22-C , 25-C ) :   1.0551 B( 25-C , 26-H ) :   0.9478
B( 25-C , 27-H ) :   0.9643 B( 25-C , 28-C ) :   1.0588 B( 28-C , 29-H ) :   0.9774
B( 28-C , 30-H ) :   0.9759 B( 28-C , 31-H ) :   0.9756

Dispersion correction           -0.014907747
FINAL SINGLE POINT ENERGY     -1339.862156777810

DIPOLE MOMENT
-------------
                                X             Y             Z
Electronic contribution:     19.06062      21.19656      -6.44025
Nuclear contribution   :    -19.67309     -21.34408       6.69985
                        -----------------------------------------
Total Dipole Moment    :     -0.61247      -0.14752       0.25961
                        -----------------------------------------
Magnitude (a.u.)       :      0.68138
Magnitude (Debye)      :      1.73193

Rotational constants in cm-1:     0.016391     0.010089     0.007473
Rotational constants in MHz :   491.385811   302.464507   224.046635

                             ****ORCA TERMINATED NORMALLY****
TOTAL RUN TIME: 0 days 0 hours 0 minutes 34 seconds 992 msec
