                         Program Version 4.2.1 -  RELEASE  -
|  1> ! wB97X-D3 SP def2-SVP
|  2> %pal
|  3> nprocs 16
|  4> end
|  5>
|  6> * xyz 0 1
|  7> S 	 -70.7651 	 39.9142 	 126.979
|  8> C 	 -71.4846 	 41.4219 	 126.584
|  9> C 	 -70.8806 	 42.0797 	 125.485
| 10> C 	 -69.5966 	 41.4488 	 125.207
| 11> C 	 -69.3347 	 40.3525 	 126.005
| 12> H 	 -68.9074 	 41.8592 	 124.504
| 13> C 	 -71.3204 	 43.4236 	 124.918
| 14> H 	 -72.2445 	 43.8526 	 125.402
| 15> H 	 -71.7167 	 43.1719 	 123.923
| 16> C 	 -70.2968 	 44.6198 	 124.861
| 17> H 	 -69.339 	 44.2604 	 124.349
| 18> H 	 -70.6953 	 45.2788 	 124.135
| 19> C 	 -69.9032 	 45.2384 	 126.202
| 20> H 	 -70.5966 	 45.9549 	 126.553
| 21> H 	 -69.7336 	 44.4035 	 126.934
| 22> H 	 -68.974 	 45.9135 	 126.123
| 23> S 	 -67.7664 	 38.3925 	 124.841
| 24> C 	 -66.3336 	 37.8729 	 125.681
| 25> C 	 -66.1394 	 38.5746 	 126.814
| 26> C 	 -67.1464 	 39.6542 	 127.06
| 27> C 	 -68.1536 	 39.5691 	 126.078
| 28> H 	 -65.2667 	 38.4401 	 127.432
| 29> C 	 -67.269 	 40.5846 	 128.252
| 30> H 	 -67.0424 	 39.9746 	 129.081
| 31> H 	 -68.2337 	 40.8549 	 128.515
| 32> C 	 -66.4216 	 41.8272 	 128.101
| 33> H 	 -65.4787 	 41.4279 	 127.866
| 34> H 	 -66.4078 	 42.3762 	 128.961
| 35> C 	 -67.0493 	 42.7994 	 127.08
| 36> H 	 -68.1485 	 42.872 	 127.314
| 37> H 	 -66.9849 	 42.4485 	 125.986
| 38> H 	 -66.692 	 43.7849 	 127.21
| 39> H 	 -72.4024 	 41.6966 	 127.065
| 40> H 	 -65.6956 	 37.0672 	 125.282
| 41> *
| 42>
| 43>                          ****END OF INPUT****

CARTESIAN COORDINATES (ANGSTROEM)
---------------------------------
  S    -70.765100   39.914200  126.979000
  C    -71.484600   41.421900  126.584000
  C    -70.880600   42.079700  125.485000
  C    -69.596600   41.448800  125.207000
  C    -69.334700   40.352500  126.005000
  H    -68.907400   41.859200  124.504000
  C    -71.320400   43.423600  124.918000
  H    -72.244500   43.852600  125.402000
  H    -71.716700   43.171900  123.923000
  C    -70.296800   44.619800  124.861000
  H    -69.339000   44.260400  124.349000
  H    -70.695300   45.278800  124.135000
  C    -69.903200   45.238400  126.202000
  H    -70.596600   45.954900  126.553000
  H    -69.733600   44.403500  126.934000
  H    -68.974000   45.913500  126.123000
  S    -67.766400   38.392500  124.841000
  C    -66.333600   37.872900  125.681000
  C    -66.139400   38.574600  126.814000
  C    -67.146400   39.654200  127.060000
  C    -68.153600   39.569100  126.078000
  H    -65.266700   38.440100  127.432000
  C    -67.269000   40.584600  128.252000
  H    -67.042400   39.974600  129.081000
  H    -68.233700   40.854900  128.515000
  C    -66.421600   41.827200  128.101000
  H    -65.478700   41.427900  127.866000
  H    -66.407800   42.376200  128.961000
  C    -67.049300   42.799400  127.080000
  H    -68.148500   42.872000  127.314000
  H    -66.984900   42.448500  125.986000
  H    -66.692000   43.784900  127.210000
  H    -72.402400   41.696600  127.065000
  H    -65.695600   37.067200  125.282000

 Total Charge           Charge          ....    0
 Multiplicity           Mult            ....    1
 Number of Electrons    NEL             ....  134
 Basis Dimension        Dim             ....  322

ORBITAL ENERGIES
----------------

  NO   OCC          E(Eh)            E(eV)
   0   2.0000     -88.964495     -2420.8470
   1   2.0000     -88.960234     -2420.7310
   2   2.0000     -10.324576      -280.9460
   3   2.0000     -10.319794      -280.8159
   4   2.0000     -10.316747      -280.7329
   5   2.0000     -10.313930      -280.6563
   6   2.0000     -10.308356      -280.5046
   7   2.0000     -10.307957      -280.4938
   8   2.0000     -10.301455      -280.3168
   9   2.0000     -10.297380      -280.2060
  10   2.0000     -10.296638      -280.1858
  11   2.0000     -10.293650      -280.1045
  12   2.0000     -10.284734      -279.8618
  13   2.0000     -10.276793      -279.6458
  14   2.0000     -10.276067      -279.6260
  15   2.0000     -10.271176      -279.4929
  16   2.0000      -8.079296      -219.8488
  17   2.0000      -8.075526      -219.7462
  18   2.0000      -6.037673      -164.2934
  19   2.0000      -6.034025      -164.1942
  20   2.0000      -6.033895      -164.1906
  21   2.0000      -6.030098      -164.0873
  22   2.0000      -6.029963      -164.0836
  23   2.0000      -6.026253      -163.9827
  24   2.0000      -1.002503       -27.2795
  25   2.0000      -0.978542       -26.6275
  26   2.0000      -0.914672       -24.8895
  27   2.0000      -0.903563       -24.5872
  28   2.0000      -0.870768       -23.6948
  29   2.0000      -0.846822       -23.0432
  30   2.0000      -0.840043       -22.8587
  31   2.0000      -0.814135       -22.1538
  32   2.0000      -0.781971       -21.2785
  33   2.0000      -0.769126       -20.9290
  34   2.0000      -0.708447       -19.2778
  35   2.0000      -0.701003       -19.0753
  36   2.0000      -0.688864       -18.7449
  37   2.0000      -0.653651       -17.7867
  38   2.0000      -0.642375       -17.4799
  39   2.0000      -0.622348       -16.9350
  40   2.0000      -0.605024       -16.4635
  41   2.0000      -0.563634       -15.3373
  42   2.0000      -0.559836       -15.2339
  43   2.0000      -0.553898       -15.0723
  44   2.0000      -0.543786       -14.7972
  45   2.0000      -0.533625       -14.5207
  46   2.0000      -0.509704       -13.8698
  47   2.0000      -0.502103       -13.6629
  48   2.0000      -0.495499       -13.4832
  49   2.0000      -0.492982       -13.4147
  50   2.0000      -0.491559       -13.3760
  51   2.0000      -0.473326       -12.8798
  52   2.0000      -0.470078       -12.7915
  53   2.0000      -0.466724       -12.7002
  54   2.0000      -0.457187       -12.4407
  55   2.0000      -0.449349       -12.2274
  56   2.0000      -0.446047       -12.1376
  57   2.0000      -0.440811       -11.9951
  58   2.0000      -0.432096       -11.7579
  59   2.0000      -0.421768       -11.4769
  60   2.0000      -0.419079       -11.4037
  61   2.0000      -0.409245       -11.1361
  62   2.0000      -0.408668       -11.1204
  63   2.0000      -0.334217        -9.0945
  64   2.0000      -0.330456        -8.9922
  65   2.0000      -0.315904        -8.5962
  66   2.0000      -0.305504        -8.3132
  67   0.0000       0.039730         1.0811
  68   0.0000       0.060320         1.6414
  69   0.0000       0.108522         2.9530
  70   0.0000       0.119041         3.2393
  71   0.0000       0.132876         3.6158

MULLIKEN ATOMIC CHARGES
-----------------------
   0 S :    0.119158
   1 C :   -0.124418
   2 C :   -0.081399
   3 C :    0.058099
   4 C :   -0.189119
   5 H :    0.009429
   6 C :    0.026977
   7 H :    0.027082
   8 H :    0.037788
   9 C :   -0.071443
  10 H :    0.030687
  11 H :    0.021479
  12 C :   -0.055424
  13 H :    0.022906
  14 H :    0.054643
  15 H :    0.041508
  16 S :    0.109045
  17 C :   -0.096738
  18 C :   -0.013477
  19 C :   -0.060749
  20 C :   -0.174631
  21 H :    0.016065
  22 C :    0.114168
  23 H :    0.007125
  24 H :   -0.007297
  25 C :    0.020758
  26 H :    0.012540
  27 H :    0.003661
  28 C :   -0.081089
  29 H :    0.034222
  30 H :    0.048844
  31 H :    0.024986
  32 H :    0.043985
  33 H :    0.070631
Sum of atomic charges:   -0.0000000

LOEWDIN ATOMIC CHARGES
----------------------
   0 S :    0.406142
   1 C :   -0.199660
   2 C :   -0.066755
   3 C :   -0.041220
   4 C :   -0.188829
   5 H :    0.026643
   6 C :   -0.041070
   7 H :    0.034725
   8 H :    0.036890
   9 C :   -0.044845
  10 H :    0.027545
  11 H :    0.019484
  12 C :   -0.072031
  13 H :    0.017401
  14 H :    0.033614
  15 H :    0.037635
  16 S :    0.400161
  17 C :   -0.188106
  18 C :   -0.073555
  19 C :   -0.036622
  20 C :   -0.213515
  21 H :    0.028593
  22 C :   -0.025787
  23 H :    0.027580
  24 H :    0.015721
  25 C :   -0.021721
  26 H :    0.017086
  27 H :    0.013757
  28 C :   -0.064512
  29 H :    0.028756
  30 H :    0.032796
  31 H :    0.016315
  32 H :    0.019697
  33 H :    0.037687

  Mayer bond orders larger than 0.100000
B(  0-S ,  1-C ) :   1.1615 B(  0-S ,  4-C ) :   1.1302 B(  1-C ,  2-C ) :   1.5866
B(  1-C , 32-H ) :   0.9707 B(  2-C ,  3-C ) :   1.2223 B(  2-C ,  6-C ) :   1.0274
B(  3-C ,  4-C ) :   1.6035 B(  3-C ,  5-H ) :   0.9968 B(  4-C , 20-C ) :   1.0514
B(  6-C ,  7-H ) :   0.9500 B(  6-C ,  8-H ) :   0.9300 B(  6-C ,  9-C ) :   1.0661
B(  9-C , 10-H ) :   0.9569 B(  9-C , 11-H ) :   0.9532 B(  9-C , 12-C ) :   1.0641
B( 12-C , 13-H ) :   0.9722 B( 12-C , 14-H ) :   0.9713 B( 12-C , 15-H ) :   0.9727
B( 16-S , 17-C ) :   1.1403 B( 16-S , 20-C ) :   1.1391 B( 17-C , 18-C ) :   1.6374
B( 17-C , 33-H ) :   0.9645 B( 18-C , 19-C ) :   1.2142 B( 18-C , 21-H ) :   0.9875
B( 19-C , 20-C ) :   1.5975 B( 19-C , 22-C ) :   1.0352 B( 22-C , 23-H ) :   0.9260
B( 22-C , 24-H ) :   0.9254 B( 22-C , 25-C ) :   1.0805 B( 25-C , 26-H ) :   0.9578
B( 25-C , 27-H ) :   0.9481 B( 25-C , 28-C ) :   1.0750 B( 28-C , 29-H ) :   0.9639
B( 28-C , 30-H ) :   0.9707 B( 28-C , 31-H ) :   0.9734

Dispersion correction           -0.017502304
FINAL SINGLE POINT ENERGY     -1339.865078029184

DIPOLE MOMENT
-------------
                                X             Y             Z
Electronic contribution:     -3.73784     -27.15628      -4.25084
Nuclear contribution   :      3.86698      27.70854       4.41569
                        -----------------------------------------
Total Dipole Moment    :      0.12915       0.55226       0.16485
                        -----------------------------------------
Magnitude (a.u.)       :      0.59063
Magnitude (Debye)      :      1.50126

Rotational constants in cm-1:     0.020731     0.009691     0.008225
Rotational constants in MHz :   621.509470   290.517538   246.587168

                             ****ORCA TERMINATED NORMALLY****
TOTAL RUN TIME: 0 days 0 hours 0 minutes 40 seconds 38 msec
