                         Program Version 4.2.1 -  RELEASE  -
|  1> ! wB97X-D3 SP def2-SVP
|  2> %pal
|  3> nprocs 16
|  4> end
|  5>
|  6> * xyz 0 1
|  7> S 	 -46.8389 	 57.3846 	 97.7075
|  8> C 	 -47.3047 	 57.5827 	 99.3764
|  9> C 	 -47.4427 	 56.3321 	 99.9626
| 10> C 	 -47.2115 	 55.2193 	 99.1726
| 11> C 	 -46.9163 	 55.5839 	 97.883
| 12> H 	 -47.241 	 54.2062 	 99.3896
| 13> C 	 -47.9619 	 56.1149 	 101.391
| 14> H 	 -47.2841 	 56.558 	 102.134
| 15> H 	 -47.7648 	 55.027 	 101.615
| 16> C 	 -49.3889 	 56.5161 	 101.729
| 17> H 	 -49.563 	 57.515 	 101.473
| 18> H 	 -50.1397 	 55.8778 	 101.333
| 19> C 	 -49.6477 	 56.3151 	 103.252
| 20> H 	 -49.4145 	 55.2521 	 103.425
| 21> H 	 -49.0737 	 56.9192 	 103.952
| 22> H 	 -50.6763 	 56.6651 	 103.434
| 23> S 	 -47.6072 	 54.6327 	 95.324
| 24> C 	 -46.441 	 53.5874 	 94.4826
| 25> C 	 -45.2953 	 53.4152 	 95.1909
| 26> C 	 -45.4131 	 53.9663 	 96.515
| 27> C 	 -46.5359 	 54.7537 	 96.7194
| 28> H 	 -44.4755 	 52.9104 	 94.6875
| 29> C 	 -44.373 	 53.6878 	 97.5968
| 30> H 	 -44.5398 	 52.6621 	 97.9057
| 31> H 	 -44.866 	 54.1068 	 98.4674
| 32> C 	 -42.8973 	 54.052 	 97.4931
| 33> H 	 -42.3972 	 53.5614 	 96.6802
| 34> H 	 -42.3289 	 53.8619 	 98.4617
| 35> C 	 -42.8438 	 55.61 	 97.1284
| 36> H 	 -43.3929 	 56.2468 	 97.8521
| 37> H 	 -43.2747 	 55.8173 	 96.1151
| 38> H 	 -41.8576 	 56.0131 	 97.0363
| 39> H 	 -47.4062 	 58.5466 	 99.9262
| 40> H 	 -46.673 	 53.1064 	 93.5033
| 41> *
| 42>
| 43>                          ****END OF INPUT****

CARTESIAN COORDINATES (ANGSTROEM)
---------------------------------
  S    -46.838900   57.384600   97.707500
  C    -47.304700   57.582700   99.376400
  C    -47.442700   56.332100   99.962600
  C    -47.211500   55.219300   99.172600
  C    -46.916300   55.583900   97.883000
  H    -47.241000   54.206200   99.389600
  C    -47.961900   56.114900  101.391000
  H    -47.284100   56.558000  102.134000
  H    -47.764800   55.027000  101.615000
  C    -49.388900   56.516100  101.729000
  H    -49.563000   57.515000  101.473000
  H    -50.139700   55.877800  101.333000
  C    -49.647700   56.315100  103.252000
  H    -49.414500   55.252100  103.425000
  H    -49.073700   56.919200  103.952000
  H    -50.676300   56.665100  103.434000
  S    -47.607200   54.632700   95.324000
  C    -46.441000   53.587400   94.482600
  C    -45.295300   53.415200   95.190900
  C    -45.413100   53.966300   96.515000
  C    -46.535900   54.753700   96.719400
  H    -44.475500   52.910400   94.687500
  C    -44.373000   53.687800   97.596800
  H    -44.539800   52.662100   97.905700
  H    -44.866000   54.106800   98.467400
  C    -42.897300   54.052000   97.493100
  H    -42.397200   53.561400   96.680200
  H    -42.328900   53.861900   98.461700
  C    -42.843800   55.610000   97.128400
  H    -43.392900   56.246800   97.852100
  H    -43.274700   55.817300   96.115100
  H    -41.857600   56.013100   97.036300
  H    -47.406200   58.546600   99.926200
  H    -46.673000   53.106400   93.503300

 Total Charge           Charge          ....    0
 Multiplicity           Mult            ....    1
 Number of Electrons    NEL             ....  134
 Basis Dimension        Dim             ....  322

ORBITAL ENERGIES
----------------

  NO   OCC          E(Eh)            E(eV)
   0   2.0000     -88.967816     -2420.9374
   1   2.0000     -88.962746     -2420.7994
   2   2.0000     -10.334021      -281.2030
   3   2.0000     -10.327418      -281.0233
   4   2.0000     -10.321281      -280.8563
   5   2.0000     -10.318462      -280.7796
   6   2.0000     -10.307643      -280.4852
   7   2.0000     -10.297942      -280.2213
   8   2.0000     -10.296116      -280.1716
   9   2.0000     -10.294245      -280.1206
  10   2.0000     -10.292294      -280.0675
  11   2.0000     -10.290055      -280.0066
  12   2.0000     -10.285171      -279.8737
  13   2.0000     -10.279847      -279.7288
  14   2.0000     -10.279646      -279.7234
  15   2.0000     -10.274788      -279.5912
  16   2.0000      -8.081527      -219.9095
  17   2.0000      -8.077106      -219.7892
  18   2.0000      -6.039969      -164.3559
  19   2.0000      -6.036157      -164.2522
  20   2.0000      -6.035667      -164.2388
  21   2.0000      -6.032418      -164.1504
  22   2.0000      -6.031718      -164.1314
  23   2.0000      -6.027780      -164.0242
  24   2.0000      -1.003549       -27.3079
  25   2.0000      -0.983490       -26.7621
  26   2.0000      -0.908657       -24.7258
  27   2.0000      -0.900787       -24.5117
  28   2.0000      -0.868454       -23.6318
  29   2.0000      -0.855233       -23.2721
  30   2.0000      -0.838060       -22.8048
  31   2.0000      -0.816538       -22.2191
  32   2.0000      -0.777065       -21.1450
  33   2.0000      -0.763799       -20.7840
  34   2.0000      -0.705913       -19.2089
  35   2.0000      -0.703436       -19.1415
  36   2.0000      -0.694529       -18.8991
  37   2.0000      -0.654448       -17.8084
  38   2.0000      -0.648208       -17.6386
  39   2.0000      -0.620694       -16.8899
  40   2.0000      -0.592065       -16.1109
  41   2.0000      -0.575858       -15.6699
  42   2.0000      -0.561222       -15.2716
  43   2.0000      -0.547899       -14.9091
  44   2.0000      -0.534780       -14.5521
  45   2.0000      -0.525219       -14.2919
  46   2.0000      -0.518271       -14.1029
  47   2.0000      -0.511368       -13.9150
  48   2.0000      -0.508607       -13.8399
  49   2.0000      -0.494345       -13.4518
  50   2.0000      -0.484046       -13.1716
  51   2.0000      -0.479493       -13.0477
  52   2.0000      -0.461982       -12.5712
  53   2.0000      -0.456579       -12.4241
  54   2.0000      -0.453286       -12.3345
  55   2.0000      -0.444593       -12.0980
  56   2.0000      -0.441809       -12.0222
  57   2.0000      -0.437443       -11.9034
  58   2.0000      -0.434946       -11.8355
  59   2.0000      -0.420937       -11.4543
  60   2.0000      -0.416447       -11.3321
  61   2.0000      -0.411601       -11.2002
  62   2.0000      -0.410376       -11.1669
  63   2.0000      -0.345421        -9.3994
  64   2.0000      -0.333644        -9.0789
  65   2.0000      -0.325770        -8.8647
  66   2.0000      -0.299176        -8.1410
  67   0.0000       0.036974         1.0061
  68   0.0000       0.056902         1.5484
  69   0.0000       0.115202         3.1348
  70   0.0000       0.122576         3.3355
  71   0.0000       0.125069         3.4033

MULLIKEN ATOMIC CHARGES
-----------------------
   0 S :    0.112717
   1 C :   -0.129995
   2 C :   -0.068887
   3 C :    0.089084
   4 C :   -0.175739
   5 H :   -0.006925
   6 C :    0.022438
   7 H :    0.024969
   8 H :    0.010947
   9 C :   -0.005851
  10 H :    0.014176
  11 H :    0.028051
  12 C :   -0.079111
  13 H :    0.036494
  14 H :    0.025729
  15 H :    0.036248
  16 S :    0.098204
  17 C :   -0.118034
  18 C :   -0.021761
  19 C :   -0.052444
  20 C :   -0.175075
  21 H :    0.028694
  22 C :    0.098409
  23 H :    0.022580
  24 H :   -0.010655
  25 C :   -0.040320
  26 H :    0.031410
  27 H :    0.050739
  28 C :   -0.089331
  29 H :    0.038237
  30 H :    0.041780
  31 H :    0.022929
  32 H :    0.066543
  33 H :    0.073749
Sum of atomic charges:    0.0000000

LOEWDIN ATOMIC CHARGES
----------------------
   0 S :    0.394592
   1 C :   -0.204558
   2 C :   -0.070772
   3 C :   -0.052532
   4 C :   -0.165299
   5 H :    0.027019
   6 C :   -0.039709
   7 H :    0.030042
   8 H :    0.029536
   9 C :   -0.028796
  10 H :    0.014307
  11 H :    0.024935
  12 C :   -0.064821
  13 H :    0.027310
  14 H :    0.018004
  15 H :    0.028676
  16 S :    0.381551
  17 C :   -0.172884
  18 C :   -0.076351
  19 C :   -0.046036
  20 C :   -0.209536
  21 H :    0.037804
  22 C :   -0.045521
  23 H :    0.031915
  24 H :    0.029769
  25 C :   -0.035129
  26 H :    0.019723
  27 H :    0.038078
  28 C :   -0.072930
  29 H :    0.026112
  30 H :    0.030675
  31 H :    0.016133
  32 H :    0.040829
  33 H :    0.037864

  Mayer bond orders larger than 0.100000
B(  0-S ,  1-C ) :   1.1401 B(  0-S ,  4-C ) :   1.1578 B(  1-C ,  2-C ) :   1.5958
B(  1-C ,  4-C ) :   0.1074 B(  1-C , 32-H ) :   0.9671 B(  2-C ,  3-C ) :   1.2477
B(  2-C ,  6-C ) :   1.0126 B(  3-C ,  4-C ) :   1.5717 B(  3-C ,  5-H ) :   1.0071
B(  4-C , 20-C ) :   1.0094 B(  6-C ,  7-H ) :   0.9389 B(  6-C ,  8-H ) :   0.9420
B(  6-C ,  9-C ) :   1.0715 B(  9-C , 10-H ) :   0.9547 B(  9-C , 11-H ) :   0.9564
B(  9-C , 12-C ) :   1.0705 B( 12-C , 13-H ) :   0.9784 B( 12-C , 14-H ) :   0.9775
B( 12-C , 15-H ) :   0.9753 B( 16-S , 17-C ) :   1.1448 B( 16-S , 20-C ) :   1.1295
B( 17-C , 18-C ) :   1.6436 B( 17-C , 33-H ) :   0.9595 B( 18-C , 19-C ) :   1.1974
B( 18-C , 21-H ) :   0.9943 B( 19-C , 20-C ) :   1.6180 B( 19-C , 22-C ) :   1.0353
B( 22-C , 23-H ) :   0.9229 B( 22-C , 24-H ) :   0.9179 B( 22-C , 25-C ) :   1.0641
B( 25-C , 26-H ) :   0.9571 B( 25-C , 27-H ) :   0.9544 B( 25-C , 28-C ) :   1.0644
B( 28-C , 29-H ) :   0.9788 B( 28-C , 30-H ) :   0.9729 B( 28-C , 31-H ) :   0.9781

Dispersion correction           -0.014756136
FINAL SINGLE POINT ENERGY     -1339.867449781084

DIPOLE MOMENT
-------------
                                X             Y             Z
Electronic contribution:     -5.88641       2.09530     -21.69612
Nuclear contribution   :      6.11761      -2.38934      22.08558
                        -----------------------------------------
Total Dipole Moment    :      0.23120      -0.29404       0.38947
                        -----------------------------------------
Magnitude (a.u.)       :      0.54000
Magnitude (Debye)      :      1.37257

Rotational constants in cm-1:     0.021856     0.007426     0.006694
Rotational constants in MHz :   655.239865   222.619037   200.667527

                             ****ORCA TERMINATED NORMALLY****
TOTAL RUN TIME: 0 days 0 hours 0 minutes 29 seconds 612 msec
