                         Program Version 4.2.1 -  RELEASE  -
|  1> ! wB97X-D3 SP def2-SVP
|  2> %pal
|  3> nprocs 16
|  4> end
|  5>
|  6> * xyz 0 1
|  7> S 	 56.2001 	 16.0905 	 59.9261
|  8> C 	 57.436 	 17.1336 	 60.6116
|  9> C 	 57.8656 	 16.6974 	 61.8261
| 10> C 	 57.3597 	 15.4444 	 62.1756
| 11> C 	 56.3893 	 14.9907 	 61.3001
| 12> H 	 57.7387 	 14.8436 	 62.9997
| 13> C 	 59.0553 	 17.3652 	 62.5341
| 14> H 	 59.9688 	 17.2222 	 62.0357
| 15> H 	 59.1747 	 16.8716 	 63.5016
| 16> C 	 58.9303 	 18.8648 	 62.8521
| 17> H 	 59.8374 	 19.2596 	 63.1975
| 18> H 	 58.8484 	 19.4791 	 61.9008
| 19> C 	 57.7616 	 19.1967 	 63.8161
| 20> H 	 56.8985 	 18.7739 	 63.2863
| 21> H 	 57.8021 	 18.6784 	 64.8376
| 22> H 	 57.6852 	 20.2878 	 63.9823
| 23> S 	 53.8018 	 14.1049 	 61.458
| 24> C 	 53.384 	 12.4149 	 61.3126
| 25> C 	 54.5192 	 11.6412 	 61.3367
| 26> C 	 55.7777 	 12.4335 	 61.3991
| 27> C 	 55.5828 	 13.8327 	 61.412
| 28> H 	 54.4525 	 10.5046 	 61.2524
| 29> C 	 57.1137 	 11.7385 	 61.4034
| 30> H 	 57.1308 	 11.1251 	 62.2731
| 31> H 	 57.955 	 12.4166 	 61.5973
| 32> C 	 57.4353 	 10.9099 	 60.1174
| 33> H 	 56.8505 	 9.95348 	 60.1224
| 34> H 	 58.5329 	 10.7281 	 60.2274
| 35> C 	 57.3931 	 11.606 	 58.771
| 36> H 	 57.5455 	 10.9304 	 57.9014
| 37> H 	 58.1992 	 12.3421 	 58.6614
| 38> H 	 56.4469 	 11.9759 	 58.761
| 39> H 	 57.7099 	 18.0636 	 60.1407
| 40> H 	 52.3417 	 12.0431 	 61.4282
| 41> *
| 42>
| 43>                          ****END OF INPUT****

CARTESIAN COORDINATES (ANGSTROEM)
---------------------------------
  S     56.200100   16.090500   59.926100
  C     57.436000   17.133600   60.611600
  C     57.865600   16.697400   61.826100
  C     57.359700   15.444400   62.175600
  C     56.389300   14.990700   61.300100
  H     57.738700   14.843600   62.999700
  C     59.055300   17.365200   62.534100
  H     59.968800   17.222200   62.035700
  H     59.174700   16.871600   63.501600
  C     58.930300   18.864800   62.852100
  H     59.837400   19.259600   63.197500
  H     58.848400   19.479100   61.900800
  C     57.761600   19.196700   63.816100
  H     56.898500   18.773900   63.286300
  H     57.802100   18.678400   64.837600
  H     57.685200   20.287800   63.982300
  S     53.801800   14.104900   61.458000
  C     53.384000   12.414900   61.312600
  C     54.519200   11.641200   61.336700
  C     55.777700   12.433500   61.399100
  C     55.582800   13.832700   61.412000
  H     54.452500   10.504600   61.252400
  C     57.113700   11.738500   61.403400
  H     57.130800   11.125100   62.273100
  H     57.955000   12.416600   61.597300
  C     57.435300   10.909900   60.117400
  H     56.850500    9.953480   60.122400
  H     58.532900   10.728100   60.227400
  C     57.393100   11.606000   58.771000
  H     57.545500   10.930400   57.901400
  H     58.199200   12.342100   58.661400
  H     56.446900   11.975900   58.761000
  H     57.709900   18.063600   60.140700
  H     52.341700   12.043100   61.428200

 Total Charge           Charge          ....    0
 Multiplicity           Mult            ....    1
 Number of Electrons    NEL             ....  134
 Basis Dimension        Dim             ....  322

ORBITAL ENERGIES
----------------

  NO   OCC          E(Eh)            E(eV)
   0   2.0000     -88.969218     -2420.9755
   1   2.0000     -88.958543     -2420.6850
   2   2.0000     -10.330193      -281.0989
   3   2.0000     -10.329881      -281.0903
   4   2.0000     -10.322566      -280.8913
   5   2.0000     -10.313209      -280.6367
   6   2.0000     -10.313078      -280.6331
   7   2.0000     -10.305015      -280.4137
   8   2.0000     -10.297674      -280.2140
   9   2.0000     -10.295943      -280.1668
  10   2.0000     -10.290055      -280.0066
  11   2.0000     -10.290024      -280.0058
  12   2.0000     -10.289147      -279.9819
  13   2.0000     -10.287421      -279.9350
  14   2.0000     -10.282941      -279.8130
  15   2.0000     -10.266439      -279.3640
  16   2.0000      -8.083559      -219.9648
  17   2.0000      -8.073021      -219.6781
  18   2.0000      -6.041979      -164.4106
  19   2.0000      -6.038118      -164.3055
  20   2.0000      -6.034418      -164.2049
  21   2.0000      -6.031701      -164.1309
  22   2.0000      -6.027467      -164.0157
  23   2.0000      -6.023676      -163.9126
  24   2.0000      -1.006407       -27.3857
  25   2.0000      -0.978737       -26.6328
  26   2.0000      -0.910273       -24.7698
  27   2.0000      -0.905264       -24.6335
  28   2.0000      -0.871184       -23.7061
  29   2.0000      -0.850858       -23.1530
  30   2.0000      -0.841593       -22.9009
  31   2.0000      -0.811398       -22.0793
  32   2.0000      -0.783413       -21.3178
  33   2.0000      -0.772764       -21.0280
  34   2.0000      -0.709351       -19.3024
  35   2.0000      -0.701945       -19.1009
  36   2.0000      -0.685190       -18.6450
  37   2.0000      -0.652585       -17.7577
  38   2.0000      -0.641039       -17.4435
  39   2.0000      -0.615986       -16.7618
  40   2.0000      -0.596268       -16.2253
  41   2.0000      -0.570138       -15.5142
  42   2.0000      -0.557878       -15.1806
  43   2.0000      -0.550537       -14.9809
  44   2.0000      -0.548558       -14.9270
  45   2.0000      -0.536486       -14.5985
  46   2.0000      -0.514317       -13.9953
  47   2.0000      -0.507642       -13.8136
  48   2.0000      -0.500176       -13.6105
  49   2.0000      -0.495267       -13.4769
  50   2.0000      -0.490043       -13.3348
  51   2.0000      -0.476044       -12.9538
  52   2.0000      -0.473376       -12.8812
  53   2.0000      -0.469586       -12.7781
  54   2.0000      -0.455437       -12.3931
  55   2.0000      -0.446331       -12.1453
  56   2.0000      -0.443121       -12.0579
  57   2.0000      -0.434399       -11.8206
  58   2.0000      -0.431172       -11.7328
  59   2.0000      -0.425369       -11.5749
  60   2.0000      -0.417643       -11.3646
  61   2.0000      -0.409697       -11.1484
  62   2.0000      -0.397523       -10.8171
  63   2.0000      -0.344124        -9.3641
  64   2.0000      -0.337095        -9.1728
  65   2.0000      -0.322881        -8.7860
  66   2.0000      -0.296045        -8.0558
  67   0.0000       0.030058         0.8179
  68   0.0000       0.058683         1.5968
  69   0.0000       0.112175         3.0524
  70   0.0000       0.116912         3.1813
  71   0.0000       0.131753         3.5852

MULLIKEN ATOMIC CHARGES
-----------------------
   0 S :    0.129788
   1 C :   -0.128449
   2 C :   -0.068987
   3 C :    0.043681
   4 C :   -0.162969
   5 H :    0.019386
   6 C :    0.083010
   7 H :    0.032924
   8 H :    0.010821
   9 C :   -0.076341
  10 H :    0.007504
  11 H :    0.022829
  12 C :   -0.080553
  13 H :    0.046643
  14 H :    0.041506
  15 H :    0.045286
  16 S :    0.077769
  17 C :   -0.102074
  18 C :   -0.056791
  19 C :   -0.050709
  20 C :   -0.165772
  21 H :    0.050053
  22 C :    0.090255
  23 H :    0.026793
  24 H :    0.013025
  25 C :   -0.129017
  26 H :    0.041147
  27 H :    0.029671
  28 C :   -0.010000
  29 H :    0.035090
  30 H :    0.031981
  31 H :    0.021714
  32 H :    0.049651
  33 H :    0.081136
Sum of atomic charges:   -0.0000000

LOEWDIN ATOMIC CHARGES
----------------------
   0 S :    0.409004
   1 C :   -0.181868
   2 C :   -0.073564
   3 C :   -0.052617
   4 C :   -0.194574
   5 H :    0.035945
   6 C :   -0.023182
   7 H :    0.027603
   8 H :    0.027887
   9 C :   -0.043948
  10 H :    0.012788
  11 H :    0.025559
  12 C :   -0.073363
  13 H :    0.028905
  14 H :    0.031625
  15 H :    0.028410
  16 S :    0.376615
  17 C :   -0.189256
  18 C :   -0.087490
  19 C :   -0.050987
  20 C :   -0.190726
  21 H :    0.043551
  22 C :   -0.036496
  23 H :    0.031935
  24 H :    0.029893
  25 C :   -0.044300
  26 H :    0.025046
  27 H :    0.027995
  28 C :   -0.058947
  29 H :    0.032641
  30 H :    0.028233
  31 H :    0.010701
  32 H :    0.024916
  33 H :    0.042068

  Mayer bond orders larger than 0.100000
B(  0-S ,  1-C ) :   1.1435 B(  0-S ,  4-C ) :   1.1499 B(  1-C ,  2-C ) :   1.5929
B(  1-C ,  4-C ) :   0.1039 B(  1-C , 32-H ) :   0.9724 B(  2-C ,  3-C ) :   1.2616
B(  2-C ,  6-C ) :   1.0060 B(  3-C ,  4-C ) :   1.5564 B(  3-C ,  5-H ) :   0.9944
B(  4-C , 20-C ) :   1.0754 B(  6-C ,  7-H ) :   0.9451 B(  6-C ,  8-H ) :   0.9403
B(  6-C ,  9-C ) :   1.0820 B(  9-C , 10-H ) :   0.9527 B(  9-C , 11-H ) :   0.9519
B(  9-C , 12-C ) :   1.0643 B( 12-C , 13-H ) :   0.9757 B( 12-C , 14-H ) :   0.9745
B( 12-C , 15-H ) :   0.9748 B( 16-S , 17-C ) :   1.1514 B( 16-S , 20-C ) :   1.1160
B( 17-C , 18-C ) :   1.6276 B( 17-C , 33-H ) :   0.9605 B( 18-C , 19-C ) :   1.2041
B( 18-C , 21-H ) :   0.9775 B( 19-C , 20-C ) :   1.5973 B( 19-C , 22-C ) :   1.0517
B( 22-C , 23-H ) :   0.9301 B( 22-C , 24-H ) :   0.9362 B( 22-C , 25-C ) :   1.0687
B( 25-C , 26-H ) :   0.9564 B( 25-C , 27-H ) :   0.9602 B( 25-C , 28-C ) :   1.0718
B( 28-C , 29-H ) :   0.9713 B( 28-C , 30-H ) :   0.9747 B( 28-C , 31-H ) :   0.9752

Dispersion correction           -0.014624137
FINAL SINGLE POINT ENERGY     -1339.870556904640

DIPOLE MOMENT
-------------
                                X             Y             Z
Electronic contribution:    -17.71290      -0.47792      -4.42427
Nuclear contribution   :     18.27870       0.28131       4.59840
                        -----------------------------------------
Total Dipole Moment    :      0.56580      -0.19661       0.17413
                        -----------------------------------------
Magnitude (a.u.)       :      0.62378
Magnitude (Debye)      :      1.58553

Rotational constants in cm-1:     0.022855     0.007674     0.006820
Rotational constants in MHz :   685.162757   230.051868   204.473047

                             ****ORCA TERMINATED NORMALLY****
TOTAL RUN TIME: 0 days 0 hours 0 minutes 29 seconds 788 msec
