                         Program Version 4.2.1 -  RELEASE  -
|  1> ! wB97X-D3 SP def2-SVP
|  2> %pal
|  3> nprocs 16
|  4> end
|  5>
|  6> * xyz 0 1
|  7> S 	 -72.6571 	 51.3306 	 123.557
|  8> C 	 -71.7523 	 51.2976 	 122.072
|  9> C 	 -70.4675 	 50.7775 	 122.299
| 10> C 	 -70.3463 	 50.0848 	 123.571
| 11> C 	 -71.4408 	 50.2397 	 124.38
| 12> H 	 -69.5274 	 49.5596 	 124.039
| 13> C 	 -69.4033 	 50.9544 	 121.275
| 14> H 	 -68.9175 	 51.9098 	 121.528
| 15> H 	 -69.8477 	 51.0113 	 120.244
| 16> C 	 -68.3476 	 49.8498 	 121.317
| 17> H 	 -67.7373 	 49.9852 	 122.179
| 18> H 	 -68.8403 	 48.8307 	 121.359
| 19> C 	 -67.3909 	 49.9244 	 120.073
| 20> H 	 -66.4811 	 49.2929 	 120.277
| 21> H 	 -67.8795 	 49.5928 	 119.215
| 22> H 	 -67.0537 	 51.0014 	 119.902
| 23> S 	 -71.8118 	 51.1878 	 126.994
| 24> C 	 -71.8641 	 50.0111 	 128.293
| 25> C 	 -71.6151 	 48.7192 	 127.822
| 26> C 	 -71.2468 	 48.6525 	 126.439
| 27> C 	 -71.4325 	 49.8869 	 125.806
| 28> H 	 -71.8277 	 47.9073 	 128.557
| 29> C 	 -70.9623 	 47.3466 	 125.67
| 30> H 	 -70.1343 	 46.7367 	 126.139
| 31> H 	 -70.6326 	 47.5174 	 124.697
| 32> C 	 -72.185 	 46.51 	 125.678
| 33> H 	 -72.4585 	 46.3867 	 126.683
| 34> H 	 -71.925 	 45.5304 	 125.345
| 35> C 	 -73.2213 	 47.1728 	 124.68
| 36> H 	 -73.3376 	 48.2279 	 124.897
| 37> H 	 -74.2401 	 46.7235 	 124.855
| 38> H 	 -72.938 	 46.9184 	 123.618
| 39> H 	 -71.9871 	 51.6727 	 121.112
| 40> H 	 -72.2457 	 50.2838 	 129.254
| 41> *
| 42>
| 43>                          ****END OF INPUT****

CARTESIAN COORDINATES (ANGSTROEM)
---------------------------------
  S    -72.657100   51.330600  123.557000
  C    -71.752300   51.297600  122.072000
  C    -70.467500   50.777500  122.299000
  C    -70.346300   50.084800  123.571000
  C    -71.440800   50.239700  124.380000
  H    -69.527400   49.559600  124.039000
  C    -69.403300   50.954400  121.275000
  H    -68.917500   51.909800  121.528000
  H    -69.847700   51.011300  120.244000
  C    -68.347600   49.849800  121.317000
  H    -67.737300   49.985200  122.179000
  H    -68.840300   48.830700  121.359000
  C    -67.390900   49.924400  120.073000
  H    -66.481100   49.292900  120.277000
  H    -67.879500   49.592800  119.215000
  H    -67.053700   51.001400  119.902000
  S    -71.811800   51.187800  126.994000
  C    -71.864100   50.011100  128.293000
  C    -71.615100   48.719200  127.822000
  C    -71.246800   48.652500  126.439000
  C    -71.432500   49.886900  125.806000
  H    -71.827700   47.907300  128.557000
  C    -70.962300   47.346600  125.670000
  H    -70.134300   46.736700  126.139000
  H    -70.632600   47.517400  124.697000
  C    -72.185000   46.510000  125.678000
  H    -72.458500   46.386700  126.683000
  H    -71.925000   45.530400  125.345000
  C    -73.221300   47.172800  124.680000
  H    -73.337600   48.227900  124.897000
  H    -74.240100   46.723500  124.855000
  H    -72.938000   46.918400  123.618000
  H    -71.987100   51.672700  121.112000
  H    -72.245700   50.283800  129.254000

 Total Charge           Charge          ....    0
 Multiplicity           Mult            ....    1
 Number of Electrons    NEL             ....  134
 Basis Dimension        Dim             ....  322

ORBITAL ENERGIES
----------------

  NO   OCC          E(Eh)            E(eV)
   0   2.0000     -88.968611     -2420.9590
   1   2.0000     -88.964448     -2420.8457
   2   2.0000     -10.334845      -281.2254
   3   2.0000     -10.333543      -281.1900
   4   2.0000     -10.317908      -280.7646
   5   2.0000     -10.314208      -280.6639
   6   2.0000     -10.309886      -280.5462
   7   2.0000     -10.305186      -280.4184
   8   2.0000     -10.302174      -280.3364
   9   2.0000     -10.298519      -280.2369
  10   2.0000     -10.295428      -280.1528
  11   2.0000     -10.290110      -280.0081
  12   2.0000     -10.287194      -279.9288
  13   2.0000     -10.284867      -279.8655
  14   2.0000     -10.278345      -279.6880
  15   2.0000     -10.275116      -279.6001
  16   2.0000      -8.081877      -219.9190
  17   2.0000      -8.078495      -219.8270
  18   2.0000      -6.040586      -164.3727
  19   2.0000      -6.037046      -164.2764
  20   2.0000      -6.036699      -164.2669
  21   2.0000      -6.033126      -164.1697
  22   2.0000      -6.032375      -164.1493
  23   2.0000      -6.029230      -164.0637
  24   2.0000      -0.998945       -27.1827
  25   2.0000      -0.978017       -26.6132
  26   2.0000      -0.914653       -24.8890
  27   2.0000      -0.911303       -24.7978
  28   2.0000      -0.870523       -23.6881
  29   2.0000      -0.844390       -22.9770
  30   2.0000      -0.836410       -22.7599
  31   2.0000      -0.813650       -22.1406
  32   2.0000      -0.777554       -21.1583
  33   2.0000      -0.766081       -20.8461
  34   2.0000      -0.711151       -19.3514
  35   2.0000      -0.700745       -19.0683
  36   2.0000      -0.689586       -18.7646
  37   2.0000      -0.650028       -17.6881
  38   2.0000      -0.643723       -17.5166
  39   2.0000      -0.617581       -16.8052
  40   2.0000      -0.602757       -16.4018
  41   2.0000      -0.576340       -15.6830
  42   2.0000      -0.561984       -15.2924
  43   2.0000      -0.549522       -14.9532
  44   2.0000      -0.538001       -14.6398
  45   2.0000      -0.524345       -14.2681
  46   2.0000      -0.512006       -13.9324
  47   2.0000      -0.508517       -13.8374
  48   2.0000      -0.503284       -13.6951
  49   2.0000      -0.493553       -13.4303
  50   2.0000      -0.489296       -13.3144
  51   2.0000      -0.477536       -12.9944
  52   2.0000      -0.472189       -12.8489
  53   2.0000      -0.463396       -12.6096
  54   2.0000      -0.459506       -12.5038
  55   2.0000      -0.441864       -12.0237
  56   2.0000      -0.440487       -11.9863
  57   2.0000      -0.434974       -11.8362
  58   2.0000      -0.431604       -11.7445
  59   2.0000      -0.430470       -11.7137
  60   2.0000      -0.420987       -11.4556
  61   2.0000      -0.414800       -11.2873
  62   2.0000      -0.409974       -11.1560
  63   2.0000      -0.352146        -9.5824
  64   2.0000      -0.331594        -9.0231
  65   2.0000      -0.322810        -8.7841
  66   2.0000      -0.287538        -7.8243
  67   0.0000       0.025211         0.6860
  68   0.0000       0.059463         1.6181
  69   0.0000       0.110282         3.0009
  70   0.0000       0.121815         3.3148
  71   0.0000       0.122433         3.3316

MULLIKEN ATOMIC CHARGES
-----------------------
   0 S :    0.107673
   1 C :   -0.084652
   2 C :   -0.110069
   3 C :    0.029591
   4 C :   -0.133277
   5 H :    0.027062
   6 C :    0.052634
   7 H :    0.048837
   8 H :    0.033008
   9 C :   -0.113798
  10 H :    0.030884
  11 H :    0.043505
  12 C :   -0.048803
  13 H :    0.043642
  14 H :    0.026872
  15 H :    0.036266
  16 S :    0.096423
  17 C :   -0.101293
  18 C :   -0.057764
  19 C :   -0.036760
  20 C :   -0.184527
  21 H :    0.044695
  22 C :    0.085263
  23 H :    0.032980
  24 H :   -0.007701
  25 C :   -0.025245
  26 H :    0.009535
  27 H :    0.013018
  28 C :   -0.078006
  29 H :    0.051647
  30 H :    0.032914
  31 H :    0.047762
  32 H :    0.032439
  33 H :    0.055246
Sum of atomic charges:   -0.0000000

LOEWDIN ATOMIC CHARGES
----------------------
   0 S :    0.377452
   1 C :   -0.194546
   2 C :   -0.059211
   3 C :   -0.058563
   4 C :   -0.171933
   5 H :    0.034951
   6 C :   -0.039632
   7 H :    0.039963
   8 H :    0.035108
   9 C :   -0.045110
  10 H :    0.018675
  11 H :    0.030112
  12 C :   -0.064515
  13 H :    0.032257
  14 H :    0.012911
  15 H :    0.031338
  16 S :    0.378767
  17 C :   -0.182974
  18 C :   -0.075441
  19 C :   -0.053217
  20 C :   -0.180563
  21 H :    0.040917
  22 C :   -0.026193
  23 H :    0.036496
  24 H :    0.014959
  25 C :   -0.032435
  26 H :    0.013634
  27 H :    0.018584
  28 C :   -0.065790
  29 H :    0.024750
  30 H :    0.027718
  31 H :    0.033920
  32 H :    0.023804
  33 H :    0.023807

  Mayer bond orders larger than 0.100000
B(  0-S ,  1-C ) :   1.1261 B(  0-S ,  4-C ) :   1.1145 B(  1-C ,  2-C ) :   1.6192
B(  1-C , 32-H ) :   0.9742 B(  2-C ,  3-C ) :   1.2082 B(  2-C ,  6-C ) :   1.0314
B(  3-C ,  4-C ) :   1.5873 B(  3-C ,  5-H ) :   0.9880 B(  4-C , 20-C ) :   1.0575
B(  6-C ,  7-H ) :   0.9196 B(  6-C ,  8-H ) :   0.9478 B(  6-C ,  9-C ) :   1.0805
B(  9-C , 10-H ) :   0.9446 B(  9-C , 11-H ) :   0.9621 B(  9-C , 12-C ) :   1.0797
B( 12-C , 13-H ) :   0.9758 B( 12-C , 14-H ) :   0.9785 B( 12-C , 15-H ) :   0.9730
B( 16-S , 17-C ) :   1.1448 B( 16-S , 20-C ) :   1.1351 B( 17-C , 18-C ) :   1.6312
B( 17-C , 33-H ) :   0.9695 B( 18-C , 19-C ) :   1.2143 B( 18-C , 21-H ) :   0.9797
B( 19-C , 20-C ) :   1.5966 B( 19-C , 22-C ) :   1.0462 B( 22-C , 23-H ) :   0.9308
B( 22-C , 24-H ) :   0.9285 B( 22-C , 25-C ) :   1.0862 B( 25-C , 26-H ) :   0.9581
B( 25-C , 27-H ) :   0.9500 B( 25-C , 28-C ) :   1.0585 B( 28-C , 29-H ) :   0.9771
B( 28-C , 30-H ) :   0.9744 B( 28-C , 31-H ) :   0.9744

Dispersion correction           -0.014939734
FINAL SINGLE POINT ENERGY     -1339.863755887843

DIPOLE MOMENT
-------------
                                X             Y             Z
Electronic contribution:    -11.82740      16.39795      15.09867
Nuclear contribution   :     12.20952     -16.78124     -15.34500
                        -----------------------------------------
Total Dipole Moment    :      0.38212      -0.38329      -0.24633
                        -----------------------------------------
Magnitude (a.u.)       :      0.59465
Magnitude (Debye)      :      1.51147

Rotational constants in cm-1:     0.020007     0.008244     0.007313
Rotational constants in MHz :   599.784100   247.135382   219.245760

                             ****ORCA TERMINATED NORMALLY****
TOTAL RUN TIME: 0 days 0 hours 0 minutes 34 seconds 596 msec
