                         Program Version 4.2.1 -  RELEASE  -
|  1> ! wB97X-D3 SP def2-SVP
|  2> %pal
|  3> nprocs 16
|  4> end
|  5>
|  6> * xyz 0 1
|  7> S 	 -10.9086 	 66.1505 	 54.4272
|  8> C 	 -10.0138 	 65.1286 	 55.4828
|  9> C 	 -9.42589 	 64.0476 	 54.8219
| 10> C 	 -9.45548 	 64.1699 	 53.3964
| 11> C 	 -10.1329 	 65.3868 	 53.0229
| 12> H 	 -9.12299 	 63.4356 	 52.6578
| 13> C 	 -8.89952 	 62.7987 	 55.5432
| 14> H 	 -7.90636 	 63.0102 	 55.8072
| 15> H 	 -8.88058 	 62.0666 	 54.7288
| 16> C 	 -9.77854 	 62.4081 	 56.7338
| 17> H 	 -9.66915 	 63.1656 	 57.5498
| 18> H 	 -10.7962 	 62.4993 	 56.4989
| 19> C 	 -9.57304 	 60.9758 	 57.2697
| 20> H 	 -9.63908 	 60.2765 	 56.4119
| 21> H 	 -8.48981 	 60.8447 	 57.5982
| 22> H 	 -10.2404 	 60.6288 	 58.0436
| 23> S 	 -11.577 	 67.1344 	 51.4867
| 24> C 	 -11.3965 	 67.1641 	 49.749
| 25> C 	 -10.4786 	 66.2319 	 49.2996
| 26> C 	 -9.8567 	 65.5446 	 50.4153
| 27> C 	 -10.3809 	 65.8653 	 51.6444
| 28> H 	 -10.2989 	 66.0639 	 48.2964
| 29> C 	 -8.79217 	 64.5117 	 50.18
| 30> H 	 -8.76042 	 64.3057 	 49.1169
| 31> H 	 -9.06482 	 63.5425 	 50.4464
| 32> C 	 -7.36839 	 64.8294 	 50.7351
| 33> H 	 -7.47946 	 64.6767 	 51.797
| 34> H 	 -7.0588 	 65.8649 	 50.7226
| 35> C 	 -6.26098 	 63.8997 	 50.1653
| 36> H 	 -6.2906 	 62.9498 	 50.6039
| 37> H 	 -5.26604 	 64.2336 	 50.4292
| 38> H 	 -6.47258 	 63.8603 	 49.0739
| 39> H 	 -9.91338 	 65.2314 	 56.5176
| 40> H 	 -11.9303 	 67.7493 	 49.0561
| 41> *
| 42>
| 43>                          ****END OF INPUT****

CARTESIAN COORDINATES (ANGSTROEM)
---------------------------------
  S    -10.908600   66.150500   54.427200
  C    -10.013800   65.128600   55.482800
  C     -9.425890   64.047600   54.821900
  C     -9.455480   64.169900   53.396400
  C    -10.132900   65.386800   53.022900
  H     -9.122990   63.435600   52.657800
  C     -8.899520   62.798700   55.543200
  H     -7.906360   63.010200   55.807200
  H     -8.880580   62.066600   54.728800
  C     -9.778540   62.408100   56.733800
  H     -9.669150   63.165600   57.549800
  H    -10.796200   62.499300   56.498900
  C     -9.573040   60.975800   57.269700
  H     -9.639080   60.276500   56.411900
  H     -8.489810   60.844700   57.598200
  H    -10.240400   60.628800   58.043600
  S    -11.577000   67.134400   51.486700
  C    -11.396500   67.164100   49.749000
  C    -10.478600   66.231900   49.299600
  C     -9.856700   65.544600   50.415300
  C    -10.380900   65.865300   51.644400
  H    -10.298900   66.063900   48.296400
  C     -8.792170   64.511700   50.180000
  H     -8.760420   64.305700   49.116900
  H     -9.064820   63.542500   50.446400
  C     -7.368390   64.829400   50.735100
  H     -7.479460   64.676700   51.797000
  H     -7.058800   65.864900   50.722600
  C     -6.260980   63.899700   50.165300
  H     -6.290600   62.949800   50.603900
  H     -5.266040   64.233600   50.429200
  H     -6.472580   63.860300   49.073900
  H     -9.913380   65.231400   56.517600
  H    -11.930300   67.749300   49.056100

 Total Charge           Charge          ....    0
 Multiplicity           Mult            ....    1
 Number of Electrons    NEL             ....  134
 Basis Dimension        Dim             ....  322

ORBITAL ENERGIES
----------------

  NO   OCC          E(Eh)            E(eV)
   0   2.0000     -88.972480     -2421.0643
   1   2.0000     -88.965090     -2420.8632
   2   2.0000     -10.341036      -281.3939
   3   2.0000     -10.328185      -281.0442
   4   2.0000     -10.315218      -280.6913
   5   2.0000     -10.307389      -280.4783
   6   2.0000     -10.302905      -280.3563
   7   2.0000     -10.302582      -280.3475
   8   2.0000     -10.302443      -280.3437
   9   2.0000     -10.292427      -280.0712
  10   2.0000     -10.292009      -280.0598
  11   2.0000     -10.287862      -279.9470
  12   2.0000     -10.286342      -279.9056
  13   2.0000     -10.285378      -279.8794
  14   2.0000     -10.281231      -279.7665
  15   2.0000     -10.276414      -279.6354
  16   2.0000      -8.086806      -220.0532
  17   2.0000      -8.080034      -219.8689
  18   2.0000      -6.045394      -164.5035
  19   2.0000      -6.041485      -164.3972
  20   2.0000      -6.038647      -164.3200
  21   2.0000      -6.037427      -164.2867
  22   2.0000      -6.034557      -164.2086
  23   2.0000      -6.030665      -164.1027
  24   2.0000      -1.005004       -27.3476
  25   2.0000      -0.982709       -26.7409
  26   2.0000      -0.911763       -24.8103
  27   2.0000      -0.906654       -24.6713
  28   2.0000      -0.866390       -23.5757
  29   2.0000      -0.853598       -23.2276
  30   2.0000      -0.847171       -23.0527
  31   2.0000      -0.814009       -22.1503
  32   2.0000      -0.782659       -21.2972
  33   2.0000      -0.771835       -21.0027
  34   2.0000      -0.715444       -19.4682
  35   2.0000      -0.706815       -19.2334
  36   2.0000      -0.693186       -18.8625
  37   2.0000      -0.672792       -18.3076
  38   2.0000      -0.639451       -17.4004
  39   2.0000      -0.616904       -16.7868
  40   2.0000      -0.599525       -16.3139
  41   2.0000      -0.568325       -15.4649
  42   2.0000      -0.565545       -15.3893
  43   2.0000      -0.557518       -15.1708
  44   2.0000      -0.530202       -14.4275
  45   2.0000      -0.525784       -14.3073
  46   2.0000      -0.522818       -14.2266
  47   2.0000      -0.509948       -13.8764
  48   2.0000      -0.501207       -13.6385
  49   2.0000      -0.498327       -13.5602
  50   2.0000      -0.493507       -13.4290
  51   2.0000      -0.488933       -13.3045
  52   2.0000      -0.478321       -13.0158
  53   2.0000      -0.462869       -12.5953
  54   2.0000      -0.457470       -12.4484
  55   2.0000      -0.452213       -12.3053
  56   2.0000      -0.443804       -12.0765
  57   2.0000      -0.441520       -12.0144
  58   2.0000      -0.439724       -11.9655
  59   2.0000      -0.426514       -11.6060
  60   2.0000      -0.419584       -11.4174
  61   2.0000      -0.415444       -11.3048
  62   2.0000      -0.407097       -11.0777
  63   2.0000      -0.360338        -9.8053
  64   2.0000      -0.336743        -9.1632
  65   2.0000      -0.326503        -8.8846
  66   2.0000      -0.276227        -7.5165
  67   0.0000       0.014300         0.3891
  68   0.0000       0.081472         2.2170
  69   0.0000       0.089047         2.4231
  70   0.0000       0.123920         3.3720
  71   0.0000       0.133662         3.6371

MULLIKEN ATOMIC CHARGES
-----------------------
   0 S :    0.119106
   1 C :   -0.085930
   2 C :   -0.130899
   3 C :   -0.007228
   4 C :   -0.118698
   5 H :    0.026426
   6 C :    0.124427
   7 H :    0.030718
   8 H :    0.016860
   9 C :   -0.087991
  10 H :    0.030500
  11 H :    0.025464
  12 C :   -0.057253
  13 H :    0.027803
  14 H :    0.031092
  15 H :    0.044806
  16 S :    0.084909
  17 C :   -0.054940
  18 C :    0.000897
  19 C :   -0.077241
  20 C :   -0.098416
  21 H :   -0.007964
  22 C :    0.065566
  23 H :   -0.010528
  24 H :    0.007181
  25 C :   -0.066860
  26 H :    0.014401
  27 H :    0.031603
  28 C :   -0.022684
  29 H :    0.014027
  30 H :    0.031969
  31 H :    0.039302
  32 H :    0.022473
  33 H :    0.037102
Sum of atomic charges:    0.0000000

LOEWDIN ATOMIC CHARGES
----------------------
   0 S :    0.412086
   1 C :   -0.206322
   2 C :   -0.055045
   3 C :   -0.068570
   4 C :   -0.175673
   5 H :    0.034759
   6 C :   -0.021701
   7 H :    0.027548
   8 H :    0.030585
   9 C :   -0.042828
  10 H :    0.026056
  11 H :    0.019077
  12 C :   -0.070166
  13 H :    0.026143
  14 H :    0.029538
  15 H :    0.025698
  16 S :    0.396387
  17 C :   -0.173507
  18 C :   -0.054869
  19 C :   -0.057202
  20 C :   -0.189880
  21 H :    0.020454
  22 C :   -0.034100
  23 H :    0.025412
  24 H :    0.019930
  25 C :   -0.039111
  26 H :    0.018982
  27 H :    0.025509
  28 C :   -0.059958
  29 H :    0.015928
  30 H :    0.027711
  31 H :    0.029839
  32 H :    0.015740
  33 H :    0.021548

  Mayer bond orders larger than 0.100000
B(  0-S ,  1-C ) :   1.1381 B(  0-S ,  4-C ) :   1.1666 B(  1-C ,  2-C ) :   1.5889
B(  1-C ,  4-C ) :   0.1043 B(  1-C , 32-H ) :   0.9741 B(  2-C ,  3-C ) :   1.2822
B(  2-C ,  6-C ) :   1.0045 B(  3-C ,  4-C ) :   1.5121 B(  3-C ,  5-H ) :   0.9792
B(  4-C , 20-C ) :   1.0876 B(  6-C ,  7-H ) :   0.9255 B(  6-C ,  8-H ) :   0.9465
B(  6-C ,  9-C ) :   1.0658 B(  9-C , 10-H ) :   0.9460 B(  9-C , 11-H ) :   0.9621
B(  9-C , 12-C ) :   1.0838 B( 12-C , 13-H ) :   0.9747 B( 12-C , 14-H ) :   0.9739
B( 12-C , 15-H ) :   0.9762 B( 16-S , 17-C ) :   1.1516 B( 16-S , 20-C ) :   1.1152
B( 17-C , 18-C ) :   1.6163 B( 17-C , 33-H ) :   0.9698 B( 18-C , 19-C ) :   1.2383
B( 18-C , 21-H ) :   1.0002 B( 19-C , 20-C ) :   1.6082 B( 19-C , 22-C ) :   1.0473
B( 22-C , 23-H ) :   0.9233 B( 22-C , 24-H ) :   0.9264 B( 22-C , 25-C ) :   1.0409
B( 25-C , 26-H ) :   0.9490 B( 25-C , 27-H ) :   0.9606 B( 25-C , 28-C ) :   1.0767
B( 28-C , 29-H ) :   0.9744 B( 28-C , 30-H ) :   0.9742 B( 28-C , 31-H ) :   0.9793

Dispersion correction           -0.013933617
FINAL SINGLE POINT ENERGY     -1339.862808213086

DIPOLE MOMENT
-------------
                                X             Y             Z
Electronic contribution:    -18.30093      23.19904      -4.31490
Nuclear contribution   :     18.59558     -23.77021       4.22644
                        -----------------------------------------
Total Dipole Moment    :      0.29465      -0.57118      -0.08845
                        -----------------------------------------
Magnitude (a.u.)       :      0.64876
Magnitude (Debye)      :      1.64901

Rotational constants in cm-1:     0.019233     0.008285     0.006180
Rotational constants in MHz :   576.589608   248.364302   185.268409

                             ****ORCA TERMINATED NORMALLY****
TOTAL RUN TIME: 0 days 0 hours 0 minutes 34 seconds 178 msec
