                         Program Version 4.2.1 -  RELEASE  -
|  1> ! wB97X-D3 SP def2-SVP
|  2> %pal
|  3> nprocs 16
|  4> end
|  5>
|  6> * xyz 0 1
|  7> S 	 58.825 	 -8.34972 	 85.4728
|  8> C 	 59.4561 	 -6.73713 	 86.0387
|  9> C 	 59.6728 	 -5.86006 	 84.9978
| 10> C 	 59.4855 	 -6.53232 	 83.7149
| 11> C 	 58.8818 	 -7.79996 	 83.7914
| 12> H 	 59.6605 	 -6.09259 	 82.7083
| 13> C 	 60.2262 	 -4.49204 	 85.0641
| 14> H 	 61.1993 	 -4.63521 	 84.744
| 15> H 	 60.3537 	 -4.08573 	 86.0352
| 16> C 	 59.5437 	 -3.43937 	 84.1473
| 17> H 	 60.1296 	 -2.57826 	 84.105
| 18> H 	 59.4849 	 -3.77276 	 83.0117
| 19> C 	 58.1655 	 -3.11688 	 84.7521
| 20> H 	 57.8094 	 -2.18118 	 84.4322
| 21> H 	 57.3539 	 -3.85001 	 84.3856
| 22> H 	 58.0387 	 -3.0426 	 85.8501
| 23> S 	 56.8046 	 -9.3995 	 82.7243
| 24> C 	 57.1854 	 -10.3881 	 81.3189
| 25> C 	 58.3905 	 -10.102 	 80.8102
| 26> C 	 59.1371 	 -9.18917 	 81.6524
| 27> C 	 58.4928 	 -8.75899 	 82.7979
| 28> H 	 58.8055 	 -10.6409 	 79.9666
| 29> C 	 60.5592 	 -8.87052 	 81.3471
| 30> H 	 60.8875 	 -8.17738 	 82.1999
| 31> H 	 60.671 	 -8.37416 	 80.3957
| 32> C 	 61.5678 	 -10.0236 	 81.4257
| 33> H 	 62.5167 	 -9.64293 	 81.0373
| 34> H 	 61.1715 	 -10.6361 	 80.6354
| 35> C 	 61.772 	 -10.8483 	 82.7325
| 36> H 	 62.5265 	 -11.6252 	 82.5384
| 37> H 	 60.9159 	 -11.4084 	 83.0893
| 38> H 	 62.1795 	 -10.1923 	 83.5117
| 39> H 	 59.6014 	 -6.43975 	 87.076
| 40> H 	 56.4789 	 -11.1022 	 80.9088
| 41> *
| 42>
| 43>                          ****END OF INPUT****

CARTESIAN COORDINATES (ANGSTROEM)
---------------------------------
  S     58.825000   -8.349720   85.472800
  C     59.456100   -6.737130   86.038700
  C     59.672800   -5.860060   84.997800
  C     59.485500   -6.532320   83.714900
  C     58.881800   -7.799960   83.791400
  H     59.660500   -6.092590   82.708300
  C     60.226200   -4.492040   85.064100
  H     61.199300   -4.635210   84.744000
  H     60.353700   -4.085730   86.035200
  C     59.543700   -3.439370   84.147300
  H     60.129600   -2.578260   84.105000
  H     59.484900   -3.772760   83.011700
  C     58.165500   -3.116880   84.752100
  H     57.809400   -2.181180   84.432200
  H     57.353900   -3.850010   84.385600
  H     58.038700   -3.042600   85.850100
  S     56.804600   -9.399500   82.724300
  C     57.185400  -10.388100   81.318900
  C     58.390500  -10.102000   80.810200
  C     59.137100   -9.189170   81.652400
  C     58.492800   -8.758990   82.797900
  H     58.805500  -10.640900   79.966600
  C     60.559200   -8.870520   81.347100
  H     60.887500   -8.177380   82.199900
  H     60.671000   -8.374160   80.395700
  C     61.567800  -10.023600   81.425700
  H     62.516700   -9.642930   81.037300
  H     61.171500  -10.636100   80.635400
  C     61.772000  -10.848300   82.732500
  H     62.526500  -11.625200   82.538400
  H     60.915900  -11.408400   83.089300
  H     62.179500  -10.192300   83.511700
  H     59.601400   -6.439750   87.076000
  H     56.478900  -11.102200   80.908800

 Total Charge           Charge          ....    0
 Multiplicity           Mult            ....    1
 Number of Electrons    NEL             ....  134
 Basis Dimension        Dim             ....  322

ORBITAL ENERGIES
----------------

  NO   OCC          E(Eh)            E(eV)
   0   2.0000     -88.963762     -2420.8270
   1   2.0000     -88.960768     -2420.7456
   2   2.0000     -10.333599      -281.1915
   3   2.0000     -10.327661      -281.0299
   4   2.0000     -10.317913      -280.7647
   5   2.0000     -10.317811      -280.7619
   6   2.0000     -10.305633      -280.4305
   7   2.0000     -10.303879      -280.3828
   8   2.0000     -10.301722      -280.3241
   9   2.0000     -10.297204      -280.2012
  10   2.0000     -10.292080      -280.0617
  11   2.0000     -10.286834      -279.9190
  12   2.0000     -10.285583      -279.8849
  13   2.0000     -10.283591      -279.8308
  14   2.0000     -10.278952      -279.7045
  15   2.0000     -10.277110      -279.6544
  16   2.0000      -8.077166      -219.7909
  17   2.0000      -8.074957      -219.7308
  18   2.0000      -6.035898      -164.2451
  19   2.0000      -6.033631      -164.1834
  20   2.0000      -6.031942      -164.1375
  21   2.0000      -6.029658      -164.0753
  22   2.0000      -6.027669      -164.0212
  23   2.0000      -6.025439      -163.9605
  24   2.0000      -1.000072       -27.2133
  25   2.0000      -0.976469       -26.5711
  26   2.0000      -0.916169       -24.9302
  27   2.0000      -0.904816       -24.6213
  28   2.0000      -0.870511       -23.6878
  29   2.0000      -0.842349       -22.9215
  30   2.0000      -0.836821       -22.7710
  31   2.0000      -0.812712       -22.1150
  32   2.0000      -0.786211       -21.3939
  33   2.0000      -0.774630       -21.0788
  34   2.0000      -0.714851       -19.4521
  35   2.0000      -0.698818       -19.0158
  36   2.0000      -0.692466       -18.8430
  37   2.0000      -0.654511       -17.8101
  38   2.0000      -0.639599       -17.4044
  39   2.0000      -0.616605       -16.7787
  40   2.0000      -0.594438       -16.1755
  41   2.0000      -0.568796       -15.4777
  42   2.0000      -0.559792       -15.2327
  43   2.0000      -0.551196       -14.9988
  44   2.0000      -0.540757       -14.7147
  45   2.0000      -0.531482       -14.4624
  46   2.0000      -0.515700       -14.0329
  47   2.0000      -0.508010       -13.8237
  48   2.0000      -0.501141       -13.6367
  49   2.0000      -0.492676       -13.4064
  50   2.0000      -0.489433       -13.3182
  51   2.0000      -0.477472       -12.9927
  52   2.0000      -0.464342       -12.6354
  53   2.0000      -0.462824       -12.5941
  54   2.0000      -0.459404       -12.5010
  55   2.0000      -0.446497       -12.1498
  56   2.0000      -0.441117       -12.0034
  57   2.0000      -0.438179       -11.9235
  58   2.0000      -0.434119       -11.8130
  59   2.0000      -0.426693       -11.6109
  60   2.0000      -0.416995       -11.3470
  61   2.0000      -0.412175       -11.2159
  62   2.0000      -0.399036       -10.8583
  63   2.0000      -0.345101        -9.3907
  64   2.0000      -0.328971        -8.9517
  65   2.0000      -0.324178        -8.8213
  66   2.0000      -0.294951        -8.0260
  67   0.0000       0.027297         0.7428
  68   0.0000       0.070498         1.9184
  69   0.0000       0.111505         3.0342
  70   0.0000       0.114536         3.1167
  71   0.0000       0.120446         3.2775

MULLIKEN ATOMIC CHARGES
-----------------------
   0 S :    0.092206
   1 C :   -0.122405
   2 C :   -0.077179
   3 C :    0.019305
   4 C :   -0.174839
   5 H :    0.033201
   6 C :    0.105199
   7 H :    0.018634
   8 H :    0.008757
   9 C :   -0.081148
  10 H :    0.018569
  11 H :    0.049675
  12 C :   -0.064387
  13 H :    0.013235
  14 H :    0.052846
  15 H :    0.035078
  16 S :    0.085316
  17 C :   -0.085352
  18 C :   -0.013071
  19 C :   -0.040253
  20 C :   -0.130235
  21 H :    0.024494
  22 C :    0.028211
  23 H :    0.029889
  24 H :    0.031759
  25 C :   -0.072468
  26 H :    0.026279
  27 H :    0.005039
  28 C :   -0.039151
  29 H :    0.031678
  30 H :    0.043820
  31 H :    0.039601
  32 H :    0.046274
  33 H :    0.061419
Sum of atomic charges:   -0.0000000

LOEWDIN ATOMIC CHARGES
----------------------
   0 S :    0.370263
   1 C :   -0.179312
   2 C :   -0.055540
   3 C :   -0.059505
   4 C :   -0.183627
   5 H :    0.035321
   6 C :   -0.027179
   7 H :    0.029111
   8 H :    0.027059
   9 C :   -0.036815
  10 H :    0.014440
  11 H :    0.038720
  12 C :   -0.075437
  13 H :    0.015105
  14 H :    0.040311
  15 H :    0.028979
  16 S :    0.367471
  17 C :   -0.164955
  18 C :   -0.075630
  19 C :   -0.051841
  20 C :   -0.193944
  21 H :    0.033711
  22 C :   -0.043239
  23 H :    0.035249
  24 H :    0.030758
  25 C :   -0.041360
  26 H :    0.025424
  27 H :    0.013775
  28 C :   -0.064877
  29 H :    0.030706
  30 H :    0.027865
  31 H :    0.028445
  32 H :    0.028623
  33 H :    0.031926

  Mayer bond orders larger than 0.100000
B(  0-S ,  1-C ) :   1.1089 B(  0-S ,  4-C ) :   1.1364 B(  1-C ,  2-C ) :   1.6515
B(  1-C , 32-H ) :   0.9651 B(  2-C ,  3-C ) :   1.1911 B(  2-C ,  6-C ) :   1.0243
B(  3-C ,  4-C ) :   1.6090 B(  3-C ,  5-H ) :   0.9791 B(  4-C , 20-C ) :   1.0472
B(  6-C ,  7-H ) :   0.9240 B(  6-C ,  8-H ) :   0.9412 B(  6-C ,  9-C ) :   1.0824
B(  9-C , 10-H ) :   0.9567 B(  9-C , 11-H ) :   0.9524 B(  9-C , 12-C ) :   1.0584
B( 12-C , 13-H ) :   0.9753 B( 12-C , 14-H ) :   0.9745 B( 12-C , 15-H ) :   0.9781
B( 16-S , 17-C ) :   1.1422 B( 16-S , 20-C ) :   1.1011 B( 17-C , 18-C ) :   1.6391
B( 17-C , 33-H ) :   0.9646 B( 18-C , 19-C ) :   1.1973 B( 18-C , 21-H ) :   0.9911
B( 19-C , 20-C ) :   1.6269 B( 19-C , 22-C ) :   1.0548 B( 22-C , 23-H ) :   0.9323
B( 22-C , 24-H ) :   0.9303 B( 22-C , 25-C ) :   1.0736 B( 25-C , 26-H ) :   0.9537
B( 25-C , 27-H ) :   0.9542 B( 25-C , 28-C ) :   1.0727 B( 28-C , 29-H ) :   0.9720
B( 28-C , 30-H ) :   0.9748 B( 28-C , 31-H ) :   0.9753

Dispersion correction           -0.014838167
FINAL SINGLE POINT ENERGY     -1339.866801721001

DIPOLE MOMENT
-------------
                                X             Y             Z
Electronic contribution:    -14.83246     -12.22085       4.24136
Nuclear contribution   :     15.37984      12.61537      -4.59860
                        -----------------------------------------
Total Dipole Moment    :      0.54738       0.39452      -0.35724
                        -----------------------------------------
Magnitude (a.u.)       :      0.76347
Magnitude (Debye)      :      1.94059

Rotational constants in cm-1:     0.020149     0.008242     0.007545
Rotational constants in MHz :   604.038241   247.096107   226.182422

                             ****ORCA TERMINATED NORMALLY****
TOTAL RUN TIME: 0 days 0 hours 0 minutes 30 seconds 471 msec
