                         Program Version 4.2.1 -  RELEASE  -
|  1> ! wB97X-D3 SP def2-SVP
|  2> %pal
|  3> nprocs 16
|  4> end
|  5>
|  6> * xyz 0 1
|  7> S 	 -13.4653 	 -4.24025 	 78.8999
|  8> C 	 -12.0091 	 -3.26905 	 79.0184
|  9> C 	 -10.973 	 -4.08635 	 79.3612
| 10> C 	 -11.3276 	 -5.4512 	 79.485
| 11> C 	 -12.6021 	 -5.75794 	 79.2568
| 12> H 	 -10.6848 	 -6.2806 	 79.7891
| 13> C 	 -9.62651 	 -3.52898 	 79.7252
| 14> H 	 -9.57073 	 -3.28505 	 80.7628
| 15> H 	 -9.58246 	 -2.62968 	 79.1816
| 16> C 	 -8.4166 	 -4.45251 	 79.3215
| 17> H 	 -8.68168 	 -5.41874 	 79.885
| 18> H 	 -8.65995 	 -4.74673 	 78.241
| 19> C 	 -6.9728 	 -3.97607 	 79.6017
| 20> H 	 -6.78607 	 -3.01675 	 79.1039
| 21> H 	 -6.84429 	 -3.90377 	 80.6991
| 22> H 	 -6.24996 	 -4.6576 	 79.1607
| 23> S 	 -13.9576 	 -7.19426 	 80.8907
| 24> C 	 -14.6083 	 -8.76687 	 80.4808
| 25> C 	 -14.167 	 -9.17737 	 79.1846
| 26> C 	 -13.2742 	 -8.1957 	 78.6132
| 27> C 	 -13.2735 	 -7.01404 	 79.3529
| 28> H 	 -14.4468 	 -10.0837 	 78.65
| 29> C 	 -12.7322 	 -8.3329 	 77.2342
| 30> H 	 -12.6398 	 -7.2665 	 76.9063
| 31> H 	 -13.5423 	 -8.82179 	 76.6194
| 32> C 	 -11.4931 	 -9.2939 	 77.0944
| 33> H 	 -11.2396 	 -9.20234 	 76.0759
| 34> H 	 -11.7407 	 -10.3172 	 77.1965
| 35> C 	 -10.3827 	 -8.94239 	 78.0997
| 36> H 	 -9.49555 	 -9.4042 	 77.7532
| 37> H 	 -10.4895 	 -9.27622 	 79.1903
| 38> H 	 -10.1828 	 -7.86087 	 78.1714
| 39> H 	 -11.9011 	 -2.18186 	 79.0149
| 40> H 	 -15.3092 	 -9.39403 	 81.0779
| 41> *
| 42>
| 43>                          ****END OF INPUT****

CARTESIAN COORDINATES (ANGSTROEM)
---------------------------------
  S    -13.465300   -4.240250   78.899900
  C    -12.009100   -3.269050   79.018400
  C    -10.973000   -4.086350   79.361200
  C    -11.327600   -5.451200   79.485000
  C    -12.602100   -5.757940   79.256800
  H    -10.684800   -6.280600   79.789100
  C     -9.626510   -3.528980   79.725200
  H     -9.570730   -3.285050   80.762800
  H     -9.582460   -2.629680   79.181600
  C     -8.416600   -4.452510   79.321500
  H     -8.681680   -5.418740   79.885000
  H     -8.659950   -4.746730   78.241000
  C     -6.972800   -3.976070   79.601700
  H     -6.786070   -3.016750   79.103900
  H     -6.844290   -3.903770   80.699100
  H     -6.249960   -4.657600   79.160700
  S    -13.957600   -7.194260   80.890700
  C    -14.608300   -8.766870   80.480800
  C    -14.167000   -9.177370   79.184600
  C    -13.274200   -8.195700   78.613200
  C    -13.273500   -7.014040   79.352900
  H    -14.446800  -10.083700   78.650000
  C    -12.732200   -8.332900   77.234200
  H    -12.639800   -7.266500   76.906300
  H    -13.542300   -8.821790   76.619400
  C    -11.493100   -9.293900   77.094400
  H    -11.239600   -9.202340   76.075900
  H    -11.740700  -10.317200   77.196500
  C    -10.382700   -8.942390   78.099700
  H     -9.495550   -9.404200   77.753200
  H    -10.489500   -9.276220   79.190300
  H    -10.182800   -7.860870   78.171400
  H    -11.901100   -2.181860   79.014900
  H    -15.309200   -9.394030   81.077900

 Total Charge           Charge          ....    0
 Multiplicity           Mult            ....    1
 Number of Electrons    NEL             ....  134
 Basis Dimension        Dim             ....  322

ORBITAL ENERGIES
----------------

  NO   OCC          E(Eh)            E(eV)
   0   2.0000     -88.966795     -2420.9096
   1   2.0000     -88.960734     -2420.7447
   2   2.0000     -10.323724      -280.9228
   3   2.0000     -10.323192      -280.9083
   4   2.0000     -10.317457      -280.7523
   5   2.0000     -10.313400      -280.6419
   6   2.0000     -10.301535      -280.3190
   7   2.0000     -10.299400      -280.2609
   8   2.0000     -10.299085      -280.2523
   9   2.0000     -10.294638      -280.1313
  10   2.0000     -10.294397      -280.1248
  11   2.0000     -10.287482      -279.9366
  12   2.0000     -10.286949      -279.9221
  13   2.0000     -10.285590      -279.8851
  14   2.0000     -10.284138      -279.8456
  15   2.0000     -10.278425      -279.6902
  16   2.0000      -8.082330      -219.9314
  17   2.0000      -8.075143      -219.7358
  18   2.0000      -6.040816      -164.3790
  19   2.0000      -6.036553      -164.2630
  20   2.0000      -6.033764      -164.1871
  21   2.0000      -6.033214      -164.1721
  22   2.0000      -6.029662      -164.0754
  23   2.0000      -6.025806      -163.9705
  24   2.0000      -1.013822       -27.5875
  25   2.0000      -0.986526       -26.8447
  26   2.0000      -0.908865       -24.7315
  27   2.0000      -0.905187       -24.6314
  28   2.0000      -0.872564       -23.7437
  29   2.0000      -0.848719       -23.0948
  30   2.0000      -0.842444       -22.9241
  31   2.0000      -0.818756       -22.2795
  32   2.0000      -0.779786       -21.2190
  33   2.0000      -0.769141       -20.9294
  34   2.0000      -0.715793       -19.4777
  35   2.0000      -0.699556       -19.0359
  36   2.0000      -0.683594       -18.6015
  37   2.0000      -0.664644       -18.0859
  38   2.0000      -0.645355       -17.5610
  39   2.0000      -0.618396       -16.8274
  40   2.0000      -0.584699       -15.9105
  41   2.0000      -0.570357       -15.5202
  42   2.0000      -0.556737       -15.1496
  43   2.0000      -0.545961       -14.8564
  44   2.0000      -0.543658       -14.7937
  45   2.0000      -0.520260       -14.1570
  46   2.0000      -0.516168       -14.0456
  47   2.0000      -0.515606       -14.0304
  48   2.0000      -0.503480       -13.7004
  49   2.0000      -0.500759       -13.6263
  50   2.0000      -0.497443       -13.5361
  51   2.0000      -0.485057       -13.1991
  52   2.0000      -0.473406       -12.8820
  53   2.0000      -0.459543       -12.5048
  54   2.0000      -0.459021       -12.4906
  55   2.0000      -0.450834       -12.2678
  56   2.0000      -0.446800       -12.1580
  57   2.0000      -0.434889       -11.8339
  58   2.0000      -0.429812       -11.6958
  59   2.0000      -0.423490       -11.5238
  60   2.0000      -0.414253       -11.2724
  61   2.0000      -0.410644       -11.1742
  62   2.0000      -0.408006       -11.1024
  63   2.0000      -0.339951        -9.2505
  64   2.0000      -0.325405        -8.8547
  65   2.0000      -0.321128        -8.7383
  66   2.0000      -0.307662        -8.3719
  67   0.0000       0.039504         1.0750
  68   0.0000       0.059718         1.6250
  69   0.0000       0.111053         3.0219
  70   0.0000       0.124642         3.3917
  71   0.0000       0.128988         3.5099

MULLIKEN ATOMIC CHARGES
-----------------------
   0 S :    0.097679
   1 C :   -0.114750
   2 C :   -0.109355
   3 C :    0.051730
   4 C :   -0.183364
   5 H :    0.015289
   6 C :    0.126312
   7 H :    0.035024
   8 H :    0.000188
   9 C :   -0.189141
  10 H :    0.041306
  11 H :    0.041645
  12 C :   -0.008244
  13 H :    0.034743
  14 H :    0.043632
  15 H :    0.041128
  16 S :    0.134081
  17 C :   -0.102025
  18 C :   -0.040700
  19 C :    0.001810
  20 C :   -0.200216
  21 H :    0.024007
  22 C :   -0.016410
  23 H :    0.050219
  24 H :    0.034487
  25 C :   -0.008674
  26 H :    0.022804
  27 H :    0.020450
  28 C :   -0.066117
  29 H :    0.021866
  30 H :    0.052346
  31 H :    0.026211
  32 H :    0.051770
  33 H :    0.070269
Sum of atomic charges:    0.0000000

LOEWDIN ATOMIC CHARGES
----------------------
   0 S :    0.383643
   1 C :   -0.191514
   2 C :   -0.070291
   3 C :   -0.067052
   4 C :   -0.195150
   5 H :    0.033913
   6 C :   -0.027981
   7 H :    0.027309
   8 H :    0.020187
   9 C :   -0.056489
  10 H :    0.025694
  11 H :    0.028798
  12 C :   -0.065780
  13 H :    0.027925
  14 H :    0.032339
  15 H :    0.030752
  16 S :    0.449895
  17 C :   -0.199015
  18 C :   -0.067536
  19 C :   -0.054673
  20 C :   -0.228462
  21 H :    0.031849
  22 C :   -0.039405
  23 H :    0.039761
  24 H :    0.036708
  25 C :   -0.029896
  26 H :    0.022819
  27 H :    0.020994
  28 C :   -0.073473
  29 H :    0.020031
  30 H :    0.037540
  31 H :    0.023937
  32 H :    0.036347
  33 H :    0.036277

  Mayer bond orders larger than 0.100000
B(  0-S ,  1-C ) :   1.1310 B(  0-S ,  4-C ) :   1.1242 B(  1-C ,  2-C ) :   1.6386
B(  1-C , 32-H ) :   0.9654 B(  2-C ,  3-C ) :   1.2082 B(  2-C ,  6-C ) :   1.0204
B(  3-C ,  4-C ) :   1.6388 B(  3-C ,  5-H ) :   0.9864 B(  4-C , 20-C ) :   0.9945
B(  6-C ,  7-H ) :   0.9352 B(  6-C ,  8-H ) :   0.9306 B(  6-C ,  9-C ) :   1.0528
B(  9-C , 10-H ) :   0.9507 B(  9-C , 11-H ) :   0.9623 B(  9-C , 12-C ) :   1.0724
B( 12-C , 13-H ) :   0.9742 B( 12-C , 14-H ) :   0.9725 B( 12-C , 15-H ) :   0.9727
B( 16-S , 17-C ) :   1.1661 B( 16-S , 20-C ) :   1.1806 B( 17-C , 18-C ) :   1.5792
B( 17-C , 20-C ) :   0.1097 B( 17-C , 33-H ) :   0.9655 B( 18-C , 19-C ) :   1.2467
B( 18-C , 21-H ) :   0.9845 B( 19-C , 20-C ) :   1.5618 B( 19-C , 22-C ) :   1.0503
B( 22-C , 23-H ) :   0.9451 B( 22-C , 24-H ) :   0.9418 B( 22-C , 25-C ) :   1.0571
B( 25-C , 26-H ) :   0.9562 B( 25-C , 27-H ) :   0.9533 B( 25-C , 28-C ) :   1.0732
B( 28-C , 29-H ) :   0.9697 B( 28-C , 30-H ) :   0.9704 B( 28-C , 31-H ) :   0.9741

Dispersion correction           -0.015109194
FINAL SINGLE POINT ENERGY     -1339.865225473592

DIPOLE MOMENT
-------------
                                X             Y             Z
Electronic contribution:    -26.31225       4.41726       7.59281
Nuclear contribution   :     26.84778      -4.67828      -7.70752
                        -----------------------------------------
Total Dipole Moment    :      0.53553      -0.26102      -0.11471
                        -----------------------------------------
Magnitude (a.u.)       :      0.60670
Magnitude (Debye)      :      1.54210

Rotational constants in cm-1:     0.018560     0.009128     0.007274
Rotational constants in MHz :   556.422738   273.658852   218.054640

                             ****ORCA TERMINATED NORMALLY****
TOTAL RUN TIME: 0 days 0 hours 0 minutes 33 seconds 461 msec
