                         Program Version 4.2.1 -  RELEASE  -
|  1> ! wB97X-D3 SP def2-SVP
|  2> %pal
|  3> nprocs 16
|  4> end
|  5>
|  6> * xyz 0 1
|  7> S 	 -57.4388 	 44.9238 	 134.793
|  8> C 	 -56.4111 	 45.8473 	 135.825
|  9> C 	 -56.6798 	 47.2229 	 135.742
| 10> C 	 -57.8383 	 47.4714 	 134.927
| 11> C 	 -58.301 	 46.3871 	 134.247
| 12> H 	 -58.3279 	 48.3428 	 134.705
| 13> C 	 -56.1144 	 48.3352 	 136.648
| 14> H 	 -55.8975 	 47.8545 	 137.621
| 15> H 	 -56.8171 	 49.057 	 136.891
| 16> C 	 -54.8472 	 49.1115 	 136.142
| 17> H 	 -54.089 	 48.5047 	 135.788
| 18> H 	 -55.2052 	 49.6092 	 135.266
| 19> C 	 -54.3135 	 50.2304 	 137.14
| 20> H 	 -53.4587 	 50.7898 	 136.719
| 21> H 	 -55.0832 	 50.9601 	 137.415
| 22> H 	 -53.932 	 49.8232 	 138.067
| 23> S 	 -60.7946 	 45.2023 	 133.91
| 24> C 	 -61.7807 	 45.7415 	 132.558
| 25> C 	 -61.1344 	 46.6999 	 131.81
| 26> C 	 -59.9053 	 47.1565 	 132.393
| 27> C 	 -59.4892 	 46.3082 	 133.436
| 28> H 	 -61.6865 	 47.1446 	 130.973
| 29> C 	 -59.0966 	 48.323 	 131.756
| 30> H 	 -58.1575 	 48.4102 	 132.264
| 31> H 	 -59.6684 	 49.2475 	 131.966
| 32> C 	 -58.6811 	 48.1514 	 130.268
| 33> H 	 -59.5171 	 48.2443 	 129.562
| 34> H 	 -58.1953 	 47.1886 	 130.177
| 35> C 	 -57.6059 	 49.172 	 129.836
| 36> H 	 -57.9168 	 50.2098 	 129.854
| 37> H 	 -57.3189 	 48.933 	 128.849
| 38> H 	 -56.819 	 49.1035 	 130.494
| 39> H 	 -55.5784 	 45.5954 	 136.387
| 40> H 	 -62.7525 	 45.2482 	 132.287
| 41> *
| 42>
| 43>                          ****END OF INPUT****

CARTESIAN COORDINATES (ANGSTROEM)
---------------------------------
  S    -57.438800   44.923800  134.793000
  C    -56.411100   45.847300  135.825000
  C    -56.679800   47.222900  135.742000
  C    -57.838300   47.471400  134.927000
  C    -58.301000   46.387100  134.247000
  H    -58.327900   48.342800  134.705000
  C    -56.114400   48.335200  136.648000
  H    -55.897500   47.854500  137.621000
  H    -56.817100   49.057000  136.891000
  C    -54.847200   49.111500  136.142000
  H    -54.089000   48.504700  135.788000
  H    -55.205200   49.609200  135.266000
  C    -54.313500   50.230400  137.140000
  H    -53.458700   50.789800  136.719000
  H    -55.083200   50.960100  137.415000
  H    -53.932000   49.823200  138.067000
  S    -60.794600   45.202300  133.910000
  C    -61.780700   45.741500  132.558000
  C    -61.134400   46.699900  131.810000
  C    -59.905300   47.156500  132.393000
  C    -59.489200   46.308200  133.436000
  H    -61.686500   47.144600  130.973000
  C    -59.096600   48.323000  131.756000
  H    -58.157500   48.410200  132.264000
  H    -59.668400   49.247500  131.966000
  C    -58.681100   48.151400  130.268000
  H    -59.517100   48.244300  129.562000
  H    -58.195300   47.188600  130.177000
  C    -57.605900   49.172000  129.836000
  H    -57.916800   50.209800  129.854000
  H    -57.318900   48.933000  128.849000
  H    -56.819000   49.103500  130.494000
  H    -55.578400   45.595400  136.387000
  H    -62.752500   45.248200  132.287000

 Total Charge           Charge          ....    0
 Multiplicity           Mult            ....    1
 Number of Electrons    NEL             ....  134
 Basis Dimension        Dim             ....  322

ORBITAL ENERGIES
----------------

  NO   OCC          E(Eh)            E(eV)
   0   2.0000     -88.968576     -2420.9580
   1   2.0000     -88.965764     -2420.8815
   2   2.0000     -10.329375      -281.0766
   3   2.0000     -10.325975      -280.9841
   4   2.0000     -10.320984      -280.8483
   5   2.0000     -10.312267      -280.6110
   6   2.0000     -10.309519      -280.5363
   7   2.0000     -10.305062      -280.4150
   8   2.0000     -10.295922      -280.1663
   9   2.0000     -10.295429      -280.1529
  10   2.0000     -10.292098      -280.0622
  11   2.0000     -10.287817      -279.9457
  12   2.0000     -10.286535      -279.9108
  13   2.0000     -10.284795      -279.8635
  14   2.0000     -10.284464      -279.8545
  15   2.0000     -10.267223      -279.3853
  16   2.0000      -8.082946      -219.9481
  17   2.0000      -8.080020      -219.8685
  18   2.0000      -6.041533      -164.3985
  19   2.0000      -6.038608      -164.3189
  20   2.0000      -6.037404      -164.2861
  21   2.0000      -6.034622      -164.2104
  22   2.0000      -6.033746      -164.1866
  23   2.0000      -6.030690      -164.1034
  24   2.0000      -1.004386       -27.3307
  25   2.0000      -0.980298       -26.6753
  26   2.0000      -0.905301       -24.6345
  27   2.0000      -0.902175       -24.5494
  28   2.0000      -0.871743       -23.7213
  29   2.0000      -0.851831       -23.1795
  30   2.0000      -0.844823       -22.9888
  31   2.0000      -0.814387       -22.1606
  32   2.0000      -0.783100       -21.3092
  33   2.0000      -0.771906       -21.0046
  34   2.0000      -0.711011       -19.3476
  35   2.0000      -0.706105       -19.2141
  36   2.0000      -0.696949       -18.9649
  37   2.0000      -0.657924       -17.9030
  38   2.0000      -0.645888       -17.5755
  39   2.0000      -0.617130       -16.7930
  40   2.0000      -0.594100       -16.1663
  41   2.0000      -0.572412       -15.5761
  42   2.0000      -0.570057       -15.5120
  43   2.0000      -0.554571       -15.0907
  44   2.0000      -0.528638       -14.3850
  45   2.0000      -0.518087       -14.0979
  46   2.0000      -0.514404       -13.9977
  47   2.0000      -0.508419       -13.8348
  48   2.0000      -0.502377       -13.6704
  49   2.0000      -0.501505       -13.6466
  50   2.0000      -0.489325       -13.3152
  51   2.0000      -0.479732       -13.0542
  52   2.0000      -0.473433       -12.8828
  53   2.0000      -0.468094       -12.7375
  54   2.0000      -0.459191       -12.4952
  55   2.0000      -0.449804       -12.2398
  56   2.0000      -0.447005       -12.1636
  57   2.0000      -0.437268       -11.8987
  58   2.0000      -0.431893       -11.7524
  59   2.0000      -0.427871       -11.6430
  60   2.0000      -0.423998       -11.5376
  61   2.0000      -0.420752       -11.4492
  62   2.0000      -0.418766       -11.3952
  63   2.0000      -0.352026        -9.5791
  64   2.0000      -0.331277        -9.0145
  65   2.0000      -0.329099        -8.9552
  66   2.0000      -0.290451        -7.9036
  67   0.0000       0.028160         0.7663
  68   0.0000       0.068060         1.8520
  69   0.0000       0.114165         3.1066
  70   0.0000       0.123924         3.3722
  71   0.0000       0.124983         3.4010

MULLIKEN ATOMIC CHARGES
-----------------------
   0 S :    0.116076
   1 C :   -0.059373
   2 C :   -0.096123
   3 C :    0.070070
   4 C :   -0.174613
   5 H :   -0.021184
   6 C :    0.058495
   7 H :    0.023487
   8 H :    0.006258
   9 C :   -0.034074
  10 H :    0.015130
  11 H :    0.016332
  12 C :   -0.069311
  13 H :    0.039650
  14 H :    0.034593
  15 H :    0.029170
  16 S :    0.105592
  17 C :   -0.119996
  18 C :   -0.026497
  19 C :   -0.052005
  20 C :   -0.141281
  21 H :    0.029141
  22 C :    0.060467
  23 H :    0.009836
  24 H :    0.041683
  25 C :   -0.083545
  26 H :    0.033165
  27 H :    0.037774
  28 C :   -0.006951
  29 H :    0.023012
  30 H :    0.025929
  31 H :    0.010908
  32 H :    0.019217
  33 H :    0.078968
Sum of atomic charges:   -0.0000000

LOEWDIN ATOMIC CHARGES
----------------------
   0 S :    0.405073
   1 C :   -0.192163
   2 C :   -0.058742
   3 C :   -0.048031
   4 C :   -0.185686
   5 H :    0.017288
   6 C :   -0.026224
   7 H :    0.030390
   8 H :    0.020521
   9 C :   -0.029489
  10 H :    0.012467
  11 H :    0.021062
  12 C :   -0.068402
  13 H :    0.030703
  14 H :    0.025839
  15 H :    0.021228
  16 S :    0.391015
  17 C :   -0.189838
  18 C :   -0.075620
  19 C :   -0.051726
  20 C :   -0.196178
  21 H :    0.036011
  22 C :   -0.032400
  23 H :    0.023972
  24 H :    0.035094
  25 C :   -0.032813
  26 H :    0.021054
  27 H :    0.028977
  28 C :   -0.051934
  29 H :    0.023456
  30 H :    0.023272
  31 H :    0.012684
  32 H :    0.018549
  33 H :    0.040592

  Mayer bond orders larger than 0.100000
B(  0-S ,  1-C ) :   1.1457 B(  0-S ,  4-C ) :   1.1262 B(  1-C ,  2-C ) :   1.6163
B(  1-C , 32-H ) :   0.9680 B(  2-C ,  3-C ) :   1.2204 B(  2-C ,  6-C ) :   1.0208
B(  3-C ,  4-C ) :   1.5974 B(  3-C ,  5-H ) :   1.0007 B(  4-C , 20-C ) :   1.0549
B(  6-C ,  7-H ) :   0.9494 B(  6-C ,  8-H ) :   0.9481 B(  6-C ,  9-C ) :   1.0469
B(  9-C , 10-H ) :   0.9632 B(  9-C , 11-H ) :   0.9557 B(  9-C , 12-C ) :   1.0725
B( 12-C , 13-H ) :   0.9768 B( 12-C , 14-H ) :   0.9767 B( 12-C , 15-H ) :   0.9790
B( 16-S , 17-C ) :   1.1448 B( 16-S , 20-C ) :   1.1371 B( 17-C , 18-C ) :   1.6284
B( 17-C , 33-H ) :   0.9587 B( 18-C , 19-C ) :   1.2274 B( 18-C , 21-H ) :   0.9859
B( 19-C , 20-C ) :   1.5884 B( 19-C , 22-C ) :   1.0461 B( 22-C , 23-H ) :   0.9352
B( 22-C , 24-H ) :   0.9313 B( 22-C , 25-C ) :   1.0654 B( 25-C , 26-H ) :   0.9544
B( 25-C , 27-H ) :   0.9571 B( 25-C , 28-C ) :   1.0891 B( 28-C , 29-H ) :   0.9752
B( 28-C , 30-H ) :   0.9736 B( 28-C , 31-H ) :   0.9743

Dispersion correction           -0.013358540
FINAL SINGLE POINT ENERGY     -1339.868712370342

DIPOLE MOMENT
-------------
                                X             Y             Z
Electronic contribution:    -16.71982     -25.80903       4.57578
Nuclear contribution   :     16.85656      26.47748      -4.73884
                        -----------------------------------------
Total Dipole Moment    :      0.13674       0.66845      -0.16307
                        -----------------------------------------
Magnitude (a.u.)       :      0.70151
Magnitude (Debye)      :      1.78309

Rotational constants in cm-1:     0.016885     0.008167     0.006164
Rotational constants in MHz :   506.196208   244.843455   184.780637

                             ****ORCA TERMINATED NORMALLY****
TOTAL RUN TIME: 0 days 0 hours 0 minutes 32 seconds 33 msec
