                         Program Version 4.2.1 -  RELEASE  -
|  1> ! wB97X-D3 SP def2-SVP
|  2> %pal
|  3> nprocs 16
|  4> end
|  5>
|  6> * xyz 0 1
|  7> S 	 -95.0186 	 55.9068 	 123.482
|  8> C 	 -93.5721 	 55.3172 	 124.244
|  9> C 	 -93.784 	 54.0832 	 124.836
| 10> C 	 -95.2185 	 53.7686 	 124.814
| 11> C 	 -96.0214 	 54.7453 	 124.251
| 12> H 	 -95.6544 	 52.9294 	 125.41
| 13> C 	 -92.7717 	 53.1053 	 125.357
| 14> H 	 -93.1293 	 52.6128 	 126.259
| 15> H 	 -91.875 	 53.651 	 125.507
| 16> C 	 -92.5341 	 51.9479 	 124.35
| 17> H 	 -92.0515 	 52.3598 	 123.462
| 18> H 	 -91.716 	 51.3252 	 124.707
| 19> C 	 -93.6586 	 50.8749 	 124.132
| 20> H 	 -94.15 	 50.4687 	 125.045
| 21> H 	 -94.3914 	 51.3445 	 123.465
| 22> H 	 -93.342 	 50.0543 	 123.531
| 23> S 	 -98.2148 	 56.1115 	 125.444
| 24> C 	 -99.8336 	 55.8772 	 124.825
| 25> C 	 -99.8317 	 54.7732 	 123.946
| 26> C 	 -98.5397 	 54.158 	 123.781
| 27> C 	 -97.4871 	 54.9134 	 124.316
| 28> H 	 -100.774 	 54.4908 	 123.443
| 29> C 	 -98.3067 	 52.841 	 123.061
| 30> H 	 -97.3219 	 52.7857 	 122.703
| 31> H 	 -98.9776 	 52.8426 	 122.191
| 32> C 	 -98.6564 	 51.5522 	 123.769
| 33> H 	 -99.7151 	 51.6061 	 124.039
| 34> H 	 -98.1567 	 51.5263 	 124.721
| 35> C 	 -98.445 	 50.201 	 122.997
| 36> H 	 -98.5259 	 50.1991 	 121.926
| 37> H 	 -99.0363 	 49.3645 	 123.453
| 38> H 	 -97.3184 	 49.9514 	 123.165
| 39> H 	 -92.6379 	 55.7356 	 124.001
| 40> H 	 -100.699 	 56.5208 	 125.003
| 41> *
| 42>
| 43>                          ****END OF INPUT****

CARTESIAN COORDINATES (ANGSTROEM)
---------------------------------
  S    -95.018600   55.906800  123.482000
  C    -93.572100   55.317200  124.244000
  C    -93.784000   54.083200  124.836000
  C    -95.218500   53.768600  124.814000
  C    -96.021400   54.745300  124.251000
  H    -95.654400   52.929400  125.410000
  C    -92.771700   53.105300  125.357000
  H    -93.129300   52.612800  126.259000
  H    -91.875000   53.651000  125.507000
  C    -92.534100   51.947900  124.350000
  H    -92.051500   52.359800  123.462000
  H    -91.716000   51.325200  124.707000
  C    -93.658600   50.874900  124.132000
  H    -94.150000   50.468700  125.045000
  H    -94.391400   51.344500  123.465000
  H    -93.342000   50.054300  123.531000
  S    -98.214800   56.111500  125.444000
  C    -99.833600   55.877200  124.825000
  C    -99.831700   54.773200  123.946000
  C    -98.539700   54.158000  123.781000
  C    -97.487100   54.913400  124.316000
  H    -100.774000   54.490800  123.443000
  C    -98.306700   52.841000  123.061000
  H    -97.321900   52.785700  122.703000
  H    -98.977600   52.842600  122.191000
  C    -98.656400   51.552200  123.769000
  H    -99.715100   51.606100  124.039000
  H    -98.156700   51.526300  124.721000
  C    -98.445000   50.201000  122.997000
  H    -98.525900   50.199100  121.926000
  H    -99.036300   49.364500  123.453000
  H    -97.318400   49.951400  123.165000
  H    -92.637900   55.735600  124.001000
  H    -100.699000   56.520800  125.003000

 Total Charge           Charge          ....    0
 Multiplicity           Mult            ....    1
 Number of Electrons    NEL             ....  134
 Basis Dimension        Dim             ....  322

ORBITAL ENERGIES
----------------

  NO   OCC          E(Eh)            E(eV)
   0   2.0000     -88.963509     -2420.8201
   1   2.0000     -88.962698     -2420.7981
   2   2.0000     -10.332244      -281.1547
   3   2.0000     -10.329915      -281.0913
   4   2.0000     -10.323313      -280.9116
   5   2.0000     -10.313161      -280.6354
   6   2.0000     -10.309133      -280.5258
   7   2.0000     -10.305529      -280.4277
   8   2.0000     -10.300528      -280.2916
   9   2.0000     -10.300428      -280.2889
  10   2.0000     -10.294304      -280.1223
  11   2.0000     -10.291158      -280.0367
  12   2.0000     -10.290770      -280.0261
  13   2.0000     -10.285205      -279.8746
  14   2.0000     -10.284482      -279.8550
  15   2.0000     -10.283957      -279.8407
  16   2.0000      -8.078531      -219.8280
  17   2.0000      -8.077434      -219.7981
  18   2.0000      -6.037023      -164.2757
  19   2.0000      -6.036069      -164.2498
  20   2.0000      -6.032831      -164.1617
  21   2.0000      -6.032015      -164.1395
  22   2.0000      -6.029277      -164.0650
  23   2.0000      -6.028129      -164.0337
  24   2.0000      -1.004311       -27.3287
  25   2.0000      -0.980369       -26.6772
  26   2.0000      -0.911973       -24.8161
  27   2.0000      -0.906275       -24.6610
  28   2.0000      -0.865159       -23.5422
  29   2.0000      -0.843741       -22.9594
  30   2.0000      -0.839960       -22.8565
  31   2.0000      -0.812802       -22.1175
  32   2.0000      -0.786934       -21.4136
  33   2.0000      -0.773841       -21.0573
  34   2.0000      -0.705558       -19.1992
  35   2.0000      -0.701492       -19.0886
  36   2.0000      -0.694495       -18.8982
  37   2.0000      -0.654518       -17.8103
  38   2.0000      -0.644953       -17.5501
  39   2.0000      -0.615437       -16.7469
  40   2.0000      -0.592406       -16.1202
  41   2.0000      -0.574792       -15.6409
  42   2.0000      -0.563796       -15.3417
  43   2.0000      -0.552302       -15.0289
  44   2.0000      -0.539410       -14.6781
  45   2.0000      -0.520950       -14.1758
  46   2.0000      -0.515535       -14.0284
  47   2.0000      -0.512115       -13.9353
  48   2.0000      -0.508002       -13.8234
  49   2.0000      -0.498478       -13.5643
  50   2.0000      -0.487204       -13.2575
  51   2.0000      -0.484002       -13.1704
  52   2.0000      -0.469795       -12.7838
  53   2.0000      -0.462210       -12.5774
  54   2.0000      -0.461731       -12.5643
  55   2.0000      -0.448923       -12.2158
  56   2.0000      -0.447341       -12.1728
  57   2.0000      -0.437917       -11.9163
  58   2.0000      -0.432620       -11.7722
  59   2.0000      -0.428927       -11.6717
  60   2.0000      -0.416255       -11.3269
  61   2.0000      -0.408728       -11.1220
  62   2.0000      -0.404961       -11.0196
  63   2.0000      -0.335365        -9.1258
  64   2.0000      -0.325326        -8.8526
  65   2.0000      -0.320871        -8.7314
  66   2.0000      -0.306365        -8.3366
  67   0.0000       0.029533         0.8036
  68   0.0000       0.060595         1.6489
  69   0.0000       0.106302         2.8926
  70   0.0000       0.117156         3.1880
  71   0.0000       0.121120         3.2959

MULLIKEN ATOMIC CHARGES
-----------------------
   0 S :    0.117387
   1 C :   -0.102487
   2 C :   -0.117142
   3 C :    0.031857
   4 C :   -0.184867
   5 H :    0.029612
   6 C :    0.123328
   7 H :    0.025177
   8 H :    0.013920
   9 C :   -0.090392
  10 H :    0.022375
  11 H :    0.023520
  12 C :   -0.059469
  13 H :    0.044002
  14 H :    0.040232
  15 H :    0.029360
  16 S :    0.105038
  17 C :   -0.105543
  18 C :   -0.045633
  19 C :   -0.026353
  20 C :   -0.154082
  21 H :    0.032934
  22 C :    0.098504
  23 H :    0.012613
  24 H :    0.013992
  25 C :   -0.063525
  26 H :    0.018761
  27 H :    0.019726
  28 C :   -0.082828
  29 H :    0.035738
  30 H :    0.052185
  31 H :    0.037336
  32 H :    0.032920
  33 H :    0.071803
Sum of atomic charges:   -0.0000000

LOEWDIN ATOMIC CHARGES
----------------------
   0 S :    0.426375
   1 C :   -0.190710
   2 C :   -0.060475
   3 C :   -0.062544
   4 C :   -0.214272
   5 H :    0.035595
   6 C :   -0.023609
   7 H :    0.031823
   8 H :    0.028648
   9 C :   -0.040985
  10 H :    0.024633
  11 H :    0.022420
  12 C :   -0.071041
  13 H :    0.030700
  14 H :    0.026441
  15 H :    0.025267
  16 S :    0.390455
  17 C :   -0.188325
  18 C :   -0.078633
  19 C :   -0.047021
  20 C :   -0.191761
  21 H :    0.035959
  22 C :   -0.029987
  23 H :    0.021018
  24 H :    0.031015
  25 C :   -0.041003
  26 H :    0.020907
  27 H :    0.018908
  28 C :   -0.073703
  29 H :    0.020680
  30 H :    0.034854
  31 H :    0.034794
  32 H :    0.016703
  33 H :    0.036876

  Mayer bond orders larger than 0.100000
B(  0-S ,  1-C ) :   1.1479 B(  0-S ,  4-C ) :   1.1679 B(  1-C ,  2-C ) :   1.6051
B(  1-C , 32-H ) :   0.9751 B(  2-C ,  3-C ) :   1.2329 B(  2-C ,  6-C ) :   1.0417
B(  3-C ,  4-C ) :   1.5765 B(  3-C ,  5-H ) :   0.9826 B(  4-C , 20-C ) :   1.0187
B(  6-C ,  7-H ) :   0.9366 B(  6-C ,  8-H ) :   0.9326 B(  6-C ,  9-C ) :   1.0744
B(  9-C , 10-H ) :   0.9541 B(  9-C , 11-H ) :   0.9580 B(  9-C , 12-C ) :   1.0690
B( 12-C , 13-H ) :   0.9735 B( 12-C , 14-H ) :   0.9723 B( 12-C , 15-H ) :   0.9709
B( 16-S , 17-C ) :   1.1650 B( 16-S , 20-C ) :   1.1294 B( 17-C , 18-C ) :   1.5934
B( 17-C , 20-C ) :   0.1071 B( 17-C , 33-H ) :   0.9666 B( 18-C , 19-C ) :   1.2367
B( 18-C , 21-H ) :   0.9860 B( 19-C , 20-C ) :   1.5879 B( 19-C , 22-C ) :   1.0616
B( 22-C , 23-H ) :   0.9300 B( 22-C , 24-H ) :   0.9269 B( 22-C , 25-C ) :   1.0672
B( 25-C , 26-H ) :   0.9556 B( 25-C , 27-H ) :   0.9546 B( 25-C , 28-C ) :   1.0660
B( 28-C , 29-H ) :   0.9786 B( 28-C , 30-H ) :   0.9758 B( 28-C , 31-H ) :   0.9767

Dispersion correction           -0.015031195
FINAL SINGLE POINT ENERGY     -1339.866790244766

DIPOLE MOMENT
-------------
                                X             Y             Z
Electronic contribution:     -5.03343      29.82770       4.05585
Nuclear contribution   :      5.17356     -30.49969      -4.15745
                        -----------------------------------------
Total Dipole Moment    :      0.14013      -0.67199      -0.10160
                        -----------------------------------------
Magnitude (a.u.)       :      0.69392
Magnitude (Debye)      :      1.76380

Rotational constants in cm-1:     0.016601     0.010161     0.006961
Rotational constants in MHz :   497.673263   304.623757   208.696349

                             ****ORCA TERMINATED NORMALLY****
TOTAL RUN TIME: 0 days 0 hours 0 minutes 34 seconds 632 msec
