                         Program Version 4.2.1 -  RELEASE  -
|  1> ! wB97X-D3 SP def2-SVP
|  2> %pal
|  3> nprocs 16
|  4> end
|  5>
|  6> * xyz 0 1
|  7> S 	 -64.7607 	 45.4516 	 120.298
|  8> C 	 -64.935 	 44.0785 	 121.408
|  9> C 	 -65.2167 	 44.532 	 122.694
| 10> C 	 -65.2438 	 45.9647 	 122.762
| 11> C 	 -64.8156 	 46.6698 	 121.609
| 12> H 	 -65.4609 	 46.4979 	 123.672
| 13> C 	 -65.6064 	 43.6769 	 123.891
| 14> H 	 -65.7095 	 44.3288 	 124.75
| 15> H 	 -64.8797 	 42.885 	 124.119
| 16> C 	 -66.9853 	 42.9759 	 123.709
| 17> H 	 -67.7128 	 43.6223 	 123.123
| 18> H 	 -66.7184 	 42.1035 	 123.107
| 19> C 	 -67.6095 	 42.4595 	 125.045
| 20> H 	 -68.6206 	 42.2464 	 124.884
| 21> H 	 -67.2296 	 41.5474 	 125.482
| 22> H 	 -67.6129 	 43.3282 	 125.75
| 23> S 	 -65.226 	 48.582 	 119.85
| 24> C 	 -65.1163 	 50.2516 	 120.316
| 25> C 	 -64.7318 	 50.4033 	 121.613
| 26> C 	 -64.6126 	 49.1046 	 122.287
| 27> C 	 -64.8676 	 48.0817 	 121.44
| 28> H 	 -64.5741 	 51.3847 	 122.05
| 29> C 	 -64.2715 	 48.9651 	 123.745
| 30> H 	 -63.465 	 49.6432 	 123.992
| 31> H 	 -63.8682 	 47.8841 	 123.791
| 32> C 	 -65.4886 	 49.0473 	 124.716
| 33> H 	 -66.2228 	 48.388 	 124.267
| 34> H 	 -65.8571 	 50.1079 	 124.868
| 35> C 	 -65.1119 	 48.561 	 126.144
| 36> H 	 -65.1724 	 47.4282 	 126.246
| 37> H 	 -65.9358 	 48.8534 	 126.847
| 38> H 	 -64.2709 	 49.0257 	 126.558
| 39> H 	 -65.0643 	 43.0082 	 121.178
| 40> H 	 -65.2852 	 51.0948 	 119.751
| 41> *
| 42>
| 43>                          ****END OF INPUT****

CARTESIAN COORDINATES (ANGSTROEM)
---------------------------------
  S    -64.760700   45.451600  120.298000
  C    -64.935000   44.078500  121.408000
  C    -65.216700   44.532000  122.694000
  C    -65.243800   45.964700  122.762000
  C    -64.815600   46.669800  121.609000
  H    -65.460900   46.497900  123.672000
  C    -65.606400   43.676900  123.891000
  H    -65.709500   44.328800  124.750000
  H    -64.879700   42.885000  124.119000
  C    -66.985300   42.975900  123.709000
  H    -67.712800   43.622300  123.123000
  H    -66.718400   42.103500  123.107000
  C    -67.609500   42.459500  125.045000
  H    -68.620600   42.246400  124.884000
  H    -67.229600   41.547400  125.482000
  H    -67.612900   43.328200  125.750000
  S    -65.226000   48.582000  119.850000
  C    -65.116300   50.251600  120.316000
  C    -64.731800   50.403300  121.613000
  C    -64.612600   49.104600  122.287000
  C    -64.867600   48.081700  121.440000
  H    -64.574100   51.384700  122.050000
  C    -64.271500   48.965100  123.745000
  H    -63.465000   49.643200  123.992000
  H    -63.868200   47.884100  123.791000
  C    -65.488600   49.047300  124.716000
  H    -66.222800   48.388000  124.267000
  H    -65.857100   50.107900  124.868000
  C    -65.111900   48.561000  126.144000
  H    -65.172400   47.428200  126.246000
  H    -65.935800   48.853400  126.847000
  H    -64.270900   49.025700  126.558000
  H    -65.064300   43.008200  121.178000
  H    -65.285200   51.094800  119.751000

 Total Charge           Charge          ....    0
 Multiplicity           Mult            ....    1
 Number of Electrons    NEL             ....  134
 Basis Dimension        Dim             ....  322

ORBITAL ENERGIES
----------------

  NO   OCC          E(Eh)            E(eV)
   0   2.0000     -88.970371     -2421.0069
   1   2.0000     -88.963734     -2420.8263
   2   2.0000     -10.335461      -281.2422
   3   2.0000     -10.320160      -280.8258
   4   2.0000     -10.320120      -280.8247
   5   2.0000     -10.308863      -280.5184
   6   2.0000     -10.303723      -280.3786
   7   2.0000     -10.300230      -280.2835
   8   2.0000     -10.297594      -280.2118
   9   2.0000     -10.296875      -280.1922
  10   2.0000     -10.295380      -280.1515
  11   2.0000     -10.295227      -280.1474
  12   2.0000     -10.294991      -280.1410
  13   2.0000     -10.294440      -280.1259
  14   2.0000     -10.285126      -279.8725
  15   2.0000     -10.279977      -279.7324
  16   2.0000      -8.083533      -219.9641
  17   2.0000      -8.079980      -219.8674
  18   2.0000      -6.042400      -164.4220
  19   2.0000      -6.038610      -164.3189
  20   2.0000      -6.038233      -164.3087
  21   2.0000      -6.034377      -164.2038
  22   2.0000      -6.034028      -164.1942
  23   2.0000      -6.030415      -164.0959
  24   2.0000      -1.014541       -27.6071
  25   2.0000      -0.980813       -26.6893
  26   2.0000      -0.908809       -24.7300
  27   2.0000      -0.907777       -24.7019
  28   2.0000      -0.875121       -23.8133
  29   2.0000      -0.853022       -23.2119
  30   2.0000      -0.842599       -22.9283
  31   2.0000      -0.815744       -22.1975
  32   2.0000      -0.781699       -21.2711
  33   2.0000      -0.773030       -21.0352
  34   2.0000      -0.711199       -19.3527
  35   2.0000      -0.699602       -19.0371
  36   2.0000      -0.694632       -18.9019
  37   2.0000      -0.671702       -18.2779
  38   2.0000      -0.633640       -17.2422
  39   2.0000      -0.619524       -16.8581
  40   2.0000      -0.591205       -16.0875
  41   2.0000      -0.572762       -15.5857
  42   2.0000      -0.567633       -15.4461
  43   2.0000      -0.563193       -15.3253
  44   2.0000      -0.527955       -14.3664
  45   2.0000      -0.525927       -14.3112
  46   2.0000      -0.511936       -13.9305
  47   2.0000      -0.510596       -13.8940
  48   2.0000      -0.507679       -13.8147
  49   2.0000      -0.504198       -13.7199
  50   2.0000      -0.499668       -13.5967
  51   2.0000      -0.478120       -13.0103
  52   2.0000      -0.472485       -12.8570
  53   2.0000      -0.466472       -12.6933
  54   2.0000      -0.457888       -12.4598
  55   2.0000      -0.452982       -12.3263
  56   2.0000      -0.444454       -12.0942
  57   2.0000      -0.434280       -11.8174
  58   2.0000      -0.432581       -11.7711
  59   2.0000      -0.426116       -11.5952
  60   2.0000      -0.421418       -11.4674
  61   2.0000      -0.415064       -11.2945
  62   2.0000      -0.412571       -11.2266
  63   2.0000      -0.362698        -9.8695
  64   2.0000      -0.332681        -9.0527
  65   2.0000      -0.325813        -8.8658
  66   2.0000      -0.284844        -7.7510
  67   0.0000       0.019082         0.5193
  68   0.0000       0.080466         2.1896
  69   0.0000       0.100540         2.7358
  70   0.0000       0.120012         3.2657
  71   0.0000       0.125603         3.4178

MULLIKEN ATOMIC CHARGES
-----------------------
   0 S :    0.094678
   1 C :   -0.113601
   2 C :   -0.087018
   3 C :   -0.003679
   4 C :   -0.103366
   5 H :   -0.012468
   6 C :    0.078995
   7 H :    0.008303
   8 H :    0.041643
   9 C :   -0.129827
  10 H :    0.054299
  11 H :    0.028236
  12 C :   -0.026582
  13 H :    0.019682
  14 H :    0.037182
  15 H :    0.030999
  16 S :    0.101333
  17 C :   -0.042025
  18 C :   -0.028228
  19 C :   -0.069384
  20 C :   -0.118381
  21 H :    0.018103
  22 C :    0.018965
  23 H :    0.026327
  24 H :    0.043876
  25 C :   -0.078515
  26 H :    0.040749
  27 H :    0.043995
  28 C :   -0.056347
  29 H :    0.041922
  30 H :    0.029056
  31 H :    0.031733
  32 H :    0.059205
  33 H :    0.020141
Sum of atomic charges:   -0.0000000

LOEWDIN ATOMIC CHARGES
----------------------
   0 S :    0.382354
   1 C :   -0.196695
   2 C :   -0.063528
   3 C :   -0.064618
   4 C :   -0.179690
   5 H :    0.022338
   6 C :   -0.031291
   7 H :    0.021832
   8 H :    0.035703
   9 C :   -0.042946
  10 H :    0.033457
  11 H :    0.020593
  12 C :   -0.066534
  13 H :    0.020930
  14 H :    0.026200
  15 H :    0.028882
  16 S :    0.420173
  17 C :   -0.174481
  18 C :   -0.062452
  19 C :   -0.059832
  20 C :   -0.206229
  21 H :    0.032761
  22 C :   -0.040950
  23 H :    0.026802
  24 H :    0.041511
  25 C :   -0.040093
  26 H :    0.022805
  27 H :    0.032518
  28 C :   -0.072027
  29 H :    0.030752
  30 H :    0.030957
  31 H :    0.017285
  32 H :    0.038263
  33 H :    0.015251

  Mayer bond orders larger than 0.100000
B(  0-S ,  1-C ) :   1.1312 B(  0-S ,  4-C ) :   1.1313 B(  1-C ,  2-C ) :   1.5905
B(  1-C , 32-H ) :   0.9635 B(  2-C ,  3-C ) :   1.2830 B(  2-C ,  6-C ) :   1.0305
B(  3-C ,  4-C ) :   1.5187 B(  3-C ,  5-H ) :   0.9816 B(  4-C , 20-C ) :   1.1051
B(  6-C ,  7-H ) :   0.9458 B(  6-C ,  8-H ) :   0.9405 B(  6-C ,  9-C ) :   1.0461
B(  9-C , 10-H ) :   0.9624 B(  9-C , 11-H ) :   0.9565 B(  9-C , 12-C ) :   1.0787
B( 12-C , 13-H ) :   0.9731 B( 12-C , 14-H ) :   0.9752 B( 12-C , 15-H ) :   0.9753
B( 16-S , 17-C ) :   1.1379 B( 16-S , 20-C ) :   1.1156 B( 17-C , 18-C ) :   1.6500
B( 17-C , 33-H ) :   0.9747 B( 18-C , 19-C ) :   1.2016 B( 18-C , 21-H ) :   0.9919
B( 19-C , 20-C ) :   1.6219 B( 19-C , 22-C ) :   1.0528 B( 22-C , 23-H ) :   0.9296
B( 22-C , 24-H ) :   0.9328 B( 22-C , 25-C ) :   1.0527 B( 25-C , 26-H ) :   0.9520
B( 25-C , 27-H ) :   0.9542 B( 25-C , 28-C ) :   1.0826 B( 28-C , 29-H ) :   0.9738
B( 28-C , 30-H ) :   0.9729 B( 28-C , 31-H ) :   0.9745

Dispersion correction           -0.014157543
FINAL SINGLE POINT ENERGY     -1339.867126853948

DIPOLE MOMENT
-------------
                                X             Y             Z
Electronic contribution:      7.91111       8.49554     -30.33638
Nuclear contribution   :     -8.19607      -8.45454      31.06663
                        -----------------------------------------
Total Dipole Moment    :     -0.28496       0.04100       0.73024
                        -----------------------------------------
Magnitude (a.u.)       :      0.78495
Magnitude (Debye)      :      1.99517

Rotational constants in cm-1:     0.018060     0.009097     0.006485
Rotational constants in MHz :   541.418437   272.711980   194.408069

                             ****ORCA TERMINATED NORMALLY****
TOTAL RUN TIME: 0 days 0 hours 0 minutes 34 seconds 268 msec
