                         Program Version 4.2.1 -  RELEASE  -
|  1> ! wB97X-D3 SP def2-SVP
|  2> %pal
|  3> nprocs 16
|  4> end
|  5>
|  6> * xyz 0 1
|  7> S 	 -43.814 	 25.698 	 85.9091
|  8> C 	 -43.8675 	 26.5181 	 87.4804
|  9> C 	 -43.2267 	 27.7318 	 87.4445
| 10> C 	 -42.7301 	 28.0102 	 86.1379
| 11> C 	 -42.9509 	 26.9908 	 85.2277
| 12> H 	 -42.327 	 28.8858 	 85.6958
| 13> C 	 -42.9293 	 28.6347 	 88.6174
| 14> H 	 -42.1505 	 28.0881 	 89.1469
| 15> H 	 -43.7963 	 28.4699 	 89.2133
| 16> C 	 -42.7903 	 30.1264 	 88.4255
| 17> H 	 -42.0911 	 30.1359 	 87.5625
| 18> H 	 -43.7319 	 30.6271 	 88.1125
| 19> C 	 -42.2682 	 30.8092 	 89.6896
| 20> H 	 -42.1634 	 31.9292 	 89.5114
| 21> H 	 -43.0353 	 30.6657 	 90.4539
| 22> H 	 -41.3735 	 30.3883 	 90.0786
| 23> S 	 -44.2274 	 26.7018 	 82.8721
| 24> C 	 -43.3701 	 26.6534 	 81.3423
| 25> C 	 -42.067 	 26.9846 	 81.5589
| 26> C 	 -41.6506 	 27.1844 	 82.9189
| 27> C 	 -42.7293 	 27.0469 	 83.7685
| 28> H 	 -41.4304 	 27.0156 	 80.7067
| 29> C 	 -40.2245 	 27.3357 	 83.3753
| 30> H 	 -39.6327 	 26.4842 	 83.0634
| 31> H 	 -40.1203 	 27.1816 	 84.4109
| 32> C 	 -39.4316 	 28.6217 	 83.0187
| 33> H 	 -38.4167 	 28.5899 	 83.3501
| 34> H 	 -39.8964 	 29.5476 	 83.4547
| 35> C 	 -39.2324 	 28.8896 	 81.4905
| 36> H 	 -38.8722 	 29.9256 	 81.3826
| 37> H 	 -40.0512 	 28.7826 	 80.85
| 38> H 	 -38.5642 	 28.2302 	 81.0287
| 39> H 	 -44.2511 	 25.9947 	 88.3514
| 40> H 	 -43.7858 	 26.256 	 80.4549
| 41> *
| 42>
| 43>                          ****END OF INPUT****

CARTESIAN COORDINATES (ANGSTROEM)
---------------------------------
  S    -43.814000   25.698000   85.909100
  C    -43.867500   26.518100   87.480400
  C    -43.226700   27.731800   87.444500
  C    -42.730100   28.010200   86.137900
  C    -42.950900   26.990800   85.227700
  H    -42.327000   28.885800   85.695800
  C    -42.929300   28.634700   88.617400
  H    -42.150500   28.088100   89.146900
  H    -43.796300   28.469900   89.213300
  C    -42.790300   30.126400   88.425500
  H    -42.091100   30.135900   87.562500
  H    -43.731900   30.627100   88.112500
  C    -42.268200   30.809200   89.689600
  H    -42.163400   31.929200   89.511400
  H    -43.035300   30.665700   90.453900
  H    -41.373500   30.388300   90.078600
  S    -44.227400   26.701800   82.872100
  C    -43.370100   26.653400   81.342300
  C    -42.067000   26.984600   81.558900
  C    -41.650600   27.184400   82.918900
  C    -42.729300   27.046900   83.768500
  H    -41.430400   27.015600   80.706700
  C    -40.224500   27.335700   83.375300
  H    -39.632700   26.484200   83.063400
  H    -40.120300   27.181600   84.410900
  C    -39.431600   28.621700   83.018700
  H    -38.416700   28.589900   83.350100
  H    -39.896400   29.547600   83.454700
  C    -39.232400   28.889600   81.490500
  H    -38.872200   29.925600   81.382600
  H    -40.051200   28.782600   80.850000
  H    -38.564200   28.230200   81.028700
  H    -44.251100   25.994700   88.351400
  H    -43.785800   26.256000   80.454900

 Total Charge           Charge          ....    0
 Multiplicity           Mult            ....    1
 Number of Electrons    NEL             ....  134
 Basis Dimension        Dim             ....  322

ORBITAL ENERGIES
----------------

  NO   OCC          E(Eh)            E(eV)
   0   2.0000     -88.965446     -2420.8729
   1   2.0000     -88.958521     -2420.6844
   2   2.0000     -10.328612      -281.0558
   3   2.0000     -10.324360      -280.9401
   4   2.0000     -10.313268      -280.6383
   5   2.0000     -10.312279      -280.6114
   6   2.0000     -10.306187      -280.4456
   7   2.0000     -10.302543      -280.3464
   8   2.0000     -10.292744      -280.0798
   9   2.0000     -10.291511      -280.0462
  10   2.0000     -10.290494      -280.0186
  11   2.0000     -10.288310      -279.9591
  12   2.0000     -10.287550      -279.9385
  13   2.0000     -10.286675      -279.9147
  14   2.0000     -10.283839      -279.8375
  15   2.0000     -10.267669      -279.3975
  16   2.0000      -8.080790      -219.8895
  17   2.0000      -8.073309      -219.6859
  18   2.0000      -6.039199      -164.3350
  19   2.0000      -6.035143      -164.2246
  20   2.0000      -6.031896      -164.1362
  21   2.0000      -6.031662      -164.1299
  22   2.0000      -6.027768      -164.0239
  23   2.0000      -6.023996      -163.9213
  24   2.0000      -1.009137       -27.4600
  25   2.0000      -0.984291       -26.7839
  26   2.0000      -0.918900       -25.0045
  27   2.0000      -0.904470       -24.6119
  28   2.0000      -0.871558       -23.7163
  29   2.0000      -0.851298       -23.1650
  30   2.0000      -0.842986       -22.9388
  31   2.0000      -0.817673       -22.2500
  32   2.0000      -0.788647       -21.4602
  33   2.0000      -0.777716       -21.1627
  34   2.0000      -0.713215       -19.4076
  35   2.0000      -0.702555       -19.1175
  36   2.0000      -0.690150       -18.7799
  37   2.0000      -0.661352       -17.9963
  38   2.0000      -0.646933       -17.6039
  39   2.0000      -0.619053       -16.8453
  40   2.0000      -0.600665       -16.3449
  41   2.0000      -0.572986       -15.5917
  42   2.0000      -0.563428       -15.3317
  43   2.0000      -0.552180       -15.0256
  44   2.0000      -0.539245       -14.6736
  45   2.0000      -0.530028       -14.4228
  46   2.0000      -0.516141       -14.0449
  47   2.0000      -0.513413       -13.9707
  48   2.0000      -0.505702       -13.7608
  49   2.0000      -0.502153       -13.6643
  50   2.0000      -0.488916       -13.3041
  51   2.0000      -0.485844       -13.2205
  52   2.0000      -0.473096       -12.8736
  53   2.0000      -0.467161       -12.7121
  54   2.0000      -0.459974       -12.5165
  55   2.0000      -0.451400       -12.2832
  56   2.0000      -0.444399       -12.0927
  57   2.0000      -0.436296       -11.8722
  58   2.0000      -0.429752       -11.6941
  59   2.0000      -0.423699       -11.5294
  60   2.0000      -0.421091       -11.4585
  61   2.0000      -0.415514       -11.3067
  62   2.0000      -0.408570       -11.1178
  63   2.0000      -0.341689        -9.2978
  64   2.0000      -0.334301        -9.0968
  65   2.0000      -0.324975        -8.8430
  66   2.0000      -0.297376        -8.0920
  67   0.0000       0.032951         0.8966
  68   0.0000       0.071041         1.9331
  69   0.0000       0.117491         3.1971
  70   0.0000       0.123007         3.3472
  71   0.0000       0.131664         3.5828

MULLIKEN ATOMIC CHARGES
-----------------------
   0 S :    0.119319
   1 C :   -0.153173
   2 C :   -0.056033
   3 C :    0.030451
   4 C :   -0.161277
   5 H :    0.001551
   6 C :    0.072228
   7 H :    0.044783
   8 H :    0.005864
   9 C :   -0.087047
  10 H :    0.034734
  11 H :    0.044505
  12 C :   -0.035655
  13 H :    0.048937
  14 H :    0.027379
  15 H :    0.026504
  16 S :    0.081095
  17 C :   -0.077608
  18 C :   -0.030889
  19 C :    0.013250
  20 C :   -0.179497
  21 H :    0.007174
  22 C :    0.087725
  23 H :    0.022356
  24 H :    0.006639
  25 C :   -0.069317
  26 H :    0.028254
  27 H :    0.037720
  28 C :   -0.040891
  29 H :    0.032850
  30 H :    0.010746
  31 H :    0.009651
  32 H :    0.048332
  33 H :    0.049339
Sum of atomic charges:   -0.0000000

LOEWDIN ATOMIC CHARGES
----------------------
   0 S :    0.423713
   1 C :   -0.196417
   2 C :   -0.056417
   3 C :   -0.069058
   4 C :   -0.212845
   5 H :    0.026028
   6 C :   -0.038293
   7 H :    0.039609
   8 H :    0.026216
   9 C :   -0.043975
  10 H :    0.023180
  11 H :    0.033718
  12 C :   -0.061248
  13 H :    0.036411
  14 H :    0.026269
  15 H :    0.019449
  16 S :    0.382538
  17 C :   -0.175936
  18 C :   -0.066638
  19 C :   -0.057018
  20 C :   -0.176777
  21 H :    0.023652
  22 C :   -0.034161
  23 H :    0.035294
  24 H :    0.027486
  25 C :   -0.032314
  26 H :    0.024515
  27 H :    0.027769
  28 C :   -0.066083
  29 H :    0.031671
  30 H :    0.012516
  31 H :    0.015589
  32 H :    0.026697
  33 H :    0.024859

  Mayer bond orders larger than 0.100000
B(  0-S ,  1-C ) :   1.1316 B(  0-S ,  4-C ) :   1.1792 B(  1-C ,  2-C ) :   1.6093
B(  1-C , 32-H ) :   0.9751 B(  2-C ,  3-C ) :   1.2237 B(  2-C ,  6-C ) :   0.9968
B(  3-C ,  4-C ) :   1.5753 B(  3-C ,  5-H ) :   0.9950 B(  4-C , 20-C ) :   1.0010
B(  6-C ,  7-H ) :   0.9396 B(  6-C ,  8-H ) :   0.9285 B(  6-C ,  9-C ) :   1.0575
B(  9-C , 10-H ) :   0.9526 B(  9-C , 11-H ) :   0.9547 B(  9-C , 12-C ) :   1.0826
B( 12-C , 13-H ) :   0.9733 B( 12-C , 14-H ) :   0.9727 B( 12-C , 15-H ) :   0.9768
B( 16-S , 17-C ) :   1.1323 B( 16-S , 20-C ) :   1.1460 B( 17-C , 18-C ) :   1.6337
B( 17-C , 33-H ) :   0.9737 B( 18-C , 19-C ) :   1.2060 B( 18-C , 21-H ) :   0.9898
B( 19-C , 20-C ) :   1.6210 B( 19-C , 22-C ) :   1.0449 B( 22-C , 23-H ) :   0.9316
B( 22-C , 24-H ) :   0.9246 B( 22-C , 25-C ) :   1.0757 B( 25-C , 26-H ) :   0.9543
B( 25-C , 27-H ) :   0.9596 B( 25-C , 28-C ) :   1.0714 B( 28-C , 29-H ) :   0.9736
B( 28-C , 30-H ) :   0.9735 B( 28-C , 31-H ) :   0.9760

Dispersion correction           -0.013629162
FINAL SINGLE POINT ENERGY     -1339.870139235161

DIPOLE MOMENT
-------------
                                X             Y             Z
Electronic contribution:    -18.50588     -19.50343      -7.96987
Nuclear contribution   :     18.98407      19.72247       8.20443
                        -----------------------------------------
Total Dipole Moment    :      0.47820       0.21905       0.23455
                        -----------------------------------------
Magnitude (a.u.)       :      0.57591
Magnitude (Debye)      :      1.46384

Rotational constants in cm-1:     0.017927     0.008337     0.006272
Rotational constants in MHz :   537.429679   249.951878   188.037187

                             ****ORCA TERMINATED NORMALLY****
TOTAL RUN TIME: 0 days 0 hours 0 minutes 29 seconds 329 msec
