                         Program Version 4.2.1 -  RELEASE  -
|  1> ! wB97X-D3 SP def2-SVP
|  2> %pal
|  3> nprocs 16
|  4> end
|  5>
|  6> * xyz 0 1
|  7> S 	 52.4669 	 4.89902 	 83.4138
|  8> C 	 52.32 	 3.66577 	 82.1691
|  9> C 	 52.451 	 2.37933 	 82.6873
| 10> C 	 52.5542 	 2.39128 	 84.121
| 11> C 	 52.7722 	 3.61666 	 84.645
| 12> H 	 52.4763 	 1.58927 	 84.7659
| 13> C 	 52.4474 	 1.04916 	 81.9417
| 14> H 	 52.8788 	 1.3141 	 80.9596
| 15> H 	 51.3968 	 0.795659 	 81.701
| 16> C 	 53.2287 	 -0.104177 	 82.6194
| 17> H 	 54.1772 	 0.256556 	 82.9654
| 18> H 	 52.722 	 -0.506491 	 83.4696
| 19> C 	 53.4342 	 -1.24352 	 81.5905
| 20> H 	 53.8153 	 -2.2076 	 81.9625
| 21> H 	 52.4215 	 -1.49841 	 81.2971
| 22> H 	 54.0243 	 -0.941661 	 80.6608
| 23> S 	 51.8266 	 5.05788 	 86.7508
| 24> C 	 52.3737 	 4.74102 	 88.3687
| 25> C 	 53.4115 	 3.78918 	 88.3313
| 26> C 	 53.7039 	 3.25152 	 87.068
| 27> C 	 52.9243 	 3.87361 	 86.0826
| 28> H 	 53.9235 	 3.61958 	 89.2526
| 29> C 	 54.8142 	 2.23157 	 86.9276
| 30> H 	 55.3338 	 2.46217 	 86.0379
| 31> H 	 54.3322 	 1.2246 	 86.8274
| 32> C 	 55.8704 	 2.12192 	 88.0409
| 33> H 	 55.4246 	 1.66924 	 88.946
| 34> H 	 56.1471 	 3.11809 	 88.3219
| 35> C 	 57.2121 	 1.41483 	 87.7191
| 36> H 	 56.9741 	 0.545474 	 87.1859
| 37> H 	 57.8138 	 1.11832 	 88.56
| 38> H 	 57.9316 	 1.85451 	 86.9851
| 39> H 	 52.1068 	 3.76021 	 81.1296
| 40> H 	 52.3001 	 5.43934 	 89.1373
| 41> *
| 42>
| 43>                          ****END OF INPUT****

CARTESIAN COORDINATES (ANGSTROEM)
---------------------------------
  S     52.466900    4.899020   83.413800
  C     52.320000    3.665770   82.169100
  C     52.451000    2.379330   82.687300
  C     52.554200    2.391280   84.121000
  C     52.772200    3.616660   84.645000
  H     52.476300    1.589270   84.765900
  C     52.447400    1.049160   81.941700
  H     52.878800    1.314100   80.959600
  H     51.396800    0.795659   81.701000
  C     53.228700   -0.104177   82.619400
  H     54.177200    0.256556   82.965400
  H     52.722000   -0.506491   83.469600
  C     53.434200   -1.243520   81.590500
  H     53.815300   -2.207600   81.962500
  H     52.421500   -1.498410   81.297100
  H     54.024300   -0.941661   80.660800
  S     51.826600    5.057880   86.750800
  C     52.373700    4.741020   88.368700
  C     53.411500    3.789180   88.331300
  C     53.703900    3.251520   87.068000
  C     52.924300    3.873610   86.082600
  H     53.923500    3.619580   89.252600
  C     54.814200    2.231570   86.927600
  H     55.333800    2.462170   86.037900
  H     54.332200    1.224600   86.827400
  C     55.870400    2.121920   88.040900
  H     55.424600    1.669240   88.946000
  H     56.147100    3.118090   88.321900
  C     57.212100    1.414830   87.719100
  H     56.974100    0.545474   87.185900
  H     57.813800    1.118320   88.560000
  H     57.931600    1.854510   86.985100
  H     52.106800    3.760210   81.129600
  H     52.300100    5.439340   89.137300

 Total Charge           Charge          ....    0
 Multiplicity           Mult            ....    1
 Number of Electrons    NEL             ....  134
 Basis Dimension        Dim             ....  322

ORBITAL ENERGIES
----------------

  NO   OCC          E(Eh)            E(eV)
   0   2.0000     -88.968167     -2420.9469
   1   2.0000     -88.965308     -2420.8691
   2   2.0000     -10.329417      -281.0777
   3   2.0000     -10.328009      -281.0394
   4   2.0000     -10.313764      -280.6518
   5   2.0000     -10.309274      -280.5296
   6   2.0000     -10.305742      -280.4335
   7   2.0000     -10.301614      -280.3212
   8   2.0000     -10.298680      -280.2413
   9   2.0000     -10.294860      -280.1374
  10   2.0000     -10.291111      -280.0354
  11   2.0000     -10.290788      -280.0266
  12   2.0000     -10.290634      -280.0224
  13   2.0000     -10.286326      -279.9052
  14   2.0000     -10.284858      -279.8652
  15   2.0000     -10.278162      -279.6830
  16   2.0000      -8.081645      -219.9127
  17   2.0000      -8.080208      -219.8737
  18   2.0000      -6.040434      -164.3686
  19   2.0000      -6.038623      -164.3193
  20   2.0000      -6.036469      -164.2607
  21   2.0000      -6.034538      -164.2081
  22   2.0000      -6.032044      -164.1403
  23   2.0000      -6.031229      -164.1181
  24   2.0000      -1.004791       -27.3417
  25   2.0000      -0.981408       -26.7055
  26   2.0000      -0.911424       -24.8011
  27   2.0000      -0.908705       -24.7271
  28   2.0000      -0.869526       -23.6610
  29   2.0000      -0.854405       -23.2496
  30   2.0000      -0.845434       -23.0054
  31   2.0000      -0.815058       -22.1789
  32   2.0000      -0.784797       -21.3554
  33   2.0000      -0.769229       -20.9318
  34   2.0000      -0.715769       -19.4771
  35   2.0000      -0.707807       -19.2604
  36   2.0000      -0.695823       -18.9343
  37   2.0000      -0.655906       -17.8481
  38   2.0000      -0.642668       -17.4879
  39   2.0000      -0.622058       -16.9270
  40   2.0000      -0.599090       -16.3021
  41   2.0000      -0.572539       -15.5796
  42   2.0000      -0.570413       -15.5217
  43   2.0000      -0.560433       -15.2502
  44   2.0000      -0.530099       -14.4247
  45   2.0000      -0.521650       -14.1948
  46   2.0000      -0.516454       -14.0534
  47   2.0000      -0.507099       -13.7989
  48   2.0000      -0.506146       -13.7729
  49   2.0000      -0.495590       -13.4857
  50   2.0000      -0.491407       -13.3719
  51   2.0000      -0.481942       -13.1143
  52   2.0000      -0.473383       -12.8814
  53   2.0000      -0.465390       -12.6639
  54   2.0000      -0.460819       -12.5395
  55   2.0000      -0.450349       -12.2546
  56   2.0000      -0.447846       -12.1865
  57   2.0000      -0.435332       -11.8460
  58   2.0000      -0.431835       -11.7508
  59   2.0000      -0.429861       -11.6971
  60   2.0000      -0.427293       -11.6272
  61   2.0000      -0.421536       -11.4706
  62   2.0000      -0.413374       -11.2485
  63   2.0000      -0.347399        -9.4532
  64   2.0000      -0.333309        -9.0698
  65   2.0000      -0.325207        -8.8493
  66   2.0000      -0.289723        -7.8838
  67   0.0000       0.023299         0.6340
  68   0.0000       0.072792         1.9808
  69   0.0000       0.107863         2.9351
  70   0.0000       0.124810         3.3963
  71   0.0000       0.132856         3.6152

MULLIKEN ATOMIC CHARGES
-----------------------
   0 S :    0.103811
   1 C :   -0.095689
   2 C :   -0.104354
   3 C :    0.037707
   4 C :   -0.123625
   5 H :   -0.014064
   6 C :    0.047646
   7 H :    0.022963
   8 H :    0.046039
   9 C :   -0.052519
  10 H :    0.031119
  11 H :    0.033213
  12 C :   -0.064934
  13 H :    0.035310
  14 H :    0.018742
  15 H :    0.048802
  16 S :    0.105819
  17 C :   -0.065487
  18 C :   -0.073098
  19 C :   -0.036042
  20 C :   -0.172847
  21 H :    0.014255
  22 C :    0.101002
  23 H :    0.023887
  24 H :    0.043487
  25 C :   -0.097773
  26 H :    0.037166
  27 H :    0.027500
  28 C :   -0.029272
  29 H :    0.006077
  30 H :    0.035419
  31 H :    0.033866
  32 H :    0.030875
  33 H :    0.044995
Sum of atomic charges:    0.0000000

LOEWDIN ATOMIC CHARGES
----------------------
   0 S :    0.374516
   1 C :   -0.195017
   2 C :   -0.059178
   3 C :   -0.049272
   4 C :   -0.177197
   5 H :    0.019875
   6 C :   -0.035387
   7 H :    0.033384
   8 H :    0.036784
   9 C :   -0.035408
  10 H :    0.021999
  11 H :    0.022879
  12 C :   -0.070197
  13 H :    0.025864
  14 H :    0.022364
  15 H :    0.033438
  16 S :    0.421080
  17 C :   -0.195062
  18 C :   -0.063965
  19 C :   -0.060204
  20 C :   -0.193160
  21 H :    0.026722
  22 C :   -0.029197
  23 H :    0.028494
  24 H :    0.038456
  25 C :   -0.040808
  26 H :    0.027359
  27 H :    0.020362
  28 C :   -0.068852
  29 H :    0.016422
  30 H :    0.028409
  31 H :    0.032281
  32 H :    0.025438
  33 H :    0.016779

  Mayer bond orders larger than 0.100000
B(  0-S ,  1-C ) :   1.1180 B(  0-S ,  4-C ) :   1.1143 B(  1-C ,  2-C ) :   1.6519
B(  1-C , 32-H ) :   0.9675 B(  2-C ,  3-C ) :   1.2073 B(  2-C ,  6-C ) :   1.0090
B(  3-C ,  4-C ) :   1.6127 B(  3-C ,  5-H ) :   0.9999 B(  4-C , 20-C ) :   1.0395
B(  6-C ,  7-H ) :   0.9444 B(  6-C ,  8-H ) :   0.9297 B(  6-C ,  9-C ) :   1.0671
B(  9-C , 10-H ) :   0.9608 B(  9-C , 11-H ) :   0.9456 B(  9-C , 12-C ) :   1.0793
B( 12-C , 13-H ) :   0.9748 B( 12-C , 14-H ) :   0.9725 B( 12-C , 15-H ) :   0.9770
B( 16-S , 17-C ) :   1.1676 B( 16-S , 20-C ) :   1.1725 B( 17-C , 18-C ) :   1.5727
B( 17-C , 20-C ) :   0.1118 B( 17-C , 33-H ) :   0.9655 B( 18-C , 19-C ) :   1.2870
B( 18-C , 21-H ) :   0.9861 B( 19-C , 20-C ) :   1.5591 B( 19-C , 22-C ) :   1.0267
B( 22-C , 23-H ) :   0.9355 B( 22-C , 24-H ) :   0.9164 B( 22-C , 25-C ) :   1.0881
B( 25-C , 26-H ) :   0.9447 B( 25-C , 27-H ) :   0.9575 B( 25-C , 28-C ) :   1.0766
B( 28-C , 29-H ) :   0.9719 B( 28-C , 30-H ) :   0.9743 B( 28-C , 31-H ) :   0.9735

Dispersion correction           -0.013459262
FINAL SINGLE POINT ENERGY     -1339.865486397237

DIPOLE MOMENT
-------------
                                X             Y             Z
Electronic contribution:    -16.65070      27.25767       2.07950
Nuclear contribution   :     16.98132     -27.96898      -2.08166
                        -----------------------------------------
Total Dipole Moment    :      0.33062      -0.71131      -0.00217
                        -----------------------------------------
Magnitude (a.u.)       :      0.78439
Magnitude (Debye)      :      1.99377

Rotational constants in cm-1:     0.015055     0.009262     0.006300
Rotational constants in MHz :   451.343857   277.680204   188.860693

                             ****ORCA TERMINATED NORMALLY****
TOTAL RUN TIME: 0 days 0 hours 0 minutes 27 seconds 659 msec
