                         Program Version 4.2.1 -  RELEASE  -
|  1> ! wB97X-D3 SP def2-SVP
|  2> %pal
|  3> nprocs 16
|  4> end
|  5>
|  6> * xyz 0 1
|  7> S 	 3.56783 	 -20.8759 	 57.8111
|  8> C 	 2.83897 	 -22.4633 	 58.0821
|  9> C 	 3.66859 	 -23.5196 	 57.7266
| 10> C 	 4.92878 	 -23.04 	 57.1482
| 11> C 	 5.05072 	 -21.6191 	 57.0789
| 12> H 	 5.774 	 -23.608 	 56.858
| 13> C 	 3.33942 	 -24.9906 	 57.8562
| 14> H 	 2.47321 	 -25.1956 	 57.222
| 15> H 	 2.92456 	 -25.0942 	 58.9027
| 16> C 	 4.50955 	 -25.9341 	 57.6418
| 17> H 	 4.9091 	 -25.9034 	 56.6409
| 18> H 	 5.38271 	 -25.7427 	 58.2844
| 19> C 	 4.1157 	 -27.4121 	 58.0702
| 20> H 	 4.85346 	 -28.2009 	 58.3182
| 21> H 	 3.5065 	 -27.3884 	 59.0261
| 22> H 	 3.46315 	 -27.9307 	 57.3405
| 23> S 	 5.50352 	 -19.2996 	 55.752
| 24> C 	 6.99254 	 -18.9873 	 55.0854
| 25> C 	 7.90493 	 -19.9902 	 55.3314
| 26> C 	 7.44123 	 -21.0109 	 56.1118
| 27> C 	 6.0512 	 -20.8422 	 56.3456
| 28> H 	 8.89613 	 -20.0327 	 54.8229
| 29> C 	 8.33974 	 -22.1714 	 56.5238
| 30> H 	 7.70391 	 -22.7584 	 57.2598
| 31> H 	 9.20613 	 -21.8144 	 57.1381
| 32> C 	 8.9235 	 -23.0642 	 55.3785
| 33> H 	 9.39266 	 -23.9743 	 55.7875
| 34> H 	 9.71084 	 -22.4712 	 54.9309
| 35> C 	 7.87901 	 -23.3753 	 54.3027
| 36> H 	 7.72468 	 -22.4438 	 53.7475
| 37> H 	 7.0007 	 -23.7124 	 54.8686
| 38> H 	 8.20553 	 -24.223 	 53.6829
| 39> H 	 1.9763 	 -22.6037 	 58.7021
| 40> H 	 7.28014 	 -18.2459 	 54.3388
| 41> *
| 42>
| 43>                          ****END OF INPUT****

CARTESIAN COORDINATES (ANGSTROEM)
---------------------------------
  S      3.567830  -20.875900   57.811100
  C      2.838970  -22.463300   58.082100
  C      3.668590  -23.519600   57.726600
  C      4.928780  -23.040000   57.148200
  C      5.050720  -21.619100   57.078900
  H      5.774000  -23.608000   56.858000
  C      3.339420  -24.990600   57.856200
  H      2.473210  -25.195600   57.222000
  H      2.924560  -25.094200   58.902700
  C      4.509550  -25.934100   57.641800
  H      4.909100  -25.903400   56.640900
  H      5.382710  -25.742700   58.284400
  C      4.115700  -27.412100   58.070200
  H      4.853460  -28.200900   58.318200
  H      3.506500  -27.388400   59.026100
  H      3.463150  -27.930700   57.340500
  S      5.503520  -19.299600   55.752000
  C      6.992540  -18.987300   55.085400
  C      7.904930  -19.990200   55.331400
  C      7.441230  -21.010900   56.111800
  C      6.051200  -20.842200   56.345600
  H      8.896130  -20.032700   54.822900
  C      8.339740  -22.171400   56.523800
  H      7.703910  -22.758400   57.259800
  H      9.206130  -21.814400   57.138100
  C      8.923500  -23.064200   55.378500
  H      9.392660  -23.974300   55.787500
  H      9.710840  -22.471200   54.930900
  C      7.879010  -23.375300   54.302700
  H      7.724680  -22.443800   53.747500
  H      7.000700  -23.712400   54.868600
  H      8.205530  -24.223000   53.682900
  H      1.976300  -22.603700   58.702100
  H      7.280140  -18.245900   54.338800

 Total Charge           Charge          ....    0
 Multiplicity           Mult            ....    1
 Number of Electrons    NEL             ....  134
 Basis Dimension        Dim             ....  322

ORBITAL ENERGIES
----------------

  NO   OCC          E(Eh)            E(eV)
   0   2.0000     -88.971941     -2421.0496
   1   2.0000     -88.967685     -2420.9338
   2   2.0000     -10.339972      -281.3649
   3   2.0000     -10.331575      -281.1365
   4   2.0000     -10.313244      -280.6376
   5   2.0000     -10.309696      -280.5411
   6   2.0000     -10.307850      -280.4908
   7   2.0000     -10.302117      -280.3348
   8   2.0000     -10.301740      -280.3246
   9   2.0000     -10.300935      -280.3027
  10   2.0000     -10.298310      -280.2313
  11   2.0000     -10.297531      -280.2101
  12   2.0000     -10.290200      -280.0106
  13   2.0000     -10.289734      -279.9979
  14   2.0000     -10.287484      -279.9367
  15   2.0000     -10.278564      -279.6940
  16   2.0000      -8.088152      -220.0898
  17   2.0000      -8.080843      -219.8909
  18   2.0000      -6.046335      -164.5291
  19   2.0000      -6.042362      -164.4210
  20   2.0000      -6.039603      -164.3460
  21   2.0000      -6.039240      -164.3361
  22   2.0000      -6.035589      -164.2367
  23   2.0000      -6.031428      -164.1235
  24   2.0000      -1.015087       -27.6219
  25   2.0000      -0.976852       -26.5815
  26   2.0000      -0.912059       -24.8184
  27   2.0000      -0.909553       -24.7502
  28   2.0000      -0.867891       -23.6165
  29   2.0000      -0.857009       -23.3204
  30   2.0000      -0.838323       -22.8119
  31   2.0000      -0.810508       -22.0550
  32   2.0000      -0.782422       -21.2908
  33   2.0000      -0.769226       -20.9317
  34   2.0000      -0.717655       -19.5284
  35   2.0000      -0.698728       -19.0133
  36   2.0000      -0.692323       -18.8391
  37   2.0000      -0.658092       -17.9076
  38   2.0000      -0.638412       -17.3721
  39   2.0000      -0.618456       -16.8290
  40   2.0000      -0.593832       -16.1590
  41   2.0000      -0.567685       -15.4475
  42   2.0000      -0.562319       -15.3015
  43   2.0000      -0.553233       -15.0542
  44   2.0000      -0.548520       -14.9260
  45   2.0000      -0.523086       -14.2339
  46   2.0000      -0.512469       -13.9450
  47   2.0000      -0.508497       -13.8369
  48   2.0000      -0.502656       -13.6780
  49   2.0000      -0.494194       -13.4477
  50   2.0000      -0.491070       -13.3627
  51   2.0000      -0.479947       -13.0600
  52   2.0000      -0.468272       -12.7423
  53   2.0000      -0.464355       -12.6357
  54   2.0000      -0.461834       -12.5671
  55   2.0000      -0.446859       -12.1596
  56   2.0000      -0.442171       -12.0321
  57   2.0000      -0.436708       -11.8834
  58   2.0000      -0.435197       -11.8423
  59   2.0000      -0.429773       -11.6947
  60   2.0000      -0.425541       -11.5796
  61   2.0000      -0.418824       -11.3968
  62   2.0000      -0.410655       -11.1745
  63   2.0000      -0.357884        -9.7385
  64   2.0000      -0.339976        -9.2512
  65   2.0000      -0.327100        -8.9008
  66   2.0000      -0.277055        -7.5390
  67   0.0000       0.018064         0.4915
  68   0.0000       0.074994         2.0407
  69   0.0000       0.102593         2.7917
  70   0.0000       0.117142         3.1876
  71   0.0000       0.129793         3.5318

MULLIKEN ATOMIC CHARGES
-----------------------
   0 S :    0.089705
   1 C :   -0.121509
   2 C :   -0.080054
   3 C :    0.005511
   4 C :   -0.117852
   5 H :   -0.003690
   6 C :    0.050169
   7 H :    0.051541
   8 H :    0.037483
   9 C :   -0.074309
  10 H :    0.042784
  11 H :    0.043799
  12 C :   -0.091179
  13 H :    0.040243
  14 H :    0.029850
  15 H :    0.032663
  16 S :    0.136548
  17 C :   -0.071009
  18 C :   -0.078237
  19 C :   -0.036182
  20 C :   -0.166635
  21 H :    0.027520
  22 C :    0.017818
  23 H :    0.030721
  24 H :    0.048045
  25 C :   -0.089504
  26 H :    0.038034
  27 H :    0.023907
  28 C :   -0.032321
  29 H :    0.050859
  30 H :    0.023506
  31 H :    0.040390
  32 H :    0.044440
  33 H :    0.056943
Sum of atomic charges:   -0.0000000

LOEWDIN ATOMIC CHARGES
----------------------
   0 S :    0.367123
   1 C :   -0.197783
   2 C :   -0.055689
   3 C :   -0.067521
   4 C :   -0.168740
   5 H :    0.014975
   6 C :   -0.036678
   7 H :    0.039634
   8 H :    0.041196
   9 C :   -0.042062
  10 H :    0.024730
  11 H :    0.031750
  12 C :   -0.082308
  13 H :    0.028456
  14 H :    0.029411
  15 H :    0.023858
  16 S :    0.463770
  17 C :   -0.222028
  18 C :   -0.082071
  19 C :   -0.062927
  20 C :   -0.199191
  21 H :    0.036467
  22 C :   -0.038939
  23 H :    0.031551
  24 H :    0.039640
  25 C :   -0.041763
  26 H :    0.027128
  27 H :    0.017376
  28 C :   -0.065053
  29 H :    0.032101
  30 H :    0.024592
  31 H :    0.028498
  32 H :    0.024699
  33 H :    0.035799

  Mayer bond orders larger than 0.100000
B(  0-S ,  1-C ) :   1.1224 B(  0-S ,  4-C ) :   1.1337 B(  1-C ,  2-C ) :   1.6270
B(  1-C , 32-H ) :   0.9688 B(  2-C ,  3-C ) :   1.2432 B(  2-C ,  6-C ) :   1.0079
B(  3-C ,  4-C ) :   1.5538 B(  3-C ,  5-H ) :   0.9785 B(  4-C , 20-C ) :   1.0812
B(  6-C ,  7-H ) :   0.9380 B(  6-C ,  8-H ) :   0.9365 B(  6-C ,  9-C ) :   1.0803
B(  9-C , 10-H ) :   0.9479 B(  9-C , 11-H ) :   0.9572 B(  9-C , 12-C ) :   1.0570
B( 12-C , 13-H ) :   0.9800 B( 12-C , 14-H ) :   0.9761 B( 12-C , 15-H ) :   0.9780
B( 16-S , 17-C ) :   1.1892 B( 16-S , 20-C ) :   1.1747 B( 17-C , 18-C ) :   1.5614
B( 17-C , 20-C ) :   0.1022 B( 17-C , 33-H ) :   0.9601 B( 18-C , 19-C ) :   1.3215
B( 18-C , 21-H ) :   0.9790 B( 19-C , 20-C ) :   1.5020 B( 19-C , 22-C ) :   1.0349
B( 22-C , 23-H ) :   0.9345 B( 22-C , 24-H ) :   0.9395 B( 22-C , 25-C ) :   1.0582
B( 25-C , 26-H ) :   0.9574 B( 25-C , 27-H ) :   0.9548 B( 25-C , 28-C ) :   1.0795
B( 28-C , 29-H ) :   0.9646 B( 28-C , 30-H ) :   0.9787 B( 28-C , 31-H ) :   0.9717

Dispersion correction           -0.014692965
FINAL SINGLE POINT ENERGY     -1339.872126600559

DIPOLE MOMENT
-------------
                                X             Y             Z
Electronic contribution:     -9.72991      30.08624       1.69927
Nuclear contribution   :     10.09707     -30.70406      -1.82929
                        -----------------------------------------
Total Dipole Moment    :      0.36716      -0.61782      -0.13002
                        -----------------------------------------
Magnitude (a.u.)       :      0.73035
Magnitude (Debye)      :      1.85640

Rotational constants in cm-1:     0.018284     0.009427     0.006554
Rotational constants in MHz :   548.154164   282.610465   196.492787

                             ****ORCA TERMINATED NORMALLY****
TOTAL RUN TIME: 0 days 0 hours 0 minutes 36 seconds 816 msec
