                         Program Version 4.2.1 -  RELEASE  -
|  1> ! wB97X-D3 SP def2-SVP
|  2> %pal
|  3> nprocs 16
|  4> end
|  5>
|  6> * xyz 0 1
|  7> S 	 -48.6448 	 6.92092 	 91.413
|  8> C 	 -47.6433 	 7.74954 	 92.6104
|  9> C 	 -47.4728 	 9.05772 	 92.2013
| 10> C 	 -48.041 	 9.36558 	 90.9189
| 11> C 	 -48.6376 	 8.26282 	 90.2881
| 12> H 	 -48.0682 	 10.2639 	 90.3983
| 13> C 	 -46.7622 	 9.9958 	 93.0691
| 14> H 	 -47.2432 	 10.1206 	 94.0187
| 15> H 	 -46.6683 	 11.0681 	 92.8286
| 16> C 	 -45.3438 	 9.66468 	 93.4055
| 17> H 	 -45.0626 	 10.2441 	 94.3468
| 18> H 	 -45.2197 	 8.64619 	 93.5922
| 19> C 	 -44.3493 	 10.2254 	 92.404
| 20> H 	 -44.4605 	 9.92591 	 91.3409
| 21> H 	 -44.4488 	 11.3015 	 92.486
| 22> H 	 -43.3115 	 9.98766 	 92.5709
| 23> S 	 -48.3081 	 8.26514 	 87.5755
| 24> C 	 -49.6328 	 7.89662 	 86.5137
| 25> C 	 -50.7907 	 7.91351 	 87.1533
| 26> C 	 -50.6464 	 8.1231 	 88.5766
| 27> C 	 -49.3145 	 8.19214 	 89.0347
| 28> H 	 -51.7546 	 7.75426 	 86.6332
| 29> C 	 -51.8959 	 8.10981 	 89.4645
| 30> H 	 -52.4313 	 9.00112 	 89.2315
| 31> H 	 -51.6031 	 8.20488 	 90.5311
| 32> C 	 -52.8621 	 6.95697 	 89.3407
| 33> H 	 -52.3846 	 6.22099 	 89.962
| 34> H 	 -52.8516 	 6.53131 	 88.2809
| 35> C 	 -54.3132 	 7.17179 	 89.9191
| 36> H 	 -54.609 	 8.11679 	 89.4782
| 37> H 	 -54.4124 	 7.27609 	 91.0685
| 38> H 	 -54.9667 	 6.31619 	 89.5738
| 39> H 	 -47.3176 	 7.31567 	 93.5303
| 40> H 	 -49.4634 	 7.90767 	 85.4141
| 41> *
| 42>
| 43>                          ****END OF INPUT****

CARTESIAN COORDINATES (ANGSTROEM)
---------------------------------
  S    -48.644800    6.920920   91.413000
  C    -47.643300    7.749540   92.610400
  C    -47.472800    9.057720   92.201300
  C    -48.041000    9.365580   90.918900
  C    -48.637600    8.262820   90.288100
  H    -48.068200   10.263900   90.398300
  C    -46.762200    9.995800   93.069100
  H    -47.243200   10.120600   94.018700
  H    -46.668300   11.068100   92.828600
  C    -45.343800    9.664680   93.405500
  H    -45.062600   10.244100   94.346800
  H    -45.219700    8.646190   93.592200
  C    -44.349300   10.225400   92.404000
  H    -44.460500    9.925910   91.340900
  H    -44.448800   11.301500   92.486000
  H    -43.311500    9.987660   92.570900
  S    -48.308100    8.265140   87.575500
  C    -49.632800    7.896620   86.513700
  C    -50.790700    7.913510   87.153300
  C    -50.646400    8.123100   88.576600
  C    -49.314500    8.192140   89.034700
  H    -51.754600    7.754260   86.633200
  C    -51.895900    8.109810   89.464500
  H    -52.431300    9.001120   89.231500
  H    -51.603100    8.204880   90.531100
  C    -52.862100    6.956970   89.340700
  H    -52.384600    6.220990   89.962000
  H    -52.851600    6.531310   88.280900
  C    -54.313200    7.171790   89.919100
  H    -54.609000    8.116790   89.478200
  H    -54.412400    7.276090   91.068500
  H    -54.966700    6.316190   89.573800
  H    -47.317600    7.315670   93.530300
  H    -49.463400    7.907670   85.414100

 Total Charge           Charge          ....    0
 Multiplicity           Mult            ....    1
 Number of Electrons    NEL             ....  134
 Basis Dimension        Dim             ....  322

ORBITAL ENERGIES
----------------

  NO   OCC          E(Eh)            E(eV)
   0   2.0000     -88.966262     -2420.8951
   1   2.0000     -88.958474     -2420.6832
   2   2.0000     -10.332143      -281.1519
   3   2.0000     -10.330269      -281.1009
   4   2.0000     -10.317018      -280.7403
   5   2.0000     -10.316962      -280.7388
   6   2.0000     -10.311788      -280.5980
   7   2.0000     -10.303933      -280.3843
   8   2.0000     -10.295963      -280.1674
   9   2.0000     -10.294055      -280.1155
  10   2.0000     -10.292633      -280.0768
  11   2.0000     -10.287844      -279.9465
  12   2.0000     -10.286784      -279.9176
  13   2.0000     -10.282337      -279.7966
  14   2.0000     -10.282024      -279.7881
  15   2.0000     -10.272379      -279.5256
  16   2.0000      -8.080506      -219.8817
  17   2.0000      -8.073843      -219.7004
  18   2.0000      -6.039025      -164.3302
  19   2.0000      -6.034871      -164.2172
  20   2.0000      -6.032416      -164.1504
  21   2.0000      -6.031484      -164.1250
  22   2.0000      -6.028271      -164.0376
  23   2.0000      -6.024459      -163.9339
  24   2.0000      -1.007242       -27.4084
  25   2.0000      -0.986964       -26.8567
  26   2.0000      -0.924060       -25.1449
  27   2.0000      -0.905995       -24.6534
  28   2.0000      -0.877350       -23.8739
  29   2.0000      -0.847167       -23.0526
  30   2.0000      -0.840061       -22.8592
  31   2.0000      -0.820219       -22.3193
  32   2.0000      -0.784585       -21.3496
  33   2.0000      -0.769979       -20.9522
  34   2.0000      -0.710412       -19.3313
  35   2.0000      -0.701237       -19.0816
  36   2.0000      -0.690928       -18.8011
  37   2.0000      -0.657928       -17.9031
  38   2.0000      -0.649421       -17.6716
  39   2.0000      -0.615388       -16.7455
  40   2.0000      -0.603728       -16.4283
  41   2.0000      -0.587626       -15.9901
  42   2.0000      -0.559856       -15.2345
  43   2.0000      -0.553952       -15.0738
  44   2.0000      -0.546013       -14.8578
  45   2.0000      -0.522946       -14.2301
  46   2.0000      -0.518987       -14.1224
  47   2.0000      -0.514889       -14.0109
  48   2.0000      -0.507232       -13.8025
  49   2.0000      -0.500991       -13.6326
  50   2.0000      -0.489235       -13.3128
  51   2.0000      -0.472771       -12.8647
  52   2.0000      -0.472244       -12.8504
  53   2.0000      -0.466427       -12.6921
  54   2.0000      -0.462623       -12.5886
  55   2.0000      -0.451782       -12.2936
  56   2.0000      -0.437184       -11.8964
  57   2.0000      -0.435627       -11.8540
  58   2.0000      -0.429046       -11.6749
  59   2.0000      -0.420444       -11.4409
  60   2.0000      -0.414414       -11.2768
  61   2.0000      -0.410633       -11.1739
  62   2.0000      -0.406780       -11.0690
  63   2.0000      -0.339888        -9.2488
  64   2.0000      -0.331636        -9.0243
  65   2.0000      -0.323390        -8.7999
  66   2.0000      -0.304750        -8.2927
  67   0.0000       0.034655         0.9430
  68   0.0000       0.055410         1.5078
  69   0.0000       0.104637         2.8473
  70   0.0000       0.126848         3.4517
  71   0.0000       0.128981         3.5098

MULLIKEN ATOMIC CHARGES
-----------------------
   0 S :    0.116168
   1 C :   -0.123364
   2 C :   -0.029575
   3 C :    0.085814
   4 C :   -0.183433
   5 H :   -0.012988
   6 C :    0.069161
   7 H :    0.023192
   8 H :    0.005573
   9 C :   -0.079728
  10 H :    0.027416
  11 H :    0.011866
  12 C :   -0.053887
  13 H :    0.036343
  14 H :    0.020805
  15 H :    0.026617
  16 S :    0.085854
  17 C :   -0.091899
  18 C :   -0.036472
  19 C :   -0.028790
  20 C :   -0.174015
  21 H :    0.036236
  22 C :    0.087530
  23 H :    0.012497
  24 H :    0.028209
  25 C :   -0.109139
  26 H :    0.026523
  27 H :    0.041891
  28 C :   -0.082641
  29 H :    0.028853
  30 H :    0.054638
  31 H :    0.054716
  32 H :    0.050862
  33 H :    0.075168
Sum of atomic charges:    0.0000000

LOEWDIN ATOMIC CHARGES
----------------------
   0 S :    0.409406
   1 C :   -0.182673
   2 C :   -0.060803
   3 C :   -0.045607
   4 C :   -0.200106
   5 H :    0.023049
   6 C :   -0.045081
   7 H :    0.033299
   8 H :    0.033078
   9 C :   -0.034152
  10 H :    0.032968
  11 H :    0.008309
  12 C :   -0.069828
  13 H :    0.027088
  14 H :    0.021727
  15 H :    0.022852
  16 S :    0.394338
  17 C :   -0.181137
  18 C :   -0.084130
  19 C :   -0.043599
  20 C :   -0.201747
  21 H :    0.039717
  22 C :   -0.037944
  23 H :    0.023423
  24 H :    0.032189
  25 C :   -0.052378
  26 H :    0.022666
  27 H :    0.029777
  28 C :   -0.073725
  29 H :    0.019183
  30 H :    0.037059
  31 H :    0.036449
  32 H :    0.027049
  33 H :    0.039283

  Mayer bond orders larger than 0.100000
B(  0-S ,  1-C ) :   1.1428 B(  0-S ,  4-C ) :   1.1562 B(  1-C ,  2-C ) :   1.5729
B(  1-C ,  4-C ) :   0.1059 B(  1-C , 32-H ) :   0.9769 B(  2-C ,  3-C ) :   1.2357
B(  2-C ,  6-C ) :   1.0295 B(  3-C ,  4-C ) :   1.5540 B(  3-C ,  5-H ) :   1.0117
B(  4-C , 20-C ) :   1.0427 B(  6-C ,  7-H ) :   0.9291 B(  6-C ,  8-H ) :   0.9417
B(  6-C ,  9-C ) :   1.0782 B(  9-C , 10-H ) :   0.9535 B(  9-C , 11-H ) :   0.9593
B(  9-C , 12-C ) :   1.0761 B( 12-C , 13-H ) :   0.9765 B( 12-C , 14-H ) :   0.9736
B( 12-C , 15-H ) :   0.9740 B( 16-S , 17-C ) :   1.1551 B( 16-S , 20-C ) :   1.1238
B( 17-C , 18-C ) :   1.6285 B( 17-C , 33-H ) :   0.9592 B( 18-C , 19-C ) :   1.2203
B( 18-C , 21-H ) :   0.9844 B( 19-C , 20-C ) :   1.5989 B( 19-C , 22-C ) :   1.0478
B( 22-C , 23-H ) :   0.9269 B( 22-C , 24-H ) :   0.9395 B( 22-C , 25-C ) :   1.0495
B( 25-C , 26-H ) :   0.9545 B( 25-C , 27-H ) :   0.9589 B( 25-C , 28-C ) :   1.0618
B( 28-C , 29-H ) :   0.9785 B( 28-C , 30-H ) :   0.9756 B( 28-C , 31-H ) :   0.9747

Dispersion correction           -0.013682608
FINAL SINGLE POINT ENERGY     -1339.861073034463

DIPOLE MOMENT
-------------
                                X             Y             Z
Electronic contribution:      4.38634      -6.70154     -11.36222
Nuclear contribution   :     -4.63256       7.00262      11.55892
                        -----------------------------------------
Total Dipole Moment    :     -0.24622       0.30108       0.19670
                        -----------------------------------------
Magnitude (a.u.)       :      0.43585
Magnitude (Debye)      :      1.10784

Rotational constants in cm-1:     0.022525     0.007297     0.006021
Rotational constants in MHz :   675.269894   218.749157   180.517015

                             ****ORCA TERMINATED NORMALLY****
TOTAL RUN TIME: 0 days 0 hours 0 minutes 28 seconds 426 msec
