                         Program Version 4.2.1 -  RELEASE  -
|  1> ! wB97X-D3 SP def2-SVP
|  2> %pal
|  3> nprocs 16
|  4> end
|  5>
|  6> * xyz 0 1
|  7> S 	 -43.3862 	 34.7684 	 83.0689
|  8> C 	 -43.4028 	 34.9163 	 81.2976
|  9> C 	 -42.8091 	 33.8019 	 80.6556
| 10> C 	 -42.2635 	 32.9029 	 81.6168
| 11> C 	 -42.6544 	 33.1737 	 82.9341
| 12> H 	 -41.7566 	 32.0058 	 81.4613
| 13> C 	 -42.59 	 33.6108 	 79.1508
| 14> H 	 -41.5209 	 33.3746 	 79.0181
| 15> H 	 -42.898 	 34.5651 	 78.6571
| 16> C 	 -43.2555 	 32.3846 	 78.6192
| 17> H 	 -42.7482 	 32.2023 	 77.6767
| 18> H 	 -42.8874 	 31.5695 	 79.2383
| 19> C 	 -44.7592 	 32.3667 	 78.6718
| 20> H 	 -45.1274 	 33.1085 	 77.8942
| 21> H 	 -45.2063 	 31.3999 	 78.5035
| 22> H 	 -45.0346 	 32.8521 	 79.6364
| 23> S 	 -41.633 	 33.3144 	 85.3742
| 24> C 	 -41.1454 	 31.8849 	 86.2289
| 25> C 	 -41.5413 	 30.7359 	 85.5875
| 26> C 	 -41.9495 	 31.009 	 84.237
| 27> C 	 -42.0921 	 32.3656 	 84.0232
| 28> H 	 -41.6097 	 29.7549 	 86.0277
| 29> C 	 -42.2902 	 29.8574 	 83.2805
| 30> H 	 -41.2675 	 29.5936 	 82.9471
| 31> H 	 -42.8171 	 30.3554 	 82.482
| 32> C 	 -42.9934 	 28.6094 	 83.8138
| 33> H 	 -43.6366 	 28.9197 	 84.6131
| 34> H 	 -42.3146 	 27.9403 	 84.3262
| 35> C 	 -43.8059 	 27.8481 	 82.7954
| 36> H 	 -43.2694 	 27.3319 	 81.9577
| 37> H 	 -44.6763 	 28.4284 	 82.3352
| 38> H 	 -44.2625 	 27.0105 	 83.3229
| 39> H 	 -43.8299 	 35.6713 	 80.6453
| 40> H 	 -40.766 	 31.8474 	 87.2649
| 41> *
| 42>
| 43>                          ****END OF INPUT****

CARTESIAN COORDINATES (ANGSTROEM)
---------------------------------
  S    -43.386200   34.768400   83.068900
  C    -43.402800   34.916300   81.297600
  C    -42.809100   33.801900   80.655600
  C    -42.263500   32.902900   81.616800
  C    -42.654400   33.173700   82.934100
  H    -41.756600   32.005800   81.461300
  C    -42.590000   33.610800   79.150800
  H    -41.520900   33.374600   79.018100
  H    -42.898000   34.565100   78.657100
  C    -43.255500   32.384600   78.619200
  H    -42.748200   32.202300   77.676700
  H    -42.887400   31.569500   79.238300
  C    -44.759200   32.366700   78.671800
  H    -45.127400   33.108500   77.894200
  H    -45.206300   31.399900   78.503500
  H    -45.034600   32.852100   79.636400
  S    -41.633000   33.314400   85.374200
  C    -41.145400   31.884900   86.228900
  C    -41.541300   30.735900   85.587500
  C    -41.949500   31.009000   84.237000
  C    -42.092100   32.365600   84.023200
  H    -41.609700   29.754900   86.027700
  C    -42.290200   29.857400   83.280500
  H    -41.267500   29.593600   82.947100
  H    -42.817100   30.355400   82.482000
  C    -42.993400   28.609400   83.813800
  H    -43.636600   28.919700   84.613100
  H    -42.314600   27.940300   84.326200
  C    -43.805900   27.848100   82.795400
  H    -43.269400   27.331900   81.957700
  H    -44.676300   28.428400   82.335200
  H    -44.262500   27.010500   83.322900
  H    -43.829900   35.671300   80.645300
  H    -40.766000   31.847400   87.264900

 Total Charge           Charge          ....    0
 Multiplicity           Mult            ....    1
 Number of Electrons    NEL             ....  134
 Basis Dimension        Dim             ....  322

ORBITAL ENERGIES
----------------

  NO   OCC          E(Eh)            E(eV)
   0   2.0000     -88.975644     -2421.1504
   1   2.0000     -88.964013     -2420.8339
   2   2.0000     -10.331332      -281.1298
   3   2.0000     -10.323060      -280.9048
   4   2.0000     -10.319033      -280.7952
   5   2.0000     -10.314486      -280.6714
   6   2.0000     -10.304043      -280.3873
   7   2.0000     -10.302330      -280.3406
   8   2.0000     -10.296327      -280.1773
   9   2.0000     -10.293394      -280.0975
  10   2.0000     -10.291940      -280.0579
  11   2.0000     -10.288731      -279.9706
  12   2.0000     -10.288336      -279.9598
  13   2.0000     -10.287854      -279.9467
  14   2.0000     -10.280818      -279.7553
  15   2.0000     -10.279865      -279.7293
  16   2.0000      -8.088939      -220.1112
  17   2.0000      -8.079883      -219.8648
  18   2.0000      -6.047653      -164.5650
  19   2.0000      -6.043753      -164.4589
  20   2.0000      -6.039462      -164.3421
  21   2.0000      -6.038411      -164.3135
  22   2.0000      -6.034352      -164.2031
  23   2.0000      -6.030444      -164.0967
  24   2.0000      -1.010155       -27.4877
  25   2.0000      -0.981890       -26.7186
  26   2.0000      -0.920793       -25.0560
  27   2.0000      -0.912460       -24.8293
  28   2.0000      -0.868278       -23.6270
  29   2.0000      -0.857142       -23.3240
  30   2.0000      -0.845183       -22.9986
  31   2.0000      -0.811352       -22.0780
  32   2.0000      -0.783931       -21.3318
  33   2.0000      -0.774717       -21.0811
  34   2.0000      -0.711718       -19.3668
  35   2.0000      -0.698249       -19.0003
  36   2.0000      -0.692013       -18.8306
  37   2.0000      -0.660488       -17.9728
  38   2.0000      -0.635336       -17.2884
  39   2.0000      -0.619519       -16.8580
  40   2.0000      -0.593276       -16.1439
  41   2.0000      -0.570820       -15.5328
  42   2.0000      -0.568470       -15.4689
  43   2.0000      -0.556269       -15.1368
  44   2.0000      -0.538650       -14.6574
  45   2.0000      -0.524944       -14.2844
  46   2.0000      -0.523742       -14.2517
  47   2.0000      -0.515880       -14.0378
  48   2.0000      -0.499259       -13.5855
  49   2.0000      -0.493175       -13.4200
  50   2.0000      -0.484008       -13.1705
  51   2.0000      -0.483038       -13.1441
  52   2.0000      -0.476674       -12.9710
  53   2.0000      -0.466829       -12.7031
  54   2.0000      -0.458324       -12.4716
  55   2.0000      -0.450786       -12.2665
  56   2.0000      -0.448627       -12.2078
  57   2.0000      -0.441258       -12.0072
  58   2.0000      -0.431283       -11.7358
  59   2.0000      -0.429090       -11.6761
  60   2.0000      -0.423495       -11.5239
  61   2.0000      -0.414651       -11.2832
  62   2.0000      -0.408980       -11.1289
  63   2.0000      -0.352940        -9.6040
  64   2.0000      -0.333621        -9.0783
  65   2.0000      -0.327247        -8.9048
  66   2.0000      -0.282534        -7.6881
  67   0.0000       0.026657         0.7254
  68   0.0000       0.073246         1.9931
  69   0.0000       0.105330         2.8662
  70   0.0000       0.116025         3.1572
  71   0.0000       0.130982         3.5642

MULLIKEN ATOMIC CHARGES
-----------------------
   0 S :    0.119009
   1 C :   -0.112844
   2 C :   -0.101726
   3 C :    0.001700
   4 C :   -0.111954
   5 H :   -0.001782
   6 C :    0.064968
   7 H :    0.039335
   8 H :    0.024391
   9 C :   -0.067345
  10 H :    0.022702
  11 H :    0.011744
  12 C :   -0.039478
  13 H :    0.026988
  14 H :    0.044365
  15 H :    0.044040
  16 S :    0.104542
  17 C :   -0.089866
  18 C :   -0.037443
  19 C :   -0.104314
  20 C :   -0.157205
  21 H :    0.020190
  22 C :    0.085367
  23 H :    0.044634
  24 H :    0.019162
  25 C :   -0.047087
  26 H :    0.026504
  27 H :    0.025841
  28 C :   -0.077127
  29 H :    0.039851
  30 H :    0.049528
  31 H :    0.027921
  32 H :    0.042990
  33 H :    0.062402
Sum of atomic charges:    0.0000000

LOEWDIN ATOMIC CHARGES
----------------------
   0 S :    0.395880
   1 C :   -0.204313
   2 C :   -0.057926
   3 C :   -0.059528
   4 C :   -0.188858
   5 H :    0.017623
   6 C :   -0.029413
   7 H :    0.041380
   8 H :    0.029518
   9 C :   -0.051071
  10 H :    0.022743
  11 H :    0.021475
  12 C :   -0.068056
  13 H :    0.029810
  14 H :    0.025435
  15 H :    0.034156
  16 S :    0.421062
  17 C :   -0.197138
  18 C :   -0.069321
  19 C :   -0.060419
  20 C :   -0.204843
  21 H :    0.030512
  22 C :   -0.032761
  23 H :    0.039942
  24 H :    0.026078
  25 C :   -0.045442
  26 H :    0.025957
  27 H :    0.025250
  28 C :   -0.072580
  29 H :    0.028879
  30 H :    0.034754
  31 H :    0.027679
  32 H :    0.029788
  33 H :    0.033749

  Mayer bond orders larger than 0.100000
B(  0-S ,  1-C ) :   1.1207 B(  0-S ,  4-C ) :   1.1424 B(  1-C ,  2-C ) :   1.6005
B(  1-C , 32-H ) :   0.9608 B(  2-C ,  3-C ) :   1.2353 B(  2-C ,  6-C ) :   1.0267
B(  3-C ,  4-C ) :   1.5545 B(  3-C ,  5-H ) :   0.9940 B(  4-C , 20-C ) :   1.0525
B(  6-C ,  7-H ) :   0.9367 B(  6-C ,  8-H ) :   0.9414 B(  6-C ,  9-C ) :   1.0772
B(  9-C , 10-H ) :   0.9526 B(  9-C , 11-H ) :   0.9487 B(  9-C , 12-C ) :   1.0682
B( 12-C , 13-H ) :   0.9723 B( 12-C , 14-H ) :   0.9744 B( 12-C , 15-H ) :   0.9701
B( 16-S , 17-C ) :   1.1538 B( 16-S , 20-C ) :   1.1372 B( 17-C , 18-C ) :   1.6137
B( 17-C , 33-H ) :   0.9618 B( 18-C , 19-C ) :   1.2480 B( 18-C , 21-H ) :   0.9877
B( 19-C , 20-C ) :   1.6102 B( 19-C , 22-C ) :   1.0257 B( 22-C , 23-H ) :   0.9220
B( 22-C , 24-H ) :   0.9352 B( 22-C , 25-C ) :   1.0643 B( 25-C , 26-H ) :   0.9556
B( 25-C , 27-H ) :   0.9407 B( 25-C , 28-C ) :   1.0996 B( 28-C , 29-H ) :   0.9747
B( 28-C , 30-H ) :   0.9723 B( 28-C , 31-H ) :   0.9705

Dispersion correction           -0.014088904
FINAL SINGLE POINT ENERGY     -1339.866893650684

DIPOLE MOMENT
-------------
                                X             Y             Z
Electronic contribution:      7.15671      21.93006      20.29038
Nuclear contribution   :     -7.14971     -22.59816     -20.62354
                        -----------------------------------------
Total Dipole Moment    :      0.00700      -0.66810      -0.33316
                        -----------------------------------------
Magnitude (a.u.)       :      0.74659
Magnitude (Debye)      :      1.89769

Rotational constants in cm-1:     0.016236     0.010077     0.006734
Rotational constants in MHz :   486.733122   302.089676   201.867636

                             ****ORCA TERMINATED NORMALLY****
TOTAL RUN TIME: 0 days 0 hours 0 minutes 30 seconds 408 msec
