                         Program Version 4.2.1 -  RELEASE  -
|  1> ! wB97X-D3 SP def2-SVP
|  2> %pal
|  3> nprocs 16
|  4> end
|  5>
|  6> * xyz 0 1
|  7> S 	 -55.2986 	 43.4265 	 112.468
|  8> C 	 -54.7898 	 42.78 	 110.947
|  9> C 	 -55.6254 	 41.7551 	 110.647
| 10> C 	 -56.6962 	 41.6318 	 111.523
| 11> C 	 -56.6792 	 42.3875 	 112.646
| 12> H 	 -57.4527 	 40.8254 	 111.497
| 13> C 	 -55.519 	 40.9029 	 109.465
| 14> H 	 -55.4079 	 39.8848 	 109.848
| 15> H 	 -54.5398 	 41.1364 	 108.981
| 16> C 	 -56.6858 	 41.0189 	 108.44
| 17> H 	 -56.5881 	 40.323 	 107.598
| 18> H 	 -57.5349 	 40.6235 	 108.977
| 19> C 	 -56.9188 	 42.3743 	 107.82
| 20> H 	 -57.6844 	 42.3726 	 107.042
| 21> H 	 -57.1271 	 43.3088 	 108.461
| 22> H 	 -55.9759 	 42.7553 	 107.354
| 23> S 	 -57.8093 	 40.7294 	 114.588
| 24> C 	 -59.2045 	 41.3433 	 115.558
| 25> C 	 -59.3721 	 42.6886 	 115.306
| 26> C 	 -58.4923 	 43.2254 	 114.286
| 27> C 	 -57.6179 	 42.3042 	 113.761
| 28> H 	 -60.1189 	 43.3214 	 115.827
| 29> C 	 -58.5754 	 44.6775 	 113.927
| 30> H 	 -57.6233 	 45.1585 	 114.364
| 31> H 	 -59.4179 	 45.1181 	 114.43
| 32> C 	 -58.7166 	 45.0461 	 112.464
| 33> H 	 -59.7101 	 44.5627 	 112.109
| 34> H 	 -57.9733 	 44.555 	 111.832
| 35> C 	 -58.5786 	 46.5136 	 112.141
| 36> H 	 -57.6356 	 46.9591 	 112.378
| 37> H 	 -59.3181 	 47.1196 	 112.647
| 38> H 	 -58.6405 	 46.6689 	 111.11
| 39> H 	 -54.0146 	 43.2546 	 110.358
| 40> H 	 -59.7283 	 40.8143 	 116.288
| 41> *
| 42>
| 43>                          ****END OF INPUT****

CARTESIAN COORDINATES (ANGSTROEM)
---------------------------------
  S    -55.298600   43.426500  112.468000
  C    -54.789800   42.780000  110.947000
  C    -55.625400   41.755100  110.647000
  C    -56.696200   41.631800  111.523000
  C    -56.679200   42.387500  112.646000
  H    -57.452700   40.825400  111.497000
  C    -55.519000   40.902900  109.465000
  H    -55.407900   39.884800  109.848000
  H    -54.539800   41.136400  108.981000
  C    -56.685800   41.018900  108.440000
  H    -56.588100   40.323000  107.598000
  H    -57.534900   40.623500  108.977000
  C    -56.918800   42.374300  107.820000
  H    -57.684400   42.372600  107.042000
  H    -57.127100   43.308800  108.461000
  H    -55.975900   42.755300  107.354000
  S    -57.809300   40.729400  114.588000
  C    -59.204500   41.343300  115.558000
  C    -59.372100   42.688600  115.306000
  C    -58.492300   43.225400  114.286000
  C    -57.617900   42.304200  113.761000
  H    -60.118900   43.321400  115.827000
  C    -58.575400   44.677500  113.927000
  H    -57.623300   45.158500  114.364000
  H    -59.417900   45.118100  114.430000
  C    -58.716600   45.046100  112.464000
  H    -59.710100   44.562700  112.109000
  H    -57.973300   44.555000  111.832000
  C    -58.578600   46.513600  112.141000
  H    -57.635600   46.959100  112.378000
  H    -59.318100   47.119600  112.647000
  H    -58.640500   46.668900  111.110000
  H    -54.014600   43.254600  110.358000
  H    -59.728300   40.814300  116.288000

 Total Charge           Charge          ....    0
 Multiplicity           Mult            ....    1
 Number of Electrons    NEL             ....  134
 Basis Dimension        Dim             ....  322

ORBITAL ENERGIES
----------------

  NO   OCC          E(Eh)            E(eV)
   0   2.0000     -88.966830     -2420.9105
   1   2.0000     -88.961258     -2420.7589
   2   2.0000     -10.330965      -281.1198
   3   2.0000     -10.326778      -281.0059
   4   2.0000     -10.322682      -280.8945
   5   2.0000     -10.313078      -280.6331
   6   2.0000     -10.304424      -280.3976
   7   2.0000     -10.301077      -280.3066
   8   2.0000     -10.291906      -280.0570
   9   2.0000     -10.291104      -280.0352
  10   2.0000     -10.290871      -280.0288
  11   2.0000     -10.289592      -279.9940
  12   2.0000     -10.285803      -279.8909
  13   2.0000     -10.284648      -279.8595
  14   2.0000     -10.284390      -279.8525
  15   2.0000     -10.265914      -279.3497
  16   2.0000      -8.080033      -219.8689
  17   2.0000      -8.076515      -219.7731
  18   2.0000      -6.038810      -164.3244
  19   2.0000      -6.034954      -164.2194
  20   2.0000      -6.034744      -164.2137
  21   2.0000      -6.030743      -164.1049
  22   2.0000      -6.030593      -164.1008
  23   2.0000      -6.027492      -164.0164
  24   2.0000      -1.014701       -27.6114
  25   2.0000      -0.984727       -26.7958
  26   2.0000      -0.914627       -24.8883
  27   2.0000      -0.907759       -24.7014
  28   2.0000      -0.873865       -23.7791
  29   2.0000      -0.850636       -23.1470
  30   2.0000      -0.847216       -23.0539
  31   2.0000      -0.819466       -22.2988
  32   2.0000      -0.782817       -21.3015
  33   2.0000      -0.773166       -21.0389
  34   2.0000      -0.715668       -19.4743
  35   2.0000      -0.699559       -19.0360
  36   2.0000      -0.688444       -18.7335
  37   2.0000      -0.670356       -18.2413
  38   2.0000      -0.640489       -17.4286
  39   2.0000      -0.620177       -16.8759
  40   2.0000      -0.594654       -16.1814
  41   2.0000      -0.570150       -15.5146
  42   2.0000      -0.562164       -15.2973
  43   2.0000      -0.553034       -15.0488
  44   2.0000      -0.539011       -14.6672
  45   2.0000      -0.524544       -14.2736
  46   2.0000      -0.522017       -14.2048
  47   2.0000      -0.519072       -14.1247
  48   2.0000      -0.503854       -13.7106
  49   2.0000      -0.500081       -13.6079
  50   2.0000      -0.495865       -13.4932
  51   2.0000      -0.484105       -13.1732
  52   2.0000      -0.473617       -12.8878
  53   2.0000      -0.468044       -12.7361
  54   2.0000      -0.455117       -12.3844
  55   2.0000      -0.447639       -12.1809
  56   2.0000      -0.441808       -12.0222
  57   2.0000      -0.436672       -11.8824
  58   2.0000      -0.428941       -11.6721
  59   2.0000      -0.419517       -11.4156
  60   2.0000      -0.413476       -11.2513
  61   2.0000      -0.407397       -11.0858
  62   2.0000      -0.406586       -11.0638
  63   2.0000      -0.342903        -9.3309
  64   2.0000      -0.333409        -9.0725
  65   2.0000      -0.326005        -8.8710
  66   2.0000      -0.303616        -8.2618
  67   0.0000       0.030145         0.8203
  68   0.0000       0.068173         1.8551
  69   0.0000       0.105456         2.8696
  70   0.0000       0.125446         3.4136
  71   0.0000       0.133933         3.6445

MULLIKEN ATOMIC CHARGES
-----------------------
   0 S :    0.092509
   1 C :   -0.136611
   2 C :   -0.059459
   3 C :    0.003057
   4 C :   -0.159431
   5 H :    0.018766
   6 C :    0.063447
   7 H :    0.037683
   8 H :    0.013120
   9 C :   -0.040415
  10 H :    0.031276
  11 H :    0.025100
  12 C :   -0.084496
  13 H :    0.039156
  14 H :    0.044863
  15 H :    0.021522
  16 S :    0.094259
  17 C :   -0.067915
  18 C :   -0.034689
  19 C :   -0.021769
  20 C :   -0.156315
  21 H :    0.033545
  22 C :    0.060037
  23 H :    0.049722
  24 H :    0.008794
  25 C :   -0.114894
  26 H :    0.034537
  27 H :    0.044391
  28 C :    0.012042
  29 H :    0.017713
  30 H :    0.017736
  31 H :    0.016298
  32 H :    0.056002
  33 H :    0.040420
Sum of atomic charges:   -0.0000000

LOEWDIN ATOMIC CHARGES
----------------------
   0 S :    0.413876
   1 C :   -0.194387
   2 C :   -0.078501
   3 C :   -0.069370
   4 C :   -0.199599
   5 H :    0.032275
   6 C :   -0.031483
   7 H :    0.037297
   8 H :    0.028258
   9 C :   -0.041524
  10 H :    0.030194
  11 H :    0.021692
  12 C :   -0.080674
  13 H :    0.026918
  14 H :    0.033906
  15 H :    0.026610
  16 S :    0.370617
  17 C :   -0.154901
  18 C :   -0.068660
  19 C :   -0.053451
  20 C :   -0.183233
  21 H :    0.037290
  22 C :   -0.039256
  23 H :    0.043182
  24 H :    0.025266
  25 C :   -0.048846
  26 H :    0.032373
  27 H :    0.021678
  28 C :   -0.058108
  29 H :    0.024323
  30 H :    0.020905
  31 H :    0.022090
  32 H :    0.033089
  33 H :    0.020156

  Mayer bond orders larger than 0.100000
B(  0-S ,  1-C ) :   1.1501 B(  0-S ,  4-C ) :   1.1489 B(  1-C ,  2-C ) :   1.5605
B(  1-C , 32-H ) :   0.9761 B(  2-C ,  3-C ) :   1.2623 B(  2-C ,  6-C ) :   1.0346
B(  3-C ,  4-C ) :   1.5769 B(  3-C ,  5-H ) :   0.9900 B(  4-C , 20-C ) :   1.0262
B(  6-C ,  7-H ) :   0.9320 B(  6-C ,  8-H ) :   0.9413 B(  6-C ,  9-C ) :   1.0712
B(  9-C , 10-H ) :   0.9525 B(  9-C , 11-H ) :   0.9521 B(  9-C , 12-C ) :   1.0697
B( 12-C , 13-H ) :   0.9751 B( 12-C , 14-H ) :   0.9721 B( 12-C , 15-H ) :   0.9714
B( 16-S , 17-C ) :   1.1340 B( 16-S , 20-C ) :   1.1156 B( 17-C , 18-C ) :   1.6258
B( 17-C , 33-H ) :   0.9752 B( 18-C , 19-C ) :   1.2326 B( 18-C , 21-H ) :   0.9781
B( 19-C , 20-C ) :   1.6177 B( 19-C , 22-C ) :   1.0440 B( 22-C , 23-H ) :   0.9296
B( 22-C , 24-H ) :   0.9311 B( 22-C , 25-C ) :   1.0614 B( 25-C , 26-H ) :   0.9514
B( 25-C , 27-H ) :   0.9512 B( 25-C , 28-C ) :   1.0922 B( 28-C , 29-H ) :   0.9682
B( 28-C , 30-H ) :   0.9720 B( 28-C , 31-H ) :   0.9692

Dispersion correction           -0.015235416
FINAL SINGLE POINT ENERGY     -1339.881141958143

DIPOLE MOMENT
-------------
                                X             Y             Z
Electronic contribution:      6.40622     -10.74883      20.06714
Nuclear contribution   :     -6.66335      10.87641     -20.39297
                        -----------------------------------------
Total Dipole Moment    :     -0.25712       0.12758      -0.32583
                        -----------------------------------------
Magnitude (a.u.)       :      0.43423
Magnitude (Debye)      :      1.10373

Rotational constants in cm-1:     0.018067     0.009512     0.007784
Rotational constants in MHz :   541.625524   285.158155   233.351063

                             ****ORCA TERMINATED NORMALLY****
TOTAL RUN TIME: 0 days 0 hours 0 minutes 31 seconds 394 msec
