                         Program Version 4.2.1 -  RELEASE  -
|  1> ! wB97X-D3 SP def2-SVP
|  2> %pal
|  3> nprocs 16
|  4> end
|  5>
|  6> * xyz 0 1
|  7> S 	 7.40813 	 25.8628 	 63.0496
|  8> C 	 8.14826 	 24.3298 	 63.1513
|  9> C 	 7.49884 	 23.4097 	 63.9041
| 10> C 	 6.18572 	 23.9636 	 64.2137
| 11> C 	 5.96592 	 25.2748 	 63.8023
| 12> H 	 5.46069 	 23.3579 	 64.7764
| 13> C 	 7.95283 	 22.0518 	 64.2987
| 14> H 	 8.16729 	 21.9152 	 65.3223
| 15> H 	 8.96863 	 22.0105 	 63.8446
| 16> C 	 7.05514 	 20.981 	 63.7342
| 17> H 	 7.42528 	 19.9975 	 64.1835
| 18> H 	 6.0175 	 21.1016 	 64.0561
| 19> C 	 7.10014 	 20.9027 	 62.2169
| 20> H 	 8.13258 	 20.6746 	 61.8436
| 21> H 	 6.4718 	 20.0509 	 61.8771
| 22> H 	 6.77948 	 21.8256 	 61.7226
| 23> S 	 5.33102 	 27.6573 	 64.8694
| 24> C 	 3.6448 	 28.1779 	 64.6143
| 25> C 	 2.75303 	 27.1903 	 64.2065
| 26> C 	 3.48034 	 26.0174 	 63.8911
| 27> C 	 4.82938 	 26.1564 	 64.1049
| 28> H 	 1.68556 	 27.3785 	 64.1084
| 29> C 	 2.89002 	 24.8119 	 63.3532
| 30> H 	 3.60456 	 24.0579 	 63.0315
| 31> H 	 2.37936 	 25.0505 	 62.3867
| 32> C 	 1.89028 	 24.1584 	 64.3356
| 33> H 	 1.29442 	 25.0122 	 64.6891
| 34> H 	 2.40611 	 23.8466 	 65.2651
| 35> C 	 1.26868 	 22.8969 	 63.683
| 36> H 	 2.01898 	 22.1255 	 63.3553
| 37> H 	 0.590589 	 23.1078 	 62.8223
| 38> H 	 0.606897 	 22.3913 	 64.3672
| 39> H 	 8.98644 	 24.1295 	 62.6424
| 40> H 	 3.18454 	 29.0931 	 64.982
| 41> *
| 42>
| 43>                          ****END OF INPUT****

CARTESIAN COORDINATES (ANGSTROEM)
---------------------------------
  S      7.408130   25.862800   63.049600
  C      8.148260   24.329800   63.151300
  C      7.498840   23.409700   63.904100
  C      6.185720   23.963600   64.213700
  C      5.965920   25.274800   63.802300
  H      5.460690   23.357900   64.776400
  C      7.952830   22.051800   64.298700
  H      8.167290   21.915200   65.322300
  H      8.968630   22.010500   63.844600
  C      7.055140   20.981000   63.734200
  H      7.425280   19.997500   64.183500
  H      6.017500   21.101600   64.056100
  C      7.100140   20.902700   62.216900
  H      8.132580   20.674600   61.843600
  H      6.471800   20.050900   61.877100
  H      6.779480   21.825600   61.722600
  S      5.331020   27.657300   64.869400
  C      3.644800   28.177900   64.614300
  C      2.753030   27.190300   64.206500
  C      3.480340   26.017400   63.891100
  C      4.829380   26.156400   64.104900
  H      1.685560   27.378500   64.108400
  C      2.890020   24.811900   63.353200
  H      3.604560   24.057900   63.031500
  H      2.379360   25.050500   62.386700
  C      1.890280   24.158400   64.335600
  H      1.294420   25.012200   64.689100
  H      2.406110   23.846600   65.265100
  C      1.268680   22.896900   63.683000
  H      2.018980   22.125500   63.355300
  H      0.590589   23.107800   62.822300
  H      0.606897   22.391300   64.367200
  H      8.986440   24.129500   62.642400
  H      3.184540   29.093100   64.982000

 Total Charge           Charge          ....    0
 Multiplicity           Mult            ....    1
 Number of Electrons    NEL             ....  134
 Basis Dimension        Dim             ....  322

ORBITAL ENERGIES
----------------

  NO   OCC          E(Eh)            E(eV)
   0   2.0000     -88.969326     -2420.9784
   1   2.0000     -88.962982     -2420.8058
   2   2.0000     -10.326546      -280.9996
   3   2.0000     -10.322917      -280.9008
   4   2.0000     -10.317901      -280.7644
   5   2.0000     -10.298635      -280.2401
   6   2.0000     -10.296396      -280.1792
   7   2.0000     -10.295940      -280.1668
   8   2.0000     -10.295365      -280.1511
   9   2.0000     -10.294091      -280.1165
  10   2.0000     -10.292505      -280.0733
  11   2.0000     -10.292030      -280.0604
  12   2.0000     -10.289260      -279.9850
  13   2.0000     -10.286838      -279.9191
  14   2.0000     -10.283519      -279.8288
  15   2.0000     -10.281144      -279.7642
  16   2.0000      -8.083389      -219.9602
  17   2.0000      -8.079123      -219.8441
  18   2.0000      -6.041859      -164.4073
  19   2.0000      -6.038312      -164.3108
  20   2.0000      -6.037560      -164.2904
  21   2.0000      -6.033896      -164.1907
  22   2.0000      -6.033490      -164.1796
  23   2.0000      -6.029819      -164.0797
  24   2.0000      -1.010635       -27.5008
  25   2.0000      -0.987923       -26.8827
  26   2.0000      -0.921529       -25.0761
  27   2.0000      -0.911195       -24.7949
  28   2.0000      -0.869633       -23.6639
  29   2.0000      -0.850784       -23.1510
  30   2.0000      -0.843305       -22.9475
  31   2.0000      -0.814718       -22.1696
  32   2.0000      -0.785421       -21.3724
  33   2.0000      -0.770879       -20.9767
  34   2.0000      -0.708988       -19.2925
  35   2.0000      -0.700511       -19.0619
  36   2.0000      -0.692499       -18.8439
  37   2.0000      -0.662885       -18.0380
  38   2.0000      -0.644239       -17.5306
  39   2.0000      -0.624882       -17.0039
  40   2.0000      -0.599999       -16.3268
  41   2.0000      -0.576111       -15.6768
  42   2.0000      -0.558756       -15.2045
  43   2.0000      -0.549962       -14.9652
  44   2.0000      -0.539560       -14.6822
  45   2.0000      -0.523181       -14.2365
  46   2.0000      -0.519567       -14.1381
  47   2.0000      -0.510366       -13.8878
  48   2.0000      -0.499880       -13.6024
  49   2.0000      -0.492694       -13.4069
  50   2.0000      -0.488599       -13.2955
  51   2.0000      -0.481166       -13.0932
  52   2.0000      -0.467715       -12.7272
  53   2.0000      -0.465996       -12.6804
  54   2.0000      -0.458482       -12.4759
  55   2.0000      -0.450518       -12.2592
  56   2.0000      -0.445894       -12.1334
  57   2.0000      -0.440615       -11.9898
  58   2.0000      -0.437060       -11.8930
  59   2.0000      -0.429887       -11.6978
  60   2.0000      -0.424570       -11.5531
  61   2.0000      -0.415466       -11.3054
  62   2.0000      -0.407549       -11.0900
  63   2.0000      -0.346300        -9.4233
  64   2.0000      -0.334610        -9.1052
  65   2.0000      -0.326808        -8.8929
  66   2.0000      -0.288034        -7.8378
  67   0.0000       0.035647         0.9700
  68   0.0000       0.067581         1.8390
  69   0.0000       0.099374         2.7041
  70   0.0000       0.124463         3.3868
  71   0.0000       0.127473         3.4687

MULLIKEN ATOMIC CHARGES
-----------------------
   0 S :    0.118000
   1 C :   -0.078412
   2 C :   -0.108064
   3 C :    0.015163
   4 C :   -0.151082
   5 H :    0.012295
   6 C :    0.118864
   7 H :    0.032318
   8 H :    0.009092
   9 C :   -0.095665
  10 H :    0.034401
  11 H :    0.035066
  12 C :   -0.068274
  13 H :    0.027532
  14 H :    0.038666
  15 H :    0.051097
  16 S :    0.112247
  17 C :   -0.076616
  18 C :   -0.061287
  19 C :    0.003728
  20 C :   -0.160203
  21 H :    0.032022
  22 C :    0.045424
  23 H :    0.013061
  24 H :    0.031644
  25 C :   -0.089491
  26 H :    0.025443
  27 H :    0.031118
  28 C :   -0.044869
  29 H :    0.043747
  30 H :    0.035927
  31 H :    0.027791
  32 H :   -0.007957
  33 H :    0.047272
Sum of atomic charges:    0.0000000

LOEWDIN ATOMIC CHARGES
----------------------
   0 S :    0.427120
   1 C :   -0.188067
   2 C :   -0.061390
   3 C :   -0.064686
   4 C :   -0.207551
   5 H :    0.026960
   6 C :   -0.032645
   7 H :    0.029394
   8 H :    0.035305
   9 C :   -0.044188
  10 H :    0.030724
  11 H :    0.022591
  12 C :   -0.069753
  13 H :    0.026430
  14 H :    0.029957
  15 H :    0.027526
  16 S :    0.389582
  17 C :   -0.173197
  18 C :   -0.065232
  19 C :   -0.060806
  20 C :   -0.187666
  21 H :    0.037121
  22 C :   -0.039155
  23 H :    0.025919
  24 H :    0.035339
  25 C :   -0.040264
  26 H :    0.024482
  27 H :    0.027136
  28 C :   -0.072019
  29 H :    0.034494
  30 H :    0.029114
  31 H :    0.022552
  32 H :   -0.000257
  33 H :    0.025129

  Mayer bond orders larger than 0.100000
B(  0-S ,  1-C ) :   1.1515 B(  0-S ,  4-C ) :   1.1524 B(  1-C ,  2-C ) :   1.6130
B(  1-C , 32-H ) :   0.9748 B(  2-C ,  3-C ) :   1.2348 B(  2-C ,  6-C ) :   1.0220
B(  3-C ,  4-C ) :   1.5680 B(  3-C ,  5-H ) :   0.9898 B(  4-C , 20-C ) :   1.0228
B(  6-C ,  7-H ) :   0.9333 B(  6-C ,  8-H ) :   0.9340 B(  6-C ,  9-C ) :   1.0688
B(  9-C , 10-H ) :   0.9531 B(  9-C , 11-H ) :   0.9566 B(  9-C , 12-C ) :   1.0751
B( 12-C , 13-H ) :   0.9733 B( 12-C , 14-H ) :   0.9733 B( 12-C , 15-H ) :   0.9731
B( 16-S , 17-C ) :   1.1330 B( 16-S , 20-C ) :   1.1302 B( 17-C , 18-C ) :   1.6519
B( 17-C , 33-H ) :   0.9599 B( 18-C , 19-C ) :   1.1990 B( 18-C , 21-H ) :   0.9855
B( 19-C , 20-C ) :   1.6372 B( 19-C , 22-C ) :   1.0658 B( 22-C , 23-H ) :   0.9279
B( 22-C , 24-H ) :   0.9287 B( 22-C , 25-C ) :   1.0430 B( 25-C , 26-H ) :   0.9614
B( 25-C , 27-H ) :   0.9531 B( 25-C , 28-C ) :   1.0691 B( 28-C , 29-H ) :   0.9718
B( 28-C , 30-H ) :   0.9753 B( 28-C , 31-H ) :   0.9747

Dispersion correction           -0.014556880
FINAL SINGLE POINT ENERGY     -1339.873642003421

DIPOLE MOMENT
-------------
                                X             Y             Z
Electronic contribution:     11.28471      27.87964       3.74031
Nuclear contribution   :    -11.58181     -28.48873      -3.66568
                        -----------------------------------------
Total Dipole Moment    :     -0.29711      -0.60909       0.07463
                        -----------------------------------------
Magnitude (a.u.)       :      0.68179
Magnitude (Debye)      :      1.73297

Rotational constants in cm-1:     0.017402     0.010034     0.006861
Rotational constants in MHz :   521.712073   300.824821   205.683475

                             ****ORCA TERMINATED NORMALLY****
TOTAL RUN TIME: 0 days 0 hours 0 minutes 35 seconds 940 msec
