                         Program Version 4.2.1 -  RELEASE  -
|  1> ! wB97X-D3 SP def2-SVP
|  2> %pal
|  3> nprocs 16
|  4> end
|  5>
|  6> * xyz 0 1
|  7> S 	 15.5168 	 8.20498 	 88.2587
|  8> C 	 15.8508 	 6.54711 	 88.35
|  9> C 	 14.8034 	 5.73426 	 88.0928
| 10> C 	 13.6238 	 6.49822 	 87.8299
| 11> C 	 13.8366 	 7.86966 	 87.9884
| 12> H 	 12.6476 	 6.10475 	 87.5408
| 13> C 	 14.9178 	 4.22923 	 87.9786
| 14> H 	 15.628 	 4.10972 	 87.1475
| 15> H 	 13.9499 	 3.88531 	 87.5054
| 16> C 	 15.4521 	 3.49034 	 89.1826
| 17> H 	 16.32 	 3.95098 	 89.4837
| 18> H 	 14.6957 	 3.42468 	 90.0225
| 19> C 	 15.6599 	 1.98254 	 88.8757
| 20> H 	 16.1254 	 1.5621 	 89.7913
| 21> H 	 14.7557 	 1.38414 	 88.5121
| 22> H 	 16.364 	 1.8613 	 88.045
| 23> S 	 12.8723 	 9.94368 	 86.5146
| 24> C 	 11.4983 	 10.8988 	 87.1164
| 25> C 	 10.8013 	 10.2309 	 88.1267
| 26> C 	 11.5591 	 9.03347 	 88.5049
| 27> C 	 12.8221 	 8.93498 	 87.8963
| 28> H 	 9.84745 	 10.4424 	 88.4809
| 29> C 	 11.0846 	 8.02199 	 89.48
| 30> H 	 10.9478 	 7.08791 	 88.9246
| 31> H 	 10.0519 	 8.21068 	 89.7405
| 32> C 	 11.9363 	 7.78166 	 90.7708
| 33> H 	 11.7578 	 8.6814 	 91.3465
| 34> H 	 13.025 	 7.74615 	 90.5373
| 35> C 	 11.4501 	 6.54743 	 91.6501
| 36> H 	 11.9348 	 6.52341 	 92.6684
| 37> H 	 11.5338 	 5.56184 	 91.1378
| 38> H 	 10.4323 	 6.79198 	 91.9714
| 39> H 	 16.8288 	 6.17111 	 88.5902
| 40> H 	 11.0649 	 11.7102 	 86.5526
| 41> *
| 42>
| 43>                          ****END OF INPUT****

CARTESIAN COORDINATES (ANGSTROEM)
---------------------------------
  S     15.516800    8.204980   88.258700
  C     15.850800    6.547110   88.350000
  C     14.803400    5.734260   88.092800
  C     13.623800    6.498220   87.829900
  C     13.836600    7.869660   87.988400
  H     12.647600    6.104750   87.540800
  C     14.917800    4.229230   87.978600
  H     15.628000    4.109720   87.147500
  H     13.949900    3.885310   87.505400
  C     15.452100    3.490340   89.182600
  H     16.320000    3.950980   89.483700
  H     14.695700    3.424680   90.022500
  C     15.659900    1.982540   88.875700
  H     16.125400    1.562100   89.791300
  H     14.755700    1.384140   88.512100
  H     16.364000    1.861300   88.045000
  S     12.872300    9.943680   86.514600
  C     11.498300   10.898800   87.116400
  C     10.801300   10.230900   88.126700
  C     11.559100    9.033470   88.504900
  C     12.822100    8.934980   87.896300
  H      9.847450   10.442400   88.480900
  C     11.084600    8.021990   89.480000
  H     10.947800    7.087910   88.924600
  H     10.051900    8.210680   89.740500
  C     11.936300    7.781660   90.770800
  H     11.757800    8.681400   91.346500
  H     13.025000    7.746150   90.537300
  C     11.450100    6.547430   91.650100
  H     11.934800    6.523410   92.668400
  H     11.533800    5.561840   91.137800
  H     10.432300    6.791980   91.971400
  H     16.828800    6.171110   88.590200
  H     11.064900   11.710200   86.552600

 Total Charge           Charge          ....    0
 Multiplicity           Mult            ....    1
 Number of Electrons    NEL             ....  134
 Basis Dimension        Dim             ....  322

ORBITAL ENERGIES
----------------

  NO   OCC          E(Eh)            E(eV)
   0   2.0000     -88.967240     -2420.9217
   1   2.0000     -88.963397     -2420.8171
   2   2.0000     -10.327462      -281.0245
   3   2.0000     -10.321142      -280.8526
   4   2.0000     -10.319348      -280.8037
   5   2.0000     -10.303722      -280.3785
   6   2.0000     -10.303471      -280.3717
   7   2.0000     -10.297514      -280.2096
   8   2.0000     -10.296032      -280.1693
   9   2.0000     -10.295657      -280.1591
  10   2.0000     -10.295033      -280.1421
  11   2.0000     -10.290215      -280.0110
  12   2.0000     -10.288303      -279.9589
  13   2.0000     -10.288185      -279.9558
  14   2.0000     -10.286110      -279.8993
  15   2.0000     -10.285834      -279.8918
  16   2.0000      -8.083180      -219.9545
  17   2.0000      -8.078418      -219.8249
  18   2.0000      -6.041454      -164.3963
  19   2.0000      -6.037529      -164.2895
  20   2.0000      -6.036874      -164.2717
  21   2.0000      -6.034108      -164.1964
  22   2.0000      -6.033069      -164.1681
  23   2.0000      -6.029026      -164.0581
  24   2.0000      -1.010939       -27.5090
  25   2.0000      -0.986278       -26.8380
  26   2.0000      -0.915463       -24.9110
  27   2.0000      -0.898685       -24.4545
  28   2.0000      -0.868895       -23.6438
  29   2.0000      -0.853016       -23.2117
  30   2.0000      -0.840161       -22.8620
  31   2.0000      -0.814188       -22.1552
  32   2.0000      -0.778798       -21.1922
  33   2.0000      -0.763633       -20.7795
  34   2.0000      -0.707053       -19.2399
  35   2.0000      -0.703325       -19.1384
  36   2.0000      -0.686054       -18.6685
  37   2.0000      -0.668681       -18.1957
  38   2.0000      -0.644859       -17.5475
  39   2.0000      -0.613591       -16.6967
  40   2.0000      -0.590995       -16.0818
  41   2.0000      -0.576071       -15.6757
  42   2.0000      -0.562741       -15.3130
  43   2.0000      -0.555619       -15.1192
  44   2.0000      -0.531151       -14.4533
  45   2.0000      -0.516141       -14.0449
  46   2.0000      -0.514240       -13.9932
  47   2.0000      -0.505954       -13.7677
  48   2.0000      -0.502890       -13.6843
  49   2.0000      -0.494216       -13.4483
  50   2.0000      -0.491212       -13.3665
  51   2.0000      -0.480854       -13.0847
  52   2.0000      -0.470321       -12.7981
  53   2.0000      -0.463829       -12.6214
  54   2.0000      -0.458783       -12.4841
  55   2.0000      -0.453846       -12.3498
  56   2.0000      -0.440704       -11.9922
  57   2.0000      -0.440380       -11.9834
  58   2.0000      -0.428902       -11.6710
  59   2.0000      -0.427850       -11.6424
  60   2.0000      -0.419936       -11.4270
  61   2.0000      -0.416080       -11.3221
  62   2.0000      -0.412172       -11.2158
  63   2.0000      -0.341459        -9.2916
  64   2.0000      -0.331043        -9.0081
  65   2.0000      -0.320624        -8.7246
  66   2.0000      -0.294194        -8.0054
  67   0.0000       0.031403         0.8545
  68   0.0000       0.065481         1.7818
  69   0.0000       0.100844         2.7441
  70   0.0000       0.121192         3.2978
  71   0.0000       0.137275         3.7354

MULLIKEN ATOMIC CHARGES
-----------------------
   0 S :    0.140612
   1 C :   -0.128109
   2 C :   -0.068397
   3 C :    0.034909
   4 C :   -0.207844
   5 H :    0.015580
   6 C :    0.045124
   7 H :    0.033159
   8 H :    0.021986
   9 C :   -0.032964
  10 H :    0.013275
  11 H :    0.043263
  12 C :   -0.085051
  13 H :    0.044917
  14 H :    0.048882
  15 H :    0.021666
  16 S :    0.108202
  17 C :   -0.082887
  18 C :    0.012180
  19 C :   -0.072473
  20 C :   -0.133197
  21 H :   -0.002833
  22 C :    0.072966
  23 H :    0.015391
  24 H :   -0.004073
  25 C :   -0.073921
  26 H :    0.026813
  27 H :    0.060957
  28 C :   -0.078633
  29 H :    0.040929
  30 H :    0.051836
  31 H :    0.024529
  32 H :    0.036311
  33 H :    0.056893
Sum of atomic charges:    0.0000000

LOEWDIN ATOMIC CHARGES
----------------------
   0 S :    0.442856
   1 C :   -0.212247
   2 C :   -0.069881
   3 C :   -0.056963
   4 C :   -0.210487
   5 H :    0.031546
   6 C :   -0.038316
   7 H :    0.035322
   8 H :    0.033829
   9 C :   -0.032619
  10 H :    0.013377
  11 H :    0.035060
  12 C :   -0.073416
  13 H :    0.030422
  14 H :    0.034983
  15 H :    0.018400
  16 S :    0.414621
  17 C :   -0.175699
  18 C :   -0.055044
  19 C :   -0.051125
  20 C :   -0.219217
  21 H :    0.021862
  22 C :   -0.042879
  23 H :    0.027519
  24 H :    0.023949
  25 C :   -0.035257
  26 H :    0.023603
  27 H :    0.029341
  28 C :   -0.075904
  29 H :    0.033610
  30 H :    0.028678
  31 H :    0.023548
  32 H :    0.021574
  33 H :    0.024957

  Mayer bond orders larger than 0.100000
B(  0-S ,  1-C ) :   1.1577 B(  0-S ,  4-C ) :   1.1711 B(  1-C ,  2-C ) :   1.6066
B(  1-C , 32-H ) :   0.9670 B(  2-C ,  3-C ) :   1.2608 B(  2-C ,  6-C ) :   1.0016
B(  3-C ,  4-C ) :   1.5504 B(  3-C ,  5-H ) :   0.9954 B(  4-C , 20-C ) :   1.0125
B(  6-C ,  7-H ) :   0.9386 B(  6-C ,  8-H ) :   0.9428 B(  6-C ,  9-C ) :   1.0679
B(  9-C , 10-H ) :   0.9521 B(  9-C , 11-H ) :   0.9560 B(  9-C , 12-C ) :   1.0774
B( 12-C , 13-H ) :   0.9754 B( 12-C , 14-H ) :   0.9753 B( 12-C , 15-H ) :   0.9749
B( 16-S , 17-C ) :   1.1598 B( 16-S , 20-C ) :   1.1628 B( 17-C , 18-C ) :   1.5801
B( 17-C , 33-H ) :   0.9680 B( 18-C , 19-C ) :   1.2512 B( 18-C , 21-H ) :   1.0003
B( 19-C , 20-C ) :   1.5695 B( 19-C , 22-C ) :   1.0648 B( 22-C , 23-H ) :   0.9246
B( 22-C , 24-H ) :   0.9268 B( 22-C , 25-C ) :   1.0422 B( 25-C , 26-H ) :   0.9555
B( 25-C , 27-H ) :   0.9615 B( 25-C , 28-C ) :   1.0723 B( 28-C , 29-H ) :   0.9747
B( 28-C , 30-H ) :   0.9776 B( 28-C , 31-H ) :   0.9740

Dispersion correction           -0.014667742
FINAL SINGLE POINT ENERGY     -1339.868022648726

DIPOLE MOMENT
-------------
                                X             Y             Z
Electronic contribution:      4.17433      26.40447     -15.47760
Nuclear contribution   :     -4.47322     -26.99405      15.62226
                        -----------------------------------------
Total Dipole Moment    :     -0.29889      -0.58957       0.14466
                        -----------------------------------------
Magnitude (a.u.)       :      0.67665
Magnitude (Debye)      :      1.71991

Rotational constants in cm-1:     0.021206     0.008268     0.006696
Rotational constants in MHz :   635.741688   247.868734   200.726252

                             ****ORCA TERMINATED NORMALLY****
TOTAL RUN TIME: 0 days 0 hours 0 minutes 35 seconds 802 msec
