                         Program Version 4.2.1 -  RELEASE  -
|  1> ! wB97X-D3 SP def2-SVP
|  2> %pal
|  3> nprocs 16
|  4> end
|  5>
|  6> * xyz 0 1
|  7> S 	 -11.8674 	 65.6118 	 50.9439
|  8> C 	 -11.6659 	 63.8929 	 50.6597
|  9> C 	 -10.6921 	 63.3394 	 51.4824
| 10> C 	 -10.062 	 64.353 	 52.2997
| 11> C 	 -10.5402 	 65.6223 	 52.0065
| 12> H 	 -9.33137 	 64.2006 	 53.0359
| 13> C 	 -10.212 	 61.8957 	 51.5456
| 14> H 	 -11.0067 	 61.3156 	 51.5295
| 15> H 	 -9.82195 	 61.7252 	 52.6079
| 16> C 	 -9.20622 	 61.4686 	 50.5012
| 17> H 	 -9.54056 	 60.4049 	 50.2942
| 18> H 	 -9.36488 	 62.0387 	 49.5738
| 19> C 	 -7.7386 	 61.568 	 50.9479
| 20> H 	 -7.4413 	 60.5702 	 51.453
| 21> H 	 -7.10383 	 61.674 	 50.1083
| 22> H 	 -7.61769 	 62.4737 	 51.5957
| 23> S 	 -11.1094 	 67.4384 	 53.983
| 24> C 	 -9.92064 	 68.7086 	 54.3497
| 25> C 	 -8.86043 	 68.6404 	 53.4959
| 26> C 	 -8.94229 	 67.5294 	 52.608
| 27> C 	 -10.1584 	 66.8767 	 52.6247
| 28> H 	 -8.08065 	 69.3667 	 53.7379
| 29> C 	 -7.67938 	 67.1764 	 51.8403
| 30> H 	 -7.10322 	 68.1308 	 51.8174
| 31> H 	 -7.92629 	 66.9518 	 50.8188
| 32> C 	 -6.75255 	 66.1009 	 52.3783
| 33> H 	 -7.28119 	 65.147 	 52.3416
| 34> H 	 -6.61798 	 66.3388 	 53.423
| 35> C 	 -5.34894 	 65.9073 	 51.8373
| 36> H 	 -4.94367 	 65.0289 	 52.3256
| 37> H 	 -4.67535 	 66.6975 	 52.047
| 38> H 	 -5.2241 	 65.7805 	 50.7441
| 39> H 	 -12.3456 	 63.4035 	 50.0441
| 40> H 	 -10.027 	 69.4658 	 55.1253
| 41> *
| 42>
| 43>                          ****END OF INPUT****

CARTESIAN COORDINATES (ANGSTROEM)
---------------------------------
  S    -11.867400   65.611800   50.943900
  C    -11.665900   63.892900   50.659700
  C    -10.692100   63.339400   51.482400
  C    -10.062000   64.353000   52.299700
  C    -10.540200   65.622300   52.006500
  H     -9.331370   64.200600   53.035900
  C    -10.212000   61.895700   51.545600
  H    -11.006700   61.315600   51.529500
  H     -9.821950   61.725200   52.607900
  C     -9.206220   61.468600   50.501200
  H     -9.540560   60.404900   50.294200
  H     -9.364880   62.038700   49.573800
  C     -7.738600   61.568000   50.947900
  H     -7.441300   60.570200   51.453000
  H     -7.103830   61.674000   50.108300
  H     -7.617690   62.473700   51.595700
  S    -11.109400   67.438400   53.983000
  C     -9.920640   68.708600   54.349700
  C     -8.860430   68.640400   53.495900
  C     -8.942290   67.529400   52.608000
  C    -10.158400   66.876700   52.624700
  H     -8.080650   69.366700   53.737900
  C     -7.679380   67.176400   51.840300
  H     -7.103220   68.130800   51.817400
  H     -7.926290   66.951800   50.818800
  C     -6.752550   66.100900   52.378300
  H     -7.281190   65.147000   52.341600
  H     -6.617980   66.338800   53.423000
  C     -5.348940   65.907300   51.837300
  H     -4.943670   65.028900   52.325600
  H     -4.675350   66.697500   52.047000
  H     -5.224100   65.780500   50.744100
  H    -12.345600   63.403500   50.044100
  H    -10.027000   69.465800   55.125300

 Total Charge           Charge          ....    0
 Multiplicity           Mult            ....    1
 Number of Electrons    NEL             ....  134
 Basis Dimension        Dim             ....  322

ORBITAL ENERGIES
----------------

  NO   OCC          E(Eh)            E(eV)
   0   2.0000     -88.965008     -2420.8609
   1   2.0000     -88.962279     -2420.7867
   2   2.0000     -10.323440      -280.9151
   3   2.0000     -10.322076      -280.8780
   4   2.0000     -10.317384      -280.7503
   5   2.0000     -10.310543      -280.5641
   6   2.0000     -10.303937      -280.3844
   7   2.0000     -10.303152      -280.3630
   8   2.0000     -10.291525      -280.0466
   9   2.0000     -10.291414      -280.0436
  10   2.0000     -10.289684      -279.9965
  11   2.0000     -10.286811      -279.9183
  12   2.0000     -10.285807      -279.8910
  13   2.0000     -10.284020      -279.8424
  14   2.0000     -10.282087      -279.7898
  15   2.0000     -10.275688      -279.6157
  16   2.0000      -8.080820      -219.8903
  17   2.0000      -8.076856      -219.7824
  18   2.0000      -6.039088      -164.3319
  19   2.0000      -6.035436      -164.2326
  20   2.0000      -6.035121      -164.2240
  21   2.0000      -6.031832      -164.1345
  22   2.0000      -6.031408      -164.1230
  23   2.0000      -6.027511      -164.0169
  24   2.0000      -1.009298       -27.4644
  25   2.0000      -0.984580       -26.7918
  26   2.0000      -0.915333       -24.9075
  27   2.0000      -0.907169       -24.6853
  28   2.0000      -0.870786       -23.6953
  29   2.0000      -0.850308       -23.1381
  30   2.0000      -0.847703       -23.0672
  31   2.0000      -0.816234       -22.2108
  32   2.0000      -0.788195       -21.4479
  33   2.0000      -0.775008       -21.0890
  34   2.0000      -0.706440       -19.2232
  35   2.0000      -0.698399       -19.0044
  36   2.0000      -0.690679       -18.7943
  37   2.0000      -0.659768       -17.9532
  38   2.0000      -0.652051       -17.7432
  39   2.0000      -0.619706       -16.8630
  40   2.0000      -0.593497       -16.1499
  41   2.0000      -0.571744       -15.5580
  42   2.0000      -0.563124       -15.3234
  43   2.0000      -0.556846       -15.1525
  44   2.0000      -0.540134       -14.6978
  45   2.0000      -0.522373       -14.2145
  46   2.0000      -0.515396       -14.0246
  47   2.0000      -0.514345       -13.9960
  48   2.0000      -0.512082       -13.9345
  49   2.0000      -0.495591       -13.4857
  50   2.0000      -0.490644       -13.3511
  51   2.0000      -0.483629       -13.1602
  52   2.0000      -0.469491       -12.7755
  53   2.0000      -0.467182       -12.7127
  54   2.0000      -0.458515       -12.4768
  55   2.0000      -0.447713       -12.1829
  56   2.0000      -0.445127       -12.1125
  57   2.0000      -0.439651       -11.9635
  58   2.0000      -0.430229       -11.7071
  59   2.0000      -0.422248       -11.4899
  60   2.0000      -0.417307       -11.3555
  61   2.0000      -0.413214       -11.2441
  62   2.0000      -0.410751       -11.1771
  63   2.0000      -0.340285        -9.2596
  64   2.0000      -0.330477        -8.9927
  65   2.0000      -0.320492        -8.7210
  66   2.0000      -0.307078        -8.3560
  67   0.0000       0.041136         1.1194
  68   0.0000       0.057599         1.5674
  69   0.0000       0.113529         3.0893
  70   0.0000       0.119473         3.2510
  71   0.0000       0.128780         3.5043

MULLIKEN ATOMIC CHARGES
-----------------------
   0 S :    0.120980
   1 C :   -0.106561
   2 C :   -0.097570
   3 C :    0.058843
   4 C :   -0.185486
   5 H :   -0.000620
   6 C :    0.114776
   7 H :   -0.021680
   8 H :    0.027243
   9 C :   -0.079691
  10 H :    0.034280
  11 H :    0.035762
  12 C :   -0.059216
  13 H :    0.049786
  14 H :    0.027949
  15 H :    0.045131
  16 S :    0.098901
  17 C :   -0.104807
  18 C :   -0.037527
  19 C :   -0.038504
  20 C :   -0.138626
  21 H :    0.028534
  22 C :    0.086758
  23 H :    0.014081
  24 H :    0.021853
  25 C :   -0.061384
  26 H :    0.019499
  27 H :    0.015624
  28 C :   -0.027416
  29 H :    0.030997
  30 H :    0.017830
  31 H :    0.029628
  32 H :    0.023224
  33 H :    0.057409
Sum of atomic charges:    0.0000000

LOEWDIN ATOMIC CHARGES
----------------------
   0 S :    0.434254
   1 C :   -0.189086
   2 C :   -0.052103
   3 C :   -0.054413
   4 C :   -0.212595
   5 H :    0.021116
   6 C :   -0.027237
   7 H :    0.007190
   8 H :    0.039916
   9 C :   -0.044769
  10 H :    0.031445
  11 H :    0.026859
  12 C :   -0.068996
  13 H :    0.038232
  14 H :    0.019493
  15 H :    0.029314
  16 S :    0.392234
  17 C :   -0.171558
  18 C :   -0.079480
  19 C :   -0.051832
  20 C :   -0.209994
  21 H :    0.038951
  22 C :   -0.031700
  23 H :    0.031637
  24 H :    0.026472
  25 C :   -0.043779
  26 H :    0.020800
  27 H :    0.024369
  28 C :   -0.062968
  29 H :    0.031142
  30 H :    0.018350
  31 H :    0.026647
  32 H :    0.011129
  33 H :    0.030964

  Mayer bond orders larger than 0.100000
B(  0-S ,  1-C ) :   1.1481 B(  0-S ,  4-C ) :   1.1851 B(  1-C ,  2-C ) :   1.5928
B(  1-C , 32-H ) :   0.9843 B(  2-C ,  3-C ) :   1.2389 B(  2-C ,  6-C ) :   1.0221
B(  3-C ,  4-C ) :   1.5667 B(  3-C ,  5-H ) :   1.0002 B(  4-C , 20-C ) :   0.9947
B(  6-C ,  7-H ) :   0.9245 B(  6-C ,  8-H ) :   0.9428 B(  6-C ,  9-C ) :   1.0517
B(  9-C , 10-H ) :   0.9604 B(  9-C , 11-H ) :   0.9597 B(  9-C , 12-C ) :   1.0716
B( 12-C , 13-H ) :   0.9744 B( 12-C , 14-H ) :   0.9752 B( 12-C , 15-H ) :   0.9765
B( 16-S , 17-C ) :   1.1509 B( 16-S , 20-C ) :   1.1376 B( 17-C , 18-C ) :   1.6428
B( 17-C , 33-H ) :   0.9627 B( 18-C , 19-C ) :   1.2156 B( 18-C , 21-H ) :   0.9887
B( 19-C , 20-C ) :   1.6238 B( 19-C , 22-C ) :   1.0485 B( 22-C , 23-H ) :   0.9349
B( 22-C , 24-H ) :   0.9246 B( 22-C , 25-C ) :   1.0719 B( 25-C , 26-H ) :   0.9473
B( 25-C , 27-H ) :   0.9475 B( 25-C , 28-C ) :   1.0929 B( 28-C , 29-H ) :   0.9706
B( 28-C , 30-H ) :   0.9726 B( 28-C , 31-H ) :   0.9735

Dispersion correction           -0.014968784
FINAL SINGLE POINT ENERGY     -1339.865874298403

DIPOLE MOMENT
-------------
                                X             Y             Z
Electronic contribution:    -26.15597      16.87574       5.49477
Nuclear contribution   :     26.70632     -17.22873      -5.42920
                        -----------------------------------------
Total Dipole Moment    :      0.55035      -0.35300       0.06557
                        -----------------------------------------
Magnitude (a.u.)       :      0.65711
Magnitude (Debye)      :      1.67024

Rotational constants in cm-1:     0.017011     0.010216     0.007112
Rotational constants in MHz :   509.987787   306.261647   213.199677

                             ****ORCA TERMINATED NORMALLY****
TOTAL RUN TIME: 0 days 0 hours 0 minutes 35 seconds 440 msec
