                         Program Version 4.2.1 -  RELEASE  -
|  1> ! wB97X-D3 SP def2-SVP
|  2> %pal
|  3> nprocs 16
|  4> end
|  5>
|  6> * xyz 0 1
|  7> S 	 -23.6723 	 35.0405 	 35.3151
|  8> C 	 -23.6477 	 35.2231 	 33.5991
|  9> C 	 -22.3993 	 34.9645 	 33.0481
| 10> C 	 -21.471 	 34.4404 	 34.0434
| 11> C 	 -22.1222 	 34.2991 	 35.2757
| 12> H 	 -20.4669 	 34.0013 	 33.8383
| 13> C 	 -22.0552 	 35.0927 	 31.5487
| 14> H 	 -22.7942 	 34.5829 	 30.9237
| 15> H 	 -21.0973 	 34.6687 	 31.2849
| 16> C 	 -21.9875 	 36.5222 	 31.0123
| 17> H 	 -22.0961 	 36.4213 	 29.9232
| 18> H 	 -22.951 	 36.9674 	 31.3048
| 19> C 	 -20.7249 	 37.3237 	 31.3452
| 20> H 	 -19.8296 	 37.1008 	 30.7513
| 21> H 	 -20.9289 	 38.3588 	 31.2653
| 22> H 	 -20.5306 	 37.1256 	 32.3926
| 23> S 	 -21.7577 	 31.8783 	 36.5692
| 24> C 	 -21.2761 	 31.8637 	 38.2449
| 25> C 	 -20.8785 	 33.1469 	 38.6773
| 26> C 	 -20.9284 	 34.1036 	 37.5893
| 27> C 	 -21.5728 	 33.6202 	 36.384
| 28> H 	 -20.6331 	 33.3076 	 39.7038
| 29> C 	 -20.7047 	 35.5876 	 37.9119
| 30> H 	 -20.5774 	 35.7087 	 38.9641
| 31> H 	 -21.7042 	 35.975 	 37.6694
| 32> C 	 -19.558 	 36.2448 	 37.0529
| 33> H 	 -19.6113 	 37.3074 	 37.2919
| 34> H 	 -19.671 	 36.1578 	 35.9548
| 35> C 	 -18.2087 	 35.5877 	 37.4445
| 36> H 	 -17.3965 	 36.2891 	 37.4782
| 37> H 	 -17.9717 	 34.7539 	 36.7438
| 38> H 	 -18.2991 	 35.0831 	 38.508
| 39> H 	 -24.5139 	 35.5391 	 33.0254
| 40> H 	 -21.295 	 31.0533 	 38.9447
| 41> *
| 42>
| 43>                          ****END OF INPUT****

CARTESIAN COORDINATES (ANGSTROEM)
---------------------------------
  S    -23.672300   35.040500   35.315100
  C    -23.647700   35.223100   33.599100
  C    -22.399300   34.964500   33.048100
  C    -21.471000   34.440400   34.043400
  C    -22.122200   34.299100   35.275700
  H    -20.466900   34.001300   33.838300
  C    -22.055200   35.092700   31.548700
  H    -22.794200   34.582900   30.923700
  H    -21.097300   34.668700   31.284900
  C    -21.987500   36.522200   31.012300
  H    -22.096100   36.421300   29.923200
  H    -22.951000   36.967400   31.304800
  C    -20.724900   37.323700   31.345200
  H    -19.829600   37.100800   30.751300
  H    -20.928900   38.358800   31.265300
  H    -20.530600   37.125600   32.392600
  S    -21.757700   31.878300   36.569200
  C    -21.276100   31.863700   38.244900
  C    -20.878500   33.146900   38.677300
  C    -20.928400   34.103600   37.589300
  C    -21.572800   33.620200   36.384000
  H    -20.633100   33.307600   39.703800
  C    -20.704700   35.587600   37.911900
  H    -20.577400   35.708700   38.964100
  H    -21.704200   35.975000   37.669400
  C    -19.558000   36.244800   37.052900
  H    -19.611300   37.307400   37.291900
  H    -19.671000   36.157800   35.954800
  C    -18.208700   35.587700   37.444500
  H    -17.396500   36.289100   37.478200
  H    -17.971700   34.753900   36.743800
  H    -18.299100   35.083100   38.508000
  H    -24.513900   35.539100   33.025400
  H    -21.295000   31.053300   38.944700

 Total Charge           Charge          ....    0
 Multiplicity           Mult            ....    1
 Number of Electrons    NEL             ....  134
 Basis Dimension        Dim             ....  322

ORBITAL ENERGIES
----------------

  NO   OCC          E(Eh)            E(eV)
   0   2.0000     -88.971212     -2421.0298
   1   2.0000     -88.966091     -2420.8904
   2   2.0000     -10.325709      -280.9768
   3   2.0000     -10.324007      -280.9305
   4   2.0000     -10.316993      -280.7397
   5   2.0000     -10.315373      -280.6956
   6   2.0000     -10.308613      -280.5116
   7   2.0000     -10.307896      -280.4921
   8   2.0000     -10.303902      -280.3834
   9   2.0000     -10.294394      -280.1247
  10   2.0000     -10.291741      -280.0525
  11   2.0000     -10.288919      -279.9757
  12   2.0000     -10.287403      -279.9345
  13   2.0000     -10.285264      -279.8763
  14   2.0000     -10.282051      -279.7888
  15   2.0000     -10.274188      -279.5749
  16   2.0000      -8.086695      -220.0502
  17   2.0000      -8.080185      -219.8730
  18   2.0000      -6.045040      -164.4939
  19   2.0000      -6.041157      -164.3882
  20   2.0000      -6.038681      -164.3209
  21   2.0000      -6.037518      -164.2892
  22   2.0000      -6.034558      -164.2087
  23   2.0000      -6.031215      -164.1177
  24   2.0000      -1.007118       -27.4051
  25   2.0000      -0.977552       -26.6005
  26   2.0000      -0.911538       -24.8042
  27   2.0000      -0.897969       -24.4350
  28   2.0000      -0.870377       -23.6842
  29   2.0000      -0.848744       -23.0955
  30   2.0000      -0.837784       -22.7973
  31   2.0000      -0.809461       -22.0266
  32   2.0000      -0.785296       -21.3690
  33   2.0000      -0.763402       -20.7732
  34   2.0000      -0.707330       -19.2474
  35   2.0000      -0.698217       -18.9994
  36   2.0000      -0.685023       -18.6404
  37   2.0000      -0.656529       -17.8651
  38   2.0000      -0.645070       -17.5533
  39   2.0000      -0.608845       -16.5675
  40   2.0000      -0.582281       -15.8447
  41   2.0000      -0.574994       -15.6464
  42   2.0000      -0.553131       -15.0515
  43   2.0000      -0.547933       -14.9100
  44   2.0000      -0.543685       -14.7944
  45   2.0000      -0.536317       -14.5939
  46   2.0000      -0.515730       -14.0337
  47   2.0000      -0.509815       -13.8728
  48   2.0000      -0.502288       -13.6679
  49   2.0000      -0.491141       -13.3646
  50   2.0000      -0.487166       -13.2565
  51   2.0000      -0.481160       -13.0930
  52   2.0000      -0.467805       -12.7296
  53   2.0000      -0.466174       -12.6852
  54   2.0000      -0.461875       -12.5683
  55   2.0000      -0.453363       -12.3366
  56   2.0000      -0.435901       -11.8615
  57   2.0000      -0.432083       -11.7576
  58   2.0000      -0.426440       -11.6040
  59   2.0000      -0.422114       -11.4863
  60   2.0000      -0.421245       -11.4627
  61   2.0000      -0.413290       -11.2462
  62   2.0000      -0.407427       -11.0866
  63   2.0000      -0.335205        -9.1214
  64   2.0000      -0.327818        -8.9204
  65   2.0000      -0.316319        -8.6075
  66   2.0000      -0.302234        -8.2242
  67   0.0000       0.038256         1.0410
  68   0.0000       0.042816         1.1651
  69   0.0000       0.105901         2.8817
  70   0.0000       0.120451         3.2776
  71   0.0000       0.124815         3.3964

MULLIKEN ATOMIC CHARGES
-----------------------
   0 S :    0.147200
   1 C :   -0.130968
   2 C :   -0.077655
   3 C :    0.040583
   4 C :   -0.192195
   5 H :    0.039314
   6 C :    0.058318
   7 H :    0.033627
   8 H :    0.011128
   9 C :   -0.091994
  10 H :    0.022493
  11 H :    0.018164
  12 C :   -0.019404
  13 H :    0.039979
  14 H :    0.028697
  15 H :    0.027456
  16 S :    0.127181
  17 C :   -0.091204
  18 C :   -0.042385
  19 C :   -0.037654
  20 C :   -0.179414
  21 H :    0.018062
  22 C :    0.052001
  23 H :    0.018491
  24 H :    0.027719
  25 C :   -0.060166
  26 H :    0.031993
  27 H :    0.045498
  28 C :   -0.088337
  29 H :    0.035826
  30 H :    0.048267
  31 H :    0.037248
  32 H :    0.051728
  33 H :    0.050403
Sum of atomic charges:   -0.0000000

LOEWDIN ATOMIC CHARGES
----------------------
   0 S :    0.440924
   1 C :   -0.204160
   2 C :   -0.062135
   3 C :   -0.054492
   4 C :   -0.217264
   5 H :    0.042181
   6 C :   -0.033238
   7 H :    0.035221
   8 H :    0.024570
   9 C :   -0.044160
  10 H :    0.022424
  11 H :    0.020748
  12 C :   -0.064240
  13 H :    0.029515
  14 H :    0.024642
  15 H :    0.026523
  16 S :    0.418103
  17 C :   -0.189244
  18 C :   -0.076211
  19 C :   -0.044192
  20 C :   -0.221619
  21 H :    0.027680
  22 C :   -0.030745
  23 H :    0.022909
  24 H :    0.029938
  25 C :   -0.041269
  26 H :    0.022440
  27 H :    0.029252
  28 C :   -0.074009
  29 H :    0.019672
  30 H :    0.031542
  31 H :    0.033399
  32 H :    0.028004
  33 H :    0.027289

  Mayer bond orders larger than 0.100000
B(  0-S ,  1-C ) :   1.1493 B(  0-S ,  4-C ) :   1.1644 B(  1-C ,  2-C ) :   1.6049
B(  1-C , 32-H ) :   0.9676 B(  2-C ,  3-C ) :   1.2369 B(  2-C ,  6-C ) :   1.0203
B(  3-C ,  4-C ) :   1.5587 B(  3-C ,  5-H ) :   0.9865 B(  4-C , 20-C ) :   1.0700
B(  6-C ,  7-H ) :   0.9431 B(  6-C ,  8-H ) :   0.9465 B(  6-C ,  9-C ) :   1.0752
B(  9-C , 10-H ) :   0.9548 B(  9-C , 11-H ) :   0.9584 B(  9-C , 12-C ) :   1.0688
B( 12-C , 13-H ) :   0.9737 B( 12-C , 14-H ) :   0.9727 B( 12-C , 15-H ) :   0.9780
B( 16-S , 17-C ) :   1.1791 B( 16-S , 20-C ) :   1.1416 B( 17-C , 18-C ) :   1.5781
B( 17-C , 20-C ) :   0.1119 B( 17-C , 33-H ) :   0.9686 B( 18-C , 19-C ) :   1.2650
B( 18-C , 21-H ) :   0.9918 B( 19-C , 20-C ) :   1.5312 B( 19-C , 22-C ) :   1.0296
B( 22-C , 23-H ) :   0.9488 B( 22-C , 24-H ) :   0.9343 B( 22-C , 25-C ) :   1.0631
B( 25-C , 26-H ) :   0.9618 B( 25-C , 27-H ) :   0.9620 B( 25-C , 28-C ) :   1.0478
B( 28-C , 29-H ) :   0.9772 B( 28-C , 30-H ) :   0.9754 B( 28-C , 31-H ) :   0.9802

Dispersion correction           -0.015128328
FINAL SINGLE POINT ENERGY     -1339.865844208323

DIPOLE MOMENT
-------------
                                X             Y             Z
Electronic contribution:    -15.14281     -17.08130      10.02405
Nuclear contribution   :     15.24542      17.38007     -10.18855
                        -----------------------------------------
Total Dipole Moment    :      0.10261       0.29877      -0.16450
                        -----------------------------------------
Magnitude (a.u.)       :      0.35616
Magnitude (Debye)      :      0.90530

Rotational constants in cm-1:     0.020463     0.008564     0.007134
Rotational constants in MHz :   613.462905   256.741699   213.864382

                             ****ORCA TERMINATED NORMALLY****
TOTAL RUN TIME: 0 days 0 hours 0 minutes 32 seconds 827 msec
