                         Program Version 4.2.1 -  RELEASE  -
|  1> ! wB97X-D3 SP def2-SVP
|  2> %pal
|  3> nprocs 16
|  4> end
|  5>
|  6> * xyz 0 1
|  7> S 	 -12.9442 	 55.5959 	 27.7305
|  8> C 	 -12.277 	 54.0552 	 27.1217
|  9> C 	 -12.0806 	 53.0826 	 28.1088
| 10> C 	 -12.0088 	 53.8081 	 29.3764
| 11> C 	 -12.6277 	 55.0948 	 29.3632
| 12> H 	 -11.6639 	 53.3718 	 30.2506
| 13> C 	 -11.8276 	 51.5564 	 27.9607
| 14> H 	 -11.9285 	 51.161 	 28.9258
| 15> H 	 -10.7254 	 51.4321 	 27.6992
| 16> C 	 -12.8725 	 50.9853 	 26.9323
| 17> H 	 -13.8415 	 51.376 	 27.2456
| 18> H 	 -12.8462 	 51.4819 	 25.989
| 19> C 	 -12.8232 	 49.4653 	 26.8527
| 20> H 	 -11.8844 	 49.0599 	 26.4412
| 21> H 	 -12.822 	 48.9687 	 27.8899
| 22> H 	 -13.628 	 49.0431 	 26.278
| 23> S 	 -12.6357 	 57.6954 	 30.1382
| 24> C 	 -12.9442 	 58.0858 	 31.7298
| 25> C 	 -13.1189 	 56.9709 	 32.5477
| 26> C 	 -13.0752 	 55.746 	 31.853
| 27> C 	 -12.767 	 55.9824 	 30.5209
| 28> H 	 -13.3526 	 56.9868 	 33.6045
| 29> C 	 -13.4725 	 54.4665 	 32.6249
| 30> H 	 -12.9623 	 54.5704 	 33.5553
| 31> H 	 -13.2786 	 53.4954 	 32.1671
| 32> C 	 -14.9662 	 54.5045 	 32.9888
| 33> H 	 -15.6343 	 54.7973 	 32.193
| 34> H 	 -15.0661 	 55.2782 	 33.7641
| 35> C 	 -15.4603 	 53.2234 	 33.5952
| 36> H 	 -14.8348 	 52.8912 	 34.4318
| 37> H 	 -15.423 	 52.4659 	 32.8275
| 38> H 	 -16.5131 	 53.3765 	 33.9581
| 39> H 	 -12.4321 	 53.7605 	 26.0325
| 40> H 	 -12.8693 	 59.0761 	 32.1568
| 41> *
| 42>
| 43>                          ****END OF INPUT****

CARTESIAN COORDINATES (ANGSTROEM)
---------------------------------
  S    -12.944200   55.595900   27.730500
  C    -12.277000   54.055200   27.121700
  C    -12.080600   53.082600   28.108800
  C    -12.008800   53.808100   29.376400
  C    -12.627700   55.094800   29.363200
  H    -11.663900   53.371800   30.250600
  C    -11.827600   51.556400   27.960700
  H    -11.928500   51.161000   28.925800
  H    -10.725400   51.432100   27.699200
  C    -12.872500   50.985300   26.932300
  H    -13.841500   51.376000   27.245600
  H    -12.846200   51.481900   25.989000
  C    -12.823200   49.465300   26.852700
  H    -11.884400   49.059900   26.441200
  H    -12.822000   48.968700   27.889900
  H    -13.628000   49.043100   26.278000
  S    -12.635700   57.695400   30.138200
  C    -12.944200   58.085800   31.729800
  C    -13.118900   56.970900   32.547700
  C    -13.075200   55.746000   31.853000
  C    -12.767000   55.982400   30.520900
  H    -13.352600   56.986800   33.604500
  C    -13.472500   54.466500   32.624900
  H    -12.962300   54.570400   33.555300
  H    -13.278600   53.495400   32.167100
  C    -14.966200   54.504500   32.988800
  H    -15.634300   54.797300   32.193000
  H    -15.066100   55.278200   33.764100
  C    -15.460300   53.223400   33.595200
  H    -14.834800   52.891200   34.431800
  H    -15.423000   52.465900   32.827500
  H    -16.513100   53.376500   33.958100
  H    -12.432100   53.760500   26.032500
  H    -12.869300   59.076100   32.156800

 Total Charge           Charge          ....    0
 Multiplicity           Mult            ....    1
 Number of Electrons    NEL             ....  134
 Basis Dimension        Dim             ....  322

ORBITAL ENERGIES
----------------

  NO   OCC          E(Eh)            E(eV)
   0   2.0000     -88.967209     -2420.9208
   1   2.0000     -88.967159     -2420.9195
   2   2.0000     -10.330576      -281.1093
   3   2.0000     -10.325819      -280.9798
   4   2.0000     -10.317378      -280.7501
   5   2.0000     -10.311999      -280.6038
   6   2.0000     -10.307873      -280.4915
   7   2.0000     -10.303836      -280.3816
   8   2.0000     -10.303680      -280.3774
   9   2.0000     -10.295843      -280.1641
  10   2.0000     -10.292196      -280.0649
  11   2.0000     -10.290840      -280.0280
  12   2.0000     -10.289736      -279.9979
  13   2.0000     -10.286169      -279.9009
  14   2.0000     -10.282024      -279.7881
  15   2.0000     -10.279375      -279.7160
  16   2.0000      -8.083400      -219.9605
  17   2.0000      -8.081289      -219.9031
  18   2.0000      -6.041656      -164.4018
  19   2.0000      -6.039927      -164.3548
  20   2.0000      -6.037722      -164.2948
  21   2.0000      -6.036026      -164.2486
  22   2.0000      -6.034314      -164.2020
  23   2.0000      -6.031834      -164.1345
  24   2.0000      -1.009451       -27.4686
  25   2.0000      -0.979040       -26.6410
  26   2.0000      -0.917572       -24.9684
  27   2.0000      -0.908271       -24.7153
  28   2.0000      -0.862537       -23.4708
  29   2.0000      -0.860742       -23.4220
  30   2.0000      -0.841980       -22.9114
  31   2.0000      -0.802625       -21.8405
  32   2.0000      -0.785564       -21.3763
  33   2.0000      -0.772127       -21.0107
  34   2.0000      -0.715603       -19.4726
  35   2.0000      -0.696805       -18.9610
  36   2.0000      -0.687799       -18.7160
  37   2.0000      -0.666218       -18.1287
  38   2.0000      -0.629659       -17.1339
  39   2.0000      -0.615648       -16.7526
  40   2.0000      -0.599618       -16.3164
  41   2.0000      -0.572029       -15.5657
  42   2.0000      -0.563704       -15.3392
  43   2.0000      -0.552182       -15.0256
  44   2.0000      -0.528442       -14.3796
  45   2.0000      -0.525326       -14.2948
  46   2.0000      -0.520012       -14.1503
  47   2.0000      -0.512335       -13.9414
  48   2.0000      -0.499847       -13.6015
  49   2.0000      -0.493649       -13.4329
  50   2.0000      -0.491291       -13.3687
  51   2.0000      -0.481510       -13.1026
  52   2.0000      -0.466895       -12.7049
  53   2.0000      -0.465143       -12.6572
  54   2.0000      -0.458565       -12.4782
  55   2.0000      -0.455842       -12.4041
  56   2.0000      -0.452744       -12.3198
  57   2.0000      -0.438827       -11.9411
  58   2.0000      -0.436376       -11.8744
  59   2.0000      -0.425170       -11.5695
  60   2.0000      -0.423003       -11.5105
  61   2.0000      -0.416594       -11.3361
  62   2.0000      -0.415878       -11.3166
  63   2.0000      -0.350656        -9.5418
  64   2.0000      -0.334611        -9.1052
  65   2.0000      -0.326032        -8.8718
  66   2.0000      -0.278341        -7.5740
  67   0.0000       0.025109         0.6832
  68   0.0000       0.080758         2.1975
  69   0.0000       0.094235         2.5643
  70   0.0000       0.114158         3.1064
  71   0.0000       0.137092         3.7305

MULLIKEN ATOMIC CHARGES
-----------------------
   0 S :    0.098904
   1 C :   -0.150934
   2 C :   -0.135281
   3 C :    0.030999
   4 C :   -0.116495
   5 H :   -0.016405
   6 C :    0.098194
   7 H :    0.007423
   8 H :    0.061077
   9 C :   -0.077889
  10 H :    0.029485
  11 H :    0.023211
  12 C :   -0.041355
  13 H :    0.030785
  14 H :    0.032349
  15 H :    0.036965
  16 S :    0.122993
  17 C :   -0.071925
  18 C :   -0.057428
  19 C :   -0.025834
  20 C :   -0.176399
  21 H :    0.013895
  22 C :    0.105310
  23 H :    0.019661
  24 H :    0.020864
  25 C :   -0.106882
  26 H :    0.040097
  27 H :    0.017434
  28 C :   -0.037853
  29 H :    0.026021
  30 H :    0.028329
  31 H :    0.044874
  32 H :    0.070134
  33 H :    0.055677
Sum of atomic charges:    0.0000000

LOEWDIN ATOMIC CHARGES
----------------------
   0 S :    0.388931
   1 C :   -0.210554
   2 C :   -0.051728
   3 C :   -0.061032
   4 C :   -0.195523
   5 H :    0.011243
   6 C :   -0.021660
   7 H :    0.020601
   8 H :    0.044848
   9 C :   -0.040449
  10 H :    0.029981
  11 H :    0.021164
  12 C :   -0.071942
  13 H :    0.026719
  14 H :    0.033381
  15 H :    0.024275
  16 S :    0.439510
  17 C :   -0.210350
  18 C :   -0.073003
  19 C :   -0.050625
  20 C :   -0.197246
  21 H :    0.027821
  22 C :   -0.020016
  23 H :    0.030836
  24 H :    0.025675
  25 C :   -0.042186
  26 H :    0.025479
  27 H :    0.019698
  28 C :   -0.064490
  29 H :    0.023514
  30 H :    0.020594
  31 H :    0.034937
  32 H :    0.031916
  33 H :    0.029682

  Mayer bond orders larger than 0.100000
B(  0-S ,  1-C ) :   1.1226 B(  0-S ,  4-C ) :   1.1456 B(  1-C ,  2-C ) :   1.6231
B(  1-C , 32-H ) :   0.9531 B(  2-C ,  3-C ) :   1.2253 B(  2-C ,  6-C ) :   1.0127
B(  3-C ,  4-C ) :   1.5708 B(  3-C ,  5-H ) :   0.9902 B(  4-C , 20-C ) :   1.0660
B(  6-C ,  7-H ) :   0.9401 B(  6-C ,  8-H ) :   0.9395 B(  6-C ,  9-C ) :   1.0453
B(  9-C , 10-H ) :   0.9573 B(  9-C , 11-H ) :   0.9563 B(  9-C , 12-C ) :   1.0816
B( 12-C , 13-H ) :   0.9730 B( 12-C , 14-H ) :   0.9731 B( 12-C , 15-H ) :   0.9744
B( 16-S , 17-C ) :   1.1806 B( 16-S , 20-C ) :   1.1502 B( 17-C , 18-C ) :   1.5705
B( 17-C , 33-H ) :   0.9667 B( 18-C , 19-C ) :   1.2751 B( 18-C , 21-H ) :   0.9856
B( 19-C , 20-C ) :   1.5841 B( 19-C , 22-C ) :   1.0318 B( 22-C , 23-H ) :   0.9224
B( 22-C , 24-H ) :   0.9481 B( 22-C , 25-C ) :   1.0613 B( 25-C , 26-H ) :   0.9584
B( 25-C , 27-H ) :   0.9498 B( 25-C , 28-C ) :   1.0989 B( 28-C , 29-H ) :   0.9701
B( 28-C , 30-H ) :   0.9739 B( 28-C , 31-H ) :   0.9714

Dispersion correction           -0.013272885
FINAL SINGLE POINT ENERGY     -1339.865156584574

DIPOLE MOMENT
-------------
                                X             Y             Z
Electronic contribution:      7.18974      28.67689      -7.66581
Nuclear contribution   :     -7.36528     -29.27557       8.09059
                        -----------------------------------------
Total Dipole Moment    :     -0.17554      -0.59868       0.42478
                        -----------------------------------------
Magnitude (a.u.)       :      0.75476
Magnitude (Debye)      :      1.91845

Rotational constants in cm-1:     0.018255     0.008139     0.005988
Rotational constants in MHz :   547.268052   244.009066   179.503966

                             ****ORCA TERMINATED NORMALLY****
TOTAL RUN TIME: 0 days 0 hours 0 minutes 32 seconds 276 msec
