                         Program Version 4.2.1 -  RELEASE  -
|  1> ! wB97X-D3 SP def2-SVP
|  2> %pal
|  3> nprocs 16
|  4> end
|  5>
|  6> * xyz 0 1
|  7> S 	 44.3013 	 8.21655 	 101.612
|  8> C 	 46.008 	 8.0697 	 101.849
|  9> C 	 46.6282 	 7.92124 	 100.667
| 10> C 	 45.7069 	 7.53629 	 99.6305
| 11> C 	 44.4439 	 7.39584 	 100.107
| 12> H 	 46.0449 	 7.24196 	 98.7176
| 13> C 	 48.1059 	 7.96325 	 100.315
| 14> H 	 48.145 	 8.53197 	 99.3496
| 15> H 	 48.427 	 6.994 	 100.122
| 16> C 	 49.0549 	 8.67825 	 101.275
| 17> H 	 48.8194 	 9.75005 	 101.476
| 18> H 	 48.7953 	 8.05648 	 102.19
| 19> C 	 50.5134 	 8.41466 	 100.792
| 20> H 	 50.6301 	 8.35997 	 99.6469
| 21> H 	 51.2101 	 9.07283 	 101.332
| 22> H 	 50.6867 	 7.35893 	 100.997
| 23> S 	 42.3221 	 5.70704 	 100.339
| 24> C 	 41.2146 	 5.44227 	 99.021
| 25> C 	 41.4048 	 6.41078 	 98.0337
| 26> C 	 42.5641 	 7.25836 	 98.2855
| 27> C 	 43.2192 	 6.90894 	 99.4871
| 28> H 	 40.7026 	 6.48058 	 97.1782
| 29> C 	 42.9539 	 8.28897 	 97.2391
| 30> H 	 42.4192 	 8.01302 	 96.3382
| 31> H 	 44.0288 	 8.14806 	 97.0545
| 32> C 	 42.7723 	 9.75707 	 97.6751
| 33> H 	 41.7443 	 9.92531 	 98.0661
| 34> H 	 42.8573 	 10.3858 	 96.8136
| 35> C 	 43.7946 	 10.241 	 98.7264
| 36> H 	 43.7094 	 9.79306 	 99.6687
| 37> H 	 43.5082 	 11.2587 	 98.9814
| 38> H 	 44.7877 	 10.0871 	 98.3813
| 39> H 	 46.5486 	 8.40547 	 102.745
| 40> H 	 40.415 	 4.73563 	 99.096
| 41> *
| 42>
| 43>                          ****END OF INPUT****

CARTESIAN COORDINATES (ANGSTROEM)
---------------------------------
  S     44.301300    8.216550  101.612000
  C     46.008000    8.069700  101.849000
  C     46.628200    7.921240  100.667000
  C     45.706900    7.536290   99.630500
  C     44.443900    7.395840  100.107000
  H     46.044900    7.241960   98.717600
  C     48.105900    7.963250  100.315000
  H     48.145000    8.531970   99.349600
  H     48.427000    6.994000  100.122000
  C     49.054900    8.678250  101.275000
  H     48.819400    9.750050  101.476000
  H     48.795300    8.056480  102.190000
  C     50.513400    8.414660  100.792000
  H     50.630100    8.359970   99.646900
  H     51.210100    9.072830  101.332000
  H     50.686700    7.358930  100.997000
  S     42.322100    5.707040  100.339000
  C     41.214600    5.442270   99.021000
  C     41.404800    6.410780   98.033700
  C     42.564100    7.258360   98.285500
  C     43.219200    6.908940   99.487100
  H     40.702600    6.480580   97.178200
  C     42.953900    8.288970   97.239100
  H     42.419200    8.013020   96.338200
  H     44.028800    8.148060   97.054500
  C     42.772300    9.757070   97.675100
  H     41.744300    9.925310   98.066100
  H     42.857300   10.385800   96.813600
  C     43.794600   10.241000   98.726400
  H     43.709400    9.793060   99.668700
  H     43.508200   11.258700   98.981400
  H     44.787700   10.087100   98.381300
  H     46.548600    8.405470  102.745000
  H     40.415000    4.735630   99.096000

 Total Charge           Charge          ....    0
 Multiplicity           Mult            ....    1
 Number of Electrons    NEL             ....  134
 Basis Dimension        Dim             ....  322

ORBITAL ENERGIES
----------------

  NO   OCC          E(Eh)            E(eV)
   0   2.0000     -88.964080     -2420.8357
   1   2.0000     -88.959526     -2420.7118
   2   2.0000     -10.324845      -280.9533
   3   2.0000     -10.324261      -280.9374
   4   2.0000     -10.317826      -280.7623
   5   2.0000     -10.307633      -280.4849
   6   2.0000     -10.305684      -280.4319
   7   2.0000     -10.300054      -280.2787
   8   2.0000     -10.296898      -280.1928
   9   2.0000     -10.295157      -280.1455
  10   2.0000     -10.291075      -280.0344
  11   2.0000     -10.290789      -280.0266
  12   2.0000     -10.290551      -280.0201
  13   2.0000     -10.283833      -279.8373
  14   2.0000     -10.282894      -279.8118
  15   2.0000     -10.260372      -279.1989
  16   2.0000      -8.079348      -219.8502
  17   2.0000      -8.075228      -219.7381
  18   2.0000      -6.037759      -164.2958
  19   2.0000      -6.033765      -164.1871
  20   2.0000      -6.033601      -164.1826
  21   2.0000      -6.030345      -164.0940
  22   2.0000      -6.029973      -164.0839
  23   2.0000      -6.025480      -163.9616
  24   2.0000      -1.014939       -27.6179
  25   2.0000      -0.987336       -26.8668
  26   2.0000      -0.915659       -24.9163
  27   2.0000      -0.904873       -24.6228
  28   2.0000      -0.869287       -23.6545
  29   2.0000      -0.850369       -23.1397
  30   2.0000      -0.843634       -22.9565
  31   2.0000      -0.814428       -22.1617
  32   2.0000      -0.782364       -21.2892
  33   2.0000      -0.770486       -20.9660
  34   2.0000      -0.710777       -19.3412
  35   2.0000      -0.701159       -19.0795
  36   2.0000      -0.687409       -18.7054
  37   2.0000      -0.661839       -18.0096
  38   2.0000      -0.641552       -17.4575
  39   2.0000      -0.620362       -16.8809
  40   2.0000      -0.594191       -16.1688
  41   2.0000      -0.572196       -15.5702
  42   2.0000      -0.567291       -15.4368
  43   2.0000      -0.549318       -14.9477
  44   2.0000      -0.541839       -14.7442
  45   2.0000      -0.530630       -14.4392
  46   2.0000      -0.517189       -14.0734
  47   2.0000      -0.514873       -14.0104
  48   2.0000      -0.502042       -13.6613
  49   2.0000      -0.497761       -13.5448
  50   2.0000      -0.493722       -13.4349
  51   2.0000      -0.478929       -13.0323
  52   2.0000      -0.473854       -12.8942
  53   2.0000      -0.459674       -12.5084
  54   2.0000      -0.455043       -12.3824
  55   2.0000      -0.452776       -12.3207
  56   2.0000      -0.446310       -12.1447
  57   2.0000      -0.441266       -12.0075
  58   2.0000      -0.432423       -11.7668
  59   2.0000      -0.422031       -11.4841
  60   2.0000      -0.419522       -11.4158
  61   2.0000      -0.411525       -11.1982
  62   2.0000      -0.402704       -10.9581
  63   2.0000      -0.342012        -9.3066
  64   2.0000      -0.327106        -8.9010
  65   2.0000      -0.322225        -8.7682
  66   2.0000      -0.297950        -8.1076
  67   0.0000       0.030363         0.8262
  68   0.0000       0.066442         1.8080
  69   0.0000       0.101649         2.7660
  70   0.0000       0.126624         3.4456
  71   0.0000       0.129387         3.5208

MULLIKEN ATOMIC CHARGES
-----------------------
   0 S :    0.099848
   1 C :   -0.130242
   2 C :   -0.073151
   3 C :    0.068477
   4 C :   -0.147300
   5 H :   -0.035520
   6 C :    0.031984
   7 H :    0.033887
   8 H :    0.026287
   9 C :   -0.120123
  10 H :    0.050276
  11 H :    0.041397
  12 C :   -0.041897
  13 H :    0.039556
  14 H :    0.051877
  15 H :    0.024351
  16 S :    0.120600
  17 C :   -0.088622
  18 C :   -0.058998
  19 C :   -0.029572
  20 C :   -0.175289
  21 H :    0.034930
  22 C :    0.090074
  23 H :    0.015103
  24 H :    0.021386
  25 C :   -0.063855
  26 H :    0.025917
  27 H :    0.023219
  28 C :    0.009031
  29 H :    0.006332
  30 H :    0.022309
  31 H :    0.023702
  32 H :    0.049414
  33 H :    0.054613
Sum of atomic charges:    0.0000000

LOEWDIN ATOMIC CHARGES
----------------------
   0 S :    0.419421
   1 C :   -0.208200
   2 C :   -0.060140
   3 C :   -0.048326
   4 C :   -0.183652
   5 H :    0.011575
   6 C :   -0.032212
   7 H :    0.035056
   8 H :    0.023523
   9 C :   -0.050485
  10 H :    0.027647
  11 H :    0.030662
  12 C :   -0.072436
  13 H :    0.035103
  14 H :    0.029862
  15 H :    0.026911
  16 S :    0.430475
  17 C :   -0.186051
  18 C :   -0.076403
  19 C :   -0.048911
  20 C :   -0.223890
  21 H :    0.036545
  22 C :   -0.032820
  23 H :    0.028484
  24 H :    0.031857
  25 C :   -0.034127
  26 H :    0.025634
  27 H :    0.019048
  28 C :   -0.059250
  29 H :    0.003491
  30 H :    0.028800
  31 H :    0.018660
  32 H :    0.029395
  33 H :    0.024752

  Mayer bond orders larger than 0.100000
B(  0-S ,  1-C ) :   1.1064 B(  0-S ,  4-C ) :   1.1710 B(  1-C ,  2-C ) :   1.6573
B(  1-C , 32-H ) :   0.9628 B(  2-C ,  3-C ) :   1.2024 B(  2-C ,  6-C ) :   0.9967
B(  3-C ,  4-C ) :   1.5940 B(  3-C ,  5-H ) :   1.0315 B(  4-C , 20-C ) :   1.0193
B(  6-C ,  7-H ) :   0.9363 B(  6-C ,  8-H ) :   0.9479 B(  6-C ,  9-C ) :   1.0545
B(  9-C , 10-H ) :   0.9641 B(  9-C , 11-H ) :   0.9527 B(  9-C , 12-C ) :   1.0639
B( 12-C , 13-H ) :   0.9730 B( 12-C , 14-H ) :   0.9738 B( 12-C , 15-H ) :   0.9719
B( 16-S , 17-C ) :   1.1710 B( 16-S , 20-C ) :   1.1637 B( 17-C , 18-C ) :   1.5784
B( 17-C , 20-C ) :   0.1068 B( 17-C , 33-H ) :   0.9734 B( 18-C , 19-C ) :   1.2624
B( 18-C , 21-H ) :   0.9829 B( 19-C , 20-C ) :   1.5497 B( 19-C , 22-C ) :   1.0353
B( 22-C , 23-H ) :   0.9311 B( 22-C , 24-H ) :   0.9358 B( 22-C , 25-C ) :   1.0700
B( 25-C , 26-H ) :   0.9544 B( 25-C , 27-H ) :   0.9557 B( 25-C , 28-C ) :   1.0843
B( 28-C , 29-H ) :   0.9651 B( 28-C , 30-H ) :   0.9635 B( 28-C , 31-H ) :   0.9711

Dispersion correction           -0.015303406
FINAL SINGLE POINT ENERGY     -1339.856618682142

DIPOLE MOMENT
-------------
                                X             Y             Z
Electronic contribution:    -20.07755     -13.26036       8.55977
Nuclear contribution   :     20.40989      13.40174      -9.00424
                        -----------------------------------------
Total Dipole Moment    :      0.33233       0.14138      -0.44447
                        -----------------------------------------
Magnitude (a.u.)       :      0.57270
Magnitude (Debye)      :      1.45569

Rotational constants in cm-1:     0.024567     0.007767     0.006894
Rotational constants in MHz :   736.485631   232.841525   206.681143

                             ****ORCA TERMINATED NORMALLY****
TOTAL RUN TIME: 0 days 0 hours 0 minutes 31 seconds 925 msec
