                         Program Version 4.2.1 -  RELEASE  -
|  1> ! wB97X-D3 SP def2-SVP
|  2> %pal
|  3> nprocs 16
|  4> end
|  5>
|  6> * xyz 0 1
|  7> S 	 -8.17901 	 8.15526 	 84.9113
|  8> C 	 -7.67545 	 7.11778 	 86.1853
|  9> C 	 -8.72268 	 6.69463 	 87.014
| 10> C 	 -9.94573 	 7.24945 	 86.5605
| 11> C 	 -9.83837 	 8.03755 	 85.4368
| 12> H 	 -10.9367 	 7.15924 	 87.0088
| 13> C 	 -8.62629 	 5.97986 	 88.4052
| 14> H 	 -7.51932 	 5.7921 	 88.4696
| 15> H 	 -9.17721 	 5.02681 	 88.3911
| 16> C 	 -9.14009 	 6.8377 	 89.5883
| 17> H 	 -8.82982 	 7.90428 	 89.3674
| 18> H 	 -10.2269 	 6.71122 	 89.7544
| 19> C 	 -8.39064 	 6.22189 	 90.8116
| 20> H 	 -7.35752 	 6.48339 	 90.6942
| 21> H 	 -8.55967 	 6.63263 	 91.7575
| 22> H 	 -8.66449 	 5.13504 	 90.9739
| 23> S 	 -10.4799 	 10.5468 	 84.6533
| 24> C 	 -12.2088 	 10.9465 	 84.4032
| 25> C 	 -13.0146 	 9.82648 	 84.394
| 26> C 	 -12.1996 	 8.65849 	 84.5752
| 27> C 	 -10.8559 	 8.88385 	 84.8466
| 28> H 	 -14.1277 	 9.8413 	 84.5395
| 29> C 	 -12.9708 	 7.29768 	 84.7176
| 30> H 	 -14.0224 	 7.41324 	 84.6541
| 31> H 	 -12.7145 	 6.93591 	 85.6897
| 32> C 	 -12.758 	 6.32335 	 83.5274
| 33> H 	 -13.2328 	 6.67216 	 82.5881
| 34> H 	 -13.3593 	 5.46488 	 83.7317
| 35> C 	 -11.2827 	 5.96663 	 83.3614
| 36> H 	 -10.6682 	 6.86151 	 83.1415
| 37> H 	 -11.0809 	 5.21387 	 82.5787
| 38> H 	 -10.7896 	 5.66043 	 84.3171
| 39> H 	 -6.64023 	 6.82368 	 86.2613
| 40> H 	 -12.6308 	 11.9184 	 84.5107
| 41> *
| 42>
| 43>                          ****END OF INPUT****

CARTESIAN COORDINATES (ANGSTROEM)
---------------------------------
  S     -8.179010    8.155260   84.911300
  C     -7.675450    7.117780   86.185300
  C     -8.722680    6.694630   87.014000
  C     -9.945730    7.249450   86.560500
  C     -9.838370    8.037550   85.436800
  H    -10.936700    7.159240   87.008800
  C     -8.626290    5.979860   88.405200
  H     -7.519320    5.792100   88.469600
  H     -9.177210    5.026810   88.391100
  C     -9.140090    6.837700   89.588300
  H     -8.829820    7.904280   89.367400
  H    -10.226900    6.711220   89.754400
  C     -8.390640    6.221890   90.811600
  H     -7.357520    6.483390   90.694200
  H     -8.559670    6.632630   91.757500
  H     -8.664490    5.135040   90.973900
  S    -10.479900   10.546800   84.653300
  C    -12.208800   10.946500   84.403200
  C    -13.014600    9.826480   84.394000
  C    -12.199600    8.658490   84.575200
  C    -10.855900    8.883850   84.846600
  H    -14.127700    9.841300   84.539500
  C    -12.970800    7.297680   84.717600
  H    -14.022400    7.413240   84.654100
  H    -12.714500    6.935910   85.689700
  C    -12.758000    6.323350   83.527400
  H    -13.232800    6.672160   82.588100
  H    -13.359300    5.464880   83.731700
  C    -11.282700    5.966630   83.361400
  H    -10.668200    6.861510   83.141500
  H    -11.080900    5.213870   82.578700
  H    -10.789600    5.660430   84.317100
  H     -6.640230    6.823680   86.261300
  H    -12.630800   11.918400   84.510700

 Total Charge           Charge          ....    0
 Multiplicity           Mult            ....    1
 Number of Electrons    NEL             ....  134
 Basis Dimension        Dim             ....  322

ORBITAL ENERGIES
----------------

  NO   OCC          E(Eh)            E(eV)
   0   2.0000     -88.968684     -2420.9610
   1   2.0000     -88.966530     -2420.9023
   2   2.0000     -10.327526      -281.0263
   3   2.0000     -10.324607      -280.9468
   4   2.0000     -10.317454      -280.7522
   5   2.0000     -10.315196      -280.6908
   6   2.0000     -10.305342      -280.4226
   7   2.0000     -10.302848      -280.3547
   8   2.0000     -10.302065      -280.3334
   9   2.0000     -10.299311      -280.2585
  10   2.0000     -10.299079      -280.2522
  11   2.0000     -10.292746      -280.0798
  12   2.0000     -10.287545      -279.9383
  13   2.0000     -10.282123      -279.7908
  14   2.0000     -10.278969      -279.7050
  15   2.0000     -10.268229      -279.4127
  16   2.0000      -8.083982      -219.9763
  17   2.0000      -8.081286      -219.9030
  18   2.0000      -6.042352      -164.4208
  19   2.0000      -6.039867      -164.3531
  20   2.0000      -6.038392      -164.3130
  21   2.0000      -6.035830      -164.2433
  22   2.0000      -6.034895      -164.2178
  23   2.0000      -6.031902      -164.1364
  24   2.0000      -1.011057       -27.5122
  25   2.0000      -0.984781       -26.7972
  26   2.0000      -0.908911       -24.7327
  27   2.0000      -0.901133       -24.5211
  28   2.0000      -0.872447       -23.7405
  29   2.0000      -0.851531       -23.1713
  30   2.0000      -0.838630       -22.8203
  31   2.0000      -0.811082       -22.0707
  32   2.0000      -0.778356       -21.1802
  33   2.0000      -0.769223       -20.9316
  34   2.0000      -0.706709       -19.2305
  35   2.0000      -0.694969       -18.9111
  36   2.0000      -0.690245       -18.7825
  37   2.0000      -0.663085       -18.0435
  38   2.0000      -0.645415       -17.5626
  39   2.0000      -0.618671       -16.8349
  40   2.0000      -0.585917       -15.9436
  41   2.0000      -0.579072       -15.7574
  42   2.0000      -0.559584       -15.2271
  43   2.0000      -0.543402       -14.7867
  44   2.0000      -0.541198       -14.7268
  45   2.0000      -0.518315       -14.1041
  46   2.0000      -0.514372       -13.9968
  47   2.0000      -0.510418       -13.8892
  48   2.0000      -0.503609       -13.7039
  49   2.0000      -0.498997       -13.5784
  50   2.0000      -0.494113       -13.4455
  51   2.0000      -0.475628       -12.9425
  52   2.0000      -0.467571       -12.7233
  53   2.0000      -0.462988       -12.5985
  54   2.0000      -0.454224       -12.3601
  55   2.0000      -0.448760       -12.2114
  56   2.0000      -0.441594       -12.0164
  57   2.0000      -0.435226       -11.8431
  58   2.0000      -0.428593       -11.6626
  59   2.0000      -0.426151       -11.5962
  60   2.0000      -0.420569       -11.4443
  61   2.0000      -0.416401       -11.3308
  62   2.0000      -0.397690       -10.8217
  63   2.0000      -0.352806        -9.6003
  64   2.0000      -0.335355        -9.1255
  65   2.0000      -0.328430        -8.9370
  66   2.0000      -0.287147        -7.8137
  67   0.0000       0.029326         0.7980
  68   0.0000       0.067126         1.8266
  69   0.0000       0.101457         2.7608
  70   0.0000       0.117155         3.1879
  71   0.0000       0.139915         3.8073

MULLIKEN ATOMIC CHARGES
-----------------------
   0 S :    0.118151
   1 C :   -0.133659
   2 C :   -0.075368
   3 C :    0.025187
   4 C :   -0.179912
   5 H :    0.016874
   6 C :    0.040089
   7 H :    0.030350
   8 H :    0.042462
   9 C :   -0.096224
  10 H :    0.058774
  11 H :    0.046485
  12 C :   -0.045719
  13 H :    0.030737
  14 H :    0.009614
  15 H :    0.044439
  16 S :    0.103623
  17 C :   -0.086280
  18 C :   -0.046085
  19 C :   -0.083317
  20 C :   -0.120146
  21 H :    0.054132
  22 C :    0.086125
  23 H :    0.002841
  24 H :    0.017936
  25 C :   -0.047098
  26 H :    0.027396
  27 H :    0.016860
  28 C :   -0.066299
  29 H :    0.039123
  30 H :    0.035702
  31 H :    0.034556
  32 H :    0.048711
  33 H :    0.049941
Sum of atomic charges:   -0.0000000

LOEWDIN ATOMIC CHARGES
----------------------
   0 S :    0.421224
   1 C :   -0.207434
   2 C :   -0.066853
   3 C :   -0.063838
   4 C :   -0.194723
   5 H :    0.032153
   6 C :   -0.029815
   7 H :    0.033598
   8 H :    0.032731
   9 C :   -0.041637
  10 H :    0.036026
  11 H :    0.027428
  12 C :   -0.068445
  13 H :    0.025565
  14 H :    0.013242
  15 H :    0.035947
  16 S :    0.404698
  17 C :   -0.170954
  18 C :   -0.072710
  19 C :   -0.057223
  20 C :   -0.216713
  21 H :    0.046316
  22 C :   -0.021111
  23 H :    0.023470
  24 H :    0.020965
  25 C :   -0.037096
  26 H :    0.027433
  27 H :    0.018264
  28 C :   -0.079053
  29 H :    0.026956
  30 H :    0.024464
  31 H :    0.029495
  32 H :    0.024036
  33 H :    0.023596

  Mayer bond orders larger than 0.100000
B(  0-S ,  1-C ) :   1.1547 B(  0-S ,  4-C ) :   1.1531 B(  1-C ,  2-C ) :   1.5934
B(  1-C , 32-H ) :   0.9675 B(  2-C ,  3-C ) :   1.2451 B(  2-C ,  6-C ) :   1.0169
B(  3-C ,  4-C ) :   1.5859 B(  3-C ,  5-H ) :   0.9870 B(  4-C , 20-C ) :   1.0325
B(  6-C ,  7-H ) :   0.9536 B(  6-C ,  8-H ) :   0.9340 B(  6-C ,  9-C ) :   1.0491
B(  9-C , 10-H ) :   0.9613 B(  9-C , 11-H ) :   0.9517 B(  9-C , 12-C ) :   1.0754
B( 12-C , 13-H ) :   0.9768 B( 12-C , 14-H ) :   0.9733 B( 12-C , 15-H ) :   0.9718
B( 16-S , 17-C ) :   1.1475 B( 16-S , 20-C ) :   1.1328 B( 17-C , 18-C ) :   1.6285
B( 17-C , 33-H ) :   0.9666 B( 18-C , 19-C ) :   1.2519 B( 18-C , 21-H ) :   0.9743
B( 19-C , 20-C ) :   1.6055 B( 19-C , 22-C ) :   1.0218 B( 22-C , 23-H ) :   0.9350
B( 22-C , 24-H ) :   0.9452 B( 22-C , 25-C ) :   1.0740 B( 25-C , 26-H ) :   0.9524
B( 25-C , 27-H ) :   0.9539 B( 25-C , 28-C ) :   1.0806 B( 28-C , 29-H ) :   0.9652
B( 28-C , 30-H ) :   0.9728 B( 28-C , 31-H ) :   0.9699

Dispersion correction           -0.015346467
FINAL SINGLE POINT ENERGY     -1339.862982074597

DIPOLE MOMENT
-------------
                                X             Y             Z
Electronic contribution:      5.56310      18.53178     -13.86002
Nuclear contribution   :     -5.94238     -18.80389      14.53536
                        -----------------------------------------
Total Dipole Moment    :     -0.37927      -0.27211       0.67533
                        -----------------------------------------
Magnitude (a.u.)       :      0.82096
Magnitude (Debye)      :      2.08670

Rotational constants in cm-1:     0.019613     0.008355     0.007823
Rotational constants in MHz :   587.988149   250.484318   234.518787

                             ****ORCA TERMINATED NORMALLY****
TOTAL RUN TIME: 0 days 0 hours 0 minutes 36 seconds 865 msec
