                         Program Version 4.2.1 -  RELEASE  -
|  1> ! wB97X-D3 SP def2-SVP
|  2> %pal
|  3> nprocs 16
|  4> end
|  5>
|  6> * xyz 0 1
|  7> S 	 45.707 	 10.5116 	 50.742
|  8> C 	 45.1687 	 10.8137 	 49.1453
|  9> C 	 45.3424 	 12.1439 	 48.8863
| 10> C 	 45.8297 	 12.8808 	 50.0061
| 11> C 	 45.9848 	 12.1487 	 51.1242
| 12> H 	 46.0669 	 13.9597 	 49.9311
| 13> C 	 45.1449 	 12.7828 	 47.5641
| 14> H 	 44.956 	 12.0306 	 46.7994
| 15> H 	 46.0869 	 13.324 	 47.3271
| 16> C 	 44.0545 	 13.8894 	 47.5595
| 17> H 	 44.2148 	 14.7086 	 48.3361
| 18> H 	 44.0502 	 14.2234 	 46.5477
| 19> C 	 42.5781 	 13.5031 	 47.7286
| 20> H 	 42.5046 	 12.6595 	 48.484
| 21> H 	 42.2454 	 14.459 	 48.0602
| 22> H 	 42.0551 	 13.1729 	 46.8481
| 23> S 	 47.7267 	 11.6869 	 53.2931
| 24> C 	 47.7098 	 12.8097 	 54.5302
| 25> C 	 46.7193 	 13.7638 	 54.4268
| 26> C 	 46.0731 	 13.7872 	 53.1489
| 27> C 	 46.4674 	 12.621 	 52.461
| 28> H 	 46.5871 	 14.5101 	 55.222
| 29> C 	 45.0202 	 14.7665 	 52.7297
| 30> H 	 45.2622 	 14.974 	 51.7286
| 31> H 	 45.2709 	 15.726 	 53.1261
| 32> C 	 43.5019 	 14.2713 	 52.7805
| 33> H 	 43.3196 	 14.1839 	 53.8111
| 34> H 	 43.3769 	 13.2831 	 52.3215
| 35> C 	 42.6072 	 15.3716 	 52.0975
| 36> H 	 41.5993 	 15.2587 	 52.5142
| 37> H 	 42.5077 	 15.2801 	 51.006
| 38> H 	 42.8245 	 16.3921 	 52.4186
| 39> H 	 45.0284 	 10.0288 	 48.3872
| 40> H 	 48.3556 	 12.7437 	 55.3968
| 41> *
| 42>
| 43>                          ****END OF INPUT****

CARTESIAN COORDINATES (ANGSTROEM)
---------------------------------
  S     45.707000   10.511600   50.742000
  C     45.168700   10.813700   49.145300
  C     45.342400   12.143900   48.886300
  C     45.829700   12.880800   50.006100
  C     45.984800   12.148700   51.124200
  H     46.066900   13.959700   49.931100
  C     45.144900   12.782800   47.564100
  H     44.956000   12.030600   46.799400
  H     46.086900   13.324000   47.327100
  C     44.054500   13.889400   47.559500
  H     44.214800   14.708600   48.336100
  H     44.050200   14.223400   46.547700
  C     42.578100   13.503100   47.728600
  H     42.504600   12.659500   48.484000
  H     42.245400   14.459000   48.060200
  H     42.055100   13.172900   46.848100
  S     47.726700   11.686900   53.293100
  C     47.709800   12.809700   54.530200
  C     46.719300   13.763800   54.426800
  C     46.073100   13.787200   53.148900
  C     46.467400   12.621000   52.461000
  H     46.587100   14.510100   55.222000
  C     45.020200   14.766500   52.729700
  H     45.262200   14.974000   51.728600
  H     45.270900   15.726000   53.126100
  C     43.501900   14.271300   52.780500
  H     43.319600   14.183900   53.811100
  H     43.376900   13.283100   52.321500
  C     42.607200   15.371600   52.097500
  H     41.599300   15.258700   52.514200
  H     42.507700   15.280100   51.006000
  H     42.824500   16.392100   52.418600
  H     45.028400   10.028800   48.387200
  H     48.355600   12.743700   55.396800

 Total Charge           Charge          ....    0
 Multiplicity           Mult            ....    1
 Number of Electrons    NEL             ....  134
 Basis Dimension        Dim             ....  322

ORBITAL ENERGIES
----------------

  NO   OCC          E(Eh)            E(eV)
   0   2.0000     -88.969413     -2420.9808
   1   2.0000     -88.958097     -2420.6729
   2   2.0000     -10.329380      -281.0767
   3   2.0000     -10.323896      -280.9275
   4   2.0000     -10.310208      -280.5550
   5   2.0000     -10.307652      -280.4855
   6   2.0000     -10.305272      -280.4207
   7   2.0000     -10.292310      -280.0680
   8   2.0000     -10.292224      -280.0656
   9   2.0000     -10.291955      -280.0583
  10   2.0000     -10.290493      -280.0185
  11   2.0000     -10.288077      -279.9528
  12   2.0000     -10.286428      -279.9079
  13   2.0000     -10.286236      -279.9027
  14   2.0000     -10.283249      -279.8214
  15   2.0000     -10.273839      -279.5654
  16   2.0000      -8.085085      -220.0064
  17   2.0000      -8.074743      -219.7249
  18   2.0000      -6.043320      -164.4471
  19   2.0000      -6.039488      -164.3428
  20   2.0000      -6.036074      -164.2499
  21   2.0000      -6.033205      -164.1719
  22   2.0000      -6.028916      -164.0552
  23   2.0000      -6.025501      -163.9622
  24   2.0000      -1.014524       -27.6066
  25   2.0000      -0.993662       -27.0389
  26   2.0000      -0.912272       -24.8242
  27   2.0000      -0.906572       -24.6691
  28   2.0000      -0.866435       -23.5769
  29   2.0000      -0.853792       -23.2329
  30   2.0000      -0.846155       -23.0250
  31   2.0000      -0.814135       -22.1537
  32   2.0000      -0.786290       -21.3961
  33   2.0000      -0.772958       -21.0332
  34   2.0000      -0.713952       -19.4276
  35   2.0000      -0.695256       -18.9189
  36   2.0000      -0.685751       -18.6602
  37   2.0000      -0.654714       -17.8157
  38   2.0000      -0.635419       -17.2906
  39   2.0000      -0.626859       -17.0577
  40   2.0000      -0.598538       -16.2871
  41   2.0000      -0.568844       -15.4790
  42   2.0000      -0.561241       -15.2721
  43   2.0000      -0.548475       -14.9248
  44   2.0000      -0.540279       -14.7018
  45   2.0000      -0.524972       -14.2852
  46   2.0000      -0.519218       -14.1286
  47   2.0000      -0.509467       -13.8633
  48   2.0000      -0.502578       -13.6758
  49   2.0000      -0.499031       -13.5793
  50   2.0000      -0.491907       -13.3855
  51   2.0000      -0.483633       -13.1603
  52   2.0000      -0.471327       -12.8255
  53   2.0000      -0.466943       -12.7062
  54   2.0000      -0.460520       -12.5314
  55   2.0000      -0.452563       -12.3149
  56   2.0000      -0.444671       -12.1001
  57   2.0000      -0.433119       -11.7858
  58   2.0000      -0.431572       -11.7437
  59   2.0000      -0.427714       -11.6387
  60   2.0000      -0.424198       -11.5430
  61   2.0000      -0.418142       -11.3782
  62   2.0000      -0.399824       -10.8798
  63   2.0000      -0.350720        -9.5436
  64   2.0000      -0.333091        -9.0639
  65   2.0000      -0.323077        -8.7914
  66   2.0000      -0.289497        -7.8776
  67   0.0000       0.034111         0.9282
  68   0.0000       0.079438         2.1616
  69   0.0000       0.117794         3.2053
  70   0.0000       0.118829         3.2335
  71   0.0000       0.125871         3.4251

MULLIKEN ATOMIC CHARGES
-----------------------
   0 S :    0.091805
   1 C :   -0.130313
   2 C :   -0.098318
   3 C :   -0.012583
   4 C :   -0.120119
   5 H :    0.026745
   6 C :    0.086151
   7 H :    0.013680
   8 H :    0.037360
   9 C :   -0.118587
  10 H :    0.041691
  11 H :    0.025533
  12 C :   -0.051930
  13 H :    0.042909
  14 H :    0.030868
  15 H :    0.032004
  16 S :    0.136327
  17 C :   -0.087021
  18 C :   -0.044478
  19 C :   -0.066730
  20 C :   -0.164664
  21 H :    0.018161
  22 C :    0.125312
  23 H :   -0.022364
  24 H :    0.004881
  25 C :   -0.030926
  26 H :    0.024368
  27 H :    0.053086
  28 C :   -0.063677
  29 H :    0.027339
  30 H :    0.050016
  31 H :    0.029724
  32 H :    0.060043
  33 H :    0.053708
Sum of atomic charges:   -0.0000000

LOEWDIN ATOMIC CHARGES
----------------------
   0 S :    0.425850
   1 C :   -0.221151
   2 C :   -0.070763
   3 C :   -0.078917
   4 C :   -0.202691
   5 H :    0.033583
   6 C :   -0.034502
   7 H :    0.028141
   8 H :    0.039658
   9 C :   -0.043768
  10 H :    0.028880
  11 H :    0.023042
  12 C :   -0.068455
  13 H :    0.030731
  14 H :    0.024894
  15 H :    0.019366
  16 S :    0.434687
  17 C :   -0.210903
  18 C :   -0.076818
  19 C :   -0.046774
  20 C :   -0.193179
  21 H :    0.031831
  22 C :   -0.035207
  23 H :    0.021648
  24 H :    0.028751
  25 C :   -0.016761
  26 H :    0.017700
  27 H :    0.034545
  28 C :   -0.070994
  29 H :    0.028840
  30 H :    0.029050
  31 H :    0.025372
  32 H :    0.036086
  33 H :    0.028229

  Mayer bond orders larger than 0.100000
B(  0-S ,  1-C ) :   1.1351 B(  0-S ,  4-C ) :   1.1688 B(  1-C ,  2-C ) :   1.5925
B(  1-C , 32-H ) :   0.9675 B(  2-C ,  3-C ) :   1.2549 B(  2-C ,  6-C ) :   1.0416
B(  3-C ,  4-C ) :   1.5644 B(  3-C ,  5-H ) :   0.9887 B(  4-C , 20-C ) :   1.0217
B(  6-C ,  7-H ) :   0.9408 B(  6-C ,  8-H ) :   0.9328 B(  6-C ,  9-C ) :   1.0689
B(  9-C , 10-H ) :   0.9681 B(  9-C , 11-H ) :   0.9554 B(  9-C , 12-C ) :   1.0548
B( 12-C , 13-H ) :   0.9763 B( 12-C , 14-H ) :   0.9789 B( 12-C , 15-H ) :   0.9791
B( 16-S , 17-C ) :   1.1759 B( 16-S , 20-C ) :   1.1587 B( 17-C , 18-C ) :   1.5950
B( 17-C , 33-H ) :   0.9647 B( 18-C , 19-C ) :   1.2566 B( 18-C , 21-H ) :   0.9861
B( 19-C , 20-C ) :   1.5640 B( 19-C , 22-C ) :   1.0536 B( 22-C , 23-H ) :   0.9127
B( 22-C , 24-H ) :   0.9189 B( 22-C , 25-C ) :   1.0368 B( 25-C , 26-H ) :   0.9623
B( 25-C , 27-H ) :   0.9583 B( 25-C , 28-C ) :   1.0715 B( 28-C , 29-H ) :   0.9734
B( 28-C , 30-H ) :   0.9772 B( 28-C , 31-H ) :   0.9744

Dispersion correction           -0.015295956
FINAL SINGLE POINT ENERGY     -1339.867028676127

DIPOLE MOMENT
-------------
                                X             Y             Z
Electronic contribution:     21.01388     -19.57483      12.86209
Nuclear contribution   :    -21.18946      20.15851     -13.06901
                        -----------------------------------------
Total Dipole Moment    :     -0.17558       0.58367      -0.20691
                        -----------------------------------------
Magnitude (a.u.)       :      0.64367
Magnitude (Debye)      :      1.63609

Rotational constants in cm-1:     0.018906     0.010046     0.007292
Rotational constants in MHz :   566.780635   301.183146   218.622529

                             ****ORCA TERMINATED NORMALLY****
TOTAL RUN TIME: 0 days 0 hours 0 minutes 36 seconds 325 msec
