                         Program Version 4.2.1 -  RELEASE  -
|  1> ! wB97X-D3 SP def2-SVP
|  2> %pal
|  3> nprocs 16
|  4> end
|  5>
|  6> * xyz 0 1
|  7> S 	 -43.9631 	 32.333 	 80.3721
|  8> C 	 -44.3559 	 32.8141 	 78.7032
|  9> C 	 -43.4908 	 32.2346 	 77.7876
| 10> C 	 -42.3687 	 31.5825 	 78.4318
| 11> C 	 -42.4559 	 31.6677 	 79.8033
| 12> H 	 -41.5517 	 31.1237 	 77.9483
| 13> C 	 -43.3987 	 32.4911 	 76.3017
| 14> H 	 -42.3273 	 32.8658 	 76.0056
| 15> H 	 -43.9677 	 33.4043 	 76.0449
| 16> C 	 -43.8419 	 31.2015 	 75.5638
| 17> H 	 -43.0394 	 30.434 	 75.47
| 18> H 	 -44.6688 	 30.6851 	 76.0827
| 19> C 	 -44.2214 	 31.3874 	 74.0729
| 20> H 	 -45.0261 	 32.1858 	 73.9516
| 21> H 	 -43.3077 	 31.7046 	 73.5913
| 22> H 	 -44.5145 	 30.5051 	 73.6115
| 23> S 	 -39.8874 	 32.0322 	 80.6469
| 24> C 	 -39.2153 	 31.1756 	 82.0283
| 25> C 	 -40.1235 	 30.2373 	 82.4003
| 26> C 	 -41.4123 	 30.2942 	 81.7358
| 27> C 	 -41.4467 	 31.2355 	 80.7212
| 28> H 	 -39.7123 	 29.5298 	 83.1428
| 29> C 	 -42.6232 	 29.3741 	 82.1164
| 30> H 	 -43.5833 	 29.8607 	 82.1393
| 31> H 	 -42.4567 	 29.4167 	 83.2401
| 32> C 	 -42.8325 	 27.9659 	 81.5692
| 33> H 	 -43.5661 	 27.4715 	 82.1895
| 34> H 	 -41.8359 	 27.5895 	 81.6441
| 35> C 	 -43.3474 	 27.9912 	 80.1355
| 36> H 	 -42.5431 	 28.2042 	 79.4238
| 37> H 	 -44.0506 	 28.7932 	 79.9912
| 38> H 	 -43.9494 	 27.1001 	 79.9745
| 39> H 	 -45.125 	 33.5304 	 78.3819
| 40> H 	 -38.2737 	 31.2013 	 82.5139
| 41> *
| 42>
| 43>                          ****END OF INPUT****

CARTESIAN COORDINATES (ANGSTROEM)
---------------------------------
  S    -43.963100   32.333000   80.372100
  C    -44.355900   32.814100   78.703200
  C    -43.490800   32.234600   77.787600
  C    -42.368700   31.582500   78.431800
  C    -42.455900   31.667700   79.803300
  H    -41.551700   31.123700   77.948300
  C    -43.398700   32.491100   76.301700
  H    -42.327300   32.865800   76.005600
  H    -43.967700   33.404300   76.044900
  C    -43.841900   31.201500   75.563800
  H    -43.039400   30.434000   75.470000
  H    -44.668800   30.685100   76.082700
  C    -44.221400   31.387400   74.072900
  H    -45.026100   32.185800   73.951600
  H    -43.307700   31.704600   73.591300
  H    -44.514500   30.505100   73.611500
  S    -39.887400   32.032200   80.646900
  C    -39.215300   31.175600   82.028300
  C    -40.123500   30.237300   82.400300
  C    -41.412300   30.294200   81.735800
  C    -41.446700   31.235500   80.721200
  H    -39.712300   29.529800   83.142800
  C    -42.623200   29.374100   82.116400
  H    -43.583300   29.860700   82.139300
  H    -42.456700   29.416700   83.240100
  C    -42.832500   27.965900   81.569200
  H    -43.566100   27.471500   82.189500
  H    -41.835900   27.589500   81.644100
  C    -43.347400   27.991200   80.135500
  H    -42.543100   28.204200   79.423800
  H    -44.050600   28.793200   79.991200
  H    -43.949400   27.100100   79.974500
  H    -45.125000   33.530400   78.381900
  H    -38.273700   31.201300   82.513900

 Total Charge           Charge          ....    0
 Multiplicity           Mult            ....    1
 Number of Electrons    NEL             ....  134
 Basis Dimension        Dim             ....  322

ORBITAL ENERGIES
----------------

  NO   OCC          E(Eh)            E(eV)
   0   2.0000     -88.969767     -2420.9904
   1   2.0000     -88.961961     -2420.7780
   2   2.0000     -10.328566      -281.0546
   3   2.0000     -10.325211      -280.9633
   4   2.0000     -10.319607      -280.8108
   5   2.0000     -10.313108      -280.6339
   6   2.0000     -10.309010      -280.5224
   7   2.0000     -10.306005      -280.4406
   8   2.0000     -10.304187      -280.3912
   9   2.0000     -10.294731      -280.1339
  10   2.0000     -10.293586      -280.1027
  11   2.0000     -10.293474      -280.0997
  12   2.0000     -10.289599      -279.9942
  13   2.0000     -10.279705      -279.7250
  14   2.0000     -10.277252      -279.6582
  15   2.0000     -10.268441      -279.4185
  16   2.0000      -8.083849      -219.9727
  17   2.0000      -8.076549      -219.7741
  18   2.0000      -6.042488      -164.4245
  19   2.0000      -6.038582      -164.3182
  20   2.0000      -6.035226      -164.2268
  21   2.0000      -6.034359      -164.2033
  22   2.0000      -6.030970      -164.1110
  23   2.0000      -6.027191      -164.0082
  24   2.0000      -1.007523       -27.4161
  25   2.0000      -0.982441       -26.7336
  26   2.0000      -0.909685       -24.7538
  27   2.0000      -0.904480       -24.6122
  28   2.0000      -0.873443       -23.7676
  29   2.0000      -0.850949       -23.1555
  30   2.0000      -0.840782       -22.8788
  31   2.0000      -0.816689       -22.2232
  32   2.0000      -0.781043       -21.2532
  33   2.0000      -0.770835       -20.9755
  34   2.0000      -0.711623       -19.3642
  35   2.0000      -0.695193       -18.9172
  36   2.0000      -0.690605       -18.7923
  37   2.0000      -0.657371       -17.8880
  38   2.0000      -0.639724       -17.4078
  39   2.0000      -0.619832       -16.8665
  40   2.0000      -0.595683       -16.2094
  41   2.0000      -0.573157       -15.5964
  42   2.0000      -0.559115       -15.2143
  43   2.0000      -0.556088       -15.1319
  44   2.0000      -0.533275       -14.5111
  45   2.0000      -0.530790       -14.4435
  46   2.0000      -0.514596       -14.0029
  47   2.0000      -0.510465       -13.8905
  48   2.0000      -0.506902       -13.7935
  49   2.0000      -0.499941       -13.6041
  50   2.0000      -0.486278       -13.2323
  51   2.0000      -0.481426       -13.1003
  52   2.0000      -0.470199       -12.7948
  53   2.0000      -0.464308       -12.6345
  54   2.0000      -0.457766       -12.4565
  55   2.0000      -0.448891       -12.2149
  56   2.0000      -0.439612       -11.9624
  57   2.0000      -0.437231       -11.8977
  58   2.0000      -0.424232       -11.5440
  59   2.0000      -0.422424       -11.4947
  60   2.0000      -0.416716       -11.3394
  61   2.0000      -0.412870       -11.2348
  62   2.0000      -0.397718       -10.8225
  63   2.0000      -0.345071        -9.3899
  64   2.0000      -0.332126        -9.0376
  65   2.0000      -0.325865        -8.8672
  66   2.0000      -0.297667        -8.0999
  67   0.0000       0.035695         0.9713
  68   0.0000       0.060680         1.6512
  69   0.0000       0.105198         2.8626
  70   0.0000       0.113814         3.0970
  71   0.0000       0.127114         3.4589

MULLIKEN ATOMIC CHARGES
-----------------------
   0 S :    0.121620
   1 C :   -0.130006
   2 C :   -0.060636
   3 C :    0.042665
   4 C :   -0.147280
   5 H :    0.003146
   6 C :    0.018100
   7 H :    0.051794
   8 H :    0.024673
   9 C :   -0.108828
  10 H :    0.035853
  11 H :    0.044969
  12 C :   -0.029471
  13 H :    0.037852
  14 H :    0.023175
  15 H :    0.024070
  16 S :    0.099611
  17 C :   -0.077169
  18 C :   -0.064313
  19 C :   -0.023906
  20 C :   -0.149176
  21 H :    0.030620
  22 C :   -0.006344
  23 H :    0.010938
  24 H :    0.025602
  25 C :    0.000212
  26 H :    0.029948
  27 H :    0.021650
  28 C :   -0.035079
  29 H :    0.040024
  30 H :    0.016278
  31 H :    0.030592
  32 H :    0.054936
  33 H :    0.043878
Sum of atomic charges:    0.0000000

LOEWDIN ATOMIC CHARGES
----------------------
   0 S :    0.400918
   1 C :   -0.192986
   2 C :   -0.059419
   3 C :   -0.048397
   4 C :   -0.190593
   5 H :    0.026288
   6 C :   -0.039653
   7 H :    0.043576
   8 H :    0.029098
   9 C :   -0.045798
  10 H :    0.029236
  11 H :    0.027350
  12 C :   -0.061776
  13 H :    0.028191
  14 H :    0.022784
  15 H :    0.015427
  16 S :    0.400127
  17 C :   -0.185236
  18 C :   -0.078918
  19 C :   -0.065017
  20 C :   -0.195866
  21 H :    0.037226
  22 C :   -0.046595
  23 H :    0.018019
  24 H :    0.037607
  25 C :   -0.034107
  26 H :    0.027776
  27 H :    0.022505
  28 C :   -0.065184
  29 H :    0.029869
  30 H :    0.021521
  31 H :    0.027131
  32 H :    0.034035
  33 H :    0.030861

  Mayer bond orders larger than 0.100000
B(  0-S ,  1-C ) :   1.1151 B(  0-S ,  4-C ) :   1.1348 B(  1-C ,  2-C ) :   1.6470
B(  1-C , 32-H ) :   0.9639 B(  2-C ,  3-C ) :   1.1879 B(  2-C ,  6-C ) :   1.0296
B(  3-C ,  4-C ) :   1.5998 B(  3-C ,  5-H ) :   1.0035 B(  4-C , 20-C ) :   1.0450
B(  6-C ,  7-H ) :   0.9464 B(  6-C ,  8-H ) :   0.9534 B(  6-C ,  9-C ) :   1.0239
B(  9-C , 10-H ) :   0.9559 B(  9-C , 11-H ) :   0.9642 B(  9-C , 12-C ) :   1.0838
B( 12-C , 13-H ) :   0.9778 B( 12-C , 14-H ) :   0.9733 B( 12-C , 15-H ) :   0.9758
B( 16-S , 17-C ) :   1.1320 B( 16-S , 20-C ) :   1.1370 B( 17-C , 18-C ) :   1.6563
B( 17-C , 33-H ) :   0.9687 B( 18-C , 19-C ) :   1.2186 B( 18-C , 21-H ) :   0.9816
B( 19-C , 20-C ) :   1.5970 B( 19-C , 22-C ) :   1.0185 B( 22-C , 23-H ) :   0.9407
B( 22-C , 24-H ) :   0.9324 B( 22-C , 25-C ) :   1.0721 B( 25-C , 26-H ) :   0.9486
B( 25-C , 27-H ) :   0.9554 B( 25-C , 28-C ) :   1.0834 B( 28-C , 29-H ) :   0.9745
B( 28-C , 30-H ) :   0.9736 B( 28-C , 31-H ) :   0.9733

Dispersion correction           -0.015030189
FINAL SINGLE POINT ENERGY     -1339.855845159311

DIPOLE MOMENT
-------------
                                X             Y             Z
Electronic contribution:      9.76102      13.78441      16.46077
Nuclear contribution   :     -9.79973     -14.05809     -16.71854
                        -----------------------------------------
Total Dipole Moment    :     -0.03871      -0.27369      -0.25776
                        -----------------------------------------
Magnitude (a.u.)       :      0.37795
Magnitude (Debye)      :      0.96067

Rotational constants in cm-1:     0.020210     0.008120     0.007267
Rotational constants in MHz :   605.878799   243.434055   217.859591

                             ****ORCA TERMINATED NORMALLY****
TOTAL RUN TIME: 0 days 0 hours 0 minutes 30 seconds 505 msec
