                         Program Version 4.2.1 -  RELEASE  -
|  1> ! wB97X-D3 SP def2-SVP
|  2> %pal
|  3> nprocs 16
|  4> end
|  5>
|  6> * xyz 0 1
|  7> S 	 -45.9754 	 55.464 	 97.4703
|  8> C 	 -45.442 	 56.4766 	 98.8083
|  9> C 	 -45.5481 	 55.8264 	 100.05
| 10> C 	 -46.1587 	 54.5444 	 99.9266
| 11> C 	 -46.3559 	 54.1285 	 98.6139
| 12> H 	 -46.3513 	 53.8641 	 100.742
| 13> C 	 -45.299 	 56.5068 	 101.432
| 14> H 	 -45.8146 	 57.4693 	 101.412
| 15> H 	 -44.2545 	 56.845 	 101.335
| 16> C 	 -45.7004 	 55.7079 	 102.659
| 17> H 	 -46.7182 	 55.4484 	 102.457
| 18> H 	 -45.2706 	 54.6901 	 102.522
| 19> C 	 -45.5001 	 56.4369 	 103.959
| 20> H 	 -46.1241 	 57.3468 	 103.933
| 21> H 	 -45.821 	 55.8947 	 104.864
| 22> H 	 -44.4114 	 56.5999 	 103.963
| 23> S 	 -48.5735 	 52.871 	 97.4759
| 24> C 	 -48.4145 	 51.1415 	 97.2698
| 25> C 	 -47.1906 	 50.6615 	 97.6266
| 26> C 	 -46.3312 	 51.6439 	 98.192
| 27> C 	 -46.9983 	 52.8715 	 98.2228
| 28> H 	 -47.0081 	 49.6178 	 97.5551
| 29> C 	 -44.9232 	 51.3139 	 98.6785
| 30> H 	 -44.9107 	 50.8051 	 99.7019
| 31> H 	 -44.2198 	 52.1637 	 98.6481
| 32> C 	 -44.264 	 50.1672 	 97.8235
| 33> H 	 -44.6297 	 49.2299 	 98.1654
| 34> H 	 -43.1639 	 50.1891 	 98.1455
| 35> C 	 -44.4146 	 50.3959 	 96.299
| 36> H 	 -44.2058 	 51.4303 	 96.0202
| 37> H 	 -45.4186 	 50.2334 	 95.8703
| 38> H 	 -43.7072 	 49.7629 	 95.7321
| 39> H 	 -45.0229 	 57.4397 	 98.742
| 40> H 	 -49.2825 	 50.5494 	 97.0244
| 41> *
| 42>
| 43>                          ****END OF INPUT****

CARTESIAN COORDINATES (ANGSTROEM)
---------------------------------
  S    -45.975400   55.464000   97.470300
  C    -45.442000   56.476600   98.808300
  C    -45.548100   55.826400  100.050000
  C    -46.158700   54.544400   99.926600
  C    -46.355900   54.128500   98.613900
  H    -46.351300   53.864100  100.742000
  C    -45.299000   56.506800  101.432000
  H    -45.814600   57.469300  101.412000
  H    -44.254500   56.845000  101.335000
  C    -45.700400   55.707900  102.659000
  H    -46.718200   55.448400  102.457000
  H    -45.270600   54.690100  102.522000
  C    -45.500100   56.436900  103.959000
  H    -46.124100   57.346800  103.933000
  H    -45.821000   55.894700  104.864000
  H    -44.411400   56.599900  103.963000
  S    -48.573500   52.871000   97.475900
  C    -48.414500   51.141500   97.269800
  C    -47.190600   50.661500   97.626600
  C    -46.331200   51.643900   98.192000
  C    -46.998300   52.871500   98.222800
  H    -47.008100   49.617800   97.555100
  C    -44.923200   51.313900   98.678500
  H    -44.910700   50.805100   99.701900
  H    -44.219800   52.163700   98.648100
  C    -44.264000   50.167200   97.823500
  H    -44.629700   49.229900   98.165400
  H    -43.163900   50.189100   98.145500
  C    -44.414600   50.395900   96.299000
  H    -44.205800   51.430300   96.020200
  H    -45.418600   50.233400   95.870300
  H    -43.707200   49.762900   95.732100
  H    -45.022900   57.439700   98.742000
  H    -49.282500   50.549400   97.024400

 Total Charge           Charge          ....    0
 Multiplicity           Mult            ....    1
 Number of Electrons    NEL             ....  134
 Basis Dimension        Dim             ....  322

ORBITAL ENERGIES
----------------

  NO   OCC          E(Eh)            E(eV)
   0   2.0000     -88.967524     -2420.9294
   1   2.0000     -88.966802     -2420.9098
   2   2.0000     -10.327786      -281.0334
   3   2.0000     -10.323902      -280.9277
   4   2.0000     -10.313959      -280.6571
   5   2.0000     -10.310457      -280.5618
   6   2.0000     -10.304493      -280.3995
   7   2.0000     -10.301972      -280.3309
   8   2.0000     -10.300339      -280.2865
   9   2.0000     -10.293242      -280.0933
  10   2.0000     -10.292597      -280.0758
  11   2.0000     -10.291264      -280.0395
  12   2.0000     -10.289773      -279.9990
  13   2.0000     -10.285529      -279.8835
  14   2.0000     -10.285435      -279.8809
  15   2.0000     -10.276705      -279.6433
  16   2.0000      -8.081869      -219.9188
  17   2.0000      -8.080860      -219.8914
  18   2.0000      -6.040220      -164.3628
  19   2.0000      -6.039463      -164.3421
  20   2.0000      -6.036501      -164.2616
  21   2.0000      -6.035549      -164.2356
  22   2.0000      -6.032604      -164.1555
  23   2.0000      -6.031636      -164.1292
  24   2.0000      -1.002688       -27.2845
  25   2.0000      -0.977249       -26.5923
  26   2.0000      -0.912628       -24.8339
  27   2.0000      -0.904300       -24.6072
  28   2.0000      -0.867338       -23.6015
  29   2.0000      -0.845460       -23.0061
  30   2.0000      -0.842122       -22.9153
  31   2.0000      -0.812159       -22.1000
  32   2.0000      -0.782079       -21.2814
  33   2.0000      -0.769300       -20.9337
  34   2.0000      -0.713575       -19.4174
  35   2.0000      -0.695301       -18.9201
  36   2.0000      -0.688566       -18.7368
  37   2.0000      -0.655881       -17.8474
  38   2.0000      -0.637008       -17.3339
  39   2.0000      -0.616060       -16.7638
  40   2.0000      -0.599991       -16.3266
  41   2.0000      -0.568972       -15.4825
  42   2.0000      -0.562688       -15.3115
  43   2.0000      -0.551013       -14.9938
  44   2.0000      -0.531516       -14.4633
  45   2.0000      -0.519805       -14.1446
  46   2.0000      -0.517702       -14.0874
  47   2.0000      -0.503332       -13.6964
  48   2.0000      -0.498691       -13.5701
  49   2.0000      -0.494980       -13.4691
  50   2.0000      -0.489988       -13.3333
  51   2.0000      -0.477517       -12.9939
  52   2.0000      -0.474003       -12.8983
  53   2.0000      -0.465972       -12.6797
  54   2.0000      -0.457407       -12.4467
  55   2.0000      -0.448690       -12.2095
  56   2.0000      -0.444057       -12.0834
  57   2.0000      -0.435956       -11.8630
  58   2.0000      -0.429887       -11.6978
  59   2.0000      -0.424499       -11.5512
  60   2.0000      -0.420058       -11.4304
  61   2.0000      -0.414480       -11.2786
  62   2.0000      -0.412054       -11.2126
  63   2.0000      -0.340099        -9.2546
  64   2.0000      -0.331072        -9.0089
  65   2.0000      -0.323665        -8.8074
  66   2.0000      -0.294442        -8.0122
  67   0.0000       0.037861         1.0303
  68   0.0000       0.057225         1.5572
  69   0.0000       0.117808         3.2057
  70   0.0000       0.122714         3.3392
  71   0.0000       0.127735         3.4758

MULLIKEN ATOMIC CHARGES
-----------------------
   0 S :    0.114456
   1 C :   -0.111579
   2 C :   -0.087470
   3 C :    0.012140
   4 C :   -0.168225
   5 H :    0.015197
   6 C :    0.038669
   7 H :    0.028279
   8 H :    0.027876
   9 C :   -0.094534
  10 H :    0.021662
  11 H :    0.032553
  12 C :   -0.008073
  13 H :    0.038729
  14 H :    0.041782
  15 H :    0.041456
  16 S :    0.120344
  17 C :   -0.099685
  18 C :   -0.015152
  19 C :   -0.028123
  20 C :   -0.188388
  21 H :    0.012653
  22 C :    0.071832
  23 H :    0.051706
  24 H :    0.048153
  25 C :   -0.124605
  26 H :    0.024056
  27 H :    0.042397
  28 C :   -0.047896
  29 H :    0.029510
  30 H :    0.041170
  31 H :    0.035814
  32 H :    0.027701
  33 H :    0.055594
Sum of atomic charges:    0.0000000

LOEWDIN ATOMIC CHARGES
----------------------
   0 S :    0.384900
   1 C :   -0.194991
   2 C :   -0.058749
   3 C :   -0.064239
   4 C :   -0.182884
   5 H :    0.030902
   6 C :   -0.035321
   7 H :    0.030797
   8 H :    0.030910
   9 C :   -0.055254
  10 H :    0.020677
  11 H :    0.026416
  12 C :   -0.061098
  13 H :    0.032312
  14 H :    0.030904
  15 H :    0.032842
  16 S :    0.408773
  17 C :   -0.180790
  18 C :   -0.065809
  19 C :   -0.052192
  20 C :   -0.206639
  21 H :    0.028074
  22 C :   -0.034391
  23 H :    0.044231
  24 H :    0.033794
  25 C :   -0.045092
  26 H :    0.012176
  27 H :    0.035635
  28 C :   -0.074953
  29 H :    0.028044
  30 H :    0.029322
  31 H :    0.027205
  32 H :    0.018136
  33 H :    0.026349

  Mayer bond orders larger than 0.100000
B(  0-S ,  1-C ) :   1.1396 B(  0-S ,  4-C ) :   1.1370 B(  1-C ,  2-C ) :   1.6140
B(  1-C ,  4-C ) :   0.1043 B(  1-C , 32-H ) :   0.9721 B(  2-C ,  3-C ) :   1.2597
B(  2-C ,  6-C ) :   0.9906 B(  3-C ,  4-C ) :   1.5793 B(  3-C ,  5-H ) :   0.9832
B(  4-C , 20-C ) :   1.0358 B(  6-C ,  7-H ) :   0.9435 B(  6-C ,  8-H ) :   0.9321
B(  6-C ,  9-C ) :   1.0788 B(  9-C , 10-H ) :   0.9421 B(  9-C , 11-H ) :   0.9482
B(  9-C , 12-C ) :   1.0702 B( 12-C , 13-H ) :   0.9706 B( 12-C , 14-H ) :   0.9717
B( 12-C , 15-H ) :   0.9760 B( 16-S , 17-C ) :   1.1481 B( 16-S , 20-C ) :   1.1531
B( 17-C , 18-C ) :   1.6174 B( 17-C , 33-H ) :   0.9651 B( 18-C , 19-C ) :   1.2366
B( 18-C , 21-H ) :   0.9896 B( 19-C , 20-C ) :   1.5991 B( 19-C , 22-C ) :   1.0429
B( 22-C , 23-H ) :   0.9372 B( 22-C , 24-H ) :   0.9351 B( 22-C , 25-C ) :   1.0645
B( 25-C , 26-H ) :   0.9532 B( 25-C , 27-H ) :   0.9587 B( 25-C , 28-C ) :   1.0727
B( 28-C , 29-H ) :   0.9733 B( 28-C , 30-H ) :   0.9667 B( 28-C , 31-H ) :   0.9744

Dispersion correction           -0.014246355
FINAL SINGLE POINT ENERGY     -1339.875784623658

DIPOLE MOMENT
-------------
                                X             Y             Z
Electronic contribution:    -14.32803       4.67562     -16.21102
Nuclear contribution   :     14.54129      -4.94210      16.70480
                        -----------------------------------------
Total Dipole Moment    :      0.21326      -0.26648       0.49378
                        -----------------------------------------
Magnitude (a.u.)       :      0.60026
Magnitude (Debye)      :      1.52574

Rotational constants in cm-1:     0.020137     0.007455     0.006965
Rotational constants in MHz :   603.687160   223.499165   208.809078

                             ****ORCA TERMINATED NORMALLY****
TOTAL RUN TIME: 0 days 0 hours 0 minutes 28 seconds 361 msec
