                         Program Version 4.2.1 -  RELEASE  -
|  1> ! wB97X-D3 SP def2-SVP
|  2> %pal
|  3> nprocs 16
|  4> end
|  5>
|  6> * xyz 0 1
|  7> S 	 -49.0088 	 63.7039 	 136.394
|  8> C 	 -48.0064 	 62.7537 	 135.394
|  9> C 	 -47.0255 	 61.9663 	 136.125
| 10> C 	 -47.204 	 62.2871 	 137.471
| 11> C 	 -48.2352 	 63.1366 	 137.866
| 12> H 	 -46.6026 	 61.8581 	 138.261
| 13> C 	 -45.8891 	 61.1363 	 135.617
| 14> H 	 -45.5311 	 60.4817 	 136.436
| 15> H 	 -45.0502 	 61.7803 	 135.425
| 16> C 	 -46.079 	 60.2512 	 134.376
| 17> H 	 -47.001 	 59.6989 	 134.526
| 18> H 	 -46.249 	 60.8853 	 133.469
| 19> C 	 -44.8636 	 59.3574 	 134.09
| 20> H 	 -44.3725 	 59.0347 	 135.001
| 21> H 	 -45.0622 	 58.5352 	 133.331
| 22> H 	 -44.0533 	 59.8445 	 133.523
| 23> S 	 -50.2094 	 63.8737 	 139.652
| 24> C 	 -49.7579 	 64.2513 	 141.333
| 25> C 	 -48.3732 	 64.1961 	 141.441
| 26> C 	 -47.6917 	 63.8566 	 140.307
| 27> C 	 -48.5311 	 63.6621 	 139.206
| 28> H 	 -47.9491 	 64.3599 	 142.399
| 29> C 	 -46.1704 	 63.6792 	 140.247
| 30> H 	 -45.7653 	 64.5586 	 140.766
| 31> H 	 -45.8762 	 63.7253 	 139.269
| 32> C 	 -45.5091 	 62.3767 	 140.804
| 33> H 	 -46.1628 	 61.5862 	 140.548
| 34> H 	 -45.5095 	 62.4117 	 141.887
| 35> C 	 -44.0343 	 62.0959 	 140.413
| 36> H 	 -43.7461 	 61.0676 	 140.374
| 37> H 	 -43.5325 	 62.7339 	 141.203
| 38> H 	 -43.895 	 62.4544 	 139.353
| 39> H 	 -48.0016 	 62.9614 	 134.341
| 40> H 	 -50.537 	 64.5743 	 142.069
| 41> *
| 42>
| 43>                          ****END OF INPUT****

CARTESIAN COORDINATES (ANGSTROEM)
---------------------------------
  S    -49.008800   63.703900  136.394000
  C    -48.006400   62.753700  135.394000
  C    -47.025500   61.966300  136.125000
  C    -47.204000   62.287100  137.471000
  C    -48.235200   63.136600  137.866000
  H    -46.602600   61.858100  138.261000
  C    -45.889100   61.136300  135.617000
  H    -45.531100   60.481700  136.436000
  H    -45.050200   61.780300  135.425000
  C    -46.079000   60.251200  134.376000
  H    -47.001000   59.698900  134.526000
  H    -46.249000   60.885300  133.469000
  C    -44.863600   59.357400  134.090000
  H    -44.372500   59.034700  135.001000
  H    -45.062200   58.535200  133.331000
  H    -44.053300   59.844500  133.523000
  S    -50.209400   63.873700  139.652000
  C    -49.757900   64.251300  141.333000
  C    -48.373200   64.196100  141.441000
  C    -47.691700   63.856600  140.307000
  C    -48.531100   63.662100  139.206000
  H    -47.949100   64.359900  142.399000
  C    -46.170400   63.679200  140.247000
  H    -45.765300   64.558600  140.766000
  H    -45.876200   63.725300  139.269000
  C    -45.509100   62.376700  140.804000
  H    -46.162800   61.586200  140.548000
  H    -45.509500   62.411700  141.887000
  C    -44.034300   62.095900  140.413000
  H    -43.746100   61.067600  140.374000
  H    -43.532500   62.733900  141.203000
  H    -43.895000   62.454400  139.353000
  H    -48.001600   62.961400  134.341000
  H    -50.537000   64.574300  142.069000

 Total Charge           Charge          ....    0
 Multiplicity           Mult            ....    1
 Number of Electrons    NEL             ....  134
 Basis Dimension        Dim             ....  322

ORBITAL ENERGIES
----------------

  NO   OCC          E(Eh)            E(eV)
   0   2.0000     -88.969720     -2420.9892
   1   2.0000     -88.965776     -2420.8818
   2   2.0000     -10.330345      -281.1030
   3   2.0000     -10.330158      -281.0979
   4   2.0000     -10.324039      -280.9314
   5   2.0000     -10.318958      -280.7931
   6   2.0000     -10.308509      -280.5088
   7   2.0000     -10.299980      -280.2767
   8   2.0000     -10.296360      -280.1782
   9   2.0000     -10.292943      -280.0852
  10   2.0000     -10.291778      -280.0535
  11   2.0000     -10.289976      -280.0045
  12   2.0000     -10.289100      -279.9806
  13   2.0000     -10.287261      -279.9306
  14   2.0000     -10.287057      -279.9251
  15   2.0000     -10.284598      -279.8581
  16   2.0000      -8.084873      -220.0006
  17   2.0000      -8.080160      -219.8723
  18   2.0000      -6.043136      -164.4421
  19   2.0000      -6.039089      -164.3320
  20   2.0000      -6.038558      -164.3175
  21   2.0000      -6.036111      -164.2509
  22   2.0000      -6.034666      -164.2116
  23   2.0000      -6.031117      -164.1150
  24   2.0000      -1.007669       -27.4201
  25   2.0000      -0.986790       -26.8519
  26   2.0000      -0.914163       -24.8756
  27   2.0000      -0.906094       -24.6561
  28   2.0000      -0.867547       -23.6072
  29   2.0000      -0.857510       -23.3340
  30   2.0000      -0.852302       -23.1923
  31   2.0000      -0.811464       -22.0811
  32   2.0000      -0.784288       -21.3416
  33   2.0000      -0.770682       -20.9713
  34   2.0000      -0.709338       -19.3021
  35   2.0000      -0.701324       -19.0840
  36   2.0000      -0.692754       -18.8508
  37   2.0000      -0.666579       -18.1385
  38   2.0000      -0.644378       -17.5344
  39   2.0000      -0.621207       -16.9039
  40   2.0000      -0.598066       -16.2742
  41   2.0000      -0.574322       -15.6281
  42   2.0000      -0.572767       -15.5858
  43   2.0000      -0.564205       -15.3528
  44   2.0000      -0.530767       -14.4429
  45   2.0000      -0.522008       -14.2046
  46   2.0000      -0.518312       -14.1040
  47   2.0000      -0.517341       -14.0776
  48   2.0000      -0.504012       -13.7149
  49   2.0000      -0.493102       -13.4180
  50   2.0000      -0.489843       -13.3293
  51   2.0000      -0.483042       -13.1443
  52   2.0000      -0.470135       -12.7930
  53   2.0000      -0.468131       -12.7385
  54   2.0000      -0.460466       -12.5299
  55   2.0000      -0.449568       -12.2334
  56   2.0000      -0.444799       -12.1036
  57   2.0000      -0.439293       -11.9538
  58   2.0000      -0.435206       -11.8426
  59   2.0000      -0.426497       -11.6056
  60   2.0000      -0.421445       -11.4681
  61   2.0000      -0.416191       -11.3251
  62   2.0000      -0.414203       -11.2710
  63   2.0000      -0.353749        -9.6260
  64   2.0000      -0.336770        -9.1640
  65   2.0000      -0.332383        -9.0446
  66   2.0000      -0.280543        -7.6340
  67   0.0000       0.021168         0.5760
  68   0.0000       0.069652         1.8953
  69   0.0000       0.109589         2.9821
  70   0.0000       0.121194         3.2979
  71   0.0000       0.125494         3.4149

MULLIKEN ATOMIC CHARGES
-----------------------
   0 S :    0.123999
   1 C :   -0.131452
   2 C :   -0.045411
   3 C :   -0.013046
   4 C :   -0.126069
   5 H :   -0.011159
   6 C :    0.037486
   7 H :    0.025564
   8 H :    0.038275
   9 C :   -0.072436
  10 H :    0.037072
  11 H :    0.034070
  12 C :   -0.065207
  13 H :    0.030156
  14 H :    0.045888
  15 H :    0.026275
  16 S :    0.093818
  17 C :   -0.127141
  18 C :   -0.017407
  19 C :   -0.037431
  20 C :   -0.137871
  21 H :    0.003947
  22 C :    0.104862
  23 H :    0.024381
  24 H :   -0.008465
  25 C :   -0.081412
  26 H :    0.023902
  27 H :    0.019975
  28 C :   -0.060532
  29 H :    0.041964
  30 H :    0.053458
  31 H :    0.033286
  32 H :    0.054035
  33 H :    0.082626
Sum of atomic charges:    0.0000000

LOEWDIN ATOMIC CHARGES
----------------------
   0 S :    0.437067
   1 C :   -0.209087
   2 C :   -0.061105
   3 C :   -0.065771
   4 C :   -0.202685
   5 H :    0.026816
   6 C :   -0.036535
   7 H :    0.033597
   8 H :    0.033915
   9 C :   -0.042526
  10 H :    0.024962
  11 H :    0.028210
  12 C :   -0.076565
  13 H :    0.022358
  14 H :    0.038365
  15 H :    0.027449
  16 S :    0.396718
  17 C :   -0.184236
  18 C :   -0.066988
  19 C :   -0.062458
  20 C :   -0.191711
  21 H :    0.028489
  22 C :   -0.020460
  23 H :    0.032576
  24 H :    0.012497
  25 C :   -0.043058
  26 H :    0.013038
  27 H :    0.019940
  28 C :   -0.067836
  29 H :    0.024966
  30 H :    0.039920
  31 H :    0.028012
  32 H :    0.021619
  33 H :    0.040506

  Mayer bond orders larger than 0.100000
B(  0-S ,  1-C ) :   1.2024 B(  0-S ,  4-C ) :   1.1610 B(  1-C ,  2-C ) :   1.4923
B(  1-C ,  4-C ) :   0.1138 B(  1-C , 32-H ) :   0.9709 B(  2-C ,  3-C ) :   1.3298
B(  2-C ,  6-C ) :   1.0304 B(  3-C ,  4-C ) :   1.5210 B(  3-C ,  5-H ) :   0.9914
B(  4-C , 20-C ) :   1.0382 B(  6-C ,  7-H ) :   0.9397 B(  6-C ,  8-H ) :   0.9308
B(  6-C ,  9-C ) :   1.0633 B(  9-C , 10-H ) :   0.9637 B(  9-C , 11-H ) :   0.9506
B(  9-C , 12-C ) :   1.0766 B( 12-C , 13-H ) :   0.9760 B( 12-C , 14-H ) :   0.9726
B( 12-C , 15-H ) :   0.9720 B( 16-S , 17-C ) :   1.1579 B( 16-S , 20-C ) :   1.1617
B( 17-C , 18-C ) :   1.5524 B( 17-C , 20-C ) :   0.1169 B( 17-C , 33-H ) :   0.9654
B( 18-C , 19-C ) :   1.2914 B( 18-C , 21-H ) :   1.0010 B( 19-C , 20-C ) :   1.5486
B( 19-C , 22-C ) :   1.0425 B( 22-C , 23-H ) :   0.9304 B( 22-C , 24-H ) :   0.9269
B( 22-C , 25-C ) :   1.0531 B( 25-C , 26-H ) :   0.9545 B( 25-C , 27-H ) :   0.9593
B( 25-C , 28-C ) :   1.0624 B( 28-C , 29-H ) :   0.9763 B( 28-C , 30-H ) :   0.9829
B( 28-C , 31-H ) :   0.9761

Dispersion correction           -0.013964784
FINAL SINGLE POINT ENERGY     -1339.868626652917

DIPOLE MOMENT
-------------
                                X             Y             Z
Electronic contribution:    -28.55172      16.27113       3.91275
Nuclear contribution   :     29.25475     -16.46869      -3.85512
                        -----------------------------------------
Total Dipole Moment    :      0.70304      -0.19756       0.05763
                        -----------------------------------------
Magnitude (a.u.)       :      0.73254
Magnitude (Debye)      :      1.86196

Rotational constants in cm-1:     0.018745     0.008426     0.006094
Rotational constants in MHz :   561.962908   252.598279   182.698403

                             ****ORCA TERMINATED NORMALLY****
TOTAL RUN TIME: 0 days 0 hours 0 minutes 34 seconds 576 msec
