                         Program Version 4.2.1 -  RELEASE  -
|  1> ! wB97X-D3 SP def2-SVP
|  2> %pal
|  3> nprocs 16
|  4> end
|  5>
|  6> * xyz 0 1
|  7> S 	 -69.3744 	 41.3313 	 120.908
|  8> C 	 -69.9219 	 41.785 	 122.584
|  9> C 	 -69.3835 	 40.9024 	 123.518
| 10> C 	 -68.7034 	 39.8155 	 122.858
| 11> C 	 -68.822 	 39.7779 	 121.494
| 12> H 	 -68.1664 	 39.0714 	 123.381
| 13> C 	 -69.4731 	 41.0997 	 125.04
| 14> H 	 -70.3505 	 41.8058 	 125.186
| 15> H 	 -68.4819 	 41.6251 	 125.406
| 16> C 	 -69.8943 	 39.896 	 125.951
| 17> H 	 -70.8677 	 39.3387 	 125.632
| 18> H 	 -69.2058 	 39.1665 	 125.848
| 19> C 	 -70.0044 	 40.2544 	 127.468
| 20> H 	 -70.478 	 39.4473 	 127.96
| 21> H 	 -69.0352 	 40.3474 	 127.869
| 22> H 	 -70.5168 	 41.2217 	 127.608
| 23> S 	 -67.0486 	 39.5359 	 119.54
| 24> C 	 -66.8705 	 38.0588 	 118.736
| 25> C 	 -67.5032 	 36.9927 	 119.353
| 26> C 	 -68.3438 	 37.4657 	 120.402
| 27> C 	 -68.1757 	 38.8435 	 120.581
| 28> H 	 -67.4025 	 35.8931 	 119.006
| 29> C 	 -69.3976 	 36.576 	 121.089
| 30> H 	 -69.76 	 35.8829 	 120.27
| 31> H 	 -70.2159 	 37.2162 	 121.535
| 32> C 	 -68.8009 	 35.5855 	 122.14
| 33> H 	 -68.1642 	 34.847 	 121.629
| 34> H 	 -69.6865 	 34.9228 	 122.508
| 35> C 	 -68.0856 	 36.1595 	 123.325
| 36> H 	 -67.8312 	 35.3867 	 124.079
| 37> H 	 -68.6652 	 36.8868 	 123.901
| 38> H 	 -67.1413 	 36.6633 	 123.023
| 39> H 	 -70.4685 	 42.7053 	 122.758
| 40> H 	 -66.4046 	 38.0308 	 117.762
| 41> *
| 42>
| 43>                          ****END OF INPUT****

CARTESIAN COORDINATES (ANGSTROEM)
---------------------------------
  S    -69.374400   41.331300  120.908000
  C    -69.921900   41.785000  122.584000
  C    -69.383500   40.902400  123.518000
  C    -68.703400   39.815500  122.858000
  C    -68.822000   39.777900  121.494000
  H    -68.166400   39.071400  123.381000
  C    -69.473100   41.099700  125.040000
  H    -70.350500   41.805800  125.186000
  H    -68.481900   41.625100  125.406000
  C    -69.894300   39.896000  125.951000
  H    -70.867700   39.338700  125.632000
  H    -69.205800   39.166500  125.848000
  C    -70.004400   40.254400  127.468000
  H    -70.478000   39.447300  127.960000
  H    -69.035200   40.347400  127.869000
  H    -70.516800   41.221700  127.608000
  S    -67.048600   39.535900  119.540000
  C    -66.870500   38.058800  118.736000
  C    -67.503200   36.992700  119.353000
  C    -68.343800   37.465700  120.402000
  C    -68.175700   38.843500  120.581000
  H    -67.402500   35.893100  119.006000
  C    -69.397600   36.576000  121.089000
  H    -69.760000   35.882900  120.270000
  H    -70.215900   37.216200  121.535000
  C    -68.800900   35.585500  122.140000
  H    -68.164200   34.847000  121.629000
  H    -69.686500   34.922800  122.508000
  C    -68.085600   36.159500  123.325000
  H    -67.831200   35.386700  124.079000
  H    -68.665200   36.886800  123.901000
  H    -67.141300   36.663300  123.023000
  H    -70.468500   42.705300  122.758000
  H    -66.404600   38.030800  117.762000

 Total Charge           Charge          ....    0
 Multiplicity           Mult            ....    1
 Number of Electrons    NEL             ....  134
 Basis Dimension        Dim             ....  322

ORBITAL ENERGIES
----------------

  NO   OCC          E(Eh)            E(eV)
   0   2.0000     -88.965465     -2420.8734
   1   2.0000     -88.962256     -2420.7861
   2   2.0000     -10.326231      -280.9910
   3   2.0000     -10.320989      -280.8484
   4   2.0000     -10.317733      -280.7598
   5   2.0000     -10.312268      -280.6111
   6   2.0000     -10.310450      -280.5616
   7   2.0000     -10.308182      -280.4999
   8   2.0000     -10.303366      -280.3689
   9   2.0000     -10.302932      -280.3570
  10   2.0000     -10.300801      -280.2990
  11   2.0000     -10.294931      -280.1393
  12   2.0000     -10.290787      -280.0265
  13   2.0000     -10.290166      -280.0096
  14   2.0000     -10.279561      -279.7211
  15   2.0000     -10.276877      -279.6480
  16   2.0000      -8.082760      -219.9431
  17   2.0000      -8.076289      -219.7670
  18   2.0000      -6.040917      -164.3817
  19   2.0000      -6.036919      -164.2729
  20   2.0000      -6.034860      -164.2169
  21   2.0000      -6.033715      -164.1857
  22   2.0000      -6.031128      -164.1153
  23   2.0000      -6.026778      -163.9970
  24   2.0000      -1.015688       -27.6383
  25   2.0000      -0.981988       -26.7213
  26   2.0000      -0.905370       -24.6364
  27   2.0000      -0.903135       -24.5756
  28   2.0000      -0.869288       -23.6545
  29   2.0000      -0.852056       -23.1856
  30   2.0000      -0.840868       -22.8812
  31   2.0000      -0.812645       -22.1132
  32   2.0000      -0.781748       -21.2725
  33   2.0000      -0.770633       -20.9700
  34   2.0000      -0.707683       -19.2570
  35   2.0000      -0.693282       -18.8652
  36   2.0000      -0.687820       -18.7165
  37   2.0000      -0.655355       -17.8331
  38   2.0000      -0.640540       -17.4300
  39   2.0000      -0.620216       -16.8769
  40   2.0000      -0.593687       -16.1551
  41   2.0000      -0.560410       -15.2495
  42   2.0000      -0.557959       -15.1828
  43   2.0000      -0.545571       -14.8457
  44   2.0000      -0.540381       -14.7045
  45   2.0000      -0.524859       -14.2822
  46   2.0000      -0.515748       -14.0342
  47   2.0000      -0.508282       -13.8311
  48   2.0000      -0.501789       -13.6544
  49   2.0000      -0.496946       -13.5226
  50   2.0000      -0.492312       -13.3965
  51   2.0000      -0.479407       -13.0453
  52   2.0000      -0.471726       -12.8363
  53   2.0000      -0.463376       -12.6091
  54   2.0000      -0.455164       -12.3856
  55   2.0000      -0.452779       -12.3207
  56   2.0000      -0.446997       -12.1634
  57   2.0000      -0.436295       -11.8722
  58   2.0000      -0.434656       -11.8276
  59   2.0000      -0.425930       -11.5901
  60   2.0000      -0.420762       -11.4495
  61   2.0000      -0.413632       -11.2555
  62   2.0000      -0.408744       -11.1225
  63   2.0000      -0.339881        -9.2486
  64   2.0000      -0.331737        -9.0270
  65   2.0000      -0.326015        -8.8713
  66   2.0000      -0.293224        -7.9790
  67   0.0000       0.030329         0.8253
  68   0.0000       0.067433         1.8350
  69   0.0000       0.104046         2.8312
  70   0.0000       0.118985         3.2377
  71   0.0000       0.134139         3.6501

MULLIKEN ATOMIC CHARGES
-----------------------
   0 S :    0.077788
   1 C :   -0.132004
   2 C :   -0.051989
   3 C :    0.056335
   4 C :   -0.133926
   5 H :   -0.017313
   6 C :   -0.003733
   7 H :    0.035417
   8 H :    0.070519
   9 C :   -0.088492
  10 H :    0.043116
  11 H :    0.005262
  12 C :   -0.019551
  13 H :    0.031997
  14 H :    0.020803
  15 H :    0.035306
  16 S :    0.136284
  17 C :   -0.107568
  18 C :   -0.059430
  19 C :   -0.035981
  20 C :   -0.184759
  21 H :    0.052036
  22 C :    0.051350
  23 H :    0.038557
  24 H :    0.054783
  25 C :   -0.108839
  26 H :    0.027683
  27 H :    0.038181
  28 C :   -0.056830
  29 H :    0.036078
  30 H :    0.028295
  31 H :    0.049832
  32 H :    0.052801
  33 H :    0.057991
Sum of atomic charges:   -0.0000000

LOEWDIN ATOMIC CHARGES
----------------------
   0 S :    0.366240
   1 C :   -0.170469
   2 C :   -0.063091
   3 C :   -0.056599
   4 C :   -0.191301
   5 H :    0.021092
   6 C :   -0.043583
   7 H :    0.036387
   8 H :    0.049272
   9 C :   -0.042587
  10 H :    0.036280
  11 H :    0.000770
  12 C :   -0.054252
  13 H :    0.024402
  14 H :    0.019242
  15 H :    0.028133
  16 S :    0.461691
  17 C :   -0.206349
  18 C :   -0.080166
  19 C :   -0.062760
  20 C :   -0.227862
  21 H :    0.048198
  22 C :   -0.032942
  23 H :    0.040897
  24 H :    0.039735
  25 C :   -0.052448
  26 H :    0.022283
  27 H :    0.032068
  28 C :   -0.076957
  29 H :    0.032076
  30 H :    0.020966
  31 H :    0.029527
  32 H :    0.026751
  33 H :    0.025353

  Mayer bond orders larger than 0.100000
B(  0-S ,  1-C ) :   1.1217 B(  0-S ,  4-C ) :   1.1359 B(  1-C ,  2-C ) :   1.6167
B(  1-C , 32-H ) :   0.9723 B(  2-C ,  3-C ) :   1.2211 B(  2-C ,  6-C ) :   1.0170
B(  3-C ,  4-C ) :   1.5862 B(  3-C ,  5-H ) :   0.9977 B(  4-C , 20-C ) :   1.0206
B(  6-C ,  7-H ) :   0.9486 B(  6-C ,  8-H ) :   0.9385 B(  6-C ,  9-C ) :   1.0468
B(  9-C , 10-H ) :   0.9614 B(  9-C , 11-H ) :   0.9542 B(  9-C , 12-C ) :   1.0813
B( 12-C , 13-H ) :   0.9745 B( 12-C , 14-H ) :   0.9752 B( 12-C , 15-H ) :   0.9784
B( 16-S , 17-C ) :   1.1810 B( 16-S , 20-C ) :   1.1808 B( 17-C , 18-C ) :   1.5821
B( 17-C , 33-H ) :   0.9694 B( 18-C , 19-C ) :   1.2663 B( 18-C , 21-H ) :   0.9756
B( 19-C , 20-C ) :   1.5750 B( 19-C , 22-C ) :   1.0341 B( 22-C , 23-H ) :   0.9359
B( 22-C , 24-H ) :   0.9404 B( 22-C , 25-C ) :   1.0646 B( 25-C , 26-H ) :   0.9557
B( 25-C , 27-H ) :   0.9540 B( 25-C , 28-C ) :   1.0843 B( 28-C , 29-H ) :   0.9659
B( 28-C , 30-H ) :   0.9680 B( 28-C , 31-H ) :   0.9665

Dispersion correction           -0.014807132
FINAL SINGLE POINT ENERGY     -1339.862999279224

DIPOLE MOMENT
-------------
                                X             Y             Z
Electronic contribution:      6.29927      13.68645     -27.54543
Nuclear contribution   :     -6.29145     -14.05650      28.03447
                        -----------------------------------------
Total Dipole Moment    :      0.00782      -0.37005       0.48904
                        -----------------------------------------
Magnitude (a.u.)       :      0.61332
Magnitude (Debye)      :      1.55892

Rotational constants in cm-1:     0.018958     0.009167     0.006699
Rotational constants in MHz :   568.331793   274.834498   200.822026

                             ****ORCA TERMINATED NORMALLY****
TOTAL RUN TIME: 0 days 0 hours 0 minutes 34 seconds 748 msec
