                         Program Version 4.2.1 -  RELEASE  -
|  1> ! wB97X-D3 SP def2-SVP
|  2> %pal
|  3> nprocs 16
|  4> end
|  5>
|  6> * xyz 0 1
|  7> S 	 -92.7897 	 50.2857 	 127.457
|  8> C 	 -93.7046 	 49.3403 	 126.304
|  9> C 	 -93.037 	 48.1973 	 125.958
| 10> C 	 -91.8298 	 48.0092 	 126.645
| 11> C 	 -91.3484 	 49.1409 	 127.266
| 12> H 	 -91.222 	 47.0768 	 126.601
| 13> C 	 -93.5805 	 47.1347 	 125.05
| 14> H 	 -93.9261 	 47.5865 	 124.114
| 15> H 	 -94.5116 	 46.8596 	 125.604
| 16> C 	 -92.8006 	 45.8124 	 124.769
| 17> H 	 -93.3012 	 45.3535 	 123.938
| 18> H 	 -91.7569 	 46.0698 	 124.554
| 19> C 	 -92.7709 	 44.8187 	 125.992
| 20> H 	 -93.7782 	 44.5489 	 126.328
| 21> H 	 -92.2311 	 43.9181 	 125.639
| 22> H 	 -92.1966 	 45.1427 	 126.829
| 23> S 	 -90.059 	 49.7108 	 129.676
| 24> C 	 -88.2832 	 49.9821 	 129.64
| 25> C 	 -87.8428 	 49.8969 	 128.31
| 26> C 	 -88.8195 	 49.3893 	 127.355
| 27> C 	 -90.0683 	 49.3915 	 127.907
| 28> H 	 -86.828 	 50.0273 	 128.084
| 29> C 	 -88.478 	 49.1764 	 125.826
| 30> H 	 -88.7754 	 48.1854 	 125.723
| 31> H 	 -87.4 	 48.9926 	 125.708
| 32> C 	 -89.1003 	 49.9348 	 124.668
| 33> H 	 -88.7554 	 51.0187 	 124.842
| 34> H 	 -90.2084 	 49.9533 	 124.811
| 35> C 	 -88.5475 	 49.5598 	 123.298
| 36> H 	 -88.8689 	 48.5777 	 122.989
| 37> H 	 -87.464 	 49.4154 	 123.272
| 38> H 	 -88.6612 	 50.264 	 122.501
| 39> H 	 -94.6975 	 49.5433 	 126.013
| 40> H 	 -87.7408 	 50.4405 	 130.494
| 41> *
| 42>
| 43>                          ****END OF INPUT****

CARTESIAN COORDINATES (ANGSTROEM)
---------------------------------
  S    -92.789700   50.285700  127.457000
  C    -93.704600   49.340300  126.304000
  C    -93.037000   48.197300  125.958000
  C    -91.829800   48.009200  126.645000
  C    -91.348400   49.140900  127.266000
  H    -91.222000   47.076800  126.601000
  C    -93.580500   47.134700  125.050000
  H    -93.926100   47.586500  124.114000
  H    -94.511600   46.859600  125.604000
  C    -92.800600   45.812400  124.769000
  H    -93.301200   45.353500  123.938000
  H    -91.756900   46.069800  124.554000
  C    -92.770900   44.818700  125.992000
  H    -93.778200   44.548900  126.328000
  H    -92.231100   43.918100  125.639000
  H    -92.196600   45.142700  126.829000
  S    -90.059000   49.710800  129.676000
  C    -88.283200   49.982100  129.640000
  C    -87.842800   49.896900  128.310000
  C    -88.819500   49.389300  127.355000
  C    -90.068300   49.391500  127.907000
  H    -86.828000   50.027300  128.084000
  C    -88.478000   49.176400  125.826000
  H    -88.775400   48.185400  125.723000
  H    -87.400000   48.992600  125.708000
  C    -89.100300   49.934800  124.668000
  H    -88.755400   51.018700  124.842000
  H    -90.208400   49.953300  124.811000
  C    -88.547500   49.559800  123.298000
  H    -88.868900   48.577700  122.989000
  H    -87.464000   49.415400  123.272000
  H    -88.661200   50.264000  122.501000
  H    -94.697500   49.543300  126.013000
  H    -87.740800   50.440500  130.494000

 Total Charge           Charge          ....    0
 Multiplicity           Mult            ....    1
 Number of Electrons    NEL             ....  134
 Basis Dimension        Dim             ....  322

ORBITAL ENERGIES
----------------

  NO   OCC          E(Eh)            E(eV)
   0   2.0000     -88.964260     -2420.8406
   1   2.0000     -88.963400     -2420.8172
   2   2.0000     -10.334922      -281.2275
   3   2.0000     -10.329843      -281.0893
   4   2.0000     -10.327019      -281.0125
   5   2.0000     -10.311861      -280.6000
   6   2.0000     -10.308946      -280.5207
   7   2.0000     -10.298069      -280.2247
   8   2.0000     -10.296341      -280.1777
   9   2.0000     -10.296014      -280.1688
  10   2.0000     -10.295921      -280.1662
  11   2.0000     -10.294096      -280.1166
  12   2.0000     -10.293660      -280.1047
  13   2.0000     -10.291192      -280.0376
  14   2.0000     -10.283101      -279.8174
  15   2.0000     -10.277674      -279.6697
  16   2.0000      -8.077763      -219.8071
  17   2.0000      -8.076798      -219.7808
  18   2.0000      -6.036492      -164.2613
  19   2.0000      -6.035435      -164.2325
  20   2.0000      -6.032517      -164.1531
  21   2.0000      -6.031622      -164.1288
  22   2.0000      -6.028283      -164.0379
  23   2.0000      -6.027358      -164.0127
  24   2.0000      -0.998777       -27.1781
  25   2.0000      -0.976995       -26.5854
  26   2.0000      -0.905719       -24.6459
  27   2.0000      -0.905062       -24.6280
  28   2.0000      -0.868307       -23.6278
  29   2.0000      -0.847818       -23.0703
  30   2.0000      -0.841337       -22.8939
  31   2.0000      -0.816210       -22.2102
  32   2.0000      -0.786761       -21.4088
  33   2.0000      -0.772480       -21.0203
  34   2.0000      -0.713668       -19.4199
  35   2.0000      -0.700617       -19.0648
  36   2.0000      -0.692976       -18.8568
  37   2.0000      -0.662766       -18.0348
  38   2.0000      -0.637498       -17.3472
  39   2.0000      -0.624169       -16.9845
  40   2.0000      -0.591338       -16.0911
  41   2.0000      -0.564617       -15.3640
  42   2.0000      -0.559522       -15.2254
  43   2.0000      -0.545494       -14.8436
  44   2.0000      -0.533069       -14.5056
  45   2.0000      -0.525286       -14.2938
  46   2.0000      -0.521381       -14.1875
  47   2.0000      -0.513559       -13.9747
  48   2.0000      -0.504866       -13.7381
  49   2.0000      -0.501820       -13.6552
  50   2.0000      -0.488502       -13.2928
  51   2.0000      -0.481460       -13.1012
  52   2.0000      -0.475413       -12.9367
  53   2.0000      -0.460564       -12.5326
  54   2.0000      -0.456621       -12.4253
  55   2.0000      -0.452868       -12.3232
  56   2.0000      -0.440742       -11.9932
  57   2.0000      -0.434961       -11.8359
  58   2.0000      -0.429339       -11.6829
  59   2.0000      -0.425127       -11.5683
  60   2.0000      -0.424494       -11.5511
  61   2.0000      -0.417582       -11.3630
  62   2.0000      -0.400574       -10.9002
  63   2.0000      -0.342738        -9.3264
  64   2.0000      -0.330988        -9.0066
  65   2.0000      -0.324262        -8.8236
  66   2.0000      -0.292705        -7.9649
  67   0.0000       0.021639         0.5888
  68   0.0000       0.058674         1.5966
  69   0.0000       0.106272         2.8918
  70   0.0000       0.120243         3.2720
  71   0.0000       0.124409         3.3854

MULLIKEN ATOMIC CHARGES
-----------------------
   0 S :    0.092652
   1 C :   -0.104406
   2 C :   -0.075961
   3 C :    0.024451
   4 C :   -0.174060
   5 H :    0.034151
   6 C :    0.022718
   7 H :    0.038779
   8 H :    0.036216
   9 C :   -0.053372
  10 H :    0.034941
  11 H :    0.033411
  12 C :   -0.067807
  13 H :    0.036407
  14 H :    0.037227
  15 H :    0.033258
  16 S :    0.092264
  17 C :   -0.113376
  18 C :   -0.010420
  19 C :   -0.036279
  20 C :   -0.165178
  21 H :    0.004982
  22 C :    0.088400
  23 H :   -0.006413
  24 H :    0.006200
  25 C :   -0.058017
  26 H :    0.035339
  27 H :    0.060179
  28 C :   -0.029607
  29 H :    0.020013
  30 H :    0.015969
  31 H :    0.035060
  32 H :    0.028211
  33 H :    0.084065
Sum of atomic charges:   -0.0000000

LOEWDIN ATOMIC CHARGES
----------------------
   0 S :    0.363133
   1 C :   -0.187689
   2 C :   -0.071680
   3 C :   -0.061675
   4 C :   -0.163365
   5 H :    0.038651
   6 C :   -0.042277
   7 H :    0.033324
   8 H :    0.039363
   9 C :   -0.035037
  10 H :    0.028169
  11 H :    0.023445
  12 C :   -0.065621
  13 H :    0.025622
  14 H :    0.031546
  15 H :    0.018589
  16 S :    0.363961
  17 C :   -0.178768
  18 C :   -0.059016
  19 C :   -0.046472
  20 C :   -0.184591
  21 H :    0.020844
  22 C :   -0.038007
  23 H :    0.021674
  24 H :    0.031133
  25 C :   -0.044998
  26 H :    0.032048
  27 H :    0.035840
  28 C :   -0.066429
  29 H :    0.021679
  30 H :    0.028391
  31 H :    0.027497
  32 H :    0.020698
  33 H :    0.040016

  Mayer bond orders larger than 0.100000
B(  0-S ,  1-C ) :   1.1307 B(  0-S ,  4-C ) :   1.1178 B(  1-C ,  2-C ) :   1.6179
B(  1-C ,  4-C ) :   0.1082 B(  1-C , 32-H ) :   0.9772 B(  2-C ,  3-C ) :   1.2514
B(  2-C ,  6-C ) :   0.9960 B(  3-C ,  4-C ) :   1.5849 B(  3-C ,  5-H ) :   0.9694
B(  4-C , 20-C ) :   1.0602 B(  6-C ,  7-H ) :   0.9432 B(  6-C ,  8-H ) :   0.9365
B(  6-C ,  9-C ) :   1.0786 B(  9-C , 10-H ) :   0.9528 B(  9-C , 11-H ) :   0.9544
B(  9-C , 12-C ) :   1.0722 B( 12-C , 13-H ) :   0.9741 B( 12-C , 14-H ) :   0.9736
B( 12-C , 15-H ) :   0.9781 B( 16-S , 17-C ) :   1.1274 B( 16-S , 20-C ) :   1.1262
B( 17-C , 18-C ) :   1.6329 B( 17-C , 33-H ) :   0.9615 B( 18-C , 19-C ) :   1.2161
B( 18-C , 21-H ) :   0.9885 B( 19-C , 20-C ) :   1.6332 B( 19-C , 22-C ) :   1.0247
B( 22-C , 23-H ) :   0.9150 B( 22-C , 24-H ) :   0.9311 B( 22-C , 25-C ) :   1.0566
B( 25-C , 26-H ) :   0.9564 B( 25-C , 27-H ) :   0.9506 B( 25-C , 28-C ) :   1.0704
B( 28-C , 29-H ) :   0.9749 B( 28-C , 30-H ) :   0.9696 B( 28-C , 31-H ) :   0.9748

Dispersion correction           -0.014776285
FINAL SINGLE POINT ENERGY     -1339.852742042988

DIPOLE MOMENT
-------------
                                X             Y             Z
Electronic contribution:     -3.54539      15.41874      23.28647
Nuclear contribution   :      3.73621     -15.90293     -23.90041
                        -----------------------------------------
Total Dipole Moment    :      0.19082      -0.48419      -0.61394
                        -----------------------------------------
Magnitude (a.u.)       :      0.80484
Magnitude (Debye)      :      2.04574

Rotational constants in cm-1:     0.016069     0.009636     0.007871
Rotational constants in MHz :   481.739782   288.871539   235.969292

                             ****ORCA TERMINATED NORMALLY****
TOTAL RUN TIME: 0 days 0 hours 0 minutes 32 seconds 327 msec
