                         Program Version 4.2.1 -  RELEASE  -
|  1> ! wB97X-D3 SP def2-SVP
|  2> %pal
|  3> nprocs 16
|  4> end
|  5>
|  6> * xyz 0 1
|  7> S 	 52.572 	 -2.88039 	 87.1493
|  8> C 	 53.1568 	 -3.14158 	 88.7513
|  9> C 	 53.0255 	 -2.00498 	 89.5354
| 10> C 	 52.7452 	 -0.839379 	 88.7588
| 11> C 	 52.5735 	 -1.17188 	 87.4121
| 12> H 	 52.6215 	 0.184761 	 89.1559
| 13> C 	 53.353 	 -1.97882 	 91.0189
| 14> H 	 54.2002 	 -1.2595 	 91.2354
| 15> H 	 53.7985 	 -2.90989 	 91.435
| 16> C 	 52.1693 	 -1.47389 	 91.8729
| 17> H 	 51.8424 	 -0.407164 	 91.553
| 18> H 	 51.2269 	 -1.95987 	 91.5368
| 19> C 	 52.3706 	 -1.75581 	 93.3404
| 20> H 	 53.2872 	 -1.28904 	 93.6556
| 21> H 	 51.6411 	 -1.32222 	 93.9136
| 22> H 	 52.4071 	 -2.83785 	 93.555
| 23> S 	 50.4497 	 -0.391782 	 85.9992
| 24> C 	 50.5755 	 0.83671 	 84.7836
| 25> C 	 51.7779 	 1.6016 	 84.8843
| 26> C 	 52.6767 	 0.918635 	 85.8579
| 27> C 	 52.0975 	 -0.201019 	 86.405
| 28> H 	 51.9643 	 2.37203 	 84.2296
| 29> C 	 54.0728 	 1.36038 	 86.0239
| 30> H 	 54.3732 	 1.11822 	 87.078
| 31> H 	 54.2192 	 2.44687 	 85.9923
| 32> C 	 55.0768 	 0.697543 	 84.9937
| 33> H 	 54.658 	 0.9624 	 83.9877
| 34> H 	 54.8741 	 -0.370572 	 85.1195
| 35> C 	 56.4569 	 1.08842 	 85.1327
| 36> H 	 57.0672 	 0.5432 	 84.3784
| 37> H 	 56.8123 	 0.918938 	 86.1382
| 38> H 	 56.6981 	 2.06484 	 84.9773
| 39> H 	 53.2662 	 -4.05059 	 89.2424
| 40> H 	 49.759 	 1.1216 	 84.1945
| 41> *
| 42>
| 43>                          ****END OF INPUT****

CARTESIAN COORDINATES (ANGSTROEM)
---------------------------------
  S     52.572000   -2.880390   87.149300
  C     53.156800   -3.141580   88.751300
  C     53.025500   -2.004980   89.535400
  C     52.745200   -0.839379   88.758800
  C     52.573500   -1.171880   87.412100
  H     52.621500    0.184761   89.155900
  C     53.353000   -1.978820   91.018900
  H     54.200200   -1.259500   91.235400
  H     53.798500   -2.909890   91.435000
  C     52.169300   -1.473890   91.872900
  H     51.842400   -0.407164   91.553000
  H     51.226900   -1.959870   91.536800
  C     52.370600   -1.755810   93.340400
  H     53.287200   -1.289040   93.655600
  H     51.641100   -1.322220   93.913600
  H     52.407100   -2.837850   93.555000
  S     50.449700   -0.391782   85.999200
  C     50.575500    0.836710   84.783600
  C     51.777900    1.601600   84.884300
  C     52.676700    0.918635   85.857900
  C     52.097500   -0.201019   86.405000
  H     51.964300    2.372030   84.229600
  C     54.072800    1.360380   86.023900
  H     54.373200    1.118220   87.078000
  H     54.219200    2.446870   85.992300
  C     55.076800    0.697543   84.993700
  H     54.658000    0.962400   83.987700
  H     54.874100   -0.370572   85.119500
  C     56.456900    1.088420   85.132700
  H     57.067200    0.543200   84.378400
  H     56.812300    0.918938   86.138200
  H     56.698100    2.064840   84.977300
  H     53.266200   -4.050590   89.242400
  H     49.759000    1.121600   84.194500

 Total Charge           Charge          ....    0
 Multiplicity           Mult            ....    1
 Number of Electrons    NEL             ....  134
 Basis Dimension        Dim             ....  322

ORBITAL ENERGIES
----------------

  NO   OCC          E(Eh)            E(eV)
   0   2.0000     -88.970815     -2421.0190
   1   2.0000     -88.963108     -2420.8093
   2   2.0000     -10.329072      -281.0683
   3   2.0000     -10.319845      -280.8173
   4   2.0000     -10.314184      -280.6632
   5   2.0000     -10.306228      -280.4467
   6   2.0000     -10.303524      -280.3731
   7   2.0000     -10.301264      -280.3116
   8   2.0000     -10.298885      -280.2469
   9   2.0000     -10.298288      -280.2307
  10   2.0000     -10.297024      -280.1963
  11   2.0000     -10.293246      -280.0934
  12   2.0000     -10.287760      -279.9442
  13   2.0000     -10.281914      -279.7851
  14   2.0000     -10.272683      -279.5339
  15   2.0000     -10.264427      -279.3093
  16   2.0000      -8.085938      -220.0295
  17   2.0000      -8.079088      -219.8432
  18   2.0000      -6.044263      -164.4728
  19   2.0000      -6.040510      -164.3706
  20   2.0000      -6.037495      -164.2886
  21   2.0000      -6.036740      -164.2681
  22   2.0000      -6.033419      -164.1777
  23   2.0000      -6.029896      -164.0818
  24   2.0000      -1.010378       -27.4938
  25   2.0000      -0.985306       -26.8115
  26   2.0000      -0.911299       -24.7977
  27   2.0000      -0.910008       -24.7626
  28   2.0000      -0.867546       -23.6071
  29   2.0000      -0.858057       -23.3489
  30   2.0000      -0.851227       -23.1631
  31   2.0000      -0.813653       -22.1406
  32   2.0000      -0.781426       -21.2637
  33   2.0000      -0.770590       -20.9688
  34   2.0000      -0.705239       -19.1905
  35   2.0000      -0.695710       -18.9312
  36   2.0000      -0.689582       -18.7645
  37   2.0000      -0.670533       -18.2461
  38   2.0000      -0.641948       -17.4683
  39   2.0000      -0.620132       -16.8747
  40   2.0000      -0.593621       -16.1532
  41   2.0000      -0.573059       -15.5937
  42   2.0000      -0.559971       -15.2376
  43   2.0000      -0.552503       -15.0344
  44   2.0000      -0.531550       -14.4642
  45   2.0000      -0.526066       -14.3150
  46   2.0000      -0.516718       -14.0606
  47   2.0000      -0.513426       -13.9710
  48   2.0000      -0.509721       -13.8702
  49   2.0000      -0.501994       -13.6600
  50   2.0000      -0.496370       -13.5069
  51   2.0000      -0.477087       -12.9822
  52   2.0000      -0.471290       -12.8245
  53   2.0000      -0.470648       -12.8070
  54   2.0000      -0.458674       -12.4812
  55   2.0000      -0.451061       -12.2740
  56   2.0000      -0.446580       -12.1521
  57   2.0000      -0.441546       -12.0151
  58   2.0000      -0.434753       -11.8302
  59   2.0000      -0.425208       -11.5705
  60   2.0000      -0.420353       -11.4384
  61   2.0000      -0.404934       -11.0188
  62   2.0000      -0.401584       -10.9277
  63   2.0000      -0.339109        -9.2276
  64   2.0000      -0.327305        -8.9064
  65   2.0000      -0.323428        -8.8009
  66   2.0000      -0.299617        -8.1530
  67   0.0000       0.037870         1.0305
  68   0.0000       0.062222         1.6931
  69   0.0000       0.107314         2.9202
  70   0.0000       0.119887         3.2623
  71   0.0000       0.127637         3.4732

MULLIKEN ATOMIC CHARGES
-----------------------
   0 S :    0.132093
   1 C :   -0.072931
   2 C :   -0.080650
   3 C :    0.040830
   4 C :   -0.171671
   5 H :    0.033797
   6 C :    0.027448
   7 H :    0.039833
   8 H :    0.021787
   9 C :   -0.139148
  10 H :    0.035811
  11 H :    0.027486
  12 C :    0.020090
  13 H :    0.016910
  14 H :    0.013752
  15 H :    0.039658
  16 S :    0.118925
  17 C :   -0.084071
  18 C :   -0.002442
  19 C :   -0.036167
  20 C :   -0.167332
  21 H :   -0.003201
  22 C :    0.027395
  23 H :    0.017357
  24 H :    0.017927
  25 C :   -0.076392
  26 H :    0.021559
  27 H :    0.031846
  28 C :    0.035876
  29 H :    0.035617
  30 H :    0.017810
  31 H :   -0.000985
  32 H :    0.021759
  33 H :    0.039424
Sum of atomic charges:   -0.0000000

LOEWDIN ATOMIC CHARGES
----------------------
   0 S :    0.433419
   1 C :   -0.201115
   2 C :   -0.058777
   3 C :   -0.058439
   4 C :   -0.208808
   5 H :    0.038714
   6 C :   -0.039710
   7 H :    0.036088
   8 H :    0.029820
   9 C :   -0.054909
  10 H :    0.030468
  11 H :    0.023148
  12 C :   -0.056235
  13 H :    0.023105
  14 H :    0.016169
  15 H :    0.032661
  16 S :    0.429503
  17 C :   -0.181247
  18 C :   -0.050971
  19 C :   -0.054954
  20 C :   -0.216039
  21 H :    0.016991
  22 C :   -0.042983
  23 H :    0.028988
  24 H :    0.026769
  25 C :   -0.038017
  26 H :    0.025504
  27 H :    0.027403
  28 C :   -0.061995
  29 H :    0.037358
  30 H :    0.027021
  31 H :    0.012238
  32 H :    0.015591
  33 H :    0.013243

  Mayer bond orders larger than 0.100000
B(  0-S ,  1-C ) :   1.1403 B(  0-S ,  4-C ) :   1.1736 B(  1-C ,  2-C ) :   1.6077
B(  1-C , 32-H ) :   0.9698 B(  2-C ,  3-C ) :   1.2476 B(  2-C ,  6-C ) :   1.0292
B(  3-C ,  4-C ) :   1.5547 B(  3-C ,  5-H ) :   0.9885 B(  4-C , 20-C ) :   1.0004
B(  6-C ,  7-H ) :   0.9405 B(  6-C ,  8-H ) :   0.9530 B(  6-C ,  9-C ) :   1.0333
B(  9-C , 10-H ) :   0.9522 B(  9-C , 11-H ) :   0.9578 B(  9-C , 12-C ) :   1.0842
B( 12-C , 13-H ) :   0.9704 B( 12-C , 14-H ) :   0.9694 B( 12-C , 15-H ) :   0.9725
B( 16-S , 17-C ) :   1.1642 B( 16-S , 20-C ) :   1.1589 B( 17-C , 18-C ) :   1.6105
B( 17-C , 33-H ) :   0.9744 B( 18-C , 19-C ) :   1.2008 B( 18-C , 21-H ) :   1.0037
B( 19-C , 20-C ) :   1.6316 B( 19-C , 22-C ) :   1.0783 B( 22-C , 23-H ) :   0.9241
B( 22-C , 24-H ) :   0.9332 B( 22-C , 25-C ) :   1.0531 B( 25-C , 26-H ) :   0.9521
B( 25-C , 27-H ) :   0.9534 B( 25-C , 28-C ) :   1.1004 B( 28-C , 29-H ) :   0.9642
B( 28-C , 30-H ) :   0.9649 B( 28-C , 31-H ) :   0.9651

Dispersion correction           -0.013951165
FINAL SINGLE POINT ENERGY     -1339.859695177739

DIPOLE MOMENT
-------------
                                X             Y             Z
Electronic contribution:    -15.55961      -7.66487     -14.87298
Nuclear contribution   :     15.72790       7.97152      15.25510
                        -----------------------------------------
Total Dipole Moment    :      0.16830       0.30666       0.38211
                        -----------------------------------------
Magnitude (a.u.)       :      0.51805
Magnitude (Debye)      :      1.31677

Rotational constants in cm-1:     0.018787     0.007767     0.006829
Rotational constants in MHz :   563.226069   232.856885   204.721142

                             ****ORCA TERMINATED NORMALLY****
TOTAL RUN TIME: 0 days 0 hours 0 minutes 30 seconds 105 msec
