                         Program Version 4.2.1 -  RELEASE  -
|  1> ! wB97X-D3 SP def2-SVP
|  2> %pal
|  3> nprocs 16
|  4> end
|  5>
|  6> * xyz 0 1
|  7> S 	 54.6445 	 20.2745 	 46.8611
|  8> C 	 54.3943 	 21.9567 	 46.6276
|  9> C 	 53.8911 	 22.5292 	 47.734
| 10> C 	 53.8272 	 21.6347 	 48.8442
| 11> C 	 54.1414 	 20.3342 	 48.5012
| 12> H 	 53.4788 	 21.8222 	 49.8212
| 13> C 	 53.5464 	 23.9736 	 47.9195
| 14> H 	 54.2746 	 24.5933 	 47.394
| 15> H 	 53.7946 	 24.3363 	 48.9483
| 16> C 	 52.1096 	 24.4551 	 47.5861
| 17> H 	 51.5405 	 24.3366 	 48.4942
| 18> H 	 52.1266 	 25.5429 	 47.4769
| 19> C 	 51.5217 	 23.7481 	 46.3739
| 20> H 	 52.1602 	 23.9229 	 45.5352
| 21> H 	 51.5324 	 22.6837 	 46.6271
| 22> H 	 50.5081 	 24.071 	 46.1232
| 23> S 	 55.2973 	 18.2517 	 49.7155
| 24> C 	 54.3312 	 16.9442 	 50.3593
| 25> C 	 52.964 	 17.2183 	 50.1588
| 26> C 	 52.7444 	 18.5111 	 49.4875
| 27> C 	 53.8949 	 19.1415 	 49.232
| 28> H 	 52.2931 	 16.4389 	 50.431
| 29> C 	 51.3289 	 18.9775 	 49.0307
| 30> H 	 51.0626 	 19.9412 	 49.4659
| 31> H 	 50.7135 	 18.1835 	 49.4844
| 32> C 	 51.0335 	 18.9919 	 47.5377
| 33> H 	 51.0952 	 17.9523 	 47.166
| 34> H 	 51.7597 	 19.6345 	 47.0105
| 35> C 	 49.6556 	 19.6789 	 47.1909
| 36> H 	 49.4703 	 19.46 	 46.0741
| 37> H 	 49.5865 	 20.7166 	 47.4517
| 38> H 	 48.8007 	 19.3063 	 47.7124
| 39> H 	 54.7061 	 22.4418 	 45.7526
| 40> H 	 54.7284 	 16.0577 	 50.7772
| 41> *
| 42>
| 43>                          ****END OF INPUT****

CARTESIAN COORDINATES (ANGSTROEM)
---------------------------------
  S     54.644500   20.274500   46.861100
  C     54.394300   21.956700   46.627600
  C     53.891100   22.529200   47.734000
  C     53.827200   21.634700   48.844200
  C     54.141400   20.334200   48.501200
  H     53.478800   21.822200   49.821200
  C     53.546400   23.973600   47.919500
  H     54.274600   24.593300   47.394000
  H     53.794600   24.336300   48.948300
  C     52.109600   24.455100   47.586100
  H     51.540500   24.336600   48.494200
  H     52.126600   25.542900   47.476900
  C     51.521700   23.748100   46.373900
  H     52.160200   23.922900   45.535200
  H     51.532400   22.683700   46.627100
  H     50.508100   24.071000   46.123200
  S     55.297300   18.251700   49.715500
  C     54.331200   16.944200   50.359300
  C     52.964000   17.218300   50.158800
  C     52.744400   18.511100   49.487500
  C     53.894900   19.141500   49.232000
  H     52.293100   16.438900   50.431000
  C     51.328900   18.977500   49.030700
  H     51.062600   19.941200   49.465900
  H     50.713500   18.183500   49.484400
  C     51.033500   18.991900   47.537700
  H     51.095200   17.952300   47.166000
  H     51.759700   19.634500   47.010500
  C     49.655600   19.678900   47.190900
  H     49.470300   19.460000   46.074100
  H     49.586500   20.716600   47.451700
  H     48.800700   19.306300   47.712400
  H     54.706100   22.441800   45.752600
  H     54.728400   16.057700   50.777200

 Total Charge           Charge          ....    0
 Multiplicity           Mult            ....    1
 Number of Electrons    NEL             ....  134
 Basis Dimension        Dim             ....  322

ORBITAL ENERGIES
----------------

  NO   OCC          E(Eh)            E(eV)
   0   2.0000     -88.963691     -2420.8251
   1   2.0000     -88.962000     -2420.7791
   2   2.0000     -10.320597      -280.8377
   3   2.0000     -10.318181      -280.7720
   4   2.0000     -10.315298      -280.6935
   5   2.0000     -10.306656      -280.4584
   6   2.0000     -10.305007      -280.4135
   7   2.0000     -10.299252      -280.2569
   8   2.0000     -10.296690      -280.1872
   9   2.0000     -10.293179      -280.0917
  10   2.0000     -10.290368      -280.0151
  11   2.0000     -10.289541      -279.9926
  12   2.0000     -10.288134      -279.9544
  13   2.0000     -10.284311      -279.8503
  14   2.0000     -10.280175      -279.7378
  15   2.0000     -10.273617      -279.5593
  16   2.0000      -8.079524      -219.8550
  17   2.0000      -8.077481      -219.7994
  18   2.0000      -6.037880      -164.2991
  19   2.0000      -6.035976      -164.2473
  20   2.0000      -6.033745      -164.1865
  21   2.0000      -6.031792      -164.1334
  22   2.0000      -6.030478      -164.0977
  23   2.0000      -6.028302      -164.0384
  24   2.0000      -1.017467       -27.6867
  25   2.0000      -0.989288       -26.9199
  26   2.0000      -0.912897       -24.8412
  27   2.0000      -0.901495       -24.5309
  28   2.0000      -0.874677       -23.8012
  29   2.0000      -0.850567       -23.1451
  30   2.0000      -0.843409       -22.9503
  31   2.0000      -0.815797       -22.1990
  32   2.0000      -0.783612       -21.3232
  33   2.0000      -0.775535       -21.1034
  34   2.0000      -0.710800       -19.3419
  35   2.0000      -0.698894       -19.0179
  36   2.0000      -0.691560       -18.8183
  37   2.0000      -0.669518       -18.2185
  38   2.0000      -0.653229       -17.7753
  39   2.0000      -0.617100       -16.7921
  40   2.0000      -0.590437       -16.0666
  41   2.0000      -0.570274       -15.5179
  42   2.0000      -0.565194       -15.3797
  43   2.0000      -0.549546       -14.9539
  44   2.0000      -0.547891       -14.9089
  45   2.0000      -0.523649       -14.2492
  46   2.0000      -0.517711       -14.0876
  47   2.0000      -0.513267       -13.9667
  48   2.0000      -0.510119       -13.8810
  49   2.0000      -0.496116       -13.5000
  50   2.0000      -0.493820       -13.4375
  51   2.0000      -0.478954       -13.0330
  52   2.0000      -0.472144       -12.8477
  53   2.0000      -0.464848       -12.6492
  54   2.0000      -0.462329       -12.5806
  55   2.0000      -0.445956       -12.1351
  56   2.0000      -0.438394       -11.9293
  57   2.0000      -0.436470       -11.8770
  58   2.0000      -0.434676       -11.8281
  59   2.0000      -0.423751       -11.5308
  60   2.0000      -0.421439       -11.4679
  61   2.0000      -0.409681       -11.1480
  62   2.0000      -0.406135       -11.0515
  63   2.0000      -0.335270        -9.1232
  64   2.0000      -0.332491        -9.0475
  65   2.0000      -0.327380        -8.9085
  66   2.0000      -0.310776        -8.4567
  67   0.0000       0.041426         1.1273
  68   0.0000       0.064288         1.7494
  69   0.0000       0.120748         3.2857
  70   0.0000       0.121341         3.3019
  71   0.0000       0.127877         3.4797

MULLIKEN ATOMIC CHARGES
-----------------------
   0 S :    0.120509
   1 C :   -0.098962
   2 C :   -0.081708
   3 C :    0.072323
   4 C :   -0.175866
   5 H :   -0.008479
   6 C :    0.034818
   7 H :    0.017969
   8 H :    0.022878
   9 C :   -0.063026
  10 H :    0.019543
  11 H :    0.023836
  12 C :   -0.035757
  13 H :    0.021551
  14 H :    0.055224
  15 H :    0.035993
  16 S :    0.108160
  17 C :   -0.086466
  18 C :   -0.045369
  19 C :   -0.016019
  20 C :   -0.186476
  21 H :    0.014973
  22 C :    0.099279
  23 H :    0.025187
  24 H :    0.016402
  25 C :   -0.080581
  26 H :    0.036606
  27 H :    0.046823
  28 C :   -0.065675
  29 H :    0.050472
  30 H :    0.031383
  31 H :    0.014049
  32 H :    0.029345
  33 H :    0.047062
Sum of atomic charges:    0.0000000

LOEWDIN ATOMIC CHARGES
----------------------
   0 S :    0.440309
   1 C :   -0.190086
   2 C :   -0.071201
   3 C :   -0.049591
   4 C :   -0.209116
   5 H :    0.025107
   6 C :   -0.039833
   7 H :    0.027543
   8 H :    0.035123
   9 C :   -0.039844
  10 H :    0.018330
  11 H :    0.023616
  12 C :   -0.061606
  13 H :    0.020927
  14 H :    0.029922
  15 H :    0.026508
  16 S :    0.413087
  17 C :   -0.177752
  18 C :   -0.068297
  19 C :   -0.052176
  20 C :   -0.214075
  21 H :    0.026946
  22 C :   -0.030221
  23 H :    0.028259
  24 H :    0.031034
  25 C :   -0.040627
  26 H :    0.028194
  27 H :    0.022512
  28 C :   -0.071064
  29 H :    0.039730
  30 H :    0.021363
  31 H :    0.016094
  32 H :    0.018992
  33 H :    0.021891

  Mayer bond orders larger than 0.100000
B(  0-S ,  1-C ) :   1.1490 B(  0-S ,  4-C ) :   1.1749 B(  1-C ,  2-C ) :   1.5941
B(  1-C , 32-H ) :   0.9793 B(  2-C ,  3-C ) :   1.2312 B(  2-C ,  6-C ) :   1.0256
B(  3-C ,  4-C ) :   1.5735 B(  3-C ,  5-H ) :   1.0122 B(  4-C , 20-C ) :   1.0033
B(  6-C ,  7-H ) :   0.9410 B(  6-C ,  8-H ) :   0.9464 B(  6-C ,  9-C ) :   1.0606
B(  9-C , 10-H ) :   0.9579 B(  9-C , 11-H ) :   0.9540 B(  9-C , 12-C ) :   1.0868
B( 12-C , 13-H ) :   0.9740 B( 12-C , 14-H ) :   0.9639 B( 12-C , 15-H ) :   0.9729
B( 16-S , 17-C ) :   1.1540 B( 16-S , 20-C ) :   1.1432 B( 17-C , 18-C ) :   1.6256
B( 17-C , 33-H ) :   0.9736 B( 18-C , 19-C ) :   1.2046 B( 18-C , 21-H ) :   0.9932
B( 19-C , 20-C ) :   1.6518 B( 19-C , 22-C ) :   1.0274 B( 22-C , 23-H ) :   0.9361
B( 22-C , 24-H ) :   0.9296 B( 22-C , 25-C ) :   1.0738 B( 25-C , 26-H ) :   0.9537
B( 25-C , 27-H ) :   0.9545 B( 25-C , 28-C ) :   1.0720 B( 28-C , 29-H ) :   0.9758
B( 28-C , 30-H ) :   0.9736 B( 28-C , 31-H ) :   0.9743

Dispersion correction           -0.016134856
FINAL SINGLE POINT ENERGY     -1339.882937912369

DIPOLE MOMENT
-------------
                                X             Y             Z
Electronic contribution:     23.76016     -15.12845       6.92944
Nuclear contribution   :    -24.22468      15.34742      -6.92077
                        -----------------------------------------
Total Dipole Moment    :     -0.46452       0.21897       0.00867
                        -----------------------------------------
Magnitude (a.u.)       :      0.51362
Magnitude (Debye)      :      1.30551

Rotational constants in cm-1:     0.020882     0.009763     0.007780
Rotational constants in MHz :   626.035112   292.674944   233.236877

                             ****ORCA TERMINATED NORMALLY****
TOTAL RUN TIME: 0 days 0 hours 0 minutes 32 seconds 834 msec
