                         Program Version 4.2.1 -  RELEASE  -
|  1> ! wB97X-D3 SP def2-SVP
|  2> %pal
|  3> nprocs 16
|  4> end
|  5>
|  6> * xyz 0 1
|  7> S 	 -28.3764 	 57.3362 	 110.907
|  8> C 	 -27.8327 	 57.8015 	 109.356
|  9> C 	 -28.3228 	 56.9692 	 108.272
| 10> C 	 -29.2227 	 55.9731 	 108.745
| 11> C 	 -29.3684 	 56.0652 	 110.133
| 12> H 	 -29.7257 	 55.232 	 108.133
| 13> C 	 -27.8882 	 57.1987 	 106.773
| 14> H 	 -26.7964 	 57.4779 	 106.771
| 15> H 	 -28.4371 	 58.0798 	 106.404
| 16> C 	 -28.1198 	 55.989 	 105.908
| 17> H 	 -28.0159 	 55.0958 	 106.5
| 18> H 	 -29.1852 	 55.99 	 105.675
| 19> C 	 -27.3835 	 56.0404 	 104.59
| 20> H 	 -27.6546 	 56.8405 	 103.922
| 21> H 	 -26.3198 	 56.1893 	 104.824
| 22> H 	 -27.4145 	 55.0141 	 104.116
| 23> S 	 -30.7823 	 55.7871 	 112.49
| 24> C 	 -31.5388 	 54.3637 	 112.925
| 25> C 	 -31.3601 	 53.413 	 111.942
| 26> C 	 -30.5396 	 53.8465 	 110.817
| 27> C 	 -30.1123 	 55.1416 	 111.004
| 28> H 	 -31.7222 	 52.3127 	 112.131
| 29> C 	 -30.0133 	 52.8307 	 109.792
| 30> H 	 -29.6869 	 51.9466 	 110.328
| 31> H 	 -29.1271 	 53.2394 	 109.273
| 32> C 	 -31.0027 	 52.4369 	 108.67
| 33> H 	 -30.7843 	 51.5092 	 108.204
| 34> H 	 -30.9756 	 53.2359 	 107.927
| 35> C 	 -32.4491 	 52.214 	 108.979
| 36> H 	 -32.997 	 53.1707 	 108.971
| 37> H 	 -32.6011 	 51.7306 	 109.945
| 38> H 	 -32.9239 	 51.6399 	 108.263
| 39> H 	 -27.1394 	 58.6179 	 109.21
| 40> H 	 -32.0065 	 54.1661 	 113.868
| 41> *
| 42>
| 43>                          ****END OF INPUT****

CARTESIAN COORDINATES (ANGSTROEM)
---------------------------------
  S    -28.376400   57.336200  110.907000
  C    -27.832700   57.801500  109.356000
  C    -28.322800   56.969200  108.272000
  C    -29.222700   55.973100  108.745000
  C    -29.368400   56.065200  110.133000
  H    -29.725700   55.232000  108.133000
  C    -27.888200   57.198700  106.773000
  H    -26.796400   57.477900  106.771000
  H    -28.437100   58.079800  106.404000
  C    -28.119800   55.989000  105.908000
  H    -28.015900   55.095800  106.500000
  H    -29.185200   55.990000  105.675000
  C    -27.383500   56.040400  104.590000
  H    -27.654600   56.840500  103.922000
  H    -26.319800   56.189300  104.824000
  H    -27.414500   55.014100  104.116000
  S    -30.782300   55.787100  112.490000
  C    -31.538800   54.363700  112.925000
  C    -31.360100   53.413000  111.942000
  C    -30.539600   53.846500  110.817000
  C    -30.112300   55.141600  111.004000
  H    -31.722200   52.312700  112.131000
  C    -30.013300   52.830700  109.792000
  H    -29.686900   51.946600  110.328000
  H    -29.127100   53.239400  109.273000
  C    -31.002700   52.436900  108.670000
  H    -30.784300   51.509200  108.204000
  H    -30.975600   53.235900  107.927000
  C    -32.449100   52.214000  108.979000
  H    -32.997000   53.170700  108.971000
  H    -32.601100   51.730600  109.945000
  H    -32.923900   51.639900  108.263000
  H    -27.139400   58.617900  109.210000
  H    -32.006500   54.166100  113.868000

 Total Charge           Charge          ....    0
 Multiplicity           Mult            ....    1
 Number of Electrons    NEL             ....  134
 Basis Dimension        Dim             ....  322

ORBITAL ENERGIES
----------------

  NO   OCC          E(Eh)            E(eV)
   0   2.0000     -88.974147     -2421.1096
   1   2.0000     -88.961332     -2420.7609
   2   2.0000     -10.335080      -281.2318
   3   2.0000     -10.326164      -280.9892
   4   2.0000     -10.315932      -280.7108
   5   2.0000     -10.310834      -280.5721
   6   2.0000     -10.310205      -280.5550
   7   2.0000     -10.304560      -280.4013
   8   2.0000     -10.301526      -280.3188
   9   2.0000     -10.300489      -280.2905
  10   2.0000     -10.299088      -280.2524
  11   2.0000     -10.295619      -280.1580
  12   2.0000     -10.283606      -279.8312
  13   2.0000     -10.283513      -279.8286
  14   2.0000     -10.280061      -279.7347
  15   2.0000     -10.265314      -279.3334
  16   2.0000      -8.088492      -220.0991
  17   2.0000      -8.077852      -219.8095
  18   2.0000      -6.046771      -164.5410
  19   2.0000      -6.043096      -164.4410
  20   2.0000      -6.039504      -164.3433
  21   2.0000      -6.036270      -164.2553
  22   2.0000      -6.032008      -164.1393
  23   2.0000      -6.028705      -164.0494
  24   2.0000      -1.008872       -27.4528
  25   2.0000      -0.983575       -26.7644
  26   2.0000      -0.914588       -24.8872
  27   2.0000      -0.911370       -24.7996
  28   2.0000      -0.868808       -23.6415
  29   2.0000      -0.855758       -23.2864
  30   2.0000      -0.847068       -23.0499
  31   2.0000      -0.810059       -22.0428
  32   2.0000      -0.787946       -21.4411
  33   2.0000      -0.768811       -20.9204
  34   2.0000      -0.710289       -19.3279
  35   2.0000      -0.694807       -18.9066
  36   2.0000      -0.684517       -18.6267
  37   2.0000      -0.658318       -17.9138
  38   2.0000      -0.636419       -17.3178
  39   2.0000      -0.623387       -16.9632
  40   2.0000      -0.590847       -16.0778
  41   2.0000      -0.572257       -15.5719
  42   2.0000      -0.569141       -15.4871
  43   2.0000      -0.555918       -15.1273
  44   2.0000      -0.543035       -14.7767
  45   2.0000      -0.525910       -14.3107
  46   2.0000      -0.513339       -13.9687
  47   2.0000      -0.507565       -13.8115
  48   2.0000      -0.500556       -13.6208
  49   2.0000      -0.497072       -13.5260
  50   2.0000      -0.492691       -13.4068
  51   2.0000      -0.483744       -13.1634
  52   2.0000      -0.479191       -13.0395
  53   2.0000      -0.473778       -12.8921
  54   2.0000      -0.458863       -12.4863
  55   2.0000      -0.453383       -12.3372
  56   2.0000      -0.441310       -12.0087
  57   2.0000      -0.437381       -11.9018
  58   2.0000      -0.429411       -11.6849
  59   2.0000      -0.423128       -11.5139
  60   2.0000      -0.419476       -11.4145
  61   2.0000      -0.414834       -11.2882
  62   2.0000      -0.409512       -11.1434
  63   2.0000      -0.358112        -9.7447
  64   2.0000      -0.337231        -9.1765
  65   2.0000      -0.327590        -8.9142
  66   2.0000      -0.279268        -7.5993
  67   0.0000       0.022882         0.6227
  68   0.0000       0.080254         2.1838
  69   0.0000       0.103164         2.8072
  70   0.0000       0.116582         3.1724
  71   0.0000       0.127858         3.4792

MULLIKEN ATOMIC CHARGES
-----------------------
   0 S :    0.127810
   1 C :   -0.111034
   2 C :   -0.114004
   3 C :   -0.003097
   4 C :   -0.109960
   5 H :    0.007627
   6 C :    0.046550
   7 H :    0.033002
   8 H :    0.047745
   9 C :   -0.092182
  10 H :    0.030237
  11 H :    0.026309
  12 C :   -0.033364
  13 H :    0.039787
  14 H :    0.023249
  15 H :    0.044315
  16 S :    0.098265
  17 C :   -0.076976
  18 C :   -0.081733
  19 C :   -0.063151
  20 C :   -0.128548
  21 H :    0.054491
  22 C :    0.063611
  23 H :    0.032316
  24 H :    0.031270
  25 C :   -0.067991
  26 H :    0.018810
  27 H :    0.020039
  28 C :   -0.024273
  29 H :    0.031872
  30 H :    0.017128
  31 H :    0.012539
  32 H :    0.044591
  33 H :    0.054752
Sum of atomic charges:   -0.0000000

LOEWDIN ATOMIC CHARGES
----------------------
   0 S :    0.421341
   1 C :   -0.216054
   2 C :   -0.056003
   3 C :   -0.065777
   4 C :   -0.176235
   5 H :    0.033258
   6 C :   -0.032808
   7 H :    0.032285
   8 H :    0.035294
   9 C :   -0.053945
  10 H :    0.022790
  11 H :    0.025759
  12 C :   -0.064837
  13 H :    0.026155
  14 H :    0.024138
  15 H :    0.036992
  16 S :    0.426515
  17 C :   -0.212736
  18 C :   -0.085483
  19 C :   -0.064872
  20 C :   -0.196632
  21 H :    0.043931
  22 C :   -0.026358
  23 H :    0.032031
  24 H :    0.033781
  25 C :   -0.042582
  26 H :    0.021957
  27 H :    0.019689
  28 C :   -0.062159
  29 H :    0.029083
  30 H :    0.022146
  31 H :    0.015702
  32 H :    0.022821
  33 H :    0.030813

  Mayer bond orders larger than 0.100000
B(  0-S ,  1-C ) :   1.1641 B(  0-S ,  4-C ) :   1.1636 B(  1-C ,  2-C ) :   1.5739
B(  1-C ,  4-C ) :   0.1109 B(  1-C , 32-H ) :   0.9705 B(  2-C ,  3-C ) :   1.2829
B(  2-C ,  6-C ) :   0.9979 B(  3-C ,  4-C ) :   1.5338 B(  3-C ,  5-H ) :   0.9878
B(  4-C , 20-C ) :   1.0407 B(  6-C ,  7-H ) :   0.9502 B(  6-C ,  8-H ) :   0.9364
B(  6-C ,  9-C ) :   1.0787 B(  9-C , 10-H ) :   0.9589 B(  9-C , 11-H ) :   0.9385
B(  9-C , 12-C ) :   1.0861 B( 12-C , 13-H ) :   0.9728 B( 12-C , 14-H ) :   0.9747
B( 12-C , 15-H ) :   0.9711 B( 16-S , 17-C ) :   1.1683 B( 16-S , 20-C ) :   1.1402
B( 17-C , 18-C ) :   1.6083 B( 17-C , 33-H ) :   0.9704 B( 18-C , 19-C ) :   1.2379
B( 18-C , 21-H ) :   0.9670 B( 19-C , 20-C ) :   1.6094 B( 19-C , 22-C ) :   1.0266
B( 22-C , 23-H ) :   0.9397 B( 22-C , 24-H ) :   0.9454 B( 22-C , 25-C ) :   1.0700
B( 25-C , 26-H ) :   0.9571 B( 25-C , 27-H ) :   0.9522 B( 25-C , 28-C ) :   1.0981
B( 28-C , 29-H ) :   0.9691 B( 28-C , 30-H ) :   0.9697 B( 28-C , 31-H ) :   0.9725

Dispersion correction           -0.014254760
FINAL SINGLE POINT ENERGY     -1339.875281182116

DIPOLE MOMENT
-------------
                                X             Y             Z
Electronic contribution:      0.20424      14.08492      28.08106
Nuclear contribution   :     -0.10235     -14.45746     -28.58611
                        -----------------------------------------
Total Dipole Moment    :      0.10189      -0.37253      -0.50505
                        -----------------------------------------
Magnitude (a.u.)       :      0.63579
Magnitude (Debye)      :      1.61606

Rotational constants in cm-1:     0.017999     0.009322     0.006380
Rotational constants in MHz :   539.591853   279.473725   191.282050

                             ****ORCA TERMINATED NORMALLY****
TOTAL RUN TIME: 0 days 0 hours 0 minutes 28 seconds 499 msec
