                         Program Version 4.2.1 -  RELEASE  -
|  1> ! wB97X-D3 SP def2-SVP
|  2> %pal
|  3> nprocs 16
|  4> end
|  5>
|  6> * xyz 0 1
|  7> S 	 -1.05139 	 75.9646 	 47.2811
|  8> C 	 -0.294079 	 74.4418 	 46.9149
|  9> C 	 -0.319264 	 74.1445 	 45.558
| 10> C 	 -0.864817 	 75.2521 	 44.9007
| 11> C 	 -1.31676 	 76.3215 	 45.6298
| 12> H 	 -1.01203 	 75.274 	 43.8599
| 13> C 	 0.276777 	 72.932 	 44.8911
| 14> H 	 -0.564613 	 72.3344 	 44.5069
| 15> H 	 0.594259 	 72.4846 	 45.8092
| 16> C 	 1.34643 	 73.0772 	 43.7982
| 17> H 	 1.58529 	 71.9849 	 43.4725
| 18> H 	 0.928198 	 73.5603 	 42.8764
| 19> C 	 2.68632 	 73.5781 	 44.2501
| 20> H 	 2.66596 	 74.6393 	 44.5341
| 21> H 	 2.86096 	 72.9393 	 45.0864
| 22> H 	 3.5908 	 73.4457 	 43.5635
| 23> S 	 -3.75599 	 77.7236 	 45.7543
| 24> C 	 -3.7368 	 79.3394 	 45.0197
| 25> C 	 -2.63044 	 79.6231 	 44.3196
| 26> C 	 -1.72936 	 78.4939 	 44.2724
| 27> C 	 -2.08927 	 77.4236 	 45.1289
| 28> H 	 -2.54914 	 80.5684 	 43.7219
| 29> C 	 -0.408378 	 78.522 	 43.5438
| 30> H 	 -0.553189 	 79.2135 	 42.6736
| 31> H 	 -0.306143 	 77.5477 	 43.0277
| 32> C 	 0.849674 	 78.7295 	 44.4344
| 33> H 	 1.70788 	 78.9367 	 43.7645
| 34> H 	 1.00353 	 77.8008 	 44.9083
| 35> C 	 0.751399 	 79.8604 	 45.4842
| 36> H 	 1.69892 	 80.2314 	 45.897
| 37> H 	 0.116421 	 79.6717 	 46.3739
| 38> H 	 0.240088 	 80.6791 	 45.0393
| 39> H 	 0.156365 	 73.7952 	 47.6768
| 40> H 	 -4.56228 	 80.0156 	 45.2656
| 41> *
| 42>
| 43>                          ****END OF INPUT****

CARTESIAN COORDINATES (ANGSTROEM)
---------------------------------
  S     -1.051390   75.964600   47.281100
  C     -0.294079   74.441800   46.914900
  C     -0.319264   74.144500   45.558000
  C     -0.864817   75.252100   44.900700
  C     -1.316760   76.321500   45.629800
  H     -1.012030   75.274000   43.859900
  C      0.276777   72.932000   44.891100
  H     -0.564613   72.334400   44.506900
  H      0.594259   72.484600   45.809200
  C      1.346430   73.077200   43.798200
  H      1.585290   71.984900   43.472500
  H      0.928198   73.560300   42.876400
  C      2.686320   73.578100   44.250100
  H      2.665960   74.639300   44.534100
  H      2.860960   72.939300   45.086400
  H      3.590800   73.445700   43.563500
  S     -3.755990   77.723600   45.754300
  C     -3.736800   79.339400   45.019700
  C     -2.630440   79.623100   44.319600
  C     -1.729360   78.493900   44.272400
  C     -2.089270   77.423600   45.128900
  H     -2.549140   80.568400   43.721900
  C     -0.408378   78.522000   43.543800
  H     -0.553189   79.213500   42.673600
  H     -0.306143   77.547700   43.027700
  C      0.849674   78.729500   44.434400
  H      1.707880   78.936700   43.764500
  H      1.003530   77.800800   44.908300
  C      0.751399   79.860400   45.484200
  H      1.698920   80.231400   45.897000
  H      0.116421   79.671700   46.373900
  H      0.240088   80.679100   45.039300
  H      0.156365   73.795200   47.676800
  H     -4.562280   80.015600   45.265600

 Total Charge           Charge          ....    0
 Multiplicity           Mult            ....    1
 Number of Electrons    NEL             ....  134
 Basis Dimension        Dim             ....  322

ORBITAL ENERGIES
----------------

  NO   OCC          E(Eh)            E(eV)
   0   2.0000     -88.967695     -2420.9340
   1   2.0000     -88.962298     -2420.7872
   2   2.0000     -10.329111      -281.0694
   3   2.0000     -10.322623      -280.8929
   4   2.0000     -10.317779      -280.7610
   5   2.0000     -10.316665      -280.7307
   6   2.0000     -10.306707      -280.4598
   7   2.0000     -10.301385      -280.3149
   8   2.0000     -10.298185      -280.2279
   9   2.0000     -10.297734      -280.2156
  10   2.0000     -10.296070      -280.1703
  11   2.0000     -10.293246      -280.0935
  12   2.0000     -10.284607      -279.8584
  13   2.0000     -10.282496      -279.8009
  14   2.0000     -10.281393      -279.7709
  15   2.0000     -10.270692      -279.4797
  16   2.0000      -8.083124      -219.9530
  17   2.0000      -8.076225      -219.7653
  18   2.0000      -6.041486      -164.3972
  19   2.0000      -6.037436      -164.2870
  20   2.0000      -6.034782      -164.2148
  21   2.0000      -6.034078      -164.1956
  22   2.0000      -6.030968      -164.1110
  23   2.0000      -6.026861      -163.9992
  24   2.0000      -1.011209       -27.5164
  25   2.0000      -0.981976       -26.7209
  26   2.0000      -0.918473       -24.9929
  27   2.0000      -0.901193       -24.5227
  28   2.0000      -0.873831       -23.7781
  29   2.0000      -0.852452       -23.1964
  30   2.0000      -0.839546       -22.8452
  31   2.0000      -0.816773       -22.2255
  32   2.0000      -0.787580       -21.4311
  33   2.0000      -0.770563       -20.9681
  34   2.0000      -0.715354       -19.4658
  35   2.0000      -0.697255       -18.9733
  36   2.0000      -0.687164       -18.6987
  37   2.0000      -0.654649       -17.8139
  38   2.0000      -0.641977       -17.4691
  39   2.0000      -0.623173       -16.9574
  40   2.0000      -0.586991       -15.9728
  41   2.0000      -0.567219       -15.4348
  42   2.0000      -0.559249       -15.2180
  43   2.0000      -0.553203       -15.0534
  44   2.0000      -0.544678       -14.8214
  45   2.0000      -0.538273       -14.6471
  46   2.0000      -0.522309       -14.2127
  47   2.0000      -0.507244       -13.8028
  48   2.0000      -0.498240       -13.5578
  49   2.0000      -0.488887       -13.3033
  50   2.0000      -0.482961       -13.1420
  51   2.0000      -0.481353       -13.0983
  52   2.0000      -0.472101       -12.8465
  53   2.0000      -0.461425       -12.5560
  54   2.0000      -0.458822       -12.4852
  55   2.0000      -0.446894       -12.1606
  56   2.0000      -0.442016       -12.0279
  57   2.0000      -0.438209       -11.9243
  58   2.0000      -0.432882       -11.7793
  59   2.0000      -0.427140       -11.6231
  60   2.0000      -0.418765       -11.3952
  61   2.0000      -0.410050       -11.1580
  62   2.0000      -0.408864       -11.1258
  63   2.0000      -0.343718        -9.3530
  64   2.0000      -0.333361        -9.0712
  65   2.0000      -0.329843        -8.9755
  66   2.0000      -0.292213        -7.9515
  67   0.0000       0.029907         0.8138
  68   0.0000       0.063210         1.7200
  69   0.0000       0.111400         3.0313
  70   0.0000       0.125724         3.4211
  71   0.0000       0.126804         3.4505

MULLIKEN ATOMIC CHARGES
-----------------------
   0 S :    0.130628
   1 C :   -0.150017
   2 C :   -0.092477
   3 C :    0.030748
   4 C :   -0.156187
   5 H :   -0.016250
   6 C :    0.100104
   7 H :    0.047241
   8 H :   -0.000420
   9 C :   -0.093091
  10 H :    0.038739
  11 H :    0.041137
  12 C :   -0.054349
  13 H :    0.046749
  14 H :    0.019558
  15 H :    0.048392
  16 S :    0.087725
  17 C :   -0.104714
  18 C :   -0.021239
  19 C :   -0.068291
  20 C :   -0.159398
  21 H :    0.044269
  22 C :    0.041156
  23 H :    0.023551
  24 H :    0.025880
  25 C :   -0.033848
  26 H :    0.035138
  27 H :    0.035285
  28 C :   -0.045042
  29 H :    0.035300
  30 H :    0.035561
  31 H :    0.007948
  32 H :    0.053768
  33 H :    0.066448
Sum of atomic charges:   -0.0000000

LOEWDIN ATOMIC CHARGES
----------------------
   0 S :    0.435917
   1 C :   -0.202223
   2 C :   -0.070315
   3 C :   -0.058389
   4 C :   -0.218275
   5 H :    0.018165
   6 C :   -0.032693
   7 H :    0.042306
   8 H :    0.027746
   9 C :   -0.048572
  10 H :    0.037948
  11 H :    0.025262
  12 C :   -0.072875
  13 H :    0.026661
  14 H :    0.023050
  15 H :    0.036338
  16 S :    0.363873
  17 C :   -0.168682
  18 C :   -0.082521
  19 C :   -0.049113
  20 C :   -0.184766
  21 H :    0.045729
  22 C :   -0.041806
  23 H :    0.030753
  24 H :    0.034235
  25 C :   -0.031726
  26 H :    0.030278
  27 H :    0.019494
  28 C :   -0.071849
  29 H :    0.027654
  30 H :    0.030745
  31 H :    0.017469
  32 H :    0.029387
  33 H :    0.030795

  Mayer bond orders larger than 0.100000
B(  0-S ,  1-C ) :   1.1695 B(  0-S ,  4-C ) :   1.1481 B(  1-C ,  2-C ) :   1.5674
B(  1-C , 32-H ) :   0.9577 B(  2-C ,  3-C ) :   1.2770 B(  2-C ,  6-C ) :   1.0052
B(  3-C ,  4-C ) :   1.5481 B(  3-C ,  5-H ) :   1.0002 B(  4-C , 20-C ) :   1.0692
B(  6-C ,  7-H ) :   0.9265 B(  6-C ,  8-H ) :   0.9356 B(  6-C ,  9-C ) :   1.0800
B(  9-C , 10-H ) :   0.9512 B(  9-C , 11-H ) :   0.9521 B(  9-C , 12-C ) :   1.0611
B( 12-C , 13-H ) :   0.9758 B( 12-C , 14-H ) :   0.9728 B( 12-C , 15-H ) :   0.9745
B( 16-S , 17-C ) :   1.1438 B( 16-S , 20-C ) :   1.1179 B( 17-C , 18-C ) :   1.6429
B( 17-C , 33-H ) :   0.9610 B( 18-C , 19-C ) :   1.2227 B( 18-C , 21-H ) :   0.9788
B( 19-C , 20-C ) :   1.5958 B( 19-C , 22-C ) :   1.0503 B( 22-C , 23-H ) :   0.9330
B( 22-C , 24-H ) :   0.9353 B( 22-C , 25-C ) :   1.0601 B( 25-C , 26-H ) :   0.9556
B( 25-C , 27-H ) :   0.9546 B( 25-C , 28-C ) :   1.0756 B( 28-C , 29-H ) :   0.9762
B( 28-C , 30-H ) :   0.9692 B( 28-C , 31-H ) :   0.9766

Dispersion correction           -0.015720467
FINAL SINGLE POINT ENERGY     -1339.871969091435

DIPOLE MOMENT
-------------
                                X             Y             Z
Electronic contribution:    -22.73525       3.61574      11.65751
Nuclear contribution   :     23.15015      -3.73346     -12.04462
                        -----------------------------------------
Total Dipole Moment    :      0.41491      -0.11772      -0.38710
                        -----------------------------------------
Magnitude (a.u.)       :      0.57953
Magnitude (Debye)      :      1.47305

Rotational constants in cm-1:     0.020942     0.009016     0.007635
Rotational constants in MHz :   627.815406   270.295131   228.904473

                             ****ORCA TERMINATED NORMALLY****
TOTAL RUN TIME: 0 days 0 hours 0 minutes 36 seconds 319 msec
