                         Program Version 4.2.1 -  RELEASE  -
|  1> ! wB97X-D3 SP def2-SVP
|  2> %pal
|  3> nprocs 16
|  4> end
|  5>
|  6> * xyz 0 1
|  7> S 	 -6.85062 	 44.2307 	 42.4059
|  8> C 	 -5.31016 	 43.9894 	 41.6686
|  9> C 	 -4.39804 	 43.5797 	 42.5914
| 10> C 	 -4.96583 	 43.6038 	 43.8691
| 11> C 	 -6.27346 	 43.9454 	 44.0088
| 12> H 	 -4.31921 	 43.4398 	 44.7532
| 13> C 	 -2.8738 	 43.351 	 42.3175
| 14> H 	 -2.59698 	 43.2802 	 41.3106
| 15> H 	 -2.61566 	 42.3438 	 42.5637
| 16> C 	 -1.96099 	 44.2722 	 43.0501
| 17> H 	 -2.29255 	 44.4969 	 44.0487
| 18> H 	 -0.986358 	 43.8727 	 43.0831
| 19> C 	 -1.75344 	 45.5746 	 42.3362
| 20> H 	 -1.21832 	 45.4183 	 41.3928
| 21> H 	 -2.6786 	 46.0424 	 41.9276
| 22> H 	 -1.26595 	 46.1659 	 43.0674
| 23> S 	 -8.63495 	 43.0387 	 45.0383
| 24> C 	 -9.01367 	 43.3891 	 46.722
| 25> C 	 -7.94594 	 44.0316 	 47.3703
| 26> C 	 -6.89566 	 44.3326 	 46.4947
| 27> C 	 -7.12611 	 43.8931 	 45.1845
| 28> H 	 -7.96954 	 44.3411 	 48.4306
| 29> C 	 -5.57065 	 44.9234 	 46.8999
| 30> H 	 -5.75299 	 45.7418 	 47.5704
| 31> H 	 -5.05528 	 45.3164 	 45.9637
| 32> C 	 -4.64364 	 43.8519 	 47.507
| 33> H 	 -4.44571 	 42.9875 	 46.8259
| 34> H 	 -5.13002 	 43.3703 	 48.3148
| 35> C 	 -3.37006 	 44.5181 	 48.1042
| 36> H 	 -2.71088 	 43.7975 	 48.6746
| 37> H 	 -3.58794 	 45.3817 	 48.7482
| 38> H 	 -2.67401 	 44.867 	 47.298
| 39> H 	 -5.12574 	 43.9948 	 40.6327
| 40> H 	 -9.82934 	 42.9226 	 47.194
| 41> *
| 42>
| 43>                          ****END OF INPUT****

CARTESIAN COORDINATES (ANGSTROEM)
---------------------------------
  S     -6.850620   44.230700   42.405900
  C     -5.310160   43.989400   41.668600
  C     -4.398040   43.579700   42.591400
  C     -4.965830   43.603800   43.869100
  C     -6.273460   43.945400   44.008800
  H     -4.319210   43.439800   44.753200
  C     -2.873800   43.351000   42.317500
  H     -2.596980   43.280200   41.310600
  H     -2.615660   42.343800   42.563700
  C     -1.960990   44.272200   43.050100
  H     -2.292550   44.496900   44.048700
  H     -0.986358   43.872700   43.083100
  C     -1.753440   45.574600   42.336200
  H     -1.218320   45.418300   41.392800
  H     -2.678600   46.042400   41.927600
  H     -1.265950   46.165900   43.067400
  S     -8.634950   43.038700   45.038300
  C     -9.013670   43.389100   46.722000
  C     -7.945940   44.031600   47.370300
  C     -6.895660   44.332600   46.494700
  C     -7.126110   43.893100   45.184500
  H     -7.969540   44.341100   48.430600
  C     -5.570650   44.923400   46.899900
  H     -5.752990   45.741800   47.570400
  H     -5.055280   45.316400   45.963700
  C     -4.643640   43.851900   47.507000
  H     -4.445710   42.987500   46.825900
  H     -5.130020   43.370300   48.314800
  C     -3.370060   44.518100   48.104200
  H     -2.710880   43.797500   48.674600
  H     -3.587940   45.381700   48.748200
  H     -2.674010   44.867000   47.298000
  H     -5.125740   43.994800   40.632700
  H     -9.829340   42.922600   47.194000

 Total Charge           Charge          ....    0
 Multiplicity           Mult            ....    1
 Number of Electrons    NEL             ....  134
 Basis Dimension        Dim             ....  322

ORBITAL ENERGIES
----------------

  NO   OCC          E(Eh)            E(eV)
   0   2.0000     -88.968840     -2420.9652
   1   2.0000     -88.963003     -2420.8064
   2   2.0000     -10.326778      -281.0059
   3   2.0000     -10.325894      -280.9819
   4   2.0000     -10.318647      -280.7847
   5   2.0000     -10.307932      -280.4931
   6   2.0000     -10.300440      -280.2892
   7   2.0000     -10.299721      -280.2696
   8   2.0000     -10.297787      -280.2170
   9   2.0000     -10.294507      -280.1278
  10   2.0000     -10.290814      -280.0273
  11   2.0000     -10.289127      -279.9814
  12   2.0000     -10.288395      -279.9615
  13   2.0000     -10.286228      -279.9025
  14   2.0000     -10.275579      -279.6127
  15   2.0000     -10.270476      -279.4739
  16   2.0000      -8.083507      -219.9634
  17   2.0000      -8.078752      -219.8340
  18   2.0000      -6.041846      -164.4070
  19   2.0000      -6.038007      -164.3025
  20   2.0000      -6.037226      -164.2813
  21   2.0000      -6.034464      -164.2061
  22   2.0000      -6.033012      -164.1666
  23   2.0000      -6.029585      -164.0734
  24   2.0000      -1.015397       -27.6304
  25   2.0000      -0.990332       -26.9483
  26   2.0000      -0.921794       -25.0833
  27   2.0000      -0.909868       -24.7588
  28   2.0000      -0.874924       -23.8079
  29   2.0000      -0.851564       -23.1722
  30   2.0000      -0.846141       -23.0247
  31   2.0000      -0.815574       -22.1929
  32   2.0000      -0.788167       -21.4471
  33   2.0000      -0.771797       -21.0017
  34   2.0000      -0.709112       -19.2959
  35   2.0000      -0.702278       -19.1100
  36   2.0000      -0.694510       -18.8986
  37   2.0000      -0.665923       -18.1207
  38   2.0000      -0.647244       -17.6124
  39   2.0000      -0.627813       -17.0837
  40   2.0000      -0.599106       -16.3025
  41   2.0000      -0.577024       -15.7016
  42   2.0000      -0.563619       -15.3369
  43   2.0000      -0.559147       -15.2152
  44   2.0000      -0.541760       -14.7420
  45   2.0000      -0.523747       -14.2519
  46   2.0000      -0.519253       -14.1296
  47   2.0000      -0.513586       -13.9754
  48   2.0000      -0.510019       -13.8783
  49   2.0000      -0.503511       -13.7012
  50   2.0000      -0.487771       -13.2729
  51   2.0000      -0.480140       -13.0653
  52   2.0000      -0.476958       -12.9787
  53   2.0000      -0.463774       -12.6199
  54   2.0000      -0.458160       -12.4672
  55   2.0000      -0.452841       -12.3224
  56   2.0000      -0.445167       -12.1136
  57   2.0000      -0.441735       -12.0202
  58   2.0000      -0.430848       -11.7240
  59   2.0000      -0.424050       -11.5390
  60   2.0000      -0.421783       -11.4773
  61   2.0000      -0.417554       -11.3622
  62   2.0000      -0.407679       -11.0935
  63   2.0000      -0.352616        -9.5952
  64   2.0000      -0.335027        -9.1165
  65   2.0000      -0.332015        -9.0346
  66   2.0000      -0.290063        -7.8930
  67   0.0000       0.028663         0.7800
  68   0.0000       0.073020         1.9870
  69   0.0000       0.113193         3.0801
  70   0.0000       0.120721         3.2850
  71   0.0000       0.131247         3.5714

MULLIKEN ATOMIC CHARGES
-----------------------
   0 S :    0.104707
   1 C :   -0.106304
   2 C :   -0.071148
   3 C :   -0.005629
   4 C :   -0.126021
   5 H :   -0.000873
   6 C :    0.127035
   7 H :   -0.014630
   8 H :    0.010297
   9 C :   -0.050860
  10 H :    0.023542
  11 H :    0.015309
  12 C :   -0.048831
  13 H :    0.020234
  14 H :    0.031041
  15 H :    0.031365
  16 S :    0.113822
  17 C :   -0.082431
  18 C :   -0.045228
  19 C :   -0.027530
  20 C :   -0.153354
  21 H :    0.032873
  22 C :    0.047288
  23 H :    0.020098
  24 H :    0.044105
  25 C :   -0.062606
  26 H :    0.041864
  27 H :    0.012281
  28 C :   -0.070066
  29 H :    0.041059
  30 H :    0.039789
  31 H :    0.031574
  32 H :    0.029367
  33 H :    0.047859
Sum of atomic charges:   -0.0000000

LOEWDIN ATOMIC CHARGES
----------------------
   0 S :    0.422465
   1 C :   -0.191512
   2 C :   -0.063836
   3 C :   -0.072918
   4 C :   -0.204862
   5 H :    0.028844
   6 C :   -0.023984
   7 H :    0.021971
   8 H :    0.029471
   9 C :   -0.037734
  10 H :    0.020417
  11 H :    0.022919
  12 C :   -0.061836
  13 H :    0.022474
  14 H :    0.026736
  15 H :    0.022509
  16 S :    0.416424
  17 C :   -0.176529
  18 C :   -0.069070
  19 C :   -0.058562
  20 C :   -0.199963
  21 H :    0.039177
  22 C :   -0.030742
  23 H :    0.026318
  24 H :    0.038972
  25 C :   -0.041299
  26 H :    0.029419
  27 H :    0.017734
  28 C :   -0.074871
  29 H :    0.030667
  30 H :    0.026746
  31 H :    0.025516
  32 H :    0.020865
  33 H :    0.018075

  Mayer bond orders larger than 0.100000
B(  0-S ,  1-C ) :   1.1567 B(  0-S ,  4-C ) :   1.1503 B(  1-C ,  2-C ) :   1.5921
B(  1-C , 32-H ) :   0.9724 B(  2-C ,  3-C ) :   1.2881 B(  2-C ,  6-C ) :   1.0148
B(  3-C ,  4-C ) :   1.5438 B(  3-C ,  5-H ) :   0.9843 B(  4-C , 20-C ) :   1.0402
B(  6-C ,  7-H ) :   0.9363 B(  6-C ,  8-H ) :   0.9279 B(  6-C ,  9-C ) :   1.0841
B(  9-C , 10-H ) :   0.9592 B(  9-C , 11-H ) :   0.9453 B(  9-C , 12-C ) :   1.0800
B( 12-C , 13-H ) :   0.9724 B( 12-C , 14-H ) :   0.9768 B( 12-C , 15-H ) :   0.9748
B( 16-S , 17-C ) :   1.1680 B( 16-S , 20-C ) :   1.1612 B( 17-C , 18-C ) :   1.5611
B( 17-C , 20-C ) :   0.1121 B( 17-C , 33-H ) :   0.9750 B( 18-C , 19-C ) :   1.2829
B( 18-C , 21-H ) :   0.9845 B( 19-C , 20-C ) :   1.5595 B( 19-C , 22-C ) :   1.0558
B( 22-C , 23-H ) :   0.9313 B( 22-C , 24-H ) :   0.9300 B( 22-C , 25-C ) :   1.0570
B( 25-C , 26-H ) :   0.9483 B( 25-C , 27-H ) :   0.9517 B( 25-C , 28-C ) :   1.0707
B( 28-C , 29-H ) :   0.9748 B( 28-C , 30-H ) :   0.9743 B( 28-C , 31-H ) :   0.9750

Dispersion correction           -0.014874119
FINAL SINGLE POINT ENERGY     -1339.877767531714

DIPOLE MOMENT
-------------
                                X             Y             Z
Electronic contribution:    -30.21854      -5.74321      -8.30534
Nuclear contribution   :     30.86086       5.61325       8.66151
                        -----------------------------------------
Total Dipole Moment    :      0.64232      -0.12996       0.35617
                        -----------------------------------------
Magnitude (a.u.)       :      0.74587
Magnitude (Debye)      :      1.89586

Rotational constants in cm-1:     0.018168     0.010127     0.006938
Rotational constants in MHz :   544.669381   303.611709   208.004280

                             ****ORCA TERMINATED NORMALLY****
TOTAL RUN TIME: 0 days 0 hours 0 minutes 35 seconds 892 msec
