                         Program Version 4.2.1 -  RELEASE  -
|  1> ! wB97X-D3 SP def2-SVP
|  2> %pal
|  3> nprocs 16
|  4> end
|  5>
|  6> * xyz 0 1
|  7> S 	 -42.9306 	 49.9417 	 104.689
|  8> C 	 -42.2721 	 48.8628 	 103.419
|  9> C 	 -41.2696 	 49.4013 	 102.708
| 10> C 	 -40.9156 	 50.7192 	 103.17
| 11> C 	 -41.7449 	 51.0727 	 104.241
| 12> H 	 -40.2647 	 51.5899 	 102.949
| 13> C 	 -40.4925 	 48.6894 	 101.58
| 14> H 	 -41.0595 	 47.8283 	 101.212
| 15> H 	 -39.5625 	 48.4642 	 102.06
| 16> C 	 -40.1003 	 49.5642 	 100.358
| 17> H 	 -39.2337 	 50.3219 	 100.591
| 18> H 	 -39.5389 	 48.9656 	 99.6498
| 19> C 	 -41.2414 	 50.3538 	 99.7157
| 20> H 	 -41.7563 	 49.6402 	 99.0093
| 21> H 	 -41.8237 	 51.0026 	 100.346
| 22> H 	 -40.779 	 51.0084 	 98.9847
| 23> S 	 -41.3432 	 51.8839 	 106.716
| 24> C 	 -41.0793 	 53.5944 	 107.072
| 25> C 	 -41.1005 	 54.353 	 105.942
| 26> C 	 -41.3953 	 53.5632 	 104.792
| 27> C 	 -41.5416 	 52.2304 	 105.044
| 28> H 	 -40.8517 	 55.3471 	 106.05
| 29> C 	 -41.4643 	 54.246 	 103.469
| 30> H 	 -40.7707 	 53.5901 	 102.93
| 31> H 	 -41.003 	 55.2759 	 103.509
| 32> C 	 -42.8159 	 54.1064 	 102.761
| 33> H 	 -43.0265 	 53.0492 	 102.559
| 34> H 	 -42.772 	 54.5721 	 101.794
| 35> C 	 -43.9994 	 54.7287 	 103.531
| 36> H 	 -44.9744 	 54.574 	 103.055
| 37> H 	 -43.9114 	 55.8259 	 103.621
| 38> H 	 -43.9732 	 54.2676 	 104.474
| 39> H 	 -42.5345 	 47.8054 	 103.271
| 40> H 	 -40.7589 	 53.9701 	 107.966
| 41> *
| 42>
| 43>                          ****END OF INPUT****

CARTESIAN COORDINATES (ANGSTROEM)
---------------------------------
  S    -42.930600   49.941700  104.689000
  C    -42.272100   48.862800  103.419000
  C    -41.269600   49.401300  102.708000
  C    -40.915600   50.719200  103.170000
  C    -41.744900   51.072700  104.241000
  H    -40.264700   51.589900  102.949000
  C    -40.492500   48.689400  101.580000
  H    -41.059500   47.828300  101.212000
  H    -39.562500   48.464200  102.060000
  C    -40.100300   49.564200  100.358000
  H    -39.233700   50.321900  100.591000
  H    -39.538900   48.965600   99.649800
  C    -41.241400   50.353800   99.715700
  H    -41.756300   49.640200   99.009300
  H    -41.823700   51.002600  100.346000
  H    -40.779000   51.008400   98.984700
  S    -41.343200   51.883900  106.716000
  C    -41.079300   53.594400  107.072000
  C    -41.100500   54.353000  105.942000
  C    -41.395300   53.563200  104.792000
  C    -41.541600   52.230400  105.044000
  H    -40.851700   55.347100  106.050000
  C    -41.464300   54.246000  103.469000
  H    -40.770700   53.590100  102.930000
  H    -41.003000   55.275900  103.509000
  C    -42.815900   54.106400  102.761000
  H    -43.026500   53.049200  102.559000
  H    -42.772000   54.572100  101.794000
  C    -43.999400   54.728700  103.531000
  H    -44.974400   54.574000  103.055000
  H    -43.911400   55.825900  103.621000
  H    -43.973200   54.267600  104.474000
  H    -42.534500   47.805400  103.271000
  H    -40.758900   53.970100  107.966000

 Total Charge           Charge          ....    0
 Multiplicity           Mult            ....    1
 Number of Electrons    NEL             ....  134
 Basis Dimension        Dim             ....  322

ORBITAL ENERGIES
----------------

  NO   OCC          E(Eh)            E(eV)
   0   2.0000     -88.969062     -2420.9712
   1   2.0000     -88.961867     -2420.7755
   2   2.0000     -10.323205      -280.9087
   3   2.0000     -10.316252      -280.7195
   4   2.0000     -10.310714      -280.5688
   5   2.0000     -10.307030      -280.4686
   6   2.0000     -10.304701      -280.4052
   7   2.0000     -10.297425      -280.2072
   8   2.0000     -10.297305      -280.2039
   9   2.0000     -10.295969      -280.1676
  10   2.0000     -10.295473      -280.1541
  11   2.0000     -10.292370      -280.0696
  12   2.0000     -10.284722      -279.8615
  13   2.0000     -10.281510      -279.7741
  14   2.0000     -10.278677      -279.6970
  15   2.0000     -10.268166      -279.4110
  16   2.0000      -8.084159      -219.9811
  17   2.0000      -8.077218      -219.7923
  18   2.0000      -6.042539      -164.4258
  19   2.0000      -6.038842      -164.3253
  20   2.0000      -6.035726      -164.2404
  21   2.0000      -6.034789      -164.2150
  22   2.0000      -6.031629      -164.1290
  23   2.0000      -6.027927      -164.0282
  24   2.0000      -1.017137       -27.6777
  25   2.0000      -0.987238       -26.8641
  26   2.0000      -0.912186       -24.8218
  27   2.0000      -0.909156       -24.7394
  28   2.0000      -0.876809       -23.8592
  29   2.0000      -0.849392       -23.1131
  30   2.0000      -0.844764       -22.9872
  31   2.0000      -0.817620       -22.2486
  32   2.0000      -0.788110       -21.4456
  33   2.0000      -0.774243       -21.0682
  34   2.0000      -0.713564       -19.4171
  35   2.0000      -0.695579       -18.9277
  36   2.0000      -0.688803       -18.7433
  37   2.0000      -0.672623       -18.3030
  38   2.0000      -0.641469       -17.4553
  39   2.0000      -0.611006       -16.6263
  40   2.0000      -0.586244       -15.9525
  41   2.0000      -0.567191       -15.4340
  42   2.0000      -0.559203       -15.2167
  43   2.0000      -0.553800       -15.0697
  44   2.0000      -0.549777       -14.9602
  45   2.0000      -0.542572       -14.7641
  46   2.0000      -0.520890       -14.1741
  47   2.0000      -0.508564       -13.8387
  48   2.0000      -0.499479       -13.5915
  49   2.0000      -0.497107       -13.5270
  50   2.0000      -0.491246       -13.3675
  51   2.0000      -0.479245       -13.0409
  52   2.0000      -0.471957       -12.8426
  53   2.0000      -0.466848       -12.7036
  54   2.0000      -0.462356       -12.5813
  55   2.0000      -0.451042       -12.2735
  56   2.0000      -0.442823       -12.0498
  57   2.0000      -0.433838       -11.8053
  58   2.0000      -0.429920       -11.6987
  59   2.0000      -0.426394       -11.6028
  60   2.0000      -0.420514       -11.4428
  61   2.0000      -0.409081       -11.1317
  62   2.0000      -0.404735       -11.0134
  63   2.0000      -0.346833        -9.4378
  64   2.0000      -0.336529        -9.1574
  65   2.0000      -0.326889        -8.8951
  66   2.0000      -0.291932        -7.9439
  67   0.0000       0.033492         0.9114
  68   0.0000       0.072344         1.9686
  69   0.0000       0.107569         2.9271
  70   0.0000       0.117325         3.1926
  71   0.0000       0.129879         3.5342

MULLIKEN ATOMIC CHARGES
-----------------------
   0 S :    0.124054
   1 C :   -0.139554
   2 C :   -0.069375
   3 C :    0.017066
   4 C :   -0.185583
   5 H :    0.023398
   6 C :    0.133125
   7 H :    0.027281
   8 H :    0.038805
   9 C :   -0.140096
  10 H :    0.027477
  11 H :    0.026176
  12 C :   -0.031226
  13 H :    0.035285
  14 H :    0.053011
  15 H :    0.017985
  16 S :    0.102129
  17 C :   -0.049108
  18 C :   -0.018412
  19 C :   -0.053275
  20 C :   -0.159528
  21 H :   -0.011240
  22 C :    0.076281
  23 H :    0.012791
  24 H :    0.034849
  25 C :   -0.065781
  26 H :    0.041813
  27 H :    0.020202
  28 C :   -0.043724
  29 H :    0.034572
  30 H :    0.025997
  31 H :    0.034745
  32 H :    0.044954
  33 H :    0.014904
Sum of atomic charges:   -0.0000000

LOEWDIN ATOMIC CHARGES
----------------------
   0 S :    0.409077
   1 C :   -0.196166
   2 C :   -0.057046
   3 C :   -0.074171
   4 C :   -0.205963
   5 H :    0.041051
   6 C :   -0.024007
   7 H :    0.030709
   8 H :    0.036889
   9 C :   -0.053421
  10 H :    0.027429
  11 H :    0.024401
  12 C :   -0.072118
  13 H :    0.033996
  14 H :    0.026606
  15 H :    0.026559
  16 S :    0.410850
  17 C :   -0.159752
  18 C :   -0.058832
  19 C :   -0.062536
  20 C :   -0.215329
  21 H :    0.021741
  22 C :   -0.035785
  23 H :    0.031714
  24 H :    0.036657
  25 C :   -0.037944
  26 H :    0.027822
  27 H :    0.019215
  28 C :   -0.063568
  29 H :    0.027429
  30 H :    0.024647
  31 H :    0.018972
  32 H :    0.032249
  33 H :    0.008625

  Mayer bond orders larger than 0.100000
B(  0-S ,  1-C ) :   1.0967 B(  0-S ,  4-C ) :   1.1592 B(  1-C ,  2-C ) :   1.6900
B(  1-C , 32-H ) :   0.9596 B(  2-C ,  3-C ) :   1.1598 B(  2-C ,  6-C ) :   1.0112
B(  3-C ,  4-C ) :   1.5956 B(  3-C ,  5-H ) :   0.9843 B(  4-C , 20-C ) :   1.0382
B(  6-C ,  7-H ) :   0.9434 B(  6-C ,  8-H ) :   0.9291 B(  6-C ,  9-C ) :   1.0736
B(  9-C , 10-H ) :   0.9505 B(  9-C , 11-H ) :   0.9547 B(  9-C , 12-C ) :   1.0810
B( 12-C , 13-H ) :   0.9734 B( 12-C , 14-H ) :   0.9718 B( 12-C , 15-H ) :   0.9689
B( 16-S , 17-C ) :   1.1464 B( 16-S , 20-C ) :   1.1392 B( 17-C , 18-C ) :   1.6305
B( 17-C , 33-H ) :   0.9746 B( 18-C , 19-C ) :   1.2071 B( 18-C , 21-H ) :   1.0097
B( 19-C , 20-C ) :   1.6080 B( 19-C , 22-C ) :   1.0279 B( 22-C , 23-H ) :   0.9249
B( 22-C , 24-H ) :   0.9388 B( 22-C , 25-C ) :   1.0773 B( 25-C , 26-H ) :   0.9514
B( 25-C , 27-H ) :   0.9545 B( 25-C , 28-C ) :   1.0735 B( 28-C , 29-H ) :   0.9747
B( 28-C , 30-H ) :   0.9752 B( 28-C , 31-H ) :   0.9765

Dispersion correction           -0.015705396
FINAL SINGLE POINT ENERGY     -1339.856171574397

DIPOLE MOMENT
-------------
                                X             Y             Z
Electronic contribution:     -1.34053      -7.53443      24.66312
Nuclear contribution   :      1.74266       7.73374     -25.16345
                        -----------------------------------------
Total Dipole Moment    :      0.40214       0.19932      -0.50032
                        -----------------------------------------
Magnitude (a.u.)       :      0.67213
Magnitude (Debye)      :      1.70843

Rotational constants in cm-1:     0.019761     0.009741     0.007957
Rotational constants in MHz :   592.423279   292.018807   238.546188

                             ****ORCA TERMINATED NORMALLY****
TOTAL RUN TIME: 0 days 0 hours 0 minutes 33 seconds 345 msec
