                         Program Version 4.2.1 -  RELEASE  -
|  1> ! wB97X-D3 SP def2-SVP
|  2> %pal
|  3> nprocs 16
|  4> end
|  5>
|  6> * xyz 0 1
|  7> S 	 -7.6169 	 -6.80362 	 84.6995
|  8> C 	 -8.05421 	 -8.48455 	 84.8267
|  9> C 	 -7.21811 	 -9.22006 	 85.5925
| 10> C 	 -6.21896 	 -8.40946 	 86.1502
| 11> C 	 -6.23795 	 -7.08918 	 85.6858
| 12> H 	 -5.43991 	 -8.72929 	 86.8835
| 13> C 	 -7.33279 	 -10.617 	 86.0159
| 14> H 	 -8.37131 	 -10.6678 	 86.4971
| 15> H 	 -6.68576 	 -10.8572 	 86.8295
| 16> C 	 -7.21024 	 -11.6844 	 84.921
| 17> H 	 -7.73782 	 -11.4285 	 83.9558
| 18> H 	 -6.16566 	 -11.8263 	 84.5634
| 19> C 	 -7.6644 	 -13.0987 	 85.4125
| 20> H 	 -7.63623 	 -13.8888 	 84.5909
| 21> H 	 -6.96212 	 -13.4405 	 86.1797
| 22> H 	 -8.66474 	 -13.0564 	 85.8212
| 23> S 	 -5.13528 	 -5.63996 	 87.7592
| 24> C 	 -4.2305 	 -4.28781 	 87.4199
| 25> C 	 -4.18178 	 -3.96505 	 86.0923
| 26> C 	 -4.87292 	 -4.91935 	 85.3415
| 27> C 	 -5.40848 	 -5.94613 	 86.0827
| 28> H 	 -3.64349 	 -3.14594 	 85.6175
| 29> C 	 -4.93612 	 -4.76935 	 83.7872
| 30> H 	 -4.37891 	 -3.96319 	 83.3408
| 31> H 	 -5.95221 	 -4.59698 	 83.4495
| 32> C 	 -4.45075 	 -5.94606 	 83.003
| 33> H 	 -4.97256 	 -6.87878 	 83.1385
| 34> H 	 -3.42483 	 -6.12971 	 83.3497
| 35> C 	 -4.42023 	 -5.61152 	 81.4829
| 36> H 	 -5.44387 	 -5.28785 	 81.2253
| 37> H 	 -4.20933 	 -6.52827 	 80.8944
| 38> H 	 -3.64921 	 -4.91304 	 81.1737
| 39> H 	 -8.96253 	 -8.90682 	 84.4929
| 40> H 	 -3.84568 	 -3.51584 	 88.08
| 41> *
| 42>
| 43>                          ****END OF INPUT****

CARTESIAN COORDINATES (ANGSTROEM)
---------------------------------
  S     -7.616900   -6.803620   84.699500
  C     -8.054210   -8.484550   84.826700
  C     -7.218110   -9.220060   85.592500
  C     -6.218960   -8.409460   86.150200
  C     -6.237950   -7.089180   85.685800
  H     -5.439910   -8.729290   86.883500
  C     -7.332790  -10.617000   86.015900
  H     -8.371310  -10.667800   86.497100
  H     -6.685760  -10.857200   86.829500
  C     -7.210240  -11.684400   84.921000
  H     -7.737820  -11.428500   83.955800
  H     -6.165660  -11.826300   84.563400
  C     -7.664400  -13.098700   85.412500
  H     -7.636230  -13.888800   84.590900
  H     -6.962120  -13.440500   86.179700
  H     -8.664740  -13.056400   85.821200
  S     -5.135280   -5.639960   87.759200
  C     -4.230500   -4.287810   87.419900
  C     -4.181780   -3.965050   86.092300
  C     -4.872920   -4.919350   85.341500
  C     -5.408480   -5.946130   86.082700
  H     -3.643490   -3.145940   85.617500
  C     -4.936120   -4.769350   83.787200
  H     -4.378910   -3.963190   83.340800
  H     -5.952210   -4.596980   83.449500
  C     -4.450750   -5.946060   83.003000
  H     -4.972560   -6.878780   83.138500
  H     -3.424830   -6.129710   83.349700
  C     -4.420230   -5.611520   81.482900
  H     -5.443870   -5.287850   81.225300
  H     -4.209330   -6.528270   80.894400
  H     -3.649210   -4.913040   81.173700
  H     -8.962530   -8.906820   84.492900
  H     -3.845680   -3.515840   88.080000

 Total Charge           Charge          ....    0
 Multiplicity           Mult            ....    1
 Number of Electrons    NEL             ....  134
 Basis Dimension        Dim             ....  322

ORBITAL ENERGIES
----------------

  NO   OCC          E(Eh)            E(eV)
   0   2.0000     -88.969370     -2420.9796
   1   2.0000     -88.968835     -2420.9651
   2   2.0000     -10.327640      -281.0294
   3   2.0000     -10.321088      -280.8511
   4   2.0000     -10.307367      -280.4777
   5   2.0000     -10.305035      -280.4143
   6   2.0000     -10.297099      -280.1983
   7   2.0000     -10.295435      -280.1530
   8   2.0000     -10.294744      -280.1342
   9   2.0000     -10.293445      -280.0989
  10   2.0000     -10.292160      -280.0639
  11   2.0000     -10.285423      -279.8806
  12   2.0000     -10.285256      -279.8760
  13   2.0000     -10.284680      -279.8604
  14   2.0000     -10.276652      -279.6419
  15   2.0000     -10.274061      -279.5714
  16   2.0000      -8.085273      -220.0115
  17   2.0000      -8.084219      -219.9828
  18   2.0000      -6.043494      -164.4518
  19   2.0000      -6.042628      -164.4283
  20   2.0000      -6.039527      -164.3439
  21   2.0000      -6.038720      -164.3219
  22   2.0000      -6.036244      -164.2545
  23   2.0000      -6.035079      -164.2229
  24   2.0000      -1.019136       -27.7321
  25   2.0000      -0.998162       -27.1614
  26   2.0000      -0.916450       -24.9379
  27   2.0000      -0.909046       -24.7364
  28   2.0000      -0.869356       -23.6564
  29   2.0000      -0.855024       -23.2664
  30   2.0000      -0.847915       -23.0729
  31   2.0000      -0.811409       -22.0796
  32   2.0000      -0.782150       -21.2834
  33   2.0000      -0.772341       -21.0165
  34   2.0000      -0.706233       -19.2176
  35   2.0000      -0.701504       -19.0889
  36   2.0000      -0.686315       -18.6756
  37   2.0000      -0.665477       -18.1085
  38   2.0000      -0.637580       -17.3494
  39   2.0000      -0.617447       -16.8016
  40   2.0000      -0.603969       -16.4348
  41   2.0000      -0.577792       -15.7225
  42   2.0000      -0.567159       -15.4332
  43   2.0000      -0.555237       -15.1088
  44   2.0000      -0.525866       -14.3095
  45   2.0000      -0.517730       -14.0882
  46   2.0000      -0.514148       -13.9907
  47   2.0000      -0.507495       -13.8096
  48   2.0000      -0.504812       -13.7366
  49   2.0000      -0.501517       -13.6470
  50   2.0000      -0.488976       -13.3057
  51   2.0000      -0.481713       -13.1081
  52   2.0000      -0.473039       -12.8720
  53   2.0000      -0.465294       -12.6613
  54   2.0000      -0.463244       -12.6055
  55   2.0000      -0.448567       -12.2061
  56   2.0000      -0.442185       -12.0325
  57   2.0000      -0.440993       -12.0000
  58   2.0000      -0.431130       -11.7316
  59   2.0000      -0.426747       -11.6124
  60   2.0000      -0.421677       -11.4744
  61   2.0000      -0.412751       -11.2315
  62   2.0000      -0.408642       -11.1197
  63   2.0000      -0.347710        -9.4617
  64   2.0000      -0.335961        -9.1420
  65   2.0000      -0.334988        -9.1155
  66   2.0000      -0.289225        -7.8702
  67   0.0000       0.032882         0.8948
  68   0.0000       0.075076         2.0429
  69   0.0000       0.113935         3.1003
  70   0.0000       0.119160         3.2425
  71   0.0000       0.134250         3.6531

MULLIKEN ATOMIC CHARGES
-----------------------
   0 S :    0.127578
   1 C :   -0.106010
   2 C :   -0.043221
   3 C :   -0.015158
   4 C :   -0.170880
   5 H :    0.024431
   6 C :    0.064026
   7 H :    0.041348
   8 H :    0.013350
   9 C :   -0.099376
  10 H :    0.037988
  11 H :    0.034710
  12 C :   -0.070960
  13 H :    0.045233
  14 H :    0.033955
  15 H :    0.032794
  16 S :    0.146417
  17 C :   -0.069059
  18 C :   -0.060835
  19 C :   -0.020060
  20 C :   -0.145434
  21 H :    0.018053
  22 C :    0.074608
  23 H :    0.007533
  24 H :    0.019140
  25 C :   -0.091554
  26 H :    0.041137
  27 H :    0.022052
  28 C :   -0.065895
  29 H :    0.030801
  30 H :    0.033578
  31 H :    0.036589
  32 H :    0.019596
  33 H :    0.053525
Sum of atomic charges:    0.0000000

LOEWDIN ATOMIC CHARGES
----------------------
   0 S :    0.438837
   1 C :   -0.193891
   2 C :   -0.069227
   3 C :   -0.070558
   4 C :   -0.200605
   5 H :    0.036356
   6 C :   -0.034435
   7 H :    0.044129
   8 H :    0.027374
   9 C :   -0.046523
  10 H :    0.027056
  11 H :    0.028149
  12 C :   -0.070715
  13 H :    0.033524
  14 H :    0.024390
  15 H :    0.020027
  16 S :    0.465566
  17 C :   -0.217859
  18 C :   -0.076621
  19 C :   -0.056721
  20 C :   -0.217365
  21 H :    0.034535
  22 C :   -0.034851
  23 H :    0.028078
  24 H :    0.021688
  25 C :   -0.043489
  26 H :    0.018679
  27 H :    0.021986
  28 C :   -0.067792
  29 H :    0.025468
  30 H :    0.029535
  31 H :    0.022289
  32 H :    0.017942
  33 H :    0.035044

  Mayer bond orders larger than 0.100000
B(  0-S ,  1-C ) :   1.1383 B(  0-S ,  4-C ) :   1.1780 B(  1-C ,  2-C ) :   1.6103
B(  1-C , 32-H ) :   0.9672 B(  2-C ,  3-C ) :   1.2590 B(  2-C ,  6-C ) :   1.0199
B(  3-C ,  4-C ) :   1.5509 B(  3-C ,  5-H ) :   0.9913 B(  4-C , 20-C ) :   1.0254
B(  6-C ,  7-H ) :   0.9369 B(  6-C ,  8-H ) :   0.9404 B(  6-C ,  9-C ) :   1.0477
B(  9-C , 10-H ) :   0.9634 B(  9-C , 11-H ) :   0.9539 B(  9-C , 12-C ) :   1.0728
B( 12-C , 13-H ) :   0.9755 B( 12-C , 14-H ) :   0.9757 B( 12-C , 15-H ) :   0.9782
B( 16-S , 17-C ) :   1.1933 B( 16-S , 20-C ) :   1.1522 B( 17-C , 18-C ) :   1.5600
B( 17-C , 33-H ) :   0.9583 B( 18-C , 19-C ) :   1.3088 B( 18-C , 21-H ) :   0.9917
B( 19-C , 20-C ) :   1.5649 B( 19-C , 22-C ) :   1.0232 B( 22-C , 23-H ) :   0.9443
B( 22-C , 24-H ) :   0.9287 B( 22-C , 25-C ) :   1.0610 B( 25-C , 26-H ) :   0.9528
B( 25-C , 27-H ) :   0.9548 B( 25-C , 28-C ) :   1.0856 B( 28-C , 29-H ) :   0.9736
B( 28-C , 30-H ) :   0.9742 B( 28-C , 31-H ) :   0.9749

Dispersion correction           -0.014140799
FINAL SINGLE POINT ENERGY     -1339.883740285185

DIPOLE MOMENT
-------------
                                X             Y             Z
Electronic contribution:     -1.94952      17.25228      15.40540
Nuclear contribution   :      1.99475     -17.45777     -15.46473
                        -----------------------------------------
Total Dipole Moment    :      0.04524      -0.20549      -0.05933
                        -----------------------------------------
Magnitude (a.u.)       :      0.21862
Magnitude (Debye)      :      0.55568

Rotational constants in cm-1:     0.020531     0.007936     0.006480
Rotational constants in MHz :   615.491269   237.908600   194.264295

                             ****ORCA TERMINATED NORMALLY****
TOTAL RUN TIME: 0 days 0 hours 0 minutes 35 seconds 24 msec
