                         Program Version 4.2.1 -  RELEASE  -
|  1> ! wB97X-D3 SP def2-SVP
|  2> %pal
|  3> nprocs 16
|  4> end
|  5>
|  6> * xyz 0 1
|  7> S 	 2.79481 	 23.1182 	 57.7469
|  8> C 	 4.43208 	 23.4906 	 57.2872
|  9> C 	 5.1916 	 22.3173 	 57.1567
| 10> C 	 4.42504 	 21.121 	 57.4427
| 11> C 	 3.13327 	 21.4387 	 57.7577
| 12> H 	 4.75844 	 20.0695 	 57.3425
| 13> C 	 6.69366 	 22.2231 	 56.7956
| 14> H 	 6.71086 	 22.3367 	 55.7323
| 15> H 	 7.0015 	 21.2503 	 56.8916
| 16> C 	 7.5951 	 23.1916 	 57.5081
| 17> H 	 8.59342 	 23.1507 	 57.0825
| 18> H 	 7.20573 	 24.194 	 57.3065
| 19> C 	 7.8028 	 22.9081 	 58.9689
| 20> H 	 7.60177 	 21.8072 	 59.1203
| 21> H 	 8.88092 	 22.9654 	 59.1992
| 22> H 	 7.1437 	 23.4591 	 59.5942
| 23> S 	 1.41566 	 19.3684 	 57.1709
| 24> C 	 0.818417 	 18.3703 	 58.4908
| 25> C 	 1.08952 	 18.95 	 59.7019
| 26> C 	 1.83568 	 20.1384 	 59.5348
| 27> C 	 2.19479 	 20.4584 	 58.2455
| 28> H 	 0.775316 	 18.5725 	 60.6445
| 29> C 	 2.2512 	 21.0351 	 60.6387
| 30> H 	 1.72581 	 21.9968 	 60.5446
| 31> H 	 3.33109 	 21.2484 	 60.4637
| 32> C 	 1.9609 	 20.656 	 62.1303
| 33> H 	 0.879118 	 20.371 	 62.2751
| 34> H 	 2.23079 	 21.4739 	 62.8089
| 35> C 	 2.95246 	 19.525 	 62.6022
| 36> H 	 2.51309 	 19.0928 	 63.4406
| 37> H 	 3.95564 	 19.8963 	 62.7059
| 38> H 	 3.05458 	 18.6656 	 61.962
| 39> H 	 4.81074 	 24.4791 	 57.1131
| 40> H 	 0.160118 	 17.4873 	 58.4867
| 41> *
| 42>
| 43>                          ****END OF INPUT****

CARTESIAN COORDINATES (ANGSTROEM)
---------------------------------
  S      2.794810   23.118200   57.746900
  C      4.432080   23.490600   57.287200
  C      5.191600   22.317300   57.156700
  C      4.425040   21.121000   57.442700
  C      3.133270   21.438700   57.757700
  H      4.758440   20.069500   57.342500
  C      6.693660   22.223100   56.795600
  H      6.710860   22.336700   55.732300
  H      7.001500   21.250300   56.891600
  C      7.595100   23.191600   57.508100
  H      8.593420   23.150700   57.082500
  H      7.205730   24.194000   57.306500
  C      7.802800   22.908100   58.968900
  H      7.601770   21.807200   59.120300
  H      8.880920   22.965400   59.199200
  H      7.143700   23.459100   59.594200
  S      1.415660   19.368400   57.170900
  C      0.818417   18.370300   58.490800
  C      1.089520   18.950000   59.701900
  C      1.835680   20.138400   59.534800
  C      2.194790   20.458400   58.245500
  H      0.775316   18.572500   60.644500
  C      2.251200   21.035100   60.638700
  H      1.725810   21.996800   60.544600
  H      3.331090   21.248400   60.463700
  C      1.960900   20.656000   62.130300
  H      0.879118   20.371000   62.275100
  H      2.230790   21.473900   62.808900
  C      2.952460   19.525000   62.602200
  H      2.513090   19.092800   63.440600
  H      3.955640   19.896300   62.705900
  H      3.054580   18.665600   61.962000
  H      4.810740   24.479100   57.113100
  H      0.160118   17.487300   58.486700

 Total Charge           Charge          ....    0
 Multiplicity           Mult            ....    1
 Number of Electrons    NEL             ....  134
 Basis Dimension        Dim             ....  322

ORBITAL ENERGIES
----------------

  NO   OCC          E(Eh)            E(eV)
   0   2.0000     -88.969372     -2420.9797
   1   2.0000     -88.963845     -2420.8293
   2   2.0000     -10.322935      -280.9013
   3   2.0000     -10.315209      -280.6911
   4   2.0000     -10.314850      -280.6813
   5   2.0000     -10.313587      -280.6470
   6   2.0000     -10.306265      -280.4477
   7   2.0000     -10.296785      -280.1898
   8   2.0000     -10.293896      -280.1111
   9   2.0000     -10.292347      -280.0690
  10   2.0000     -10.286793      -279.9179
  11   2.0000     -10.284710      -279.8612
  12   2.0000     -10.282303      -279.7957
  13   2.0000     -10.281841      -279.7831
  14   2.0000     -10.275686      -279.6156
  15   2.0000     -10.266541      -279.3668
  16   2.0000      -8.084394      -219.9876
  17   2.0000      -8.078681      -219.8321
  18   2.0000      -6.042799      -164.4329
  19   2.0000      -6.038802      -164.3242
  20   2.0000      -6.037181      -164.2800
  21   2.0000      -6.035311      -164.2292
  22   2.0000      -6.033066      -164.1681
  23   2.0000      -6.029555      -164.0725
  24   2.0000      -1.012524       -27.5522
  25   2.0000      -0.987427       -26.8693
  26   2.0000      -0.918325       -24.9889
  27   2.0000      -0.900828       -24.5128
  28   2.0000      -0.872726       -23.7481
  29   2.0000      -0.851519       -23.1710
  30   2.0000      -0.844128       -22.9699
  31   2.0000      -0.817163       -22.2361
  32   2.0000      -0.786011       -21.3885
  33   2.0000      -0.769105       -20.9284
  34   2.0000      -0.707847       -19.2615
  35   2.0000      -0.699199       -19.0262
  36   2.0000      -0.694301       -18.8929
  37   2.0000      -0.656469       -17.8634
  38   2.0000      -0.645520       -17.5655
  39   2.0000      -0.607440       -16.5293
  40   2.0000      -0.591040       -16.0830
  41   2.0000      -0.582451       -15.8493
  42   2.0000      -0.555542       -15.1171
  43   2.0000      -0.551279       -15.0011
  44   2.0000      -0.548817       -14.9341
  45   2.0000      -0.532118       -14.4797
  46   2.0000      -0.523158       -14.2358
  47   2.0000      -0.514768       -14.0075
  48   2.0000      -0.501913       -13.6577
  49   2.0000      -0.500037       -13.6067
  50   2.0000      -0.490612       -13.3502
  51   2.0000      -0.476913       -12.9775
  52   2.0000      -0.471770       -12.8375
  53   2.0000      -0.467545       -12.7225
  54   2.0000      -0.461537       -12.5591
  55   2.0000      -0.446585       -12.1522
  56   2.0000      -0.441618       -12.0170
  57   2.0000      -0.436660       -11.8821
  58   2.0000      -0.433597       -11.7988
  59   2.0000      -0.424711       -11.5570
  60   2.0000      -0.416200       -11.3254
  61   2.0000      -0.413572       -11.2539
  62   2.0000      -0.405839       -11.0435
  63   2.0000      -0.336095        -9.1456
  64   2.0000      -0.334344        -9.0980
  65   2.0000      -0.320375        -8.7178
  66   2.0000      -0.301731        -8.2105
  67   0.0000       0.042333         1.1520
  68   0.0000       0.062896         1.7115
  69   0.0000       0.119707         3.2574
  70   0.0000       0.125719         3.4210
  71   0.0000       0.128592         3.4992

MULLIKEN ATOMIC CHARGES
-----------------------
   0 S :    0.136813
   1 C :   -0.133422
   2 C :   -0.112421
   3 C :    0.031242
   4 C :   -0.189775
   5 H :    0.034912
   6 C :    0.133751
   7 H :    0.027757
   8 H :   -0.016231
   9 C :   -0.074814
  10 H :    0.023111
  11 H :    0.023131
  12 C :   -0.034144
  13 H :    0.022106
  14 H :    0.035087
  15 H :    0.040340
  16 S :    0.118155
  17 C :   -0.087411
  18 C :   -0.025560
  19 C :   -0.021366
  20 C :   -0.170995
  21 H :    0.002999
  22 C :    0.034401
  23 H :    0.038340
  24 H :    0.042753
  25 C :   -0.096120
  26 H :    0.042812
  27 H :    0.039691
  28 C :   -0.031533
  29 H :    0.015613
  30 H :    0.032239
  31 H :    0.017847
  32 H :    0.043124
  33 H :    0.057568
Sum of atomic charges:    0.0000000

LOEWDIN ATOMIC CHARGES
----------------------
   0 S :    0.436232
   1 C :   -0.208345
   2 C :   -0.052276
   3 C :   -0.059926
   4 C :   -0.211518
   5 H :    0.042250
   6 C :   -0.025740
   7 H :    0.034583
   8 H :    0.013765
   9 C :   -0.045073
  10 H :    0.026573
  11 H :    0.021853
  12 C :   -0.063961
  13 H :    0.031372
  14 H :    0.030999
  15 H :    0.022681
  16 S :    0.421272
  17 C :   -0.190401
  18 C :   -0.070961
  19 C :   -0.058484
  20 C :   -0.221061
  21 H :    0.026737
  22 C :   -0.045493
  23 H :    0.032272
  24 H :    0.038494
  25 C :   -0.040516
  26 H :    0.027164
  27 H :    0.031038
  28 C :   -0.066105
  29 H :    0.016987
  30 H :    0.025224
  31 H :    0.019583
  32 H :    0.023484
  33 H :    0.037297

  Mayer bond orders larger than 0.100000
B(  0-S ,  1-C ) :   1.1412 B(  0-S ,  4-C ) :   1.1729 B(  1-C ,  2-C ) :   1.6017
B(  1-C , 32-H ) :   0.9745 B(  2-C ,  3-C ) :   1.2411 B(  2-C ,  6-C ) :   1.0032
B(  3-C ,  4-C ) :   1.5827 B(  3-C ,  5-H ) :   0.9889 B(  4-C , 20-C ) :   0.9936
B(  6-C ,  7-H ) :   0.9256 B(  6-C ,  8-H ) :   0.9350 B(  6-C ,  9-C ) :   1.0962
B(  9-C , 10-H ) :   0.9546 B(  9-C , 11-H ) :   0.9552 B(  9-C , 12-C ) :   1.0662
B( 12-C , 13-H ) :   0.9757 B( 12-C , 14-H ) :   0.9786 B( 12-C , 15-H ) :   0.9755
B( 16-S , 17-C ) :   1.1663 B( 16-S , 20-C ) :   1.1427 B( 17-C , 18-C ) :   1.5804
B( 17-C , 33-H ) :   0.9583 B( 18-C , 19-C ) :   1.2793 B( 18-C , 21-H ) :   0.9905
B( 19-C , 20-C ) :   1.5901 B( 19-C , 22-C ) :   1.0385 B( 22-C , 23-H ) :   0.9317
B( 22-C , 24-H ) :   0.9232 B( 22-C , 25-C ) :   1.0833 B( 25-C , 26-H ) :   0.9547
B( 25-C , 27-H ) :   0.9548 B( 25-C , 28-C ) :   1.0637 B( 28-C , 29-H ) :   0.9750
B( 28-C , 30-H ) :   0.9762 B( 28-C , 31-H ) :   0.9791

Dispersion correction           -0.014806008
FINAL SINGLE POINT ENERGY     -1339.870593079933

DIPOLE MOMENT
-------------
                                X             Y             Z
Electronic contribution:    -18.86314      -1.41337     -17.14821
Nuclear contribution   :     19.32287       1.39689      17.45972
                        -----------------------------------------
Total Dipole Moment    :      0.45973      -0.01648       0.31151
                        -----------------------------------------
Magnitude (a.u.)       :      0.55557
Magnitude (Debye)      :      1.41215

Rotational constants in cm-1:     0.019365     0.008535     0.007131
Rotational constants in MHz :   580.537058   255.875864   213.767278

                             ****ORCA TERMINATED NORMALLY****
TOTAL RUN TIME: 0 days 0 hours 0 minutes 33 seconds 139 msec
