                         Program Version 4.2.1 -  RELEASE  -
|  1> ! wB97X-D3 SP def2-SVP
|  2> %pal
|  3> nprocs 16
|  4> end
|  5>
|  6> * xyz 0 1
|  7> S 	 -3.39203 	 -19.2575 	 79.4097
|  8> C 	 -2.87172 	 -19.7357 	 80.9613
|  9> C 	 -3.32146 	 -18.9719 	 81.9785
| 10> C 	 -4.19744 	 -17.9979 	 81.5242
| 11> C 	 -4.34881 	 -18.0133 	 80.1778
| 12> H 	 -4.49379 	 -17.2525 	 82.2198
| 13> C 	 -2.78008 	 -19.1806 	 83.4064
| 14> H 	 -1.95486 	 -18.4239 	 83.4035
| 15> H 	 -2.2347 	 -20.1088 	 83.446
| 16> C 	 -3.79982 	 -19.2559 	 84.6479
| 17> H 	 -4.48082 	 -18.4495 	 84.5371
| 18> H 	 -4.33077 	 -20.2228 	 84.551
| 19> C 	 -2.95792 	 -19.0751 	 85.938
| 20> H 	 -2.28396 	 -19.9591 	 86.0579
| 21> H 	 -2.3271 	 -18.1413 	 85.9722
| 22> H 	 -3.62902 	 -18.9888 	 86.7824
| 23> S 	 -6.60347 	 -17.6951 	 78.6969
| 24> C 	 -7.0017 	 -16.1177 	 77.9611
| 25> C 	 -6.02327 	 -15.1893 	 78.2659
| 26> C 	 -5.03178 	 -15.7277 	 79.0764
| 27> C 	 -5.18184 	 -17.0821 	 79.4145
| 28> H 	 -5.96758 	 -14.233 	 77.8206
| 29> C 	 -4.02266 	 -14.7686 	 79.7029
| 30> H 	 -3.51955 	 -15.2647 	 80.518
| 31> H 	 -4.57583 	 -14.03 	 80.2869
| 32> C 	 -3.08675 	 -14.1189 	 78.7217
| 33> H 	 -2.56824 	 -13.3257 	 79.2873
| 34> H 	 -3.65749 	 -13.4828 	 78.0511
| 35> C 	 -2.08406 	 -15.1315 	 78.1467
| 36> H 	 -1.42024 	 -14.739 	 77.3965
| 37> H 	 -2.63576 	 -15.9561 	 77.6824
| 38> H 	 -1.59702 	 -15.4812 	 79.021
| 39> H 	 -1.99502 	 -20.4004 	 81.057
| 40> H 	 -7.78408 	 -15.851 	 77.2564
| 41> *
| 42>
| 43>                          ****END OF INPUT****

CARTESIAN COORDINATES (ANGSTROEM)
---------------------------------
  S     -3.392030  -19.257500   79.409700
  C     -2.871720  -19.735700   80.961300
  C     -3.321460  -18.971900   81.978500
  C     -4.197440  -17.997900   81.524200
  C     -4.348810  -18.013300   80.177800
  H     -4.493790  -17.252500   82.219800
  C     -2.780080  -19.180600   83.406400
  H     -1.954860  -18.423900   83.403500
  H     -2.234700  -20.108800   83.446000
  C     -3.799820  -19.255900   84.647900
  H     -4.480820  -18.449500   84.537100
  H     -4.330770  -20.222800   84.551000
  C     -2.957920  -19.075100   85.938000
  H     -2.283960  -19.959100   86.057900
  H     -2.327100  -18.141300   85.972200
  H     -3.629020  -18.988800   86.782400
  S     -6.603470  -17.695100   78.696900
  C     -7.001700  -16.117700   77.961100
  C     -6.023270  -15.189300   78.265900
  C     -5.031780  -15.727700   79.076400
  C     -5.181840  -17.082100   79.414500
  H     -5.967580  -14.233000   77.820600
  C     -4.022660  -14.768600   79.702900
  H     -3.519550  -15.264700   80.518000
  H     -4.575830  -14.030000   80.286900
  C     -3.086750  -14.118900   78.721700
  H     -2.568240  -13.325700   79.287300
  H     -3.657490  -13.482800   78.051100
  C     -2.084060  -15.131500   78.146700
  H     -1.420240  -14.739000   77.396500
  H     -2.635760  -15.956100   77.682400
  H     -1.597020  -15.481200   79.021000
  H     -1.995020  -20.400400   81.057000
  H     -7.784080  -15.851000   77.256400

 Total Charge           Charge          ....    0
 Multiplicity           Mult            ....    1
 Number of Electrons    NEL             ....  134
 Basis Dimension        Dim             ....  322

ORBITAL ENERGIES
----------------

  NO   OCC          E(Eh)            E(eV)
   0   2.0000     -88.966933     -2420.9133
   1   2.0000     -88.963946     -2420.8320
   2   2.0000     -10.325657      -280.9754
   3   2.0000     -10.320422      -280.8330
   4   2.0000     -10.315850      -280.7085
   5   2.0000     -10.304093      -280.3886
   6   2.0000     -10.297748      -280.2160
   7   2.0000     -10.297614      -280.2123
   8   2.0000     -10.293638      -280.1041
   9   2.0000     -10.290867      -280.0287
  10   2.0000     -10.289100      -279.9807
  11   2.0000     -10.286433      -279.9081
  12   2.0000     -10.283916      -279.8396
  13   2.0000     -10.281719      -279.7798
  14   2.0000     -10.281466      -279.7729
  15   2.0000     -10.269160      -279.4381
  16   2.0000      -8.082679      -219.9409
  17   2.0000      -8.078698      -219.8326
  18   2.0000      -6.040906      -164.3814
  19   2.0000      -6.037187      -164.2802
  20   2.0000      -6.037167      -164.2797
  21   2.0000      -6.033559      -164.1815
  22   2.0000      -6.033018      -164.1668
  23   2.0000      -6.029658      -164.0753
  24   2.0000      -1.014876       -27.6162
  25   2.0000      -0.990040       -26.9404
  26   2.0000      -0.910399       -24.7732
  27   2.0000      -0.903259       -24.5789
  28   2.0000      -0.870939       -23.6995
  29   2.0000      -0.856341       -23.3022
  30   2.0000      -0.843556       -22.9543
  31   2.0000      -0.816235       -22.2109
  32   2.0000      -0.779476       -21.2106
  33   2.0000      -0.765988       -20.8436
  34   2.0000      -0.712410       -19.3857
  35   2.0000      -0.697889       -18.9905
  36   2.0000      -0.691834       -18.8258
  37   2.0000      -0.660117       -17.9627
  38   2.0000      -0.642032       -17.4706
  39   2.0000      -0.630254       -17.1501
  40   2.0000      -0.595262       -16.1979
  41   2.0000      -0.566995       -15.4287
  42   2.0000      -0.560716       -15.2579
  43   2.0000      -0.555664       -15.1204
  44   2.0000      -0.535054       -14.5596
  45   2.0000      -0.522031       -14.2052
  46   2.0000      -0.519250       -14.1295
  47   2.0000      -0.507662       -13.8142
  48   2.0000      -0.497828       -13.5466
  49   2.0000      -0.495278       -13.4772
  50   2.0000      -0.485838       -13.2203
  51   2.0000      -0.478596       -13.0233
  52   2.0000      -0.469115       -12.7653
  53   2.0000      -0.468703       -12.7541
  54   2.0000      -0.456157       -12.4127
  55   2.0000      -0.454535       -12.3685
  56   2.0000      -0.443403       -12.0656
  57   2.0000      -0.441602       -12.0166
  58   2.0000      -0.438129       -11.9221
  59   2.0000      -0.432485       -11.7685
  60   2.0000      -0.421023       -11.4566
  61   2.0000      -0.409020       -11.1300
  62   2.0000      -0.404104       -10.9962
  63   2.0000      -0.344453        -9.3730
  64   2.0000      -0.332988        -9.0611
  65   2.0000      -0.322711        -8.7814
  66   2.0000      -0.299225        -8.1423
  67   0.0000       0.043979         1.1967
  68   0.0000       0.060829         1.6552
  69   0.0000       0.118392         3.2216
  70   0.0000       0.125433         3.4132
  71   0.0000       0.128984         3.5098

MULLIKEN ATOMIC CHARGES
-----------------------
   0 S :    0.134057
   1 C :   -0.138038
   2 C :   -0.084496
   3 C :    0.058504
   4 C :   -0.160584
   5 H :    0.000978
   6 C :    0.019947
   7 H :    0.045349
   8 H :    0.012123
   9 C :   -0.053630
  10 H :    0.026890
  11 H :    0.054025
  12 C :   -0.072034
  13 H :    0.041845
  14 H :    0.043668
  15 H :    0.035355
  16 S :    0.114478
  17 C :   -0.091699
  18 C :   -0.028445
  19 C :   -0.020333
  20 C :   -0.183116
  21 H :    0.009324
  22 C :    0.050800
  23 H :   -0.000460
  24 H :    0.026684
  25 C :   -0.066842
  26 H :    0.016158
  27 H :    0.012797
  28 C :   -0.006101
  29 H :    0.035209
  30 H :    0.036743
  31 H :    0.023956
  32 H :    0.052929
  33 H :    0.053958
Sum of atomic charges:    0.0000000

LOEWDIN ATOMIC CHARGES
----------------------
   0 S :    0.428425
   1 C :   -0.213296
   2 C :   -0.073144
   3 C :   -0.054830
   4 C :   -0.197277
   5 H :    0.029431
   6 C :   -0.035180
   7 H :    0.037761
   8 H :    0.024522
   9 C :   -0.030561
  10 H :    0.014964
  11 H :    0.035216
  12 C :   -0.069523
  13 H :    0.029782
  14 H :    0.032789
  15 H :    0.022983
  16 S :    0.420423
  17 C :   -0.181106
  18 C :   -0.066470
  19 C :   -0.061903
  20 C :   -0.219781
  21 H :    0.027176
  22 C :   -0.032863
  23 H :    0.021925
  24 H :    0.032581
  25 C :   -0.043824
  26 H :    0.024077
  27 H :    0.015677
  28 C :   -0.055061
  29 H :    0.023770
  30 H :    0.028179
  31 H :    0.024613
  32 H :    0.028914
  33 H :    0.031611

  Mayer bond orders larger than 0.100000
B(  0-S ,  1-C ) :   1.1479 B(  0-S ,  4-C ) :   1.1689 B(  1-C ,  2-C ) :   1.6275
B(  1-C , 32-H ) :   0.9547 B(  2-C ,  3-C ) :   1.2796 B(  2-C ,  6-C ) :   1.0003
B(  3-C ,  4-C ) :   1.5605 B(  3-C ,  5-H ) :   1.0029 B(  4-C , 20-C ) :   1.0036
B(  6-C ,  7-H ) :   0.9455 B(  6-C ,  8-H ) :   0.9447 B(  6-C ,  9-C ) :   1.0368
B(  9-C , 10-H ) :   0.9646 B(  9-C , 11-H ) :   0.9579 B(  9-C , 12-C ) :   1.0719
B( 12-C , 13-H ) :   0.9763 B( 12-C , 14-H ) :   0.9776 B( 12-C , 15-H ) :   0.9752
B( 16-S , 17-C ) :   1.1576 B( 16-S , 20-C ) :   1.1666 B( 17-C , 18-C ) :   1.5884
B( 17-C , 20-C ) :   0.1072 B( 17-C , 33-H ) :   0.9655 B( 18-C , 19-C ) :   1.2808
B( 18-C , 21-H ) :   0.9904 B( 19-C , 20-C ) :   1.5649 B( 19-C , 22-C ) :   1.0287
B( 22-C , 23-H ) :   0.9361 B( 22-C , 24-H ) :   0.9390 B( 22-C , 25-C ) :   1.0810
B( 25-C , 26-H ) :   0.9504 B( 25-C , 27-H ) :   0.9555 B( 25-C , 28-C ) :   1.0542
B( 28-C , 29-H ) :   0.9756 B( 28-C , 30-H ) :   0.9769 B( 28-C , 31-H ) :   0.9727

Dispersion correction           -0.014533395
FINAL SINGLE POINT ENERGY     -1339.871263085413

DIPOLE MOMENT
-------------
                                X             Y             Z
Electronic contribution:    -13.72593      -9.45165     -17.70470
Nuclear contribution   :     14.10780       9.82760      18.18723
                        -----------------------------------------
Total Dipole Moment    :      0.38187       0.37595       0.48253
                        -----------------------------------------
Magnitude (a.u.)       :      0.72110
Magnitude (Debye)      :      1.83290

Rotational constants in cm-1:     0.020089     0.007618     0.007069
Rotational constants in MHz :   602.256665   228.388607   211.910091

                             ****ORCA TERMINATED NORMALLY****
TOTAL RUN TIME: 0 days 0 hours 0 minutes 33 seconds 782 msec
