                         Program Version 4.2.1 -  RELEASE  -
|  1> ! wB97X-D3 SP def2-SVP
|  2> %pal
|  3> nprocs 16
|  4> end
|  5>
|  6> * xyz 0 1
|  7> S 	 -38.179 	 50.2146 	 102.849
|  8> C 	 -36.4499 	 50.2722 	 102.779
|  9> C 	 -35.9683 	 51.4059 	 102.153
| 10> C 	 -37.0306 	 52.315 	 101.755
| 11> C 	 -38.2983 	 51.8664 	 102.179
| 12> H 	 -36.9212 	 53.2103 	 101.24
| 13> C 	 -34.4876 	 51.6757 	 101.846
| 14> H 	 -33.9604 	 51.0556 	 102.531
| 15> H 	 -34.3521 	 52.7114 	 102.167
| 16> C 	 -34.0491 	 51.5052 	 100.458
| 17> H 	 -32.9744 	 51.4518 	 100.547
| 18> H 	 -34.4144 	 50.5457 	 100.185
| 19> C 	 -34.5513 	 52.6494 	 99.5167
| 20> H 	 -34.378 	 53.7255 	 99.8384
| 21> H 	 -34.1941 	 52.6062 	 98.4782
| 22> H 	 -35.6283 	 52.6864 	 99.3758
| 23> S 	 -40.7265 	 52.6877 	 103.286
| 24> C 	 -41.9761 	 53.323 	 102.249
| 25> C 	 -41.4793 	 53.646 	 101.012
| 26> C 	 -40.0865 	 53.2646 	 100.875
| 27> C 	 -39.5725 	 52.5773 	 101.981
| 28> H 	 -42.13 	 54.1893 	 100.3
| 29> C 	 -39.4511 	 53.3841 	 99.5103
| 30> H 	 -38.4237 	 53.6604 	 99.6649
| 31> H 	 -39.832 	 54.266 	 98.9716
| 32> C 	 -39.5793 	 52.1752 	 98.5297
| 33> H 	 -39.308 	 51.2146 	 99.0036
| 34> H 	 -38.8522 	 52.362 	 97.7464
| 35> C 	 -40.9407 	 52.1733 	 97.837
| 36> H 	 -41.1342 	 51.2114 	 97.3505
| 37> H 	 -41.0141 	 52.9953 	 97.1184
| 38> H 	 -41.8113 	 52.3362 	 98.5203
| 39> H 	 -35.7973 	 49.5122 	 103.253
| 40> H 	 -42.9676 	 53.6708 	 102.616
| 41> *
| 42>
| 43>                          ****END OF INPUT****

CARTESIAN COORDINATES (ANGSTROEM)
---------------------------------
  S    -38.179000   50.214600  102.849000
  C    -36.449900   50.272200  102.779000
  C    -35.968300   51.405900  102.153000
  C    -37.030600   52.315000  101.755000
  C    -38.298300   51.866400  102.179000
  H    -36.921200   53.210300  101.240000
  C    -34.487600   51.675700  101.846000
  H    -33.960400   51.055600  102.531000
  H    -34.352100   52.711400  102.167000
  C    -34.049100   51.505200  100.458000
  H    -32.974400   51.451800  100.547000
  H    -34.414400   50.545700  100.185000
  C    -34.551300   52.649400   99.516700
  H    -34.378000   53.725500   99.838400
  H    -34.194100   52.606200   98.478200
  H    -35.628300   52.686400   99.375800
  S    -40.726500   52.687700  103.286000
  C    -41.976100   53.323000  102.249000
  C    -41.479300   53.646000  101.012000
  C    -40.086500   53.264600  100.875000
  C    -39.572500   52.577300  101.981000
  H    -42.130000   54.189300  100.300000
  C    -39.451100   53.384100   99.510300
  H    -38.423700   53.660400   99.664900
  H    -39.832000   54.266000   98.971600
  C    -39.579300   52.175200   98.529700
  H    -39.308000   51.214600   99.003600
  H    -38.852200   52.362000   97.746400
  C    -40.940700   52.173300   97.837000
  H    -41.134200   51.211400   97.350500
  H    -41.014100   52.995300   97.118400
  H    -41.811300   52.336200   98.520300
  H    -35.797300   49.512200  103.253000
  H    -42.967600   53.670800  102.616000

 Total Charge           Charge          ....    0
 Multiplicity           Mult            ....    1
 Number of Electrons    NEL             ....  134
 Basis Dimension        Dim             ....  322

ORBITAL ENERGIES
----------------

  NO   OCC          E(Eh)            E(eV)
   0   2.0000     -88.968512     -2420.9563
   1   2.0000     -88.964215     -2420.8394
   2   2.0000     -10.337016      -281.2845
   3   2.0000     -10.330132      -281.0972
   4   2.0000     -10.318421      -280.7785
   5   2.0000     -10.315587      -280.7014
   6   2.0000     -10.305818      -280.4356
   7   2.0000     -10.301899      -280.3289
   8   2.0000     -10.297006      -280.1958
   9   2.0000     -10.295666      -280.1593
  10   2.0000     -10.289242      -279.9845
  11   2.0000     -10.288048      -279.9520
  12   2.0000     -10.287123      -279.9269
  13   2.0000     -10.286678      -279.9147
  14   2.0000     -10.285576      -279.8848
  15   2.0000     -10.277739      -279.6715
  16   2.0000      -8.082789      -219.9439
  17   2.0000      -8.079184      -219.8458
  18   2.0000      -6.041365      -164.3939
  19   2.0000      -6.037720      -164.2947
  20   2.0000      -6.037417      -164.2865
  21   2.0000      -6.033582      -164.1821
  22   2.0000      -6.033446      -164.1784
  23   2.0000      -6.029979      -164.0841
  24   2.0000      -1.002506       -27.2796
  25   2.0000      -0.981853       -26.7176
  26   2.0000      -0.919656       -25.0251
  27   2.0000      -0.904979       -24.6257
  28   2.0000      -0.868169       -23.6241
  29   2.0000      -0.846804       -23.0427
  30   2.0000      -0.840435       -22.8694
  31   2.0000      -0.815188       -22.1824
  32   2.0000      -0.785551       -21.3759
  33   2.0000      -0.770608       -20.9693
  34   2.0000      -0.709613       -19.3096
  35   2.0000      -0.704085       -19.1591
  36   2.0000      -0.687932       -18.7196
  37   2.0000      -0.660278       -17.9671
  38   2.0000      -0.640524       -17.4295
  39   2.0000      -0.617364       -16.7993
  40   2.0000      -0.592089       -16.1116
  41   2.0000      -0.576325       -15.6826
  42   2.0000      -0.555849       -15.1254
  43   2.0000      -0.545907       -14.8549
  44   2.0000      -0.543376       -14.7860
  45   2.0000      -0.535849       -14.5812
  46   2.0000      -0.516791       -14.0626
  47   2.0000      -0.511924       -13.9302
  48   2.0000      -0.498389       -13.5619
  49   2.0000      -0.490726       -13.3533
  50   2.0000      -0.486204       -13.2303
  51   2.0000      -0.480597       -13.0777
  52   2.0000      -0.473139       -12.8748
  53   2.0000      -0.467137       -12.7115
  54   2.0000      -0.460573       -12.5328
  55   2.0000      -0.445215       -12.1149
  56   2.0000      -0.440483       -11.9862
  57   2.0000      -0.437638       -11.9087
  58   2.0000      -0.432114       -11.7584
  59   2.0000      -0.430890       -11.7251
  60   2.0000      -0.421748       -11.4764
  61   2.0000      -0.414478       -11.2785
  62   2.0000      -0.412477       -11.2241
  63   2.0000      -0.349109        -9.4998
  64   2.0000      -0.330299        -8.9879
  65   2.0000      -0.328399        -8.9362
  66   2.0000      -0.290853        -7.9145
  67   0.0000       0.023797         0.6476
  68   0.0000       0.074475         2.0266
  69   0.0000       0.111343         3.0298
  70   0.0000       0.113745         3.0951
  71   0.0000       0.129746         3.5306

MULLIKEN ATOMIC CHARGES
-----------------------
   0 S :    0.119379
   1 C :   -0.139594
   2 C :   -0.117625
   3 C :    0.051456
   4 C :   -0.142559
   5 H :   -0.014138
   6 C :    0.076260
   7 H :    0.004611
   8 H :    0.021334
   9 C :    0.026903
  10 H :    0.033174
  11 H :    0.018104
  12 C :   -0.092419
  13 H :    0.032469
  14 H :    0.037126
  15 H :    0.027085
  16 S :    0.107659
  17 C :   -0.106206
  18 C :   -0.050452
  19 C :   -0.030690
  20 C :   -0.157150
  21 H :    0.036726
  22 C :    0.052150
  23 H :   -0.001058
  24 H :    0.012397
  25 C :   -0.032008
  26 H :    0.043699
  27 H :    0.025534
  28 C :   -0.071380
  29 H :    0.037593
  30 H :    0.025837
  31 H :    0.033985
  32 H :    0.061466
  33 H :    0.070331
Sum of atomic charges:   -0.0000000

LOEWDIN ATOMIC CHARGES
----------------------
   0 S :    0.401042
   1 C :   -0.212636
   2 C :   -0.060396
   3 C :   -0.050318
   4 C :   -0.181519
   5 H :    0.016164
   6 C :   -0.028479
   7 H :    0.024314
   8 H :    0.029580
   9 C :   -0.030361
  10 H :    0.029394
  11 H :    0.024818
  12 C :   -0.078264
  13 H :    0.031226
  14 H :    0.028838
  15 H :    0.023624
  16 S :    0.409904
  17 C :   -0.193346
  18 C :   -0.078119
  19 C :   -0.055294
  20 C :   -0.203939
  21 H :    0.038447
  22 C :   -0.036444
  23 H :    0.020098
  24 H :    0.031465
  25 C :   -0.032914
  26 H :    0.029307
  27 H :    0.025228
  28 C :   -0.071811
  29 H :    0.027662
  30 H :    0.022776
  31 H :    0.026732
  32 H :    0.035553
  33 H :    0.037669

  Mayer bond orders larger than 0.100000
B(  0-S ,  1-C ) :   1.1334 B(  0-S ,  4-C ) :   1.1476 B(  1-C ,  2-C ) :   1.6248
B(  1-C , 32-H ) :   0.9589 B(  2-C ,  3-C ) :   1.2324 B(  2-C ,  6-C ) :   1.0204
B(  3-C ,  4-C ) :   1.5604 B(  3-C ,  5-H ) :   1.0006 B(  4-C , 20-C ) :   1.0606
B(  6-C ,  7-H ) :   0.9341 B(  6-C ,  8-H ) :   0.9359 B(  6-C ,  9-C ) :   1.0742
B(  9-C , 10-H ) :   0.9534 B(  9-C , 11-H ) :   0.9473 B(  9-C , 12-C ) :   1.0656
B( 12-C , 13-H ) :   0.9756 B( 12-C , 14-H ) :   0.9733 B( 12-C , 15-H ) :   0.9710
B( 16-S , 17-C ) :   1.1577 B( 16-S , 20-C ) :   1.1432 B( 17-C , 18-C ) :   1.6087
B( 17-C , 33-H ) :   0.9599 B( 18-C , 19-C ) :   1.2425 B( 18-C , 21-H ) :   0.9827
B( 19-C , 20-C ) :   1.5688 B( 19-C , 22-C ) :   1.0608 B( 22-C , 23-H ) :   0.9293
B( 22-C , 24-H ) :   0.9306 B( 22-C , 25-C ) :   1.0640 B( 25-C , 26-H ) :   0.9606
B( 25-C , 27-H ) :   0.9527 B( 25-C , 28-C ) :   1.0725 B( 28-C , 29-H ) :   0.9736
B( 28-C , 30-H ) :   0.9746 B( 28-C , 31-H ) :   0.9745

Dispersion correction           -0.015222263
FINAL SINGLE POINT ENERGY     -1339.882858231434

DIPOLE MOMENT
-------------
                                X             Y             Z
Electronic contribution:    -12.70245      -5.18163      24.05532
Nuclear contribution   :     13.03595       5.43063     -24.58309
                        -----------------------------------------
Total Dipole Moment    :      0.33350       0.24900      -0.52777
                        -----------------------------------------
Magnitude (a.u.)       :      0.67213
Magnitude (Debye)      :      1.70842

Rotational constants in cm-1:     0.018684     0.009449     0.007219
Rotational constants in MHz :   560.143557   283.261500   216.413991

                             ****ORCA TERMINATED NORMALLY****
TOTAL RUN TIME: 0 days 0 hours 0 minutes 31 seconds 204 msec
