                         Program Version 4.2.1 -  RELEASE  -
|  1> ! wB97X-D3 SP def2-SVP
|  2> %pal
|  3> nprocs 16
|  4> end
|  5>
|  6> * xyz 0 1
|  7> S 	 -38.4259 	 14.7904 	 79.5389
|  8> C 	 -38.1016 	 13.0537 	 79.6422
|  9> C 	 -39.046 	 12.3105 	 78.9613
| 10> C 	 -40.1682 	 13.1303 	 78.5459
| 11> C 	 -40.0116 	 14.4611 	 78.9128
| 12> H 	 -41.0192 	 12.8066 	 77.9826
| 13> C 	 -39.013 	 10.7642 	 78.8347
| 14> H 	 -39.3801 	 10.3986 	 77.8731
| 15> H 	 -39.7552 	 10.3953 	 79.5842
| 16> C 	 -37.774 	 9.97477 	 79.2233
| 17> H 	 -37.5703 	 10.3288 	 80.1784
| 18> H 	 -37.9397 	 8.8997 	 79.2878
| 19> C 	 -36.6899 	 10.1714 	 78.1652
| 20> H 	 -36.7631 	 9.45238 	 77.3602
| 21> H 	 -36.7648 	 11.1591 	 77.7297
| 22> H 	 -35.6591 	 10.0741 	 78.5808
| 23> S 	 -40.249 	 17.1721 	 78.4348
| 24> C 	 -41.8079 	 17.7812 	 78.0847
| 25> C 	 -42.7781 	 16.8211 	 78.1904
| 26> C 	 -42.31 	 15.5312 	 78.4
| 27> C 	 -40.9182 	 15.5692 	 78.627
| 28> H 	 -43.7787 	 16.9205 	 78.1104
| 29> C 	 -43.235 	 14.378 	 78.6947
| 30> H 	 -43.0609 	 13.5797 	 77.9966
| 31> H 	 -44.2025 	 14.5623 	 78.4484
| 32> C 	 -43.3379 	 13.8678 	 80.1611
| 33> H 	 -42.3267 	 13.6904 	 80.5843
| 34> H 	 -43.9515 	 12.8766 	 80.2995
| 35> C 	 -44.1523 	 14.9219 	 81.0259
| 36> H 	 -43.6317 	 15.8691 	 81.026
| 37> H 	 -44.0795 	 14.6301 	 82.0752
| 38> H 	 -45.1951 	 15.1639 	 80.7016
| 39> H 	 -37.1462 	 12.7172 	 80.0116
| 40> H 	 -41.9497 	 18.8225 	 77.9967
| 41> *
| 42>
| 43>                          ****END OF INPUT****

CARTESIAN COORDINATES (ANGSTROEM)
---------------------------------
  S    -38.425900   14.790400   79.538900
  C    -38.101600   13.053700   79.642200
  C    -39.046000   12.310500   78.961300
  C    -40.168200   13.130300   78.545900
  C    -40.011600   14.461100   78.912800
  H    -41.019200   12.806600   77.982600
  C    -39.013000   10.764200   78.834700
  H    -39.380100   10.398600   77.873100
  H    -39.755200   10.395300   79.584200
  C    -37.774000    9.974770   79.223300
  H    -37.570300   10.328800   80.178400
  H    -37.939700    8.899700   79.287800
  C    -36.689900   10.171400   78.165200
  H    -36.763100    9.452380   77.360200
  H    -36.764800   11.159100   77.729700
  H    -35.659100   10.074100   78.580800
  S    -40.249000   17.172100   78.434800
  C    -41.807900   17.781200   78.084700
  C    -42.778100   16.821100   78.190400
  C    -42.310000   15.531200   78.400000
  C    -40.918200   15.569200   78.627000
  H    -43.778700   16.920500   78.110400
  C    -43.235000   14.378000   78.694700
  H    -43.060900   13.579700   77.996600
  H    -44.202500   14.562300   78.448400
  C    -43.337900   13.867800   80.161100
  H    -42.326700   13.690400   80.584300
  H    -43.951500   12.876600   80.299500
  C    -44.152300   14.921900   81.025900
  H    -43.631700   15.869100   81.026000
  H    -44.079500   14.630100   82.075200
  H    -45.195100   15.163900   80.701600
  H    -37.146200   12.717200   80.011600
  H    -41.949700   18.822500   77.996700

 Total Charge           Charge          ....    0
 Multiplicity           Mult            ....    1
 Number of Electrons    NEL             ....  134
 Basis Dimension        Dim             ....  322

ORBITAL ENERGIES
----------------

  NO   OCC          E(Eh)            E(eV)
   0   2.0000     -88.970457     -2421.0092
   1   2.0000     -88.964337     -2420.8427
   2   2.0000     -10.329941      -281.0920
   3   2.0000     -10.327830      -281.0345
   4   2.0000     -10.314074      -280.6602
   5   2.0000     -10.311732      -280.5965
   6   2.0000     -10.310569      -280.5648
   7   2.0000     -10.300648      -280.2949
   8   2.0000     -10.299714      -280.2695
   9   2.0000     -10.296013      -280.1688
  10   2.0000     -10.295150      -280.1453
  11   2.0000     -10.285909      -279.8938
  12   2.0000     -10.282722      -279.8071
  13   2.0000     -10.280954      -279.7590
  14   2.0000     -10.278298      -279.6867
  15   2.0000     -10.274167      -279.5743
  16   2.0000      -8.086018      -220.0317
  17   2.0000      -8.079399      -219.8516
  18   2.0000      -6.044336      -164.4747
  19   2.0000      -6.040412      -164.3680
  20   2.0000      -6.037950      -164.3010
  21   2.0000      -6.036958      -164.2740
  22   2.0000      -6.034121      -164.1968
  23   2.0000      -6.029869      -164.0811
  24   2.0000      -1.012411       -27.5491
  25   2.0000      -0.986517       -26.8445
  26   2.0000      -0.914939       -24.8967
  27   2.0000      -0.909310       -24.7436
  28   2.0000      -0.869050       -23.6481
  29   2.0000      -0.851502       -23.1706
  30   2.0000      -0.844690       -22.9852
  31   2.0000      -0.808797       -22.0085
  32   2.0000      -0.787383       -21.4258
  33   2.0000      -0.775841       -21.1117
  34   2.0000      -0.708636       -19.2830
  35   2.0000      -0.703609       -19.1462
  36   2.0000      -0.688062       -18.7231
  37   2.0000      -0.674814       -18.3626
  38   2.0000      -0.640404       -17.4263
  39   2.0000      -0.616429       -16.7739
  40   2.0000      -0.605604       -16.4793
  41   2.0000      -0.578273       -15.7356
  42   2.0000      -0.551173       -14.9982
  43   2.0000      -0.549569       -14.9545
  44   2.0000      -0.544212       -14.8088
  45   2.0000      -0.537822       -14.6349
  46   2.0000      -0.512895       -13.9566
  47   2.0000      -0.505418       -13.7531
  48   2.0000      -0.502102       -13.6629
  49   2.0000      -0.494075       -13.4445
  50   2.0000      -0.487264       -13.2591
  51   2.0000      -0.484444       -13.1824
  52   2.0000      -0.477901       -13.0043
  53   2.0000      -0.468266       -12.7422
  54   2.0000      -0.457662       -12.4536
  55   2.0000      -0.453985       -12.3536
  56   2.0000      -0.441148       -12.0043
  57   2.0000      -0.436973       -11.8906
  58   2.0000      -0.435162       -11.8414
  59   2.0000      -0.431040       -11.7292
  60   2.0000      -0.421852       -11.4792
  61   2.0000      -0.412423       -11.2226
  62   2.0000      -0.409455       -11.1418
  63   2.0000      -0.358192        -9.7469
  64   2.0000      -0.341017        -9.2795
  65   2.0000      -0.327417        -8.9095
  66   2.0000      -0.280184        -7.6242
  67   0.0000       0.017548         0.4775
  68   0.0000       0.077462         2.1078
  69   0.0000       0.099517         2.7080
  70   0.0000       0.121770         3.3135
  71   0.0000       0.137300         3.7361

MULLIKEN ATOMIC CHARGES
-----------------------
   0 S :    0.084153
   1 C :   -0.131878
   2 C :   -0.047997
   3 C :    0.000092
   4 C :   -0.107283
   5 H :    0.000352
   6 C :    0.011459
   7 H :    0.026732
   8 H :    0.044508
   9 C :   -0.036803
  10 H :    0.012737
  11 H :    0.032726
  12 C :   -0.061897
  13 H :    0.028670
  14 H :    0.034894
  15 H :    0.033145
  16 S :    0.115877
  17 C :   -0.063282
  18 C :    0.040597
  19 C :   -0.063707
  20 C :   -0.143938
  21 H :   -0.040325
  22 C :    0.116925
  23 H :    0.016974
  24 H :   -0.026345
  25 C :   -0.097878
  26 H :    0.053852
  27 H :    0.045957
  28 C :   -0.080832
  29 H :    0.032425
  30 H :    0.035747
  31 H :    0.039818
  32 H :    0.049998
  33 H :    0.044524
Sum of atomic charges:   -0.0000000

LOEWDIN ATOMIC CHARGES
----------------------
   0 S :    0.388432
   1 C :   -0.194750
   2 C :   -0.052421
   3 C :   -0.064025
   4 C :   -0.184529
   5 H :    0.028110
   6 C :   -0.034055
   7 H :    0.026496
   8 H :    0.040944
   9 C :   -0.040102
  10 H :    0.013236
  11 H :    0.030935
  12 C :   -0.068650
  13 H :    0.024123
  14 H :    0.023461
  15 H :    0.028180
  16 S :    0.429548
  17 C :   -0.189235
  18 C :   -0.053532
  19 C :   -0.054116
  20 C :   -0.192932
  21 H :    0.012714
  22 C :   -0.032676
  23 H :    0.028588
  24 H :    0.016851
  25 C :   -0.037139
  26 H :    0.028203
  27 H :    0.035311
  28 C :   -0.077220
  29 H :    0.023095
  30 H :    0.027392
  31 H :    0.027368
  32 H :    0.022704
  33 H :    0.019689

  Mayer bond orders larger than 0.100000
B(  0-S ,  1-C ) :   1.1168 B(  0-S ,  4-C ) :   1.1472 B(  1-C ,  2-C ) :   1.6244
B(  1-C , 32-H ) :   0.9658 B(  2-C ,  3-C ) :   1.2225 B(  2-C ,  6-C ) :   1.0054
B(  3-C ,  4-C ) :   1.5636 B(  3-C ,  5-H ) :   1.0008 B(  4-C , 20-C ) :   1.0828
B(  6-C ,  7-H ) :   0.9466 B(  6-C ,  8-H ) :   0.9385 B(  6-C ,  9-C ) :   1.0886
B(  9-C , 10-H ) :   0.9493 B(  9-C , 11-H ) :   0.9541 B(  9-C , 12-C ) :   1.0700
B( 12-C , 13-H ) :   0.9751 B( 12-C , 14-H ) :   0.9811 B( 12-C , 15-H ) :   0.9761
B( 16-S , 17-C ) :   1.1678 B( 16-S , 20-C ) :   1.1689 B( 17-C , 18-C ) :   1.5359
B( 17-C , 20-C ) :   0.1052 B( 17-C , 33-H ) :   0.9767 B( 18-C , 19-C ) :   1.3127
B( 18-C , 21-H ) :   1.0037 B( 19-C , 20-C ) :   1.5273 B( 19-C , 22-C ) :   1.0538
B( 22-C , 23-H ) :   0.9195 B( 22-C , 24-H ) :   0.9179 B( 22-C , 25-C ) :   1.0518
B( 25-C , 26-H ) :   0.9577 B( 25-C , 27-H ) :   0.9571 B( 25-C , 28-C ) :   1.0634
B( 28-C , 29-H ) :   0.9772 B( 28-C , 30-H ) :   0.9747 B( 28-C , 31-H ) :   0.9758

Dispersion correction           -0.014845866
FINAL SINGLE POINT ENERGY     -1339.866525415564

DIPOLE MOMENT
-------------
                                X             Y             Z
Electronic contribution:      7.29977      22.69616      -3.83685
Nuclear contribution   :     -7.68873     -23.12461       3.81712
                        -----------------------------------------
Total Dipole Moment    :     -0.38897      -0.42844      -0.01972
                        -----------------------------------------
Magnitude (a.u.)       :      0.57901
Magnitude (Debye)      :      1.47172

Rotational constants in cm-1:     0.023070     0.008037     0.006580
Rotational constants in MHz :   691.632844   240.955105   197.248707

                             ****ORCA TERMINATED NORMALLY****
TOTAL RUN TIME: 0 days 0 hours 0 minutes 31 seconds 150 msec
