                         Program Version 4.2.1 -  RELEASE  -
|  1> ! wB97X-D3 SP def2-SVP
|  2> %pal
|  3> nprocs 16
|  4> end
|  5>
|  6> * xyz 0 1
|  7> S 	 -41.0833 	 57.3873 	 109.007
|  8> C 	 -42.4715 	 58.2935 	 108.295
|  9> C 	 -42.4653 	 58.2105 	 106.912
| 10> C 	 -41.2396 	 57.6078 	 106.443
| 11> C 	 -40.4358 	 57.0336 	 107.398
| 12> H 	 -40.926 	 57.5616 	 105.428
| 13> C 	 -43.3953 	 58.9079 	 105.916
| 14> H 	 -43.8795 	 57.9686 	 105.532
| 15> H 	 -42.8156 	 59.3748 	 105.074
| 16> C 	 -44.5801 	 59.7818 	 106.437
| 17> H 	 -45.1978 	 59.2119 	 107.123
| 18> H 	 -44.1543 	 60.5745 	 107.106
| 19> C 	 -45.4406 	 60.2924 	 105.3
| 20> H 	 -46.1158 	 61.0793 	 105.717
| 21> H 	 -44.8097 	 60.7617 	 104.543
| 22> H 	 -45.9676 	 59.4562 	 104.807
| 23> S 	 -37.6796 	 57.39 	 108.012
| 24> C 	 -36.4259 	 56.5688 	 106.972
| 25> C 	 -37.0506 	 55.7355 	 106.027
| 26> C 	 -38.4891 	 55.8288 	 106.108
| 27> C 	 -39.0445 	 56.6239 	 107.18
| 28> H 	 -36.5303 	 55.0759 	 105.352
| 29> C 	 -39.3509 	 54.9489 	 105.279
| 30> H 	 -38.6894 	 54.935 	 104.414
| 31> H 	 -40.3067 	 55.3533 	 104.93
| 32> C 	 -39.616 	 53.518 	 105.793
| 33> H 	 -39.9251 	 53.6059 	 106.849
| 34> H 	 -38.6731 	 52.9675 	 105.701
| 35> C 	 -40.5139 	 52.6765 	 104.914
| 36> H 	 -41.5728 	 53.1352 	 104.936
| 37> H 	 -40.711 	 51.6142 	 105.144
| 38> H 	 -40.1853 	 52.8444 	 103.936
| 39> H 	 -43.1505 	 58.8588 	 108.838
| 40> H 	 -35.3278 	 56.6254 	 107.134
| 41> *
| 42>
| 43>                          ****END OF INPUT****

CARTESIAN COORDINATES (ANGSTROEM)
---------------------------------
  S    -41.083300   57.387300  109.007000
  C    -42.471500   58.293500  108.295000
  C    -42.465300   58.210500  106.912000
  C    -41.239600   57.607800  106.443000
  C    -40.435800   57.033600  107.398000
  H    -40.926000   57.561600  105.428000
  C    -43.395300   58.907900  105.916000
  H    -43.879500   57.968600  105.532000
  H    -42.815600   59.374800  105.074000
  C    -44.580100   59.781800  106.437000
  H    -45.197800   59.211900  107.123000
  H    -44.154300   60.574500  107.106000
  C    -45.440600   60.292400  105.300000
  H    -46.115800   61.079300  105.717000
  H    -44.809700   60.761700  104.543000
  H    -45.967600   59.456200  104.807000
  S    -37.679600   57.390000  108.012000
  C    -36.425900   56.568800  106.972000
  C    -37.050600   55.735500  106.027000
  C    -38.489100   55.828800  106.108000
  C    -39.044500   56.623900  107.180000
  H    -36.530300   55.075900  105.352000
  C    -39.350900   54.948900  105.279000
  H    -38.689400   54.935000  104.414000
  H    -40.306700   55.353300  104.930000
  C    -39.616000   53.518000  105.793000
  H    -39.925100   53.605900  106.849000
  H    -38.673100   52.967500  105.701000
  C    -40.513900   52.676500  104.914000
  H    -41.572800   53.135200  104.936000
  H    -40.711000   51.614200  105.144000
  H    -40.185300   52.844400  103.936000
  H    -43.150500   58.858800  108.838000
  H    -35.327800   56.625400  107.134000

 Total Charge           Charge          ....    0
 Multiplicity           Mult            ....    1
 Number of Electrons    NEL             ....  134
 Basis Dimension        Dim             ....  322

ORBITAL ENERGIES
----------------

  NO   OCC          E(Eh)            E(eV)
   0   2.0000     -88.968411     -2420.9536
   1   2.0000     -88.966266     -2420.8952
   2   2.0000     -10.336065      -281.2586
   3   2.0000     -10.333641      -281.1927
   4   2.0000     -10.332428      -281.1597
   5   2.0000     -10.316882      -280.7366
   6   2.0000     -10.309052      -280.5236
   7   2.0000     -10.308062      -280.4966
   8   2.0000     -10.305791      -280.4348
   9   2.0000     -10.304353      -280.3957
  10   2.0000     -10.295243      -280.1478
  11   2.0000     -10.294987      -280.1408
  12   2.0000     -10.287204      -279.9290
  13   2.0000     -10.286268      -279.9036
  14   2.0000     -10.283995      -279.8417
  15   2.0000     -10.278244      -279.6852
  16   2.0000      -8.081292      -219.9031
  17   2.0000      -8.079846      -219.8638
  18   2.0000      -6.040045      -164.3580
  19   2.0000      -6.038580      -164.3181
  20   2.0000      -6.035871      -164.2444
  21   2.0000      -6.034578      -164.2092
  22   2.0000      -6.032063      -164.1408
  23   2.0000      -6.030371      -164.0947
  24   2.0000      -0.997225       -27.1359
  25   2.0000      -0.972885       -26.4735
  26   2.0000      -0.911263       -24.7967
  27   2.0000      -0.907773       -24.7018
  28   2.0000      -0.869392       -23.6574
  29   2.0000      -0.850724       -23.1494
  30   2.0000      -0.846997       -23.0480
  31   2.0000      -0.814724       -22.1698
  32   2.0000      -0.778808       -21.1924
  33   2.0000      -0.763642       -20.7798
  34   2.0000      -0.713472       -19.4146
  35   2.0000      -0.700262       -19.0551
  36   2.0000      -0.687551       -18.7092
  37   2.0000      -0.662029       -18.0147
  38   2.0000      -0.643728       -17.5167
  39   2.0000      -0.612984       -16.6801
  40   2.0000      -0.591935       -16.1074
  41   2.0000      -0.572709       -15.5842
  42   2.0000      -0.568860       -15.4795
  43   2.0000      -0.562482       -15.3059
  44   2.0000      -0.528849       -14.3907
  45   2.0000      -0.523334       -14.2407
  46   2.0000      -0.520446       -14.1621
  47   2.0000      -0.508048       -13.8247
  48   2.0000      -0.505572       -13.7573
  49   2.0000      -0.499819       -13.6008
  50   2.0000      -0.495883       -13.4937
  51   2.0000      -0.481591       -13.1048
  52   2.0000      -0.473157       -12.8753
  53   2.0000      -0.459429       -12.5017
  54   2.0000      -0.455803       -12.4030
  55   2.0000      -0.451361       -12.2822
  56   2.0000      -0.446883       -12.1603
  57   2.0000      -0.434422       -11.8212
  58   2.0000      -0.430144       -11.7048
  59   2.0000      -0.425999       -11.5920
  60   2.0000      -0.417737       -11.3672
  61   2.0000      -0.411358       -11.1936
  62   2.0000      -0.401566       -10.9272
  63   2.0000      -0.349947        -9.5225
  64   2.0000      -0.329433        -8.9643
  65   2.0000      -0.326479        -8.8839
  66   2.0000      -0.288632        -7.8541
  67   0.0000       0.019059         0.5186
  68   0.0000       0.068650         1.8681
  69   0.0000       0.105808         2.8792
  70   0.0000       0.116337         3.1657
  71   0.0000       0.125659         3.4194

MULLIKEN ATOMIC CHARGES
-----------------------
   0 S :    0.088246
   1 C :   -0.111023
   2 C :   -0.053224
   3 C :    0.012596
   4 C :   -0.130723
   5 H :    0.011487
   6 C :   -0.003011
   7 H :    0.046230
   8 H :    0.053872
   9 C :   -0.089796
  10 H :    0.028279
  11 H :    0.037684
  12 C :   -0.040568
  13 H :    0.047984
  14 H :    0.029378
  15 H :    0.041957
  16 S :    0.095334
  17 C :   -0.119922
  18 C :   -0.004923
  19 C :   -0.078884
  20 C :   -0.104391
  21 H :    0.026416
  22 C :    0.024434
  23 H :    0.012653
  24 H :    0.016800
  25 C :   -0.043293
  26 H :    0.042072
  27 H :    0.019470
  28 C :   -0.051062
  29 H :    0.024906
  30 H :    0.051365
  31 H :    0.015023
  32 H :    0.024945
  33 H :    0.079687
Sum of atomic charges:    0.0000000

LOEWDIN ATOMIC CHARGES
----------------------
   0 S :    0.369328
   1 C :   -0.170804
   2 C :   -0.058732
   3 C :   -0.048732
   4 C :   -0.189379
   5 H :    0.026019
   6 C :   -0.041282
   7 H :    0.044769
   8 H :    0.038264
   9 C :   -0.049899
  10 H :    0.022829
  11 H :    0.025604
  12 C :   -0.064283
  13 H :    0.035585
  14 H :    0.024216
  15 H :    0.030533
  16 S :    0.379040
  17 C :   -0.170776
  18 C :   -0.066404
  19 C :   -0.057741
  20 C :   -0.195148
  21 H :    0.033729
  22 C :   -0.042995
  23 H :    0.028700
  24 H :    0.025164
  25 C :   -0.039324
  26 H :    0.027450
  27 H :    0.024037
  28 C :   -0.070026
  29 H :    0.028343
  30 H :    0.032354
  31 H :    0.016338
  32 H :    0.013009
  33 H :    0.040215

  Mayer bond orders larger than 0.100000
B(  0-S ,  1-C ) :   1.1178 B(  0-S ,  4-C ) :   1.1194 B(  1-C ,  2-C ) :   1.6331
B(  1-C , 32-H ) :   0.9732 B(  2-C ,  3-C ) :   1.2200 B(  2-C ,  6-C ) :   0.9943
B(  3-C ,  4-C ) :   1.6045 B(  3-C ,  5-H ) :   0.9897 B(  4-C , 20-C ) :   1.0506
B(  6-C ,  7-H ) :   0.9307 B(  6-C ,  8-H ) :   0.9534 B(  6-C ,  9-C ) :   1.0679
B(  9-C , 10-H ) :   0.9496 B(  9-C , 11-H ) :   0.9536 B(  9-C , 12-C ) :   1.0844
B( 12-C , 13-H ) :   0.9714 B( 12-C , 14-H ) :   0.9754 B( 12-C , 15-H ) :   0.9743
B( 16-S , 17-C ) :   1.1556 B( 16-S , 20-C ) :   1.1275 B( 17-C , 18-C ) :   1.5767
B( 17-C , 20-C ) :   0.1030 B( 17-C , 33-H ) :   0.9621 B( 18-C , 19-C ) :   1.2738
B( 18-C , 21-H ) :   0.9852 B( 19-C , 20-C ) :   1.5423 B( 19-C , 22-C ) :   1.0565
B( 22-C , 23-H ) :   0.9250 B( 22-C , 24-H ) :   0.9384 B( 22-C , 25-C ) :   1.0587
B( 25-C , 26-H ) :   0.9595 B( 25-C , 27-H ) :   0.9513 B( 25-C , 28-C ) :   1.0735
B( 28-C , 29-H ) :   0.9722 B( 28-C , 30-H ) :   0.9752 B( 28-C , 31-H ) :   0.9715

Dispersion correction           -0.013511230
FINAL SINGLE POINT ENERGY     -1339.858021037093

DIPOLE MOMENT
-------------
                                X             Y             Z
Electronic contribution:     19.12057       4.49356      19.01278
Nuclear contribution   :    -19.39915      -4.45390     -19.70583
                        -----------------------------------------
Total Dipole Moment    :     -0.27858       0.03965      -0.69304
                        -----------------------------------------
Magnitude (a.u.)       :      0.74799
Magnitude (Debye)      :      1.90124

Rotational constants in cm-1:     0.018707     0.007417     0.006154
Rotational constants in MHz :   560.814337   222.352900   184.496800

                             ****ORCA TERMINATED NORMALLY****
TOTAL RUN TIME: 0 days 0 hours 0 minutes 28 seconds 559 msec
