                         Program Version 4.2.1 -  RELEASE  -
|  1> ! wB97X-D3 SP def2-SVP
|  2> %pal
|  3> nprocs 16
|  4> end
|  5>
|  6> * xyz 0 1
|  7> S 	 -21.4214 	 -0.405518 	 77.5917
|  8> C 	 -20.8464 	 -0.0428065 	 75.9736
|  9> C 	 -21.0718 	 1.27693 	 75.5327
| 10> C 	 -21.6698 	 2.0121 	 76.5741
| 11> C 	 -21.9446 	 1.26544 	 77.7475
| 12> H 	 -21.8653 	 3.00598 	 76.4465
| 13> C 	 -20.5586 	 1.79842 	 74.121
| 14> H 	 -20.3811 	 2.87018 	 74.1873
| 15> H 	 -21.362 	 1.68215 	 73.4097
| 16> C 	 -19.3457 	 1.13033 	 73.5085
| 17> H 	 -19.4635 	 0.0676453 	 73.3881
| 18> H 	 -19.3854 	 1.52193 	 72.518
| 19> C 	 -18.0676 	 1.35421 	 74.3639
| 20> H 	 -17.9162 	 2.42296 	 74.586
| 21> H 	 -18.2191 	 0.775001 	 75.2456
| 22> H 	 -17.0511 	 1.02234 	 74.0542
| 23> S 	 -21.6084 	 3.08474 	 79.7569
| 24> C 	 -22.8423 	 3.33424 	 80.9478
| 25> C 	 -23.7717 	 2.27583 	 80.8658
| 26> C 	 -23.6036 	 1.39272 	 79.7641
| 27> C 	 -22.5208 	 1.77089 	 78.9779
| 28> H 	 -24.5018 	 2.15144 	 81.5751
| 29> C 	 -24.4454 	 0.135682 	 79.6714
| 30> H 	 -24.3646 	 -0.517386 	 80.5344
| 31> H 	 -24.0951 	 -0.458114 	 78.822
| 32> C 	 -25.9422 	 0.568612 	 79.3784
| 33> H 	 -25.9881 	 1.29773 	 78.5288
| 34> H 	 -26.3235 	 0.878775 	 80.3225
| 35> C 	 -26.8565 	 -0.655184 	 78.9911
| 36> H 	 -27.7879 	 -0.217748 	 78.8064
| 37> H 	 -26.9938 	 -1.47775 	 79.7106
| 38> H 	 -26.5217 	 -1.15558 	 78.0679
| 39> H 	 -20.4944 	 -0.821316 	 75.298
| 40> H 	 -22.8412 	 4.0954 	 81.5925
| 41> *
| 42>
| 43>                          ****END OF INPUT****

CARTESIAN COORDINATES (ANGSTROEM)
---------------------------------
  S    -21.421400   -0.405518   77.591700
  C    -20.846400   -0.042806   75.973600
  C    -21.071800    1.276930   75.532700
  C    -21.669800    2.012100   76.574100
  C    -21.944600    1.265440   77.747500
  H    -21.865300    3.005980   76.446500
  C    -20.558600    1.798420   74.121000
  H    -20.381100    2.870180   74.187300
  H    -21.362000    1.682150   73.409700
  C    -19.345700    1.130330   73.508500
  H    -19.463500    0.067645   73.388100
  H    -19.385400    1.521930   72.518000
  C    -18.067600    1.354210   74.363900
  H    -17.916200    2.422960   74.586000
  H    -18.219100    0.775001   75.245600
  H    -17.051100    1.022340   74.054200
  S    -21.608400    3.084740   79.756900
  C    -22.842300    3.334240   80.947800
  C    -23.771700    2.275830   80.865800
  C    -23.603600    1.392720   79.764100
  C    -22.520800    1.770890   78.977900
  H    -24.501800    2.151440   81.575100
  C    -24.445400    0.135682   79.671400
  H    -24.364600   -0.517386   80.534400
  H    -24.095100   -0.458114   78.822000
  C    -25.942200    0.568612   79.378400
  H    -25.988100    1.297730   78.528800
  H    -26.323500    0.878775   80.322500
  C    -26.856500   -0.655184   78.991100
  H    -27.787900   -0.217748   78.806400
  H    -26.993800   -1.477750   79.710600
  H    -26.521700   -1.155580   78.067900
  H    -20.494400   -0.821316   75.298000
  H    -22.841200    4.095400   81.592500

 Total Charge           Charge          ....    0
 Multiplicity           Mult            ....    1
 Number of Electrons    NEL             ....  134
 Basis Dimension        Dim             ....  322

ORBITAL ENERGIES
----------------

  NO   OCC          E(Eh)            E(eV)
   0   2.0000     -88.972296     -2421.0593
   1   2.0000     -88.961505     -2420.7656
   2   2.0000     -10.330785      -281.1150
   3   2.0000     -10.324512      -280.9443
   4   2.0000     -10.315041      -280.6865
   5   2.0000     -10.309859      -280.5455
   6   2.0000     -10.305088      -280.4157
   7   2.0000     -10.300338      -280.2864
   8   2.0000     -10.299764      -280.2708
   9   2.0000     -10.292072      -280.0615
  10   2.0000     -10.291737      -280.0524
  11   2.0000     -10.291554      -280.0474
  12   2.0000     -10.287822      -279.9459
  13   2.0000     -10.286672      -279.9146
  14   2.0000     -10.277061      -279.6530
  15   2.0000     -10.274064      -279.5715
  16   2.0000      -8.086109      -220.0342
  17   2.0000      -8.076128      -219.7626
  18   2.0000      -6.044410      -164.4768
  19   2.0000      -6.040741      -164.3769
  20   2.0000      -6.037171      -164.2798
  21   2.0000      -6.034547      -164.2084
  22   2.0000      -6.030622      -164.1016
  23   2.0000      -6.027018      -164.0035
  24   2.0000      -1.000665       -27.2295
  25   2.0000      -0.978415       -26.6240
  26   2.0000      -0.912005       -24.8169
  27   2.0000      -0.901386       -24.5280
  28   2.0000      -0.862845       -23.4792
  29   2.0000      -0.851024       -23.1575
  30   2.0000      -0.845162       -22.9980
  31   2.0000      -0.803181       -21.8557
  32   2.0000      -0.785177       -21.3658
  33   2.0000      -0.773394       -21.0451
  34   2.0000      -0.706944       -19.2369
  35   2.0000      -0.701831       -19.0978
  36   2.0000      -0.697535       -18.9809
  37   2.0000      -0.666261       -18.1299
  38   2.0000      -0.640806       -17.4372
  39   2.0000      -0.613274       -16.6880
  40   2.0000      -0.598726       -16.2922
  41   2.0000      -0.576743       -15.6940
  42   2.0000      -0.567006       -15.4290
  43   2.0000      -0.555101       -15.1051
  44   2.0000      -0.537898       -14.6369
  45   2.0000      -0.523707       -14.2508
  46   2.0000      -0.516756       -14.0617
  47   2.0000      -0.507896       -13.8206
  48   2.0000      -0.504023       -13.7152
  49   2.0000      -0.492303       -13.3963
  50   2.0000      -0.483947       -13.1689
  51   2.0000      -0.474809       -12.9202
  52   2.0000      -0.467989       -12.7346
  53   2.0000      -0.462974       -12.5982
  54   2.0000      -0.458381       -12.4732
  55   2.0000      -0.451433       -12.2841
  56   2.0000      -0.442159       -12.0318
  57   2.0000      -0.438382       -11.9290
  58   2.0000      -0.433565       -11.7979
  59   2.0000      -0.426921       -11.6171
  60   2.0000      -0.422031       -11.4840
  61   2.0000      -0.419505       -11.4153
  62   2.0000      -0.415724       -11.3124
  63   2.0000      -0.338277        -9.2050
  64   2.0000      -0.330034        -8.9807
  65   2.0000      -0.325244        -8.8503
  66   2.0000      -0.290223        -7.8974
  67   0.0000       0.027022         0.7353
  68   0.0000       0.066975         1.8225
  69   0.0000       0.102910         2.8003
  70   0.0000       0.115395         3.1400
  71   0.0000       0.127900         3.4803

MULLIKEN ATOMIC CHARGES
-----------------------
   0 S :    0.134372
   1 C :   -0.140529
   2 C :   -0.093807
   3 C :    0.061034
   4 C :   -0.160580
   5 H :   -0.029480
   6 C :    0.065383
   7 H :    0.026635
   8 H :    0.037540
   9 C :   -0.044145
  10 H :    0.021796
  11 H :    0.022328
  12 C :   -0.056053
  13 H :    0.031554
  14 H :    0.031964
  15 H :    0.033777
  16 S :    0.108060
  17 C :   -0.042120
  18 C :   -0.006181
  19 C :   -0.007853
  20 C :   -0.179032
  21 H :   -0.018196
  22 C :    0.076442
  23 H :    0.041182
  24 H :    0.007879
  25 C :   -0.110264
  26 H :    0.057897
  27 H :    0.030874
  28 C :   -0.041675
  29 H :    0.022269
  30 H :    0.032067
  31 H :    0.029519
  32 H :    0.048929
  33 H :    0.008415
Sum of atomic charges:    0.0000000

LOEWDIN ATOMIC CHARGES
----------------------
   0 S :    0.418815
   1 C :   -0.202807
   2 C :   -0.059554
   3 C :   -0.046037
   4 C :   -0.199825
   5 H :    0.015170
   6 C :   -0.021100
   7 H :    0.030414
   8 H :    0.033367
   9 C :   -0.037711
  10 H :    0.020681
  11 H :    0.024179
  12 C :   -0.070881
  13 H :    0.026184
  14 H :    0.024474
  15 H :    0.028574
  16 S :    0.409018
  17 C :   -0.167495
  18 C :   -0.055571
  19 C :   -0.056474
  20 C :   -0.195896
  21 H :    0.012380
  22 C :   -0.030726
  23 H :    0.032938
  24 H :    0.019343
  25 C :   -0.028111
  26 H :    0.037244
  27 H :    0.017912
  28 C :   -0.069128
  29 H :    0.017913
  30 H :    0.025105
  31 H :    0.024483
  32 H :    0.022532
  33 H :    0.000593

  Mayer bond orders larger than 0.100000
B(  0-S ,  1-C ) :   1.1618 B(  0-S ,  4-C ) :   1.1559 B(  1-C ,  2-C ) :   1.5850
B(  1-C ,  4-C ) :   0.1059 B(  1-C , 32-H ) :   0.9571 B(  2-C ,  3-C ) :   1.2990
B(  2-C ,  6-C ) :   0.9873 B(  3-C ,  4-C ) :   1.5171 B(  3-C ,  5-H ) :   1.0090
B(  4-C , 20-C ) :   1.0499 B(  6-C ,  7-H ) :   0.9477 B(  6-C ,  8-H ) :   0.9349
B(  6-C ,  9-C ) :   1.0914 B(  9-C , 10-H ) :   0.9512 B(  9-C , 11-H ) :   0.9511
B(  9-C , 12-C ) :   1.0582 B( 12-C , 13-H ) :   0.9791 B( 12-C , 14-H ) :   0.9728
B( 12-C , 15-H ) :   0.9776 B( 16-S , 17-C ) :   1.1648 B( 16-S , 20-C ) :   1.1530
B( 17-C , 18-C ) :   1.5604 B( 17-C , 20-C ) :   0.1064 B( 17-C , 33-H ) :   0.9908
B( 18-C , 19-C ) :   1.2545 B( 18-C , 21-H ) :   1.0019 B( 19-C , 20-C ) :   1.5618
B( 19-C , 22-C ) :   1.0492 B( 22-C , 23-H ) :   0.9432 B( 22-C , 24-H ) :   0.9315
B( 22-C , 25-C ) :   1.0498 B( 25-C , 26-H ) :   0.9595 B( 25-C , 27-H ) :   0.9590
B( 25-C , 28-C ) :   1.0821 B( 28-C , 29-H ) :   0.9756 B( 28-C , 30-H ) :   0.9751
B( 28-C , 31-H ) :   0.9759

Dispersion correction           -0.013962902
FINAL SINGLE POINT ENERGY     -1339.860005863496

DIPOLE MOMENT
-------------
                                X             Y             Z
Electronic contribution:      5.77677       5.10798      12.88140
Nuclear contribution   :     -6.00707      -5.14847     -13.15469
                        -----------------------------------------
Total Dipole Moment    :     -0.23030      -0.04049      -0.27329
                        -----------------------------------------
Magnitude (a.u.)       :      0.35967
Magnitude (Debye)      :      0.91422

Rotational constants in cm-1:     0.021879     0.007443     0.006167
Rotational constants in MHz :   655.914031   223.143760   184.893431

                             ****ORCA TERMINATED NORMALLY****
TOTAL RUN TIME: 0 days 0 hours 0 minutes 34 seconds 388 msec
