                         Program Version 4.2.1 -  RELEASE  -
|  1> ! wB97X-D3 SP def2-SVP
|  2> %pal
|  3> nprocs 16
|  4> end
|  5>
|  6> * xyz 0 1
|  7> S 	 -41.0952 	 15.3125 	 74.9631
|  8> C 	 -40.3867 	 14.8816 	 73.3963
|  9> C 	 -40.6302 	 13.4984 	 73.0366
| 10> C 	 -41.5577 	 12.9047 	 74.042
| 11> C 	 -41.911 	 13.7639 	 75.0885
| 12> H 	 -41.9843 	 11.9032 	 74.1083
| 13> C 	 -40.067 	 12.7376 	 71.8833
| 14> H 	 -40.8772 	 12.1914 	 71.3195
| 15> H 	 -39.4447 	 11.9774 	 72.3534
| 16> C 	 -39.4578 	 13.564 	 70.7253
| 17> H 	 -38.9193 	 14.4058 	 71.1529
| 18> H 	 -38.6857 	 12.9361 	 70.2423
| 19> C 	 -40.4111 	 14.0918 	 69.6924
| 20> H 	 -41.0367 	 13.2917 	 69.2755
| 21> H 	 -41.012 	 14.8115 	 70.1339
| 22> H 	 -39.9781 	 14.4671 	 68.7314
| 23> S 	 -43.7742 	 14.6536 	 76.9424
| 24> C 	 -44.1899 	 13.6609 	 78.3447
| 25> C 	 -43.4009 	 12.5419 	 78.3883
| 26> C 	 -42.4425 	 12.4387 	 77.3118
| 27> C 	 -42.5743 	 13.4837 	 76.3912
| 28> H 	 -43.4342 	 11.9157 	 79.214
| 29> C 	 -41.4866 	 11.2484 	 77.1648
| 30> H 	 -40.6446 	 11.5017 	 77.7871
| 31> H 	 -41.0893 	 11.1936 	 76.1359
| 32> C 	 -41.9298 	 9.93925 	 77.6789
| 33> H 	 -42.0448 	 10.0468 	 78.7473
| 34> H 	 -41.0753 	 9.28421 	 77.472
| 35> C 	 -43.1929 	 9.4549 	 76.9223
| 36> H 	 -43.5004 	 8.46127 	 77.2884
| 37> H 	 -42.8809 	 9.4571 	 75.8541
| 38> H 	 -43.9737 	 10.2177 	 77.0027
| 39> H 	 -39.7171 	 15.568 	 72.9166
| 40> H 	 -44.9882 	 13.9355 	 79.0267
| 41> *
| 42>
| 43>                          ****END OF INPUT****

CARTESIAN COORDINATES (ANGSTROEM)
---------------------------------
  S    -41.095200   15.312500   74.963100
  C    -40.386700   14.881600   73.396300
  C    -40.630200   13.498400   73.036600
  C    -41.557700   12.904700   74.042000
  C    -41.911000   13.763900   75.088500
  H    -41.984300   11.903200   74.108300
  C    -40.067000   12.737600   71.883300
  H    -40.877200   12.191400   71.319500
  H    -39.444700   11.977400   72.353400
  C    -39.457800   13.564000   70.725300
  H    -38.919300   14.405800   71.152900
  H    -38.685700   12.936100   70.242300
  C    -40.411100   14.091800   69.692400
  H    -41.036700   13.291700   69.275500
  H    -41.012000   14.811500   70.133900
  H    -39.978100   14.467100   68.731400
  S    -43.774200   14.653600   76.942400
  C    -44.189900   13.660900   78.344700
  C    -43.400900   12.541900   78.388300
  C    -42.442500   12.438700   77.311800
  C    -42.574300   13.483700   76.391200
  H    -43.434200   11.915700   79.214000
  C    -41.486600   11.248400   77.164800
  H    -40.644600   11.501700   77.787100
  H    -41.089300   11.193600   76.135900
  C    -41.929800    9.939250   77.678900
  H    -42.044800   10.046800   78.747300
  H    -41.075300    9.284210   77.472000
  C    -43.192900    9.454900   76.922300
  H    -43.500400    8.461270   77.288400
  H    -42.880900    9.457100   75.854100
  H    -43.973700   10.217700   77.002700
  H    -39.717100   15.568000   72.916600
  H    -44.988200   13.935500   79.026700

 Total Charge           Charge          ....    0
 Multiplicity           Mult            ....    1
 Number of Electrons    NEL             ....  134
 Basis Dimension        Dim             ....  322

ORBITAL ENERGIES
----------------

  NO   OCC          E(Eh)            E(eV)
   0   2.0000     -88.965126     -2420.8642
   1   2.0000     -88.963258     -2420.8133
   2   2.0000     -10.334209      -281.2081
   3   2.0000     -10.330792      -281.1151
   4   2.0000     -10.322375      -280.8861
   5   2.0000     -10.321097      -280.8513
   6   2.0000     -10.319999      -280.8215
   7   2.0000     -10.308176      -280.4997
   8   2.0000     -10.304097      -280.3887
   9   2.0000     -10.300240      -280.2838
  10   2.0000     -10.292789      -280.0810
  11   2.0000     -10.289663      -279.9960
  12   2.0000     -10.286930      -279.9216
  13   2.0000     -10.283875      -279.8385
  14   2.0000     -10.281114      -279.7633
  15   2.0000     -10.275572      -279.6125
  16   2.0000      -8.079442      -219.8528
  17   2.0000      -8.077778      -219.8075
  18   2.0000      -6.037977      -164.3017
  19   2.0000      -6.036351      -164.2575
  20   2.0000      -6.033967      -164.1926
  21   2.0000      -6.032255      -164.1460
  22   2.0000      -6.030234      -164.0910
  23   2.0000      -6.028540      -164.0449
  24   2.0000      -0.998740       -27.1771
  25   2.0000      -0.973979       -26.5033
  26   2.0000      -0.919131       -25.0108
  27   2.0000      -0.914977       -24.8978
  28   2.0000      -0.864708       -23.5299
  29   2.0000      -0.848358       -23.0850
  30   2.0000      -0.840806       -22.8795
  31   2.0000      -0.813739       -22.1430
  32   2.0000      -0.784798       -21.3554
  33   2.0000      -0.773693       -21.0533
  34   2.0000      -0.709524       -19.3071
  35   2.0000      -0.700923       -19.0731
  36   2.0000      -0.688748       -18.7418
  37   2.0000      -0.658265       -17.9123
  38   2.0000      -0.642385       -17.4802
  39   2.0000      -0.609864       -16.5953
  40   2.0000      -0.597710       -16.2645
  41   2.0000      -0.579081       -15.7576
  42   2.0000      -0.562558       -15.3080
  43   2.0000      -0.558833       -15.2066
  44   2.0000      -0.547690       -14.9034
  45   2.0000      -0.534875       -14.5547
  46   2.0000      -0.518565       -14.1109
  47   2.0000      -0.508218       -13.8293
  48   2.0000      -0.498874       -13.5751
  49   2.0000      -0.495810       -13.4917
  50   2.0000      -0.491654       -13.3786
  51   2.0000      -0.477678       -12.9983
  52   2.0000      -0.471847       -12.8396
  53   2.0000      -0.465655       -12.6711
  54   2.0000      -0.458355       -12.4725
  55   2.0000      -0.449006       -12.2181
  56   2.0000      -0.444449       -12.0941
  57   2.0000      -0.440248       -11.9797
  58   2.0000      -0.431443       -11.7401
  59   2.0000      -0.425115       -11.5680
  60   2.0000      -0.422332       -11.4923
  61   2.0000      -0.415277       -11.3003
  62   2.0000      -0.410392       -11.1673
  63   2.0000      -0.345628        -9.4050
  64   2.0000      -0.328186        -8.9304
  65   2.0000      -0.325472        -8.8565
  66   2.0000      -0.291757        -7.9391
  67   0.0000       0.030192         0.8216
  68   0.0000       0.066835         1.8187
  69   0.0000       0.103772         2.8238
  70   0.0000       0.114434         3.1139
  71   0.0000       0.129958         3.5363

MULLIKEN ATOMIC CHARGES
-----------------------
   0 S :    0.101307
   1 C :   -0.127352
   2 C :   -0.102226
   3 C :    0.014840
   4 C :   -0.124632
   5 H :    0.020400
   6 C :    0.039654
   7 H :    0.038736
   8 H :    0.049997
   9 C :   -0.068906
  10 H :    0.019697
  11 H :    0.029212
  12 C :   -0.034226
  13 H :    0.021016
  14 H :    0.028635
  15 H :    0.040134
  16 S :    0.092956
  17 C :   -0.088338
  18 C :   -0.008437
  19 C :   -0.052404
  20 C :   -0.176467
  21 H :   -0.004368
  22 C :    0.074633
  23 H :    0.029951
  24 H :    0.017557
  25 C :   -0.078681
  26 H :    0.026361
  27 H :    0.033486
  28 C :   -0.048816
  29 H :    0.045727
  30 H :    0.026775
  31 H :    0.045839
  32 H :    0.053414
  33 H :    0.064525
Sum of atomic charges:    0.0000000

LOEWDIN ATOMIC CHARGES
----------------------
   0 S :    0.397496
   1 C :   -0.201600
   2 C :   -0.050033
   3 C :   -0.069038
   4 C :   -0.189027
   5 H :    0.032103
   6 C :   -0.040557
   7 H :    0.040319
   8 H :    0.039785
   9 C :   -0.042781
  10 H :    0.019667
  11 H :    0.028890
  12 C :   -0.063939
  13 H :    0.025400
  14 H :    0.017500
  15 H :    0.035645
  16 S :    0.389056
  17 C :   -0.170666
  18 C :   -0.068550
  19 C :   -0.051392
  20 C :   -0.203005
  21 H :    0.019824
  22 C :   -0.035784
  23 H :    0.036710
  24 H :    0.029232
  25 C :   -0.044573
  26 H :    0.018357
  27 H :    0.030701
  28 C :   -0.064902
  29 H :    0.027019
  30 H :    0.028777
  31 H :    0.027291
  32 H :    0.019866
  33 H :    0.032208

  Mayer bond orders larger than 0.100000
B(  0-S ,  1-C ) :   1.1373 B(  0-S ,  4-C ) :   1.1576 B(  1-C ,  2-C ) :   1.5962
B(  1-C , 32-H ) :   0.9701 B(  2-C ,  3-C ) :   1.2078 B(  2-C ,  6-C ) :   1.0228
B(  3-C ,  4-C ) :   1.6107 B(  3-C ,  5-H ) :   0.9889 B(  4-C , 20-C ) :   1.0024
B(  6-C ,  7-H ) :   0.9464 B(  6-C ,  8-H ) :   0.9325 B(  6-C ,  9-C ) :   1.0621
B(  9-C , 10-H ) :   0.9533 B(  9-C , 11-H ) :   0.9526 B(  9-C , 12-C ) :   1.0859
B( 12-C , 13-H ) :   0.9684 B( 12-C , 14-H ) :   0.9771 B( 12-C , 15-H ) :   0.9724
B( 16-S , 17-C ) :   1.1499 B( 16-S , 20-C ) :   1.1394 B( 17-C , 18-C ) :   1.6097
B( 17-C , 33-H ) :   0.9686 B( 18-C , 19-C ) :   1.2289 B( 18-C , 21-H ) :   0.9970
B( 19-C , 20-C ) :   1.6032 B( 19-C , 22-C ) :   1.0259 B( 22-C , 23-H ) :   0.9168
B( 22-C , 24-H ) :   0.9387 B( 22-C , 25-C ) :   1.0955 B( 25-C , 26-H ) :   0.9433
B( 25-C , 27-H ) :   0.9492 B( 25-C , 28-C ) :   1.0720 B( 28-C , 29-H ) :   0.9753
B( 28-C , 30-H ) :   0.9716 B( 28-C , 31-H ) :   0.9739

Dispersion correction           -0.014201510
FINAL SINGLE POINT ENERGY     -1339.875289274017

DIPOLE MOMENT
-------------
                                X             Y             Z
Electronic contribution:     -7.37819      19.25331      13.92563
Nuclear contribution   :      7.70309     -19.90554     -13.99626
                        -----------------------------------------
Total Dipole Moment    :      0.32491      -0.65223      -0.07063
                        -----------------------------------------
Magnitude (a.u.)       :      0.73209
Magnitude (Debye)      :      1.86083

Rotational constants in cm-1:     0.022263     0.007558     0.006117
Rotational constants in MHz :   667.433546   226.597428   183.384427

                             ****ORCA TERMINATED NORMALLY****
TOTAL RUN TIME: 0 days 0 hours 0 minutes 30 seconds 182 msec
