                         Program Version 4.2.1 -  RELEASE  -
|  1> ! wB97X-D3 SP def2-SVP
|  2> %pal
|  3> nprocs 16
|  4> end
|  5>
|  6> * xyz 0 1
|  7> S 	 -92.818 	 39.5943 	 125.684
|  8> C 	 -93.5727 	 38.8302 	 124.34
|  9> C 	 -94.6016 	 39.5441 	 123.791
| 10> C 	 -94.8322 	 40.7277 	 124.559
| 11> C 	 -93.9648 	 40.9802 	 125.62
| 12> H 	 -95.6213 	 41.4721 	 124.363
| 13> C 	 -95.4715 	 39.2033 	 122.571
| 14> H 	 -94.7994 	 38.9539 	 121.832
| 15> H 	 -96.0154 	 40.0305 	 122.203
| 16> C 	 -96.4505 	 38.0335 	 122.817
| 17> H 	 -95.8901 	 37.2092 	 123.215
| 18> H 	 -97.2015 	 38.3116 	 123.547
| 19> C 	 -97.2245 	 37.5166 	 121.584
| 20> H 	 -97.4681 	 36.4919 	 121.802
| 21> H 	 -98.1141 	 38.1472 	 121.427
| 22> H 	 -96.6236 	 37.4076 	 120.696
| 23> S 	 -93.4729 	 41.4133 	 128.328
| 24> C 	 -94.0636 	 42.7825 	 129.191
| 25> C 	 -94.8891 	 43.5022 	 128.331
| 26> C 	 -94.8452 	 43.0894 	 126.976
| 27> C 	 -94.1033 	 41.9206 	 126.762
| 28> H 	 -95.527 	 44.2987 	 128.714
| 29> C 	 -95.6798 	 43.7492 	 125.859
| 30> H 	 -95.3518 	 43.5579 	 124.824
| 31> H 	 -95.5367 	 44.8219 	 126.002
| 32> C 	 -97.2378 	 43.5544 	 125.926
| 33> H 	 -97.5004 	 43.6121 	 126.998
| 34> H 	 -97.4877 	 42.557 	 125.524
| 35> C 	 -97.986 	 44.5385 	 125.105
| 36> H 	 -97.6338 	 44.5897 	 124.046
| 37> H 	 -98.0584 	 45.579 	 125.591
| 38> H 	 -98.9811 	 44.1171 	 125.108
| 39> H 	 -93.0393 	 38.0023 	 123.924
| 40> H 	 -94.1545 	 42.869 	 130.259
| 41> *
| 42>
| 43>                          ****END OF INPUT****

CARTESIAN COORDINATES (ANGSTROEM)
---------------------------------
  S    -92.818000   39.594300  125.684000
  C    -93.572700   38.830200  124.340000
  C    -94.601600   39.544100  123.791000
  C    -94.832200   40.727700  124.559000
  C    -93.964800   40.980200  125.620000
  H    -95.621300   41.472100  124.363000
  C    -95.471500   39.203300  122.571000
  H    -94.799400   38.953900  121.832000
  H    -96.015400   40.030500  122.203000
  C    -96.450500   38.033500  122.817000
  H    -95.890100   37.209200  123.215000
  H    -97.201500   38.311600  123.547000
  C    -97.224500   37.516600  121.584000
  H    -97.468100   36.491900  121.802000
  H    -98.114100   38.147200  121.427000
  H    -96.623600   37.407600  120.696000
  S    -93.472900   41.413300  128.328000
  C    -94.063600   42.782500  129.191000
  C    -94.889100   43.502200  128.331000
  C    -94.845200   43.089400  126.976000
  C    -94.103300   41.920600  126.762000
  H    -95.527000   44.298700  128.714000
  C    -95.679800   43.749200  125.859000
  H    -95.351800   43.557900  124.824000
  H    -95.536700   44.821900  126.002000
  C    -97.237800   43.554400  125.926000
  H    -97.500400   43.612100  126.998000
  H    -97.487700   42.557000  125.524000
  C    -97.986000   44.538500  125.105000
  H    -97.633800   44.589700  124.046000
  H    -98.058400   45.579000  125.591000
  H    -98.981100   44.117100  125.108000
  H    -93.039300   38.002300  123.924000
  H    -94.154500   42.869000  130.259000

 Total Charge           Charge          ....    0
 Multiplicity           Mult            ....    1
 Number of Electrons    NEL             ....  134
 Basis Dimension        Dim             ....  322

ORBITAL ENERGIES
----------------

  NO   OCC          E(Eh)            E(eV)
   0   2.0000     -88.965096     -2420.8633
   1   2.0000     -88.964288     -2420.8413
   2   2.0000     -10.338510      -281.3252
   3   2.0000     -10.334525      -281.2167
   4   2.0000     -10.316507      -280.7264
   5   2.0000     -10.313446      -280.6431
   6   2.0000     -10.305692      -280.4321
   7   2.0000     -10.304341      -280.3954
   8   2.0000     -10.298465      -280.2355
   9   2.0000     -10.296400      -280.1793
  10   2.0000     -10.294142      -280.1178
  11   2.0000     -10.290190      -280.0103
  12   2.0000     -10.286735      -279.9163
  13   2.0000     -10.285795      -279.8907
  14   2.0000     -10.284286      -279.8496
  15   2.0000     -10.277843      -279.6743
  16   2.0000      -8.079816      -219.8630
  17   2.0000      -8.079224      -219.8468
  18   2.0000      -6.038405      -164.3133
  19   2.0000      -6.037803      -164.2970
  20   2.0000      -6.034247      -164.2002
  21   2.0000      -6.033539      -164.1810
  22   2.0000      -6.030571      -164.1002
  23   2.0000      -6.030029      -164.0854
  24   2.0000      -1.005469       -27.3602
  25   2.0000      -0.986421       -26.8419
  26   2.0000      -0.910678       -24.7808
  27   2.0000      -0.909680       -24.7536
  28   2.0000      -0.869649       -23.6644
  29   2.0000      -0.855532       -23.2802
  30   2.0000      -0.846760       -23.0415
  31   2.0000      -0.815884       -22.2013
  32   2.0000      -0.783819       -21.3288
  33   2.0000      -0.773284       -21.0421
  34   2.0000      -0.703058       -19.1312
  35   2.0000      -0.700132       -19.0516
  36   2.0000      -0.689808       -18.7706
  37   2.0000      -0.665129       -18.0991
  38   2.0000      -0.643317       -17.5056
  39   2.0000      -0.621581       -16.9141
  40   2.0000      -0.597560       -16.2604
  41   2.0000      -0.578926       -15.7534
  42   2.0000      -0.566483       -15.4148
  43   2.0000      -0.559439       -15.2231
  44   2.0000      -0.526586       -14.3291
  45   2.0000      -0.522607       -14.2208
  46   2.0000      -0.519874       -14.1465
  47   2.0000      -0.512707       -13.9515
  48   2.0000      -0.506657       -13.7868
  49   2.0000      -0.502457       -13.6725
  50   2.0000      -0.497303       -13.5323
  51   2.0000      -0.484476       -13.1833
  52   2.0000      -0.476984       -12.9794
  53   2.0000      -0.464920       -12.6511
  54   2.0000      -0.463246       -12.6056
  55   2.0000      -0.447856       -12.1868
  56   2.0000      -0.439539       -11.9605
  57   2.0000      -0.435097       -11.8396
  58   2.0000      -0.429290       -11.6816
  59   2.0000      -0.425800       -11.5866
  60   2.0000      -0.423817       -11.5327
  61   2.0000      -0.422035       -11.4842
  62   2.0000      -0.406138       -11.0516
  63   2.0000      -0.363833        -9.9004
  64   2.0000      -0.333323        -9.0702
  65   2.0000      -0.327093        -8.9007
  66   2.0000      -0.283884        -7.7249
  67   0.0000       0.018817         0.5120
  68   0.0000       0.080836         2.1997
  69   0.0000       0.100367         2.7311
  70   0.0000       0.119738         3.2582
  71   0.0000       0.128772         3.5041

MULLIKEN ATOMIC CHARGES
-----------------------
   0 S :    0.089833
   1 C :   -0.132251
   2 C :   -0.069633
   3 C :   -0.010753
   4 C :   -0.116159
   5 H :    0.004190
   6 C :    0.150289
   7 H :    0.003280
   8 H :    0.005571
   9 C :   -0.093808
  10 H :    0.021239
  11 H :    0.029848
  12 C :   -0.031548
  13 H :    0.026631
  14 H :    0.043338
  15 H :    0.022219
  16 S :    0.088927
  17 C :   -0.076018
  18 C :   -0.061015
  19 C :   -0.038206
  20 C :   -0.107711
  21 H :    0.024806
  22 C :    0.021265
  23 H :    0.030983
  24 H :    0.018482
  25 C :   -0.079999
  26 H :    0.030093
  27 H :    0.029687
  28 C :   -0.059791
  29 H :    0.041397
  30 H :    0.047461
  31 H :    0.033971
  32 H :    0.048951
  33 H :    0.064431
Sum of atomic charges:    0.0000000

LOEWDIN ATOMIC CHARGES
----------------------
   0 S :    0.394708
   1 C :   -0.192640
   2 C :   -0.061441
   3 C :   -0.063264
   4 C :   -0.176754
   5 H :    0.029966
   6 C :   -0.017514
   7 H :    0.021223
   8 H :    0.023841
   9 C :   -0.034338
  10 H :    0.019223
  11 H :    0.025365
  12 C :   -0.064686
  13 H :    0.027785
  14 H :    0.028453
  15 H :    0.021143
  16 S :    0.414722
  17 C :   -0.199617
  18 C :   -0.072603
  19 C :   -0.065454
  20 C :   -0.187721
  21 H :    0.031585
  22 C :   -0.038693
  23 H :    0.026813
  24 H :    0.029289
  25 C :   -0.043642
  26 H :    0.027115
  27 H :    0.022086
  28 C :   -0.073084
  29 H :    0.030000
  30 H :    0.033787
  31 H :    0.028549
  32 H :    0.022687
  33 H :    0.033114

  Mayer bond orders larger than 0.100000
B(  0-S ,  1-C ) :   1.1614 B(  0-S ,  4-C ) :   1.1372 B(  1-C ,  2-C ) :   1.5912
B(  1-C , 32-H ) :   0.9684 B(  2-C ,  3-C ) :   1.2624 B(  2-C ,  6-C ) :   1.0166
B(  3-C ,  4-C ) :   1.5692 B(  3-C ,  5-H ) :   0.9786 B(  4-C , 20-C ) :   1.0579
B(  6-C ,  7-H ) :   0.9275 B(  6-C ,  8-H ) :   0.9403 B(  6-C ,  9-C ) :   1.0690
B(  9-C , 10-H ) :   0.9620 B(  9-C , 11-H ) :   0.9578 B(  9-C , 12-C ) :   1.0817
B( 12-C , 13-H ) :   0.9738 B( 12-C , 14-H ) :   0.9783 B( 12-C , 15-H ) :   0.9745
B( 16-S , 17-C ) :   1.1703 B( 16-S , 20-C ) :   1.1499 B( 17-C , 18-C ) :   1.5723
B( 17-C , 20-C ) :   0.1004 B( 17-C , 33-H ) :   0.9668 B( 18-C , 19-C ) :   1.2890
B( 18-C , 21-H ) :   0.9854 B( 19-C , 20-C ) :   1.5578 B( 19-C , 22-C ) :   1.0372
B( 22-C , 23-H ) :   0.9396 B( 22-C , 24-H ) :   0.9340 B( 22-C , 25-C ) :   1.0579
B( 25-C , 26-H ) :   0.9512 B( 25-C , 27-H ) :   0.9550 B( 25-C , 28-C ) :   1.0876
B( 28-C , 29-H ) :   0.9705 B( 28-C , 30-H ) :   0.9704 B( 28-C , 31-H ) :   0.9717

Dispersion correction           -0.013486276
FINAL SINGLE POINT ENERGY     -1339.877706353478

DIPOLE MOMENT
-------------
                                X             Y             Z
Electronic contribution:     25.12229      -2.43297      19.78591
Nuclear contribution   :    -25.88995       2.46715     -20.16969
                        -----------------------------------------
Total Dipole Moment    :     -0.76766       0.03418      -0.38378
                        -----------------------------------------
Magnitude (a.u.)       :      0.85893
Magnitude (Debye)      :      2.18322

Rotational constants in cm-1:     0.017111     0.008631     0.006101
Rotational constants in MHz :   512.965054   258.759673   182.896294

                             ****ORCA TERMINATED NORMALLY****
TOTAL RUN TIME: 0 days 0 hours 0 minutes 33 seconds 323 msec
