                         Program Version 4.2.1 -  RELEASE  -
|  1> ! wB97X-D3 SP def2-SVP
|  2> %pal
|  3> nprocs 16
|  4> end
|  5>
|  6> * xyz 0 1
|  7> S 	 51.9153 	 20.5616 	 80.1024
|  8> C 	 51.7709 	 21.3315 	 81.6026
|  9> C 	 50.5826 	 21.0393 	 82.1693
| 10> C 	 49.6681 	 20.3465 	 81.3452
| 11> C 	 50.1643 	 20.1661 	 80.0673
| 12> H 	 48.6404 	 20.0544 	 81.3387
| 13> C 	 50.2521 	 21.4548 	 83.6279
| 14> H 	 49.8735 	 22.4161 	 83.7386
| 15> H 	 51.2072 	 21.4826 	 84.136
| 16> C 	 49.1809 	 20.57 	 84.3348
| 17> H 	 48.8963 	 20.9973 	 85.2867
| 18> H 	 48.2969 	 20.569 	 83.753
| 19> C 	 49.6717 	 19.1329 	 84.7115
| 20> H 	 48.8868 	 18.6203 	 85.3859
| 21> H 	 49.8499 	 18.4282 	 83.8738
| 22> H 	 50.5889 	 19.2555 	 85.3274
| 23> S 	 50.0264 	 17.9046 	 78.606
| 24> C 	 48.7905 	 17.626 	 77.4307
| 25> C 	 47.9275 	 18.6802 	 77.378
| 26> C 	 48.2318 	 19.7497 	 78.2803
| 27> C 	 49.4079 	 19.4988 	 79.0256
| 28> H 	 47.0337 	 18.6548 	 76.7402
| 29> C 	 47.3986 	 21.005 	 78.4556
| 30> H 	 47.3685 	 21.4868 	 77.4555
| 31> H 	 48.0388 	 21.6983 	 78.99
| 32> C 	 46.0418 	 21.0669 	 79.1441
| 33> H 	 45.687 	 22.0393 	 79.4227
| 34> H 	 46.082 	 20.5606 	 80.0861
| 35> C 	 44.963 	 20.4641 	 78.1724
| 36> H 	 44.8123 	 20.9371 	 77.2292
| 37> H 	 43.9699 	 20.5361 	 78.6399
| 38> H 	 45.2803 	 19.3782 	 78.0112
| 39> H 	 52.5666 	 21.6952 	 82.166
| 40> H 	 48.5096 	 16.7035 	 77.0326
| 41> *
| 42>
| 43>                          ****END OF INPUT****

CARTESIAN COORDINATES (ANGSTROEM)
---------------------------------
  S     51.915300   20.561600   80.102400
  C     51.770900   21.331500   81.602600
  C     50.582600   21.039300   82.169300
  C     49.668100   20.346500   81.345200
  C     50.164300   20.166100   80.067300
  H     48.640400   20.054400   81.338700
  C     50.252100   21.454800   83.627900
  H     49.873500   22.416100   83.738600
  H     51.207200   21.482600   84.136000
  C     49.180900   20.570000   84.334800
  H     48.896300   20.997300   85.286700
  H     48.296900   20.569000   83.753000
  C     49.671700   19.132900   84.711500
  H     48.886800   18.620300   85.385900
  H     49.849900   18.428200   83.873800
  H     50.588900   19.255500   85.327400
  S     50.026400   17.904600   78.606000
  C     48.790500   17.626000   77.430700
  C     47.927500   18.680200   77.378000
  C     48.231800   19.749700   78.280300
  C     49.407900   19.498800   79.025600
  H     47.033700   18.654800   76.740200
  C     47.398600   21.005000   78.455600
  H     47.368500   21.486800   77.455500
  H     48.038800   21.698300   78.990000
  C     46.041800   21.066900   79.144100
  H     45.687000   22.039300   79.422700
  H     46.082000   20.560600   80.086100
  C     44.963000   20.464100   78.172400
  H     44.812300   20.937100   77.229200
  H     43.969900   20.536100   78.639900
  H     45.280300   19.378200   78.011200
  H     52.566600   21.695200   82.166000
  H     48.509600   16.703500   77.032600

 Total Charge           Charge          ....    0
 Multiplicity           Mult            ....    1
 Number of Electrons    NEL             ....  134
 Basis Dimension        Dim             ....  322

ORBITAL ENERGIES
----------------

  NO   OCC          E(Eh)            E(eV)
   0   2.0000     -88.965522     -2420.8749
   1   2.0000     -88.963819     -2420.8286
   2   2.0000     -10.331376      -281.1310
   3   2.0000     -10.330642      -281.1111
   4   2.0000     -10.311512      -280.5905
   5   2.0000     -10.311231      -280.5829
   6   2.0000     -10.304718      -280.4056
   7   2.0000     -10.299749      -280.2704
   8   2.0000     -10.294442      -280.1260
   9   2.0000     -10.292773      -280.0806
  10   2.0000     -10.290054      -280.0066
  11   2.0000     -10.288350      -279.9602
  12   2.0000     -10.287442      -279.9355
  13   2.0000     -10.286375      -279.9065
  14   2.0000     -10.286318      -279.9049
  15   2.0000     -10.282133      -279.7911
  16   2.0000      -8.080656      -219.8858
  17   2.0000      -8.079006      -219.8409
  18   2.0000      -6.039111      -164.3326
  19   2.0000      -6.037440      -164.2871
  20   2.0000      -6.035221      -164.2267
  21   2.0000      -6.033324      -164.1751
  22   2.0000      -6.031307      -164.1202
  23   2.0000      -6.029923      -164.0825
  24   2.0000      -1.011596       -27.5269
  25   2.0000      -0.990467       -26.9520
  26   2.0000      -0.908170       -24.7126
  27   2.0000      -0.904443       -24.6111
  28   2.0000      -0.880283       -23.9537
  29   2.0000      -0.847564       -23.0634
  30   2.0000      -0.842309       -22.9204
  31   2.0000      -0.821133       -22.3442
  32   2.0000      -0.780959       -21.2510
  33   2.0000      -0.771284       -20.9877
  34   2.0000      -0.717478       -19.5236
  35   2.0000      -0.702307       -19.1107
  36   2.0000      -0.693830       -18.8801
  37   2.0000      -0.660793       -17.9811
  38   2.0000      -0.653855       -17.7923
  39   2.0000      -0.617535       -16.8040
  40   2.0000      -0.595270       -16.1981
  41   2.0000      -0.569744       -15.5035
  42   2.0000      -0.552452       -15.0330
  43   2.0000      -0.548791       -14.9334
  44   2.0000      -0.543159       -14.7801
  45   2.0000      -0.532560       -14.4917
  46   2.0000      -0.524272       -14.2662
  47   2.0000      -0.514911       -14.0115
  48   2.0000      -0.509898       -13.8750
  49   2.0000      -0.499494       -13.5919
  50   2.0000      -0.486587       -13.2407
  51   2.0000      -0.478943       -13.0327
  52   2.0000      -0.475706       -12.9446
  53   2.0000      -0.470836       -12.8121
  54   2.0000      -0.457667       -12.4537
  55   2.0000      -0.447710       -12.1828
  56   2.0000      -0.439124       -11.9492
  57   2.0000      -0.438481       -11.9317
  58   2.0000      -0.434363       -11.8196
  59   2.0000      -0.426673       -11.6104
  60   2.0000      -0.419503       -11.4153
  61   2.0000      -0.412186       -11.2161
  62   2.0000      -0.403393       -10.9769
  63   2.0000      -0.349052        -9.4982
  64   2.0000      -0.330476        -8.9927
  65   2.0000      -0.327641        -8.9156
  66   2.0000      -0.299778        -8.1574
  67   0.0000       0.031178         0.8484
  68   0.0000       0.056931         1.5492
  69   0.0000       0.117411         3.1949
  70   0.0000       0.122767         3.3407
  71   0.0000       0.134803         3.6682

MULLIKEN ATOMIC CHARGES
-----------------------
   0 S :    0.117061
   1 C :   -0.076981
   2 C :   -0.067275
   3 C :    0.043146
   4 C :   -0.172543
   5 H :    0.008488
   6 C :    0.105656
   7 H :    0.024480
   8 H :    0.007421
   9 C :   -0.068842
  10 H :    0.022846
  11 H :    0.024103
  12 C :   -0.101461
  13 H :    0.041173
  14 H :    0.052135
  15 H :    0.036891
  16 S :    0.102531
  17 C :   -0.048518
  18 C :   -0.061185
  19 C :   -0.026025
  20 C :   -0.200455
  21 H :    0.029643
  22 C :    0.038126
  23 H :    0.032001
  24 H :    0.019137
  25 C :   -0.003776
  26 H :    0.022056
  27 H :    0.019648
  28 C :   -0.091595
  29 H :    0.029705
  30 H :    0.032044
  31 H :    0.042808
  32 H :    0.027002
  33 H :    0.040555
Sum of atomic charges:    0.0000000

LOEWDIN ATOMIC CHARGES
----------------------
   0 S :    0.410087
   1 C :   -0.199437
   2 C :   -0.065003
   3 C :   -0.057131
   4 C :   -0.188805
   5 H :    0.033437
   6 C :   -0.022471
   7 H :    0.023619
   8 H :    0.025071
   9 C :   -0.037704
  10 H :    0.025676
  11 H :    0.016421
  12 C :   -0.076844
  13 H :    0.032463
  14 H :    0.026523
  15 H :    0.026924
  16 S :    0.415013
  17 C :   -0.185094
  18 C :   -0.075760
  19 C :   -0.054104
  20 C :   -0.192870
  21 H :    0.034141
  22 C :   -0.042369
  23 H :    0.037285
  24 H :    0.031098
  25 C :   -0.031252
  26 H :    0.023528
  27 H :    0.021496
  28 C :   -0.072447
  29 H :    0.019080
  30 H :    0.024948
  31 H :    0.031678
  32 H :    0.020807
  33 H :    0.021995

  Mayer bond orders larger than 0.100000
B(  0-S ,  1-C ) :   1.1455 B(  0-S ,  4-C ) :   1.1383 B(  1-C ,  2-C ) :   1.6298
B(  1-C , 32-H ) :   0.9722 B(  2-C ,  3-C ) :   1.2107 B(  2-C ,  6-C ) :   0.9983
B(  3-C ,  4-C ) :   1.5750 B(  3-C ,  5-H ) :   1.0011 B(  4-C , 20-C ) :   1.0529
B(  6-C ,  7-H ) :   0.9394 B(  6-C ,  8-H ) :   0.9421 B(  6-C ,  9-C ) :   1.0848
B(  9-C , 10-H ) :   0.9550 B(  9-C , 11-H ) :   0.9492 B(  9-C , 12-C ) :   1.0686
B( 12-C , 13-H ) :   0.9767 B( 12-C , 14-H ) :   0.9777 B( 12-C , 15-H ) :   0.9759
B( 16-S , 17-C ) :   1.1571 B( 16-S , 20-C ) :   1.1595 B( 17-C , 18-C ) :   1.6079
B( 17-C , 33-H ) :   0.9679 B( 18-C , 19-C ) :   1.2516 B( 18-C , 21-H ) :   0.9814
B( 19-C , 20-C ) :   1.5754 B( 19-C , 22-C ) :   1.0466 B( 22-C , 23-H ) :   0.9336
B( 22-C , 24-H ) :   0.9260 B( 22-C , 25-C ) :   1.0703 B( 25-C , 26-H ) :   0.9527
B( 25-C , 27-H ) :   0.9520 B( 25-C , 28-C ) :   1.0737 B( 28-C , 29-H ) :   0.9783
B( 28-C , 30-H ) :   0.9738 B( 28-C , 31-H ) :   0.9746

Dispersion correction           -0.014459391
FINAL SINGLE POINT ENERGY     -1339.857506942565

DIPOLE MOMENT
-------------
                                X             Y             Z
Electronic contribution:     20.73273      -6.21705     -13.99338
Nuclear contribution   :    -21.31921       6.42729      14.38449
                        -----------------------------------------
Total Dipole Moment    :     -0.58649       0.21024       0.39111
                        -----------------------------------------
Magnitude (a.u.)       :      0.73562
Magnitude (Debye)      :      1.86979

Rotational constants in cm-1:     0.017493     0.008900     0.007276
Rotational constants in MHz :   524.431878   266.826730   218.119994

                             ****ORCA TERMINATED NORMALLY****
TOTAL RUN TIME: 0 days 0 hours 0 minutes 30 seconds 0 msec
