                         Program Version 4.2.1 -  RELEASE  -
|  1> ! wB97X-D3 SP def2-SVP
|  2> %pal
|  3> nprocs 16
|  4> end
|  5>
|  6> * xyz 0 1
|  7> S 	 -33.1834 	 57.3044 	 106.709
|  8> C 	 -31.6849 	 56.4623 	 106.175
|  9> C 	 -31.0324 	 55.8252 	 107.202
| 10> C 	 -31.8874 	 55.8221 	 108.368
| 11> C 	 -33.0545 	 56.4729 	 108.28
| 12> H 	 -31.5701 	 55.4885 	 109.358
| 13> C 	 -29.5712 	 55.4158 	 107.323
| 14> H 	 -29.2996 	 55.3516 	 108.321
| 15> H 	 -28.872 	 56.0949 	 106.78
| 16> C 	 -29.3359 	 54.0523 	 106.667
| 17> H 	 -30.0752 	 53.3318 	 107.099
| 18> H 	 -29.6869 	 54.1762 	 105.663
| 19> C 	 -27.9452 	 53.4328 	 106.722
| 20> H 	 -27.7562 	 53.1699 	 107.792
| 21> H 	 -27.8155 	 52.4747 	 106.114
| 22> H 	 -27.1913 	 54.1097 	 106.483
| 23> S 	 -34.5516 	 58.4445 	 109.587
| 24> C 	 -35.1521 	 58.0591 	 111.135
| 25> C 	 -34.8278 	 56.8114 	 111.566
| 26> C 	 -34.2468 	 56.0583 	 110.523
| 27> C 	 -33.9541 	 56.813 	 109.415
| 28> H 	 -35.0601 	 56.4864 	 112.558
| 29> C 	 -33.8437 	 54.6121 	 110.614
| 30> H 	 -32.9241 	 54.6472 	 111.174
| 31> H 	 -33.566 	 54.3559 	 109.576
| 32> C 	 -34.9389 	 53.6321 	 111.084
| 33> H 	 -35.6948 	 53.5897 	 110.297
| 34> H 	 -35.3971 	 54.0883 	 112.033
| 35> C 	 -34.2763 	 52.2486 	 111.311
| 36> H 	 -33.6405 	 52.0291 	 110.466
| 37> H 	 -34.9969 	 51.4325 	 111.462
| 38> H 	 -33.6843 	 52.3357 	 112.233
| 39> H 	 -31.171 	 56.6831 	 105.259
| 40> H 	 -35.6018 	 58.709 	 111.889
| 41> *
| 42>
| 43>                          ****END OF INPUT****

CARTESIAN COORDINATES (ANGSTROEM)
---------------------------------
  S    -33.183400   57.304400  106.709000
  C    -31.684900   56.462300  106.175000
  C    -31.032400   55.825200  107.202000
  C    -31.887400   55.822100  108.368000
  C    -33.054500   56.472900  108.280000
  H    -31.570100   55.488500  109.358000
  C    -29.571200   55.415800  107.323000
  H    -29.299600   55.351600  108.321000
  H    -28.872000   56.094900  106.780000
  C    -29.335900   54.052300  106.667000
  H    -30.075200   53.331800  107.099000
  H    -29.686900   54.176200  105.663000
  C    -27.945200   53.432800  106.722000
  H    -27.756200   53.169900  107.792000
  H    -27.815500   52.474700  106.114000
  H    -27.191300   54.109700  106.483000
  S    -34.551600   58.444500  109.587000
  C    -35.152100   58.059100  111.135000
  C    -34.827800   56.811400  111.566000
  C    -34.246800   56.058300  110.523000
  C    -33.954100   56.813000  109.415000
  H    -35.060100   56.486400  112.558000
  C    -33.843700   54.612100  110.614000
  H    -32.924100   54.647200  111.174000
  H    -33.566000   54.355900  109.576000
  C    -34.938900   53.632100  111.084000
  H    -35.694800   53.589700  110.297000
  H    -35.397100   54.088300  112.033000
  C    -34.276300   52.248600  111.311000
  H    -33.640500   52.029100  110.466000
  H    -34.996900   51.432500  111.462000
  H    -33.684300   52.335700  112.233000
  H    -31.171000   56.683100  105.259000
  H    -35.601800   58.709000  111.889000

 Total Charge           Charge          ....    0
 Multiplicity           Mult            ....    1
 Number of Electrons    NEL             ....  134
 Basis Dimension        Dim             ....  322

ORBITAL ENERGIES
----------------

  NO   OCC          E(Eh)            E(eV)
   0   2.0000     -88.967808     -2420.9371
   1   2.0000     -88.966596     -2420.9042
   2   2.0000     -10.330837      -281.1164
   3   2.0000     -10.322968      -280.9022
   4   2.0000     -10.317484      -280.7530
   5   2.0000     -10.311837      -280.5994
   6   2.0000     -10.305710      -280.4326
   7   2.0000     -10.295453      -280.1535
   8   2.0000     -10.295232      -280.1475
   9   2.0000     -10.294319      -280.1227
  10   2.0000     -10.292058      -280.0611
  11   2.0000     -10.287389      -279.9341
  12   2.0000     -10.286253      -279.9032
  13   2.0000     -10.284892      -279.8661
  14   2.0000     -10.282986      -279.8143
  15   2.0000     -10.280725      -279.7527
  16   2.0000      -8.083326      -219.9585
  17   2.0000      -8.080246      -219.8747
  18   2.0000      -6.041748      -164.4043
  19   2.0000      -6.038991      -164.3293
  20   2.0000      -6.037819      -164.2974
  21   2.0000      -6.035222      -164.2267
  22   2.0000      -6.034047      -164.1948
  23   2.0000      -6.030507      -164.0985
  24   2.0000      -1.012264       -27.5451
  25   2.0000      -0.986671       -26.8487
  26   2.0000      -0.915098       -24.9011
  27   2.0000      -0.910502       -24.7760
  28   2.0000      -0.870273       -23.6813
  29   2.0000      -0.855080       -23.2679
  30   2.0000      -0.844163       -22.9709
  31   2.0000      -0.818425       -22.2705
  32   2.0000      -0.785742       -21.3811
  33   2.0000      -0.771697       -20.9990
  34   2.0000      -0.703853       -19.1528
  35   2.0000      -0.702095       -19.1050
  36   2.0000      -0.695505       -18.9257
  37   2.0000      -0.658054       -17.9066
  38   2.0000      -0.642710       -17.4890
  39   2.0000      -0.621629       -16.9154
  40   2.0000      -0.593084       -16.1386
  41   2.0000      -0.574680       -15.6378
  42   2.0000      -0.567640       -15.4463
  43   2.0000      -0.561464       -15.2782
  44   2.0000      -0.522900       -14.2288
  45   2.0000      -0.521326       -14.1860
  46   2.0000      -0.521080       -14.1793
  47   2.0000      -0.515138       -14.0176
  48   2.0000      -0.504707       -13.7338
  49   2.0000      -0.499236       -13.5849
  50   2.0000      -0.489026       -13.3071
  51   2.0000      -0.483447       -13.1553
  52   2.0000      -0.470984       -12.8161
  53   2.0000      -0.465107       -12.6562
  54   2.0000      -0.462033       -12.5726
  55   2.0000      -0.455520       -12.3953
  56   2.0000      -0.447314       -12.1720
  57   2.0000      -0.436579       -11.8799
  58   2.0000      -0.431444       -11.7402
  59   2.0000      -0.427355       -11.6289
  60   2.0000      -0.422220       -11.4892
  61   2.0000      -0.417298       -11.3553
  62   2.0000      -0.414234       -11.2719
  63   2.0000      -0.356081        -9.6894
  64   2.0000      -0.334427        -9.1002
  65   2.0000      -0.329367        -8.9625
  66   2.0000      -0.290034        -7.8922
  67   0.0000       0.027840         0.7576
  68   0.0000       0.073000         1.9864
  69   0.0000       0.098067         2.6685
  70   0.0000       0.124993         3.4012
  71   0.0000       0.132546         3.6068

MULLIKEN ATOMIC CHARGES
-----------------------
   0 S :    0.082665
   1 C :   -0.104778
   2 C :   -0.083077
   3 C :   -0.010299
   4 C :   -0.121498
   5 H :    0.014951
   6 C :    0.110853
   7 H :    0.003324
   8 H :    0.034944
   9 C :   -0.120611
  10 H :    0.028998
  11 H :    0.017847
  12 C :   -0.019192
  13 H :    0.026100
  14 H :    0.053761
  15 H :    0.015788
  16 S :    0.118328
  17 C :   -0.075051
  18 C :   -0.042778
  19 C :   -0.066747
  20 C :   -0.128227
  21 H :    0.009289
  22 C :    0.015253
  23 H :    0.037356
  24 H :    0.039363
  25 C :   -0.080876
  26 H :    0.039643
  27 H :    0.038754
  28 C :   -0.033257
  29 H :    0.033151
  30 H :    0.039503
  31 H :    0.032491
  32 H :    0.040931
  33 H :    0.053098
Sum of atomic charges:    0.0000000

LOEWDIN ATOMIC CHARGES
----------------------
   0 S :    0.361026
   1 C :   -0.173459
   2 C :   -0.054288
   3 C :   -0.065858
   4 C :   -0.175333
   5 H :    0.031924
   6 C :   -0.018158
   7 H :    0.018194
   8 H :    0.036096
   9 C :   -0.048048
  10 H :    0.026341
  11 H :    0.016365
  12 C :   -0.068497
  13 H :    0.028984
  14 H :    0.040041
  15 H :    0.012935
  16 S :    0.422178
  17 C :   -0.197002
  18 C :   -0.071650
  19 C :   -0.058613
  20 C :   -0.202044
  21 H :    0.028150
  22 C :   -0.039767
  23 H :    0.027402
  24 H :    0.033951
  25 C :   -0.038019
  26 H :    0.026746
  27 H :    0.027057
  28 C :   -0.063770
  29 H :    0.024741
  30 H :    0.026397
  31 H :    0.027848
  32 H :    0.023235
  33 H :    0.034895

  Mayer bond orders larger than 0.100000
B(  0-S ,  1-C ) :   1.1151 B(  0-S ,  4-C ) :   1.1147 B(  1-C ,  2-C ) :   1.6643
B(  1-C , 32-H ) :   0.9618 B(  2-C ,  3-C ) :   1.2065 B(  2-C ,  6-C ) :   1.0229
B(  3-C ,  4-C ) :   1.6271 B(  3-C ,  5-H ) :   0.9837 B(  4-C , 20-C ) :   1.0306
B(  6-C ,  7-H ) :   0.9402 B(  6-C ,  8-H ) :   0.9405 B(  6-C ,  9-C ) :   1.0538
B(  9-C , 10-H ) :   0.9556 B(  9-C , 11-H ) :   0.9605 B(  9-C , 12-C ) :   1.0783
B( 12-C , 13-H ) :   0.9719 B( 12-C , 14-H ) :   0.9727 B( 12-C , 15-H ) :   0.9725
B( 16-S , 17-C ) :   1.1631 B( 16-S , 20-C ) :   1.1281 B( 17-C , 18-C ) :   1.6246
B( 17-C , 33-H ) :   0.9583 B( 18-C , 19-C ) :   1.2371 B( 18-C , 21-H ) :   0.9945
B( 19-C , 20-C ) :   1.6171 B( 19-C , 22-C ) :   1.0309 B( 22-C , 23-H ) :   0.9350
B( 22-C , 24-H ) :   0.9284 B( 22-C , 25-C ) :   1.0493 B( 25-C , 26-H ) :   0.9551
B( 25-C , 27-H ) :   0.9610 B( 25-C , 28-C ) :   1.0713 B( 28-C , 29-H ) :   0.9728
B( 28-C , 30-H ) :   0.9758 B( 28-C , 31-H ) :   0.9775

Dispersion correction           -0.013443873
FINAL SINGLE POINT ENERGY     -1339.873460123572

DIPOLE MOMENT
-------------
                                X             Y             Z
Electronic contribution:    -15.60233      26.77686      -5.17716
Nuclear contribution   :     16.15014     -27.13128       5.63567
                        -----------------------------------------
Total Dipole Moment    :      0.54782      -0.35441       0.45851
                        -----------------------------------------
Magnitude (a.u.)       :      0.79746
Magnitude (Debye)      :      2.02698

Rotational constants in cm-1:     0.017013     0.008514     0.006189
Rotational constants in MHz :   510.042659   255.246981   185.540498

                             ****ORCA TERMINATED NORMALLY****
TOTAL RUN TIME: 0 days 0 hours 0 minutes 29 seconds 918 msec
