                         Program Version 4.2.1 -  RELEASE  -
|  1> ! wB97X-D3 SP def2-SVP
|  2> %pal
|  3> nprocs 16
|  4> end
|  5>
|  6> * xyz 0 1
|  7> S 	 -56.7663 	 40.9836 	 114.855
|  8> C 	 -55.958 	 42.161 	 113.853
|  9> C 	 -55.1222 	 41.5338 	 112.955
| 10> C 	 -55.0186 	 40.1293 	 113.114
| 11> C 	 -55.8361 	 39.6779 	 114.152
| 12> H 	 -54.4893 	 39.4041 	 112.49
| 13> C 	 -54.4744 	 42.2723 	 111.765
| 14> H 	 -54.0443 	 43.1993 	 112.173
| 15> H 	 -55.3011 	 42.5818 	 111.077
| 16> C 	 -53.4564 	 41.3556 	 110.992
| 17> H 	 -52.7002 	 40.9334 	 111.679
| 18> H 	 -54.0961 	 40.5255 	 110.642
| 19> C 	 -52.6828 	 41.937 	 109.79
| 20> H 	 -53.3538 	 42.1557 	 108.963
| 21> H 	 -52.1396 	 42.8774 	 110.04
| 22> H 	 -51.9354 	 41.1679 	 109.459
| 23> S 	 -55.3427 	 38.1394 	 116.341
| 24> C 	 -55.7691 	 36.4529 	 116.281
| 25> C 	 -55.8618 	 36.0577 	 114.99
| 26> C 	 -55.8409 	 37.153 	 114.07
| 27> C 	 -55.8977 	 38.3431 	 114.676
| 28> H 	 -55.9104 	 34.9987 	 114.73
| 29> C 	 -56.0508 	 36.9222 	 112.543
| 30> H 	 -55.0601 	 36.989 	 112.209
| 31> H 	 -56.5662 	 37.7217 	 112.026
| 32> C 	 -56.6978 	 35.6617 	 112.098
| 33> H 	 -56.0429 	 34.8289 	 112.478
| 34> H 	 -56.8125 	 35.7033 	 111
| 35> C 	 -58.1178 	 35.3742 	 112.68
| 36> H 	 -58.7713 	 35.9324 	 112.025
| 37> H 	 -58.2306 	 35.6927 	 113.714
| 38> H 	 -58.3977 	 34.3304 	 112.555
| 39> H 	 -56.2566 	 43.1697 	 113.854
| 40> H 	 -55.6515 	 35.755 	 117.131
| 41> *
| 42>
| 43>                          ****END OF INPUT****

CARTESIAN COORDINATES (ANGSTROEM)
---------------------------------
  S    -56.766300   40.983600  114.855000
  C    -55.958000   42.161000  113.853000
  C    -55.122200   41.533800  112.955000
  C    -55.018600   40.129300  113.114000
  C    -55.836100   39.677900  114.152000
  H    -54.489300   39.404100  112.490000
  C    -54.474400   42.272300  111.765000
  H    -54.044300   43.199300  112.173000
  H    -55.301100   42.581800  111.077000
  C    -53.456400   41.355600  110.992000
  H    -52.700200   40.933400  111.679000
  H    -54.096100   40.525500  110.642000
  C    -52.682800   41.937000  109.790000
  H    -53.353800   42.155700  108.963000
  H    -52.139600   42.877400  110.040000
  H    -51.935400   41.167900  109.459000
  S    -55.342700   38.139400  116.341000
  C    -55.769100   36.452900  116.281000
  C    -55.861800   36.057700  114.990000
  C    -55.840900   37.153000  114.070000
  C    -55.897700   38.343100  114.676000
  H    -55.910400   34.998700  114.730000
  C    -56.050800   36.922200  112.543000
  H    -55.060100   36.989000  112.209000
  H    -56.566200   37.721700  112.026000
  C    -56.697800   35.661700  112.098000
  H    -56.042900   34.828900  112.478000
  H    -56.812500   35.703300  111.000000
  C    -58.117800   35.374200  112.680000
  H    -58.771300   35.932400  112.025000
  H    -58.230600   35.692700  113.714000
  H    -58.397700   34.330400  112.555000
  H    -56.256600   43.169700  113.854000
  H    -55.651500   35.755000  117.131000

 Total Charge           Charge          ....    0
 Multiplicity           Mult            ....    1
 Number of Electrons    NEL             ....  134
 Basis Dimension        Dim             ....  322

ORBITAL ENERGIES
----------------

  NO   OCC          E(Eh)            E(eV)
   0   2.0000     -88.966389     -2420.8985
   1   2.0000     -88.956285     -2420.6236
   2   2.0000     -10.326550      -280.9997
   3   2.0000     -10.317144      -280.7438
   4   2.0000     -10.313761      -280.6517
   5   2.0000     -10.309200      -280.5276
   6   2.0000     -10.301713      -280.3239
   7   2.0000     -10.299743      -280.2703
   8   2.0000     -10.299541      -280.2648
   9   2.0000     -10.295420      -280.1526
  10   2.0000     -10.294658      -280.1319
  11   2.0000     -10.291261      -280.0394
  12   2.0000     -10.289707      -279.9972
  13   2.0000     -10.286681      -279.9148
  14   2.0000     -10.285609      -279.8857
  15   2.0000     -10.273593      -279.5587
  16   2.0000      -8.081108      -219.8981
  17   2.0000      -8.071691      -219.6419
  18   2.0000      -6.039538      -164.3442
  19   2.0000      -6.035508      -164.2345
  20   2.0000      -6.032080      -164.1412
  21   2.0000      -6.030241      -164.0912
  22   2.0000      -6.026503      -163.9895
  23   2.0000      -6.021930      -163.8651
  24   2.0000      -1.012184       -27.5429
  25   2.0000      -0.987822       -26.8800
  26   2.0000      -0.912370       -24.8269
  27   2.0000      -0.904385       -24.6096
  28   2.0000      -0.873958       -23.7816
  29   2.0000      -0.848319       -23.0839
  30   2.0000      -0.839035       -22.8313
  31   2.0000      -0.815877       -22.2011
  32   2.0000      -0.788338       -21.4518
  33   2.0000      -0.773260       -21.0415
  34   2.0000      -0.712699       -19.3935
  35   2.0000      -0.690692       -18.7947
  36   2.0000      -0.688184       -18.7264
  37   2.0000      -0.654809       -17.8183
  38   2.0000      -0.642745       -17.4900
  39   2.0000      -0.616545       -16.7770
  40   2.0000      -0.601076       -16.3561
  41   2.0000      -0.567579       -15.4446
  42   2.0000      -0.563960       -15.3461
  43   2.0000      -0.558322       -15.1927
  44   2.0000      -0.544218       -14.8089
  45   2.0000      -0.526498       -14.3267
  46   2.0000      -0.515405       -14.0249
  47   2.0000      -0.508278       -13.8310
  48   2.0000      -0.501085       -13.6352
  49   2.0000      -0.498504       -13.5650
  50   2.0000      -0.488701       -13.2982
  51   2.0000      -0.480698       -13.0804
  52   2.0000      -0.477853       -13.0031
  53   2.0000      -0.468614       -12.7516
  54   2.0000      -0.458294       -12.4708
  55   2.0000      -0.453195       -12.3321
  56   2.0000      -0.446411       -12.1475
  57   2.0000      -0.440207       -11.9786
  58   2.0000      -0.429299       -11.6818
  59   2.0000      -0.422825       -11.5057
  60   2.0000      -0.417837       -11.3699
  61   2.0000      -0.414176       -11.2703
  62   2.0000      -0.402446       -10.9511
  63   2.0000      -0.345490        -9.4013
  64   2.0000      -0.332600        -9.0505
  65   2.0000      -0.322637        -8.7794
  66   2.0000      -0.295434        -8.0392
  67   0.0000       0.026496         0.7210
  68   0.0000       0.071106         1.9349
  69   0.0000       0.109034         2.9670
  70   0.0000       0.117156         3.1880
  71   0.0000       0.135700         3.6926

MULLIKEN ATOMIC CHARGES
-----------------------
   0 S :    0.121929
   1 C :   -0.113488
   2 C :   -0.083111
   3 C :    0.012177
   4 C :   -0.172837
   5 H :    0.018401
   6 C :    0.058709
   7 H :    0.032715
   8 H :    0.047836
   9 C :   -0.148955
  10 H :    0.046063
  11 H :    0.040830
  12 C :   -0.031693
  13 H :    0.032087
  14 H :    0.039632
  15 H :    0.043765
  16 S :    0.086279
  17 C :   -0.076483
  18 C :   -0.056325
  19 C :   -0.038323
  20 C :   -0.146852
  21 H :    0.022662
  22 C :    0.097434
  23 H :    0.024420
  24 H :    0.027188
  25 C :   -0.113351
  26 H :    0.030950
  27 H :    0.040394
  28 C :   -0.044700
  29 H :    0.020400
  30 H :    0.050747
  31 H :    0.034004
  32 H :    0.033403
  33 H :    0.064093
Sum of atomic charges:   -0.0000000

LOEWDIN ATOMIC CHARGES
----------------------
   0 S :    0.419347
   1 C :   -0.194746
   2 C :   -0.063466
   3 C :   -0.064574
   4 C :   -0.195983
   5 H :    0.034759
   6 C :   -0.033731
   7 H :    0.029447
   8 H :    0.037553
   9 C :   -0.052242
  10 H :    0.027651
  11 H :    0.026408
  12 C :   -0.069297
  13 H :    0.022624
  14 H :    0.028594
  15 H :    0.034597
  16 S :    0.388963
  17 C :   -0.183733
  18 C :   -0.078324
  19 C :   -0.053024
  20 C :   -0.192784
  21 H :    0.033317
  22 C :   -0.032678
  23 H :    0.027401
  24 H :    0.029865
  25 C :   -0.046679
  26 H :    0.022266
  27 H :    0.031901
  28 C :   -0.064433
  29 H :    0.022541
  30 H :    0.027090
  31 H :    0.026285
  32 H :    0.019240
  33 H :    0.035847

  Mayer bond orders larger than 0.100000
B(  0-S ,  1-C ) :   1.1437 B(  0-S ,  4-C ) :   1.1759 B(  1-C ,  2-C ) :   1.5957
B(  1-C ,  4-C ) :   0.1048 B(  1-C , 32-H ) :   0.9820 B(  2-C ,  3-C ) :   1.2710
B(  2-C ,  6-C ) :   0.9952 B(  3-C ,  4-C ) :   1.5266 B(  3-C ,  5-H ) :   0.9885
B(  4-C , 20-C ) :   1.0424 B(  6-C ,  7-H ) :   0.9416 B(  6-C ,  8-H ) :   0.9411
B(  6-C ,  9-C ) :   1.0789 B(  9-C , 10-H ) :   0.9587 B(  9-C , 11-H ) :   0.9429
B(  9-C , 12-C ) :   1.0803 B( 12-C , 13-H ) :   0.9742 B( 12-C , 14-H ) :   0.9743
B( 12-C , 15-H ) :   0.9729 B( 16-S , 17-C ) :   1.1405 B( 16-S , 20-C ) :   1.1297
B( 17-C , 18-C ) :   1.6312 B( 17-C , 33-H ) :   0.9624 B( 18-C , 19-C ) :   1.2085
B( 18-C , 21-H ) :   0.9883 B( 19-C , 20-C ) :   1.6490 B( 19-C , 22-C ) :   1.0034
B( 22-C , 23-H ) :   0.9139 B( 22-C , 24-H ) :   0.9447 B( 22-C , 25-C ) :   1.0968
B( 25-C , 26-H ) :   0.9475 B( 25-C , 27-H ) :   0.9550 B( 25-C , 28-C ) :   1.0726
B( 28-C , 29-H ) :   0.9761 B( 28-C , 30-H ) :   0.9744 B( 28-C , 31-H ) :   0.9766

Dispersion correction           -0.014105512
FINAL SINGLE POINT ENERGY     -1339.871294280082

DIPOLE MOMENT
-------------
                                X             Y             Z
Electronic contribution:     -4.87995       5.02042      25.88994
Nuclear contribution   :      5.06806      -5.18105     -26.64062
                        -----------------------------------------
Total Dipole Moment    :      0.18811      -0.16063      -0.75068
                        -----------------------------------------
Magnitude (a.u.)       :      0.79039
Magnitude (Debye)      :      2.00900

Rotational constants in cm-1:     0.018146     0.008441     0.006813
Rotational constants in MHz :   543.992679   253.058066   204.246314

                             ****ORCA TERMINATED NORMALLY****
TOTAL RUN TIME: 0 days 0 hours 0 minutes 28 seconds 445 msec
