                         Program Version 4.2.1 -  RELEASE  -
|  1> ! wB97X-D3 SP def2-SVP
|  2> %pal
|  3> nprocs 16
|  4> end
|  5>
|  6> * xyz 0 1
|  7> S 	 11.0583 	 22.0866 	 63.1214
|  8> C 	 11.5462 	 20.435 	 63.373
|  9> C 	 10.6251 	 19.6972 	 64.1593
| 10> C 	 9.3935 	 20.41 	 64.2653
| 11> C 	 9.3634 	 21.5715 	 63.5483
| 12> H 	 8.51825 	 20.0733 	 64.7429
| 13> C 	 10.862 	 18.3871 	 64.8911
| 14> H 	 10.4086 	 18.4906 	 65.849
| 15> H 	 11.9211 	 18.3912 	 65.2158
| 16> C 	 10.3477 	 17.0708 	 64.1184
| 17> H 	 10.3883 	 16.2236 	 64.867
| 18> H 	 9.34225 	 17.1765 	 63.8523
| 19> C 	 11.1766 	 16.599 	 62.8753
| 20> H 	 10.691 	 15.7769 	 62.4279
| 21> H 	 11.2888 	 17.3744 	 62.1277
| 22> H 	 12.0853 	 16.172 	 63.2437
| 23> S 	 8.50209 	 24.0402 	 64.086
| 24> C 	 6.81546 	 24.4875 	 63.9632
| 25> C 	 6.14529 	 23.5248 	 63.2302
| 26> C 	 6.91426 	 22.3827 	 62.9772
| 27> C 	 8.21461 	 22.4877 	 63.4645
| 28> H 	 5.05689 	 23.6769 	 62.9646
| 29> C 	 6.32122 	 21.1879 	 62.4239
| 30> H 	 5.41263 	 21.163 	 63.1272
| 31> H 	 6.94506 	 20.3309 	 62.6433
| 32> C 	 5.93667 	 21.1185 	 60.9476
| 33> H 	 6.79422 	 21.4724 	 60.3033
| 34> H 	 5.10765 	 21.7635 	 60.7458
| 35> C 	 5.47269 	 19.7017 	 60.4896
| 36> H 	 5.21499 	 19.5772 	 59.4707
| 37> H 	 4.57153 	 19.3357 	 61.0257
| 38> H 	 6.35389 	 19.1003 	 60.7608
| 39> H 	 12.5077 	 20.0768 	 63.1468
| 40> H 	 6.42483 	 25.5186 	 64.0889
| 41> *
| 42>
| 43>                          ****END OF INPUT****

CARTESIAN COORDINATES (ANGSTROEM)
---------------------------------
  S     11.058300   22.086600   63.121400
  C     11.546200   20.435000   63.373000
  C     10.625100   19.697200   64.159300
  C      9.393500   20.410000   64.265300
  C      9.363400   21.571500   63.548300
  H      8.518250   20.073300   64.742900
  C     10.862000   18.387100   64.891100
  H     10.408600   18.490600   65.849000
  H     11.921100   18.391200   65.215800
  C     10.347700   17.070800   64.118400
  H     10.388300   16.223600   64.867000
  H      9.342250   17.176500   63.852300
  C     11.176600   16.599000   62.875300
  H     10.691000   15.776900   62.427900
  H     11.288800   17.374400   62.127700
  H     12.085300   16.172000   63.243700
  S      8.502090   24.040200   64.086000
  C      6.815460   24.487500   63.963200
  C      6.145290   23.524800   63.230200
  C      6.914260   22.382700   62.977200
  C      8.214610   22.487700   63.464500
  H      5.056890   23.676900   62.964600
  C      6.321220   21.187900   62.423900
  H      5.412630   21.163000   63.127200
  H      6.945060   20.330900   62.643300
  C      5.936670   21.118500   60.947600
  H      6.794220   21.472400   60.303300
  H      5.107650   21.763500   60.745800
  C      5.472690   19.701700   60.489600
  H      5.214990   19.577200   59.470700
  H      4.571530   19.335700   61.025700
  H      6.353890   19.100300   60.760800
  H     12.507700   20.076800   63.146800
  H      6.424830   25.518600   64.088900

 Total Charge           Charge          ....    0
 Multiplicity           Mult            ....    1
 Number of Electrons    NEL             ....  134
 Basis Dimension        Dim             ....  322

ORBITAL ENERGIES
----------------

  NO   OCC          E(Eh)            E(eV)
   0   2.0000     -88.967835     -2420.9379
   1   2.0000     -88.961636     -2420.7692
   2   2.0000     -10.332264      -281.1552
   3   2.0000     -10.321377      -280.8589
   4   2.0000     -10.316389      -280.7232
   5   2.0000     -10.314492      -280.6716
   6   2.0000     -10.304645      -280.4036
   7   2.0000     -10.297923      -280.2207
   8   2.0000     -10.295768      -280.1621
   9   2.0000     -10.295750      -280.1616
  10   2.0000     -10.294579      -280.1297
  11   2.0000     -10.290750      -280.0255
  12   2.0000     -10.288597      -279.9670
  13   2.0000     -10.288293      -279.9587
  14   2.0000     -10.278397      -279.6894
  15   2.0000     -10.273990      -279.5695
  16   2.0000      -8.081767      -219.9161
  17   2.0000      -8.077610      -219.8029
  18   2.0000      -6.040355      -164.3664
  19   2.0000      -6.036833      -164.2706
  20   2.0000      -6.036056      -164.2494
  21   2.0000      -6.032052      -164.1405
  22   2.0000      -6.031885      -164.1359
  23   2.0000      -6.028424      -164.0418
  24   2.0000      -1.011363       -27.5206
  25   2.0000      -0.983833       -26.7715
  26   2.0000      -0.913221       -24.8500
  27   2.0000      -0.899111       -24.4660
  28   2.0000      -0.868147       -23.6235
  29   2.0000      -0.855068       -23.2676
  30   2.0000      -0.848657       -23.0931
  31   2.0000      -0.816739       -22.2246
  32   2.0000      -0.780064       -21.2266
  33   2.0000      -0.768091       -20.9008
  34   2.0000      -0.707477       -19.2514
  35   2.0000      -0.701661       -19.0932
  36   2.0000      -0.694583       -18.9006
  37   2.0000      -0.661694       -18.0056
  38   2.0000      -0.644752       -17.5446
  39   2.0000      -0.620680       -16.8896
  40   2.0000      -0.596796       -16.2396
  41   2.0000      -0.565122       -15.3778
  42   2.0000      -0.561435       -15.2774
  43   2.0000      -0.542322       -14.7573
  44   2.0000      -0.538123       -14.6431
  45   2.0000      -0.525329       -14.2949
  46   2.0000      -0.518088       -14.0979
  47   2.0000      -0.512736       -13.9523
  48   2.0000      -0.507744       -13.8164
  49   2.0000      -0.496369       -13.5069
  50   2.0000      -0.487165       -13.2564
  51   2.0000      -0.476521       -12.9668
  52   2.0000      -0.471534       -12.8311
  53   2.0000      -0.464077       -12.6282
  54   2.0000      -0.457942       -12.4612
  55   2.0000      -0.453588       -12.3428
  56   2.0000      -0.448715       -12.2102
  57   2.0000      -0.436320       -11.8729
  58   2.0000      -0.430116       -11.7041
  59   2.0000      -0.426536       -11.6066
  60   2.0000      -0.421867       -11.4796
  61   2.0000      -0.417992       -11.3741
  62   2.0000      -0.414719       -11.2851
  63   2.0000      -0.349057        -9.4983
  64   2.0000      -0.331200        -9.0124
  65   2.0000      -0.321694        -8.7537
  66   2.0000      -0.286893        -7.8067
  67   0.0000       0.028001         0.7619
  68   0.0000       0.056424         1.5354
  69   0.0000       0.098845         2.6897
  70   0.0000       0.118556         3.2261
  71   0.0000       0.132862         3.6154

MULLIKEN ATOMIC CHARGES
-----------------------
   0 S :    0.102058
   1 C :   -0.085605
   2 C :   -0.107017
   3 C :    0.054445
   4 C :   -0.137740
   5 H :    0.004225
   6 C :    0.073550
   7 H :    0.019794
   8 H :    0.024745
   9 C :   -0.074850
  10 H :    0.033775
  11 H :    0.021142
  12 C :   -0.018859
  13 H :    0.020508
  14 H :    0.041366
  15 H :    0.023859
  16 S :    0.098285
  17 C :   -0.104897
  18 C :   -0.073980
  19 C :   -0.009204
  20 C :   -0.166314
  21 H :    0.042412
  22 C :    0.027099
  23 H :    0.040806
  24 H :    0.006890
  25 C :   -0.064695
  26 H :    0.046622
  27 H :    0.016988
  28 C :   -0.050597
  29 H :    0.031943
  30 H :    0.031586
  31 H :    0.034059
  32 H :    0.026479
  33 H :    0.071124
Sum of atomic charges:    0.0000000

LOEWDIN ATOMIC CHARGES
----------------------
   0 S :    0.373508
   1 C :   -0.186412
   2 C :   -0.060421
   3 C :   -0.050815
   4 C :   -0.169116
   5 H :    0.026070
   6 C :   -0.035179
   7 H :    0.030533
   8 H :    0.034231
   9 C :   -0.029474
  10 H :    0.029024
  11 H :    0.013304
  12 C :   -0.058508
  13 H :    0.022567
  14 H :    0.025255
  15 H :    0.022962
  16 S :    0.426802
  17 C :   -0.198929
  18 C :   -0.076662
  19 C :   -0.071354
  20 C :   -0.212264
  21 H :    0.042942
  22 C :   -0.041252
  23 H :    0.045912
  24 H :    0.025252
  25 C :   -0.039014
  26 H :    0.034117
  27 H :    0.015518
  28 C :   -0.065619
  29 H :    0.020627
  30 H :    0.027907
  31 H :    0.027240
  32 H :    0.014193
  33 H :    0.037055

  Mayer bond orders larger than 0.100000
B(  0-S ,  1-C ) :   1.1395 B(  0-S ,  4-C ) :   1.1174 B(  1-C ,  2-C ) :   1.6031
B(  1-C ,  4-C ) :   0.1017 B(  1-C , 32-H ) :   0.9748 B(  2-C ,  3-C ) :   1.2205
B(  2-C ,  6-C ) :   1.0234 B(  3-C ,  4-C ) :   1.5980 B(  3-C ,  5-H ) :   0.9980
B(  4-C , 20-C ) :   1.0307 B(  6-C ,  7-H ) :   0.9410 B(  6-C ,  8-H ) :   0.9441
B(  6-C ,  9-C ) :   1.0443 B(  9-C , 10-H ) :   0.9596 B(  9-C , 11-H ) :   0.9637
B(  9-C , 12-C ) :   1.0770 B( 12-C , 13-H ) :   0.9725 B( 12-C , 14-H ) :   0.9766
B( 12-C , 15-H ) :   0.9773 B( 16-S , 17-C ) :   1.1620 B( 16-S , 20-C ) :   1.1634
B( 17-C , 18-C ) :   1.5925 B( 17-C , 20-C ) :   0.1022 B( 17-C , 33-H ) :   0.9612
B( 18-C , 19-C ) :   1.2683 B( 18-C , 21-H ) :   0.9801 B( 19-C , 20-C ) :   1.5621
B( 19-C , 22-C ) :   1.0476 B( 22-C , 23-H ) :   0.9323 B( 22-C , 24-H ) :   0.9311
B( 22-C , 25-C ) :   1.0593 B( 25-C , 26-H ) :   0.9554 B( 25-C , 27-H ) :   0.9517
B( 25-C , 28-C ) :   1.0785 B( 28-C , 29-H ) :   0.9762 B( 28-C , 30-H ) :   0.9752
B( 28-C , 31-H ) :   0.9779

Dispersion correction           -0.013800317
FINAL SINGLE POINT ENERGY     -1339.852807094687

DIPOLE MOMENT
-------------
                                X             Y             Z
Electronic contribution:      8.81456      27.35960       7.83726
Nuclear contribution   :     -9.15245     -27.92240      -7.79406
                        -----------------------------------------
Total Dipole Moment    :     -0.33789      -0.56280       0.04320
                        -----------------------------------------
Magnitude (a.u.)       :      0.65786
Magnitude (Debye)      :      1.67213

Rotational constants in cm-1:     0.017097     0.009004     0.006622
Rotational constants in MHz :   512.546991   269.938629   198.536369

                             ****ORCA TERMINATED NORMALLY****
TOTAL RUN TIME: 0 days 0 hours 0 minutes 34 seconds 747 msec
