                         Program Version 4.2.1 -  RELEASE  -
|  1> ! wB97X-D3 SP def2-SVP
|  2> %pal
|  3> nprocs 16
|  4> end
|  5>
|  6> * xyz 0 1
|  7> S 	 45.7743 	 12.9781 	 85.6116
|  8> C 	 46.0961 	 12.3414 	 84.0204
|  9> C 	 45.1158 	 12.7251 	 83.1345
| 10> C 	 43.9638 	 13.2465 	 83.8507
| 11> C 	 44.2961 	 13.6863 	 85.0933
| 12> H 	 42.9653 	 13.4647 	 83.4096
| 13> C 	 45.2067 	 12.5309 	 81.7208
| 14> H 	 45.7547 	 11.5704 	 81.5727
| 15> H 	 45.8377 	 13.2333 	 81.2539
| 16> C 	 43.8263 	 12.4647 	 80.9497
| 17> H 	 42.9209 	 11.9995 	 81.4052
| 18> H 	 43.4657 	 13.5459 	 80.8441
| 19> C 	 44.0053 	 11.8228 	 79.5545
| 20> H 	 44.9171 	 12.1088 	 79.0819
| 21> H 	 43.8602 	 10.7747 	 79.7267
| 22> H 	 43.2307 	 12.1974 	 78.8809
| 23> S 	 43.795 	 16.0301 	 86.5899
| 24> C 	 42.1814 	 16.2469 	 87.064
| 25> C 	 41.3958 	 15.1407 	 86.9067
| 26> C 	 42.082 	 14.0732 	 86.2422
| 27> C 	 43.4016 	 14.4587 	 85.896
| 28> H 	 40.3459 	 15.1421 	 87.2922
| 29> C 	 41.3813 	 12.738 	 86.0273
| 30> H 	 42.189 	 12.0002 	 86.1241
| 31> H 	 40.7706 	 12.5011 	 85.1003
| 32> C 	 40.4906 	 12.248 	 87.1892
| 33> H 	 39.6118 	 12.8512 	 87.2309
| 34> H 	 41.0549 	 12.3567 	 88.0713
| 35> C 	 40.1522 	 10.7935 	 87.1909
| 36> H 	 39.2917 	 10.5865 	 87.7724
| 37> H 	 41.031 	 10.2445 	 87.5605
| 38> H 	 40.0707 	 10.4854 	 86.1988
| 39> H 	 47.0655 	 11.964 	 83.7583
| 40> H 	 41.7337 	 17.0149 	 87.7305
| 41> *
| 42>
| 43>                          ****END OF INPUT****

CARTESIAN COORDINATES (ANGSTROEM)
---------------------------------
  S     45.774300   12.978100   85.611600
  C     46.096100   12.341400   84.020400
  C     45.115800   12.725100   83.134500
  C     43.963800   13.246500   83.850700
  C     44.296100   13.686300   85.093300
  H     42.965300   13.464700   83.409600
  C     45.206700   12.530900   81.720800
  H     45.754700   11.570400   81.572700
  H     45.837700   13.233300   81.253900
  C     43.826300   12.464700   80.949700
  H     42.920900   11.999500   81.405200
  H     43.465700   13.545900   80.844100
  C     44.005300   11.822800   79.554500
  H     44.917100   12.108800   79.081900
  H     43.860200   10.774700   79.726700
  H     43.230700   12.197400   78.880900
  S     43.795000   16.030100   86.589900
  C     42.181400   16.246900   87.064000
  C     41.395800   15.140700   86.906700
  C     42.082000   14.073200   86.242200
  C     43.401600   14.458700   85.896000
  H     40.345900   15.142100   87.292200
  C     41.381300   12.738000   86.027300
  H     42.189000   12.000200   86.124100
  H     40.770600   12.501100   85.100300
  C     40.490600   12.248000   87.189200
  H     39.611800   12.851200   87.230900
  H     41.054900   12.356700   88.071300
  C     40.152200   10.793500   87.190900
  H     39.291700   10.586500   87.772400
  H     41.031000   10.244500   87.560500
  H     40.070700   10.485400   86.198800
  H     47.065500   11.964000   83.758300
  H     41.733700   17.014900   87.730500

 Total Charge           Charge          ....    0
 Multiplicity           Mult            ....    1
 Number of Electrons    NEL             ....  134
 Basis Dimension        Dim             ....  322

ORBITAL ENERGIES
----------------

  NO   OCC          E(Eh)            E(eV)
   0   2.0000     -88.970118     -2421.0000
   1   2.0000     -88.960792     -2420.7462
   2   2.0000     -10.325976      -280.9841
   3   2.0000     -10.319590      -280.8103
   4   2.0000     -10.310679      -280.5678
   5   2.0000     -10.306203      -280.4460
   6   2.0000     -10.306024      -280.4412
   7   2.0000     -10.297442      -280.2076
   8   2.0000     -10.296626      -280.1854
   9   2.0000     -10.294602      -280.1304
  10   2.0000     -10.292289      -280.0674
  11   2.0000     -10.290456      -280.0175
  12   2.0000     -10.290151      -280.0092
  13   2.0000     -10.276002      -279.6242
  14   2.0000     -10.272151      -279.5194
  15   2.0000     -10.267127      -279.3827
  16   2.0000      -8.085240      -220.0106
  17   2.0000      -8.076411      -219.7703
  18   2.0000      -6.043667      -164.4565
  19   2.0000      -6.039759      -164.3502
  20   2.0000      -6.036004      -164.2480
  21   2.0000      -6.034923      -164.2186
  22   2.0000      -6.030812      -164.1067
  23   2.0000      -6.027106      -164.0059
  24   2.0000      -1.011280       -27.5183
  25   2.0000      -0.988957       -26.9109
  26   2.0000      -0.915147       -24.9024
  27   2.0000      -0.914770       -24.8921
  28   2.0000      -0.873550       -23.7705
  29   2.0000      -0.855404       -23.2767
  30   2.0000      -0.847721       -23.0677
  31   2.0000      -0.815449       -22.1895
  32   2.0000      -0.784222       -21.3398
  33   2.0000      -0.769055       -20.9270
  34   2.0000      -0.712381       -19.3849
  35   2.0000      -0.695374       -18.9221
  36   2.0000      -0.689397       -18.7594
  37   2.0000      -0.646307       -17.5869
  38   2.0000      -0.639264       -17.3953
  39   2.0000      -0.618613       -16.8333
  40   2.0000      -0.600647       -16.3444
  41   2.0000      -0.578521       -15.7424
  42   2.0000      -0.572766       -15.5858
  43   2.0000      -0.560709       -15.2577
  44   2.0000      -0.529774       -14.4159
  45   2.0000      -0.526300       -14.3213
  46   2.0000      -0.521366       -14.1871
  47   2.0000      -0.512357       -13.9420
  48   2.0000      -0.505703       -13.7609
  49   2.0000      -0.498230       -13.5575
  50   2.0000      -0.491298       -13.3689
  51   2.0000      -0.477894       -13.0042
  52   2.0000      -0.467837       -12.7305
  53   2.0000      -0.466266       -12.6878
  54   2.0000      -0.461155       -12.5487
  55   2.0000      -0.454540       -12.3687
  56   2.0000      -0.451748       -12.2927
  57   2.0000      -0.438945       -11.9443
  58   2.0000      -0.430032       -11.7018
  59   2.0000      -0.423614       -11.5271
  60   2.0000      -0.419371       -11.4117
  61   2.0000      -0.407495       -11.0885
  62   2.0000      -0.406583       -11.0637
  63   2.0000      -0.339736        -9.2447
  64   2.0000      -0.331959        -9.0331
  65   2.0000      -0.322296        -8.7701
  66   2.0000      -0.292745        -7.9660
  67   0.0000       0.034042         0.9263
  68   0.0000       0.069592         1.8937
  69   0.0000       0.116364         3.1664
  70   0.0000       0.123258         3.3540
  71   0.0000       0.133312         3.6276

MULLIKEN ATOMIC CHARGES
-----------------------
   0 S :    0.106732
   1 C :   -0.119099
   2 C :   -0.078273
   3 C :   -0.005746
   4 C :   -0.138472
   5 H :    0.034254
   6 C :    0.075040
   7 H :    0.030442
   8 H :    0.036206
   9 C :   -0.159578
  10 H :    0.042547
  11 H :    0.037056
  12 C :   -0.016362
  13 H :    0.027244
  14 H :    0.042002
  15 H :    0.028070
  16 S :    0.140553
  17 C :   -0.086392
  18 C :   -0.072755
  19 C :   -0.016222
  20 C :   -0.174731
  21 H :    0.036903
  22 C :    0.031353
  23 H :    0.025099
  24 H :    0.052333
  25 C :   -0.100568
  26 H :    0.022157
  27 H :    0.018959
  28 C :    0.010689
  29 H :    0.033233
  30 H :    0.028054
  31 H :    0.003596
  32 H :    0.042443
  33 H :    0.063232
Sum of atomic charges:   -0.0000000

LOEWDIN ATOMIC CHARGES
----------------------
   0 S :    0.409775
   1 C :   -0.201365
   2 C :   -0.059917
   3 C :   -0.057208
   4 C :   -0.207606
   5 H :    0.038269
   6 C :   -0.035546
   7 H :    0.038812
   8 H :    0.033470
   9 C :   -0.047983
  10 H :    0.027174
  11 H :    0.026165
  12 C :   -0.061289
  13 H :    0.020163
  14 H :    0.026606
  15 H :    0.028527
  16 S :    0.430629
  17 C :   -0.217261
  18 C :   -0.080197
  19 C :   -0.050641
  20 C :   -0.201607
  21 H :    0.039712
  22 C :   -0.041586
  23 H :    0.033608
  24 H :    0.035800
  25 C :   -0.040407
  26 H :    0.011875
  27 H :    0.019636
  28 C :   -0.051372
  29 H :    0.026122
  30 H :    0.030458
  31 H :    0.013954
  32 H :    0.022062
  33 H :    0.041169

  Mayer bond orders larger than 0.100000
B(  0-S ,  1-C ) :   1.1219 B(  0-S ,  4-C ) :   1.1508 B(  1-C ,  2-C ) :   1.6248
B(  1-C , 32-H ) :   0.9722 B(  2-C ,  3-C ) :   1.2148 B(  2-C ,  6-C ) :   1.0419
B(  3-C ,  4-C ) :   1.5798 B(  3-C ,  5-H ) :   0.9870 B(  4-C , 20-C ) :   1.0633
B(  6-C ,  7-H ) :   0.9431 B(  6-C ,  8-H ) :   0.9146 B(  6-C ,  9-C ) :   1.0544
B(  9-C , 10-H ) :   0.9657 B(  9-C , 11-H ) :   0.9530 B(  9-C , 12-C ) :   1.0742
B( 12-C , 13-H ) :   0.9750 B( 12-C , 14-H ) :   0.9794 B( 12-C , 15-H ) :   0.9720
B( 16-S , 17-C ) :   1.1615 B( 16-S , 20-C ) :   1.1406 B( 17-C , 18-C ) :   1.6237
B( 17-C , 33-H ) :   0.9518 B( 18-C , 19-C ) :   1.2551 B( 18-C , 21-H ) :   0.9791
B( 19-C , 20-C ) :   1.5714 B( 19-C , 22-C ) :   1.0291 B( 22-C , 23-H ) :   0.9361
B( 22-C , 24-H ) :   0.9337 B( 22-C , 25-C ) :   1.0750 B( 25-C , 26-H ) :   0.9475
B( 25-C , 27-H ) :   0.9602 B( 25-C , 28-C ) :   1.0931 B( 28-C , 29-H ) :   0.9703
B( 28-C , 30-H ) :   0.9723 B( 28-C , 31-H ) :   0.9710

Dispersion correction           -0.013649526
FINAL SINGLE POINT ENERGY     -1339.849738791988

DIPOLE MOMENT
-------------
                                X             Y             Z
Electronic contribution:     15.54801      17.01994      15.05960
Nuclear contribution   :    -15.94271     -17.26837     -15.42701
                        -----------------------------------------
Total Dipole Moment    :     -0.39470      -0.24843      -0.36741
                        -----------------------------------------
Magnitude (a.u.)       :      0.59371
Magnitude (Debye)      :      1.50909

Rotational constants in cm-1:     0.016494     0.008268     0.006915
Rotational constants in MHz :   494.475040   247.877947   207.310113

                             ****ORCA TERMINATED NORMALLY****
TOTAL RUN TIME: 0 days 0 hours 0 minutes 29 seconds 782 msec
