                         Program Version 4.2.1 -  RELEASE  -
|  1> ! wB97X-D3 SP def2-SVP
|  2> %pal
|  3> nprocs 16
|  4> end
|  5>
|  6> * xyz 0 1
|  7> S 	 32.8713 	 26.4212 	 54.0759
|  8> C 	 31.3274 	 27.2183 	 53.7823
|  9> C 	 30.2747 	 26.6103 	 54.4225
| 10> C 	 30.7386 	 25.5468 	 55.2818
| 11> C 	 32.1097 	 25.2923 	 55.1702
| 12> H 	 30.127 	 24.8944 	 55.924
| 13> C 	 28.8406 	 27.0406 	 54.4049
| 14> H 	 28.3034 	 26.5951 	 55.213
| 15> H 	 28.5681 	 26.4104 	 53.5101
| 16> C 	 28.5171 	 28.5001 	 54.3286
| 17> H 	 28.8596 	 29.1288 	 55.1919
| 18> H 	 29.0315 	 28.9175 	 53.4546
| 19> C 	 26.9941 	 28.7096 	 54.3613
| 20> H 	 26.6087 	 28.4481 	 55.2555
| 21> H 	 26.7772 	 29.6717 	 54.1884
| 22> H 	 26.4712 	 28.0937 	 53.6499
| 23> S 	 34.1509 	 25.1421 	 57.0784
| 24> C 	 34.625 	 23.6047 	 57.7611
| 25> C 	 33.7912 	 22.6224 	 57.2349
| 26> C 	 32.7141 	 23.1001 	 56.4073
| 27> C 	 32.8529 	 24.4415 	 56.0303
| 28> H 	 34.0444 	 21.6495 	 57.6873
| 29> C 	 31.7246 	 22.1862 	 55.6967
| 30> H 	 30.7986 	 22.701 	 55.8567
| 31> H 	 31.7323 	 21.273 	 56.3888
| 32> C 	 32.007 	 21.8306 	 54.2916
| 33> H 	 32.9076 	 21.1985 	 54.3584
| 34> H 	 32.2827 	 22.6907 	 53.6411
| 35> C 	 30.8724 	 21.0821 	 53.5686
| 36> H 	 30.0694 	 21.7306 	 53.6367
| 37> H 	 30.5716 	 20.0609 	 53.7621
| 38> H 	 31.0692 	 21.0402 	 52.5082
| 39> H 	 31.1858 	 28.0298 	 53.1858
| 40> H 	 35.4246 	 23.2908 	 58.4068
| 41> *
| 42>
| 43>                          ****END OF INPUT****

CARTESIAN COORDINATES (ANGSTROEM)
---------------------------------
  S     32.871300   26.421200   54.075900
  C     31.327400   27.218300   53.782300
  C     30.274700   26.610300   54.422500
  C     30.738600   25.546800   55.281800
  C     32.109700   25.292300   55.170200
  H     30.127000   24.894400   55.924000
  C     28.840600   27.040600   54.404900
  H     28.303400   26.595100   55.213000
  H     28.568100   26.410400   53.510100
  C     28.517100   28.500100   54.328600
  H     28.859600   29.128800   55.191900
  H     29.031500   28.917500   53.454600
  C     26.994100   28.709600   54.361300
  H     26.608700   28.448100   55.255500
  H     26.777200   29.671700   54.188400
  H     26.471200   28.093700   53.649900
  S     34.150900   25.142100   57.078400
  C     34.625000   23.604700   57.761100
  C     33.791200   22.622400   57.234900
  C     32.714100   23.100100   56.407300
  C     32.852900   24.441500   56.030300
  H     34.044400   21.649500   57.687300
  C     31.724600   22.186200   55.696700
  H     30.798600   22.701000   55.856700
  H     31.732300   21.273000   56.388800
  C     32.007000   21.830600   54.291600
  H     32.907600   21.198500   54.358400
  H     32.282700   22.690700   53.641100
  C     30.872400   21.082100   53.568600
  H     30.069400   21.730600   53.636700
  H     30.571600   20.060900   53.762100
  H     31.069200   21.040200   52.508200
  H     31.185800   28.029800   53.185800
  H     35.424600   23.290800   58.406800

 Total Charge           Charge          ....    0
 Multiplicity           Mult            ....    1
 Number of Electrons    NEL             ....  134
 Basis Dimension        Dim             ....  322

ORBITAL ENERGIES
----------------

  NO   OCC          E(Eh)            E(eV)
   0   2.0000     -88.969759     -2420.9902
   1   2.0000     -88.961752     -2420.7723
   2   2.0000     -10.329836      -281.0891
   3   2.0000     -10.328403      -281.0501
   4   2.0000     -10.315128      -280.6889
   5   2.0000     -10.307111      -280.4708
   6   2.0000     -10.305477      -280.4263
   7   2.0000     -10.302942      -280.3573
   8   2.0000     -10.300372      -280.2874
   9   2.0000     -10.294281      -280.1216
  10   2.0000     -10.293780      -280.1080
  11   2.0000     -10.293057      -280.0883
  12   2.0000     -10.288344      -279.9601
  13   2.0000     -10.284641      -279.8593
  14   2.0000     -10.267247      -279.3860
  15   2.0000     -10.262208      -279.2489
  16   2.0000      -8.084038      -219.9778
  17   2.0000      -8.075426      -219.7435
  18   2.0000      -6.042621      -164.4281
  19   2.0000      -6.038576      -164.3180
  20   2.0000      -6.034785      -164.2149
  21   2.0000      -6.034061      -164.1951
  22   2.0000      -6.029916      -164.0824
  23   2.0000      -6.026252      -163.9827
  24   2.0000      -1.004310       -27.3287
  25   2.0000      -0.979025       -26.6406
  26   2.0000      -0.921964       -25.0879
  27   2.0000      -0.910905       -24.7870
  28   2.0000      -0.875547       -23.8248
  29   2.0000      -0.855670       -23.2840
  30   2.0000      -0.843650       -22.9569
  31   2.0000      -0.815227       -22.1835
  32   2.0000      -0.788498       -21.4561
  33   2.0000      -0.775097       -21.0915
  34   2.0000      -0.721162       -19.6238
  35   2.0000      -0.710835       -19.3428
  36   2.0000      -0.693464       -18.8701
  37   2.0000      -0.655907       -17.8481
  38   2.0000      -0.641953       -17.4684
  39   2.0000      -0.612512       -16.6673
  40   2.0000      -0.588502       -16.0140
  41   2.0000      -0.580913       -15.8074
  42   2.0000      -0.566258       -15.4087
  43   2.0000      -0.562475       -15.3057
  44   2.0000      -0.535936       -14.5836
  45   2.0000      -0.524687       -14.2775
  46   2.0000      -0.521123       -14.1805
  47   2.0000      -0.519289       -14.1306
  48   2.0000      -0.509836       -13.8733
  49   2.0000      -0.506383       -13.7794
  50   2.0000      -0.490649       -13.3512
  51   2.0000      -0.487723       -13.2716
  52   2.0000      -0.474967       -12.9245
  53   2.0000      -0.464944       -12.6518
  54   2.0000      -0.455678       -12.3996
  55   2.0000      -0.451955       -12.2983
  56   2.0000      -0.448383       -12.2011
  57   2.0000      -0.437633       -11.9086
  58   2.0000      -0.432765       -11.7761
  59   2.0000      -0.428690       -11.6652
  60   2.0000      -0.412715       -11.2305
  61   2.0000      -0.410559       -11.1719
  62   2.0000      -0.403300       -10.9743
  63   2.0000      -0.344908        -9.3854
  64   2.0000      -0.330534        -8.9943
  65   2.0000      -0.325661        -8.8617
  66   2.0000      -0.290506        -7.9051
  67   0.0000       0.023466         0.6385
  68   0.0000       0.068353         1.8600
  69   0.0000       0.115235         3.1357
  70   0.0000       0.121985         3.3194
  71   0.0000       0.130957         3.5635

MULLIKEN ATOMIC CHARGES
-----------------------
   0 S :    0.124114
   1 C :   -0.098048
   2 C :   -0.072794
   3 C :    0.010859
   4 C :   -0.169958
   5 H :    0.027479
   6 C :    0.063489
   7 H :    0.011290
   8 H :    0.053986
   9 C :   -0.103088
  10 H :    0.044902
  11 H :    0.030401
  12 C :    0.059253
  13 H :    0.001392
  14 H :    0.002340
  15 H :    0.011921
  16 S :    0.097531
  17 C :   -0.089506
  18 C :   -0.069308
  19 C :   -0.041097
  20 C :   -0.142562
  21 H :    0.026953
  22 C :    0.077277
  23 H :    0.000178
  24 H :    0.030127
  25 C :   -0.058169
  26 H :    0.024490
  27 H :    0.044337
  28 C :   -0.011069
  29 H :    0.007665
  30 H :    0.033069
  31 H :    0.018091
  32 H :    0.001374
  33 H :    0.053077
Sum of atomic charges:   -0.0000000

LOEWDIN ATOMIC CHARGES
----------------------
   0 S :    0.410110
   1 C :   -0.185676
   2 C :   -0.055772
   3 C :   -0.055230
   4 C :   -0.203526
   5 H :    0.032901
   6 C :   -0.039035
   7 H :    0.025505
   8 H :    0.051586
   9 C :   -0.038557
  10 H :    0.035721
  11 H :    0.021885
  12 C :   -0.039600
  13 H :    0.013010
  14 H :    0.012270
  15 H :    0.024340
  16 S :    0.383362
  17 C :   -0.191697
  18 C :   -0.084903
  19 C :   -0.056552
  20 C :   -0.182526
  21 H :    0.035862
  22 C :   -0.037772
  23 H :    0.019702
  24 H :    0.039155
  25 C :   -0.041110
  26 H :    0.027134
  27 H :    0.034786
  28 C :   -0.063808
  29 H :    0.015868
  30 H :    0.024953
  31 H :    0.028083
  32 H :    0.005097
  33 H :    0.034435

  Mayer bond orders larger than 0.100000
B(  0-S ,  1-C ) :   1.1257 B(  0-S ,  4-C ) :   1.1442 B(  1-C ,  2-C ) :   1.6178
B(  1-C , 32-H ) :   0.9790 B(  2-C ,  3-C ) :   1.2437 B(  2-C ,  6-C ) :   0.9979
B(  3-C ,  4-C ) :   1.5640 B(  3-C ,  5-H ) :   0.9815 B(  4-C , 20-C ) :   1.0832
B(  6-C ,  7-H ) :   0.9490 B(  6-C ,  8-H ) :   0.9192 B(  6-C ,  9-C ) :   1.0737
B(  9-C , 10-H ) :   0.9578 B(  9-C , 11-H ) :   0.9500 B(  9-C , 12-C ) :   1.0861
B( 12-C , 13-H ) :   0.9699 B( 12-C , 14-H ) :   0.9684 B( 12-C , 15-H ) :   0.9718
B( 16-S , 17-C ) :   1.1501 B( 16-S , 20-C ) :   1.1220 B( 17-C , 18-C ) :   1.6328
B( 17-C , 20-C ) :   0.1057 B( 17-C , 33-H ) :   0.9650 B( 18-C , 19-C ) :   1.2292
B( 18-C , 21-H ) :   0.9836 B( 19-C , 20-C ) :   1.5686 B( 19-C , 22-C ) :   1.0446
B( 22-C , 23-H ) :   0.9218 B( 22-C , 24-H ) :   0.9322 B( 22-C , 25-C ) :   1.0739
B( 25-C , 26-H ) :   0.9496 B( 25-C , 27-H ) :   0.9528 B( 25-C , 28-C ) :   1.0754
B( 28-C , 29-H ) :   0.9731 B( 28-C , 30-H ) :   0.9775 B( 28-C , 31-H ) :   0.9706

Dispersion correction           -0.013942780
FINAL SINGLE POINT ENERGY     -1339.844597275726

DIPOLE MOMENT
-------------
                                X             Y             Z
Electronic contribution:     24.47593       5.11655       8.30520
Nuclear contribution   :    -25.16314      -5.26039      -8.37289
                        -----------------------------------------
Total Dipole Moment    :     -0.68721      -0.14384      -0.06769
                        -----------------------------------------
Magnitude (a.u.)       :      0.70536
Magnitude (Debye)      :      1.79287

Rotational constants in cm-1:     0.019473     0.007815     0.006498
Rotational constants in MHz :   583.792132   234.274152   194.799469

                             ****ORCA TERMINATED NORMALLY****
TOTAL RUN TIME: 0 days 0 hours 0 minutes 33 seconds 97 msec
