                         Program Version 4.2.1 -  RELEASE  -
|  1> ! wB97X-D3 SP def2-SVP
|  2> %pal
|  3> nprocs 16
|  4> end
|  5>
|  6> * xyz 0 1
|  7> S 	 55.0936 	 11.113 	 53.313
|  8> C 	 55.5492 	 12.5859 	 54.0881
|  9> C 	 54.4512 	 13.32 	 54.4402
| 10> C 	 53.2388 	 12.5801 	 54.2854
| 11> C 	 53.3958 	 11.3853 	 53.5678
| 12> H 	 52.2611 	 12.9623 	 54.4841
| 13> C 	 54.4125 	 14.7122 	 54.9963
| 14> H 	 55.3147 	 14.9008 	 55.5463
| 15> H 	 53.7421 	 14.6061 	 55.818
| 16> C 	 54.049 	 15.847 	 54.0641
| 17> H 	 53.0301 	 15.7604 	 53.782
| 18> H 	 54.2362 	 16.7508 	 54.6345
| 19> C 	 54.9793 	 15.9789 	 52.822
| 20> H 	 55.9843 	 16.2165 	 53.1663
| 21> H 	 55.0613 	 15.1391 	 52.1903
| 22> H 	 54.796 	 16.8535 	 52.214
| 23> S 	 52.9166 	 8.84329 	 52.4174
| 24> C 	 51.2563 	 8.41024 	 52.0939
| 25> C 	 50.3868 	 9.39081 	 52.5964
| 26> C 	 51.0084 	 10.4383 	 53.3729
| 27> C 	 52.4304 	 10.335 	 53.2713
| 28> H 	 49.2881 	 9.33211 	 52.3436
| 29> C 	 50.1175 	 11.4787 	 54.0449
| 30> H 	 50.4881 	 11.7642 	 55.0501
| 31> H 	 49.0987 	 10.9882 	 54.1322
| 32> C 	 49.9348 	 12.717 	 53.1513
| 33> H 	 49.2641 	 12.4805 	 52.3039
| 34> H 	 50.8611 	 13.1354 	 52.6764
| 35> C 	 49.2688 	 13.9194 	 53.9341
| 36> H 	 49.899 	 14.1242 	 54.7868
| 37> H 	 48.2724 	 13.781 	 54.3617
| 38> H 	 49.2166 	 14.6953 	 53.1168
| 39> H 	 56.5542 	 12.8805 	 54.3917
| 40> H 	 50.9568 	 7.39427 	 51.8014
| 41> *
| 42>
| 43>                          ****END OF INPUT****

CARTESIAN COORDINATES (ANGSTROEM)
---------------------------------
  S     55.093600   11.113000   53.313000
  C     55.549200   12.585900   54.088100
  C     54.451200   13.320000   54.440200
  C     53.238800   12.580100   54.285400
  C     53.395800   11.385300   53.567800
  H     52.261100   12.962300   54.484100
  C     54.412500   14.712200   54.996300
  H     55.314700   14.900800   55.546300
  H     53.742100   14.606100   55.818000
  C     54.049000   15.847000   54.064100
  H     53.030100   15.760400   53.782000
  H     54.236200   16.750800   54.634500
  C     54.979300   15.978900   52.822000
  H     55.984300   16.216500   53.166300
  H     55.061300   15.139100   52.190300
  H     54.796000   16.853500   52.214000
  S     52.916600    8.843290   52.417400
  C     51.256300    8.410240   52.093900
  C     50.386800    9.390810   52.596400
  C     51.008400   10.438300   53.372900
  C     52.430400   10.335000   53.271300
  H     49.288100    9.332110   52.343600
  C     50.117500   11.478700   54.044900
  H     50.488100   11.764200   55.050100
  H     49.098700   10.988200   54.132200
  C     49.934800   12.717000   53.151300
  H     49.264100   12.480500   52.303900
  H     50.861100   13.135400   52.676400
  C     49.268800   13.919400   53.934100
  H     49.899000   14.124200   54.786800
  H     48.272400   13.781000   54.361700
  H     49.216600   14.695300   53.116800
  H     56.554200   12.880500   54.391700
  H     50.956800    7.394270   51.801400

 Total Charge           Charge          ....    0
 Multiplicity           Mult            ....    1
 Number of Electrons    NEL             ....  134
 Basis Dimension        Dim             ....  322

ORBITAL ENERGIES
----------------

  NO   OCC          E(Eh)            E(eV)
   0   2.0000     -88.969579     -2420.9853
   1   2.0000     -88.964162     -2420.8379
   2   2.0000     -10.337124      -281.2874
   3   2.0000     -10.332215      -281.1539
   4   2.0000     -10.322661      -280.8939
   5   2.0000     -10.312567      -280.6192
   6   2.0000     -10.309916      -280.5471
   7   2.0000     -10.306734      -280.4605
   8   2.0000     -10.303909      -280.3836
   9   2.0000     -10.297045      -280.1968
  10   2.0000     -10.295551      -280.1562
  11   2.0000     -10.291169      -280.0369
  12   2.0000     -10.287127      -279.9270
  13   2.0000     -10.286386      -279.9068
  14   2.0000     -10.283890      -279.8389
  15   2.0000     -10.270582      -279.4767
  16   2.0000      -8.083593      -219.9657
  17   2.0000      -8.079638      -219.8581
  18   2.0000      -6.042222      -164.4172
  19   2.0000      -6.038183      -164.3073
  20   2.0000      -6.038149      -164.3064
  21   2.0000      -6.034333      -164.2025
  22   2.0000      -6.034011      -164.1938
  23   2.0000      -6.030367      -164.0946
  24   2.0000      -1.006343       -27.3840
  25   2.0000      -0.981262       -26.7015
  26   2.0000      -0.915197       -24.9038
  27   2.0000      -0.908465       -24.7206
  28   2.0000      -0.866921       -23.5901
  29   2.0000      -0.851072       -23.1589
  30   2.0000      -0.843756       -22.9598
  31   2.0000      -0.809648       -22.0316
  32   2.0000      -0.786121       -21.3914
  33   2.0000      -0.774998       -21.0888
  34   2.0000      -0.710208       -19.3258
  35   2.0000      -0.702147       -19.1064
  36   2.0000      -0.691251       -18.8099
  37   2.0000      -0.661386       -17.9972
  38   2.0000      -0.634250       -17.2588
  39   2.0000      -0.623655       -16.9705
  40   2.0000      -0.595758       -16.2114
  41   2.0000      -0.566881       -15.4256
  42   2.0000      -0.564254       -15.3541
  43   2.0000      -0.549029       -14.9398
  44   2.0000      -0.545443       -14.8423
  45   2.0000      -0.532032       -14.4773
  46   2.0000      -0.515278       -14.0214
  47   2.0000      -0.509395       -13.8613
  48   2.0000      -0.499639       -13.5959
  49   2.0000      -0.497817       -13.5463
  50   2.0000      -0.492272       -13.3954
  51   2.0000      -0.483051       -13.1445
  52   2.0000      -0.474630       -12.9154
  53   2.0000      -0.461827       -12.5670
  54   2.0000      -0.457263       -12.4427
  55   2.0000      -0.451364       -12.2822
  56   2.0000      -0.443900       -12.0791
  57   2.0000      -0.441196       -12.0056
  58   2.0000      -0.436122       -11.8675
  59   2.0000      -0.425026       -11.5655
  60   2.0000      -0.421358       -11.4657
  61   2.0000      -0.416048       -11.3212
  62   2.0000      -0.410486       -11.1699
  63   2.0000      -0.361567        -9.8387
  64   2.0000      -0.334139        -9.0924
  65   2.0000      -0.327220        -8.9041
  66   2.0000      -0.275731        -7.5030
  67   0.0000       0.012296         0.3346
  68   0.0000       0.089916         2.4467
  69   0.0000       0.094247         2.5646
  70   0.0000       0.116534         3.1711
  71   0.0000       0.122397         3.3306

MULLIKEN ATOMIC CHARGES
-----------------------
   0 S :    0.093856
   1 C :   -0.115422
   2 C :   -0.109365
   3 C :    0.009241
   4 C :   -0.112818
   5 H :   -0.021025
   6 C :    0.086055
   7 H :    0.001240
   8 H :    0.013171
   9 C :   -0.018161
  10 H :    0.024938
  11 H :    0.030218
  12 C :   -0.043930
  13 H :    0.008617
  14 H :    0.039841
  15 H :    0.025398
  16 S :    0.099940
  17 C :   -0.106023
  18 C :   -0.063701
  19 C :   -0.060793
  20 C :   -0.094891
  21 H :    0.044959
  22 C :    0.034334
  23 H :    0.045741
  24 H :    0.041556
  25 C :   -0.125567
  26 H :    0.032916
  27 H :    0.056061
  28 C :   -0.054386
  29 H :    0.028498
  30 H :    0.034542
  31 H :    0.050252
  32 H :    0.048132
  33 H :    0.076576
Sum of atomic charges:    0.0000000

LOEWDIN ATOMIC CHARGES
----------------------
   0 S :    0.414223
   1 C :   -0.207182
   2 C :   -0.064099
   3 C :   -0.070463
   4 C :   -0.184884
   5 H :    0.021524
   6 C :   -0.034280
   7 H :    0.025736
   8 H :    0.030276
   9 C :   -0.027301
  10 H :    0.018243
  11 H :    0.030503
  12 C :   -0.063333
  13 H :    0.023581
  14 H :    0.019648
  15 H :    0.026225
  16 S :    0.393230
  17 C :   -0.198356
  18 C :   -0.076738
  19 C :   -0.051110
  20 C :   -0.188405
  21 H :    0.039815
  22 C :   -0.038491
  23 H :    0.031170
  24 H :    0.043128
  25 C :   -0.047543
  26 H :    0.026278
  27 H :    0.030708
  28 C :   -0.069749
  29 H :    0.017769
  30 H :    0.023449
  31 H :    0.036521
  32 H :    0.032928
  33 H :    0.036976

  Mayer bond orders larger than 0.100000
B(  0-S ,  1-C ) :   1.1418 B(  0-S ,  4-C ) :   1.1479 B(  1-C ,  2-C ) :   1.6008
B(  1-C , 32-H ) :   0.9648 B(  2-C ,  3-C ) :   1.2680 B(  2-C ,  6-C ) :   1.0179
B(  3-C ,  4-C ) :   1.5354 B(  3-C ,  5-H ) :   0.9847 B(  4-C , 20-C ) :   1.1053
B(  6-C ,  7-H ) :   0.9342 B(  6-C ,  8-H ) :   0.9319 B(  6-C ,  9-C ) :   1.0775
B(  9-C , 10-H ) :   0.9568 B(  9-C , 11-H ) :   0.9523 B(  9-C , 12-C ) :   1.0754
B( 12-C , 13-H ) :   0.9722 B( 12-C , 14-H ) :   0.9787 B( 12-C , 15-H ) :   0.9738
B( 16-S , 17-C ) :   1.1515 B( 16-S , 20-C ) :   1.1346 B( 17-C , 18-C ) :   1.5924
B( 17-C , 20-C ) :   0.1011 B( 17-C , 33-H ) :   0.9636 B( 18-C , 19-C ) :   1.2836
B( 18-C , 21-H ) :   0.9732 B( 19-C , 20-C ) :   1.5345 B( 19-C , 22-C ) :   1.0387
B( 22-C , 23-H ) :   0.9453 B( 22-C , 24-H ) :   0.9309 B( 22-C , 25-C ) :   1.0479
B( 25-C , 26-H ) :   0.9525 B( 25-C , 27-H ) :   0.9613 B( 25-C , 28-C ) :   1.0642
B( 28-C , 29-H ) :   0.9774 B( 28-C , 30-H ) :   0.9751 B( 28-C , 31-H ) :   0.9757

Dispersion correction           -0.014959253
FINAL SINGLE POINT ENERGY     -1339.873453365673

DIPOLE MOMENT
-------------
                                X             Y             Z
Electronic contribution:     11.45354     -28.36909      -4.47162
Nuclear contribution   :    -11.96240      28.88156       4.68455
                        -----------------------------------------
Total Dipole Moment    :     -0.50885       0.51247       0.21293
                        -----------------------------------------
Magnitude (a.u.)       :      0.75292
Magnitude (Debye)      :      1.91378

Rotational constants in cm-1:     0.018335     0.009978     0.006963
Rotational constants in MHz :   549.671564   299.127229   208.746955

                             ****ORCA TERMINATED NORMALLY****
TOTAL RUN TIME: 0 days 0 hours 0 minutes 32 seconds 22 msec
