                         Program Version 4.2.1 -  RELEASE  -
|  1> ! wB97X-D3 SP def2-SVP
|  2> %pal
|  3> nprocs 16
|  4> end
|  5>
|  6> * xyz 0 1
|  7> S 	 -45.8795 	 52.1754 	 105.213
|  8> C 	 -45.1086 	 51.0889 	 104.016
|  9> C 	 -44.0032 	 51.6368 	 103.448
| 10> C 	 -43.7071 	 52.9727 	 103.889
| 11> C 	 -44.6019 	 53.3479 	 104.841
| 12> H 	 -42.9177 	 53.7107 	 103.503
| 13> C 	 -43.0881 	 50.9089 	 102.508
| 14> H 	 -43.465 	 49.9242 	 102.388
| 15> H 	 -42.1186 	 50.7555 	 102.962
| 16> C 	 -42.8708 	 51.5458 	 101.126
| 17> H 	 -42.3248 	 52.5176 	 101.273
| 18> H 	 -42.1867 	 50.8552 	 100.707
| 19> C 	 -44.1115 	 51.8883 	 100.215
| 20> H 	 -44.8657 	 52.519 	 100.749
| 21> H 	 -43.7067 	 52.4278 	 99.3099
| 22> H 	 -44.7219 	 51.0593 	 99.9898
| 23> S 	 -44.5137 	 54.5631 	 107.286
| 24> C 	 -44.4326 	 56.3407 	 107.43
| 25> C 	 -44.4567 	 56.892 	 106.191
| 26> C 	 -44.5393 	 55.943 	 105.107
| 27> C 	 -44.5699 	 54.6149 	 105.532
| 28> H 	 -44.5519 	 57.9502 	 106.166
| 29> C 	 -44.6941 	 56.3775 	 103.628
| 30> H 	 -43.9673 	 55.7579 	 103.015
| 31> H 	 -44.352 	 57.4155 	 103.537
| 32> C 	 -46.1418 	 56.3344 	 103.028
| 33> H 	 -46.4605 	 55.2555 	 102.992
| 34> H 	 -45.9909 	 56.5776 	 101.989
| 35> C 	 -47.2247 	 57.2706 	 103.545
| 36> H 	 -48.1561 	 57.1866 	 103.014
| 37> H 	 -46.8737 	 58.2709 	 103.31
| 38> H 	 -47.3493 	 57.2616 	 104.683
| 39> H 	 -45.5443 	 50.0927 	 103.873
| 40> H 	 -44.1439 	 56.8532 	 108.341
| 41> *
| 42>
| 43>                          ****END OF INPUT****

CARTESIAN COORDINATES (ANGSTROEM)
---------------------------------
  S    -45.879500   52.175400  105.213000
  C    -45.108600   51.088900  104.016000
  C    -44.003200   51.636800  103.448000
  C    -43.707100   52.972700  103.889000
  C    -44.601900   53.347900  104.841000
  H    -42.917700   53.710700  103.503000
  C    -43.088100   50.908900  102.508000
  H    -43.465000   49.924200  102.388000
  H    -42.118600   50.755500  102.962000
  C    -42.870800   51.545800  101.126000
  H    -42.324800   52.517600  101.273000
  H    -42.186700   50.855200  100.707000
  C    -44.111500   51.888300  100.215000
  H    -44.865700   52.519000  100.749000
  H    -43.706700   52.427800   99.309900
  H    -44.721900   51.059300   99.989800
  S    -44.513700   54.563100  107.286000
  C    -44.432600   56.340700  107.430000
  C    -44.456700   56.892000  106.191000
  C    -44.539300   55.943000  105.107000
  C    -44.569900   54.614900  105.532000
  H    -44.551900   57.950200  106.166000
  C    -44.694100   56.377500  103.628000
  H    -43.967300   55.757900  103.015000
  H    -44.352000   57.415500  103.537000
  C    -46.141800   56.334400  103.028000
  H    -46.460500   55.255500  102.992000
  H    -45.990900   56.577600  101.989000
  C    -47.224700   57.270600  103.545000
  H    -48.156100   57.186600  103.014000
  H    -46.873700   58.270900  103.310000
  H    -47.349300   57.261600  104.683000
  H    -45.544300   50.092700  103.873000
  H    -44.143900   56.853200  108.341000

 Total Charge           Charge          ....    0
 Multiplicity           Mult            ....    1
 Number of Electrons    NEL             ....  134
 Basis Dimension        Dim             ....  322

ORBITAL ENERGIES
----------------

  NO   OCC          E(Eh)            E(eV)
   0   2.0000     -88.966403     -2420.8989
   1   2.0000     -88.959775     -2420.7185
   2   2.0000     -10.329713      -281.0858
   3   2.0000     -10.325224      -280.9636
   4   2.0000     -10.316054      -280.7141
   5   2.0000     -10.315636      -280.7027
   6   2.0000     -10.305943      -280.4390
   7   2.0000     -10.300749      -280.2976
   8   2.0000     -10.300481      -280.2903
   9   2.0000     -10.300296      -280.2853
  10   2.0000     -10.291451      -280.0446
  11   2.0000     -10.291159      -280.0367
  12   2.0000     -10.286382      -279.9067
  13   2.0000     -10.286368      -279.9063
  14   2.0000     -10.284076      -279.8439
  15   2.0000     -10.279215      -279.7117
  16   2.0000      -8.080504      -219.8817
  17   2.0000      -8.074236      -219.7111
  18   2.0000      -6.039058      -164.3311
  19   2.0000      -6.035357      -164.2304
  20   2.0000      -6.032817      -164.1613
  21   2.0000      -6.030990      -164.1116
  22   2.0000      -6.028705      -164.0494
  23   2.0000      -6.025011      -163.9489
  24   2.0000      -1.004726       -27.3400
  25   2.0000      -0.979892       -26.6642
  26   2.0000      -0.910462       -24.7749
  27   2.0000      -0.897502       -24.4223
  28   2.0000      -0.870402       -23.6848
  29   2.0000      -0.846616       -23.0376
  30   2.0000      -0.839504       -22.8441
  31   2.0000      -0.817925       -22.2569
  32   2.0000      -0.785367       -21.3709
  33   2.0000      -0.772045       -21.0084
  34   2.0000      -0.711546       -19.3622
  35   2.0000      -0.696445       -18.9512
  36   2.0000      -0.685065       -18.6416
  37   2.0000      -0.659908       -17.9570
  38   2.0000      -0.639661       -17.4061
  39   2.0000      -0.621025       -16.8989
  40   2.0000      -0.583813       -15.8864
  41   2.0000      -0.565133       -15.3780
  42   2.0000      -0.550887       -14.9904
  43   2.0000      -0.544692       -14.8218
  44   2.0000      -0.542369       -14.7586
  45   2.0000      -0.533469       -14.5164
  46   2.0000      -0.522768       -14.2252
  47   2.0000      -0.510839       -13.9006
  48   2.0000      -0.503059       -13.6889
  49   2.0000      -0.491615       -13.3775
  50   2.0000      -0.486424       -13.2363
  51   2.0000      -0.477669       -12.9980
  52   2.0000      -0.471774       -12.8376
  53   2.0000      -0.468810       -12.7570
  54   2.0000      -0.454756       -12.3745
  55   2.0000      -0.451418       -12.2837
  56   2.0000      -0.439943       -11.9715
  57   2.0000      -0.438002       -11.9186
  58   2.0000      -0.427595       -11.6354
  59   2.0000      -0.420517       -11.4429
  60   2.0000      -0.417228       -11.3533
  61   2.0000      -0.415164       -11.2972
  62   2.0000      -0.405567       -11.0360
  63   2.0000      -0.348841        -9.4924
  64   2.0000      -0.333049        -9.0627
  65   2.0000      -0.327436        -8.9100
  66   2.0000      -0.294505        -8.0139
  67   0.0000       0.032695         0.8897
  68   0.0000       0.066947         1.8217
  69   0.0000       0.107365         2.9216
  70   0.0000       0.118453         3.2233
  71   0.0000       0.128383         3.4935

MULLIKEN ATOMIC CHARGES
-----------------------
   0 S :    0.103129
   1 C :   -0.149332
   2 C :   -0.060342
   3 C :   -0.005646
   4 C :   -0.141247
   5 H :    0.057843
   6 C :    0.097586
   7 H :   -0.002765
   8 H :    0.034717
   9 C :   -0.092523
  10 H :    0.030189
  11 H :    0.026547
  12 C :   -0.056817
  13 H :    0.042239
  14 H :    0.053271
  15 H :    0.023021
  16 S :    0.082446
  17 C :   -0.102146
  18 C :   -0.025675
  19 C :   -0.033656
  20 C :   -0.161545
  21 H :    0.013514
  22 C :    0.052060
  23 H :    0.030223
  24 H :    0.013345
  25 C :   -0.073562
  26 H :    0.038974
  27 H :    0.021663
  28 C :   -0.042641
  29 H :    0.039410
  30 H :    0.012129
  31 H :    0.053141
  32 H :    0.056157
  33 H :    0.066296
Sum of atomic charges:   -0.0000000

LOEWDIN ATOMIC CHARGES
----------------------
   0 S :    0.371621
   1 C :   -0.184458
   2 C :   -0.062494
   3 C :   -0.066354
   4 C :   -0.178577
   5 H :    0.051444
   6 C :   -0.030200
   7 H :    0.022114
   8 H :    0.035956
   9 C :   -0.039645
  10 H :    0.025039
  11 H :    0.020628
  12 C :   -0.070352
  13 H :    0.032981
  14 H :    0.037204
  15 H :    0.016599
  16 S :    0.382854
  17 C :   -0.175746
  18 C :   -0.071846
  19 C :   -0.063443
  20 C :   -0.193595
  21 H :    0.028968
  22 C :   -0.033153
  23 H :    0.035326
  24 H :    0.025727
  25 C :   -0.045311
  26 H :    0.027006
  27 H :    0.022675
  28 C :   -0.069632
  29 H :    0.028403
  30 H :    0.021363
  31 H :    0.035550
  32 H :    0.029925
  33 H :    0.033421

  Mayer bond orders larger than 0.100000
B(  0-S ,  1-C ) :   1.0991 B(  0-S ,  4-C ) :   1.1366 B(  1-C ,  2-C ) :   1.6581
B(  1-C , 32-H ) :   0.9668 B(  2-C ,  3-C ) :   1.1744 B(  2-C ,  6-C ) :   1.0347
B(  3-C ,  4-C ) :   1.6379 B(  3-C ,  5-H ) :   0.9767 B(  4-C , 20-C ) :   1.0313
B(  6-C ,  7-H ) :   0.9320 B(  6-C ,  8-H ) :   0.9349 B(  6-C ,  9-C ) :   1.0721
B(  9-C , 10-H ) :   0.9566 B(  9-C , 11-H ) :   0.9575 B(  9-C , 12-C ) :   1.0629
B( 12-C , 13-H ) :   0.9721 B( 12-C , 14-H ) :   0.9754 B( 12-C , 15-H ) :   0.9771
B( 16-S , 17-C ) :   1.1380 B( 16-S , 20-C ) :   1.1439 B( 17-C , 18-C ) :   1.6315
B( 17-C , 33-H ) :   0.9646 B( 18-C , 19-C ) :   1.2258 B( 18-C , 21-H ) :   0.9932
B( 19-C , 20-C ) :   1.5970 B( 19-C , 22-C ) :   1.0410 B( 22-C , 23-H ) :   0.9351
B( 22-C , 24-H ) :   0.9345 B( 22-C , 25-C ) :   1.0700 B( 25-C , 26-H ) :   0.9571
B( 25-C , 27-H ) :   0.9521 B( 25-C , 28-C ) :   1.0736 B( 28-C , 29-H ) :   0.9719
B( 28-C , 30-H ) :   0.9707 B( 28-C , 31-H ) :   0.9758

Dispersion correction           -0.015076387
FINAL SINGLE POINT ENERGY     -1339.880953473493

DIPOLE MOMENT
-------------
                                X             Y             Z
Electronic contribution:     -0.87715      -5.47005      25.59855
Nuclear contribution   :      1.13874       5.63832     -26.19744
                        -----------------------------------------
Total Dipole Moment    :      0.26158       0.16827      -0.59889
                        -----------------------------------------
Magnitude (a.u.)       :      0.67484
Magnitude (Debye)      :      1.71531

Rotational constants in cm-1:     0.019072     0.009138     0.007459
Rotational constants in MHz :   571.766189   273.960900   223.619580

                             ****ORCA TERMINATED NORMALLY****
TOTAL RUN TIME: 0 days 0 hours 0 minutes 29 seconds 510 msec
