                         Program Version 4.2.1 -  RELEASE  -
|  1> ! wB97X-D3 SP def2-SVP
|  2> %pal
|  3> nprocs 16
|  4> end
|  5>
|  6> * xyz 0 1
|  7> S 	 69.2617 	 21.2634 	 79.4815
|  8> C 	 68.7027 	 19.7046 	 79.8214
|  9> C 	 67.9414 	 19.2424 	 78.7928
| 10> C 	 67.7695 	 20.2129 	 77.6789
| 11> C 	 68.6489 	 21.31 	 77.901
| 12> H 	 67.1911 	 20.1261 	 76.7505
| 13> C 	 67.2679 	 17.907 	 78.7609
| 14> H 	 67.9016 	 17.2936 	 79.3473
| 15> H 	 67.3679 	 17.4776 	 77.7672
| 16> C 	 65.8556 	 17.8477 	 79.3755
| 17> H 	 65.9048 	 18.0826 	 80.4418
| 18> H 	 65.1902 	 18.5926 	 78.977
| 19> C 	 65.1964 	 16.4266 	 79.1915
| 20> H 	 65.2064 	 16.1382 	 78.1633
| 21> H 	 65.754 	 15.7287 	 79.8458
| 22> H 	 64.1437 	 16.4988 	 79.426
| 23> S 	 67.5091 	 23.5716 	 76.7184
| 24> C 	 68.5484 	 24.7302 	 75.9425
| 25> C 	 69.813 	 24.2125 	 75.8444
| 26> C 	 70.0123 	 22.9245 	 76.4487
| 27> C 	 68.8104 	 22.4524 	 76.9951
| 28> H 	 70.557 	 24.745 	 75.3569
| 29> C 	 71.3379 	 22.1987 	 76.5713
| 30> H 	 71.6296 	 21.877 	 77.548
| 31> H 	 72.143 	 22.8792 	 76.4185
| 32> C 	 71.415 	 21.115 	 75.5271
| 33> H 	 70.6972 	 20.3827 	 75.8089
| 34> H 	 72.3718 	 20.6516 	 75.4976
| 35> C 	 71.1999 	 21.5589 	 74.0159
| 36> H 	 71.796 	 22.4531 	 73.8185
| 37> H 	 70.0814 	 21.7525 	 73.81
| 38> H 	 71.625 	 20.7567 	 73.3627
| 39> H 	 68.8264 	 19.1406 	 80.6881
| 40> H 	 68.3398 	 25.6099 	 75.4956
| 41> *
| 42>
| 43>                          ****END OF INPUT****

CARTESIAN COORDINATES (ANGSTROEM)
---------------------------------
  S     69.261700   21.263400   79.481500
  C     68.702700   19.704600   79.821400
  C     67.941400   19.242400   78.792800
  C     67.769500   20.212900   77.678900
  C     68.648900   21.310000   77.901000
  H     67.191100   20.126100   76.750500
  C     67.267900   17.907000   78.760900
  H     67.901600   17.293600   79.347300
  H     67.367900   17.477600   77.767200
  C     65.855600   17.847700   79.375500
  H     65.904800   18.082600   80.441800
  H     65.190200   18.592600   78.977000
  C     65.196400   16.426600   79.191500
  H     65.206400   16.138200   78.163300
  H     65.754000   15.728700   79.845800
  H     64.143700   16.498800   79.426000
  S     67.509100   23.571600   76.718400
  C     68.548400   24.730200   75.942500
  C     69.813000   24.212500   75.844400
  C     70.012300   22.924500   76.448700
  C     68.810400   22.452400   76.995100
  H     70.557000   24.745000   75.356900
  C     71.337900   22.198700   76.571300
  H     71.629600   21.877000   77.548000
  H     72.143000   22.879200   76.418500
  C     71.415000   21.115000   75.527100
  H     70.697200   20.382700   75.808900
  H     72.371800   20.651600   75.497600
  C     71.199900   21.558900   74.015900
  H     71.796000   22.453100   73.818500
  H     70.081400   21.752500   73.810000
  H     71.625000   20.756700   73.362700
  H     68.826400   19.140600   80.688100
  H     68.339800   25.609900   75.495600

 Total Charge           Charge          ....    0
 Multiplicity           Mult            ....    1
 Number of Electrons    NEL             ....  134
 Basis Dimension        Dim             ....  322

ORBITAL ENERGIES
----------------

  NO   OCC          E(Eh)            E(eV)
   0   2.0000     -88.966666     -2420.9061
   1   2.0000     -88.965948     -2420.8865
   2   2.0000     -10.327876      -281.0358
   3   2.0000     -10.324127      -280.9338
   4   2.0000     -10.308209      -280.5006
   5   2.0000     -10.303353      -280.3685
   6   2.0000     -10.302897      -280.3561
   7   2.0000     -10.301067      -280.3063
   8   2.0000     -10.299685      -280.2687
   9   2.0000     -10.287016      -279.9239
  10   2.0000     -10.286563      -279.9116
  11   2.0000     -10.284277      -279.8494
  12   2.0000     -10.284104      -279.8447
  13   2.0000     -10.282199      -279.7929
  14   2.0000     -10.278785      -279.7000
  15   2.0000     -10.275487      -279.6102
  16   2.0000      -8.082226      -219.9285
  17   2.0000      -8.081388      -219.9058
  18   2.0000      -6.040623      -164.3737
  19   2.0000      -6.039933      -164.3549
  20   2.0000      -6.036378      -164.2582
  21   2.0000      -6.035753      -164.2412
  22   2.0000      -6.033130      -164.1698
  23   2.0000      -6.032256      -164.1460
  24   2.0000      -1.010864       -27.5070
  25   2.0000      -0.989196       -26.9174
  26   2.0000      -0.910967       -24.7887
  27   2.0000      -0.908091       -24.7104
  28   2.0000      -0.871237       -23.7076
  29   2.0000      -0.845797       -23.0153
  30   2.0000      -0.838039       -22.8042
  31   2.0000      -0.816380       -22.2148
  32   2.0000      -0.781731       -21.2720
  33   2.0000      -0.773546       -21.0493
  34   2.0000      -0.710114       -19.3232
  35   2.0000      -0.703215       -19.1354
  36   2.0000      -0.688726       -18.7412
  37   2.0000      -0.665427       -18.1072
  38   2.0000      -0.645816       -17.5735
  39   2.0000      -0.612396       -16.6641
  40   2.0000      -0.599534       -16.3142
  41   2.0000      -0.578200       -15.7336
  42   2.0000      -0.559793       -15.2328
  43   2.0000      -0.552300       -15.0288
  44   2.0000      -0.543210       -14.7815
  45   2.0000      -0.524761       -14.2795
  46   2.0000      -0.517009       -14.0685
  47   2.0000      -0.511606       -13.9215
  48   2.0000      -0.506773       -13.7900
  49   2.0000      -0.500393       -13.6164
  50   2.0000      -0.489062       -13.3081
  51   2.0000      -0.476887       -12.9768
  52   2.0000      -0.473175       -12.8757
  53   2.0000      -0.466983       -12.7073
  54   2.0000      -0.456902       -12.4329
  55   2.0000      -0.445867       -12.1327
  56   2.0000      -0.442906       -12.0521
  57   2.0000      -0.440281       -11.9807
  58   2.0000      -0.433432       -11.7943
  59   2.0000      -0.419636       -11.4189
  60   2.0000      -0.416059       -11.3215
  61   2.0000      -0.415080       -11.2949
  62   2.0000      -0.410879       -11.1806
  63   2.0000      -0.339055        -9.2262
  64   2.0000      -0.329421        -8.9640
  65   2.0000      -0.323136        -8.7930
  66   2.0000      -0.303757        -8.2657
  67   0.0000       0.038884         1.0581
  68   0.0000       0.065914         1.7936
  69   0.0000       0.114309         3.1105
  70   0.0000       0.128392         3.4937
  71   0.0000       0.134933         3.6717

MULLIKEN ATOMIC CHARGES
-----------------------
   0 S :    0.141054
   1 C :   -0.080055
   2 C :   -0.121239
   3 C :    0.018036
   4 C :   -0.163943
   5 H :    0.028148
   6 C :    0.088329
   7 H :   -0.002889
   8 H :    0.022031
   9 C :   -0.073472
  10 H :    0.024971
  11 H :    0.023879
  12 C :   -0.037921
  13 H :    0.026356
  14 H :    0.040772
  15 H :    0.033534
  16 S :    0.125316
  17 C :   -0.035053
  18 C :   -0.018771
  19 C :   -0.055954
  20 C :   -0.170886
  21 H :   -0.011114
  22 C :    0.142490
  23 H :    0.017008
  24 H :   -0.007923
  25 C :   -0.062391
  26 H :    0.029554
  27 H :    0.017223
  28 C :   -0.098723
  29 H :    0.026780
  30 H :    0.062916
  31 H :    0.043980
  32 H :    0.019353
  33 H :    0.008602
Sum of atomic charges:   -0.0000000

LOEWDIN ATOMIC CHARGES
----------------------
   0 S :    0.461781
   1 C :   -0.214230
   2 C :   -0.059067
   3 C :   -0.063714
   4 C :   -0.215910
   5 H :    0.035041
   6 C :   -0.036004
   7 H :    0.023565
   8 H :    0.030134
   9 C :   -0.033954
  10 H :    0.024022
  11 H :    0.018893
  12 C :   -0.061409
  13 H :    0.020118
  14 H :    0.028659
  15 H :    0.026027
  16 S :    0.421962
  17 C :   -0.173989
  18 C :   -0.058911
  19 C :   -0.045569
  20 C :   -0.212331
  21 H :    0.017602
  22 C :   -0.032819
  23 H :    0.027041
  24 H :    0.023739
  25 C :   -0.033663
  26 H :    0.020292
  27 H :    0.018039
  28 C :   -0.073758
  29 H :    0.019706
  30 H :    0.036390
  31 H :    0.030546
  32 H :    0.021055
  33 H :    0.010717

  Mayer bond orders larger than 0.100000
B(  0-S ,  1-C ) :   1.1392 B(  0-S ,  4-C ) :   1.1917 B(  1-C ,  2-C ) :   1.6122
B(  1-C , 32-H ) :   0.9750 B(  2-C ,  3-C ) :   1.2300 B(  2-C ,  6-C ) :   1.0354
B(  3-C ,  4-C ) :   1.5328 B(  3-C ,  5-H ) :   0.9954 B(  4-C , 20-C ) :   1.0290
B(  6-C ,  7-H ) :   0.9316 B(  6-C ,  8-H ) :   0.9416 B(  6-C ,  9-C ) :   1.0553
B(  9-C , 10-H ) :   0.9557 B(  9-C , 11-H ) :   0.9615 B(  9-C , 12-C ) :   1.0768
B( 12-C , 13-H ) :   0.9773 B( 12-C , 14-H ) :   0.9780 B( 12-C , 15-H ) :   0.9754
B( 16-S , 17-C ) :   1.1512 B( 16-S , 20-C ) :   1.1541 B( 17-C , 18-C ) :   1.6065
B( 17-C , 33-H ) :   0.9777 B( 18-C , 19-C ) :   1.2619 B( 18-C , 21-H ) :   0.9945
B( 19-C , 20-C ) :   1.5593 B( 19-C , 22-C ) :   1.0439 B( 22-C , 23-H ) :   0.9286
B( 22-C , 24-H ) :   0.9213 B( 22-C , 25-C ) :   1.0747 B( 25-C , 26-H ) :   0.9597
B( 25-C , 27-H ) :   0.9565 B( 25-C , 28-C ) :   1.0663 B( 28-C , 29-H ) :   0.9767
B( 28-C , 30-H ) :   0.9720 B( 28-C , 31-H ) :   0.9776

Dispersion correction           -0.014855862
FINAL SINGLE POINT ENERGY     -1339.871897708397

DIPOLE MOMENT
-------------
                                X             Y             Z
Electronic contribution:     -0.75315      19.66327       6.43271
Nuclear contribution   :      0.90372     -19.95499      -6.53546
                        -----------------------------------------
Total Dipole Moment    :      0.15057      -0.29173      -0.10275
                        -----------------------------------------
Magnitude (a.u.)       :      0.34400
Magnitude (Debye)      :      0.87437

Rotational constants in cm-1:     0.022673     0.007331     0.006812
Rotational constants in MHz :   679.734154   219.771354   204.206037

                             ****ORCA TERMINATED NORMALLY****
TOTAL RUN TIME: 0 days 0 hours 0 minutes 29 seconds 69 msec
