                         Program Version 4.2.1 -  RELEASE  -
|  1> ! wB97X-D3 SP def2-SVP
|  2> %pal
|  3> nprocs 16
|  4> end
|  5>
|  6> * xyz 0 1
|  7> S 	 31.3985 	 13.4184 	 68.5512
|  8> C 	 30.4179 	 14.8937 	 68.673
|  9> C 	 29.0972 	 14.6081 	 69.0699
| 10> C 	 28.9827 	 13.1959 	 69.2951
| 11> C 	 30.1947 	 12.4611 	 69.3066
| 12> H 	 28.0558 	 12.7162 	 69.548
| 13> C 	 28.0144 	 15.6498 	 69.1291
| 14> H 	 27.1031 	 15.2241 	 68.6703
| 15> H 	 28.2562 	 16.5066 	 68.4978
| 16> C 	 27.8253 	 16.1398 	 70.5144
| 17> H 	 27.4778 	 15.3829 	 71.1833
| 18> H 	 28.6796 	 16.5198 	 71.036
| 19> C 	 26.7059 	 17.1966 	 70.5427
| 20> H 	 27.0746 	 18.126 	 70.1016
| 21> H 	 25.8502 	 16.8086 	 70.0588
| 22> H 	 26.3631 	 17.3356 	 71.5982
| 23> S 	 30.772 	 9.93645 	 68.3231
| 24> C 	 30.4079 	 8.57965 	 69.3873
| 25> C 	 30.0247 	 9.02599 	 70.6564
| 26> C 	 30.0475 	 10.3996 	 70.7847
| 27> C 	 30.3231 	 11.0692 	 69.6126
| 28> H 	 29.949 	 8.241 	 71.4113
| 29> C 	 29.826 	 11.1026 	 72.0974
| 30> H 	 29.9743 	 12.178 	 71.9246
| 31> H 	 30.6187 	 10.8327 	 72.8125
| 32> C 	 28.4597 	 10.7828 	 72.6343
| 33> H 	 28.3295 	 9.80238 	 72.3794
| 34> H 	 27.7528 	 11.3268 	 72.0222
| 35> C 	 28.3927 	 11.0303 	 74.1703
| 36> H 	 29.2838 	 10.5101 	 74.5707
| 37> H 	 27.5371 	 10.4723 	 74.591
| 38> H 	 28.5003 	 12.0471 	 74.5593
| 39> H 	 30.7031 	 15.8671 	 68.5126
| 40> H 	 30.4125 	 7.58158 	 69.0956
| 41> *
| 42>
| 43>                          ****END OF INPUT****

CARTESIAN COORDINATES (ANGSTROEM)
---------------------------------
  S     31.398500   13.418400   68.551200
  C     30.417900   14.893700   68.673000
  C     29.097200   14.608100   69.069900
  C     28.982700   13.195900   69.295100
  C     30.194700   12.461100   69.306600
  H     28.055800   12.716200   69.548000
  C     28.014400   15.649800   69.129100
  H     27.103100   15.224100   68.670300
  H     28.256200   16.506600   68.497800
  C     27.825300   16.139800   70.514400
  H     27.477800   15.382900   71.183300
  H     28.679600   16.519800   71.036000
  C     26.705900   17.196600   70.542700
  H     27.074600   18.126000   70.101600
  H     25.850200   16.808600   70.058800
  H     26.363100   17.335600   71.598200
  S     30.772000    9.936450   68.323100
  C     30.407900    8.579650   69.387300
  C     30.024700    9.025990   70.656400
  C     30.047500   10.399600   70.784700
  C     30.323100   11.069200   69.612600
  H     29.949000    8.241000   71.411300
  C     29.826000   11.102600   72.097400
  H     29.974300   12.178000   71.924600
  H     30.618700   10.832700   72.812500
  C     28.459700   10.782800   72.634300
  H     28.329500    9.802380   72.379400
  H     27.752800   11.326800   72.022200
  C     28.392700   11.030300   74.170300
  H     29.283800   10.510100   74.570700
  H     27.537100   10.472300   74.591000
  H     28.500300   12.047100   74.559300
  H     30.703100   15.867100   68.512600
  H     30.412500    7.581580   69.095600

 Total Charge           Charge          ....    0
 Multiplicity           Mult            ....    1
 Number of Electrons    NEL             ....  134
 Basis Dimension        Dim             ....  322

ORBITAL ENERGIES
----------------

  NO   OCC          E(Eh)            E(eV)
   0   2.0000     -88.967424     -2420.9267
   1   2.0000     -88.966281     -2420.8956
   2   2.0000     -10.327387      -281.0225
   3   2.0000     -10.323464      -280.9157
   4   2.0000     -10.317501      -280.7535
   5   2.0000     -10.310392      -280.5600
   6   2.0000     -10.302404      -280.3427
   7   2.0000     -10.296788      -280.1899
   8   2.0000     -10.295488      -280.1545
   9   2.0000     -10.294519      -280.1281
  10   2.0000     -10.292847      -280.0826
  11   2.0000     -10.282696      -279.8064
  12   2.0000     -10.282439      -279.7994
  13   2.0000     -10.278288      -279.6864
  14   2.0000     -10.276570      -279.6397
  15   2.0000     -10.275833      -279.6196
  16   2.0000      -8.082053      -219.9238
  17   2.0000      -8.080615      -219.8847
  18   2.0000      -6.040538      -164.3714
  19   2.0000      -6.039047      -164.3308
  20   2.0000      -6.036557      -164.2631
  21   2.0000      -6.035194      -164.2260
  22   2.0000      -6.032870      -164.1627
  23   2.0000      -6.031458      -164.1243
  24   2.0000      -1.007666       -27.4200
  25   2.0000      -0.983560       -26.7640
  26   2.0000      -0.923564       -25.1315
  27   2.0000      -0.914997       -24.8983
  28   2.0000      -0.872139       -23.7321
  29   2.0000      -0.850163       -23.1341
  30   2.0000      -0.845013       -22.9940
  31   2.0000      -0.810879       -22.0651
  32   2.0000      -0.782559       -21.2945
  33   2.0000      -0.771691       -20.9988
  34   2.0000      -0.710786       -19.3415
  35   2.0000      -0.706700       -19.2303
  36   2.0000      -0.703499       -19.1432
  37   2.0000      -0.661612       -18.0034
  38   2.0000      -0.643718       -17.5164
  39   2.0000      -0.619141       -16.8477
  40   2.0000      -0.600909       -16.3516
  41   2.0000      -0.574734       -15.6393
  42   2.0000      -0.569166       -15.4878
  43   2.0000      -0.562306       -15.3011
  44   2.0000      -0.532477       -14.4894
  45   2.0000      -0.529096       -14.3974
  46   2.0000      -0.519712       -14.1421
  47   2.0000      -0.511513       -13.9190
  48   2.0000      -0.506975       -13.7955
  49   2.0000      -0.499413       -13.5897
  50   2.0000      -0.497831       -13.5467
  51   2.0000      -0.481057       -13.0902
  52   2.0000      -0.471399       -12.8274
  53   2.0000      -0.460497       -12.5307
  54   2.0000      -0.457009       -12.4359
  55   2.0000      -0.449120       -12.2212
  56   2.0000      -0.444667       -12.1000
  57   2.0000      -0.441102       -12.0030
  58   2.0000      -0.437190       -11.8965
  59   2.0000      -0.422766       -11.5040
  60   2.0000      -0.421922       -11.4811
  61   2.0000      -0.417272       -11.3546
  62   2.0000      -0.414972       -11.2920
  63   2.0000      -0.339274        -9.2321
  64   2.0000      -0.333099        -9.0641
  65   2.0000      -0.328192        -8.9305
  66   2.0000      -0.289357        -7.8738
  67   0.0000       0.028153         0.7661
  68   0.0000       0.058205         1.5838
  69   0.0000       0.107219         2.9176
  70   0.0000       0.121929         3.3179
  71   0.0000       0.134762         3.6671

MULLIKEN ATOMIC CHARGES
-----------------------
   0 S :    0.118730
   1 C :   -0.073400
   2 C :   -0.102642
   3 C :    0.045165
   4 C :   -0.187410
   5 H :    0.002567
   6 C :    0.077252
   7 H :    0.033848
   8 H :    0.018517
   9 C :   -0.068432
  10 H :    0.014174
  11 H :    0.024908
  12 C :   -0.030900
  13 H :    0.036683
  14 H :    0.016491
  15 H :    0.032274
  16 S :    0.107741
  17 C :   -0.077227
  18 C :   -0.054166
  19 C :   -0.028357
  20 C :   -0.153144
  21 H :    0.031051
  22 C :    0.062481
  23 H :    0.031810
  24 H :    0.029270
  25 C :   -0.020288
  26 H :   -0.003533
  27 H :    0.016625
  28 C :   -0.044780
  29 H :    0.018726
  30 H :    0.039091
  31 H :    0.043970
  32 H :    0.007293
  33 H :    0.035614
Sum of atomic charges:    0.0000000

LOEWDIN ATOMIC CHARGES
----------------------
   0 S :    0.416601
   1 C :   -0.180490
   2 C :   -0.054729
   3 C :   -0.056865
   4 C :   -0.213789
   5 H :    0.022833
   6 C :   -0.031239
   7 H :    0.037993
   8 H :    0.031436
   9 C :   -0.041073
  10 H :    0.020819
  11 H :    0.023688
  12 C :   -0.059201
  13 H :    0.023536
  14 H :    0.016708
  15 H :    0.030243
  16 S :    0.393489
  17 C :   -0.163154
  18 C :   -0.076493
  19 C :   -0.056316
  20 C :   -0.195571
  21 H :    0.036648
  22 C :   -0.028285
  23 H :    0.030290
  24 H :    0.030538
  25 C :   -0.031837
  26 H :    0.010700
  27 H :    0.023299
  28 C :   -0.067966
  29 H :    0.026340
  30 H :    0.029020
  31 H :    0.028341
  32 H :    0.008788
  33 H :    0.015698

  Mayer bond orders larger than 0.100000
B(  0-S ,  1-C ) :   1.1447 B(  0-S ,  4-C ) :   1.1606 B(  1-C ,  2-C ) :   1.5838
B(  1-C ,  4-C ) :   0.1096 B(  1-C , 32-H ) :   0.9762 B(  2-C ,  3-C ) :   1.2701
B(  2-C ,  6-C ) :   1.0250 B(  3-C ,  4-C ) :   1.5228 B(  3-C ,  5-H ) :   0.9943
B(  4-C , 20-C ) :   1.0562 B(  6-C ,  7-H ) :   0.9359 B(  6-C ,  8-H ) :   0.9407
B(  6-C ,  9-C ) :   1.0677 B(  9-C , 10-H ) :   0.9525 B(  9-C , 11-H ) :   0.9547
B(  9-C , 12-C ) :   1.0863 B( 12-C , 13-H ) :   0.9768 B( 12-C , 14-H ) :   0.9722
B( 12-C , 15-H ) :   0.9748 B( 16-S , 17-C ) :   1.1663 B( 16-S , 20-C ) :   1.1311
B( 17-C , 18-C ) :   1.5968 B( 17-C , 20-C ) :   0.1107 B( 17-C , 33-H ) :   0.9748
B( 18-C , 19-C ) :   1.2479 B( 18-C , 21-H ) :   0.9842 B( 19-C , 20-C ) :   1.5963
B( 19-C , 22-C ) :   1.0431 B( 22-C , 23-H ) :   0.9248 B( 22-C , 24-H ) :   0.9387
B( 22-C , 25-C ) :   1.0542 B( 25-C , 26-H ) :   0.9616 B( 25-C , 27-H ) :   0.9445
B( 25-C , 28-C ) :   1.0692 B( 28-C , 29-H ) :   0.9742 B( 28-C , 30-H ) :   0.9747
B( 28-C , 31-H ) :   0.9768

Dispersion correction           -0.013975875
FINAL SINGLE POINT ENERGY     -1339.864415173718

DIPOLE MOMENT
-------------
                                X             Y             Z
Electronic contribution:     19.60091     -13.44081     -21.29192
Nuclear contribution   :    -20.07443      13.53798      21.73224
                        -----------------------------------------
Total Dipole Moment    :     -0.47351       0.09717       0.44032
                        -----------------------------------------
Magnitude (a.u.)       :      0.65386
Magnitude (Debye)      :      1.66199

Rotational constants in cm-1:     0.017261     0.009042     0.006467
Rotational constants in MHz :   517.477013   271.064937   193.890427

                             ****ORCA TERMINATED NORMALLY****
TOTAL RUN TIME: 0 days 0 hours 0 minutes 31 seconds 520 msec
