                         Program Version 4.2.1 -  RELEASE  -
|  1> ! wB97X-D3 SP def2-SVP
|  2> %pal
|  3> nprocs 16
|  4> end
|  5>
|  6> * xyz 0 1
|  7> S 	 55.7364 	 3.17921 	 81.7646
|  8> C 	 54.5195 	 4.53176 	 81.4944
|  9> C 	 53.339 	 4.21588 	 82.2147
| 10> C 	 53.3431 	 2.89494 	 82.7723
| 11> C 	 54.5151 	 2.18393 	 82.6478
| 12> H 	 52.5523 	 2.42404 	 83.2504
| 13> C 	 52.1404 	 5.08669 	 82.2789
| 14> H 	 52.4571 	 6.15823 	 82.2819
| 15> H 	 51.7415 	 4.99082 	 83.27
| 16> C 	 51.1112 	 4.87975 	 81.1381
| 17> H 	 51.0027 	 5.72318 	 80.4861
| 18> H 	 51.4818 	 4.07783 	 80.454
| 19> C 	 49.6782 	 4.62276 	 81.675
| 20> H 	 49.7029 	 3.61049 	 82.1114
| 21> H 	 49.1928 	 5.34014 	 82.4058
| 22> H 	 49.0044 	 4.33866 	 80.8591
| 23> S 	 54.2014 	 0.397051 	 84.7883
| 24> C 	 54.9445 	 -1.11641 	 84.7252
| 25> C 	 55.4438 	 -1.35344 	 83.3986
| 26> C 	 55.398 	 -0.28646 	 82.4853
| 27> C 	 54.7684 	 0.808913 	 83.1354
| 28> H 	 55.9234 	 -2.26122 	 83.1084
| 29> C 	 56.1187 	 -0.2648 	 81.176
| 30> H 	 57.128 	 -0.679448 	 81.3204
| 31> H 	 56.3183 	 0.781154 	 80.856
| 32> C 	 55.4303 	 -0.899189 	 80.0232
| 33> H 	 54.4163 	 -0.426232 	 79.8891
| 34> H 	 55.2399 	 -1.93533 	 80.2266
| 35> C 	 56.1409 	 -0.849627 	 78.7052
| 36> H 	 56.2523 	 0.190637 	 78.3817
| 37> H 	 55.6015 	 -1.23724 	 77.8985
| 38> H 	 57.1092 	 -1.23442 	 78.736
| 39> H 	 54.626 	 5.54525 	 81.1843
| 40> H 	 54.9635 	 -1.76848 	 85.6252
| 41> *
| 42>
| 43>                          ****END OF INPUT****

CARTESIAN COORDINATES (ANGSTROEM)
---------------------------------
  S     55.736400    3.179210   81.764600
  C     54.519500    4.531760   81.494400
  C     53.339000    4.215880   82.214700
  C     53.343100    2.894940   82.772300
  C     54.515100    2.183930   82.647800
  H     52.552300    2.424040   83.250400
  C     52.140400    5.086690   82.278900
  H     52.457100    6.158230   82.281900
  H     51.741500    4.990820   83.270000
  C     51.111200    4.879750   81.138100
  H     51.002700    5.723180   80.486100
  H     51.481800    4.077830   80.454000
  C     49.678200    4.622760   81.675000
  H     49.702900    3.610490   82.111400
  H     49.192800    5.340140   82.405800
  H     49.004400    4.338660   80.859100
  S     54.201400    0.397051   84.788300
  C     54.944500   -1.116410   84.725200
  C     55.443800   -1.353440   83.398600
  C     55.398000   -0.286460   82.485300
  C     54.768400    0.808913   83.135400
  H     55.923400   -2.261220   83.108400
  C     56.118700   -0.264800   81.176000
  H     57.128000   -0.679448   81.320400
  H     56.318300    0.781154   80.856000
  C     55.430300   -0.899189   80.023200
  H     54.416300   -0.426232   79.889100
  H     55.239900   -1.935330   80.226600
  C     56.140900   -0.849627   78.705200
  H     56.252300    0.190637   78.381700
  H     55.601500   -1.237240   77.898500
  H     57.109200   -1.234420   78.736000
  H     54.626000    5.545250   81.184300
  H     54.963500   -1.768480   85.625200

 Total Charge           Charge          ....    0
 Multiplicity           Mult            ....    1
 Number of Electrons    NEL             ....  134
 Basis Dimension        Dim             ....  322

ORBITAL ENERGIES
----------------

  NO   OCC          E(Eh)            E(eV)
   0   2.0000     -88.973578     -2421.0942
   1   2.0000     -88.969135     -2420.9732
   2   2.0000     -10.336593      -281.2730
   3   2.0000     -10.335444      -281.2417
   4   2.0000     -10.325801      -280.9793
   5   2.0000     -10.318629      -280.7842
   6   2.0000     -10.308035      -280.4959
   7   2.0000     -10.303349      -280.3684
   8   2.0000     -10.297264      -280.2028
   9   2.0000     -10.291124      -280.0357
  10   2.0000     -10.290160      -280.0095
  11   2.0000     -10.290137      -280.0089
  12   2.0000     -10.287355      -279.9332
  13   2.0000     -10.283922      -279.8397
  14   2.0000     -10.280021      -279.7336
  15   2.0000     -10.264209      -279.3033
  16   2.0000      -8.088346      -220.0951
  17   2.0000      -8.080788      -219.8894
  18   2.0000      -6.046629      -164.5372
  19   2.0000      -6.042728      -164.4310
  20   2.0000      -6.039694      -164.3484
  21   2.0000      -6.039472      -164.3424
  22   2.0000      -6.035745      -164.2410
  23   2.0000      -6.031267      -164.1191
  24   2.0000      -1.000922       -27.2365
  25   2.0000      -0.974064       -26.5056
  26   2.0000      -0.920622       -25.0514
  27   2.0000      -0.907278       -24.6883
  28   2.0000      -0.864824       -23.5330
  29   2.0000      -0.859012       -23.3749
  30   2.0000      -0.840772       -22.8786
  31   2.0000      -0.807214       -21.9654
  32   2.0000      -0.790472       -21.5098
  33   2.0000      -0.768345       -20.9077
  34   2.0000      -0.705930       -19.2093
  35   2.0000      -0.703055       -19.1311
  36   2.0000      -0.692998       -18.8574
  37   2.0000      -0.666833       -18.1455
  38   2.0000      -0.633200       -17.2303
  39   2.0000      -0.619171       -16.8485
  40   2.0000      -0.603452       -16.4208
  41   2.0000      -0.569741       -15.5034
  42   2.0000      -0.563471       -15.3328
  43   2.0000      -0.547079       -14.8868
  44   2.0000      -0.532653       -14.4942
  45   2.0000      -0.527018       -14.3409
  46   2.0000      -0.522140       -14.2082
  47   2.0000      -0.519773       -14.1438
  48   2.0000      -0.508541       -13.8381
  49   2.0000      -0.494620       -13.4593
  50   2.0000      -0.488303       -13.2874
  51   2.0000      -0.479268       -13.0415
  52   2.0000      -0.470181       -12.7943
  53   2.0000      -0.457297       -12.4437
  54   2.0000      -0.454511       -12.3679
  55   2.0000      -0.453769       -12.3477
  56   2.0000      -0.449764       -12.2387
  57   2.0000      -0.437356       -11.9011
  58   2.0000      -0.431397       -11.7389
  59   2.0000      -0.428299       -11.6546
  60   2.0000      -0.418438       -11.3863
  61   2.0000      -0.408625       -11.1192
  62   2.0000      -0.403830       -10.9888
  63   2.0000      -0.347156        -9.4466
  64   2.0000      -0.337121        -9.1735
  65   2.0000      -0.327639        -8.9155
  66   2.0000      -0.284212        -7.7338
  67   0.0000       0.020602         0.5606
  68   0.0000       0.061639         1.6773
  69   0.0000       0.102833         2.7982
  70   0.0000       0.113559         3.0901
  71   0.0000       0.117257         3.1907

MULLIKEN ATOMIC CHARGES
-----------------------
   0 S :    0.085492
   1 C :   -0.093275
   2 C :   -0.127491
   3 C :    0.031182
   4 C :   -0.107283
   5 H :   -0.018313
   6 C :    0.069342
   7 H :    0.024791
   8 H :    0.025426
   9 C :   -0.050736
  10 H :    0.026461
  11 H :    0.047897
  12 C :   -0.094765
  13 H :    0.022936
  14 H :    0.062009
  15 H :    0.027449
  16 S :    0.129236
  17 C :   -0.111742
  18 C :   -0.030775
  19 C :    0.010661
  20 C :   -0.188198
  21 H :    0.003794
  22 C :    0.054019
  23 H :    0.030294
  24 H :    0.017718
  25 C :   -0.086968
  26 H :    0.036133
  27 H :    0.016439
  28 C :    0.015813
  29 H :    0.015525
  30 H :    0.020433
  31 H :    0.013157
  32 H :    0.040579
  33 H :    0.082763
Sum of atomic charges:    0.0000000

LOEWDIN ATOMIC CHARGES
----------------------
   0 S :    0.359952
   1 C :   -0.184996
   2 C :   -0.053135
   3 C :   -0.068651
   4 C :   -0.162389
   5 H :    0.016622
   6 C :   -0.038486
   7 H :    0.036829
   8 H :    0.029684
   9 C :   -0.039887
  10 H :    0.020558
  11 H :    0.034939
  12 C :   -0.082901
  13 H :    0.025598
  14 H :    0.035355
  15 H :    0.027681
  16 S :    0.434265
  17 C :   -0.214815
  18 C :   -0.066941
  19 C :   -0.047374
  20 C :   -0.187596
  21 H :    0.022492
  22 C :   -0.039192
  23 H :    0.034838
  24 H :    0.023123
  25 C :   -0.043031
  26 H :    0.034046
  27 H :    0.016925
  28 C :   -0.056649
  29 H :    0.027682
  30 H :    0.022692
  31 H :    0.016504
  32 H :    0.026608
  33 H :    0.039653

  Mayer bond orders larger than 0.100000
B(  0-S ,  1-C ) :   1.1023 B(  0-S ,  4-C ) :   1.1207 B(  1-C ,  2-C ) :   1.6240
B(  1-C , 32-H ) :   0.9652 B(  2-C ,  3-C ) :   1.2082 B(  2-C ,  6-C ) :   1.0573
B(  3-C ,  4-C ) :   1.5993 B(  3-C ,  5-H ) :   1.0014 B(  4-C , 20-C ) :   1.0491
B(  6-C ,  7-H ) :   0.9335 B(  6-C ,  8-H ) :   0.9481 B(  6-C ,  9-C ) :   1.0188
B(  9-C , 10-H ) :   0.9593 B(  9-C , 11-H ) :   0.9640 B(  9-C , 12-C ) :   1.0741
B( 12-C , 13-H ) :   0.9739 B( 12-C , 14-H ) :   0.9762 B( 12-C , 15-H ) :   0.9697
B( 16-S , 17-C ) :   1.1910 B( 16-S , 20-C ) :   1.1695 B( 17-C , 18-C ) :   1.5161
B( 17-C , 20-C ) :   0.1121 B( 17-C , 33-H ) :   0.9688 B( 18-C , 19-C ) :   1.3093
B( 18-C , 21-H ) :   0.9887 B( 19-C , 20-C ) :   1.5029 B( 19-C , 22-C ) :   1.0421
B( 22-C , 23-H ) :   0.9299 B( 22-C , 24-H ) :   0.9239 B( 22-C , 25-C ) :   1.0695
B( 25-C , 26-H ) :   0.9482 B( 25-C , 27-H ) :   0.9535 B( 25-C , 28-C ) :   1.1016
B( 28-C , 29-H ) :   0.9667 B( 28-C , 30-H ) :   0.9689 B( 28-C , 31-H ) :   0.9692

Dispersion correction           -0.013800307
FINAL SINGLE POINT ENERGY     -1339.858287368880

DIPOLE MOMENT
-------------
                                X             Y             Z
Electronic contribution:     11.03596      -1.85365      17.24269
Nuclear contribution   :    -11.29261       1.73109     -17.35535
                        -----------------------------------------
Total Dipole Moment    :     -0.25665      -0.12256      -0.11266
                        -----------------------------------------
Magnitude (a.u.)       :      0.30591
Magnitude (Debye)      :      0.77757

Rotational constants in cm-1:     0.017272     0.008157     0.006810
Rotational constants in MHz :   517.793050   244.547530   204.161457

                             ****ORCA TERMINATED NORMALLY****
TOTAL RUN TIME: 0 days 0 hours 0 minutes 27 seconds 336 msec
