                         Program Version 4.2.1 -  RELEASE  -
|  1> ! wB97X-D3 SP def2-SVP
|  2> %pal
|  3> nprocs 16
|  4> end
|  5>
|  6> * xyz 0 1
|  7> S 	 -14.0364 	 40.1193 	 30.4917
|  8> C 	 -15.006 	 39.2421 	 31.606
|  9> C 	 -15.2546 	 37.9077 	 31.2225
| 10> C 	 -14.6438 	 37.6146 	 29.9331
| 11> C 	 -14.1356 	 38.7739 	 29.3497
| 12> H 	 -14.6839 	 36.6852 	 29.4253
| 13> C 	 -16.0604 	 36.743 	 31.8293
| 14> H 	 -15.5622 	 36.5284 	 32.8296
| 15> H 	 -15.9976 	 35.871 	 31.2493
| 16> C 	 -17.5068 	 36.9852 	 32.0632
| 17> H 	 -18.0313 	 37.1592 	 31.1456
| 18> H 	 -17.924 	 36.003 	 32.3934
| 19> C 	 -17.7472 	 38.0759 	 33.129
| 20> H 	 -17.5243 	 39.1155 	 32.8667
| 21> H 	 -18.8812 	 38.0197 	 33.3801
| 22> H 	 -17.3249 	 37.7385 	 34.0363
| 23> S 	 -12.4227 	 37.7552 	 27.5419
| 24> C 	 -12.5632 	 38.2028 	 25.9268
| 25> C 	 -13.4685 	 39.1977 	 25.6689
| 26> C 	 -14.0536 	 39.6893 	 26.8837
| 27> C 	 -13.7089 	 38.8769 	 27.966
| 28> H 	 -13.5678 	 39.5502 	 24.6385
| 29> C 	 -15.1037 	 40.8071 	 26.9088
| 30> H 	 -15.3523 	 41.1277 	 25.8583
| 31> H 	 -14.6967 	 41.6396 	 27.404
| 32> C 	 -16.4985 	 40.4304 	 27.4588
| 33> H 	 -16.3317 	 40.0311 	 28.5198
| 34> H 	 -16.7722 	 39.5868 	 26.8941
| 35> C 	 -17.4281 	 41.6208 	 27.5693
| 36> H 	 -17.0691 	 42.2844 	 26.8332
| 37> H 	 -17.2998 	 42.113 	 28.4889
| 38> H 	 -18.4111 	 41.34 	 27.2651
| 39> H 	 -15.2684 	 39.6544 	 32.5639
| 40> H 	 -12.0559 	 37.9038 	 25.0437
| 41> *
| 42>
| 43>                          ****END OF INPUT****

CARTESIAN COORDINATES (ANGSTROEM)
---------------------------------
  S    -14.036400   40.119300   30.491700
  C    -15.006000   39.242100   31.606000
  C    -15.254600   37.907700   31.222500
  C    -14.643800   37.614600   29.933100
  C    -14.135600   38.773900   29.349700
  H    -14.683900   36.685200   29.425300
  C    -16.060400   36.743000   31.829300
  H    -15.562200   36.528400   32.829600
  H    -15.997600   35.871000   31.249300
  C    -17.506800   36.985200   32.063200
  H    -18.031300   37.159200   31.145600
  H    -17.924000   36.003000   32.393400
  C    -17.747200   38.075900   33.129000
  H    -17.524300   39.115500   32.866700
  H    -18.881200   38.019700   33.380100
  H    -17.324900   37.738500   34.036300
  S    -12.422700   37.755200   27.541900
  C    -12.563200   38.202800   25.926800
  C    -13.468500   39.197700   25.668900
  C    -14.053600   39.689300   26.883700
  C    -13.708900   38.876900   27.966000
  H    -13.567800   39.550200   24.638500
  C    -15.103700   40.807100   26.908800
  H    -15.352300   41.127700   25.858300
  H    -14.696700   41.639600   27.404000
  C    -16.498500   40.430400   27.458800
  H    -16.331700   40.031100   28.519800
  H    -16.772200   39.586800   26.894100
  C    -17.428100   41.620800   27.569300
  H    -17.069100   42.284400   26.833200
  H    -17.299800   42.113000   28.488900
  H    -18.411100   41.340000   27.265100
  H    -15.268400   39.654400   32.563900
  H    -12.055900   37.903800   25.043700

 Total Charge           Charge          ....    0
 Multiplicity           Mult            ....    1
 Number of Electrons    NEL             ....  134
 Basis Dimension        Dim             ....  322

ORBITAL ENERGIES
----------------

  NO   OCC          E(Eh)            E(eV)
   0   2.0000     -88.969163     -2420.9740
   1   2.0000     -88.966399     -2420.8988
   2   2.0000     -10.329343      -281.0757
   3   2.0000     -10.322697      -280.8949
   4   2.0000     -10.315003      -280.6855
   5   2.0000     -10.307119      -280.4710
   6   2.0000     -10.304821      -280.4084
   7   2.0000     -10.303657      -280.3768
   8   2.0000     -10.293849      -280.1099
   9   2.0000     -10.291154      -280.0365
  10   2.0000     -10.288887      -279.9748
  11   2.0000     -10.287461      -279.9361
  12   2.0000     -10.285280      -279.8767
  13   2.0000     -10.282500      -279.8011
  14   2.0000     -10.276138      -279.6279
  15   2.0000     -10.263832      -279.2931
  16   2.0000      -8.083770      -219.9706
  17   2.0000      -8.081937      -219.9207
  18   2.0000      -6.042235      -164.4176
  19   2.0000      -6.040335      -164.3659
  20   2.0000      -6.038312      -164.3108
  21   2.0000      -6.036346      -164.2573
  22   2.0000      -6.034590      -164.2095
  23   2.0000      -6.032750      -164.1595
  24   2.0000      -1.007659       -27.4198
  25   2.0000      -0.984215       -26.7818
  26   2.0000      -0.916038       -24.9267
  27   2.0000      -0.907852       -24.7039
  28   2.0000      -0.868940       -23.6451
  29   2.0000      -0.853171       -23.2160
  30   2.0000      -0.848172       -23.0799
  31   2.0000      -0.807519       -21.9737
  32   2.0000      -0.785628       -21.3780
  33   2.0000      -0.773200       -21.0399
  34   2.0000      -0.706038       -19.2123
  35   2.0000      -0.698853       -19.0168
  36   2.0000      -0.687600       -18.7105
  37   2.0000      -0.658841       -17.9280
  38   2.0000      -0.643412       -17.5081
  39   2.0000      -0.612629       -16.6705
  40   2.0000      -0.593024       -16.1370
  41   2.0000      -0.571854       -15.5609
  42   2.0000      -0.567143       -15.4327
  43   2.0000      -0.555471       -15.1151
  44   2.0000      -0.539468       -14.6797
  45   2.0000      -0.524073       -14.2608
  46   2.0000      -0.513350       -13.9690
  47   2.0000      -0.511197       -13.9104
  48   2.0000      -0.502158       -13.6644
  49   2.0000      -0.496902       -13.5214
  50   2.0000      -0.493165       -13.4197
  51   2.0000      -0.478307       -13.0154
  52   2.0000      -0.474001       -12.8982
  53   2.0000      -0.466298       -12.6886
  54   2.0000      -0.461277       -12.5520
  55   2.0000      -0.454666       -12.3721
  56   2.0000      -0.441410       -12.0114
  57   2.0000      -0.438147       -11.9226
  58   2.0000      -0.431891       -11.7523
  59   2.0000      -0.425312       -11.5733
  60   2.0000      -0.423766       -11.5313
  61   2.0000      -0.406839       -11.0706
  62   2.0000      -0.398607       -10.8467
  63   2.0000      -0.342604        -9.3227
  64   2.0000      -0.333117        -9.0646
  65   2.0000      -0.325454        -8.8560
  66   2.0000      -0.289421        -7.8755
  67   0.0000       0.031629         0.8607
  68   0.0000       0.071678         1.9505
  69   0.0000       0.104001         2.8300
  70   0.0000       0.119292         3.2461
  71   0.0000       0.128850         3.5062

MULLIKEN ATOMIC CHARGES
-----------------------
   0 S :    0.134033
   1 C :   -0.135798
   2 C :   -0.080996
   3 C :    0.031603
   4 C :   -0.175042
   5 H :    0.010141
   6 C :    0.075762
   7 H :    0.037428
   8 H :    0.007857
   9 C :   -0.057812
  10 H :    0.024664
  11 H :    0.025810
  12 C :   -0.067660
  13 H :    0.056419
  14 H :    0.034698
  15 H :    0.018247
  16 S :    0.134570
  17 C :   -0.047982
  18 C :   -0.083330
  19 C :   -0.004183
  20 C :   -0.184716
  21 H :    0.022353
  22 C :    0.053961
  23 H :    0.020259
  24 H :    0.020238
  25 C :   -0.124287
  26 H :    0.047747
  27 H :    0.020550
  28 C :    0.047722
  29 H :   -0.000242
  30 H :    0.030869
  31 H :    0.029914
  32 H :    0.047059
  33 H :    0.030145
Sum of atomic charges:   -0.0000000

LOEWDIN ATOMIC CHARGES
----------------------
   0 S :    0.415814
   1 C :   -0.216221
   2 C :   -0.052748
   3 C :   -0.053653
   4 C :   -0.196300
   5 H :    0.025561
   6 C :   -0.031117
   7 H :    0.037759
   8 H :    0.022197
   9 C :   -0.040462
  10 H :    0.020655
  11 H :    0.029670
  12 C :   -0.069121
  13 H :    0.027386
  14 H :    0.037141
  15 H :    0.017472
  16 S :    0.439826
  17 C :   -0.209127
  18 C :   -0.077660
  19 C :   -0.050868
  20 C :   -0.199571
  21 H :    0.034709
  22 C :   -0.032688
  23 H :    0.030978
  24 H :    0.020159
  25 C :   -0.041384
  26 H :    0.028946
  27 H :    0.015482
  28 C :   -0.051971
  29 H :    0.018498
  30 H :    0.025897
  31 H :    0.027785
  32 H :    0.020862
  33 H :    0.026097

  Mayer bond orders larger than 0.100000
B(  0-S ,  1-C ) :   1.1378 B(  0-S ,  4-C ) :   1.1495 B(  1-C ,  2-C ) :   1.6060
B(  1-C , 32-H ) :   0.9642 B(  2-C ,  3-C ) :   1.2455 B(  2-C ,  6-C ) :   1.0104
B(  3-C ,  4-C ) :   1.5636 B(  3-C ,  5-H ) :   0.9962 B(  4-C , 20-C ) :   1.0397
B(  6-C ,  7-H ) :   0.9335 B(  6-C ,  8-H ) :   0.9418 B(  6-C ,  9-C ) :   1.0897
B(  9-C , 10-H ) :   0.9519 B(  9-C , 11-H ) :   0.9504 B(  9-C , 12-C ) :   1.0776
B( 12-C , 13-H ) :   0.9704 B( 12-C , 14-H ) :   0.9715 B( 12-C , 15-H ) :   0.9738
B( 16-S , 17-C ) :   1.1589 B( 16-S , 20-C ) :   1.1483 B( 17-C , 18-C ) :   1.6355
B( 17-C , 33-H ) :   0.9602 B( 18-C , 19-C ) :   1.2356 B( 18-C , 21-H ) :   0.9862
B( 19-C , 20-C ) :   1.5772 B( 19-C , 22-C ) :   1.0382 B( 22-C , 23-H ) :   0.9369
B( 22-C , 24-H ) :   0.9292 B( 22-C , 25-C ) :   1.0647 B( 25-C , 26-H ) :   0.9545
B( 25-C , 27-H ) :   0.9626 B( 25-C , 28-C ) :   1.0686 B( 28-C , 29-H ) :   0.9707
B( 28-C , 30-H ) :   0.9712 B( 28-C , 31-H ) :   0.9715

Dispersion correction           -0.014988289
FINAL SINGLE POINT ENERGY     -1339.857328858155

DIPOLE MOMENT
-------------
                                X             Y             Z
Electronic contribution:     24.52255      -2.20848      -6.44332
Nuclear contribution   :    -24.97188       2.05926       6.39463
                        -----------------------------------------
Total Dipole Moment    :     -0.44933      -0.14922      -0.04869
                        -----------------------------------------
Magnitude (a.u.)       :      0.47596
Magnitude (Debye)      :      1.20979

Rotational constants in cm-1:     0.019589     0.009006     0.007371
Rotational constants in MHz :   587.274951   269.983889   220.983851

                             ****ORCA TERMINATED NORMALLY****
TOTAL RUN TIME: 0 days 0 hours 0 minutes 36 seconds 253 msec
