                         Program Version 4.2.1 -  RELEASE  -
|  1> ! wB97X-D3 SP def2-SVP
|  2> %pal
|  3> nprocs 16
|  4> end
|  5>
|  6> * xyz 0 1
|  7> S 	 -4.60329 	 33.1034 	 53.0196
|  8> C 	 -3.15836 	 33.0832 	 53.9831
|  9> C 	 -1.98548 	 32.844 	 53.2531
| 10> C 	 -2.38341 	 32.7137 	 51.9035
| 11> C 	 -3.69704 	 32.9523 	 51.5517
| 12> H 	 -1.71794 	 32.5631 	 51.1369
| 13> C 	 -0.661256 	 32.4825 	 53.8853
| 14> H 	 -0.706179 	 31.4524 	 54.3648
| 15> H 	 -0.501453 	 33.1181 	 54.7167
| 16> C 	 0.557833 	 32.6357 	 53.0145
| 17> H 	 0.450101 	 31.9115 	 52.1692
| 18> H 	 0.747214 	 33.6182 	 52.5877
| 19> C 	 1.79021 	 32.1421 	 53.7555
| 20> H 	 2.47053 	 31.5955 	 53.1029
| 21> H 	 2.3543 	 32.915 	 54.1424
| 22> H 	 1.58186 	 31.3959 	 54.4566
| 23> S 	 -5.62743 	 31.7313 	 50.0218
| 24> C 	 -5.79738 	 32.2451 	 48.3678
| 25> C 	 -4.78356 	 33.107 	 47.9202
| 26> C 	 -3.8866 	 33.4549 	 48.9891
| 27> C 	 -4.21985 	 32.86 	 50.2288
| 28> H 	 -4.70957 	 33.418 	 46.9033
| 29> C 	 -2.76382 	 34.4077 	 48.8459
| 30> H 	 -1.92628 	 34.1276 	 49.5439
| 31> H 	 -3.00517 	 35.3694 	 49.2918
| 32> C 	 -2.07555 	 34.5419 	 47.4705
| 33> H 	 -2.81267 	 34.7146 	 46.6707
| 34> H 	 -1.75907 	 33.5628 	 47.1453
| 35> C 	 -0.907789 	 35.5211 	 47.5389
| 36> H 	 -0.725681 	 35.7187 	 46.4956
| 37> H 	 0.0922769 	 35.1299 	 47.9567
| 38> H 	 -1.09075 	 36.5077 	 48.0048
| 39> H 	 -3.22949 	 33.1143 	 55.0838
| 40> H 	 -6.60977 	 31.852 	 47.7667
| 41> *
| 42>
| 43>                          ****END OF INPUT****

CARTESIAN COORDINATES (ANGSTROEM)
---------------------------------
  S     -4.603290   33.103400   53.019600
  C     -3.158360   33.083200   53.983100
  C     -1.985480   32.844000   53.253100
  C     -2.383410   32.713700   51.903500
  C     -3.697040   32.952300   51.551700
  H     -1.717940   32.563100   51.136900
  C     -0.661256   32.482500   53.885300
  H     -0.706179   31.452400   54.364800
  H     -0.501453   33.118100   54.716700
  C      0.557833   32.635700   53.014500
  H      0.450101   31.911500   52.169200
  H      0.747214   33.618200   52.587700
  C      1.790210   32.142100   53.755500
  H      2.470530   31.595500   53.102900
  H      2.354300   32.915000   54.142400
  H      1.581860   31.395900   54.456600
  S     -5.627430   31.731300   50.021800
  C     -5.797380   32.245100   48.367800
  C     -4.783560   33.107000   47.920200
  C     -3.886600   33.454900   48.989100
  C     -4.219850   32.860000   50.228800
  H     -4.709570   33.418000   46.903300
  C     -2.763820   34.407700   48.845900
  H     -1.926280   34.127600   49.543900
  H     -3.005170   35.369400   49.291800
  C     -2.075550   34.541900   47.470500
  H     -2.812670   34.714600   46.670700
  H     -1.759070   33.562800   47.145300
  C     -0.907789   35.521100   47.538900
  H     -0.725681   35.718700   46.495600
  H      0.092277   35.129900   47.956700
  H     -1.090750   36.507700   48.004800
  H     -3.229490   33.114300   55.083800
  H     -6.609770   31.852000   47.766700

 Total Charge           Charge          ....    0
 Multiplicity           Mult            ....    1
 Number of Electrons    NEL             ....  134
 Basis Dimension        Dim             ....  322

ORBITAL ENERGIES
----------------

  NO   OCC          E(Eh)            E(eV)
   0   2.0000     -88.966328     -2420.8968
   1   2.0000     -88.964022     -2420.8341
   2   2.0000     -10.327253      -281.0188
   3   2.0000     -10.321384      -280.8591
   4   2.0000     -10.319824      -280.8167
   5   2.0000     -10.314875      -280.6820
   6   2.0000     -10.306599      -280.4568
   7   2.0000     -10.300449      -280.2895
   8   2.0000     -10.296822      -280.1908
   9   2.0000     -10.295145      -280.1451
  10   2.0000     -10.290349      -280.0146
  11   2.0000     -10.288032      -279.9516
  12   2.0000     -10.287283      -279.9312
  13   2.0000     -10.286584      -279.9122
  14   2.0000     -10.282569      -279.8029
  15   2.0000     -10.266256      -279.3590
  16   2.0000      -8.081426      -219.9068
  17   2.0000      -8.078097      -219.8162
  18   2.0000      -6.039816      -164.3517
  19   2.0000      -6.036463      -164.2605
  20   2.0000      -6.035839      -164.2435
  21   2.0000      -6.032766      -164.1599
  22   2.0000      -6.032329      -164.1480
  23   2.0000      -6.028996      -164.0573
  24   2.0000      -1.005263       -27.3546
  25   2.0000      -0.978078       -26.6149
  26   2.0000      -0.919377       -25.0175
  27   2.0000      -0.909019       -24.7357
  28   2.0000      -0.871746       -23.7214
  29   2.0000      -0.854622       -23.2555
  30   2.0000      -0.847099       -23.0507
  31   2.0000      -0.811865       -22.0920
  32   2.0000      -0.785496       -21.3744
  33   2.0000      -0.768813       -20.9205
  34   2.0000      -0.714391       -19.4396
  35   2.0000      -0.705340       -19.1933
  36   2.0000      -0.689397       -18.7594
  37   2.0000      -0.655180       -17.8284
  38   2.0000      -0.644122       -17.5274
  39   2.0000      -0.624655       -16.9977
  40   2.0000      -0.602401       -16.3922
  41   2.0000      -0.579659       -15.7733
  42   2.0000      -0.564750       -15.3676
  43   2.0000      -0.555536       -15.1169
  44   2.0000      -0.529280       -14.4024
  45   2.0000      -0.523758       -14.2522
  46   2.0000      -0.515666       -14.0320
  47   2.0000      -0.506658       -13.7869
  48   2.0000      -0.503520       -13.7015
  49   2.0000      -0.495989       -13.4965
  50   2.0000      -0.490574       -13.3492
  51   2.0000      -0.488875       -13.3030
  52   2.0000      -0.473466       -12.8837
  53   2.0000      -0.461907       -12.5691
  54   2.0000      -0.459164       -12.4945
  55   2.0000      -0.456065       -12.4102
  56   2.0000      -0.447658       -12.1814
  57   2.0000      -0.442178       -12.0323
  58   2.0000      -0.440583       -11.9889
  59   2.0000      -0.425138       -11.5686
  60   2.0000      -0.420060       -11.4304
  61   2.0000      -0.409141       -11.1333
  62   2.0000      -0.405714       -11.0400
  63   2.0000      -0.342256        -9.3133
  64   2.0000      -0.330209        -8.9854
  65   2.0000      -0.329764        -8.9733
  66   2.0000      -0.282680        -7.6921
  67   0.0000       0.025021         0.6808
  68   0.0000       0.066673         1.8143
  69   0.0000       0.108498         2.9524
  70   0.0000       0.123932         3.3724
  71   0.0000       0.132790         3.6134

MULLIKEN ATOMIC CHARGES
-----------------------
   0 S :    0.126224
   1 C :   -0.145674
   2 C :   -0.045319
   3 C :    0.029652
   4 C :   -0.153432
   5 H :   -0.023977
   6 C :    0.063943
   7 H :    0.054730
   8 H :    0.014284
   9 C :   -0.111006
  10 H :    0.035434
  11 H :    0.037471
  12 C :    0.012001
  13 H :    0.015498
  14 H :    0.022500
  15 H :    0.007344
  16 S :    0.094309
  17 C :   -0.091338
  18 C :   -0.032920
  19 C :    0.000037
  20 C :   -0.163945
  21 H :    0.013432
  22 C :    0.039849
  23 H :    0.018487
  24 H :    0.036059
  25 C :   -0.081292
  26 H :    0.028652
  27 H :    0.020587
  28 C :   -0.053396
  29 H :    0.025506
  30 H :    0.049935
  31 H :    0.040893
  32 H :    0.054855
  33 H :    0.060617
Sum of atomic charges:   -0.0000000

LOEWDIN ATOMIC CHARGES
----------------------
   0 S :    0.425295
   1 C :   -0.196759
   2 C :   -0.066720
   3 C :   -0.051114
   4 C :   -0.215959
   5 H :    0.010146
   6 C :   -0.034068
   7 H :    0.045111
   8 H :    0.026583
   9 C :   -0.043102
  10 H :    0.026886
  11 H :    0.027165
  12 C :   -0.055542
  13 H :    0.029246
  14 H :    0.016436
  15 H :    0.018320
  16 S :    0.383169
  17 C :   -0.179100
  18 C :   -0.072427
  19 C :   -0.047880
  20 C :   -0.179889
  21 H :    0.028279
  22 C :   -0.044804
  23 H :    0.036482
  24 H :    0.034753
  25 C :   -0.043344
  26 H :    0.021672
  27 H :    0.025362
  28 C :   -0.071828
  29 H :    0.027148
  30 H :    0.036772
  31 H :    0.028984
  32 H :    0.028404
  33 H :    0.026324

  Mayer bond orders larger than 0.100000
B(  0-S ,  1-C ) :   1.1767 B(  0-S ,  4-C ) :   1.1421 B(  1-C ,  2-C ) :   1.5537
B(  1-C ,  4-C ) :   0.1011 B(  1-C , 32-H ) :   0.9660 B(  2-C ,  3-C ) :   1.2861
B(  2-C ,  6-C ) :   1.0212 B(  3-C ,  4-C ) :   1.5363 B(  3-C ,  5-H ) :   0.9968
B(  4-C , 20-C ) :   1.0907 B(  6-C ,  7-H ) :   0.9342 B(  6-C ,  8-H ) :   0.9335
B(  6-C ,  9-C ) :   1.0777 B(  9-C , 10-H ) :   0.9519 B(  9-C , 11-H ) :   0.9617
B(  9-C , 12-C ) :   1.0843 B( 12-C , 13-H ) :   0.9718 B( 12-C , 14-H ) :   0.9744
B( 12-C , 15-H ) :   0.9680 B( 16-S , 17-C ) :   1.1723 B( 16-S , 20-C ) :   1.1230
B( 17-C , 18-C ) :   1.5838 B( 17-C , 20-C ) :   0.1057 B( 17-C , 33-H ) :   0.9653
B( 18-C , 19-C ) :   1.2401 B( 18-C , 21-H ) :   0.9957 B( 19-C , 20-C ) :   1.5776
B( 19-C , 22-C ) :   1.0515 B( 22-C , 23-H ) :   0.9313 B( 22-C , 24-H ) :   0.9225
B( 22-C , 25-C ) :   1.0591 B( 25-C , 26-H ) :   0.9533 B( 25-C , 27-H ) :   0.9517
B( 25-C , 28-C ) :   1.0776 B( 28-C , 29-H ) :   0.9716 B( 28-C , 30-H ) :   0.9727
B( 28-C , 31-H ) :   0.9756

Dispersion correction           -0.013304233
FINAL SINGLE POINT ENERGY     -1339.865163299203

DIPOLE MOMENT
-------------
                                X             Y             Z
Electronic contribution:    -30.67976      -7.10329       5.06737
Nuclear contribution   :     31.39704       7.16718      -5.23974
                        -----------------------------------------
Total Dipole Moment    :      0.71728       0.06390      -0.17237
                        -----------------------------------------
Magnitude (a.u.)       :      0.74046
Magnitude (Debye)      :      1.88210

Rotational constants in cm-1:     0.015704     0.008985     0.006303
Rotational constants in MHz :   470.801196   269.362254   188.952579

                             ****ORCA TERMINATED NORMALLY****
TOTAL RUN TIME: 0 days 0 hours 0 minutes 34 seconds 227 msec
