                         Program Version 4.2.1 -  RELEASE  -
|  1> ! wB97X-D3 SP def2-SVP
|  2> %pal
|  3> nprocs 16
|  4> end
|  5>
|  6> * xyz 0 1
|  7> S 	 -34.5301 	 53.6235 	 107.038
|  8> C 	 -35.9829 	 53.8504 	 108.066
|  9> C 	 -37.0352 	 53.1384 	 107.496
| 10> C 	 -36.663 	 52.3846 	 106.333
| 11> C 	 -35.3718 	 52.5015 	 105.986
| 12> H 	 -37.3862 	 51.6896 	 105.786
| 13> C 	 -38.4251 	 53.1375 	 108.008
| 14> H 	 -39.023 	 53.6444 	 107.248
| 15> H 	 -38.5828 	 53.7585 	 108.884
| 16> C 	 -38.9589 	 51.7711 	 108.426
| 17> H 	 -38.7088 	 50.9489 	 107.709
| 18> H 	 -38.4895 	 51.4192 	 109.354
| 19> C 	 -40.5043 	 51.7766 	 108.75
| 20> H 	 -40.8491 	 50.7815 	 109.022
| 21> H 	 -40.7757 	 52.4961 	 109.539
| 22> H 	 -40.9913 	 52.1052 	 107.793
| 23> S 	 -33.285 	 51.2055 	 104.925
| 24> C 	 -33.2572 	 50.8866 	 103.223
| 25> C 	 -34.3614 	 51.3981 	 102.581
| 26> C 	 -35.2501 	 52.0829 	 103.423
| 27> C 	 -34.7638 	 52.0078 	 104.745
| 28> H 	 -34.3478 	 51.2123 	 101.495
| 29> C 	 -36.342 	 53.0399 	 103.051
| 30> H 	 -35.9674 	 53.5476 	 102.187
| 31> H 	 -36.4379 	 53.8068 	 103.837
| 32> C 	 -37.7211 	 52.3077 	 102.901
| 33> H 	 -37.999 	 51.8616 	 103.882
| 34> H 	 -37.6542 	 51.4034 	 102.345
| 35> C 	 -38.7636 	 53.2771 	 102.383
| 36> H 	 -39.7813 	 52.8549 	 102.198
| 37> H 	 -38.4732 	 53.6491 	 101.428
| 38> H 	 -38.8619 	 54.1723 	 103.034
| 39> H 	 -36.0566 	 54.7094 	 108.704
| 40> H 	 -32.4029 	 50.3094 	 102.823
| 41> *
| 42>
| 43>                          ****END OF INPUT****

CARTESIAN COORDINATES (ANGSTROEM)
---------------------------------
  S    -34.530100   53.623500  107.038000
  C    -35.982900   53.850400  108.066000
  C    -37.035200   53.138400  107.496000
  C    -36.663000   52.384600  106.333000
  C    -35.371800   52.501500  105.986000
  H    -37.386200   51.689600  105.786000
  C    -38.425100   53.137500  108.008000
  H    -39.023000   53.644400  107.248000
  H    -38.582800   53.758500  108.884000
  C    -38.958900   51.771100  108.426000
  H    -38.708800   50.948900  107.709000
  H    -38.489500   51.419200  109.354000
  C    -40.504300   51.776600  108.750000
  H    -40.849100   50.781500  109.022000
  H    -40.775700   52.496100  109.539000
  H    -40.991300   52.105200  107.793000
  S    -33.285000   51.205500  104.925000
  C    -33.257200   50.886600  103.223000
  C    -34.361400   51.398100  102.581000
  C    -35.250100   52.082900  103.423000
  C    -34.763800   52.007800  104.745000
  H    -34.347800   51.212300  101.495000
  C    -36.342000   53.039900  103.051000
  H    -35.967400   53.547600  102.187000
  H    -36.437900   53.806800  103.837000
  C    -37.721100   52.307700  102.901000
  H    -37.999000   51.861600  103.882000
  H    -37.654200   51.403400  102.345000
  C    -38.763600   53.277100  102.383000
  H    -39.781300   52.854900  102.198000
  H    -38.473200   53.649100  101.428000
  H    -38.861900   54.172300  103.034000
  H    -36.056600   54.709400  108.704000
  H    -32.402900   50.309400  102.823000

 Total Charge           Charge          ....    0
 Multiplicity           Mult            ....    1
 Number of Electrons    NEL             ....  134
 Basis Dimension        Dim             ....  322

ORBITAL ENERGIES
----------------

  NO   OCC          E(Eh)            E(eV)
   0   2.0000     -88.964699     -2420.8525
   1   2.0000     -88.961313     -2420.7604
   2   2.0000     -10.326201      -280.9902
   3   2.0000     -10.320926      -280.8467
   4   2.0000     -10.315448      -280.6976
   5   2.0000     -10.314250      -280.6650
   6   2.0000     -10.303103      -280.3617
   7   2.0000     -10.302310      -280.3401
   8   2.0000     -10.295395      -280.1519
   9   2.0000     -10.294792      -280.1355
  10   2.0000     -10.291832      -280.0550
  11   2.0000     -10.291746      -280.0526
  12   2.0000     -10.290151      -280.0092
  13   2.0000     -10.287579      -279.9393
  14   2.0000     -10.285918      -279.8941
  15   2.0000     -10.278958      -279.7047
  16   2.0000      -8.081125      -219.8986
  17   2.0000      -8.075735      -219.7519
  18   2.0000      -6.039153      -164.3337
  19   2.0000      -6.035420      -164.2321
  20   2.0000      -6.034364      -164.2034
  21   2.0000      -6.032274      -164.1465
  22   2.0000      -6.030259      -164.0917
  23   2.0000      -6.026408      -163.9869
  24   2.0000      -1.013084       -27.5674
  25   2.0000      -0.986186       -26.8355
  26   2.0000      -0.912026       -24.8175
  27   2.0000      -0.910530       -24.7768
  28   2.0000      -0.868266       -23.6267
  29   2.0000      -0.856036       -23.2939
  30   2.0000      -0.841826       -22.9072
  31   2.0000      -0.817289       -22.2396
  32   2.0000      -0.780583       -21.2407
  33   2.0000      -0.767390       -20.8817
  34   2.0000      -0.709602       -19.3093
  35   2.0000      -0.701787       -19.0966
  36   2.0000      -0.693066       -18.8593
  37   2.0000      -0.660971       -17.9859
  38   2.0000      -0.641269       -17.4498
  39   2.0000      -0.623122       -16.9560
  40   2.0000      -0.599239       -16.3061
  41   2.0000      -0.564130       -15.3507
  42   2.0000      -0.559077       -15.2132
  43   2.0000      -0.552965       -15.0469
  44   2.0000      -0.530641       -14.4395
  45   2.0000      -0.525269       -14.2933
  46   2.0000      -0.518459       -14.1080
  47   2.0000      -0.511888       -13.9292
  48   2.0000      -0.505486       -13.7550
  49   2.0000      -0.502160       -13.6645
  50   2.0000      -0.490785       -13.3549
  51   2.0000      -0.477443       -12.9919
  52   2.0000      -0.467455       -12.7201
  53   2.0000      -0.466215       -12.6863
  54   2.0000      -0.459282       -12.4977
  55   2.0000      -0.451361       -12.2822
  56   2.0000      -0.446493       -12.1497
  57   2.0000      -0.442303       -12.0357
  58   2.0000      -0.436067       -11.8660
  59   2.0000      -0.426716       -11.6115
  60   2.0000      -0.420487       -11.4420
  61   2.0000      -0.414226       -11.2717
  62   2.0000      -0.405761       -11.0413
  63   2.0000      -0.348569        -9.4850
  64   2.0000      -0.332160        -9.0385
  65   2.0000      -0.329066        -8.9543
  66   2.0000      -0.292261        -7.9528
  67   0.0000       0.033335         0.9071
  68   0.0000       0.069644         1.8951
  69   0.0000       0.111933         3.0458
  70   0.0000       0.120268         3.2727
  71   0.0000       0.127841         3.4787

MULLIKEN ATOMIC CHARGES
-----------------------
   0 S :    0.079000
   1 C :   -0.110827
   2 C :   -0.095010
   3 C :   -0.018891
   4 C :   -0.099633
   5 H :    0.050545
   6 C :    0.082801
   7 H :    0.032203
   8 H :    0.009790
   9 C :   -0.111485
  10 H :    0.036376
  11 H :    0.031877
  12 C :   -0.064067
  13 H :    0.040635
  14 H :    0.038585
  15 H :    0.034077
  16 S :    0.123747
  17 C :   -0.123755
  18 C :   -0.051947
  19 C :    0.006417
  20 C :   -0.196089
  21 H :    0.027413
  22 C :    0.058344
  23 H :    0.025286
  24 H :    0.041744
  25 C :   -0.057954
  26 H :    0.005006
  27 H :    0.019058
  28 C :   -0.020607
  29 H :    0.036509
  30 H :    0.015770
  31 H :    0.031321
  32 H :    0.056839
  33 H :    0.066922
Sum of atomic charges:   -0.0000000

LOEWDIN ATOMIC CHARGES
----------------------
   0 S :    0.374673
   1 C :   -0.187332
   2 C :   -0.056062
   3 C :   -0.076472
   4 C :   -0.189648
   5 H :    0.043018
   6 C :   -0.038480
   7 H :    0.033676
   8 H :    0.030363
   9 C :   -0.043451
  10 H :    0.024243
  11 H :    0.025924
  12 C :   -0.067084
  13 H :    0.025653
  14 H :    0.025453
  15 H :    0.027151
  16 S :    0.443184
  17 C :   -0.199722
  18 C :   -0.075577
  19 C :   -0.058355
  20 C :   -0.214533
  21 H :    0.039352
  22 C :   -0.022216
  23 H :    0.029459
  24 H :    0.036879
  25 C :   -0.039043
  26 H :    0.022150
  27 H :    0.019200
  28 C :   -0.068504
  29 H :    0.029189
  30 H :    0.019252
  31 H :    0.028885
  32 H :    0.027013
  33 H :    0.031758

  Mayer bond orders larger than 0.100000
B(  0-S ,  1-C ) :   1.1082 B(  0-S ,  4-C ) :   1.1509 B(  1-C ,  2-C ) :   1.6290
B(  1-C , 32-H ) :   0.9690 B(  2-C ,  3-C ) :   1.2155 B(  2-C ,  6-C ) :   1.0384
B(  3-C ,  4-C ) :   1.6077 B(  3-C ,  5-H ) :   0.9762 B(  4-C , 20-C ) :   1.0012
B(  6-C ,  7-H ) :   0.9348 B(  6-C ,  8-H ) :   0.9381 B(  6-C ,  9-C ) :   1.0490
B(  9-C , 10-H ) :   0.9622 B(  9-C , 11-H ) :   0.9540 B(  9-C , 12-C ) :   1.0726
B( 12-C , 13-H ) :   0.9758 B( 12-C , 14-H ) :   0.9762 B( 12-C , 15-H ) :   0.9785
B( 16-S , 17-C ) :   1.1666 B( 16-S , 20-C ) :   1.1931 B( 17-C , 18-C ) :   1.5854
B( 17-C , 20-C ) :   0.1053 B( 17-C , 33-H ) :   0.9679 B( 18-C , 19-C ) :   1.2444
B( 18-C , 21-H ) :   0.9940 B( 19-C , 20-C ) :   1.5463 B( 19-C , 22-C ) :   1.0306
B( 22-C , 23-H ) :   0.9448 B( 22-C , 24-H ) :   0.9358 B( 22-C , 25-C ) :   1.0410
B( 25-C , 26-H ) :   0.9474 B( 25-C , 27-H ) :   0.9577 B( 25-C , 28-C ) :   1.0821
B( 28-C , 29-H ) :   0.9727 B( 28-C , 30-H ) :   0.9726 B( 28-C , 31-H ) :   0.9710

Dispersion correction           -0.014523729
FINAL SINGLE POINT ENERGY     -1339.885603178257

DIPOLE MOMENT
-------------
                                X             Y             Z
Electronic contribution:     31.25168      -0.91729       1.99592
Nuclear contribution   :    -31.83108       0.98739      -2.29622
                        -----------------------------------------
Total Dipole Moment    :     -0.57940       0.07009      -0.30030
                        -----------------------------------------
Magnitude (a.u.)       :      0.65636
Magnitude (Debye)      :      1.66832

Rotational constants in cm-1:     0.017351     0.009267     0.007037
Rotational constants in MHz :   520.161437   277.831653   210.959382

                             ****ORCA TERMINATED NORMALLY****
TOTAL RUN TIME: 0 days 0 hours 0 minutes 29 seconds 776 msec
