                         Program Version 4.2.1 -  RELEASE  -
|  1> ! wB97X-D3 SP def2-SVP
|  2> %pal
|  3> nprocs 16
|  4> end
|  5>
|  6> * xyz 0 1
|  7> S 	 54.287 	 22.8916 	 93.0225
|  8> C 	 52.5489 	 22.8723 	 93.1884
|  9> C 	 52.0262 	 21.6421 	 92.9286
| 10> C 	 52.9875 	 20.7774 	 92.3301
| 11> C 	 54.2013 	 21.3765 	 92.2123
| 12> H 	 52.83 	 19.7936 	 91.9801
| 13> C 	 50.5539 	 21.3106 	 93.1652
| 14> H 	 50.0405 	 21.6998 	 92.2777
| 15> H 	 50.1755 	 21.6908 	 94.1741
| 16> C 	 50.1622 	 19.7877 	 92.9771
| 17> H 	 49.0552 	 19.7764 	 92.7493
| 18> H 	 50.5961 	 19.4286 	 92.0001
| 19> C 	 50.63 	 18.8675 	 94.096
| 20> H 	 50.1645 	 17.9067 	 93.9777
| 21> H 	 51.6555 	 18.7422 	 93.9116
| 22> H 	 50.4455 	 19.1861 	 95.1764
| 23> S 	 56.3191 	 21.7362 	 90.3978
| 24> C 	 57.1632 	 20.3643 	 89.6877
| 25> C 	 56.8396 	 19.2452 	 90.4417
| 26> C 	 55.7477 	 19.4153 	 91.3699
| 27> C 	 55.3659 	 20.7499 	 91.5253
| 28> H 	 57.2096 	 18.2401 	 90.1479
| 29> C 	 55.3084 	 18.2103 	 92.1855
| 30> H 	 55.9237 	 17.367 	 91.9561
| 31> H 	 54.3206 	 17.8866 	 91.8101
| 32> C 	 55.0863 	 18.4509 	 93.7339
| 33> H 	 55.0541 	 17.5226 	 94.2995
| 34> H 	 54.2304 	 18.9943 	 94.0503
| 35> C 	 56.218 	 19.3079 	 94.3657
| 36> H 	 57.2748 	 18.9363 	 94.3677
| 37> H 	 55.9259 	 19.446 	 95.3611
| 38> H 	 56.2464 	 20.2862 	 93.8591
| 39> H 	 52.0989 	 23.6829 	 93.745
| 40> H 	 57.8639 	 20.2876 	 88.7964
| 41> *
| 42>
| 43>                          ****END OF INPUT****

CARTESIAN COORDINATES (ANGSTROEM)
---------------------------------
  S     54.287000   22.891600   93.022500
  C     52.548900   22.872300   93.188400
  C     52.026200   21.642100   92.928600
  C     52.987500   20.777400   92.330100
  C     54.201300   21.376500   92.212300
  H     52.830000   19.793600   91.980100
  C     50.553900   21.310600   93.165200
  H     50.040500   21.699800   92.277700
  H     50.175500   21.690800   94.174100
  C     50.162200   19.787700   92.977100
  H     49.055200   19.776400   92.749300
  H     50.596100   19.428600   92.000100
  C     50.630000   18.867500   94.096000
  H     50.164500   17.906700   93.977700
  H     51.655500   18.742200   93.911600
  H     50.445500   19.186100   95.176400
  S     56.319100   21.736200   90.397800
  C     57.163200   20.364300   89.687700
  C     56.839600   19.245200   90.441700
  C     55.747700   19.415300   91.369900
  C     55.365900   20.749900   91.525300
  H     57.209600   18.240100   90.147900
  C     55.308400   18.210300   92.185500
  H     55.923700   17.367000   91.956100
  H     54.320600   17.886600   91.810100
  C     55.086300   18.450900   93.733900
  H     55.054100   17.522600   94.299500
  H     54.230400   18.994300   94.050300
  C     56.218000   19.307900   94.365700
  H     57.274800   18.936300   94.367700
  H     55.925900   19.446000   95.361100
  H     56.246400   20.286200   93.859100
  H     52.098900   23.682900   93.745000
  H     57.863900   20.287600   88.796400

 Total Charge           Charge          ....    0
 Multiplicity           Mult            ....    1
 Number of Electrons    NEL             ....  134
 Basis Dimension        Dim             ....  322

ORBITAL ENERGIES
----------------

  NO   OCC          E(Eh)            E(eV)
   0   2.0000     -88.966570     -2420.9034
   1   2.0000     -88.965629     -2420.8778
   2   2.0000     -10.332565      -281.1634
   3   2.0000     -10.330160      -281.0979
   4   2.0000     -10.325704      -280.9767
   5   2.0000     -10.308559      -280.5102
   6   2.0000     -10.306494      -280.4540
   7   2.0000     -10.302631      -280.3488
   8   2.0000     -10.302547      -280.3466
   9   2.0000     -10.299259      -280.2571
  10   2.0000     -10.297007      -280.1958
  11   2.0000     -10.296809      -280.1904
  12   2.0000     -10.290689      -280.0239
  13   2.0000     -10.284760      -279.8626
  14   2.0000     -10.278823      -279.7010
  15   2.0000     -10.264881      -279.3216
  16   2.0000      -8.082101      -219.9252
  17   2.0000      -8.079575      -219.8564
  18   2.0000      -6.040464      -164.3694
  19   2.0000      -6.038286      -164.3101
  20   2.0000      -6.036736      -164.2679
  21   2.0000      -6.033985      -164.1931
  22   2.0000      -6.032736      -164.1591
  23   2.0000      -6.030337      -164.0938
  24   2.0000      -1.011129       -27.5142
  25   2.0000      -0.984592       -26.7921
  26   2.0000      -0.908467       -24.7206
  27   2.0000      -0.901065       -24.5192
  28   2.0000      -0.868142       -23.6233
  29   2.0000      -0.850730       -23.1495
  30   2.0000      -0.842005       -22.9121
  31   2.0000      -0.816865       -22.2280
  32   2.0000      -0.784079       -21.3359
  33   2.0000      -0.773847       -21.0575
  34   2.0000      -0.706861       -19.2347
  35   2.0000      -0.694306       -18.8930
  36   2.0000      -0.683899       -18.6098
  37   2.0000      -0.658532       -17.9196
  38   2.0000      -0.642346       -17.4791
  39   2.0000      -0.624764       -17.0007
  40   2.0000      -0.585141       -15.9225
  41   2.0000      -0.562883       -15.3168
  42   2.0000      -0.555177       -15.1071
  43   2.0000      -0.548462       -14.9244
  44   2.0000      -0.546155       -14.8616
  45   2.0000      -0.537301       -14.6207
  46   2.0000      -0.518147       -14.0995
  47   2.0000      -0.505222       -13.7478
  48   2.0000      -0.502026       -13.6608
  49   2.0000      -0.497098       -13.5267
  50   2.0000      -0.493364       -13.4251
  51   2.0000      -0.480154       -13.0657
  52   2.0000      -0.475132       -12.9290
  53   2.0000      -0.466411       -12.6917
  54   2.0000      -0.457555       -12.4507
  55   2.0000      -0.450860       -12.2685
  56   2.0000      -0.444790       -12.1033
  57   2.0000      -0.432271       -11.7627
  58   2.0000      -0.428320       -11.6552
  59   2.0000      -0.419346       -11.4110
  60   2.0000      -0.415945       -11.3184
  61   2.0000      -0.414208       -11.2712
  62   2.0000      -0.410401       -11.1676
  63   2.0000      -0.352116        -9.5816
  64   2.0000      -0.332063        -9.0359
  65   2.0000      -0.326697        -8.8899
  66   2.0000      -0.291279        -7.9261
  67   0.0000       0.025775         0.7014
  68   0.0000       0.070224         1.9109
  69   0.0000       0.101864         2.7719
  70   0.0000       0.123822         3.3694
  71   0.0000       0.130607         3.5540

MULLIKEN ATOMIC CHARGES
-----------------------
   0 S :    0.116241
   1 C :   -0.136033
   2 C :   -0.065303
   3 C :    0.020807
   4 C :   -0.120302
   5 H :   -0.017513
   6 C :    0.047463
   7 H :    0.052178
   8 H :    0.054443
   9 C :   -0.145960
  10 H :    0.038106
  11 H :    0.031337
  12 C :   -0.010993
  13 H :    0.029939
  14 H :    0.012976
  15 H :    0.046375
  16 S :    0.098866
  17 C :   -0.115948
  18 C :   -0.043873
  19 C :   -0.076963
  20 C :   -0.142402
  21 H :    0.029090
  22 C :    0.099231
  23 H :    0.012430
  24 H :    0.030550
  25 C :   -0.078845
  26 H :    0.028314
  27 H :    0.041645
  28 C :   -0.059312
  29 H :    0.034925
  30 H :    0.016709
  31 H :    0.037084
  32 H :    0.047591
  33 H :    0.087147
Sum of atomic charges:    0.0000000

LOEWDIN ATOMIC CHARGES
----------------------
   0 S :    0.415415
   1 C :   -0.196049
   2 C :   -0.062385
   3 C :   -0.061744
   4 C :   -0.191621
   5 H :    0.023293
   6 C :   -0.035580
   7 H :    0.042775
   8 H :    0.039517
   9 C :   -0.050040
  10 H :    0.027174
  11 H :    0.027072
  12 C :   -0.069370
  13 H :    0.026028
  14 H :    0.017544
  15 H :    0.034867
  16 S :    0.395989
  17 C :   -0.197742
  18 C :   -0.080887
  19 C :   -0.059828
  20 C :   -0.194563
  21 H :    0.033072
  22 C :   -0.029752
  23 H :    0.028571
  24 H :    0.032939
  25 C :   -0.037535
  26 H :    0.025581
  27 H :    0.021470
  28 C :   -0.067861
  29 H :    0.025601
  30 H :    0.015852
  31 H :    0.024897
  32 H :    0.024354
  33 H :    0.052948

  Mayer bond orders larger than 0.100000
B(  0-S ,  1-C ) :   1.1285 B(  0-S ,  4-C ) :   1.1680 B(  1-C ,  2-C ) :   1.6225
B(  1-C , 32-H ) :   0.9747 B(  2-C ,  3-C ) :   1.2320 B(  2-C ,  6-C ) :   1.0016
B(  3-C ,  4-C ) :   1.5730 B(  3-C ,  5-H ) :   1.0037 B(  4-C , 20-C ) :   1.0180
B(  6-C ,  7-H ) :   0.9368 B(  6-C ,  8-H ) :   0.9483 B(  6-C ,  9-C ) :   1.0807
B(  9-C , 10-H ) :   0.9602 B(  9-C , 11-H ) :   0.9468 B(  9-C , 12-C ) :   1.0675
B( 12-C , 13-H ) :   0.9688 B( 12-C , 14-H ) :   0.9737 B( 12-C , 15-H ) :   0.9759
B( 16-S , 17-C ) :   1.1552 B( 16-S , 20-C ) :   1.1285 B( 17-C , 18-C ) :   1.6059
B( 17-C , 33-H ) :   0.9584 B( 18-C , 19-C ) :   1.2643 B( 18-C , 21-H ) :   0.9736
B( 19-C , 20-C ) :   1.5829 B( 19-C , 22-C ) :   1.0436 B( 22-C , 23-H ) :   0.9372
B( 22-C , 24-H ) :   0.9265 B( 22-C , 25-C ) :   1.0573 B( 25-C , 26-H ) :   0.9580
B( 25-C , 27-H ) :   0.9492 B( 25-C , 28-C ) :   1.0831 B( 28-C , 29-H ) :   0.9773
B( 28-C , 30-H ) :   0.9746 B( 28-C , 31-H ) :   0.9689

Dispersion correction           -0.016470270
FINAL SINGLE POINT ENERGY     -1339.865569800219

DIPOLE MOMENT
-------------
                                X             Y             Z
Electronic contribution:     13.76813      19.33436     -12.40404
Nuclear contribution   :    -14.23150     -19.96814      12.48027
                        -----------------------------------------
Total Dipole Moment    :     -0.46337      -0.63378       0.07623
                        -----------------------------------------
Magnitude (a.u.)       :      0.78880
Magnitude (Debye)      :      2.00497

Rotational constants in cm-1:     0.019883     0.009973     0.008192
Rotational constants in MHz :   596.088328   298.987102   245.583121

                             ****ORCA TERMINATED NORMALLY****
TOTAL RUN TIME: 0 days 0 hours 0 minutes 32 seconds 358 msec
