                         Program Version 4.2.1 -  RELEASE  -
|  1> ! wB97X-D3 SP def2-SVP
|  2> %pal
|  3> nprocs 16
|  4> end
|  5>
|  6> * xyz 0 1
|  7> S 	 -28.9285 	 -3.26188 	 103.309
|  8> C 	 -28.6519 	 -3.23607 	 104.992
|  9> C 	 -28.2696 	 -1.997 	 105.509
| 10> C 	 -28.3383 	 -1.01845 	 104.458
| 11> C 	 -28.6301 	 -1.56991 	 103.185
| 12> H 	 -28.1113 	 0.04299 	 104.525
| 13> C 	 -27.8422 	 -1.56433 	 106.887
| 14> H 	 -28.2767 	 -2.17296 	 107.678
| 15> H 	 -28.3807 	 -0.628465 	 107.144
| 16> C 	 -26.3941 	 -1.27161 	 107.276
| 17> H 	 -25.8686 	 -0.807195 	 106.445
| 18> H 	 -26.4275 	 -0.676852 	 108.198
| 19> C 	 -25.6583 	 -2.59289 	 107.657
| 20> H 	 -25.8303 	 -3.27445 	 106.834
| 21> H 	 -24.5879 	 -2.61859 	 107.602
| 22> H 	 -26.1638 	 -3.09778 	 108.543
| 23> S 	 -27.5161 	 0.34082 	 101.541
| 24> C 	 -28.1669 	 0.64147 	 99.9629
| 25> C 	 -29.2905 	 -0.139952 	 99.7334
| 26> C 	 -29.7253 	 -0.856623 	 100.925
| 27> C 	 -28.8167 	 -0.756849 	 101.975
| 28> H 	 -29.6721 	 -0.0692756 	 98.6873
| 29> C 	 -30.7805 	 -1.87204 	 100.794
| 30> H 	 -31.7426 	 -1.36565 	 100.582
| 31> H 	 -30.8618 	 -2.33119 	 101.794
| 32> C 	 -30.6021 	 -2.89134 	 99.7482
| 33> H 	 -29.6705 	 -3.38556 	 99.9582
| 34> H 	 -30.3888 	 -2.39729 	 98.8504
| 35> C 	 -31.7382 	 -3.94434 	 99.6535
| 36> H 	 -31.6052 	 -4.44197 	 100.597
| 37> H 	 -31.4608 	 -4.72473 	 98.8806
| 38> H 	 -32.696 	 -3.57248 	 99.4693
| 39> H 	 -28.6609 	 -4.19472 	 105.523
| 40> H 	 -27.6483 	 1.19061 	 99.2106
| 41> *
| 42>
| 43>                          ****END OF INPUT****

CARTESIAN COORDINATES (ANGSTROEM)
---------------------------------
  S    -28.928500   -3.261880  103.309000
  C    -28.651900   -3.236070  104.992000
  C    -28.269600   -1.997000  105.509000
  C    -28.338300   -1.018450  104.458000
  C    -28.630100   -1.569910  103.185000
  H    -28.111300    0.042990  104.525000
  C    -27.842200   -1.564330  106.887000
  H    -28.276700   -2.172960  107.678000
  H    -28.380700   -0.628465  107.144000
  C    -26.394100   -1.271610  107.276000
  H    -25.868600   -0.807195  106.445000
  H    -26.427500   -0.676852  108.198000
  C    -25.658300   -2.592890  107.657000
  H    -25.830300   -3.274450  106.834000
  H    -24.587900   -2.618590  107.602000
  H    -26.163800   -3.097780  108.543000
  S    -27.516100    0.340820  101.541000
  C    -28.166900    0.641470   99.962900
  C    -29.290500   -0.139952   99.733400
  C    -29.725300   -0.856623  100.925000
  C    -28.816700   -0.756849  101.975000
  H    -29.672100   -0.069276   98.687300
  C    -30.780500   -1.872040  100.794000
  H    -31.742600   -1.365650  100.582000
  H    -30.861800   -2.331190  101.794000
  C    -30.602100   -2.891340   99.748200
  H    -29.670500   -3.385560   99.958200
  H    -30.388800   -2.397290   98.850400
  C    -31.738200   -3.944340   99.653500
  H    -31.605200   -4.441970  100.597000
  H    -31.460800   -4.724730   98.880600
  H    -32.696000   -3.572480   99.469300
  H    -28.660900   -4.194720  105.523000
  H    -27.648300    1.190610   99.210600

 Total Charge           Charge          ....    0
 Multiplicity           Mult            ....    1
 Number of Electrons    NEL             ....  134
 Basis Dimension        Dim             ....  322

ORBITAL ENERGIES
----------------

  NO   OCC          E(Eh)            E(eV)
   0   2.0000     -88.975046     -2421.1341
   1   2.0000     -88.963298     -2420.8144
   2   2.0000     -10.331717      -281.1403
   3   2.0000     -10.328931      -281.0645
   4   2.0000     -10.318558      -280.7822
   5   2.0000     -10.314987      -280.6851
   6   2.0000     -10.309428      -280.5338
   7   2.0000     -10.303396      -280.3697
   8   2.0000     -10.298931      -280.2482
   9   2.0000     -10.297598      -280.2119
  10   2.0000     -10.293702      -280.1059
  11   2.0000     -10.291609      -280.0489
  12   2.0000     -10.280407      -279.7441
  13   2.0000     -10.277363      -279.6613
  14   2.0000     -10.276735      -279.6442
  15   2.0000     -10.273170      -279.5472
  16   2.0000      -8.090249      -220.1469
  17   2.0000      -8.078328      -219.8225
  18   2.0000      -6.048569      -164.5899
  19   2.0000      -6.044633      -164.4828
  20   2.0000      -6.041259      -164.3910
  21   2.0000      -6.036825      -164.2704
  22   2.0000      -6.032755      -164.1596
  23   2.0000      -6.029124      -164.0608
  24   2.0000      -1.009954       -27.4822
  25   2.0000      -0.987406       -26.8687
  26   2.0000      -0.919647       -25.0249
  27   2.0000      -0.913118       -24.8472
  28   2.0000      -0.869500       -23.6603
  29   2.0000      -0.854628       -23.2556
  30   2.0000      -0.847563       -23.0634
  31   2.0000      -0.809222       -22.0201
  32   2.0000      -0.784302       -21.3419
  33   2.0000      -0.774147       -21.0656
  34   2.0000      -0.706928       -19.2365
  35   2.0000      -0.704042       -19.1580
  36   2.0000      -0.692179       -18.8352
  37   2.0000      -0.662476       -18.0269
  38   2.0000      -0.642182       -17.4747
  39   2.0000      -0.620931       -16.8964
  40   2.0000      -0.598366       -16.2824
  41   2.0000      -0.573547       -15.6070
  42   2.0000      -0.572535       -15.5795
  43   2.0000      -0.545486       -14.8434
  44   2.0000      -0.543045       -14.7770
  45   2.0000      -0.524972       -14.2852
  46   2.0000      -0.518875       -14.1193
  47   2.0000      -0.513054       -13.9609
  48   2.0000      -0.508417       -13.8347
  49   2.0000      -0.497722       -13.5437
  50   2.0000      -0.489450       -13.3186
  51   2.0000      -0.477724       -12.9995
  52   2.0000      -0.471774       -12.8376
  53   2.0000      -0.461437       -12.5563
  54   2.0000      -0.460663       -12.5353
  55   2.0000      -0.450483       -12.2583
  56   2.0000      -0.443873       -12.0784
  57   2.0000      -0.440338       -11.9822
  58   2.0000      -0.432312       -11.7638
  59   2.0000      -0.425779       -11.5860
  60   2.0000      -0.417459       -11.3596
  61   2.0000      -0.414198       -11.2709
  62   2.0000      -0.410784       -11.1780
  63   2.0000      -0.351052        -9.5526
  64   2.0000      -0.333605        -9.0778
  65   2.0000      -0.326678        -8.8894
  66   2.0000      -0.291141        -7.9223
  67   0.0000       0.028468         0.7746
  68   0.0000       0.072074         1.9612
  69   0.0000       0.107904         2.9362
  70   0.0000       0.111668         3.0386
  71   0.0000       0.126987         3.4555

MULLIKEN ATOMIC CHARGES
-----------------------
   0 S :    0.130905
   1 C :   -0.138701
   2 C :   -0.037796
   3 C :    0.000332
   4 C :   -0.145509
   5 H :    0.021218
   6 C :    0.027840
   7 H :    0.009791
   8 H :    0.028196
   9 C :   -0.033065
  10 H :    0.034322
  11 H :    0.038705
  12 C :   -0.066120
  13 H :    0.011239
  14 H :    0.031445
  15 H :    0.038753
  16 S :    0.095204
  17 C :   -0.089373
  18 C :   -0.075234
  19 C :   -0.038180
  20 C :   -0.128662
  21 H :    0.046581
  22 C :    0.049099
  23 H :    0.022731
  24 H :    0.014352
  25 C :   -0.051814
  26 H :    0.008255
  27 H :    0.002651
  28 C :   -0.015234
  29 H :    0.027279
  30 H :    0.039767
  31 H :    0.030235
  32 H :    0.058051
  33 H :    0.052738
Sum of atomic charges:    0.0000000

LOEWDIN ATOMIC CHARGES
----------------------
   0 S :    0.456300
   1 C :   -0.210179
   2 C :   -0.063767
   3 C :   -0.056633
   4 C :   -0.209892
   5 H :    0.029999
   6 C :   -0.044275
   7 H :    0.028818
   8 H :    0.039412
   9 C :   -0.032434
  10 H :    0.026431
  11 H :    0.029217
  12 C :   -0.080133
  13 H :    0.022497
  14 H :    0.023518
  15 H :    0.032000
  16 S :    0.407614
  17 C :   -0.186778
  18 C :   -0.076294
  19 C :   -0.058640
  20 C :   -0.194809
  21 H :    0.041967
  22 C :   -0.045690
  23 H :    0.033428
  24 H :    0.015784
  25 C :   -0.038396
  26 H :    0.020846
  27 H :    0.010559
  28 C :   -0.053425
  29 H :    0.027423
  30 H :    0.036066
  31 H :    0.015345
  32 H :    0.029244
  33 H :    0.024876

  Mayer bond orders larger than 0.100000
B(  0-S ,  1-C ) :   1.1710 B(  0-S ,  4-C ) :   1.1643 B(  1-C ,  2-C ) :   1.5681
B(  1-C , 32-H ) :   0.9657 B(  2-C ,  3-C ) :   1.2640 B(  2-C ,  6-C ) :   1.0313
B(  3-C ,  4-C ) :   1.5336 B(  3-C ,  5-H ) :   0.9915 B(  4-C , 20-C ) :   1.0340
B(  6-C ,  7-H ) :   0.9365 B(  6-C ,  8-H ) :   0.9359 B(  6-C ,  9-C ) :   1.0698
B(  9-C , 10-H ) :   0.9551 B(  9-C , 11-H ) :   0.9547 B(  9-C , 12-C ) :   1.0739
B( 12-C , 13-H ) :   0.9732 B( 12-C , 14-H ) :   0.9736 B( 12-C , 15-H ) :   0.9745
B( 16-S , 17-C ) :   1.1561 B( 16-S , 20-C ) :   1.1397 B( 17-C , 18-C ) :   1.6309
B( 17-C , 33-H ) :   0.9689 B( 18-C , 19-C ) :   1.1973 B( 18-C , 21-H ) :   0.9824
B( 19-C , 20-C ) :   1.5895 B( 19-C , 22-C ) :   1.0764 B( 22-C , 23-H ) :   0.9101
B( 22-C , 24-H ) :   0.9303 B( 22-C , 25-C ) :   1.0740 B( 25-C , 26-H ) :   0.9477
B( 25-C , 27-H ) :   0.9448 B( 25-C , 28-C ) :   1.0739 B( 28-C , 29-H ) :   0.9757
B( 28-C , 30-H ) :   0.9739 B( 28-C , 31-H ) :   0.9790

Dispersion correction           -0.014128146
FINAL SINGLE POINT ENERGY     -1339.869650834009

DIPOLE MOMENT
-------------
                                X             Y             Z
Electronic contribution:      2.45101       8.38546      -7.58714
Nuclear contribution   :     -2.45988      -8.53376       7.57727
                        -----------------------------------------
Total Dipole Moment    :     -0.00886      -0.14830      -0.00987
                        -----------------------------------------
Magnitude (a.u.)       :      0.14889
Magnitude (Debye)      :      0.37845

Rotational constants in cm-1:     0.022944     0.007795     0.006137
Rotational constants in MHz :   687.856747   233.681141   183.994319

                             ****ORCA TERMINATED NORMALLY****
TOTAL RUN TIME: 0 days 0 hours 0 minutes 29 seconds 238 msec
