                         Program Version 4.2.1 -  RELEASE  -
|  1> ! wB97X-D3 SP def2-SVP
|  2> %pal
|  3> nprocs 16
|  4> end
|  5>
|  6> * xyz 0 1
|  7> S 	 -35.3535 	 51.0877 	 111.466
|  8> C 	 -36.8012 	 50.7362 	 112.404
|  9> C 	 -37.878 	 50.6776 	 111.539
| 10> C 	 -37.616 	 51.0853 	 110.191
| 11> C 	 -36.2704 	 51.4658 	 110.005
| 12> H 	 -38.3546 	 51.0884 	 109.445
| 13> C 	 -39.3309 	 50.3385 	 111.954
| 14> H 	 -39.9911 	 50.6103 	 111.091
| 15> H 	 -39.6412 	 50.7628 	 112.873
| 16> C 	 -39.6041 	 48.8447 	 112.101
| 17> H 	 -39.4598 	 48.2303 	 111.247
| 18> H 	 -38.9442 	 48.6178 	 112.882
| 19> C 	 -41.076 	 48.5438 	 112.555
| 20> H 	 -41.0879 	 47.4562 	 112.847
| 21> H 	 -41.413 	 49.0436 	 113.505
| 22> H 	 -41.7894 	 48.7277 	 111.802
| 23> S 	 -34.0677 	 51.397 	 108.435
| 24> C 	 -34.0108 	 52.0697 	 106.865
| 25> C 	 -35.2241 	 52.6963 	 106.578
| 26> C 	 -36.1505 	 52.6621 	 107.639
| 27> C 	 -35.6763 	 51.9888 	 108.744
| 28> H 	 -35.3371 	 53.1424 	 105.6
| 29> C 	 -37.4213 	 53.4713 	 107.433
| 30> H 	 -37.162 	 54.3587 	 106.764
| 31> H 	 -37.6534 	 53.948 	 108.391
| 32> C 	 -38.6075 	 52.6481 	 106.861
| 33> H 	 -39.4461 	 53.3526 	 106.724
| 34> H 	 -39.0672 	 51.8859 	 107.514
| 35> C 	 -38.3889 	 52.0368 	 105.461
| 36> H 	 -39.327 	 52.0238 	 104.962
| 37> H 	 -37.7887 	 51.1386 	 105.474
| 38> H 	 -37.7707 	 52.719 	 104.9
| 39> H 	 -36.7132 	 50.281 	 113.364
| 40> H 	 -33.1528 	 52.0214 	 106.227
| 41> *
| 42>
| 43>                          ****END OF INPUT****

CARTESIAN COORDINATES (ANGSTROEM)
---------------------------------
  S    -35.353500   51.087700  111.466000
  C    -36.801200   50.736200  112.404000
  C    -37.878000   50.677600  111.539000
  C    -37.616000   51.085300  110.191000
  C    -36.270400   51.465800  110.005000
  H    -38.354600   51.088400  109.445000
  C    -39.330900   50.338500  111.954000
  H    -39.991100   50.610300  111.091000
  H    -39.641200   50.762800  112.873000
  C    -39.604100   48.844700  112.101000
  H    -39.459800   48.230300  111.247000
  H    -38.944200   48.617800  112.882000
  C    -41.076000   48.543800  112.555000
  H    -41.087900   47.456200  112.847000
  H    -41.413000   49.043600  113.505000
  H    -41.789400   48.727700  111.802000
  S    -34.067700   51.397000  108.435000
  C    -34.010800   52.069700  106.865000
  C    -35.224100   52.696300  106.578000
  C    -36.150500   52.662100  107.639000
  C    -35.676300   51.988800  108.744000
  H    -35.337100   53.142400  105.600000
  C    -37.421300   53.471300  107.433000
  H    -37.162000   54.358700  106.764000
  H    -37.653400   53.948000  108.391000
  C    -38.607500   52.648100  106.861000
  H    -39.446100   53.352600  106.724000
  H    -39.067200   51.885900  107.514000
  C    -38.388900   52.036800  105.461000
  H    -39.327000   52.023800  104.962000
  H    -37.788700   51.138600  105.474000
  H    -37.770700   52.719000  104.900000
  H    -36.713200   50.281000  113.364000
  H    -33.152800   52.021400  106.227000

 Total Charge           Charge          ....    0
 Multiplicity           Mult            ....    1
 Number of Electrons    NEL             ....  134
 Basis Dimension        Dim             ....  322

ORBITAL ENERGIES
----------------

  NO   OCC          E(Eh)            E(eV)
   0   2.0000     -88.966444     -2420.9000
   1   2.0000     -88.964325     -2420.8424
   2   2.0000     -10.339395      -281.3493
   3   2.0000     -10.330450      -281.1058
   4   2.0000     -10.315420      -280.6969
   5   2.0000     -10.313958      -280.6571
   6   2.0000     -10.304111      -280.3891
   7   2.0000     -10.303004      -280.3590
   8   2.0000     -10.301077      -280.3066
   9   2.0000     -10.294313      -280.1225
  10   2.0000     -10.292736      -280.0796
  11   2.0000     -10.292273      -280.0670
  12   2.0000     -10.290703      -280.0243
  13   2.0000     -10.282526      -279.8018
  14   2.0000     -10.279229      -279.7121
  15   2.0000     -10.273210      -279.5483
  16   2.0000      -8.080705      -219.8871
  17   2.0000      -8.080241      -219.8745
  18   2.0000      -6.039384      -164.3400
  19   2.0000      -6.038580      -164.3181
  20   2.0000      -6.035244      -164.2273
  21   2.0000      -6.034459      -164.2060
  22   2.0000      -6.031355      -164.1215
  23   2.0000      -6.031228      -164.1181
  24   2.0000      -1.009379       -27.4666
  25   2.0000      -0.985114       -26.8063
  26   2.0000      -0.910712       -24.7817
  27   2.0000      -0.907792       -24.7023
  28   2.0000      -0.867162       -23.5967
  29   2.0000      -0.854038       -23.2396
  30   2.0000      -0.844173       -22.9711
  31   2.0000      -0.812493       -22.1091
  32   2.0000      -0.783643       -21.3240
  33   2.0000      -0.773181       -21.0393
  34   2.0000      -0.707833       -19.2611
  35   2.0000      -0.698504       -19.0073
  36   2.0000      -0.692451       -18.8426
  37   2.0000      -0.669274       -18.2119
  38   2.0000      -0.643456       -17.5093
  39   2.0000      -0.623257       -16.9597
  40   2.0000      -0.593362       -16.1462
  41   2.0000      -0.575863       -15.6700
  42   2.0000      -0.563742       -15.3402
  43   2.0000      -0.554625       -15.0921
  44   2.0000      -0.549308       -14.9474
  45   2.0000      -0.519101       -14.1255
  46   2.0000      -0.515897       -14.0383
  47   2.0000      -0.513107       -13.9623
  48   2.0000      -0.504168       -13.7191
  49   2.0000      -0.499387       -13.5890
  50   2.0000      -0.493045       -13.4164
  51   2.0000      -0.483573       -13.1587
  52   2.0000      -0.477106       -12.9827
  53   2.0000      -0.467759       -12.7284
  54   2.0000      -0.461562       -12.5597
  55   2.0000      -0.448950       -12.2166
  56   2.0000      -0.441522       -12.0144
  57   2.0000      -0.438772       -11.9396
  58   2.0000      -0.432123       -11.7587
  59   2.0000      -0.422909       -11.5079
  60   2.0000      -0.416837       -11.3427
  61   2.0000      -0.413050       -11.2397
  62   2.0000      -0.409159       -11.1338
  63   2.0000      -0.355086        -9.6624
  64   2.0000      -0.334443        -9.1007
  65   2.0000      -0.328055        -8.9268
  66   2.0000      -0.287848        -7.8327
  67   0.0000       0.020810         0.5663
  68   0.0000       0.077627         2.1123
  69   0.0000       0.102509         2.7894
  70   0.0000       0.121796         3.3142
  71   0.0000       0.131331         3.5737

MULLIKEN ATOMIC CHARGES
-----------------------
   0 S :    0.094535
   1 C :   -0.110868
   2 C :   -0.081582
   3 C :    0.050253
   4 C :   -0.102013
   5 H :   -0.035471
   6 C :    0.062745
   7 H :    0.019499
   8 H :    0.022565
   9 C :   -0.058327
  10 H :    0.030301
  11 H :    0.009619
  12 C :   -0.072955
  13 H :    0.039483
  14 H :    0.031229
  15 H :    0.032192
  16 S :    0.098495
  17 C :   -0.083536
  18 C :   -0.058705
  19 C :   -0.036065
  20 C :   -0.127633
  21 H :    0.019363
  22 C :    0.039373
  23 H :    0.042832
  24 H :    0.035269
  25 C :   -0.093816
  26 H :    0.024876
  27 H :    0.039751
  28 C :   -0.023800
  29 H :    0.033240
  30 H :    0.047613
  31 H :    0.004572
  32 H :    0.053603
  33 H :    0.053364
Sum of atomic charges:    0.0000000

LOEWDIN ATOMIC CHARGES
----------------------
   0 S :    0.393677
   1 C :   -0.197076
   2 C :   -0.056590
   3 C :   -0.059276
   4 C :   -0.180664
   5 H :    0.018168
   6 C :   -0.025989
   7 H :    0.029639
   8 H :    0.025440
   9 C :   -0.032405
  10 H :    0.021505
  11 H :    0.013674
  12 C :   -0.068855
  13 H :    0.033735
  14 H :    0.026849
  15 H :    0.015651
  16 S :    0.429300
  17 C :   -0.192641
  18 C :   -0.074596
  19 C :   -0.064985
  20 C :   -0.195967
  21 H :    0.030123
  22 C :   -0.031849
  23 H :    0.041337
  24 H :    0.033866
  25 C :   -0.043607
  26 H :    0.025943
  27 H :    0.022794
  28 C :   -0.062215
  29 H :    0.026207
  30 H :    0.027615
  31 H :    0.019410
  32 H :    0.025118
  33 H :    0.026662

  Mayer bond orders larger than 0.100000
B(  0-S ,  1-C ) :   1.1240 B(  0-S ,  4-C ) :   1.1678 B(  1-C ,  2-C ) :   1.5956
B(  1-C ,  4-C ) :   0.1017 B(  1-C , 32-H ) :   0.9720 B(  2-C ,  3-C ) :   1.2716
B(  2-C ,  6-C ) :   1.0179 B(  3-C ,  4-C ) :   1.5253 B(  3-C ,  5-H ) :   1.0039
B(  4-C , 20-C ) :   1.0361 B(  6-C ,  7-H ) :   0.9473 B(  6-C ,  8-H ) :   0.9490
B(  6-C ,  9-C ) :   1.0585 B(  9-C , 10-H ) :   0.9582 B(  9-C , 11-H ) :   0.9591
B(  9-C , 12-C ) :   1.0818 B( 12-C , 13-H ) :   0.9750 B( 12-C , 14-H ) :   0.9738
B( 12-C , 15-H ) :   0.9785 B( 16-S , 17-C ) :   1.1840 B( 16-S , 20-C ) :   1.1542
B( 17-C , 18-C ) :   1.5673 B( 17-C , 20-C ) :   0.1030 B( 17-C , 33-H ) :   0.9732
B( 18-C , 19-C ) :   1.2653 B( 18-C , 21-H ) :   0.9949 B( 19-C , 20-C ) :   1.5865
B( 19-C , 22-C ) :   1.0186 B( 22-C , 23-H ) :   0.9459 B( 22-C , 24-H ) :   0.9397
B( 22-C , 25-C ) :   1.0708 B( 25-C , 26-H ) :   0.9549 B( 25-C , 27-H ) :   0.9544
B( 25-C , 28-C ) :   1.0772 B( 28-C , 29-H ) :   0.9731 B( 28-C , 30-H ) :   0.9725
B( 28-C , 31-H ) :   0.9715

Dispersion correction           -0.014038424
FINAL SINGLE POINT ENERGY     -1339.870782530264

DIPOLE MOMENT
-------------
                                X             Y             Z
Electronic contribution:     28.99386       4.06207       4.16910
Nuclear contribution   :    -29.56826      -4.08224      -4.50205
                        -----------------------------------------
Total Dipole Moment    :     -0.57440      -0.02017      -0.33295
                        -----------------------------------------
Magnitude (a.u.)       :      0.66422
Magnitude (Debye)      :      1.68832

Rotational constants in cm-1:     0.019333     0.008260     0.006228
Rotational constants in MHz :   579.576154   247.623788   186.707645

                             ****ORCA TERMINATED NORMALLY****
TOTAL RUN TIME: 0 days 0 hours 0 minutes 30 seconds 56 msec
