                         Program Version 4.2.1 -  RELEASE  -
|  1> ! wB97X-D3 SP def2-SVP
|  2> %pal
|  3> nprocs 16
|  4> end
|  5>
|  6> * xyz 0 1
|  7> S 	 15.25 	 24.8576 	 62.5231
|  8> C 	 15.9254 	 23.3784 	 61.9033
|  9> C 	 14.9164 	 22.5503 	 61.351
| 10> C 	 13.6968 	 23.1276 	 61.552
| 11> C 	 13.6634 	 24.363 	 62.1543
| 12> H 	 12.7125 	 22.7448 	 61.3192
| 13> C 	 15.1295 	 21.1777 	 60.718
| 14> H 	 15.4429 	 21.2863 	 59.6802
| 15> H 	 14.1141 	 20.6941 	 60.6993
| 16> C 	 16.1143 	 20.1331 	 61.37
| 17> H 	 16.2178 	 19.32 	 60.615
| 18> H 	 17.1151 	 20.4346 	 61.3135
| 19> C 	 15.8954 	 19.6093 	 62.7318
| 20> H 	 15.7424 	 20.4501 	 63.3883
| 21> H 	 14.9804 	 18.9675 	 62.6173
| 22> H 	 16.6907 	 18.9389 	 63.0781
| 23> S 	 12.5757 	 25.9084 	 64.1114
| 24> C 	 10.8852 	 26.3447 	 64.0744
| 25> C 	 10.2288 	 25.8916 	 62.9551
| 26> C 	 11.1602 	 25.0619 	 62.2
| 27> C 	 12.4811 	 25.0936 	 62.5833
| 28> H 	 9.20481 	 25.9135 	 62.878
| 29> C 	 10.6989 	 24.4727 	 60.8751
| 30> H 	 11.556 	 24.02 	 60.3365
| 31> H 	 10.4172 	 25.3335 	 60.2455
| 32> C 	 9.419 	 23.4935 	 60.9444
| 33> H 	 9.08369 	 23.2295 	 59.9459
| 34> H 	 8.59157 	 24.063 	 61.5346
| 35> C 	 9.87398 	 22.1578 	 61.5948
| 36> H 	 10.0368 	 22.3941 	 62.5866
| 37> H 	 10.7598 	 21.5551 	 61.1711
| 38> H 	 9.01577 	 21.488 	 61.731
| 39> H 	 17.0114 	 23.1703 	 61.9546
| 40> H 	 10.448 	 26.9041 	 64.823
| 41> *
| 42>
| 43>                          ****END OF INPUT****

CARTESIAN COORDINATES (ANGSTROEM)
---------------------------------
  S     15.250000   24.857600   62.523100
  C     15.925400   23.378400   61.903300
  C     14.916400   22.550300   61.351000
  C     13.696800   23.127600   61.552000
  C     13.663400   24.363000   62.154300
  H     12.712500   22.744800   61.319200
  C     15.129500   21.177700   60.718000
  H     15.442900   21.286300   59.680200
  H     14.114100   20.694100   60.699300
  C     16.114300   20.133100   61.370000
  H     16.217800   19.320000   60.615000
  H     17.115100   20.434600   61.313500
  C     15.895400   19.609300   62.731800
  H     15.742400   20.450100   63.388300
  H     14.980400   18.967500   62.617300
  H     16.690700   18.938900   63.078100
  S     12.575700   25.908400   64.111400
  C     10.885200   26.344700   64.074400
  C     10.228800   25.891600   62.955100
  C     11.160200   25.061900   62.200000
  C     12.481100   25.093600   62.583300
  H      9.204810   25.913500   62.878000
  C     10.698900   24.472700   60.875100
  H     11.556000   24.020000   60.336500
  H     10.417200   25.333500   60.245500
  C      9.419000   23.493500   60.944400
  H      9.083690   23.229500   59.945900
  H      8.591570   24.063000   61.534600
  C      9.873980   22.157800   61.594800
  H     10.036800   22.394100   62.586600
  H     10.759800   21.555100   61.171100
  H      9.015770   21.488000   61.731000
  H     17.011400   23.170300   61.954600
  H     10.448000   26.904100   64.823000

 Total Charge           Charge          ....    0
 Multiplicity           Mult            ....    1
 Number of Electrons    NEL             ....  134
 Basis Dimension        Dim             ....  322

ORBITAL ENERGIES
----------------

  NO   OCC          E(Eh)            E(eV)
   0   2.0000     -88.969747     -2420.9899
   1   2.0000     -88.962546     -2420.7939
   2   2.0000     -10.325198      -280.9629
   3   2.0000     -10.324268      -280.9376
   4   2.0000     -10.318631      -280.7842
   5   2.0000     -10.314933      -280.6836
   6   2.0000     -10.304108      -280.3890
   7   2.0000     -10.303664      -280.3769
   8   2.0000     -10.302718      -280.3512
   9   2.0000     -10.302329      -280.3406
  10   2.0000     -10.293876      -280.1106
  11   2.0000     -10.293243      -280.0934
  12   2.0000     -10.284426      -279.8534
  13   2.0000     -10.282633      -279.8047
  14   2.0000     -10.278895      -279.7030
  15   2.0000     -10.275952      -279.6229
  16   2.0000      -8.085216      -220.0099
  17   2.0000      -8.078124      -219.8169
  18   2.0000      -6.043470      -164.4512
  19   2.0000      -6.039459      -164.3420
  20   2.0000      -6.036655      -164.2657
  21   2.0000      -6.036384      -164.2584
  22   2.0000      -6.032554      -164.1541
  23   2.0000      -6.028762      -164.0510
  24   2.0000      -1.016319       -27.6554
  25   2.0000      -0.990593       -26.9554
  26   2.0000      -0.911336       -24.7987
  27   2.0000      -0.899102       -24.4658
  28   2.0000      -0.875452       -23.8223
  29   2.0000      -0.859219       -23.3805
  30   2.0000      -0.845265       -23.0008
  31   2.0000      -0.817187       -22.2368
  32   2.0000      -0.785321       -21.3697
  33   2.0000      -0.769985       -20.9524
  34   2.0000      -0.705685       -19.2027
  35   2.0000      -0.703336       -19.1387
  36   2.0000      -0.694589       -18.9007
  37   2.0000      -0.666276       -18.1303
  38   2.0000      -0.643839       -17.5197
  39   2.0000      -0.618001       -16.8167
  40   2.0000      -0.595058       -16.1924
  41   2.0000      -0.575811       -15.6686
  42   2.0000      -0.557220       -15.1627
  43   2.0000      -0.551341       -15.0027
  44   2.0000      -0.543915       -14.8007
  45   2.0000      -0.536988       -14.6122
  46   2.0000      -0.520197       -14.1553
  47   2.0000      -0.506069       -13.7708
  48   2.0000      -0.504469       -13.7273
  49   2.0000      -0.501468       -13.6456
  50   2.0000      -0.493039       -13.4163
  51   2.0000      -0.478973       -13.0335
  52   2.0000      -0.474271       -12.9056
  53   2.0000      -0.466217       -12.6864
  54   2.0000      -0.464744       -12.6463
  55   2.0000      -0.449610       -12.2345
  56   2.0000      -0.445665       -12.1272
  57   2.0000      -0.434199       -11.8152
  58   2.0000      -0.427936       -11.6447
  59   2.0000      -0.426610       -11.6087
  60   2.0000      -0.420169       -11.4334
  61   2.0000      -0.410204       -11.1622
  62   2.0000      -0.404230       -10.9997
  63   2.0000      -0.358626        -9.7587
  64   2.0000      -0.339423        -9.2362
  65   2.0000      -0.327200        -8.9036
  66   2.0000      -0.284239        -7.7345
  67   0.0000       0.025261         0.6874
  68   0.0000       0.078237         2.1289
  69   0.0000       0.105655         2.8750
  70   0.0000       0.113962         3.1011
  71   0.0000       0.132100         3.5946

MULLIKEN ATOMIC CHARGES
-----------------------
   0 S :    0.123161
   1 C :   -0.159434
   2 C :   -0.040845
   3 C :    0.017636
   4 C :   -0.143382
   5 H :   -0.039913
   6 C :    0.066298
   7 H :    0.044769
   8 H :    0.027203
   9 C :   -0.085953
  10 H :    0.014716
  11 H :    0.000691
  12 C :   -0.028865
  13 H :    0.044603
  14 H :    0.028635
  15 H :    0.039972
  16 S :    0.086493
  17 C :   -0.058598
  18 C :    0.022706
  19 C :   -0.085623
  20 C :   -0.081665
  21 H :   -0.001224
  22 C :   -0.011051
  23 H :    0.029403
  24 H :    0.044287
  25 C :   -0.087426
  26 H :    0.036952
  27 H :    0.049024
  28 C :   -0.063566
  29 H :    0.018656
  30 H :    0.070721
  31 H :    0.027125
  32 H :    0.064398
  33 H :    0.030098
Sum of atomic charges:   -0.0000000

LOEWDIN ATOMIC CHARGES
----------------------
   0 S :    0.440516
   1 C :   -0.208142
   2 C :   -0.068134
   3 C :   -0.070604
   4 C :   -0.210230
   5 H :    0.025633
   6 C :   -0.026534
   7 H :    0.038302
   8 H :    0.034052
   9 C :   -0.052739
  10 H :    0.027883
  11 H :    0.011408
  12 C :   -0.064532
  13 H :    0.027389
  14 H :    0.029797
  15 H :    0.031322
  16 S :    0.405036
  17 C :   -0.157886
  18 C :   -0.058687
  19 C :   -0.060111
  20 C :   -0.201283
  21 H :    0.019269
  22 C :   -0.041650
  23 H :    0.028423
  24 H :    0.034517
  25 C :   -0.036060
  26 H :    0.021059
  27 H :    0.034909
  28 C :   -0.079575
  29 H :    0.016381
  30 H :    0.038036
  31 H :    0.027270
  32 H :    0.032542
  33 H :    0.012427

  Mayer bond orders larger than 0.100000
B(  0-S ,  1-C ) :   1.1753 B(  0-S ,  4-C ) :   1.1745 B(  1-C ,  2-C ) :   1.5156
B(  1-C ,  4-C ) :   0.1115 B(  1-C , 32-H ) :   0.9702 B(  2-C ,  3-C ) :   1.3138
B(  2-C ,  6-C ) :   1.0080 B(  3-C ,  4-C ) :   1.5355 B(  3-C ,  5-H ) :   0.9832
B(  4-C , 20-C ) :   1.0404 B(  6-C ,  7-H ) :   0.9299 B(  6-C ,  8-H ) :   0.9486
B(  6-C ,  9-C ) :   1.0763 B(  9-C , 10-H ) :   0.9475 B(  9-C , 11-H ) :   0.9477
B(  9-C , 12-C ) :   1.0825 B( 12-C , 13-H ) :   0.9730 B( 12-C , 14-H ) :   0.9754
B( 12-C , 15-H ) :   0.9695 B( 16-S , 17-C ) :   1.1665 B( 16-S , 20-C ) :   1.1185
B( 17-C , 18-C ) :   1.6158 B( 17-C , 33-H ) :   0.9751 B( 18-C , 19-C ) :   1.2145
B( 18-C , 21-H ) :   0.9987 B( 19-C , 20-C ) :   1.6182 B( 19-C , 22-C ) :   1.0322
B( 22-C , 23-H ) :   0.9491 B( 22-C , 24-H ) :   0.9424 B( 22-C , 25-C ) :   1.0517
B( 25-C , 26-H ) :   0.9608 B( 25-C , 27-H ) :   0.9563 B( 25-C , 28-C ) :   1.0670
B( 28-C , 29-H ) :   0.9725 B( 28-C , 30-H ) :   0.9624 B( 28-C , 31-H ) :   0.9686

Dispersion correction           -0.014685410
FINAL SINGLE POINT ENERGY     -1339.858950802216

DIPOLE MOMENT
-------------
                                X             Y             Z
Electronic contribution:      6.38366      25.24347      10.01941
Nuclear contribution   :     -6.67292     -25.72206     -10.24562
                        -----------------------------------------
Total Dipole Moment    :     -0.28926      -0.47859      -0.22621
                        -----------------------------------------
Magnitude (a.u.)       :      0.60323
Magnitude (Debye)      :      1.53329

Rotational constants in cm-1:     0.019679     0.008883     0.006871
Rotational constants in MHz :   589.970790   266.298873   205.986196

                             ****ORCA TERMINATED NORMALLY****
TOTAL RUN TIME: 0 days 0 hours 0 minutes 36 seconds 258 msec
