                         Program Version 4.2.1 -  RELEASE  -
|  1> ! wB97X-D3 SP def2-SVP
|  2> %pal
|  3> nprocs 16
|  4> end
|  5>
|  6> * xyz 0 1
|  7> S 	 -71.6797 	 51.302 	 126.353
|  8> C 	 -71.2586 	 52.9661 	 126.684
|  9> C 	 -72.2011 	 53.8192 	 126.149
| 10> C 	 -73.2342 	 53.2045 	 125.388
| 11> C 	 -73.1438 	 51.8158 	 125.524
| 12> H 	 -74.0394 	 53.697 	 124.948
| 13> C 	 -72.1549 	 55.3416 	 126.221
| 14> H 	 -71.2836 	 55.6124 	 126.797
| 15> H 	 -72.9089 	 55.7627 	 126.823
| 16> C 	 -71.9899 	 56.1197 	 124.898
| 17> H 	 -71.0771 	 55.9577 	 124.326
| 18> H 	 -72.6725 	 55.7452 	 124.183
| 19> C 	 -72.2313 	 57.6343 	 125.115
| 20> H 	 -72.264 	 58.1847 	 124.159
| 21> H 	 -73.1956 	 57.8525 	 125.578
| 22> H 	 -71.4179 	 58.115 	 125.715
| 23> S 	 -73.6681 	 50.2137 	 123.305
| 24> C 	 -75.0224 	 49.1345 	 123.348
| 25> C 	 -75.8898 	 49.4435 	 124.362
| 26> C 	 -75.3172 	 50.3775 	 125.323
| 27> C 	 -74.0695 	 50.8716 	 124.898
| 28> H 	 -76.8349 	 48.9814 	 124.553
| 29> C 	 -76.0627 	 50.7516 	 126.569
| 30> H 	 -76.7898 	 51.4879 	 126.323
| 31> H 	 -75.4474 	 51.1689 	 127.378
| 32> C 	 -76.7013 	 49.5535 	 127.346
| 33> H 	 -76.0344 	 48.729 	 127.443
| 34> H 	 -77.576 	 49.1316 	 126.764
| 35> C 	 -77.3899 	 49.9047 	 128.693
| 36> H 	 -78.1677 	 49.1156 	 128.945
| 37> H 	 -77.9114 	 50.8817 	 128.65
| 38> H 	 -76.6306 	 49.9506 	 129.504
| 39> H 	 -70.3659 	 53.2926 	 127.242
| 40> H 	 -75.3402 	 48.4 	 122.607
| 41> *
| 42>
| 43>                          ****END OF INPUT****

CARTESIAN COORDINATES (ANGSTROEM)
---------------------------------
  S    -71.679700   51.302000  126.353000
  C    -71.258600   52.966100  126.684000
  C    -72.201100   53.819200  126.149000
  C    -73.234200   53.204500  125.388000
  C    -73.143800   51.815800  125.524000
  H    -74.039400   53.697000  124.948000
  C    -72.154900   55.341600  126.221000
  H    -71.283600   55.612400  126.797000
  H    -72.908900   55.762700  126.823000
  C    -71.989900   56.119700  124.898000
  H    -71.077100   55.957700  124.326000
  H    -72.672500   55.745200  124.183000
  C    -72.231300   57.634300  125.115000
  H    -72.264000   58.184700  124.159000
  H    -73.195600   57.852500  125.578000
  H    -71.417900   58.115000  125.715000
  S    -73.668100   50.213700  123.305000
  C    -75.022400   49.134500  123.348000
  C    -75.889800   49.443500  124.362000
  C    -75.317200   50.377500  125.323000
  C    -74.069500   50.871600  124.898000
  H    -76.834900   48.981400  124.553000
  C    -76.062700   50.751600  126.569000
  H    -76.789800   51.487900  126.323000
  H    -75.447400   51.168900  127.378000
  C    -76.701300   49.553500  127.346000
  H    -76.034400   48.729000  127.443000
  H    -77.576000   49.131600  126.764000
  C    -77.389900   49.904700  128.693000
  H    -78.167700   49.115600  128.945000
  H    -77.911400   50.881700  128.650000
  H    -76.630600   49.950600  129.504000
  H    -70.365900   53.292600  127.242000
  H    -75.340200   48.400000  122.607000

 Total Charge           Charge          ....    0
 Multiplicity           Mult            ....    1
 Number of Electrons    NEL             ....  134
 Basis Dimension        Dim             ....  322

ORBITAL ENERGIES
----------------

  NO   OCC          E(Eh)            E(eV)
   0   2.0000     -88.968513     -2420.9563
   1   2.0000     -88.963729     -2420.8261
   2   2.0000     -10.330497      -281.1071
   3   2.0000     -10.325414      -280.9688
   4   2.0000     -10.316445      -280.7247
   5   2.0000     -10.315750      -280.7058
   6   2.0000     -10.305494      -280.4268
   7   2.0000     -10.299195      -280.2553
   8   2.0000     -10.291748      -280.0527
   9   2.0000     -10.290282      -280.0128
  10   2.0000     -10.290179      -280.0100
  11   2.0000     -10.289019      -279.9784
  12   2.0000     -10.288135      -279.9544
  13   2.0000     -10.285219      -279.8750
  14   2.0000     -10.284207      -279.8475
  15   2.0000     -10.283370      -279.8247
  16   2.0000      -8.082970      -219.9488
  17   2.0000      -8.078433      -219.8253
  18   2.0000      -6.041428      -164.3956
  19   2.0000      -6.037486      -164.2884
  20   2.0000      -6.037018      -164.2756
  21   2.0000      -6.033825      -164.1887
  22   2.0000      -6.032930      -164.1644
  23   2.0000      -6.029134      -164.0611
  24   2.0000      -1.002356       -27.2755
  25   2.0000      -0.981759       -26.7150
  26   2.0000      -0.907785       -24.7021
  27   2.0000      -0.904169       -24.6037
  28   2.0000      -0.866808       -23.5870
  29   2.0000      -0.849174       -23.1072
  30   2.0000      -0.844706       -22.9856
  31   2.0000      -0.812779       -22.1168
  32   2.0000      -0.779658       -21.2156
  33   2.0000      -0.766345       -20.8533
  34   2.0000      -0.710124       -19.3235
  35   2.0000      -0.698496       -19.0071
  36   2.0000      -0.694113       -18.8878
  37   2.0000      -0.653680       -17.7875
  38   2.0000      -0.646126       -17.5820
  39   2.0000      -0.621739       -16.9184
  40   2.0000      -0.598864       -16.2959
  41   2.0000      -0.567380       -15.4392
  42   2.0000      -0.563392       -15.3307
  43   2.0000      -0.553247       -15.0546
  44   2.0000      -0.522696       -14.2233
  45   2.0000      -0.519239       -14.1292
  46   2.0000      -0.512784       -13.9536
  47   2.0000      -0.510211       -13.8835
  48   2.0000      -0.507360       -13.8060
  49   2.0000      -0.498213       -13.5571
  50   2.0000      -0.494864       -13.4659
  51   2.0000      -0.471310       -12.8250
  52   2.0000      -0.467476       -12.7207
  53   2.0000      -0.464052       -12.6275
  54   2.0000      -0.459738       -12.5101
  55   2.0000      -0.454373       -12.3641
  56   2.0000      -0.448328       -12.1996
  57   2.0000      -0.444304       -12.0901
  58   2.0000      -0.436195       -11.8695
  59   2.0000      -0.422664       -11.5013
  60   2.0000      -0.422127       -11.4867
  61   2.0000      -0.409837       -11.1522
  62   2.0000      -0.402326       -10.9478
  63   2.0000      -0.337210        -9.1759
  64   2.0000      -0.326471        -8.8837
  65   2.0000      -0.317667        -8.6441
  66   2.0000      -0.311719        -8.4823
  67   0.0000       0.041598         1.1319
  68   0.0000       0.056232         1.5301
  69   0.0000       0.116147         3.1605
  70   0.0000       0.124337         3.3834
  71   0.0000       0.130244         3.5441

MULLIKEN ATOMIC CHARGES
-----------------------
   0 S :    0.125063
   1 C :   -0.131049
   2 C :   -0.071478
   3 C :    0.064883
   4 C :   -0.173754
   5 H :    0.002365
   6 C :    0.091427
   7 H :   -0.003121
   8 H :    0.019793
   9 C :   -0.055735
  10 H :    0.027987
  11 H :    0.010123
  12 C :   -0.077185
  13 H :    0.034363
  14 H :    0.031400
  15 H :    0.040494
  16 S :    0.117802
  17 C :   -0.079850
  18 C :   -0.025316
  19 C :   -0.027454
  20 C :   -0.189601
  21 H :    0.011362
  22 C :    0.095268
  23 H :    0.031273
  24 H :    0.032034
  25 C :   -0.128929
  26 H :    0.034875
  27 H :    0.026757
  28 C :   -0.077298
  29 H :    0.047265
  30 H :    0.036737
  31 H :    0.041180
  32 H :    0.058266
  33 H :    0.060050
Sum of atomic charges:   -0.0000000

LOEWDIN ATOMIC CHARGES
----------------------
   0 S :    0.411093
   1 C :   -0.202956
   2 C :   -0.063191
   3 C :   -0.043705
   4 C :   -0.193191
   5 H :    0.025357
   6 C :   -0.030955
   7 H :    0.026456
   8 H :    0.025253
   9 C :   -0.039089
  10 H :    0.028176
  11 H :    0.014623
  12 C :   -0.069634
  13 H :    0.028692
  14 H :    0.023275
  15 H :    0.028479
  16 S :    0.404912
  17 C :   -0.190370
  18 C :   -0.070216
  19 C :   -0.047868
  20 C :   -0.206580
  21 H :    0.026056
  22 C :   -0.033218
  23 H :    0.030938
  24 H :    0.035551
  25 C :   -0.045359
  26 H :    0.020869
  27 H :    0.021690
  28 C :   -0.073460
  29 H :    0.035086
  30 H :    0.027136
  31 H :    0.025027
  32 H :    0.035850
  33 H :    0.035273

  Mayer bond orders larger than 0.100000
B(  0-S ,  1-C ) :   1.1330 B(  0-S ,  4-C ) :   1.1653 B(  1-C ,  2-C ) :   1.6203
B(  1-C , 32-H ) :   0.9626 B(  2-C ,  3-C ) :   1.2393 B(  2-C ,  6-C ) :   1.0262
B(  3-C ,  4-C ) :   1.5673 B(  3-C ,  5-H ) :   1.0016 B(  4-C , 20-C ) :   1.0239
B(  6-C ,  7-H ) :   0.9344 B(  6-C ,  8-H ) :   0.9421 B(  6-C ,  9-C ) :   1.0484
B(  9-C , 10-H ) :   0.9537 B(  9-C , 11-H ) :   0.9572 B(  9-C , 12-C ) :   1.0794
B( 12-C , 13-H ) :   0.9736 B( 12-C , 14-H ) :   0.9760 B( 12-C , 15-H ) :   0.9777
B( 16-S , 17-C ) :   1.1530 B( 16-S , 20-C ) :   1.1354 B( 17-C , 18-C ) :   1.6200
B( 17-C , 33-H ) :   0.9626 B( 18-C , 19-C ) :   1.2341 B( 18-C , 21-H ) :   0.9866
B( 19-C , 20-C ) :   1.6085 B( 19-C , 22-C ) :   1.0558 B( 22-C , 23-H ) :   0.9253
B( 22-C , 24-H ) :   0.9399 B( 22-C , 25-C ) :   1.0507 B( 25-C , 26-H ) :   0.9642
B( 25-C , 27-H ) :   0.9530 B( 25-C , 28-C ) :   1.0761 B( 28-C , 29-H ) :   0.9777
B( 28-C , 30-H ) :   0.9733 B( 28-C , 31-H ) :   0.9759

Dispersion correction           -0.013439936
FINAL SINGLE POINT ENERGY     -1339.879876278342

DIPOLE MOMENT
-------------
                                X             Y             Z
Electronic contribution:     11.76468     -16.67795     -11.15507
Nuclear contribution   :    -12.17939      17.03776      11.35226
                        -----------------------------------------
Total Dipole Moment    :     -0.41472       0.35981       0.19719
                        -----------------------------------------
Magnitude (a.u.)       :      0.58338
Magnitude (Debye)      :      1.48284

Rotational constants in cm-1:     0.018157     0.007249     0.006447
Rotational constants in MHz :   544.342439   217.314556   193.266361

                             ****ORCA TERMINATED NORMALLY****
TOTAL RUN TIME: 0 days 0 hours 0 minutes 31 seconds 959 msec
