                         Program Version 4.2.1 -  RELEASE  -
|  1> ! wB97X-D3 SP def2-SVP
|  2> %pal
|  3> nprocs 16
|  4> end
|  5>
|  6> * xyz 0 1
|  7> S 	 8.48997 	 -10.313 	 69.592
|  8> C 	 9.51174 	 -8.95937 	 69.6073
|  9> C 	 8.96091 	 -7.8486 	 69.0538
| 10> C 	 7.61341 	 -8.06612 	 68.6933
| 11> C 	 7.20236 	 -9.34686 	 68.9543
| 12> H 	 6.94037 	 -7.38188 	 68.2386
| 13> C 	 9.55885 	 -6.49929 	 69.0672
| 14> H 	 10.2399 	 -6.39751 	 69.9707
| 15> H 	 8.81265 	 -5.6791 	 68.97
| 16> C 	 10.5099 	 -6.25003 	 67.8962
| 17> H 	 9.85855 	 -6.22504 	 66.9524
| 18> H 	 10.875 	 -5.23652 	 67.9724
| 19> C 	 11.5863 	 -7.22038 	 67.6562
| 20> H 	 11.1827 	 -8.11562 	 67.2255
| 21> H 	 12.3535 	 -6.73126 	 67.0472
| 22> H 	 12.1308 	 -7.49276 	 68.5703
| 23> S 	 5.55177 	 -10.6455 	 67.224
| 24> C 	 3.86648 	 -10.6591 	 67.5277
| 25> C 	 3.51353 	 -10.1479 	 68.7453
| 26> C 	 4.58582 	 -9.4376 	 69.3399
| 27> C 	 5.81502 	 -9.84886 	 68.7803
| 28> H 	 2.4292 	 -10.0753 	 69.0602
| 29> C 	 4.41484 	 -8.56376 	 70.5731
| 30> H 	 4.25654 	 -7.52417 	 70.1951
| 31> H 	 5.4518 	 -8.65442 	 71.0284
| 32> C 	 3.37952 	 -9.02158 	 71.6134
| 33> H 	 2.40306 	 -8.93766 	 71.2083
| 34> H 	 3.37118 	 -8.33914 	 72.4842
| 35> C 	 3.74 	 -10.3717 	 72.193
| 36> H 	 4.72894 	 -10.3956 	 72.5758
| 37> H 	 3.65537 	 -11.2858 	 71.515
| 38> H 	 3.13134 	 -10.6227 	 73.0523
| 39> H 	 10.4917 	 -8.95058 	 70.118
| 40> H 	 3.14557 	 -11.1024 	 66.9039
| 41> *
| 42>
| 43>                          ****END OF INPUT****

CARTESIAN COORDINATES (ANGSTROEM)
---------------------------------
  S      8.489970  -10.313000   69.592000
  C      9.511740   -8.959370   69.607300
  C      8.960910   -7.848600   69.053800
  C      7.613410   -8.066120   68.693300
  C      7.202360   -9.346860   68.954300
  H      6.940370   -7.381880   68.238600
  C      9.558850   -6.499290   69.067200
  H     10.239900   -6.397510   69.970700
  H      8.812650   -5.679100   68.970000
  C     10.509900   -6.250030   67.896200
  H      9.858550   -6.225040   66.952400
  H     10.875000   -5.236520   67.972400
  C     11.586300   -7.220380   67.656200
  H     11.182700   -8.115620   67.225500
  H     12.353500   -6.731260   67.047200
  H     12.130800   -7.492760   68.570300
  S      5.551770  -10.645500   67.224000
  C      3.866480  -10.659100   67.527700
  C      3.513530  -10.147900   68.745300
  C      4.585820   -9.437600   69.339900
  C      5.815020   -9.848860   68.780300
  H      2.429200  -10.075300   69.060200
  C      4.414840   -8.563760   70.573100
  H      4.256540   -7.524170   70.195100
  H      5.451800   -8.654420   71.028400
  C      3.379520   -9.021580   71.613400
  H      2.403060   -8.937660   71.208300
  H      3.371180   -8.339140   72.484200
  C      3.740000  -10.371700   72.193000
  H      4.728940  -10.395600   72.575800
  H      3.655370  -11.285800   71.515000
  H      3.131340  -10.622700   73.052300
  H     10.491700   -8.950580   70.118000
  H      3.145570  -11.102400   66.903900

 Total Charge           Charge          ....    0
 Multiplicity           Mult            ....    1
 Number of Electrons    NEL             ....  134
 Basis Dimension        Dim             ....  322

ORBITAL ENERGIES
----------------

  NO   OCC          E(Eh)            E(eV)
   0   2.0000     -88.965269     -2420.8681
   1   2.0000     -88.962897     -2420.8035
   2   2.0000     -10.323657      -280.9210
   3   2.0000     -10.321872      -280.8724
   4   2.0000     -10.308395      -280.5057
   5   2.0000     -10.306998      -280.4677
   6   2.0000     -10.305154      -280.4175
   7   2.0000     -10.297219      -280.2016
   8   2.0000     -10.293105      -280.0896
   9   2.0000     -10.291584      -280.0482
  10   2.0000     -10.290776      -280.0262
  11   2.0000     -10.288057      -279.9523
  12   2.0000     -10.286369      -279.9063
  13   2.0000     -10.280895      -279.7574
  14   2.0000     -10.274096      -279.5724
  15   2.0000     -10.269393      -279.4444
  16   2.0000      -8.081351      -219.9048
  17   2.0000      -8.078176      -219.8184
  18   2.0000      -6.039621      -164.3464
  19   2.0000      -6.036520      -164.2621
  20   2.0000      -6.035665      -164.2388
  21   2.0000      -6.032692      -164.1579
  22   2.0000      -6.032301      -164.1473
  23   2.0000      -6.028998      -164.0574
  24   2.0000      -1.012240       -27.5445
  25   2.0000      -0.991027       -26.9672
  26   2.0000      -0.918899       -25.0045
  27   2.0000      -0.910256       -24.7693
  28   2.0000      -0.866952       -23.5910
  29   2.0000      -0.855834       -23.2884
  30   2.0000      -0.848236       -23.0817
  31   2.0000      -0.812248       -22.1024
  32   2.0000      -0.784564       -21.3491
  33   2.0000      -0.772200       -21.0126
  34   2.0000      -0.707742       -19.2586
  35   2.0000      -0.695825       -18.9344
  36   2.0000      -0.686295       -18.6750
  37   2.0000      -0.651239       -17.7211
  38   2.0000      -0.644169       -17.5287
  39   2.0000      -0.615766       -16.7558
  40   2.0000      -0.592779       -16.1303
  41   2.0000      -0.571309       -15.5461
  42   2.0000      -0.558713       -15.2034
  43   2.0000      -0.553592       -15.0640
  44   2.0000      -0.544617       -14.8198
  45   2.0000      -0.535887       -14.5822
  46   2.0000      -0.516945       -14.0668
  47   2.0000      -0.508279       -13.8310
  48   2.0000      -0.498777       -13.5724
  49   2.0000      -0.494098       -13.4451
  50   2.0000      -0.489308       -13.3147
  51   2.0000      -0.480705       -13.0807
  52   2.0000      -0.471937       -12.8421
  53   2.0000      -0.459989       -12.5169
  54   2.0000      -0.456090       -12.4108
  55   2.0000      -0.450677       -12.2635
  56   2.0000      -0.446462       -12.1489
  57   2.0000      -0.439821       -11.9682
  58   2.0000      -0.431837       -11.7509
  59   2.0000      -0.425704       -11.5840
  60   2.0000      -0.422443       -11.4953
  61   2.0000      -0.411871       -11.2076
  62   2.0000      -0.406155       -11.0520
  63   2.0000      -0.339975        -9.2512
  64   2.0000      -0.328079        -8.9275
  65   2.0000      -0.320707        -8.7269
  66   2.0000      -0.301885        -8.2147
  67   0.0000       0.047386         1.2894
  68   0.0000       0.057726         1.5708
  69   0.0000       0.120804         3.2873
  70   0.0000       0.122096         3.3224
  71   0.0000       0.128673         3.5014

MULLIKEN ATOMIC CHARGES
-----------------------
   0 S :    0.133832
   1 C :   -0.141089
   2 C :   -0.049606
   3 C :    0.048453
   4 C :   -0.183953
   5 H :   -0.001767
   6 C :    0.045094
   7 H :    0.034889
   8 H :    0.032572
   9 C :   -0.107465
  10 H :    0.022483
  11 H :    0.022678
  12 C :   -0.018482
  13 H :    0.045164
  14 H :    0.033728
  15 H :    0.011353
  16 S :    0.113266
  17 C :   -0.062958
  18 C :   -0.048564
  19 C :   -0.064348
  20 C :   -0.171545
  21 H :    0.040689
  22 C :    0.035564
  23 H :    0.049824
  24 H :    0.045179
  25 C :   -0.044584
  26 H :    0.021720
  27 H :    0.033863
  28 C :   -0.059235
  29 H :    0.022194
  30 H :    0.046932
  31 H :    0.025171
  32 H :    0.054742
  33 H :    0.034205
Sum of atomic charges:    0.0000000

LOEWDIN ATOMIC CHARGES
----------------------
   0 S :    0.436832
   1 C :   -0.213386
   2 C :   -0.074624
   3 C :   -0.051384
   4 C :   -0.214331
   5 H :    0.028333
   6 C :   -0.034285
   7 H :    0.035726
   8 H :    0.036285
   9 C :   -0.049905
  10 H :    0.026621
  11 H :    0.018271
  12 C :   -0.067578
  13 H :    0.026768
  14 H :    0.032228
  15 H :    0.019879
  16 S :    0.417082
  17 C :   -0.184714
  18 C :   -0.085836
  19 C :   -0.048286
  20 C :   -0.208349
  21 H :    0.041735
  22 C :   -0.037364
  23 H :    0.038299
  24 H :    0.041092
  25 C :   -0.041830
  26 H :    0.016553
  27 H :    0.033991
  28 C :   -0.068985
  29 H :    0.022325
  30 H :    0.033986
  31 H :    0.024328
  32 H :    0.032386
  33 H :    0.018137

  Mayer bond orders larger than 0.100000
B(  0-S ,  1-C ) :   1.1560 B(  0-S ,  4-C ) :   1.1672 B(  1-C ,  2-C ) :   1.6003
B(  1-C , 32-H ) :   0.9596 B(  2-C ,  3-C ) :   1.2420 B(  2-C ,  6-C ) :   1.0258
B(  3-C ,  4-C ) :   1.5793 B(  3-C ,  5-H ) :   1.0093 B(  4-C , 20-C ) :   0.9795
B(  6-C ,  7-H ) :   0.9423 B(  6-C ,  8-H ) :   0.9430 B(  6-C ,  9-C ) :   1.0761
B(  9-C , 10-H ) :   0.9481 B(  9-C , 11-H ) :   0.9581 B(  9-C , 12-C ) :   1.0937
B( 12-C , 13-H ) :   0.9664 B( 12-C , 14-H ) :   0.9678 B( 12-C , 15-H ) :   0.9695
B( 16-S , 17-C ) :   1.1796 B( 16-S , 20-C ) :   1.1479 B( 17-C , 18-C ) :   1.6155
B( 17-C , 20-C ) :   0.1022 B( 17-C , 33-H ) :   0.9639 B( 18-C , 19-C ) :   1.2433
B( 18-C , 21-H ) :   0.9738 B( 19-C , 20-C ) :   1.5996 B( 19-C , 22-C ) :   1.0215
B( 22-C , 23-H ) :   0.9281 B( 22-C , 24-H ) :   0.9445 B( 22-C , 25-C ) :   1.0819
B( 25-C , 26-H ) :   0.9485 B( 25-C , 27-H ) :   0.9507 B( 25-C , 28-C ) :   1.0790
B( 28-C , 29-H ) :   0.9724 B( 28-C , 30-H ) :   0.9718 B( 28-C , 31-H ) :   0.9735

Dispersion correction           -0.014823565
FINAL SINGLE POINT ENERGY     -1339.876636873248

DIPOLE MOMENT
-------------
                                X             Y             Z
Electronic contribution:     -2.66446     -14.05179      -9.01448
Nuclear contribution   :      2.45721      14.61314       9.24950
                        -----------------------------------------
Total Dipole Moment    :     -0.20724       0.56135       0.23503
                        -----------------------------------------
Magnitude (a.u.)       :      0.64289
Magnitude (Debye)      :      1.63409

Rotational constants in cm-1:     0.023572     0.007568     0.006835
Rotational constants in MHz :   706.661201   226.874367   204.898432

                             ****ORCA TERMINATED NORMALLY****
TOTAL RUN TIME: 0 days 0 hours 0 minutes 34 seconds 986 msec
