                         Program Version 4.2.1 -  RELEASE  -
|  1> ! wB97X-D3 SP def2-SVP
|  2> %pal
|  3> nprocs 16
|  4> end
|  5>
|  6> * xyz 0 1
|  7> S 	 7.24218 	 27.0666 	 37.514
|  8> C 	 5.58972 	 27.434 	 37.6652
|  9> C 	 4.95572 	 26.7438 	 38.7323
| 10> C 	 5.88137 	 25.8531 	 39.4175
| 11> C 	 7.18528 	 26.0865 	 39.0127
| 12> H 	 5.62285 	 25.1994 	 40.205
| 13> C 	 3.55259 	 26.9227 	 39.2319
| 14> H 	 3.00589 	 25.9722 	 39.1578
| 15> H 	 2.95753 	 27.4945 	 38.5397
| 16> C 	 3.48711 	 27.5472 	 40.6141
| 17> H 	 2.51909 	 27.3249 	 41.1078
| 18> H 	 4.05139 	 27.0432 	 41.3718
| 19> C 	 3.71328 	 29.0157 	 40.6643
| 20> H 	 3.29181 	 29.5547 	 39.8543
| 21> H 	 3.33868 	 29.4705 	 41.5836
| 22> H 	 4.78685 	 29.3178 	 40.581
| 23> S 	 9.6962 	 26.4541 	 40.1964
| 24> C 	 10.5491 	 25.0725 	 40.7642
| 25> C 	 9.9422 	 23.9151 	 40.342
| 26> C 	 8.62281 	 24.1432 	 39.7307
| 27> C 	 8.38161 	 25.5071 	 39.5513
| 28> H 	 10.329 	 22.8825 	 40.5317
| 29> C 	 7.81794 	 22.9251 	 39.286
| 30> H 	 8.0589 	 22.6354 	 38.2733
| 31> H 	 6.73405 	 23.1071 	 39.3136
| 32> C 	 8.04481 	 21.5946 	 40.0783
| 33> H 	 7.7914 	 21.6608 	 41.1619
| 34> H 	 8.92417 	 21.0146 	 40.0114
| 35> C 	 6.94745 	 20.5247 	 39.7002
| 36> H 	 5.92882 	 20.9203 	 39.8629
| 37> H 	 7.18759 	 19.5877 	 40.1429
| 38> H 	 6.93877 	 20.2165 	 38.6398
| 39> H 	 4.94743 	 27.9547 	 36.9973
| 40> H 	 11.4744 	 25.1311 	 41.1893
| 41> *
| 42>
| 43>                          ****END OF INPUT****

CARTESIAN COORDINATES (ANGSTROEM)
---------------------------------
  S      7.242180   27.066600   37.514000
  C      5.589720   27.434000   37.665200
  C      4.955720   26.743800   38.732300
  C      5.881370   25.853100   39.417500
  C      7.185280   26.086500   39.012700
  H      5.622850   25.199400   40.205000
  C      3.552590   26.922700   39.231900
  H      3.005890   25.972200   39.157800
  H      2.957530   27.494500   38.539700
  C      3.487110   27.547200   40.614100
  H      2.519090   27.324900   41.107800
  H      4.051390   27.043200   41.371800
  C      3.713280   29.015700   40.664300
  H      3.291810   29.554700   39.854300
  H      3.338680   29.470500   41.583600
  H      4.786850   29.317800   40.581000
  S      9.696200   26.454100   40.196400
  C     10.549100   25.072500   40.764200
  C      9.942200   23.915100   40.342000
  C      8.622810   24.143200   39.730700
  C      8.381610   25.507100   39.551300
  H     10.329000   22.882500   40.531700
  C      7.817940   22.925100   39.286000
  H      8.058900   22.635400   38.273300
  H      6.734050   23.107100   39.313600
  C      8.044810   21.594600   40.078300
  H      7.791400   21.660800   41.161900
  H      8.924170   21.014600   40.011400
  C      6.947450   20.524700   39.700200
  H      5.928820   20.920300   39.862900
  H      7.187590   19.587700   40.142900
  H      6.938770   20.216500   38.639800
  H      4.947430   27.954700   36.997300
  H     11.474400   25.131100   41.189300

 Total Charge           Charge          ....    0
 Multiplicity           Mult            ....    1
 Number of Electrons    NEL             ....  134
 Basis Dimension        Dim             ....  322

ORBITAL ENERGIES
----------------

  NO   OCC          E(Eh)            E(eV)
   0   2.0000     -88.967341     -2420.9244
   1   2.0000     -88.964430     -2420.8452
   2   2.0000     -10.329436      -281.0782
   3   2.0000     -10.323607      -280.9196
   4   2.0000     -10.310093      -280.5519
   5   2.0000     -10.309914      -280.5470
   6   2.0000     -10.306834      -280.4632
   7   2.0000     -10.302490      -280.3450
   8   2.0000     -10.299279      -280.2576
   9   2.0000     -10.296993      -280.1954
  10   2.0000     -10.295039      -280.1423
  11   2.0000     -10.291665      -280.0504
  12   2.0000     -10.290993      -280.0322
  13   2.0000     -10.281902      -279.7848
  14   2.0000     -10.279897      -279.7302
  15   2.0000     -10.269957      -279.4597
  16   2.0000      -8.082107      -219.9253
  17   2.0000      -8.079894      -219.8651
  18   2.0000      -6.040598      -164.3730
  19   2.0000      -6.038453      -164.3147
  20   2.0000      -6.036677      -164.2663
  21   2.0000      -6.034219      -164.1994
  22   2.0000      -6.032820      -164.1614
  23   2.0000      -6.030638      -164.1020
  24   2.0000      -1.004784       -27.3416
  25   2.0000      -0.981993       -26.7214
  26   2.0000      -0.915181       -24.9033
  27   2.0000      -0.905049       -24.6276
  28   2.0000      -0.872734       -23.7483
  29   2.0000      -0.850609       -23.1463
  30   2.0000      -0.845279       -23.0012
  31   2.0000      -0.814196       -22.1554
  32   2.0000      -0.782452       -21.2916
  33   2.0000      -0.770577       -20.9685
  34   2.0000      -0.711578       -19.3630
  35   2.0000      -0.704237       -19.1633
  36   2.0000      -0.696501       -18.9528
  37   2.0000      -0.655007       -17.8237
  38   2.0000      -0.641591       -17.4586
  39   2.0000      -0.623813       -16.9748
  40   2.0000      -0.604418       -16.4470
  41   2.0000      -0.569887       -15.5074
  42   2.0000      -0.564779       -15.3684
  43   2.0000      -0.558504       -15.1977
  44   2.0000      -0.532982       -14.5032
  45   2.0000      -0.527262       -14.3475
  46   2.0000      -0.514512       -14.0006
  47   2.0000      -0.512090       -13.9347
  48   2.0000      -0.504666       -13.7327
  49   2.0000      -0.494166       -13.4469
  50   2.0000      -0.489183       -13.3113
  51   2.0000      -0.479483       -13.0474
  52   2.0000      -0.467852       -12.7309
  53   2.0000      -0.465744       -12.6735
  54   2.0000      -0.457480       -12.4487
  55   2.0000      -0.450827       -12.2676
  56   2.0000      -0.447285       -12.1712
  57   2.0000      -0.442083       -12.0297
  58   2.0000      -0.434103       -11.8126
  59   2.0000      -0.427995       -11.6463
  60   2.0000      -0.417713       -11.3665
  61   2.0000      -0.414704       -11.2847
  62   2.0000      -0.401677       -10.9302
  63   2.0000      -0.346768        -9.4360
  64   2.0000      -0.326867        -8.8945
  65   2.0000      -0.325724        -8.8634
  66   2.0000      -0.290612        -7.9080
  67   0.0000       0.035448         0.9646
  68   0.0000       0.066576         1.8116
  69   0.0000       0.108674         2.9572
  70   0.0000       0.121954         3.3185
  71   0.0000       0.132003         3.5920

MULLIKEN ATOMIC CHARGES
-----------------------
   0 S :    0.122910
   1 C :   -0.074109
   2 C :   -0.137552
   3 C :    0.056960
   4 C :   -0.177423
   5 H :    0.008540
   6 C :    0.087126
   7 H :    0.029050
   8 H :    0.002876
   9 C :   -0.053634
  10 H :    0.014174
  11 H :    0.015580
  12 C :   -0.034950
  13 H :    0.010933
  14 H :    0.031256
  15 H :    0.039063
  16 S :    0.117898
  17 C :   -0.053055
  18 C :   -0.039490
  19 C :   -0.038308
  20 C :   -0.151261
  21 H :    0.039029
  22 C :    0.096226
  23 H :    0.041853
  24 H :    0.020526
  25 C :   -0.115741
  26 H :    0.041349
  27 H :    0.031840
  28 C :   -0.071356
  29 H :    0.036124
  30 H :    0.026770
  31 H :    0.018726
  32 H :    0.031207
  33 H :    0.026863
Sum of atomic charges:   -0.0000000

LOEWDIN ATOMIC CHARGES
----------------------
   0 S :    0.411893
   1 C :   -0.217381
   2 C :   -0.058736
   3 C :   -0.044839
   4 C :   -0.178102
   5 H :    0.025559
   6 C :   -0.035622
   7 H :    0.036453
   8 H :    0.026075
   9 C :   -0.048671
  10 H :    0.028222
  11 H :    0.022646
  12 C :   -0.065795
  13 H :    0.017712
  14 H :    0.028550
  15 H :    0.032410
  16 S :    0.422337
  17 C :   -0.180728
  18 C :   -0.070671
  19 C :   -0.050965
  20 C :   -0.217785
  21 H :    0.037927
  22 C :   -0.028297
  23 H :    0.037869
  24 H :    0.032936
  25 C :   -0.044086
  26 H :    0.030753
  27 H :    0.016812
  28 C :   -0.068029
  29 H :    0.024116
  30 H :    0.021724
  31 H :    0.020970
  32 H :    0.022879
  33 H :    0.011866

  Mayer bond orders larger than 0.100000
B(  0-S ,  1-C ) :   1.1394 B(  0-S ,  4-C ) :   1.1429 B(  1-C ,  2-C ) :   1.6098
B(  1-C , 32-H ) :   0.9648 B(  2-C ,  3-C ) :   1.2282 B(  2-C ,  6-C ) :   1.0438
B(  3-C ,  4-C ) :   1.5865 B(  3-C ,  5-H ) :   0.9952 B(  4-C , 20-C ) :   1.0526
B(  6-C ,  7-H ) :   0.9307 B(  6-C ,  8-H ) :   0.9379 B(  6-C ,  9-C ) :   1.0708
B(  9-C , 10-H ) :   0.9479 B(  9-C , 11-H ) :   0.9504 B(  9-C , 12-C ) :   1.0796
B( 12-C , 13-H ) :   0.9733 B( 12-C , 14-H ) :   0.9724 B( 12-C , 15-H ) :   0.9729
B( 16-S , 17-C ) :   1.1607 B( 16-S , 20-C ) :   1.1382 B( 17-C , 18-C ) :   1.6003
B( 17-C , 33-H ) :   0.9781 B( 18-C , 19-C ) :   1.2487 B( 18-C , 21-H ) :   0.9755
B( 19-C , 20-C ) :   1.5895 B( 19-C , 22-C ) :   1.0412 B( 22-C , 23-H ) :   0.9288
B( 22-C , 24-H ) :   0.9381 B( 22-C , 25-C ) :   1.0553 B( 25-C , 26-H ) :   0.9613
B( 25-C , 27-H ) :   0.9543 B( 25-C , 28-C ) :   1.0771 B( 28-C , 29-H ) :   0.9771
B( 28-C , 30-H ) :   0.9747 B( 28-C , 31-H ) :   0.9731

Dispersion correction           -0.013988498
FINAL SINGLE POINT ENERGY     -1339.863863412061

DIPOLE MOMENT
-------------
                                X             Y             Z
Electronic contribution:     19.10731      12.84941      -7.74133
Nuclear contribution   :    -19.49365     -13.39650       7.92054
                        -----------------------------------------
Total Dipole Moment    :     -0.38634      -0.54709       0.17921
                        -----------------------------------------
Magnitude (a.u.)       :      0.69331
Magnitude (Debye)      :      1.76226

Rotational constants in cm-1:     0.017475     0.008357     0.006899
Rotational constants in MHz :   523.877872   250.542193   206.841464

                             ****ORCA TERMINATED NORMALLY****
TOTAL RUN TIME: 0 days 0 hours 0 minutes 34 seconds 120 msec
