                         Program Version 4.2.1 -  RELEASE  -
|  1> ! wB97X-D3 SP def2-SVP
|  2> %pal
|  3> nprocs 16
|  4> end
|  5>
|  6> * xyz 0 1
|  7> S 	 -66.5584 	 38.249 	 143.707
|  8> C 	 -67.9328 	 37.4795 	 142.833
|  9> C 	 -67.4649 	 36.6517 	 141.871
| 10> C 	 -66.0753 	 36.9288 	 141.574
| 11> C 	 -65.5029 	 37.9277 	 142.359
| 12> H 	 -65.5121 	 36.4372 	 140.86
| 13> C 	 -68.3133 	 35.6978 	 141.128
| 14> H 	 -68.9158 	 35.0404 	 141.921
| 15> H 	 -67.5602 	 35.0199 	 140.8
| 16> C 	 -69.1985 	 36.0901 	 140.031
| 17> H 	 -69.6783 	 36.9519 	 140.461
| 18> H 	 -68.6124 	 36.5683 	 139.278
| 19> C 	 -70.0995 	 35.0732 	 139.394
| 20> H 	 -69.6269 	 34.1097 	 139.195
| 21> H 	 -71.037 	 34.8695 	 139.959
| 22> H 	 -70.4155 	 35.3321 	 138.355
| 23> S 	 -62.9754 	 37.7378 	 143.446
| 24> C 	 -61.7644 	 38.8461 	 142.84
| 25> C 	 -62.1848 	 39.5463 	 141.745
| 26> C 	 -63.5373 	 39.3138 	 141.399
| 27> C 	 -64.1422 	 38.4232 	 142.316
| 28> H 	 -61.4334 	 40.2369 	 141.307
| 29> C 	 -64.197 	 39.8882 	 140.145
| 30> H 	 -65.221 	 39.4774 	 139.992
| 31> H 	 -63.7228 	 39.3939 	 139.281
| 32> C 	 -64.3276 	 41.4008 	 139.933
| 33> H 	 -65.171 	 41.4157 	 139.223
| 34> H 	 -63.4602 	 41.789 	 139.425
| 35> C 	 -64.7699 	 42.1725 	 141.164
| 36> H 	 -65.0395 	 43.1652 	 140.995
| 37> H 	 -63.9847 	 42.0865 	 141.89
| 38> H 	 -65.6138 	 41.6209 	 141.658
| 39> H 	 -68.8523 	 37.3743 	 143.337
| 40> H 	 -60.753 	 38.8494 	 143.211
| 41> *
| 42>
| 43>                          ****END OF INPUT****

CARTESIAN COORDINATES (ANGSTROEM)
---------------------------------
  S    -66.558400   38.249000  143.707000
  C    -67.932800   37.479500  142.833000
  C    -67.464900   36.651700  141.871000
  C    -66.075300   36.928800  141.574000
  C    -65.502900   37.927700  142.359000
  H    -65.512100   36.437200  140.860000
  C    -68.313300   35.697800  141.128000
  H    -68.915800   35.040400  141.921000
  H    -67.560200   35.019900  140.800000
  C    -69.198500   36.090100  140.031000
  H    -69.678300   36.951900  140.461000
  H    -68.612400   36.568300  139.278000
  C    -70.099500   35.073200  139.394000
  H    -69.626900   34.109700  139.195000
  H    -71.037000   34.869500  139.959000
  H    -70.415500   35.332100  138.355000
  S    -62.975400   37.737800  143.446000
  C    -61.764400   38.846100  142.840000
  C    -62.184800   39.546300  141.745000
  C    -63.537300   39.313800  141.399000
  C    -64.142200   38.423200  142.316000
  H    -61.433400   40.236900  141.307000
  C    -64.197000   39.888200  140.145000
  H    -65.221000   39.477400  139.992000
  H    -63.722800   39.393900  139.281000
  C    -64.327600   41.400800  139.933000
  H    -65.171000   41.415700  139.223000
  H    -63.460200   41.789000  139.425000
  C    -64.769900   42.172500  141.164000
  H    -65.039500   43.165200  140.995000
  H    -63.984700   42.086500  141.890000
  H    -65.613800   41.620900  141.658000
  H    -68.852300   37.374300  143.337000
  H    -60.753000   38.849400  143.211000

 Total Charge           Charge          ....    0
 Multiplicity           Mult            ....    1
 Number of Electrons    NEL             ....  134
 Basis Dimension        Dim             ....  322

ORBITAL ENERGIES
----------------

  NO   OCC          E(Eh)            E(eV)
   0   2.0000     -88.966669     -2420.9061
   1   2.0000     -88.960480     -2420.7377
   2   2.0000     -10.328597      -281.0554
   3   2.0000     -10.327259      -281.0190
   4   2.0000     -10.314663      -280.6763
   5   2.0000     -10.309951      -280.5480
   6   2.0000     -10.308578      -280.5107
   7   2.0000     -10.300557      -280.2924
   8   2.0000     -10.294415      -280.1253
   9   2.0000     -10.292984      -280.0863
  10   2.0000     -10.292640      -280.0770
  11   2.0000     -10.291670      -280.0506
  12   2.0000     -10.285704      -279.8882
  13   2.0000     -10.282687      -279.8061
  14   2.0000     -10.279633      -279.7230
  15   2.0000     -10.267557      -279.3944
  16   2.0000      -8.081314      -219.9037
  17   2.0000      -8.075128      -219.7354
  18   2.0000      -6.039742      -164.3497
  19   2.0000      -6.035925      -164.2459
  20   2.0000      -6.033617      -164.1831
  21   2.0000      -6.032094      -164.1416
  22   2.0000      -6.029951      -164.0833
  23   2.0000      -6.025592      -163.9647
  24   2.0000      -1.005064       -27.3492
  25   2.0000      -0.983962       -26.7750
  26   2.0000      -0.924000       -25.1433
  27   2.0000      -0.907062       -24.6824
  28   2.0000      -0.873665       -23.7736
  29   2.0000      -0.848109       -23.0782
  30   2.0000      -0.846227       -23.0270
  31   2.0000      -0.814652       -22.1678
  32   2.0000      -0.787830       -21.4379
  33   2.0000      -0.776567       -21.1315
  34   2.0000      -0.711335       -19.3564
  35   2.0000      -0.708541       -19.2804
  36   2.0000      -0.690972       -18.8023
  37   2.0000      -0.651632       -17.7318
  38   2.0000      -0.646910       -17.6033
  39   2.0000      -0.617229       -16.7957
  40   2.0000      -0.596533       -16.2325
  41   2.0000      -0.573403       -15.6031
  42   2.0000      -0.561976       -15.2921
  43   2.0000      -0.556337       -15.1387
  44   2.0000      -0.543679       -14.7943
  45   2.0000      -0.525160       -14.2903
  46   2.0000      -0.521113       -14.1802
  47   2.0000      -0.512668       -13.9504
  48   2.0000      -0.508378       -13.8337
  49   2.0000      -0.494791       -13.4639
  50   2.0000      -0.490340       -13.3428
  51   2.0000      -0.478058       -13.0086
  52   2.0000      -0.464872       -12.6498
  53   2.0000      -0.462613       -12.5883
  54   2.0000      -0.458132       -12.4664
  55   2.0000      -0.455827       -12.4037
  56   2.0000      -0.445458       -12.1215
  57   2.0000      -0.441759       -12.0209
  58   2.0000      -0.435085       -11.8393
  59   2.0000      -0.420682       -11.4473
  60   2.0000      -0.417164       -11.3516
  61   2.0000      -0.407445       -11.0871
  62   2.0000      -0.403133       -10.9698
  63   2.0000      -0.337799        -9.1920
  64   2.0000      -0.328963        -8.9516
  65   2.0000      -0.323843        -8.8122
  66   2.0000      -0.303639        -8.2624
  67   0.0000       0.033775         0.9191
  68   0.0000       0.052644         1.4325
  69   0.0000       0.100777         2.7423
  70   0.0000       0.114311         3.1106
  71   0.0000       0.135275         3.6810

MULLIKEN ATOMIC CHARGES
-----------------------
   0 S :    0.090741
   1 C :   -0.100071
   2 C :   -0.096854
   3 C :    0.077129
   4 C :   -0.163377
   5 H :   -0.019106
   6 C :    0.026425
   7 H :    0.036578
   8 H :    0.002865
   9 C :    0.019798
  10 H :    0.008015
  11 H :    0.006446
  12 C :   -0.049248
  13 H :    0.026949
  14 H :    0.041913
  15 H :    0.033653
  16 S :    0.115749
  17 C :   -0.098502
  18 C :   -0.043085
  19 C :   -0.004511
  20 C :   -0.190731
  21 H :    0.033864
  22 C :    0.036459
  23 H :    0.023283
  24 H :    0.036101
  25 C :   -0.069683
  26 H :    0.026092
  27 H :    0.027896
  28 C :   -0.012948
  29 H :    0.029505
  30 H :    0.026121
  31 H :    0.030409
  32 H :    0.038717
  33 H :    0.053409
Sum of atomic charges:   -0.0000000

LOEWDIN ATOMIC CHARGES
----------------------
   0 S :    0.382420
   1 C :   -0.166415
   2 C :   -0.062890
   3 C :   -0.048130
   4 C :   -0.194716
   5 H :    0.017071
   6 C :   -0.041817
   7 H :    0.040539
   8 H :    0.022631
   9 C :   -0.049274
  10 H :    0.025689
  11 H :    0.024575
  12 C :   -0.068522
  13 H :    0.026978
  14 H :    0.030930
  15 H :    0.034238
  16 S :    0.402052
  17 C :   -0.181368
  18 C :   -0.078251
  19 C :   -0.050832
  20 C :   -0.203459
  21 H :    0.041105
  22 C :   -0.040904
  23 H :    0.034243
  24 H :    0.038345
  25 C :   -0.042246
  26 H :    0.029398
  27 H :    0.017417
  28 C :   -0.058744
  29 H :    0.017464
  30 H :    0.023091
  31 H :    0.035331
  32 H :    0.017557
  33 H :    0.026494

  Mayer bond orders larger than 0.100000
B(  0-S ,  1-C ) :   1.1236 B(  0-S ,  4-C ) :   1.1501 B(  1-C ,  2-C ) :   1.6239
B(  1-C , 32-H ) :   0.9739 B(  2-C ,  3-C ) :   1.2161 B(  2-C ,  6-C ) :   1.0307
B(  3-C ,  4-C ) :   1.5756 B(  3-C ,  5-H ) :   1.0105 B(  4-C , 20-C ) :   1.0348
B(  6-C ,  7-H ) :   0.9328 B(  6-C ,  8-H ) :   0.9212 B(  6-C ,  9-C ) :   1.0755
B(  9-C , 10-H ) :   0.9461 B(  9-C , 11-H ) :   0.9400 B(  9-C , 12-C ) :   1.0782
B( 12-C , 13-H ) :   0.9737 B( 12-C , 14-H ) :   0.9735 B( 12-C , 15-H ) :   0.9726
B( 16-S , 17-C ) :   1.1489 B( 16-S , 20-C ) :   1.1571 B( 17-C , 18-C ) :   1.6275
B( 17-C , 20-C ) :   0.1036 B( 17-C , 33-H ) :   0.9671 B( 18-C , 19-C ) :   1.2251
B( 18-C , 21-H ) :   0.9863 B( 19-C , 20-C ) :   1.5870 B( 19-C , 22-C ) :   1.0428
B( 22-C , 23-H ) :   0.9324 B( 22-C , 24-H ) :   0.9343 B( 22-C , 25-C ) :   1.0659
B( 25-C , 26-H ) :   0.9571 B( 25-C , 27-H ) :   0.9563 B( 25-C , 28-C ) :   1.0848
B( 28-C , 29-H ) :   0.9749 B( 28-C , 30-H ) :   0.9677 B( 28-C , 31-H ) :   0.9704

Dispersion correction           -0.014282605
FINAL SINGLE POINT ENERGY     -1339.856757019026

DIPOLE MOMENT
-------------
                                X             Y             Z
Electronic contribution:     14.72266      -2.41175      20.40699
Nuclear contribution   :    -14.76250       2.24703     -21.03561
                        -----------------------------------------
Total Dipole Moment    :     -0.03984      -0.16471      -0.62862
                        -----------------------------------------
Magnitude (a.u.)       :      0.65106
Magnitude (Debye)      :      1.65487

Rotational constants in cm-1:     0.020358     0.007591     0.006618
Rotational constants in MHz :   610.325584   227.568478   198.399779

                             ****ORCA TERMINATED NORMALLY****
TOTAL RUN TIME: 0 days 0 hours 0 minutes 34 seconds 431 msec
