                         Program Version 4.2.1 -  RELEASE  -
|  1> ! wB97X-D3 SP def2-SVP
|  2> %pal
|  3> nprocs 16
|  4> end
|  5>
|  6> * xyz 0 1
|  7> S 	 1.88548 	 -1.82232 	 81.329
|  8> C 	 1.91406 	 -1.69176 	 83.0743
|  9> C 	 1.19299 	 -2.70948 	 83.6939
| 10> C 	 0.811724 	 -3.67503 	 82.7935
| 11> C 	 1.12048 	 -3.40393 	 81.4538
| 12> H 	 0.492154 	 -4.65453 	 83.1296
| 13> C 	 1.03062 	 -2.94982 	 85.1634
| 14> H 	 0.0633913 	 -3.40628 	 85.307
| 15> H 	 0.900386 	 -1.89869 	 85.6088
| 16> C 	 2.18831 	 -3.76554 	 85.7803
| 17> H 	 1.83329 	 -3.77995 	 86.8173
| 18> H 	 2.07523 	 -4.82133 	 85.6051
| 19> C 	 3.59595 	 -3.32448 	 85.526
| 20> H 	 3.8454 	 -3.13653 	 84.4253
| 21> H 	 3.7868 	 -2.38928 	 86.0161
| 22> H 	 4.3466 	 -4.05864 	 85.9449
| 23> S 	 -0.510075 	 -4.0042 	 79.3115
| 24> C 	 -0.00713474 	 -5.34309 	 78.2824
| 25> C 	 1.01205 	 -6.05358 	 78.7438
| 26> C 	 1.51133 	 -5.43152 	 79.9651
| 27> C 	 0.916393 	 -4.22451 	 80.2946
| 28> H 	 1.39555 	 -6.94247 	 78.232
| 29> C 	 2.72661 	 -6.00125 	 80.6715
| 30> H 	 3.18908 	 -5.12058 	 81.1158
| 31> H 	 3.46074 	 -6.30522 	 79.9126
| 32> C 	 2.49142 	 -7.0216 	 81.7577
| 33> H 	 1.76435 	 -6.77531 	 82.5054
| 34> H 	 3.36205 	 -7.01643 	 82.3419
| 35> C 	 2.35658 	 -8.47702 	 81.3263
| 36> H 	 1.95452 	 -9.08286 	 82.1635
| 37> H 	 3.26518 	 -8.95854 	 80.9997
| 38> H 	 1.53995 	 -8.62822 	 80.6362
| 39> H 	 2.18543 	 -0.706975 	 83.5636
| 40> H 	 -0.702494 	 -5.75826 	 77.501
| 41> *
| 42>
| 43>                          ****END OF INPUT****

CARTESIAN COORDINATES (ANGSTROEM)
---------------------------------
  S      1.885480   -1.822320   81.329000
  C      1.914060   -1.691760   83.074300
  C      1.192990   -2.709480   83.693900
  C      0.811724   -3.675030   82.793500
  C      1.120480   -3.403930   81.453800
  H      0.492154   -4.654530   83.129600
  C      1.030620   -2.949820   85.163400
  H      0.063391   -3.406280   85.307000
  H      0.900386   -1.898690   85.608800
  C      2.188310   -3.765540   85.780300
  H      1.833290   -3.779950   86.817300
  H      2.075230   -4.821330   85.605100
  C      3.595950   -3.324480   85.526000
  H      3.845400   -3.136530   84.425300
  H      3.786800   -2.389280   86.016100
  H      4.346600   -4.058640   85.944900
  S     -0.510075   -4.004200   79.311500
  C     -0.007135   -5.343090   78.282400
  C      1.012050   -6.053580   78.743800
  C      1.511330   -5.431520   79.965100
  C      0.916393   -4.224510   80.294600
  H      1.395550   -6.942470   78.232000
  C      2.726610   -6.001250   80.671500
  H      3.189080   -5.120580   81.115800
  H      3.460740   -6.305220   79.912600
  C      2.491420   -7.021600   81.757700
  H      1.764350   -6.775310   82.505400
  H      3.362050   -7.016430   82.341900
  C      2.356580   -8.477020   81.326300
  H      1.954520   -9.082860   82.163500
  H      3.265180   -8.958540   80.999700
  H      1.539950   -8.628220   80.636200
  H      2.185430   -0.706975   83.563600
  H     -0.702494   -5.758260   77.501000

 Total Charge           Charge          ....    0
 Multiplicity           Mult            ....    1
 Number of Electrons    NEL             ....  134
 Basis Dimension        Dim             ....  322

ORBITAL ENERGIES
----------------

  NO   OCC          E(Eh)            E(eV)
   0   2.0000     -88.967840     -2420.9380
   1   2.0000     -88.959591     -2420.7135
   2   2.0000     -10.327648      -281.0296
   3   2.0000     -10.319296      -280.8023
   4   2.0000     -10.317588      -280.7558
   5   2.0000     -10.314067      -280.6600
   6   2.0000     -10.301153      -280.3086
   7   2.0000     -10.297629      -280.2127
   8   2.0000     -10.292476      -280.0725
   9   2.0000     -10.290519      -280.0193
  10   2.0000     -10.289703      -279.9970
  11   2.0000     -10.288216      -279.9566
  12   2.0000     -10.284720      -279.8615
  13   2.0000     -10.283502      -279.8283
  14   2.0000     -10.277289      -279.6593
  15   2.0000     -10.274548      -279.5847
  16   2.0000      -8.082226      -219.9285
  17   2.0000      -8.074715      -219.7242
  18   2.0000      -6.040519      -164.3709
  19   2.0000      -6.036737      -164.2680
  20   2.0000      -6.033288      -164.1741
  21   2.0000      -6.033230      -164.1725
  22   2.0000      -6.029396      -164.0682
  23   2.0000      -6.025210      -163.9543
  24   2.0000      -1.006956       -27.4007
  25   2.0000      -0.985759       -26.8239
  26   2.0000      -0.915014       -24.8988
  27   2.0000      -0.909110       -24.7381
  28   2.0000      -0.871399       -23.7120
  29   2.0000      -0.852554       -23.1992
  30   2.0000      -0.846312       -23.0293
  31   2.0000      -0.812954       -22.1216
  32   2.0000      -0.786564       -21.4035
  33   2.0000      -0.771155       -20.9842
  34   2.0000      -0.712678       -19.3929
  35   2.0000      -0.701925       -19.1004
  36   2.0000      -0.690216       -18.7817
  37   2.0000      -0.655339       -17.8327
  38   2.0000      -0.635777       -17.3004
  39   2.0000      -0.620401       -16.8820
  40   2.0000      -0.592111       -16.1122
  41   2.0000      -0.567753       -15.4493
  42   2.0000      -0.554263       -15.0823
  43   2.0000      -0.547076       -14.8867
  44   2.0000      -0.544373       -14.8131
  45   2.0000      -0.536887       -14.6094
  46   2.0000      -0.521553       -14.1922
  47   2.0000      -0.510610       -13.8944
  48   2.0000      -0.499655       -13.5963
  49   2.0000      -0.494828       -13.4650
  50   2.0000      -0.485875       -13.2213
  51   2.0000      -0.478432       -13.0188
  52   2.0000      -0.472217       -12.8497
  53   2.0000      -0.461194       -12.5497
  54   2.0000      -0.456882       -12.4324
  55   2.0000      -0.454288       -12.3618
  56   2.0000      -0.442484       -12.0406
  57   2.0000      -0.437887       -11.9155
  58   2.0000      -0.435167       -11.8415
  59   2.0000      -0.428010       -11.6468
  60   2.0000      -0.421186       -11.4611
  61   2.0000      -0.404653       -11.0112
  62   2.0000      -0.403448       -10.9784
  63   2.0000      -0.339483        -9.2378
  64   2.0000      -0.333895        -9.0857
  65   2.0000      -0.317524        -8.6403
  66   2.0000      -0.304783        -8.2936
  67   0.0000       0.037795         1.0285
  68   0.0000       0.056590         1.5399
  69   0.0000       0.116182         3.1615
  70   0.0000       0.118831         3.2335
  71   0.0000       0.124474         3.3871

MULLIKEN ATOMIC CHARGES
-----------------------
   0 S :    0.121987
   1 C :   -0.156655
   2 C :   -0.098412
   3 C :    0.058154
   4 C :   -0.206339
   5 H :    0.006244
   6 C :    0.043241
   7 H :    0.024060
   8 H :    0.033337
   9 C :   -0.044255
  10 H :    0.026186
  11 H :    0.015102
  12 C :   -0.058725
  13 H :    0.065050
  14 H :    0.022998
  15 H :    0.044479
  16 S :    0.098225
  17 C :   -0.093167
  18 C :   -0.026460
  19 C :   -0.047012
  20 C :   -0.142989
  21 H :    0.031137
  22 C :    0.056633
  23 H :    0.022242
  24 H :    0.025868
  25 C :   -0.005869
  26 H :    0.011461
  27 H :    0.007552
  28 C :   -0.053806
  29 H :    0.022732
  30 H :    0.036230
  31 H :    0.020427
  32 H :    0.070156
  33 H :    0.070190
Sum of atomic charges:    0.0000000

LOEWDIN ATOMIC CHARGES
----------------------
   0 S :    0.413968
   1 C :   -0.211153
   2 C :   -0.076138
   3 C :   -0.054592
   4 C :   -0.197051
   5 H :    0.029288
   6 C :   -0.032495
   7 H :    0.031144
   8 H :    0.036814
   9 C :   -0.048006
  10 H :    0.030857
  11 H :    0.021687
  12 C :   -0.073575
  13 H :    0.039839
  14 H :    0.021049
  15 H :    0.036117
  16 S :    0.391947
  17 C :   -0.179980
  18 C :   -0.078236
  19 C :   -0.044016
  20 C :   -0.216493
  21 H :    0.039589
  22 C :   -0.034901
  23 H :    0.033675
  24 H :    0.033651
  25 C :   -0.039228
  26 H :    0.023306
  27 H :    0.023108
  28 C :   -0.068821
  29 H :    0.031237
  30 H :    0.023009
  31 H :    0.019927
  32 H :    0.036314
  33 H :    0.038161

  Mayer bond orders larger than 0.100000
B(  0-S ,  1-C ) :   1.1590 B(  0-S ,  4-C ) :   1.1658 B(  1-C ,  2-C ) :   1.5661
B(  1-C ,  4-C ) :   0.1176 B(  1-C , 32-H ) :   0.9568 B(  2-C ,  3-C ) :   1.2896
B(  2-C ,  6-C ) :   1.0299 B(  3-C ,  4-C ) :   1.5420 B(  3-C ,  5-H ) :   0.9944
B(  4-C , 20-C ) :   1.0261 B(  6-C ,  7-H ) :   0.9353 B(  6-C ,  8-H ) :   0.9401
B(  6-C ,  9-C ) :   1.0634 B(  9-C , 10-H ) :   0.9497 B(  9-C , 11-H ) :   0.9520
B(  9-C , 12-C ) :   1.0755 B( 12-C , 13-H ) :   0.9658 B( 12-C , 14-H ) :   0.9735
B( 12-C , 15-H ) :   0.9701 B( 16-S , 17-C ) :   1.1419 B( 16-S , 20-C ) :   1.1246
B( 17-C , 18-C ) :   1.6581 B( 17-C , 33-H ) :   0.9515 B( 18-C , 19-C ) :   1.1999
B( 18-C , 21-H ) :   0.9909 B( 19-C , 20-C ) :   1.6369 B( 19-C , 22-C ) :   1.0426
B( 22-C , 23-H ) :   0.9253 B( 22-C , 24-H ) :   0.9431 B( 22-C , 25-C ) :   1.0744
B( 25-C , 26-H ) :   0.9508 B( 25-C , 27-H ) :   0.9447 B( 25-C , 28-C ) :   1.0846
B( 28-C , 29-H ) :   0.9686 B( 28-C , 30-H ) :   0.9773 B( 28-C , 31-H ) :   0.9741

Dispersion correction           -0.015581287
FINAL SINGLE POINT ENERGY     -1339.869140565989

DIPOLE MOMENT
-------------
                                X             Y             Z
Electronic contribution:    -12.08841      16.35433     -20.12914
Nuclear contribution   :     12.27908     -16.89187      20.68583
                        -----------------------------------------
Total Dipole Moment    :      0.19066      -0.53754       0.55669
                        -----------------------------------------
Magnitude (a.u.)       :      0.79700
Magnitude (Debye)      :      2.02581

Rotational constants in cm-1:     0.018748     0.009784     0.007313
Rotational constants in MHz :   562.054049   293.306355   219.248171

                             ****ORCA TERMINATED NORMALLY****
TOTAL RUN TIME: 0 days 0 hours 0 minutes 37 seconds 195 msec
