                         Program Version 4.2.1 -  RELEASE  -
|  1> ! wB97X-D3 SP def2-SVP
|  2> %pal
|  3> nprocs 16
|  4> end
|  5>
|  6> * xyz 0 1
|  7> S 	 31.4286 	 30.8187 	 57.9204
|  8> C 	 33.0032 	 30.2364 	 58.0841
|  9> C 	 33.9225 	 31.0162 	 57.3575
| 10> C 	 33.304 	 32.0944 	 56.7306
| 11> C 	 31.945 	 32.207 	 56.9821
| 12> H 	 33.6927 	 32.8401 	 56.0438
| 13> C 	 35.4579 	 30.8151 	 57.179
| 14> H 	 35.8914 	 31.5767 	 57.81
| 15> H 	 35.8457 	 31.2351 	 56.2365
| 16> C 	 36.1188 	 29.4354 	 57.3992
| 17> H 	 35.8249 	 29.0516 	 58.4063
| 18> H 	 35.672 	 28.7368 	 56.6522
| 19> C 	 37.6051 	 29.5338 	 57.2177
| 20> H 	 37.7363 	 29.6833 	 56.1471
| 21> H 	 38.0303 	 30.4029 	 57.7812
| 22> H 	 38.0901 	 28.6522 	 57.5537
| 23> S 	 29.6179 	 32.8959 	 55.5574
| 24> C 	 28.9842 	 34.5196 	 55.626
| 25> C 	 29.8014 	 35.269 	 56.4471
| 26> C 	 31.0404 	 34.63 	 56.8199
| 27> C 	 31.0157 	 33.2693 	 56.5004
| 28> H 	 29.5351 	 36.2938 	 56.5936
| 29> C 	 32.1696 	 35.2961 	 57.6333
| 30> H 	 33.0473 	 34.6784 	 57.7913
| 31> H 	 31.7803 	 35.2731 	 58.6608
| 32> C 	 32.5465 	 36.7724 	 57.2335
| 33> H 	 33.4443 	 37.0146 	 57.7408
| 34> H 	 31.8536 	 37.5184 	 57.6387
| 35> C 	 32.8124 	 36.8208 	 55.7357
| 36> H 	 32.9116 	 37.8944 	 55.3133
| 37> H 	 32.0799 	 36.3507 	 55.11
| 38> H 	 33.753 	 36.3776 	 55.5807
| 39> H 	 33.3083 	 29.4103 	 58.5867
| 40> H 	 28.0829 	 34.9633 	 55.2122
| 41> *
| 42>
| 43>                          ****END OF INPUT****

CARTESIAN COORDINATES (ANGSTROEM)
---------------------------------
  S     31.428600   30.818700   57.920400
  C     33.003200   30.236400   58.084100
  C     33.922500   31.016200   57.357500
  C     33.304000   32.094400   56.730600
  C     31.945000   32.207000   56.982100
  H     33.692700   32.840100   56.043800
  C     35.457900   30.815100   57.179000
  H     35.891400   31.576700   57.810000
  H     35.845700   31.235100   56.236500
  C     36.118800   29.435400   57.399200
  H     35.824900   29.051600   58.406300
  H     35.672000   28.736800   56.652200
  C     37.605100   29.533800   57.217700
  H     37.736300   29.683300   56.147100
  H     38.030300   30.402900   57.781200
  H     38.090100   28.652200   57.553700
  S     29.617900   32.895900   55.557400
  C     28.984200   34.519600   55.626000
  C     29.801400   35.269000   56.447100
  C     31.040400   34.630000   56.819900
  C     31.015700   33.269300   56.500400
  H     29.535100   36.293800   56.593600
  C     32.169600   35.296100   57.633300
  H     33.047300   34.678400   57.791300
  H     31.780300   35.273100   58.660800
  C     32.546500   36.772400   57.233500
  H     33.444300   37.014600   57.740800
  H     31.853600   37.518400   57.638700
  C     32.812400   36.820800   55.735700
  H     32.911600   37.894400   55.313300
  H     32.079900   36.350700   55.110000
  H     33.753000   36.377600   55.580700
  H     33.308300   29.410300   58.586700
  H     28.082900   34.963300   55.212200

 Total Charge           Charge          ....    0
 Multiplicity           Mult            ....    1
 Number of Electrons    NEL             ....  134
 Basis Dimension        Dim             ....  322

ORBITAL ENERGIES
----------------

  NO   OCC          E(Eh)            E(eV)
   0   2.0000     -88.968454     -2420.9547
   1   2.0000     -88.965527     -2420.8751
   2   2.0000     -10.328791      -281.0607
   3   2.0000     -10.326638      -281.0021
   4   2.0000     -10.317615      -280.7566
   5   2.0000     -10.307631      -280.4849
   6   2.0000     -10.305499      -280.4269
   7   2.0000     -10.302790      -280.3532
   8   2.0000     -10.294735      -280.1340
   9   2.0000     -10.293102      -280.0896
  10   2.0000     -10.292794      -280.0812
  11   2.0000     -10.292364      -280.0695
  12   2.0000     -10.289122      -279.9812
  13   2.0000     -10.286908      -279.9210
  14   2.0000     -10.279550      -279.7208
  15   2.0000     -10.273953      -279.5685
  16   2.0000      -8.083783      -219.9709
  17   2.0000      -8.080440      -219.8800
  18   2.0000      -6.042078      -164.4133
  19   2.0000      -6.038982      -164.3290
  20   2.0000      -6.038076      -164.3044
  21   2.0000      -6.034865      -164.2170
  22   2.0000      -6.034795      -164.2151
  23   2.0000      -6.031265      -164.1191
  24   2.0000      -1.008485       -27.4423
  25   2.0000      -0.988799       -26.9066
  26   2.0000      -0.910850       -24.7855
  27   2.0000      -0.904196       -24.6044
  28   2.0000      -0.868926       -23.6447
  29   2.0000      -0.857308       -23.3285
  30   2.0000      -0.843033       -22.9401
  31   2.0000      -0.816191       -22.2097
  32   2.0000      -0.780822       -21.2472
  33   2.0000      -0.771615       -20.9967
  34   2.0000      -0.709607       -19.3094
  35   2.0000      -0.703045       -19.1308
  36   2.0000      -0.691808       -18.8250
  37   2.0000      -0.654858       -17.8196
  38   2.0000      -0.647896       -17.6301
  39   2.0000      -0.613878       -16.7045
  40   2.0000      -0.593432       -16.1481
  41   2.0000      -0.577249       -15.7077
  42   2.0000      -0.565839       -15.3972
  43   2.0000      -0.547855       -14.9079
  44   2.0000      -0.542612       -14.7652
  45   2.0000      -0.523611       -14.2482
  46   2.0000      -0.519263       -14.1299
  47   2.0000      -0.514713       -14.0060
  48   2.0000      -0.503892       -13.7116
  49   2.0000      -0.496500       -13.5104
  50   2.0000      -0.483368       -13.1531
  51   2.0000      -0.481914       -13.1135
  52   2.0000      -0.479690       -13.0530
  53   2.0000      -0.467108       -12.7106
  54   2.0000      -0.460924       -12.5424
  55   2.0000      -0.448027       -12.1914
  56   2.0000      -0.444507       -12.0957
  57   2.0000      -0.430667       -11.7190
  58   2.0000      -0.427466       -11.6319
  59   2.0000      -0.426150       -11.5961
  60   2.0000      -0.422020       -11.4837
  61   2.0000      -0.419642       -11.4190
  62   2.0000      -0.414689       -11.2843
  63   2.0000      -0.345364        -9.3978
  64   2.0000      -0.330609        -8.9963
  65   2.0000      -0.326392        -8.8816
  66   2.0000      -0.292718        -7.9653
  67   0.0000       0.037528         1.0212
  68   0.0000       0.067893         1.8475
  69   0.0000       0.121956         3.3186
  70   0.0000       0.128393         3.4937
  71   0.0000       0.132331         3.6009

MULLIKEN ATOMIC CHARGES
-----------------------
   0 S :    0.138732
   1 C :   -0.079209
   2 C :   -0.053576
   3 C :    0.020625
   4 C :   -0.178335
   5 H :    0.016447
   6 C :    0.031707
   7 H :    0.022180
   8 H :    0.012479
   9 C :   -0.089925
  10 H :    0.031875
  11 H :    0.042602
  12 C :   -0.025033
  13 H :    0.034129
  14 H :    0.034391
  15 H :    0.031766
  16 S :    0.117845
  17 C :   -0.092202
  18 C :   -0.035317
  19 C :   -0.051324
  20 C :   -0.169698
  21 H :    0.013533
  22 C :    0.053590
  23 H :    0.021653
  24 H :    0.037386
  25 C :   -0.036821
  26 H :    0.016444
  27 H :    0.030617
  28 C :   -0.058393
  29 H :    0.035386
  30 H :    0.047406
  31 H :    0.017627
  32 H :    0.001065
  33 H :    0.060349
Sum of atomic charges:   -0.0000000

LOEWDIN ATOMIC CHARGES
----------------------
   0 S :    0.443620
   1 C :   -0.208121
   2 C :   -0.059917
   3 C :   -0.065851
   4 C :   -0.196799
   5 H :    0.034560
   6 C :   -0.039143
   7 H :    0.030234
   8 H :    0.030084
   9 C :   -0.047035
  10 H :    0.021301
  11 H :    0.029926
  12 C :   -0.060287
  13 H :    0.028799
  14 H :    0.030407
  15 H :    0.022856
  16 S :    0.418979
  17 C :   -0.193203
  18 C :   -0.070808
  19 C :   -0.052593
  20 C :   -0.216886
  21 H :    0.026501
  22 C :   -0.035905
  23 H :    0.029578
  24 H :    0.039953
  25 C :   -0.038772
  26 H :    0.022785
  27 H :    0.022462
  28 C :   -0.066286
  29 H :    0.033454
  30 H :    0.022794
  31 H :    0.019006
  32 H :    0.007003
  33 H :    0.037304

  Mayer bond orders larger than 0.100000
B(  0-S ,  1-C ) :   1.1693 B(  0-S ,  4-C ) :   1.1729 B(  1-C ,  2-C ) :   1.5624
B(  1-C ,  4-C ) :   0.1067 B(  1-C , 32-H ) :   0.9815 B(  2-C ,  3-C ) :   1.2822
B(  2-C ,  6-C ) :   0.9981 B(  3-C ,  4-C ) :   1.5503 B(  3-C ,  5-H ) :   0.9959
B(  4-C , 20-C ) :   1.0210 B(  6-C ,  7-H ) :   0.9321 B(  6-C ,  8-H ) :   0.9482
B(  6-C ,  9-C ) :   1.0555 B(  9-C , 10-H ) :   0.9503 B(  9-C , 11-H ) :   0.9585
B(  9-C , 12-C ) :   1.0836 B( 12-C , 13-H ) :   0.9742 B( 12-C , 14-H ) :   0.9746
B( 12-C , 15-H ) :   0.9715 B( 16-S , 17-C ) :   1.1497 B( 16-S , 20-C ) :   1.1566
B( 17-C , 18-C ) :   1.6148 B( 17-C , 33-H ) :   0.9672 B( 18-C , 19-C ) :   1.2443
B( 18-C , 21-H ) :   0.9877 B( 19-C , 20-C ) :   1.5735 B( 19-C , 22-C ) :   1.0349
B( 22-C , 23-H ) :   0.9385 B( 22-C , 24-H ) :   0.9282 B( 22-C , 25-C ) :   1.0667
B( 25-C , 26-H ) :   0.9551 B( 25-C , 27-H ) :   0.9563 B( 25-C , 28-C ) :   1.0707
B( 28-C , 29-H ) :   0.9740 B( 28-C , 30-H ) :   0.9757 B( 28-C , 31-H ) :   0.9753

Dispersion correction           -0.014132702
FINAL SINGLE POINT ENERGY     -1339.872321603008

DIPOLE MOMENT
-------------
                                X             Y             Z
Electronic contribution:    -26.51609      -8.14683      -0.87944
Nuclear contribution   :     27.08267       8.49954       0.99769
                        -----------------------------------------
Total Dipole Moment    :      0.56658       0.35271       0.11826
                        -----------------------------------------
Magnitude (a.u.)       :      0.67779
Magnitude (Debye)      :      1.72281

Rotational constants in cm-1:     0.021115     0.007457     0.006022
Rotational constants in MHz :   633.012530   223.566284   180.531921

                             ****ORCA TERMINATED NORMALLY****
TOTAL RUN TIME: 0 days 0 hours 0 minutes 33 seconds 893 msec
