                         Program Version 4.2.1 -  RELEASE  -
|  1> ! wB97X-D3 SP def2-SVP
|  2> %pal
|  3> nprocs 16
|  4> end
|  5>
|  6> * xyz 0 1
|  7> S 	 -42.0093 	 25.534 	 84.6082
|  8> C 	 -41.9692 	 23.7988 	 84.1731
|  9> C 	 -43.1946 	 23.3595 	 83.6605
| 10> C 	 -44.1716 	 24.4544 	 83.6051
| 11> C 	 -43.6738 	 25.6618 	 84.0475
| 12> H 	 -45.2136 	 24.3089 	 83.2975
| 13> C 	 -43.6073 	 21.9937 	 83.1445
| 14> H 	 -44.6648 	 21.9826 	 83.2084
| 15> H 	 -43.3798 	 21.2162 	 83.8607
| 16> C 	 -43.3659 	 21.7498 	 81.6631
| 17> H 	 -43.8885 	 20.7954 	 81.4468
| 18> H 	 -43.8114 	 22.5845 	 81.0892
| 19> C 	 -41.943 	 21.5696 	 81.2133
| 20> H 	 -41.4155 	 22.547 	 81.2565
| 21> H 	 -41.355 	 20.811 	 81.7211
| 22> H 	 -41.961 	 21.2567 	 80.1545
| 23> S 	 -45.6983 	 27.4563 	 84.9872
| 24> C 	 -45.9957 	 28.8757 	 84.0416
| 25> C 	 -45.1427 	 28.9244 	 82.9816
| 26> C 	 -44.1698 	 27.8788 	 82.9123
| 27> C 	 -44.3211 	 26.969 	 83.9667
| 28> H 	 -45.27 	 29.6545 	 82.1688
| 29> C 	 -43.1516 	 27.801 	 81.8019
| 30> H 	 -42.1956 	 27.6004 	 82.2459
| 31> H 	 -43.0936 	 28.756 	 81.3091
| 32> C 	 -43.4172 	 26.704 	 80.699
| 33> H 	 -43.1248 	 25.8207 	 81.2603
| 34> H 	 -42.6495 	 26.7484 	 79.8765
| 35> C 	 -44.8619 	 26.6522 	 80.2158
| 36> H 	 -45.5532 	 26.8573 	 80.9702
| 37> H 	 -45.1779 	 25.6945 	 79.7719
| 38> H 	 -45.018 	 27.4854 	 79.488
| 39> H 	 -41.1216 	 23.1428 	 84.2244
| 40> H 	 -46.8659 	 29.5051 	 84.0838
| 41> *
| 42>
| 43>                          ****END OF INPUT****

CARTESIAN COORDINATES (ANGSTROEM)
---------------------------------
  S    -42.009300   25.534000   84.608200
  C    -41.969200   23.798800   84.173100
  C    -43.194600   23.359500   83.660500
  C    -44.171600   24.454400   83.605100
  C    -43.673800   25.661800   84.047500
  H    -45.213600   24.308900   83.297500
  C    -43.607300   21.993700   83.144500
  H    -44.664800   21.982600   83.208400
  H    -43.379800   21.216200   83.860700
  C    -43.365900   21.749800   81.663100
  H    -43.888500   20.795400   81.446800
  H    -43.811400   22.584500   81.089200
  C    -41.943000   21.569600   81.213300
  H    -41.415500   22.547000   81.256500
  H    -41.355000   20.811000   81.721100
  H    -41.961000   21.256700   80.154500
  S    -45.698300   27.456300   84.987200
  C    -45.995700   28.875700   84.041600
  C    -45.142700   28.924400   82.981600
  C    -44.169800   27.878800   82.912300
  C    -44.321100   26.969000   83.966700
  H    -45.270000   29.654500   82.168800
  C    -43.151600   27.801000   81.801900
  H    -42.195600   27.600400   82.245900
  H    -43.093600   28.756000   81.309100
  C    -43.417200   26.704000   80.699000
  H    -43.124800   25.820700   81.260300
  H    -42.649500   26.748400   79.876500
  C    -44.861900   26.652200   80.215800
  H    -45.553200   26.857300   80.970200
  H    -45.177900   25.694500   79.771900
  H    -45.018000   27.485400   79.488000
  H    -41.121600   23.142800   84.224400
  H    -46.865900   29.505100   84.083800

 Total Charge           Charge          ....    0
 Multiplicity           Mult            ....    1
 Number of Electrons    NEL             ....  134
 Basis Dimension        Dim             ....  322

ORBITAL ENERGIES
----------------

  NO   OCC          E(Eh)            E(eV)
   0   2.0000     -88.970332     -2421.0058
   1   2.0000     -88.967572     -2420.9307
   2   2.0000     -10.332080      -281.1502
   3   2.0000     -10.327902      -281.0365
   4   2.0000     -10.319658      -280.8122
   5   2.0000     -10.314748      -280.6786
   6   2.0000     -10.307408      -280.4788
   7   2.0000     -10.303666      -280.3770
   8   2.0000     -10.299855      -280.2733
   9   2.0000     -10.292000      -280.0596
  10   2.0000     -10.291101      -280.0351
  11   2.0000     -10.288830      -279.9733
  12   2.0000     -10.286961      -279.9224
  13   2.0000     -10.286111      -279.8993
  14   2.0000     -10.276953      -279.6501
  15   2.0000     -10.272931      -279.5407
  16   2.0000      -8.083802      -219.9714
  17   2.0000      -8.081865      -219.9187
  18   2.0000      -6.042444      -164.4233
  19   2.0000      -6.040429      -164.3684
  20   2.0000      -6.038497      -164.3159
  21   2.0000      -6.036349      -164.2574
  22   2.0000      -6.034483      -164.2066
  23   2.0000      -6.032677      -164.1575
  24   2.0000      -1.002458       -27.2783
  25   2.0000      -0.979571       -26.6555
  26   2.0000      -0.916434       -24.9374
  27   2.0000      -0.904453       -24.6114
  28   2.0000      -0.867152       -23.5964
  29   2.0000      -0.847280       -23.0557
  30   2.0000      -0.843725       -22.9589
  31   2.0000      -0.812294       -22.1036
  32   2.0000      -0.788847       -21.4656
  33   2.0000      -0.777474       -21.1561
  34   2.0000      -0.710143       -19.3240
  35   2.0000      -0.695737       -18.9320
  36   2.0000      -0.688084       -18.7237
  37   2.0000      -0.657775       -17.8990
  38   2.0000      -0.638731       -17.3808
  39   2.0000      -0.616995       -16.7893
  40   2.0000      -0.589727       -16.0473
  41   2.0000      -0.573117       -15.5953
  42   2.0000      -0.555882       -15.1263
  43   2.0000      -0.547163       -14.8891
  44   2.0000      -0.542472       -14.7614
  45   2.0000      -0.540240       -14.7007
  46   2.0000      -0.523936       -14.2570
  47   2.0000      -0.507364       -13.8061
  48   2.0000      -0.500384       -13.6161
  49   2.0000      -0.496436       -13.5087
  50   2.0000      -0.488920       -13.3042
  51   2.0000      -0.479025       -13.0349
  52   2.0000      -0.473771       -12.8920
  53   2.0000      -0.466557       -12.6957
  54   2.0000      -0.458884       -12.4869
  55   2.0000      -0.444890       -12.1061
  56   2.0000      -0.441192       -12.0054
  57   2.0000      -0.436862       -11.8876
  58   2.0000      -0.433791       -11.8041
  59   2.0000      -0.425554       -11.5799
  60   2.0000      -0.420568       -11.4442
  61   2.0000      -0.414783       -11.2868
  62   2.0000      -0.405347       -11.0301
  63   2.0000      -0.335166        -9.1203
  64   2.0000      -0.331022        -9.0076
  65   2.0000      -0.325835        -8.8664
  66   2.0000      -0.307685        -8.3725
  67   0.0000       0.036014         0.9800
  68   0.0000       0.056336         1.5330
  69   0.0000       0.106722         2.9040
  70   0.0000       0.118209         3.2166
  71   0.0000       0.125522         3.4156

MULLIKEN ATOMIC CHARGES
-----------------------
   0 S :    0.111645
   1 C :   -0.113819
   2 C :   -0.121799
   3 C :    0.036302
   4 C :   -0.183119
   5 H :    0.024154
   6 C :    0.101516
   7 H :    0.001282
   8 H :    0.028831
   9 C :   -0.074301
  10 H :    0.033576
  11 H :    0.036419
  12 C :   -0.057113
  13 H :    0.040022
  14 H :    0.027887
  15 H :    0.033923
  16 S :    0.112286
  17 C :   -0.078535
  18 C :   -0.043599
  19 C :   -0.067303
  20 C :   -0.156498
  21 H :    0.023328
  22 C :    0.111939
  23 H :    0.022649
  24 H :    0.013105
  25 C :   -0.084400
  26 H :    0.032121
  27 H :    0.037090
  28 C :   -0.035512
  29 H :    0.025380
  30 H :    0.036570
  31 H :    0.027696
  32 H :    0.041322
  33 H :    0.056955
Sum of atomic charges:    0.0000000

LOEWDIN ATOMIC CHARGES
----------------------
   0 S :    0.392596
   1 C :   -0.187587
   2 C :   -0.057940
   3 C :   -0.057517
   4 C :   -0.191502
   5 H :    0.035291
   6 C :   -0.036938
   7 H :    0.029286
   8 H :    0.032058
   9 C :   -0.040184
  10 H :    0.028764
  11 H :    0.031676
  12 C :   -0.073760
  13 H :    0.028164
  14 H :    0.021502
  15 H :    0.030301
  16 S :    0.405093
  17 C :   -0.191686
  18 C :   -0.078179
  19 C :   -0.048780
  20 C :   -0.204758
  21 H :    0.032762
  22 C :   -0.025706
  23 H :    0.027816
  24 H :    0.023576
  25 C :   -0.041026
  26 H :    0.021795
  27 H :    0.028680
  28 C :   -0.067703
  29 H :    0.017535
  30 H :    0.028718
  31 H :    0.029445
  32 H :    0.025528
  33 H :    0.032683

  Mayer bond orders larger than 0.100000
B(  0-S ,  1-C ) :   1.1231 B(  0-S ,  4-C ) :   1.1418 B(  1-C ,  2-C ) :   1.6357
B(  1-C , 32-H ) :   0.9711 B(  2-C ,  3-C ) :   1.2176 B(  2-C ,  6-C ) :   1.0210
B(  3-C ,  4-C ) :   1.6152 B(  3-C ,  5-H ) :   0.9871 B(  4-C , 20-C ) :   1.0116
B(  6-C ,  7-H ) :   0.9272 B(  6-C ,  8-H ) :   0.9380 B(  6-C ,  9-C ) :   1.0742
B(  9-C , 10-H ) :   0.9524 B(  9-C , 11-H ) :   0.9492 B(  9-C , 12-C ) :   1.0944
B( 12-C , 13-H ) :   0.9713 B( 12-C , 14-H ) :   0.9742 B( 12-C , 15-H ) :   0.9707
B( 16-S , 17-C ) :   1.1593 B( 16-S , 20-C ) :   1.1368 B( 17-C , 18-C ) :   1.6099
B( 17-C , 33-H ) :   0.9639 B( 18-C , 19-C ) :   1.2674 B( 18-C , 21-H ) :   0.9807
B( 19-C , 20-C ) :   1.5734 B( 19-C , 22-C ) :   1.0374 B( 22-C , 23-H ) :   0.9319
B( 22-C , 24-H ) :   0.9367 B( 22-C , 25-C ) :   1.0551 B( 25-C , 26-H ) :   0.9583
B( 25-C , 27-H ) :   0.9588 B( 25-C , 28-C ) :   1.0700 B( 28-C , 29-H ) :   0.9718
B( 28-C , 30-H ) :   0.9746 B( 28-C , 31-H ) :   0.9744

Dispersion correction           -0.016672810
FINAL SINGLE POINT ENERGY     -1339.888527991654

DIPOLE MOMENT
-------------
                                X             Y             Z
Electronic contribution:     -2.55271      14.12970      23.74433
Nuclear contribution   :      2.35993     -14.50335     -24.36616
                        -----------------------------------------
Total Dipole Moment    :     -0.19278      -0.37365      -0.62183
                        -----------------------------------------
Magnitude (a.u.)       :      0.75063
Magnitude (Debye)      :      1.90795

Rotational constants in cm-1:     0.021436     0.009076     0.007886
Rotational constants in MHz :   642.622464   272.103225   236.410507

                             ****ORCA TERMINATED NORMALLY****
TOTAL RUN TIME: 0 days 0 hours 0 minutes 30 seconds 813 msec
