                         Program Version 4.2.1 -  RELEASE  -
|  1> ! wB97X-D3 SP def2-SVP
|  2> %pal
|  3> nprocs 16
|  4> end
|  5>
|  6> * xyz 0 1
|  7> S 	 -32.363 	 38.8609 	 102.007
|  8> C 	 -32.5874 	 37.481 	 100.876
|  9> C 	 -33.6591 	 37.7285 	 100.025
| 10> C 	 -34.3649 	 38.9592 	 100.412
| 11> C 	 -33.8183 	 39.6772 	 101.427
| 12> H 	 -35.2651 	 39.2537 	 99.9444
| 13> C 	 -34.0358 	 36.786 	 98.9241
| 14> H 	 -33.1316 	 36.2379 	 98.6351
| 15> H 	 -34.3458 	 37.4251 	 98.1172
| 16> C 	 -35.1953 	 35.7836 	 99.2542
| 17> H 	 -34.9788 	 35.1123 	 100.072
| 18> H 	 -35.9743 	 36.4763 	 99.6513
| 19> C 	 -35.7153 	 35.0782 	 97.9843
| 20> H 	 -36.301 	 35.7562 	 97.367
| 21> H 	 -34.8425 	 34.8185 	 97.3695
| 22> H 	 -36.1865 	 34.1273 	 98.2355
| 23> S 	 -35.0738 	 42.0317 	 101.054
| 24> C 	 -35.4816 	 43.0407 	 102.313
| 25> C 	 -35.194 	 42.4586 	 103.571
| 26> C 	 -34.623 	 41.1732 	 103.434
| 27> C 	 -34.4965 	 40.7771 	 102.108
| 28> H 	 -35.4083 	 42.9449 	 104.474
| 29> C 	 -34.2359 	 40.2974 	 104.618
| 30> H 	 -34.067 	 39.2838 	 104.19
| 31> H 	 -35.0373 	 40.3071 	 105.392
| 32> C 	 -32.9121 	 40.6757 	 105.357
| 33> H 	 -32.8922 	 41.7454 	 105.645
| 34> H 	 -32.0306 	 40.5681 	 104.722
| 35> C 	 -32.6517 	 39.9194 	 106.689
| 36> H 	 -31.6549 	 40.0775 	 107.097
| 37> H 	 -32.7401 	 38.9166 	 106.558
| 38> H 	 -33.3595 	 40.1545 	 107.474
| 39> H 	 -32.1278 	 36.5299 	 101.058
| 40> H 	 -35.8615 	 44.0236 	 102.184
| 41> *
| 42>
| 43>                          ****END OF INPUT****

CARTESIAN COORDINATES (ANGSTROEM)
---------------------------------
  S    -32.363000   38.860900  102.007000
  C    -32.587400   37.481000  100.876000
  C    -33.659100   37.728500  100.025000
  C    -34.364900   38.959200  100.412000
  C    -33.818300   39.677200  101.427000
  H    -35.265100   39.253700   99.944400
  C    -34.035800   36.786000   98.924100
  H    -33.131600   36.237900   98.635100
  H    -34.345800   37.425100   98.117200
  C    -35.195300   35.783600   99.254200
  H    -34.978800   35.112300  100.072000
  H    -35.974300   36.476300   99.651300
  C    -35.715300   35.078200   97.984300
  H    -36.301000   35.756200   97.367000
  H    -34.842500   34.818500   97.369500
  H    -36.186500   34.127300   98.235500
  S    -35.073800   42.031700  101.054000
  C    -35.481600   43.040700  102.313000
  C    -35.194000   42.458600  103.571000
  C    -34.623000   41.173200  103.434000
  C    -34.496500   40.777100  102.108000
  H    -35.408300   42.944900  104.474000
  C    -34.235900   40.297400  104.618000
  H    -34.067000   39.283800  104.190000
  H    -35.037300   40.307100  105.392000
  C    -32.912100   40.675700  105.357000
  H    -32.892200   41.745400  105.645000
  H    -32.030600   40.568100  104.722000
  C    -32.651700   39.919400  106.689000
  H    -31.654900   40.077500  107.097000
  H    -32.740100   38.916600  106.558000
  H    -33.359500   40.154500  107.474000
  H    -32.127800   36.529900  101.058000
  H    -35.861500   44.023600  102.184000

 Total Charge           Charge          ....    0
 Multiplicity           Mult            ....    1
 Number of Electrons    NEL             ....  134
 Basis Dimension        Dim             ....  322

ORBITAL ENERGIES
----------------

  NO   OCC          E(Eh)            E(eV)
   0   2.0000     -88.967549     -2420.9301
   1   2.0000     -88.964372     -2420.8436
   2   2.0000     -10.331409      -281.1319
   3   2.0000     -10.324756      -280.9509
   4   2.0000     -10.316467      -280.7253
   5   2.0000     -10.313853      -280.6542
   6   2.0000     -10.306453      -280.4528
   7   2.0000     -10.303933      -280.3843
   8   2.0000     -10.295904      -280.1658
   9   2.0000     -10.293168      -280.0913
  10   2.0000     -10.292737      -280.0796
  11   2.0000     -10.291591      -280.0484
  12   2.0000     -10.290926      -280.0303
  13   2.0000     -10.285767      -279.8900
  14   2.0000     -10.281774      -279.7813
  15   2.0000     -10.266146      -279.3560
  16   2.0000      -8.084003      -219.9769
  17   2.0000      -8.077903      -219.8109
  18   2.0000      -6.042195      -164.4165
  19   2.0000      -6.038075      -164.3044
  20   2.0000      -6.036687      -164.2666
  21   2.0000      -6.035186      -164.2258
  22   2.0000      -6.032498      -164.1526
  23   2.0000      -6.028520      -164.0444
  24   2.0000      -1.012148       -27.5420
  25   2.0000      -0.982763       -26.7424
  26   2.0000      -0.910790       -24.7839
  27   2.0000      -0.902405       -24.5557
  28   2.0000      -0.870051       -23.6753
  29   2.0000      -0.854752       -23.2590
  30   2.0000      -0.843478       -22.9522
  31   2.0000      -0.813821       -22.1452
  32   2.0000      -0.782433       -21.2911
  33   2.0000      -0.770939       -20.9783
  34   2.0000      -0.705469       -19.1968
  35   2.0000      -0.702035       -19.1033
  36   2.0000      -0.693736       -18.8775
  37   2.0000      -0.671322       -18.2676
  38   2.0000      -0.638814       -17.3830
  39   2.0000      -0.619549       -16.8588
  40   2.0000      -0.597032       -16.2461
  41   2.0000      -0.571802       -15.5595
  42   2.0000      -0.562685       -15.3114
  43   2.0000      -0.558600       -15.2003
  44   2.0000      -0.525010       -14.2862
  45   2.0000      -0.522485       -14.2175
  46   2.0000      -0.519095       -14.1253
  47   2.0000      -0.514262       -13.9938
  48   2.0000      -0.506839       -13.7918
  49   2.0000      -0.502400       -13.6710
  50   2.0000      -0.494035       -13.4434
  51   2.0000      -0.475591       -12.9415
  52   2.0000      -0.469074       -12.7642
  53   2.0000      -0.467161       -12.7121
  54   2.0000      -0.461498       -12.5580
  55   2.0000      -0.454185       -12.3590
  56   2.0000      -0.447365       -12.1734
  57   2.0000      -0.440954       -11.9990
  58   2.0000      -0.433412       -11.7937
  59   2.0000      -0.422804       -11.5051
  60   2.0000      -0.418357       -11.3841
  61   2.0000      -0.414769       -11.2864
  62   2.0000      -0.412065       -11.2129
  63   2.0000      -0.350144        -9.5279
  64   2.0000      -0.334237        -9.0951
  65   2.0000      -0.324925        -8.8417
  66   2.0000      -0.290474        -7.9042
  67   0.0000       0.026388         0.7181
  68   0.0000       0.074807         2.0356
  69   0.0000       0.109520         2.9802
  70   0.0000       0.111126         3.0239
  71   0.0000       0.131834         3.5874

MULLIKEN ATOMIC CHARGES
-----------------------
   0 S :    0.080119
   1 C :   -0.132462
   2 C :   -0.089150
   3 C :    0.018992
   4 C :   -0.087529
   5 H :   -0.002172
   6 C :    0.057372
   7 H :    0.029794
   8 H :    0.025208
   9 C :   -0.084592
  10 H :    0.029556
  11 H :    0.029440
  12 C :   -0.032531
  13 H :    0.038340
  14 H :    0.024657
  15 H :    0.041798
  16 S :    0.128368
  17 C :   -0.080770
  18 C :   -0.023934
  19 C :   -0.026013
  20 C :   -0.169956
  21 H :   -0.003029
  22 C :    0.040236
  23 H :    0.037752
  24 H :    0.033765
  25 C :   -0.088760
  26 H :    0.025543
  27 H :    0.027750
  28 C :   -0.012975
  29 H :    0.031424
  30 H :    0.003802
  31 H :    0.022198
  32 H :    0.057157
  33 H :    0.050602
Sum of atomic charges:    0.0000000

LOEWDIN ATOMIC CHARGES
----------------------
   0 S :    0.377442
   1 C :   -0.182374
   2 C :   -0.054038
   3 C :   -0.064722
   4 C :   -0.186047
   5 H :    0.019421
   6 C :   -0.032830
   7 H :    0.031208
   8 H :    0.031260
   9 C :   -0.040179
  10 H :    0.021434
  11 H :    0.027047
  12 C :   -0.066404
  13 H :    0.027353
  14 H :    0.025611
  15 H :    0.029397
  16 S :    0.464713
  17 C :   -0.205266
  18 C :   -0.064577
  19 C :   -0.055025
  20 C :   -0.205820
  21 H :    0.022226
  22 C :   -0.035535
  23 H :    0.028052
  24 H :    0.034533
  25 C :   -0.041637
  26 H :    0.022453
  27 H :    0.019759
  28 C :   -0.060342
  29 H :    0.029751
  30 H :    0.009352
  31 H :    0.023091
  32 H :    0.026919
  33 H :    0.023775

  Mayer bond orders larger than 0.100000
B(  0-S ,  1-C ) :   1.1158 B(  0-S ,  4-C ) :   1.1195 B(  1-C ,  2-C ) :   1.6311
B(  1-C , 32-H ) :   0.9689 B(  2-C ,  3-C ) :   1.2149 B(  2-C ,  6-C ) :   1.0335
B(  3-C ,  4-C ) :   1.5867 B(  3-C ,  5-H ) :   0.9971 B(  4-C , 20-C ) :   1.0246
B(  6-C ,  7-H ) :   0.9381 B(  6-C ,  8-H ) :   0.9389 B(  6-C ,  9-C ) :   1.0532
B(  9-C , 10-H ) :   0.9608 B(  9-C , 11-H ) :   0.9604 B(  9-C , 12-C ) :   1.0700
B( 12-C , 13-H ) :   0.9758 B( 12-C , 14-H ) :   0.9743 B( 12-C , 15-H ) :   0.9753
B( 16-S , 17-C ) :   1.2107 B( 16-S , 20-C ) :   1.1641 B( 17-C , 18-C ) :   1.5296
B( 17-C , 20-C ) :   0.1020 B( 17-C , 33-H ) :   0.9732 B( 18-C , 19-C ) :   1.2809
B( 18-C , 21-H ) :   1.0064 B( 19-C , 20-C ) :   1.5556 B( 19-C , 22-C ) :   1.0415
B( 22-C , 23-H ) :   0.9285 B( 22-C , 24-H ) :   0.9404 B( 22-C , 25-C ) :   1.0576
B( 25-C , 26-H ) :   0.9607 B( 25-C , 27-H ) :   0.9538 B( 25-C , 28-C ) :   1.0807
B( 28-C , 29-H ) :   0.9739 B( 28-C , 30-H ) :   0.9736 B( 28-C , 31-H ) :   0.9745

Dispersion correction           -0.013809074
FINAL SINGLE POINT ENERGY     -1339.883418211192

DIPOLE MOMENT
-------------
                                X             Y             Z
Electronic contribution:      2.20194      16.31770      -4.72928
Nuclear contribution   :     -2.49167     -16.58584       4.76628
                        -----------------------------------------
Total Dipole Moment    :     -0.28973      -0.26814       0.03699
                        -----------------------------------------
Magnitude (a.u.)       :      0.39649
Magnitude (Debye)      :      1.00781

Rotational constants in cm-1:     0.019915     0.007661     0.006145
Rotational constants in MHz :   597.035938   229.683172   184.211002

                             ****ORCA TERMINATED NORMALLY****
TOTAL RUN TIME: 0 days 0 hours 0 minutes 27 seconds 603 msec
