                         Program Version 4.2.1 -  RELEASE  -
|  1> ! wB97X-D3 SP def2-SVP
|  2> %pal
|  3> nprocs 16
|  4> end
|  5>
|  6> * xyz 0 1
|  7> S 	 39.7791 	 8.10427 	 84.5386
|  8> C 	 40.4163 	 9.44148 	 83.6126
|  9> C 	 41.532 	 10.0953 	 84.1756
| 10> C 	 41.7546 	 9.63832 	 85.4944
| 11> C 	 40.8336 	 8.64677 	 85.8732
| 12> H 	 42.3931 	 10.1362 	 86.185
| 13> C 	 42.2864 	 11.2485 	 83.633
| 14> H 	 42.7886 	 11.7875 	 84.4029
| 15> H 	 41.5034 	 11.927 	 83.2741
| 16> C 	 43.1022 	 10.9345 	 82.3791
| 17> H 	 42.3491 	 10.4048 	 81.7921
| 18> H 	 43.4389 	 11.8302 	 81.8953
| 19> C 	 44.3442 	 10.0852 	 82.6746
| 20> H 	 45.1433 	 10.7434 	 83.1871
| 21> H 	 44.0436 	 9.27996 	 83.3118
| 22> H 	 44.8724 	 9.66496 	 81.8242
| 23> S 	 39.0741 	 8.18683 	 87.925
| 24> C 	 39.6702 	 7.70868 	 89.4688
| 25> C 	 41.0597 	 7.49527 	 89.4246
| 26> C 	 41.6275 	 7.82555 	 88.1822
| 27> C 	 40.7198 	 8.15141 	 87.2284
| 28> H 	 41.5428 	 7.11228 	 90.3017
| 29> C 	 43.1545 	 7.7389 	 88.0362
| 30> H 	 43.4185 	 7.62988 	 86.9747
| 31> H 	 43.4214 	 6.76649 	 88.4135
| 32> C 	 43.9551 	 8.84848 	 88.8109
| 33> H 	 43.5014 	 8.97528 	 89.7894
| 34> H 	 43.7003 	 9.73119 	 88.3468
| 35> C 	 45.4839 	 8.54972 	 88.9708
| 36> H 	 46.1293 	 9.20715 	 89.6272
| 37> H 	 46.0701 	 8.76044 	 88.0958
| 38> H 	 45.6426 	 7.54294 	 89.358
| 39> H 	 40.1146 	 9.70971 	 82.5882
| 40> H 	 39.1074 	 7.43004 	 90.3461
| 41> *
| 42>
| 43>                          ****END OF INPUT****

CARTESIAN COORDINATES (ANGSTROEM)
---------------------------------
  S     39.779100    8.104270   84.538600
  C     40.416300    9.441480   83.612600
  C     41.532000   10.095300   84.175600
  C     41.754600    9.638320   85.494400
  C     40.833600    8.646770   85.873200
  H     42.393100   10.136200   86.185000
  C     42.286400   11.248500   83.633000
  H     42.788600   11.787500   84.402900
  H     41.503400   11.927000   83.274100
  C     43.102200   10.934500   82.379100
  H     42.349100   10.404800   81.792100
  H     43.438900   11.830200   81.895300
  C     44.344200   10.085200   82.674600
  H     45.143300   10.743400   83.187100
  H     44.043600    9.279960   83.311800
  H     44.872400    9.664960   81.824200
  S     39.074100    8.186830   87.925000
  C     39.670200    7.708680   89.468800
  C     41.059700    7.495270   89.424600
  C     41.627500    7.825550   88.182200
  C     40.719800    8.151410   87.228400
  H     41.542800    7.112280   90.301700
  C     43.154500    7.738900   88.036200
  H     43.418500    7.629880   86.974700
  H     43.421400    6.766490   88.413500
  C     43.955100    8.848480   88.810900
  H     43.501400    8.975280   89.789400
  H     43.700300    9.731190   88.346800
  C     45.483900    8.549720   88.970800
  H     46.129300    9.207150   89.627200
  H     46.070100    8.760440   88.095800
  H     45.642600    7.542940   89.358000
  H     40.114600    9.709710   82.588200
  H     39.107400    7.430040   90.346100

 Total Charge           Charge          ....    0
 Multiplicity           Mult            ....    1
 Number of Electrons    NEL             ....  134
 Basis Dimension        Dim             ....  322

ORBITAL ENERGIES
----------------

  NO   OCC          E(Eh)            E(eV)
   0   2.0000     -88.976776     -2421.1812
   1   2.0000     -88.963847     -2420.8294
   2   2.0000     -10.332285      -281.1558
   3   2.0000     -10.323421      -280.9146
   4   2.0000     -10.316633      -280.7298
   5   2.0000     -10.315677      -280.7038
   6   2.0000     -10.299867      -280.2736
   7   2.0000     -10.299236      -280.2565
   8   2.0000     -10.293075      -280.0888
   9   2.0000     -10.292267      -280.0668
  10   2.0000     -10.289809      -279.9999
  11   2.0000     -10.288348      -279.9602
  12   2.0000     -10.287320      -279.9322
  13   2.0000     -10.285598      -279.8854
  14   2.0000     -10.285233      -279.8754
  15   2.0000     -10.278256      -279.6856
  16   2.0000      -8.090341      -220.1494
  17   2.0000      -8.078546      -219.8284
  18   2.0000      -6.048808      -164.5964
  19   2.0000      -6.045194      -164.4981
  20   2.0000      -6.041047      -164.3852
  21   2.0000      -6.037034      -164.2760
  22   2.0000      -6.033035      -164.1672
  23   2.0000      -6.029349      -164.0669
  24   2.0000      -1.005472       -27.3603
  25   2.0000      -0.983058       -26.7504
  26   2.0000      -0.918108       -24.9830
  27   2.0000      -0.902306       -24.5530
  28   2.0000      -0.865195       -23.5432
  29   2.0000      -0.854942       -23.2641
  30   2.0000      -0.847449       -23.0603
  31   2.0000      -0.808382       -21.9972
  32   2.0000      -0.783347       -21.3160
  33   2.0000      -0.771911       -21.0048
  34   2.0000      -0.714367       -19.4389
  35   2.0000      -0.707109       -19.2414
  36   2.0000      -0.695586       -18.9279
  37   2.0000      -0.666156       -18.1270
  38   2.0000      -0.635692       -17.2981
  39   2.0000      -0.615151       -16.7391
  40   2.0000      -0.592833       -16.1318
  41   2.0000      -0.580126       -15.7860
  42   2.0000      -0.561863       -15.2891
  43   2.0000      -0.553196       -15.0532
  44   2.0000      -0.543242       -14.7824
  45   2.0000      -0.519210       -14.1284
  46   2.0000      -0.512308       -13.9406
  47   2.0000      -0.507542       -13.8109
  48   2.0000      -0.503753       -13.7078
  49   2.0000      -0.491845       -13.3838
  50   2.0000      -0.486154       -13.2289
  51   2.0000      -0.481355       -13.0983
  52   2.0000      -0.467496       -12.7212
  53   2.0000      -0.466542       -12.6953
  54   2.0000      -0.463250       -12.6057
  55   2.0000      -0.454073       -12.3559
  56   2.0000      -0.449464       -12.2305
  57   2.0000      -0.437391       -11.9020
  58   2.0000      -0.430856       -11.7242
  59   2.0000      -0.426001       -11.5921
  60   2.0000      -0.423197       -11.5158
  61   2.0000      -0.418095       -11.3769
  62   2.0000      -0.416053       -11.3214
  63   2.0000      -0.347594        -9.4585
  64   2.0000      -0.334838        -9.1114
  65   2.0000      -0.330354        -8.9894
  66   2.0000      -0.284671        -7.7463
  67   0.0000       0.022954         0.6246
  68   0.0000       0.067498         1.8367
  69   0.0000       0.104665         2.8481
  70   0.0000       0.122616         3.3365
  71   0.0000       0.128390         3.4937

MULLIKEN ATOMIC CHARGES
-----------------------
   0 S :    0.138266
   1 C :   -0.120350
   2 C :   -0.106408
   3 C :    0.032867
   4 C :   -0.157836
   5 H :    0.002958
   6 C :    0.068672
   7 H :    0.012436
   8 H :    0.034079
   9 C :   -0.044258
  10 H :    0.021713
  11 H :    0.027840
  12 C :   -0.064425
  13 H :    0.032531
  14 H :    0.034306
  15 H :    0.036315
  16 S :    0.102799
  17 C :   -0.086869
  18 C :   -0.051245
  19 C :   -0.030154
  20 C :   -0.150784
  21 H :    0.013830
  22 C :    0.062190
  23 H :    0.027125
  24 H :    0.011035
  25 C :   -0.009741
  26 H :    0.023584
  27 H :    0.000526
  28 C :   -0.059427
  29 H :    0.030146
  30 H :    0.028348
  31 H :    0.037772
  32 H :    0.046799
  33 H :    0.055358
Sum of atomic charges:    0.0000000

LOEWDIN ATOMIC CHARGES
----------------------
   0 S :    0.405529
   1 C :   -0.207783
   2 C :   -0.060969
   3 C :   -0.051052
   4 C :   -0.182620
   5 H :    0.027226
   6 C :   -0.032138
   7 H :    0.022667
   8 H :    0.041364
   9 C :   -0.033792
  10 H :    0.023499
  11 H :    0.020437
  12 C :   -0.070253
  13 H :    0.032461
  14 H :    0.021642
  15 H :    0.024089
  16 S :    0.401376
  17 C :   -0.192458
  18 C :   -0.070817
  19 C :   -0.060551
  20 C :   -0.188881
  21 H :    0.028604
  22 C :   -0.025724
  23 H :    0.029529
  24 H :    0.025519
  25 C :   -0.029526
  26 H :    0.026227
  27 H :    0.010917
  28 C :   -0.075872
  29 H :    0.034312
  30 H :    0.024252
  31 H :    0.026873
  32 H :    0.026022
  33 H :    0.029891

  Mayer bond orders larger than 0.100000
B(  0-S ,  1-C ) :   1.1360 B(  0-S ,  4-C ) :   1.1499 B(  1-C ,  2-C ) :   1.5982
B(  1-C , 32-H ) :   0.9552 B(  2-C ,  3-C ) :   1.2581 B(  2-C ,  6-C ) :   1.0248
B(  3-C ,  4-C ) :   1.5459 B(  3-C ,  5-H ) :   0.9963 B(  4-C , 20-C ) :   1.0569
B(  6-C ,  7-H ) :   0.9460 B(  6-C ,  8-H ) :   0.9322 B(  6-C ,  9-C ) :   1.0621
B(  9-C , 10-H ) :   0.9558 B(  9-C , 11-H ) :   0.9568 B(  9-C , 12-C ) :   1.0747
B( 12-C , 13-H ) :   0.9738 B( 12-C , 14-H ) :   0.9777 B( 12-C , 15-H ) :   0.9750
B( 16-S , 17-C ) :   1.1664 B( 16-S , 20-C ) :   1.1222 B( 17-C , 18-C ) :   1.5985
B( 17-C , 20-C ) :   0.1007 B( 17-C , 33-H ) :   0.9658 B( 18-C , 19-C ) :   1.2375
B( 18-C , 21-H ) :   0.9932 B( 19-C , 20-C ) :   1.6195 B( 19-C , 22-C ) :   1.0347
B( 22-C , 23-H ) :   0.9384 B( 22-C , 24-H ) :   0.9349 B( 22-C , 25-C ) :   1.0447
B( 25-C , 26-H ) :   0.9571 B( 25-C , 27-H ) :   0.9555 B( 25-C , 28-C ) :   1.0651
B( 28-C , 29-H ) :   0.9745 B( 28-C , 30-H ) :   0.9762 B( 28-C , 31-H ) :   0.9774

Dispersion correction           -0.014292285
FINAL SINGLE POINT ENERGY     -1339.869035367397

DIPOLE MOMENT
-------------
                                X             Y             Z
Electronic contribution:    -29.28674      -8.90856       2.80346
Nuclear contribution   :     29.84961       9.18122      -2.72050
                        -----------------------------------------
Total Dipole Moment    :      0.56286       0.27266       0.08297
                        -----------------------------------------
Magnitude (a.u.)       :      0.63091
Magnitude (Debye)      :      1.60364

Rotational constants in cm-1:     0.016737     0.009625     0.006549
Rotational constants in MHz :   501.750395   288.546864   196.329883

                             ****ORCA TERMINATED NORMALLY****
TOTAL RUN TIME: 0 days 0 hours 0 minutes 28 seconds 722 msec
