                         Program Version 4.2.1 -  RELEASE  -
|  1> ! wB97X-D3 SP def2-SVP
|  2> %pal
|  3> nprocs 16
|  4> end
|  5>
|  6> * xyz 0 1
|  7> S 	 -34.0097 	 65.8048 	 144.173
|  8> C 	 -33.1065 	 64.5592 	 143.339
|  9> C 	 -31.9544 	 64.259 	 144.085
| 10> C 	 -31.8419 	 64.9547 	 145.318
| 11> C 	 -32.8336 	 65.8643 	 145.526
| 12> H 	 -31.0698 	 64.8542 	 146.127
| 13> C 	 -30.8329 	 63.4166 	 143.505
| 14> H 	 -29.8754 	 63.7278 	 143.917
| 15> H 	 -30.6777 	 63.6883 	 142.443
| 16> C 	 -31.0502 	 61.8938 	 143.576
| 17> H 	 -31.98 	 61.6118 	 143.125
| 18> H 	 -30.2574 	 61.3646 	 142.972
| 19> C 	 -31.0456 	 61.3248 	 145.017
| 20> H 	 -30.4505 	 60.435 	 145.062
| 21> H 	 -30.6758 	 62.0267 	 145.807
| 22> H 	 -32.0416 	 60.9995 	 145.347
| 23> S 	 -32.6465 	 68.4371 	 146.306
| 24> C 	 -32.9486 	 68.9003 	 147.907
| 25> C 	 -33.0414 	 67.7949 	 148.755
| 26> C 	 -33.1596 	 66.5612 	 148.041
| 27> C 	 -33.0736 	 66.7867 	 146.653
| 28> H 	 -33.1118 	 67.9692 	 149.757
| 29> C 	 -33.2277 	 65.3432 	 148.718
| 30> H 	 -33.4517 	 65.5183 	 149.784
| 31> H 	 -32.3108 	 64.8369 	 148.511
| 32> C 	 -34.3393 	 64.4387 	 148.201
| 33> H 	 -34.0299 	 63.4493 	 148.5
| 34> H 	 -34.4388 	 64.3634 	 147.109
| 35> C 	 -35.7575 	 64.7702 	 148.706
| 36> H 	 -35.8818 	 64.8484 	 149.783
| 37> H 	 -36.2174 	 63.8397 	 148.46
| 38> H 	 -36.3057 	 65.6009 	 148.191
| 39> H 	 -33.1671 	 64.1906 	 142.301
| 40> H 	 -32.8179 	 69.9134 	 148.16
| 41> *
| 42>
| 43>                          ****END OF INPUT****

CARTESIAN COORDINATES (ANGSTROEM)
---------------------------------
  S    -34.009700   65.804800  144.173000
  C    -33.106500   64.559200  143.339000
  C    -31.954400   64.259000  144.085000
  C    -31.841900   64.954700  145.318000
  C    -32.833600   65.864300  145.526000
  H    -31.069800   64.854200  146.127000
  C    -30.832900   63.416600  143.505000
  H    -29.875400   63.727800  143.917000
  H    -30.677700   63.688300  142.443000
  C    -31.050200   61.893800  143.576000
  H    -31.980000   61.611800  143.125000
  H    -30.257400   61.364600  142.972000
  C    -31.045600   61.324800  145.017000
  H    -30.450500   60.435000  145.062000
  H    -30.675800   62.026700  145.807000
  H    -32.041600   60.999500  145.347000
  S    -32.646500   68.437100  146.306000
  C    -32.948600   68.900300  147.907000
  C    -33.041400   67.794900  148.755000
  C    -33.159600   66.561200  148.041000
  C    -33.073600   66.786700  146.653000
  H    -33.111800   67.969200  149.757000
  C    -33.227700   65.343200  148.718000
  H    -33.451700   65.518300  149.784000
  H    -32.310800   64.836900  148.511000
  C    -34.339300   64.438700  148.201000
  H    -34.029900   63.449300  148.500000
  H    -34.438800   64.363400  147.109000
  C    -35.757500   64.770200  148.706000
  H    -35.881800   64.848400  149.783000
  H    -36.217400   63.839700  148.460000
  H    -36.305700   65.600900  148.191000
  H    -33.167100   64.190600  142.301000
  H    -32.817900   69.913400  148.160000

 Total Charge           Charge          ....    0
 Multiplicity           Mult            ....    1
 Number of Electrons    NEL             ....  134
 Basis Dimension        Dim             ....  322

ORBITAL ENERGIES
----------------

  NO   OCC          E(Eh)            E(eV)
   0   2.0000     -88.965006     -2420.8609
   1   2.0000     -88.962230     -2420.7854
   2   2.0000     -10.329930      -281.0917
   3   2.0000     -10.320790      -280.8430
   4   2.0000     -10.316838      -280.7354
   5   2.0000     -10.310763      -280.5701
   6   2.0000     -10.301059      -280.3061
   7   2.0000     -10.299038      -280.2511
   8   2.0000     -10.297145      -280.1996
   9   2.0000     -10.291737      -280.0524
  10   2.0000     -10.289032      -279.9788
  11   2.0000     -10.286399      -279.9071
  12   2.0000     -10.280846      -279.7560
  13   2.0000     -10.279374      -279.7160
  14   2.0000     -10.276625      -279.6412
  15   2.0000     -10.272634      -279.5326
  16   2.0000      -8.078660      -219.8315
  17   2.0000      -8.078418      -219.8249
  18   2.0000      -6.037222      -164.2812
  19   2.0000      -6.036642      -164.2654
  20   2.0000      -6.033143      -164.1702
  21   2.0000      -6.032677      -164.1575
  22   2.0000      -6.029583      -164.0733
  23   2.0000      -6.029451      -164.0697
  24   2.0000      -1.008361       -27.4389
  25   2.0000      -0.984198       -26.7814
  26   2.0000      -0.924224       -25.1494
  27   2.0000      -0.905217       -24.6322
  28   2.0000      -0.864895       -23.5350
  29   2.0000      -0.854057       -23.2401
  30   2.0000      -0.842378       -22.9223
  31   2.0000      -0.815129       -22.1808
  32   2.0000      -0.786170       -21.3928
  33   2.0000      -0.768828       -20.9209
  34   2.0000      -0.708855       -19.2889
  35   2.0000      -0.699505       -19.0345
  36   2.0000      -0.685154       -18.6440
  37   2.0000      -0.670682       -18.2502
  38   2.0000      -0.638227       -17.3670
  39   2.0000      -0.611598       -16.6424
  40   2.0000      -0.597907       -16.2699
  41   2.0000      -0.573256       -15.5991
  42   2.0000      -0.566254       -15.4086
  43   2.0000      -0.546242       -14.8640
  44   2.0000      -0.542632       -14.7658
  45   2.0000      -0.537074       -14.6145
  46   2.0000      -0.516833       -14.0637
  47   2.0000      -0.509270       -13.8579
  48   2.0000      -0.498933       -13.5767
  49   2.0000      -0.494526       -13.4567
  50   2.0000      -0.490201       -13.3390
  51   2.0000      -0.483246       -13.1498
  52   2.0000      -0.474813       -12.9203
  53   2.0000      -0.465678       -12.6717
  54   2.0000      -0.460329       -12.5262
  55   2.0000      -0.440543       -11.9878
  56   2.0000      -0.437440       -11.9034
  57   2.0000      -0.433769       -11.8035
  58   2.0000      -0.429767       -11.6945
  59   2.0000      -0.425277       -11.5724
  60   2.0000      -0.421113       -11.4591
  61   2.0000      -0.414295       -11.2735
  62   2.0000      -0.409042       -11.1306
  63   2.0000      -0.340020        -9.2524
  64   2.0000      -0.326187        -8.8760
  65   2.0000      -0.320176        -8.7124
  66   2.0000      -0.299822        -8.1586
  67   0.0000       0.032639         0.8882
  68   0.0000       0.059714         1.6249
  69   0.0000       0.111475         3.0334
  70   0.0000       0.120221         3.2714
  71   0.0000       0.123685         3.3656

MULLIKEN ATOMIC CHARGES
-----------------------
   0 S :    0.107407
   1 C :   -0.106292
   2 C :   -0.099553
   3 C :    0.041759
   4 C :   -0.201694
   5 H :    0.032204
   6 C :    0.036238
   7 H :    0.020816
   8 H :    0.026774
   9 C :   -0.060345
  10 H :    0.022948
  11 H :    0.036393
  12 C :   -0.061927
  13 H :    0.026883
  14 H :    0.032188
  15 H :    0.032266
  16 S :    0.118995
  17 C :   -0.072785
  18 C :   -0.019802
  19 C :   -0.015535
  20 C :   -0.156596
  21 H :   -0.017514
  22 C :    0.112076
  23 H :    0.024004
  24 H :    0.024088
  25 C :   -0.101483
  26 H :    0.012789
  27 H :    0.047828
  28 C :   -0.051725
  29 H :    0.023623
  30 H :    0.024794
  31 H :    0.057360
  32 H :    0.060806
  33 H :    0.043013
Sum of atomic charges:    0.0000000

LOEWDIN ATOMIC CHARGES
----------------------
   0 S :    0.390753
   1 C :   -0.206324
   2 C :   -0.066678
   3 C :   -0.072264
   4 C :   -0.187169
   5 H :    0.041790
   6 C :   -0.036221
   7 H :    0.027581
   8 H :    0.033204
   9 C :   -0.041080
  10 H :    0.020241
  11 H :    0.028597
  12 C :   -0.072798
  13 H :    0.022955
  14 H :    0.027011
  15 H :    0.027627
  16 S :    0.446234
  17 C :   -0.185765
  18 C :   -0.062503
  19 C :   -0.044390
  20 C :   -0.224247
  21 H :    0.014532
  22 C :   -0.039389
  23 H :    0.037832
  24 H :    0.036056
  25 C :   -0.033513
  26 H :    0.019758
  27 H :    0.030659
  28 C :   -0.070295
  29 H :    0.019650
  30 H :    0.027902
  31 H :    0.034734
  32 H :    0.038797
  33 H :    0.016723

  Mayer bond orders larger than 0.100000
B(  0-S ,  1-C ) :   1.1397 B(  0-S ,  4-C ) :   1.1418 B(  1-C ,  2-C ) :   1.6132
B(  1-C ,  4-C ) :   0.1058 B(  1-C , 32-H ) :   0.9601 B(  2-C ,  3-C ) :   1.2314
B(  2-C ,  6-C ) :   1.0130 B(  3-C ,  4-C ) :   1.6083 B(  3-C ,  5-H ) :   0.9846
B(  4-C , 20-C ) :   0.9867 B(  6-C ,  7-H ) :   0.9501 B(  6-C ,  8-H ) :   0.9448
B(  6-C ,  9-C ) :   1.0760 B(  9-C , 10-H ) :   0.9614 B(  9-C , 11-H ) :   0.9635
B(  9-C , 12-C ) :   1.0513 B( 12-C , 13-H ) :   0.9783 B( 12-C , 14-H ) :   0.9822
B( 12-C , 15-H ) :   0.9782 B( 16-S , 17-C ) :   1.2045 B( 16-S , 20-C ) :   1.1728
B( 17-C , 18-C ) :   1.5428 B( 17-C , 20-C ) :   0.1033 B( 17-C , 33-H ) :   0.9757
B( 18-C , 19-C ) :   1.2590 B( 18-C , 21-H ) :   1.0143 B( 19-C , 20-C ) :   1.5228
B( 19-C , 22-C ) :   1.0926 B( 22-C , 23-H ) :   0.9290 B( 22-C , 24-H ) :   0.9009
B( 22-C , 25-C ) :   1.0801 B( 25-C , 26-H ) :   0.9560 B( 25-C , 27-H ) :   0.9529
B( 25-C , 28-C ) :   1.0679 B( 28-C , 29-H ) :   0.9740 B( 28-C , 30-H ) :   0.9731
B( 28-C , 31-H ) :   0.9756

Dispersion correction           -0.015230507
FINAL SINGLE POINT ENERGY     -1339.861376874228

DIPOLE MOMENT
-------------
                                X             Y             Z
Electronic contribution:     -2.52527      24.16446      -6.72584
Nuclear contribution   :      2.93594     -24.55287       7.02238
                        -----------------------------------------
Total Dipole Moment    :      0.41067      -0.38841       0.29654
                        -----------------------------------------
Magnitude (a.u.)       :      0.63831
Magnitude (Debye)      :      1.62246

Rotational constants in cm-1:     0.020138     0.008896     0.007617
Rotational constants in MHz :   603.721332   266.708467   228.364026

                             ****ORCA TERMINATED NORMALLY****
TOTAL RUN TIME: 0 days 0 hours 0 minutes 36 seconds 212 msec
