                         Program Version 4.2.1 -  RELEASE  -
|  1> ! wB97X-D3 SP def2-SVP
|  2> %pal
|  3> nprocs 16
|  4> end
|  5>
|  6> * xyz 0 1
|  7> S 	 -106.041 	 46.8513 	 124.656
|  8> C 	 -104.407 	 47.1579 	 125.316
|  9> C 	 -103.427 	 46.3317 	 124.817
| 10> C 	 -103.944 	 45.3478 	 123.966
| 11> C 	 -105.31 	 45.5303 	 123.733
| 12> H 	 -103.325 	 44.5393 	 123.575
| 13> C 	 -101.984 	 46.3402 	 125.256
| 14> H 	 -101.776 	 45.3323 	 125.605
| 15> H 	 -101.769 	 46.8973 	 126.098
| 16> C 	 -101.015 	 46.4678 	 124.114
| 17> H 	 -100.062 	 46.0935 	 124.453
| 18> H 	 -101.443 	 45.9349 	 123.286
| 19> C 	 -100.698 	 47.9276 	 123.652
| 20> H 	 -100.54 	 48.549 	 124.576
| 21> H 	 -99.8199 	 47.7989 	 123.024
| 22> H 	 -101.431 	 48.3362 	 122.971
| 23> S 	 -107.397 	 43.6472 	 123.992
| 24> C 	 -107.952 	 42.9133 	 122.52
| 25> C 	 -106.955 	 42.9555 	 121.518
| 26> C 	 -105.952 	 43.9005 	 121.784
| 27> C 	 -106.145 	 44.525 	 123.065
| 28> H 	 -107.024 	 42.3513 	 120.641
| 29> C 	 -104.825 	 44.2749 	 120.793
| 30> H 	 -104.518 	 45.3903 	 120.933
| 31> H 	 -105.389 	 44.239 	 119.849
| 32> C 	 -103.695 	 43.2824 	 120.771
| 33> H 	 -104.002 	 42.2676 	 120.7
| 34> H 	 -103.152 	 43.3537 	 121.721
| 35> C 	 -102.741 	 43.5679 	 119.539
| 36> H 	 -101.804 	 43.0193 	 119.539
| 37> H 	 -102.549 	 44.6717 	 119.369
| 38> H 	 -103.259 	 43.367 	 118.618
| 39> H 	 -104.153 	 47.794 	 126.16
| 40> H 	 -108.732 	 42.1958 	 122.471
| 41> *
| 42>
| 43>                          ****END OF INPUT****

CARTESIAN COORDINATES (ANGSTROEM)
---------------------------------
  S    -106.041000   46.851300  124.656000
  C    -104.407000   47.157900  125.316000
  C    -103.427000   46.331700  124.817000
  C    -103.944000   45.347800  123.966000
  C    -105.310000   45.530300  123.733000
  H    -103.325000   44.539300  123.575000
  C    -101.984000   46.340200  125.256000
  H    -101.776000   45.332300  125.605000
  H    -101.769000   46.897300  126.098000
  C    -101.015000   46.467800  124.114000
  H    -100.062000   46.093500  124.453000
  H    -101.443000   45.934900  123.286000
  C    -100.698000   47.927600  123.652000
  H    -100.540000   48.549000  124.576000
  H    -99.819900   47.798900  123.024000
  H    -101.431000   48.336200  122.971000
  S    -107.397000   43.647200  123.992000
  C    -107.952000   42.913300  122.520000
  C    -106.955000   42.955500  121.518000
  C    -105.952000   43.900500  121.784000
  C    -106.145000   44.525000  123.065000
  H    -107.024000   42.351300  120.641000
  C    -104.825000   44.274900  120.793000
  H    -104.518000   45.390300  120.933000
  H    -105.389000   44.239000  119.849000
  C    -103.695000   43.282400  120.771000
  H    -104.002000   42.267600  120.700000
  H    -103.152000   43.353700  121.721000
  C    -102.741000   43.567900  119.539000
  H    -101.804000   43.019300  119.539000
  H    -102.549000   44.671700  119.369000
  H    -103.259000   43.367000  118.618000
  H    -104.153000   47.794000  126.160000
  H    -108.732000   42.195800  122.471000

 Total Charge           Charge          ....    0
 Multiplicity           Mult            ....    1
 Number of Electrons    NEL             ....  134
 Basis Dimension        Dim             ....  322

ORBITAL ENERGIES
----------------

  NO   OCC          E(Eh)            E(eV)
   0   2.0000     -88.972065     -2421.0530
   1   2.0000     -88.967154     -2420.9193
   2   2.0000     -10.331727      -281.1406
   3   2.0000     -10.327826      -281.0344
   4   2.0000     -10.314734      -280.6782
   5   2.0000     -10.313237      -280.6374
   6   2.0000     -10.304893      -280.4104
   7   2.0000     -10.300413      -280.2885
   8   2.0000     -10.296266      -280.1756
   9   2.0000     -10.295778      -280.1624
  10   2.0000     -10.293274      -280.0942
  11   2.0000     -10.291291      -280.0403
  12   2.0000     -10.283798      -279.8364
  13   2.0000     -10.283533      -279.8292
  14   2.0000     -10.282930      -279.8127
  15   2.0000     -10.277944      -279.6771
  16   2.0000      -8.085552      -220.0190
  17   2.0000      -8.081230      -219.9014
  18   2.0000      -6.044004      -164.4657
  19   2.0000      -6.040439      -164.3687
  20   2.0000      -6.039558      -164.3447
  21   2.0000      -6.036233      -164.2542
  22   2.0000      -6.036065      -164.2497
  23   2.0000      -6.031994      -164.1389
  24   2.0000      -1.000211       -27.2171
  25   2.0000      -0.979241       -26.6465
  26   2.0000      -0.917783       -24.9742
  27   2.0000      -0.907918       -24.7057
  28   2.0000      -0.861995       -23.4561
  29   2.0000      -0.849548       -23.1174
  30   2.0000      -0.845790       -23.0151
  31   2.0000      -0.807462       -21.9721
  32   2.0000      -0.785616       -21.3777
  33   2.0000      -0.770091       -20.9552
  34   2.0000      -0.709917       -19.3178
  35   2.0000      -0.700432       -19.0597
  36   2.0000      -0.689504       -18.7623
  37   2.0000      -0.657633       -17.8951
  38   2.0000      -0.637792       -17.3552
  39   2.0000      -0.626560       -17.0496
  40   2.0000      -0.592942       -16.1348
  41   2.0000      -0.569530       -15.4977
  42   2.0000      -0.560822       -15.2607
  43   2.0000      -0.546415       -14.8687
  44   2.0000      -0.544496       -14.8165
  45   2.0000      -0.526180       -14.3181
  46   2.0000      -0.517046       -14.0695
  47   2.0000      -0.507973       -13.8226
  48   2.0000      -0.503877       -13.7112
  49   2.0000      -0.490757       -13.3542
  50   2.0000      -0.484570       -13.1858
  51   2.0000      -0.475643       -12.9429
  52   2.0000      -0.469300       -12.7703
  53   2.0000      -0.463498       -12.6124
  54   2.0000      -0.457044       -12.4368
  55   2.0000      -0.455141       -12.3850
  56   2.0000      -0.448606       -12.2072
  57   2.0000      -0.445079       -12.1112
  58   2.0000      -0.440159       -11.9773
  59   2.0000      -0.425044       -11.5660
  60   2.0000      -0.422639       -11.5006
  61   2.0000      -0.415557       -11.3079
  62   2.0000      -0.411234       -11.1902
  63   2.0000      -0.340513        -9.2658
  64   2.0000      -0.329891        -8.9768
  65   2.0000      -0.327588        -8.9141
  66   2.0000      -0.286764        -7.8032
  67   0.0000       0.019719         0.5366
  68   0.0000       0.065012         1.7691
  69   0.0000       0.103468         2.8155
  70   0.0000       0.111805         3.0424
  71   0.0000       0.124893         3.3985

MULLIKEN ATOMIC CHARGES
-----------------------
   0 S :    0.120051
   1 C :   -0.126511
   2 C :   -0.078182
   3 C :    0.023233
   4 C :   -0.159853
   5 H :    0.015752
   6 C :    0.124395
   7 H :    0.019775
   8 H :   -0.009605
   9 C :   -0.087935
  10 H :    0.024997
  11 H :    0.022711
  12 C :   -0.051846
  13 H :    0.040595
  14 H :    0.030715
  15 H :    0.036627
  16 S :    0.114629
  17 C :   -0.072244
  18 C :   -0.050151
  19 C :   -0.020300
  20 C :   -0.165660
  21 H :    0.010866
  22 C :    0.015593
  23 H :    0.060329
  24 H :    0.024754
  25 C :   -0.034599
  26 H :    0.026293
  27 H :    0.024049
  28 C :   -0.057738
  29 H :    0.042901
  30 H :    0.029711
  31 H :    0.021034
  32 H :    0.040749
  33 H :    0.044865
Sum of atomic charges:    0.0000000

LOEWDIN ATOMIC CHARGES
----------------------
   0 S :    0.390447
   1 C :   -0.189323
   2 C :   -0.062381
   3 C :   -0.052290
   4 C :   -0.189921
   5 H :    0.032450
   6 C :   -0.026925
   7 H :    0.036935
   8 H :    0.015874
   9 C :   -0.033941
  10 H :    0.022440
  11 H :    0.021665
  12 C :   -0.066490
  13 H :    0.030165
  14 H :    0.025989
  15 H :    0.023244
  16 S :    0.402500
  17 C :   -0.187349
  18 C :   -0.068072
  19 C :   -0.053628
  20 C :   -0.196513
  21 H :    0.026492
  22 C :   -0.038863
  23 H :    0.045684
  24 H :    0.030216
  25 C :   -0.035614
  26 H :    0.022725
  27 H :    0.021306
  28 C :   -0.070755
  29 H :    0.025025
  30 H :    0.030940
  31 H :    0.021542
  32 H :    0.027514
  33 H :    0.018908

  Mayer bond orders larger than 0.100000
B(  0-S ,  1-C ) :   1.1195 B(  0-S ,  4-C ) :   1.1499 B(  1-C ,  2-C ) :   1.6340
B(  1-C , 32-H ) :   0.9606 B(  2-C ,  3-C ) :   1.2517 B(  2-C ,  6-C ) :   1.0254
B(  3-C ,  4-C ) :   1.5522 B(  3-C ,  5-H ) :   0.9809 B(  4-C , 20-C ) :   1.0583
B(  6-C ,  7-H ) :   0.9307 B(  6-C ,  8-H ) :   0.9393 B(  6-C ,  9-C ) :   1.0736
B(  9-C , 10-H ) :   0.9583 B(  9-C , 11-H ) :   0.9548 B(  9-C , 12-C ) :   1.0731
B( 12-C , 13-H ) :   0.9760 B( 12-C , 14-H ) :   0.9764 B( 12-C , 15-H ) :   0.9779
B( 16-S , 17-C ) :   1.1666 B( 16-S , 20-C ) :   1.1568 B( 17-C , 18-C ) :   1.5665
B( 17-C , 20-C ) :   0.1130 B( 17-C , 33-H ) :   0.9702 B( 18-C , 19-C ) :   1.2918
B( 18-C , 21-H ) :   0.9912 B( 19-C , 20-C ) :   1.5347 B( 19-C , 22-C ) :   1.0220
B( 22-C , 23-H ) :   0.9351 B( 22-C , 24-H ) :   0.9408 B( 22-C , 25-C ) :   1.0627
B( 25-C , 26-H ) :   0.9542 B( 25-C , 27-H ) :   0.9515 B( 25-C , 28-C ) :   1.0687
B( 28-C , 29-H ) :   0.9769 B( 28-C , 30-H ) :   0.9742 B( 28-C , 31-H ) :   0.9754

Dispersion correction           -0.014486695
FINAL SINGLE POINT ENERGY     -1339.857473824816

DIPOLE MOMENT
-------------
                                X             Y             Z
Electronic contribution:    -28.67802      -0.70083      13.73458
Nuclear contribution   :     29.35282       0.34449     -13.91097
                        -----------------------------------------
Total Dipole Moment    :      0.67479      -0.35634      -0.17639
                        -----------------------------------------
Magnitude (a.u.)       :      0.78322
Magnitude (Debye)      :      1.99079

Rotational constants in cm-1:     0.016789     0.010001     0.006803
Rotational constants in MHz :   503.314643   299.822401   203.944367

                             ****ORCA TERMINATED NORMALLY****
TOTAL RUN TIME: 0 days 0 hours 0 minutes 33 seconds 913 msec
