                         Program Version 4.2.1 -  RELEASE  -
|  1> ! wB97X-D3 SP def2-SVP
|  2> %pal
|  3> nprocs 16
|  4> end
|  5>
|  6> * xyz 0 1
|  7> S 	 32.2407 	 15.546 	 71.5239
|  8> C 	 30.8253 	 16.1137 	 72.2907
|  9> C 	 31.0274 	 17.3457 	 72.9622
| 10> C 	 32.3196 	 17.8142 	 72.8083
| 11> C 	 33.1275 	 16.9829 	 72.0665
| 12> H 	 32.6062 	 18.726 	 73.305
| 13> C 	 30.0119 	 18.0557 	 73.7986
| 14> H 	 29.0484 	 17.4937 	 73.5729
| 15> H 	 29.7601 	 19.0711 	 73.7319
| 16> C 	 30.3568 	 17.8727 	 75.2711
| 17> H 	 30.5551 	 16.822 	 75.4497
| 18> H 	 31.2452 	 18.3982 	 75.5391
| 19> C 	 29.3311 	 18.3222 	 76.1984
| 20> H 	 29.672 	 17.851 	 77.1063
| 21> H 	 29.2345 	 19.4146 	 76.2325
| 22> H 	 28.3551 	 17.8917 	 75.9445
| 23> S 	 34.9364 	 18.9114 	 71.2579
| 24> C 	 36.6447 	 18.5155 	 71.1289
| 25> C 	 36.7893 	 17.1754 	 71.3973
| 26> C 	 35.576 	 16.3963 	 71.522
| 27> C 	 34.4974 	 17.2314 	 71.7094
| 28> H 	 37.7929 	 16.8299 	 71.4093
| 29> C 	 35.6198 	 14.9067 	 71.7414
| 30> H 	 34.8601 	 14.7921 	 72.5144
| 31> H 	 36.5683 	 14.7332 	 72.1164
| 32> C 	 35.542 	 13.9732 	 70.5491
| 33> H 	 36.4545 	 14.0448 	 69.8995
| 34> H 	 34.6823 	 14.3586 	 69.9529
| 35> C 	 35.3951 	 12.4473 	 70.9942
| 36> H 	 34.5594 	 12.1181 	 71.7385
| 37> H 	 36.3157 	 12.1214 	 71.4346
| 38> H 	 35.2664 	 11.7806 	 70.1416
| 39> H 	 29.9152 	 15.5858 	 72.2465
| 40> H 	 37.4081 	 19.1779 	 70.8033
| 41> *
| 42>
| 43>                          ****END OF INPUT****

CARTESIAN COORDINATES (ANGSTROEM)
---------------------------------
  S     32.240700   15.546000   71.523900
  C     30.825300   16.113700   72.290700
  C     31.027400   17.345700   72.962200
  C     32.319600   17.814200   72.808300
  C     33.127500   16.982900   72.066500
  H     32.606200   18.726000   73.305000
  C     30.011900   18.055700   73.798600
  H     29.048400   17.493700   73.572900
  H     29.760100   19.071100   73.731900
  C     30.356800   17.872700   75.271100
  H     30.555100   16.822000   75.449700
  H     31.245200   18.398200   75.539100
  C     29.331100   18.322200   76.198400
  H     29.672000   17.851000   77.106300
  H     29.234500   19.414600   76.232500
  H     28.355100   17.891700   75.944500
  S     34.936400   18.911400   71.257900
  C     36.644700   18.515500   71.128900
  C     36.789300   17.175400   71.397300
  C     35.576000   16.396300   71.522000
  C     34.497400   17.231400   71.709400
  H     37.792900   16.829900   71.409300
  C     35.619800   14.906700   71.741400
  H     34.860100   14.792100   72.514400
  H     36.568300   14.733200   72.116400
  C     35.542000   13.973200   70.549100
  H     36.454500   14.044800   69.899500
  H     34.682300   14.358600   69.952900
  C     35.395100   12.447300   70.994200
  H     34.559400   12.118100   71.738500
  H     36.315700   12.121400   71.434600
  H     35.266400   11.780600   70.141600
  H     29.915200   15.585800   72.246500
  H     37.408100   19.177900   70.803300

 Total Charge           Charge          ....    0
 Multiplicity           Mult            ....    1
 Number of Electrons    NEL             ....  134
 Basis Dimension        Dim             ....  322

ORBITAL ENERGIES
----------------

  NO   OCC          E(Eh)            E(eV)
   0   2.0000     -88.973220     -2421.0844
   1   2.0000     -88.960005     -2420.7248
   2   2.0000     -10.329972      -281.0928
   3   2.0000     -10.327097      -281.0146
   4   2.0000     -10.313350      -280.6405
   5   2.0000     -10.312242      -280.6104
   6   2.0000     -10.301425      -280.3160
   7   2.0000     -10.298791      -280.2444
   8   2.0000     -10.297100      -280.1983
   9   2.0000     -10.290173      -280.0098
  10   2.0000     -10.288276      -279.9582
  11   2.0000     -10.287565      -279.9389
  12   2.0000     -10.286687      -279.9150
  13   2.0000     -10.281969      -279.7866
  14   2.0000     -10.272664      -279.5334
  15   2.0000     -10.271574      -279.5037
  16   2.0000      -8.087614      -220.0752
  17   2.0000      -8.074051      -219.7061
  18   2.0000      -6.046008      -164.5202
  19   2.0000      -6.042108      -164.4141
  20   2.0000      -6.038604      -164.3188
  21   2.0000      -6.032738      -164.1592
  22   2.0000      -6.028699      -164.0492
  23   2.0000      -6.024607      -163.9379
  24   2.0000      -1.008794       -27.4507
  25   2.0000      -0.983857       -26.7721
  26   2.0000      -0.924969       -25.1697
  27   2.0000      -0.907422       -24.6922
  28   2.0000      -0.873528       -23.7699
  29   2.0000      -0.862973       -23.4827
  30   2.0000      -0.842033       -22.9129
  31   2.0000      -0.814524       -22.1643
  32   2.0000      -0.783277       -21.3140
  33   2.0000      -0.770532       -20.9672
  34   2.0000      -0.709788       -19.3143
  35   2.0000      -0.696526       -18.9534
  36   2.0000      -0.689814       -18.7708
  37   2.0000      -0.671206       -18.2644
  38   2.0000      -0.642870       -17.4934
  39   2.0000      -0.625574       -17.0227
  40   2.0000      -0.590861       -16.0781
  41   2.0000      -0.583569       -15.8797
  42   2.0000      -0.569091       -15.4857
  43   2.0000      -0.561316       -15.2742
  44   2.0000      -0.534400       -14.5418
  45   2.0000      -0.522827       -14.2268
  46   2.0000      -0.519642       -14.1402
  47   2.0000      -0.514135       -13.9903
  48   2.0000      -0.504772       -13.7355
  49   2.0000      -0.500190       -13.6109
  50   2.0000      -0.496657       -13.5147
  51   2.0000      -0.478841       -13.0299
  52   2.0000      -0.470682       -12.8079
  53   2.0000      -0.466659       -12.6984
  54   2.0000      -0.461613       -12.5611
  55   2.0000      -0.442951       -12.0533
  56   2.0000      -0.439973       -11.9723
  57   2.0000      -0.438342       -11.9279
  58   2.0000      -0.431796       -11.7498
  59   2.0000      -0.426416       -11.6034
  60   2.0000      -0.418044       -11.3755
  61   2.0000      -0.413266       -11.2455
  62   2.0000      -0.411250       -11.1907
  63   2.0000      -0.357419        -9.7259
  64   2.0000      -0.334090        -9.0911
  65   2.0000      -0.324938        -8.8420
  66   2.0000      -0.281733        -7.6664
  67   0.0000       0.023534         0.6404
  68   0.0000       0.077702         2.1144
  69   0.0000       0.105074         2.8592
  70   0.0000       0.112989         3.0746
  71   0.0000       0.131220         3.5707

MULLIKEN ATOMIC CHARGES
-----------------------
   0 S :    0.124237
   1 C :   -0.110782
   2 C :   -0.061443
   3 C :    0.004242
   4 C :   -0.132151
   5 H :    0.012097
   6 C :    0.077207
   7 H :    0.014971
   8 H :    0.014983
   9 C :   -0.102064
  10 H :    0.021058
  11 H :    0.020190
  12 C :   -0.007670
  13 H :    0.030754
  14 H :    0.034052
  15 H :    0.019072
  16 S :    0.086711
  17 C :   -0.085880
  18 C :   -0.024037
  19 C :   -0.056866
  20 C :   -0.120759
  21 H :    0.004929
  22 C :    0.087273
  23 H :    0.032303
  24 H :   -0.006165
  25 C :   -0.072115
  26 H :    0.040924
  27 H :    0.034859
  28 C :   -0.071825
  29 H :    0.049613
  30 H :    0.024057
  31 H :    0.034494
  32 H :    0.032301
  33 H :    0.051430
Sum of atomic charges:    0.0000000

LOEWDIN ATOMIC CHARGES
----------------------
   0 S :    0.434898
   1 C :   -0.206648
   2 C :   -0.057398
   3 C :   -0.061034
   4 C :   -0.185909
   5 H :    0.032538
   6 C :   -0.031816
   7 H :    0.034502
   8 H :    0.021854
   9 C :   -0.042900
  10 H :    0.023105
  11 H :    0.020004
  12 C :   -0.060628
  13 H :    0.031779
  14 H :    0.025186
  15 H :    0.022238
  16 S :    0.378331
  17 C :   -0.180622
  18 C :   -0.066923
  19 C :   -0.058661
  20 C :   -0.176594
  21 H :    0.023562
  22 C :   -0.036432
  23 H :    0.029402
  24 H :    0.021162
  25 C :   -0.037605
  26 H :    0.032625
  27 H :    0.020559
  28 C :   -0.075575
  29 H :    0.037724
  30 H :    0.019482
  31 H :    0.025556
  32 H :    0.016981
  33 H :    0.027254

  Mayer bond orders larger than 0.100000
B(  0-S ,  1-C ) :   1.1635 B(  0-S ,  4-C ) :   1.1508 B(  1-C ,  2-C ) :   1.5492
B(  1-C ,  4-C ) :   0.1032 B(  1-C , 32-H ) :   0.9720 B(  2-C ,  3-C ) :   1.3015
B(  2-C ,  6-C ) :   1.0317 B(  3-C ,  4-C ) :   1.5003 B(  3-C ,  5-H ) :   0.9978
B(  4-C , 20-C ) :   1.0899 B(  6-C ,  7-H ) :   0.9362 B(  6-C ,  8-H ) :   0.9448
B(  6-C ,  9-C ) :   1.0616 B(  9-C , 10-H ) :   0.9540 B(  9-C , 11-H ) :   0.9483
B(  9-C , 12-C ) :   1.1009 B( 12-C , 13-H ) :   0.9713 B( 12-C , 14-H ) :   0.9687
B( 12-C , 15-H ) :   0.9707 B( 16-S , 17-C ) :   1.1285 B( 16-S , 20-C ) :   1.1227
B( 17-C , 18-C ) :   1.6380 B( 17-C , 33-H ) :   0.9730 B( 18-C , 19-C ) :   1.2090
B( 18-C , 21-H ) :   0.9909 B( 19-C , 20-C ) :   1.5781 B( 19-C , 22-C ) :   1.0478
B( 22-C , 23-H ) :   0.9379 B( 22-C , 24-H ) :   0.9225 B( 22-C , 25-C ) :   1.0554
B( 25-C , 26-H ) :   0.9531 B( 25-C , 27-H ) :   0.9594 B( 25-C , 28-C ) :   1.0634
B( 28-C , 29-H ) :   0.9779 B( 28-C , 30-H ) :   0.9754 B( 28-C , 31-H ) :   0.9770

Dispersion correction           -0.013904202
FINAL SINGLE POINT ENERGY     -1339.862933753616

DIPOLE MOMENT
-------------
                                X             Y             Z
Electronic contribution:      6.43812       9.77239     -12.08333
Nuclear contribution   :     -6.39710      -9.95930      12.38145
                        -----------------------------------------
Total Dipole Moment    :      0.04102      -0.18691       0.29812
                        -----------------------------------------
Magnitude (a.u.)       :      0.35425
Magnitude (Debye)      :      0.90043

Rotational constants in cm-1:     0.019647     0.008128     0.006358
Rotational constants in MHz :   589.015593   243.666007   190.620124

                             ****ORCA TERMINATED NORMALLY****
TOTAL RUN TIME: 0 days 0 hours 0 minutes 28 seconds 181 msec
