                         Program Version 4.2.1 -  RELEASE  -
|  1> ! wB97X-D3 SP def2-SVP
|  2> %pal
|  3> nprocs 16
|  4> end
|  5>
|  6> * xyz 0 1
|  7> S 	 51.106 	 20.4905 	 89.3594
|  8> C 	 49.413 	 20.5782 	 88.8536
|  9> C 	 48.7355 	 21.3263 	 89.7978
| 10> C 	 49.5739 	 22.0613 	 90.67
| 11> C 	 50.9179 	 21.7131 	 90.5599
| 12> H 	 49.3262 	 22.8346 	 91.4036
| 13> C 	 47.2381 	 21.393 	 89.9346
| 14> H 	 46.8319 	 20.93 	 89.0382
| 15> H 	 47.046 	 22.4585 	 90.0001
| 16> C 	 46.5276 	 20.5616 	 91.0407
| 17> H 	 46.7605 	 19.4853 	 90.9004
| 18> H 	 46.877 	 20.7077 	 92.0752
| 19> C 	 45.0495 	 20.7929 	 91.0898
| 20> H 	 44.7494 	 21.7962 	 91.2351
| 21> H 	 44.5213 	 20.503 	 90.1768
| 22> H 	 44.5691 	 20.3084 	 91.924
| 23> S 	 53.0723 	 23.4578 	 90.5412
| 24> C 	 53.8929 	 23.826 	 92.0515
| 25> C 	 53.2372 	 23.1987 	 93.066
| 26> C 	 52.202 	 22.3748 	 92.6298
| 27> C 	 52.0089 	 22.2972 	 91.326
| 28> H 	 53.5814 	 23.4634 	 94.1087
| 29> C 	 51.3181 	 21.6706 	 93.6554
| 30> H 	 51.7151 	 20.6644 	 93.8849
| 31> H 	 50.3518 	 21.5894 	 93.2677
| 32> C 	 51.2419 	 22.2425 	 95.0896
| 33> H 	 51.156 	 23.3186 	 94.9769
| 34> H 	 52.156 	 22.0274 	 95.6692
| 35> C 	 50.1018 	 21.5294 	 95.9092
| 36> H 	 49.1868 	 22.1527 	 95.9753
| 37> H 	 50.5062 	 21.2978 	 96.9568
| 38> H 	 49.7122 	 20.6024 	 95.4322
| 39> H 	 48.946 	 19.8648 	 88.192
| 40> H 	 54.7264 	 24.4855 	 92.2643
| 41> *
| 42>
| 43>                          ****END OF INPUT****

CARTESIAN COORDINATES (ANGSTROEM)
---------------------------------
  S     51.106000   20.490500   89.359400
  C     49.413000   20.578200   88.853600
  C     48.735500   21.326300   89.797800
  C     49.573900   22.061300   90.670000
  C     50.917900   21.713100   90.559900
  H     49.326200   22.834600   91.403600
  C     47.238100   21.393000   89.934600
  H     46.831900   20.930000   89.038200
  H     47.046000   22.458500   90.000100
  C     46.527600   20.561600   91.040700
  H     46.760500   19.485300   90.900400
  H     46.877000   20.707700   92.075200
  C     45.049500   20.792900   91.089800
  H     44.749400   21.796200   91.235100
  H     44.521300   20.503000   90.176800
  H     44.569100   20.308400   91.924000
  S     53.072300   23.457800   90.541200
  C     53.892900   23.826000   92.051500
  C     53.237200   23.198700   93.066000
  C     52.202000   22.374800   92.629800
  C     52.008900   22.297200   91.326000
  H     53.581400   23.463400   94.108700
  C     51.318100   21.670600   93.655400
  H     51.715100   20.664400   93.884900
  H     50.351800   21.589400   93.267700
  C     51.241900   22.242500   95.089600
  H     51.156000   23.318600   94.976900
  H     52.156000   22.027400   95.669200
  C     50.101800   21.529400   95.909200
  H     49.186800   22.152700   95.975300
  H     50.506200   21.297800   96.956800
  H     49.712200   20.602400   95.432200
  H     48.946000   19.864800   88.192000
  H     54.726400   24.485500   92.264300

 Total Charge           Charge          ....    0
 Multiplicity           Mult            ....    1
 Number of Electrons    NEL             ....  134
 Basis Dimension        Dim             ....  322

ORBITAL ENERGIES
----------------

  NO   OCC          E(Eh)            E(eV)
   0   2.0000     -88.965816     -2420.8829
   1   2.0000     -88.961851     -2420.7750
   2   2.0000     -10.329318      -281.0750
   3   2.0000     -10.319329      -280.8032
   4   2.0000     -10.315987      -280.7123
   5   2.0000     -10.315212      -280.6912
   6   2.0000     -10.301588      -280.3205
   7   2.0000     -10.294590      -280.1300
   8   2.0000     -10.294125      -280.1174
   9   2.0000     -10.292984      -280.0863
  10   2.0000     -10.291714      -280.0518
  11   2.0000     -10.291226      -280.0385
  12   2.0000     -10.290526      -280.0194
  13   2.0000     -10.290249      -280.0119
  14   2.0000     -10.284014      -279.8422
  15   2.0000     -10.272845      -279.5383
  16   2.0000      -8.080592      -219.8841
  17   2.0000      -8.076567      -219.7746
  18   2.0000      -6.039037      -164.3305
  19   2.0000      -6.035205      -164.2263
  20   2.0000      -6.035023      -164.2213
  21   2.0000      -6.031467      -164.1246
  22   2.0000      -6.031051      -164.1132
  23   2.0000      -6.027190      -164.0082
  24   2.0000      -1.014466       -27.6050
  25   2.0000      -0.991270       -26.9738
  26   2.0000      -0.913763       -24.8647
  27   2.0000      -0.905090       -24.6288
  28   2.0000      -0.876187       -23.8423
  29   2.0000      -0.853418       -23.2227
  30   2.0000      -0.843736       -22.9592
  31   2.0000      -0.818443       -22.2710
  32   2.0000      -0.781717       -21.2716
  33   2.0000      -0.771157       -20.9842
  34   2.0000      -0.709024       -19.2935
  35   2.0000      -0.704212       -19.1626
  36   2.0000      -0.700686       -19.0666
  37   2.0000      -0.653388       -17.7796
  38   2.0000      -0.645523       -17.5656
  39   2.0000      -0.618518       -16.8307
  40   2.0000      -0.597539       -16.2599
  41   2.0000      -0.572585       -15.5808
  42   2.0000      -0.570803       -15.5323
  43   2.0000      -0.562996       -15.3199
  44   2.0000      -0.529677       -14.4132
  45   2.0000      -0.525992       -14.3130
  46   2.0000      -0.516320       -14.0498
  47   2.0000      -0.513474       -13.9723
  48   2.0000      -0.506324       -13.7778
  49   2.0000      -0.497907       -13.5487
  50   2.0000      -0.497412       -13.5353
  51   2.0000      -0.478928       -13.0323
  52   2.0000      -0.471946       -12.8423
  53   2.0000      -0.466899       -12.7050
  54   2.0000      -0.465144       -12.6572
  55   2.0000      -0.450050       -12.2465
  56   2.0000      -0.443220       -12.0606
  57   2.0000      -0.435051       -11.8383
  58   2.0000      -0.430479       -11.7139
  59   2.0000      -0.419674       -11.4199
  60   2.0000      -0.419346       -11.4110
  61   2.0000      -0.416114       -11.3230
  62   2.0000      -0.410568       -11.1721
  63   2.0000      -0.339425        -9.2362
  64   2.0000      -0.329759        -8.9732
  65   2.0000      -0.326470        -8.8837
  66   2.0000      -0.308740        -8.4012
  67   0.0000       0.035560         0.9676
  68   0.0000       0.062705         1.7063
  69   0.0000       0.115222         3.1353
  70   0.0000       0.122305         3.3281
  71   0.0000       0.130413         3.5487

MULLIKEN ATOMIC CHARGES
-----------------------
   0 S :    0.113472
   1 C :   -0.107860
   2 C :   -0.105346
   3 C :    0.044976
   4 C :   -0.195067
   5 H :    0.024945
   6 C :    0.072978
   7 H :    0.012151
   8 H :    0.033409
   9 C :   -0.064928
  10 H :    0.029322
  11 H :    0.021390
  12 C :   -0.023980
  13 H :    0.012498
  14 H :    0.023621
  15 H :    0.027184
  16 S :    0.100648
  17 C :   -0.077925
  18 C :   -0.078335
  19 C :   -0.018668
  20 C :   -0.141545
  21 H :    0.039880
  22 C :    0.097067
  23 H :    0.038590
  24 H :    0.003716
  25 C :   -0.108738
  26 H :    0.033791
  27 H :    0.037284
  28 C :   -0.082332
  29 H :    0.041012
  30 H :    0.049987
  31 H :    0.041462
  32 H :    0.053410
  33 H :    0.051930
Sum of atomic charges:   -0.0000000

LOEWDIN ATOMIC CHARGES
----------------------
   0 S :    0.416880
   1 C :   -0.197078
   2 C :   -0.063789
   3 C :   -0.063764
   4 C :   -0.200076
   5 H :    0.035806
   6 C :   -0.029148
   7 H :    0.030814
   8 H :    0.032375
   9 C :   -0.043081
  10 H :    0.028757
  11 H :    0.022495
  12 C :   -0.066098
  13 H :    0.019898
  14 H :    0.024139
  15 H :    0.028090
  16 S :    0.398726
  17 C :   -0.176211
  18 C :   -0.085730
  19 C :   -0.063334
  20 C :   -0.200885
  21 H :    0.043747
  22 C :   -0.027047
  23 H :    0.039123
  24 H :    0.015769
  25 C :   -0.045418
  26 H :    0.019214
  27 H :    0.023897
  28 C :   -0.075301
  29 H :    0.028632
  30 H :    0.036023
  31 H :    0.028970
  32 H :    0.028910
  33 H :    0.034694

  Mayer bond orders larger than 0.100000
B(  0-S ,  1-C ) :   1.1334 B(  0-S ,  4-C ) :   1.1776 B(  1-C ,  2-C ) :   1.6009
B(  1-C ,  4-C ) :   0.1011 B(  1-C , 32-H ) :   0.9676 B(  2-C ,  3-C ) :   1.2398
B(  2-C ,  6-C ) :   1.0344 B(  3-C ,  4-C ) :   1.5628 B(  3-C ,  5-H ) :   0.9888
B(  4-C , 20-C ) :   1.0099 B(  6-C ,  7-H ) :   0.9367 B(  6-C ,  8-H ) :   0.9414
B(  6-C ,  9-C ) :   1.0565 B(  9-C , 10-H ) :   0.9522 B(  9-C , 11-H ) :   0.9550
B(  9-C , 12-C ) :   1.0903 B( 12-C , 13-H ) :   0.9712 B( 12-C , 14-H ) :   0.9727
B( 12-C , 15-H ) :   0.9706 B( 16-S , 17-C ) :   1.1577 B( 16-S , 20-C ) :   1.1203
B( 17-C , 18-C ) :   1.6229 B( 17-C , 33-H ) :   0.9616 B( 18-C , 19-C ) :   1.2362
B( 18-C , 21-H ) :   0.9809 B( 19-C , 20-C ) :   1.6509 B( 19-C , 22-C ) :   1.0304
B( 22-C , 23-H ) :   0.9209 B( 22-C , 24-H ) :   0.9360 B( 22-C , 25-C ) :   1.0802
B( 25-C , 26-H ) :   0.9626 B( 25-C , 27-H ) :   0.9554 B( 25-C , 28-C ) :   1.0538
B( 28-C , 29-H ) :   0.9765 B( 28-C , 30-H ) :   0.9804 B( 28-C , 31-H ) :   0.9757

Dispersion correction           -0.013706727
FINAL SINGLE POINT ENERGY     -1339.866973244716

DIPOLE MOMENT
-------------
                                X             Y             Z
Electronic contribution:     24.79923       4.47356     -20.16486
Nuclear contribution   :    -25.34230      -4.45895      20.82260
                        -----------------------------------------
Total Dipole Moment    :     -0.54307       0.01462       0.65774
                        -----------------------------------------
Magnitude (a.u.)       :      0.85309
Magnitude (Debye)      :      2.16838

Rotational constants in cm-1:     0.016634     0.009020     0.006440
Rotational constants in MHz :   498.682096   270.417172   193.077428

                             ****ORCA TERMINATED NORMALLY****
TOTAL RUN TIME: 0 days 0 hours 0 minutes 28 seconds 219 msec
