                         Program Version 4.2.1 -  RELEASE  -
|  1> ! wB97X-D3 SP def2-SVP
|  2> %pal
|  3> nprocs 16
|  4> end
|  5>
|  6> * xyz 0 1
|  7> S 	 66.6127 	 21.5736 	 70.686
|  8> C 	 65.599 	 20.3035 	 71.3394
|  9> C 	 65.7174 	 20.175 	 72.6964
| 10> C 	 66.4554 	 21.1834 	 73.2369
| 11> C 	 66.8387 	 22.0885 	 72.2786
| 12> H 	 66.4422 	 21.355 	 74.3289
| 13> C 	 65.0248 	 19.0204 	 73.4576
| 14> H 	 65.8554 	 18.4838 	 74.0393
| 15> H 	 64.6785 	 18.2861 	 72.7558
| 16> C 	 63.9269 	 19.4984 	 74.4212
| 17> H 	 64.4852 	 20.2003 	 75.0611
| 18> H 	 63.1226 	 20.2012 	 74.0502
| 19> C 	 63.3572 	 18.2936 	 75.2303
| 20> H 	 62.664 	 17.6812 	 74.6915
| 21> H 	 64.1615 	 17.6591 	 75.5817
| 22> H 	 62.9429 	 18.6753 	 76.0851
| 23> S 	 66.1147 	 24.2198 	 73.6804
| 24> C 	 66.9401 	 25.7579 	 73.5322
| 25> C 	 67.9913 	 25.6601 	 72.5914
| 26> C 	 68.1524 	 24.3533 	 72.0406
| 27> C 	 67.2252 	 23.4497 	 72.5695
| 28> H 	 68.6386 	 26.4961 	 72.6043
| 29> C 	 69.2519 	 24.099 	 70.988
| 30> H 	 69.4968 	 24.9566 	 70.401
| 31> H 	 68.8621 	 23.4775 	 70.2505
| 32> C 	 70.5023 	 23.4122 	 71.6765
| 33> H 	 70.0729 	 22.4473 	 72.2105
| 34> H 	 70.775 	 24.2108 	 72.3499
| 35> C 	 71.6376 	 23.2259 	 70.695
| 36> H 	 72.3702 	 22.5743 	 71.1456
| 37> H 	 72.1927 	 24.1849 	 70.5322
| 38> H 	 71.3467 	 22.8715 	 69.7304
| 39> H 	 64.9787 	 19.6366 	 70.7192
| 40> H 	 66.6568 	 26.7177 	 74.0042
| 41> *
| 42>
| 43>                          ****END OF INPUT****

CARTESIAN COORDINATES (ANGSTROEM)
---------------------------------
  S     66.612700   21.573600   70.686000
  C     65.599000   20.303500   71.339400
  C     65.717400   20.175000   72.696400
  C     66.455400   21.183400   73.236900
  C     66.838700   22.088500   72.278600
  H     66.442200   21.355000   74.328900
  C     65.024800   19.020400   73.457600
  H     65.855400   18.483800   74.039300
  H     64.678500   18.286100   72.755800
  C     63.926900   19.498400   74.421200
  H     64.485200   20.200300   75.061100
  H     63.122600   20.201200   74.050200
  C     63.357200   18.293600   75.230300
  H     62.664000   17.681200   74.691500
  H     64.161500   17.659100   75.581700
  H     62.942900   18.675300   76.085100
  S     66.114700   24.219800   73.680400
  C     66.940100   25.757900   73.532200
  C     67.991300   25.660100   72.591400
  C     68.152400   24.353300   72.040600
  C     67.225200   23.449700   72.569500
  H     68.638600   26.496100   72.604300
  C     69.251900   24.099000   70.988000
  H     69.496800   24.956600   70.401000
  H     68.862100   23.477500   70.250500
  C     70.502300   23.412200   71.676500
  H     70.072900   22.447300   72.210500
  H     70.775000   24.210800   72.349900
  C     71.637600   23.225900   70.695000
  H     72.370200   22.574300   71.145600
  H     72.192700   24.184900   70.532200
  H     71.346700   22.871500   69.730400
  H     64.978700   19.636600   70.719200
  H     66.656800   26.717700   74.004200

 Total Charge           Charge          ....    0
 Multiplicity           Mult            ....    1
 Number of Electrons    NEL             ....  134
 Basis Dimension        Dim             ....  322

ORBITAL ENERGIES
----------------

  NO   OCC          E(Eh)            E(eV)
   0   2.0000     -88.968734     -2420.9623
   1   2.0000     -88.965489     -2420.8740
   2   2.0000     -10.323930      -280.9284
   3   2.0000     -10.322266      -280.8831
   4   2.0000     -10.316944      -280.7383
   5   2.0000     -10.308022      -280.4955
   6   2.0000     -10.303842      -280.3818
   7   2.0000     -10.297808      -280.2176
   8   2.0000     -10.293353      -280.0964
   9   2.0000     -10.292301      -280.0678
  10   2.0000     -10.291498      -280.0459
  11   2.0000     -10.290554      -280.0202
  12   2.0000     -10.286658      -279.9142
  13   2.0000     -10.284770      -279.8628
  14   2.0000     -10.275257      -279.6040
  15   2.0000     -10.271009      -279.4884
  16   2.0000      -8.084578      -219.9925
  17   2.0000      -8.079761      -219.8615
  18   2.0000      -6.042729      -164.4310
  19   2.0000      -6.039234      -164.3359
  20   2.0000      -6.038244      -164.3090
  21   2.0000      -6.035356      -164.2304
  22   2.0000      -6.034216      -164.1994
  23   2.0000      -6.030693      -164.1035
  24   2.0000      -1.018412       -27.7124
  25   2.0000      -0.983480       -26.7619
  26   2.0000      -0.909627       -24.7522
  27   2.0000      -0.903720       -24.5915
  28   2.0000      -0.867827       -23.6148
  29   2.0000      -0.858315       -23.3559
  30   2.0000      -0.844800       -22.9882
  31   2.0000      -0.809726       -22.0338
  32   2.0000      -0.785175       -21.3657
  33   2.0000      -0.769781       -20.9468
  34   2.0000      -0.708466       -19.2783
  35   2.0000      -0.696208       -18.9448
  36   2.0000      -0.688428       -18.7331
  37   2.0000      -0.664611       -18.0850
  38   2.0000      -0.632879       -17.2215
  39   2.0000      -0.625208       -17.0128
  40   2.0000      -0.591848       -16.1050
  41   2.0000      -0.565804       -15.3963
  42   2.0000      -0.561425       -15.2772
  43   2.0000      -0.552662       -15.0387
  44   2.0000      -0.530967       -14.4483
  45   2.0000      -0.522576       -14.2200
  46   2.0000      -0.517748       -14.0886
  47   2.0000      -0.505967       -13.7681
  48   2.0000      -0.502379       -13.6704
  49   2.0000      -0.497880       -13.5480
  50   2.0000      -0.496973       -13.5233
  51   2.0000      -0.475630       -12.9425
  52   2.0000      -0.474223       -12.9043
  53   2.0000      -0.469588       -12.7782
  54   2.0000      -0.460555       -12.5323
  55   2.0000      -0.449818       -12.2402
  56   2.0000      -0.444500       -12.0955
  57   2.0000      -0.440361       -11.9828
  58   2.0000      -0.427592       -11.6354
  59   2.0000      -0.426539       -11.6067
  60   2.0000      -0.418887       -11.3985
  61   2.0000      -0.415106       -11.2956
  62   2.0000      -0.406557       -11.0630
  63   2.0000      -0.343374        -9.3437
  64   2.0000      -0.339902        -9.2492
  65   2.0000      -0.328959        -8.9514
  66   2.0000      -0.281661        -7.6644
  67   0.0000       0.028686         0.7806
  68   0.0000       0.069622         1.8945
  69   0.0000       0.102218         2.7815
  70   0.0000       0.119460         3.2507
  71   0.0000       0.131558         3.5799

MULLIKEN ATOMIC CHARGES
-----------------------
   0 S :    0.130487
   1 C :   -0.145170
   2 C :   -0.064800
   3 C :   -0.007609
   4 C :   -0.137515
   5 H :    0.029838
   6 C :    0.062948
   7 H :    0.045147
   8 H :    0.012298
   9 C :   -0.117686
  10 H :    0.017054
  11 H :    0.047286
  12 C :    0.018811
  13 H :    0.036068
  14 H :    0.016563
  15 H :    0.012758
  16 S :    0.108294
  17 C :   -0.123682
  18 C :   -0.036207
  19 C :   -0.043119
  20 C :   -0.147298
  21 H :    0.012680
  22 C :    0.095420
  23 H :    0.012282
  24 H :   -0.008103
  25 C :   -0.111669
  26 H :    0.065395
  27 H :    0.030209
  28 C :   -0.013454
  29 H :    0.034261
  30 H :    0.029959
  31 H :    0.026347
  32 H :    0.044142
  33 H :    0.068066
Sum of atomic charges:    0.0000000

LOEWDIN ATOMIC CHARGES
----------------------
   0 S :    0.436659
   1 C :   -0.199249
   2 C :   -0.066435
   3 C :   -0.080480
   4 C :   -0.209364
   5 H :    0.035706
   6 C :   -0.027723
   7 H :    0.041827
   8 H :    0.020707
   9 C :   -0.047032
  10 H :    0.021618
  11 H :    0.033833
  12 C :   -0.053777
  13 H :    0.024378
  14 H :    0.026029
  15 H :    0.016004
  16 S :    0.421055
  17 C :   -0.200847
  18 C :   -0.069609
  19 C :   -0.059256
  20 C :   -0.194519
  21 H :    0.025240
  22 C :   -0.028434
  23 H :    0.025886
  24 H :    0.009474
  25 C :   -0.041380
  26 H :    0.042162
  27 H :    0.024532
  28 C :   -0.068462
  29 H :    0.027530
  30 H :    0.032328
  31 H :    0.019154
  32 H :    0.026653
  33 H :    0.035792

  Mayer bond orders larger than 0.100000
B(  0-S ,  1-C ) :   1.1349 B(  0-S ,  4-C ) :   1.1814 B(  1-C ,  2-C ) :   1.6122
B(  1-C , 32-H ) :   0.9647 B(  2-C ,  3-C ) :   1.2750 B(  2-C ,  6-C ) :   1.0105
B(  3-C ,  4-C ) :   1.5123 B(  3-C ,  5-H ) :   0.9916 B(  4-C , 20-C ) :   1.0520
B(  6-C ,  7-H ) :   0.9407 B(  6-C ,  8-H ) :   0.9462 B(  6-C ,  9-C ) :   1.0455
B(  9-C , 10-H ) :   0.9563 B(  9-C , 11-H ) :   0.9582 B(  9-C , 12-C ) :   1.0759
B( 12-C , 13-H ) :   0.9780 B( 12-C , 14-H ) :   0.9710 B( 12-C , 15-H ) :   0.9716
B( 16-S , 17-C ) :   1.1590 B( 16-S , 20-C ) :   1.1515 B( 17-C , 18-C ) :   1.6024
B( 17-C , 20-C ) :   0.1040 B( 17-C , 33-H ) :   0.9631 B( 18-C , 19-C ) :   1.2488
B( 18-C , 21-H ) :   0.9913 B( 19-C , 20-C ) :   1.5660 B( 19-C , 22-C ) :   1.0416
B( 22-C , 23-H ) :   0.9401 B( 22-C , 24-H ) :   0.9263 B( 22-C , 25-C ) :   1.0428
B( 25-C , 26-H ) :   0.9572 B( 25-C , 27-H ) :   0.9597 B( 25-C , 28-C ) :   1.0803
B( 28-C , 29-H ) :   0.9714 B( 28-C , 30-H ) :   0.9709 B( 28-C , 31-H ) :   0.9753

Dispersion correction           -0.013953325
FINAL SINGLE POINT ENERGY     -1339.852603007146

DIPOLE MOMENT
-------------
                                X             Y             Z
Electronic contribution:     -5.49152      10.96987      -4.68480
Nuclear contribution   :      5.53600     -11.07305       4.79141
                        -----------------------------------------
Total Dipole Moment    :      0.04448      -0.10318       0.10661
                        -----------------------------------------
Magnitude (a.u.)       :      0.15489
Magnitude (Debye)      :      0.39369

Rotational constants in cm-1:     0.021866     0.007724     0.006405
Rotational constants in MHz :   655.525860   231.569990   192.017236

                             ****ORCA TERMINATED NORMALLY****
TOTAL RUN TIME: 0 days 0 hours 0 minutes 27 seconds 708 msec
