                         Program Version 4.2.1 -  RELEASE  -
|  1> ! wB97X-D3 SP def2-SVP
|  2> %pal
|  3> nprocs 16
|  4> end
|  5>
|  6> * xyz 0 1
|  7> S 	 46.4743 	 4.43603 	 91.2165
|  8> C 	 45.7132 	 5.79416 	 90.4898
|  9> C 	 45.3389 	 5.52515 	 89.2182
| 10> C 	 45.7889 	 4.21403 	 88.7606
| 11> C 	 46.4158 	 3.47829 	 89.7257
| 12> H 	 45.5865 	 3.68305 	 87.7587
| 13> C 	 44.5313 	 6.46539 	 88.3842
| 14> H 	 44.9262 	 6.71644 	 87.4393
| 15> H 	 44.4596 	 7.45445 	 88.74
| 16> C 	 43.1192 	 5.95487 	 88.2432
| 17> H 	 43.1848 	 5.0281 	 87.7013
| 18> H 	 42.8068 	 5.70651 	 89.2036
| 19> C 	 42.1428 	 7.04537 	 87.8445
| 20> H 	 41.1249 	 6.65439 	 87.7029
| 21> H 	 42.0203 	 7.91234 	 88.5056
| 22> H 	 42.5144 	 7.39087 	 86.8401
| 23> S 	 46.032 	 1.10825 	 90.9194
| 24> C 	 46.6955 	 -0.338321 	 90.3002
| 25> C 	 47.4333 	 -0.121196 	 89.1535
| 26> C 	 47.4962 	 1.26536 	 88.7366
| 27> C 	 46.7264 	 2.04427 	 89.6512
| 28> H 	 47.8208 	 -0.915648 	 88.5558
| 29> C 	 48.1386 	 1.81776 	 87.4606
| 30> H 	 47.3668 	 2.24095 	 86.854
| 31> H 	 48.5528 	 1.02683 	 86.7712
| 32> C 	 49.3338 	 2.77532 	 87.7514
| 33> H 	 50.1158 	 2.08101 	 88.2132
| 34> H 	 49.0904 	 3.62283 	 88.5016
| 35> C 	 49.7222 	 3.48651 	 86.4687
| 36> H 	 49.9357 	 2.72404 	 85.67
| 37> H 	 50.617 	 3.9375 	 86.6909
| 38> H 	 48.9979 	 4.26608 	 86.1796
| 39> H 	 45.5375 	 6.78267 	 90.9028
| 40> H 	 46.6258 	 -1.3754 	 90.7606
| 41> *
| 42>
| 43>                          ****END OF INPUT****

CARTESIAN COORDINATES (ANGSTROEM)
---------------------------------
  S     46.474300    4.436030   91.216500
  C     45.713200    5.794160   90.489800
  C     45.338900    5.525150   89.218200
  C     45.788900    4.214030   88.760600
  C     46.415800    3.478290   89.725700
  H     45.586500    3.683050   87.758700
  C     44.531300    6.465390   88.384200
  H     44.926200    6.716440   87.439300
  H     44.459600    7.454450   88.740000
  C     43.119200    5.954870   88.243200
  H     43.184800    5.028100   87.701300
  H     42.806800    5.706510   89.203600
  C     42.142800    7.045370   87.844500
  H     41.124900    6.654390   87.702900
  H     42.020300    7.912340   88.505600
  H     42.514400    7.390870   86.840100
  S     46.032000    1.108250   90.919400
  C     46.695500   -0.338321   90.300200
  C     47.433300   -0.121196   89.153500
  C     47.496200    1.265360   88.736600
  C     46.726400    2.044270   89.651200
  H     47.820800   -0.915648   88.555800
  C     48.138600    1.817760   87.460600
  H     47.366800    2.240950   86.854000
  H     48.552800    1.026830   86.771200
  C     49.333800    2.775320   87.751400
  H     50.115800    2.081010   88.213200
  H     49.090400    3.622830   88.501600
  C     49.722200    3.486510   86.468700
  H     49.935700    2.724040   85.670000
  H     50.617000    3.937500   86.690900
  H     48.997900    4.266080   86.179600
  H     45.537500    6.782670   90.902800
  H     46.625800   -1.375400   90.760600

 Total Charge           Charge          ....    0
 Multiplicity           Mult            ....    1
 Number of Electrons    NEL             ....  134
 Basis Dimension        Dim             ....  322

ORBITAL ENERGIES
----------------

  NO   OCC          E(Eh)            E(eV)
   0   2.0000     -88.967844     -2420.9381
   1   2.0000     -88.964283     -2420.8412
   2   2.0000     -10.330348      -281.1031
   3   2.0000     -10.327611      -281.0286
   4   2.0000     -10.317152      -280.7440
   5   2.0000     -10.310200      -280.5548
   6   2.0000     -10.309156      -280.5264
   7   2.0000     -10.301240      -280.3110
   8   2.0000     -10.299832      -280.2727
   9   2.0000     -10.295864      -280.1647
  10   2.0000     -10.294108      -280.1169
  11   2.0000     -10.292545      -280.0744
  12   2.0000     -10.283339      -279.8239
  13   2.0000     -10.277721      -279.6710
  14   2.0000     -10.273533      -279.5570
  15   2.0000     -10.273483      -279.5557
  16   2.0000      -8.083537      -219.9642
  17   2.0000      -8.079289      -219.8486
  18   2.0000      -6.041941      -164.4096
  19   2.0000      -6.037908      -164.2998
  20   2.0000      -6.037743      -164.2953
  21   2.0000      -6.034514      -164.2075
  22   2.0000      -6.033756      -164.1869
  23   2.0000      -6.029881      -164.0814
  24   2.0000      -1.009532       -27.4708
  25   2.0000      -0.987934       -26.8830
  26   2.0000      -0.921639       -25.0791
  27   2.0000      -0.906034       -24.6544
  28   2.0000      -0.872122       -23.7317
  29   2.0000      -0.852111       -23.1871
  30   2.0000      -0.843682       -22.9577
  31   2.0000      -0.815812       -22.1994
  32   2.0000      -0.781700       -21.2711
  33   2.0000      -0.770397       -20.9636
  34   2.0000      -0.707523       -19.2527
  35   2.0000      -0.696671       -18.9574
  36   2.0000      -0.682751       -18.5786
  37   2.0000      -0.661855       -18.0100
  38   2.0000      -0.641867       -17.4661
  39   2.0000      -0.617264       -16.7966
  40   2.0000      -0.596594       -16.2342
  41   2.0000      -0.576586       -15.6897
  42   2.0000      -0.564428       -15.3589
  43   2.0000      -0.558214       -15.1898
  44   2.0000      -0.524427       -14.2704
  45   2.0000      -0.520045       -14.1511
  46   2.0000      -0.518054       -14.0970
  47   2.0000      -0.509266       -13.8578
  48   2.0000      -0.503220       -13.6933
  49   2.0000      -0.501767       -13.6538
  50   2.0000      -0.497788       -13.5455
  51   2.0000      -0.480432       -13.0732
  52   2.0000      -0.478266       -13.0143
  53   2.0000      -0.469601       -12.7785
  54   2.0000      -0.456366       -12.4184
  55   2.0000      -0.446129       -12.1398
  56   2.0000      -0.439897       -11.9702
  57   2.0000      -0.435928       -11.8622
  58   2.0000      -0.433042       -11.7837
  59   2.0000      -0.423914       -11.5353
  60   2.0000      -0.418261       -11.3815
  61   2.0000      -0.413954       -11.2643
  62   2.0000      -0.406608       -11.0644
  63   2.0000      -0.350950        -9.5498
  64   2.0000      -0.330889        -9.0039
  65   2.0000      -0.325864        -8.8672
  66   2.0000      -0.293184        -7.9779
  67   0.0000       0.034492         0.9386
  68   0.0000       0.072209         1.9649
  69   0.0000       0.116383         3.1669
  70   0.0000       0.125861         3.4249
  71   0.0000       0.136857         3.7241

MULLIKEN ATOMIC CHARGES
-----------------------
   0 S :    0.105856
   1 C :   -0.101467
   2 C :   -0.098837
   3 C :    0.003192
   4 C :   -0.145168
   5 H :    0.047677
   6 C :    0.110572
   7 H :    0.006104
   8 H :   -0.018748
   9 C :   -0.041742
  10 H :    0.026425
  11 H :    0.007344
  12 C :   -0.062423
  13 H :    0.037539
  14 H :    0.042801
  15 H :    0.024791
  16 S :    0.130710
  17 C :   -0.109087
  18 C :   -0.035183
  19 C :   -0.015636
  20 C :   -0.187118
  21 H :    0.007473
  22 C :    0.051578
  23 H :    0.021629
  24 H :    0.023264
  25 C :   -0.154592
  26 H :    0.047461
  27 H :    0.063048
  28 C :   -0.001615
  29 H :    0.028105
  30 H :    0.013697
  31 H :    0.045856
  32 H :    0.046970
  33 H :    0.079523
Sum of atomic charges:    0.0000000

LOEWDIN ATOMIC CHARGES
----------------------
   0 S :    0.398542
   1 C :   -0.203054
   2 C :   -0.061253
   3 C :   -0.072263
   4 C :   -0.194468
   5 H :    0.045501
   6 C :   -0.030947
   7 H :    0.022052
   8 H :    0.021342
   9 C :   -0.035908
  10 H :    0.023861
  11 H :    0.016633
  12 C :   -0.066757
  13 H :    0.028502
  14 H :    0.028401
  15 H :    0.025768
  16 S :    0.446102
  17 C :   -0.218740
  18 C :   -0.073346
  19 C :   -0.052642
  20 C :   -0.207230
  21 H :    0.026174
  22 C :   -0.038820
  23 H :    0.022369
  24 H :    0.034912
  25 C :   -0.047045
  26 H :    0.032705
  27 H :    0.036286
  28 C :   -0.063879
  29 H :    0.027791
  30 H :    0.015049
  31 H :    0.032428
  32 H :    0.035436
  33 H :    0.046498

  Mayer bond orders larger than 0.100000
B(  0-S ,  1-C ) :   1.1219 B(  0-S ,  4-C ) :   1.1348 B(  1-C ,  2-C ) :   1.6498
B(  1-C , 32-H ) :   0.9643 B(  2-C ,  3-C ) :   1.2070 B(  2-C ,  6-C ) :   1.0433
B(  3-C ,  4-C ) :   1.6070 B(  3-C ,  5-H ) :   0.9754 B(  4-C , 20-C ) :   1.0340
B(  6-C ,  7-H ) :   0.9291 B(  6-C ,  8-H ) :   0.9322 B(  6-C ,  9-C ) :   1.0527
B(  9-C , 10-H ) :   0.9585 B(  9-C , 11-H ) :   0.9506 B(  9-C , 12-C ) :   1.0809
B( 12-C , 13-H ) :   0.9735 B( 12-C , 14-H ) :   0.9729 B( 12-C , 15-H ) :   0.9738
B( 16-S , 17-C ) :   1.1638 B( 16-S , 20-C ) :   1.1802 B( 17-C , 18-C ) :   1.5881
B( 17-C , 33-H ) :   0.9579 B( 18-C , 19-C ) :   1.2757 B( 18-C , 21-H ) :   0.9901
B( 19-C , 20-C ) :   1.5472 B( 19-C , 22-C ) :   1.0311 B( 22-C , 23-H ) :   0.9418
B( 22-C , 24-H ) :   0.9365 B( 22-C , 25-C ) :   1.0422 B( 25-C , 26-H ) :   0.9550
B( 25-C , 27-H ) :   0.9574 B( 25-C , 28-C ) :   1.0764 B( 28-C , 29-H ) :   0.9686
B( 28-C , 30-H ) :   0.9696 B( 28-C , 31-H ) :   0.9731

Dispersion correction           -0.014160224
FINAL SINGLE POINT ENERGY     -1339.866596788510

DIPOLE MOMENT
-------------
                                X             Y             Z
Electronic contribution:      1.85114     -13.10843      21.95717
Nuclear contribution   :     -1.95697      13.24050     -22.50007
                        -----------------------------------------
Total Dipole Moment    :     -0.10583       0.13206      -0.54290
                        -----------------------------------------
Magnitude (a.u.)       :      0.56867
Magnitude (Debye)      :      1.44545

Rotational constants in cm-1:     0.017946     0.008438     0.007074
Rotational constants in MHz :   537.998902   252.979323   212.067514

                             ****ORCA TERMINATED NORMALLY****
TOTAL RUN TIME: 0 days 0 hours 0 minutes 29 seconds 936 msec
