                         Program Version 4.2.1 -  RELEASE  -
|  1> ! wB97X-D3 SP def2-SVP
|  2> %pal
|  3> nprocs 16
|  4> end
|  5>
|  6> * xyz 0 1
|  7> S 	 -40.2787 	 13.7744 	 75.5268
|  8> C 	 -40.3217 	 13.3742 	 73.829
|  9> C 	 -41.4347 	 12.7068 	 73.4752
| 10> C 	 -42.3556 	 12.5899 	 74.544
| 11> C 	 -41.9185 	 13.223 	 75.6973
| 12> H 	 -43.3861 	 12.2225 	 74.4786
| 13> C 	 -42.0602 	 12.5481 	 72.0929
| 14> H 	 -43.0938 	 12.3243 	 72.11
| 15> H 	 -41.5619 	 11.634 	 71.7626
| 16> C 	 -41.7608 	 13.7137 	 71.0814
| 17> H 	 -40.7034 	 14.0141 	 71.0705
| 18> H 	 -41.9625 	 13.3873 	 70.0819
| 19> C 	 -42.548 	 15.0051 	 71.2398
| 20> H 	 -43.604 	 14.7307 	 71.3141
| 21> H 	 -42.3306 	 15.4772 	 72.2919
| 22> H 	 -42.4435 	 15.6661 	 70.4125
| 23> S 	 -43.0592 	 14.7679 	 77.6955
| 24> C 	 -44.1566 	 13.9531 	 78.8511
| 25> C 	 -44.1362 	 12.5883 	 78.672
| 26> C 	 -43.2382 	 12.1769 	 77.6554
| 27> C 	 -42.615 	 13.1961 	 77.0132
| 28> H 	 -44.8411 	 11.9607 	 79.2925
| 29> C 	 -42.9686 	 10.7343 	 77.3746
| 30> H 	 -42.3607 	 10.3688 	 78.2349
| 31> H 	 -42.3179 	 10.6068 	 76.5162
| 32> C 	 -44.1476 	 9.80547 	 77.191
| 33> H 	 -44.7039 	 9.65561 	 78.1456
| 34> H 	 -43.6798 	 8.89778 	 77.0436
| 35> C 	 -44.9597 	 10.2636 	 76.0289
| 36> H 	 -44.4022 	 10.4151 	 75.1034
| 37> H 	 -45.3096 	 11.2344 	 76.1751
| 38> H 	 -45.8426 	 9.65279 	 75.843
| 39> H 	 -39.7233 	 13.8248 	 73.0981
| 40> H 	 -44.8497 	 14.4345 	 79.5441
| 41> *
| 42>
| 43>                          ****END OF INPUT****

CARTESIAN COORDINATES (ANGSTROEM)
---------------------------------
  S    -40.278700   13.774400   75.526800
  C    -40.321700   13.374200   73.829000
  C    -41.434700   12.706800   73.475200
  C    -42.355600   12.589900   74.544000
  C    -41.918500   13.223000   75.697300
  H    -43.386100   12.222500   74.478600
  C    -42.060200   12.548100   72.092900
  H    -43.093800   12.324300   72.110000
  H    -41.561900   11.634000   71.762600
  C    -41.760800   13.713700   71.081400
  H    -40.703400   14.014100   71.070500
  H    -41.962500   13.387300   70.081900
  C    -42.548000   15.005100   71.239800
  H    -43.604000   14.730700   71.314100
  H    -42.330600   15.477200   72.291900
  H    -42.443500   15.666100   70.412500
  S    -43.059200   14.767900   77.695500
  C    -44.156600   13.953100   78.851100
  C    -44.136200   12.588300   78.672000
  C    -43.238200   12.176900   77.655400
  C    -42.615000   13.196100   77.013200
  H    -44.841100   11.960700   79.292500
  C    -42.968600   10.734300   77.374600
  H    -42.360700   10.368800   78.234900
  H    -42.317900   10.606800   76.516200
  C    -44.147600    9.805470   77.191000
  H    -44.703900    9.655610   78.145600
  H    -43.679800    8.897780   77.043600
  C    -44.959700   10.263600   76.028900
  H    -44.402200   10.415100   75.103400
  H    -45.309600   11.234400   76.175100
  H    -45.842600    9.652790   75.843000
  H    -39.723300   13.824800   73.098100
  H    -44.849700   14.434500   79.544100

 Total Charge           Charge          ....    0
 Multiplicity           Mult            ....    1
 Number of Electrons    NEL             ....  134
 Basis Dimension        Dim             ....  322

ORBITAL ENERGIES
----------------

  NO   OCC          E(Eh)            E(eV)
   0   2.0000     -88.965880     -2420.8847
   1   2.0000     -88.963425     -2420.8179
   2   2.0000     -10.328835      -281.0619
   3   2.0000     -10.323429      -280.9148
   4   2.0000     -10.322450      -280.8881
   5   2.0000     -10.304735      -280.4061
   6   2.0000     -10.298862      -280.2463
   7   2.0000     -10.298287      -280.2306
   8   2.0000     -10.294941      -280.1396
   9   2.0000     -10.294361      -280.1238
  10   2.0000     -10.291855      -280.0556
  11   2.0000     -10.288427      -279.9623
  12   2.0000     -10.284653      -279.8596
  13   2.0000     -10.280523      -279.7472
  14   2.0000     -10.279406      -279.7169
  15   2.0000     -10.269886      -279.4578
  16   2.0000      -8.080941      -219.8936
  17   2.0000      -8.077486      -219.7996
  18   2.0000      -6.039441      -164.3416
  19   2.0000      -6.036096      -164.2505
  20   2.0000      -6.035478      -164.2337
  21   2.0000      -6.032116      -164.1422
  22   2.0000      -6.031619      -164.1287
  23   2.0000      -6.028151      -164.0343
  24   2.0000      -1.008393       -27.4398
  25   2.0000      -0.987229       -26.8639
  26   2.0000      -0.918994       -25.0071
  27   2.0000      -0.909319       -24.7438
  28   2.0000      -0.866989       -23.5920
  29   2.0000      -0.853305       -23.2196
  30   2.0000      -0.847909       -23.0728
  31   2.0000      -0.814440       -22.1620
  32   2.0000      -0.784918       -21.3587
  33   2.0000      -0.778719       -21.1900
  34   2.0000      -0.711580       -19.3631
  35   2.0000      -0.704335       -19.1659
  36   2.0000      -0.691841       -18.8259
  37   2.0000      -0.657487       -17.8911
  38   2.0000      -0.641562       -17.4578
  39   2.0000      -0.611475       -16.6391
  40   2.0000      -0.596244       -16.2246
  41   2.0000      -0.577046       -15.7022
  42   2.0000      -0.559765       -15.2320
  43   2.0000      -0.556916       -15.1544
  44   2.0000      -0.542563       -14.7639
  45   2.0000      -0.534008       -14.5311
  46   2.0000      -0.518595       -14.1117
  47   2.0000      -0.518124       -14.0989
  48   2.0000      -0.498434       -13.5631
  49   2.0000      -0.497122       -13.5274
  50   2.0000      -0.492204       -13.3936
  51   2.0000      -0.484082       -13.1726
  52   2.0000      -0.473044       -12.8722
  53   2.0000      -0.464365       -12.6360
  54   2.0000      -0.456550       -12.4233
  55   2.0000      -0.447242       -12.1701
  56   2.0000      -0.445436       -12.1209
  57   2.0000      -0.437927       -11.9166
  58   2.0000      -0.432306       -11.7636
  59   2.0000      -0.425158       -11.5691
  60   2.0000      -0.421572       -11.4715
  61   2.0000      -0.416386       -11.3304
  62   2.0000      -0.408075       -11.1043
  63   2.0000      -0.341519        -9.2932
  64   2.0000      -0.332158        -9.0385
  65   2.0000      -0.326966        -8.8972
  66   2.0000      -0.301287        -8.1984
  67   0.0000       0.032582         0.8866
  68   0.0000       0.067431         1.8349
  69   0.0000       0.113244         3.0815
  70   0.0000       0.124289         3.3821
  71   0.0000       0.127344         3.4652

MULLIKEN ATOMIC CHARGES
-----------------------
   0 S :    0.113889
   1 C :   -0.096478
   2 C :   -0.065563
   3 C :   -0.006202
   4 C :   -0.151322
   5 H :    0.014553
   6 C :    0.085540
   7 H :    0.017928
   8 H :    0.034965
   9 C :   -0.081246
  10 H :    0.025057
  11 H :    0.018097
  12 C :   -0.063743
  13 H :    0.019708
  14 H :    0.051851
  15 H :    0.040601
  16 S :    0.089968
  17 C :   -0.096026
  18 C :   -0.054210
  19 C :   -0.031777
  20 C :   -0.148102
  21 H :    0.042069
  22 C :    0.019302
  23 H :    0.041660
  24 H :    0.025723
  25 C :   -0.017041
  26 H :    0.026870
  27 H :    0.007467
  28 C :   -0.015859
  29 H :    0.017751
  30 H :    0.016822
  31 H :    0.032314
  32 H :    0.024905
  33 H :    0.060529
Sum of atomic charges:   -0.0000000

LOEWDIN ATOMIC CHARGES
----------------------
   0 S :    0.411303
   1 C :   -0.192402
   2 C :   -0.066164
   3 C :   -0.065742
   4 C :   -0.193577
   5 H :    0.031643
   6 C :   -0.019448
   7 H :    0.023137
   8 H :    0.038913
   9 C :   -0.041478
  10 H :    0.021929
  11 H :    0.020597
  12 C :   -0.070136
  13 H :    0.021260
  14 H :    0.038491
  15 H :    0.022868
  16 S :    0.375936
  17 C :   -0.168199
  18 C :   -0.077970
  19 C :   -0.060593
  20 C :   -0.196981
  21 H :    0.043451
  22 C :   -0.031205
  23 H :    0.039806
  24 H :    0.029421
  25 C :   -0.036893
  26 H :    0.025857
  27 H :    0.017575
  28 C :   -0.061631
  29 H :    0.025103
  30 H :    0.018546
  31 H :    0.027555
  32 H :    0.015841
  33 H :    0.033186

  Mayer bond orders larger than 0.100000
B(  0-S ,  1-C ) :   1.1299 B(  0-S ,  4-C ) :   1.1612 B(  1-C ,  2-C ) :   1.6437
B(  1-C , 32-H ) :   0.9634 B(  2-C ,  3-C ) :   1.2295 B(  2-C ,  6-C ) :   1.0010
B(  3-C ,  4-C ) :   1.5956 B(  3-C ,  5-H ) :   0.9901 B(  4-C , 20-C ) :   0.9804
B(  6-C ,  7-H ) :   0.9583 B(  6-C ,  8-H ) :   0.9236 B(  6-C ,  9-C ) :   1.0756
B(  9-C , 10-H ) :   0.9570 B(  9-C , 11-H ) :   0.9523 B(  9-C , 12-C ) :   1.0767
B( 12-C , 13-H ) :   0.9731 B( 12-C , 14-H ) :   0.9745 B( 12-C , 15-H ) :   0.9742
B( 16-S , 17-C ) :   1.1450 B( 16-S , 20-C ) :   1.1171 B( 17-C , 18-C ) :   1.6416
B( 17-C , 33-H ) :   0.9640 B( 18-C , 19-C ) :   1.2052 B( 18-C , 21-H ) :   0.9820
B( 19-C , 20-C ) :   1.6419 B( 19-C , 22-C ) :   1.0401 B( 22-C , 23-H ) :   0.9293
B( 22-C , 24-H ) :   0.9365 B( 22-C , 25-C ) :   1.0851 B( 25-C , 26-H ) :   0.9469
B( 25-C , 27-H ) :   0.9471 B( 25-C , 28-C ) :   1.0787 B( 28-C , 29-H ) :   0.9642
B( 28-C , 30-H ) :   0.9687 B( 28-C , 31-H ) :   0.9672

Dispersion correction           -0.015666105
FINAL SINGLE POINT ENERGY     -1339.866513550536

DIPOLE MOMENT
-------------
                                X             Y             Z
Electronic contribution:     10.74118      11.91059      17.04899
Nuclear contribution   :    -11.25277     -12.35435     -17.37886
                        -----------------------------------------
Total Dipole Moment    :     -0.51159      -0.44376      -0.32987
                        -----------------------------------------
Magnitude (a.u.)       :      0.75330
Magnitude (Debye)      :      1.91474

Rotational constants in cm-1:     0.020015     0.008857     0.007525
Rotational constants in MHz :   600.045639   265.533225   225.601572

                             ****ORCA TERMINATED NORMALLY****
TOTAL RUN TIME: 0 days 0 hours 0 minutes 31 seconds 809 msec
