                         Program Version 4.2.1 -  RELEASE  -
|  1> ! wB97X-D3 SP def2-SVP
|  2> %pal
|  3> nprocs 16
|  4> end
|  5>
|  6> * xyz 0 1
|  7> S 	 -28.3545 	 57.4754 	 117.153
|  8> C 	 -29.9968 	 57.2511 	 116.893
|  9> C 	 -30.6546 	 58.4192 	 116.992
| 10> C 	 -29.7798 	 59.5707 	 116.958
| 11> C 	 -28.4598 	 59.2186 	 117.252
| 12> H 	 -30.1231 	 60.6193 	 116.935
| 13> C 	 -32.1394 	 58.5395 	 116.932
| 14> H 	 -32.4851 	 59.3467 	 117.524
| 15> H 	 -32.5744 	 57.6029 	 117.41
| 16> C 	 -32.8452 	 58.7277 	 115.582
| 17> H 	 -33.9121 	 58.6497 	 115.689
| 18> H 	 -32.5839 	 59.7422 	 115.282
| 19> C 	 -32.3307 	 57.7322 	 114.548
| 20> H 	 -32.8652 	 56.8227 	 114.749
| 21> H 	 -32.5542 	 57.9774 	 113.532
| 22> H 	 -31.2236 	 57.4705 	 114.587
| 23> S 	 -25.9778 	 59.8681 	 116.18
| 24> C 	 -25.0295 	 61.0992 	 117.011
| 25> C 	 -25.7436 	 61.6299 	 118.05
| 26> C 	 -27.1326 	 61.2101 	 118.099
| 27> C 	 -27.3371 	 60.1545 	 117.215
| 28> H 	 -25.2536 	 62.4011 	 118.715
| 29> C 	 -28.1883 	 61.6835 	 119.088
| 30> H 	 -29.2037 	 61.5089 	 118.701
| 31> H 	 -28.1495 	 62.7154 	 119.215
| 32> C 	 -28.1539 	 60.9557 	 120.465
| 33> H 	 -27.3377 	 61.42 	 121.015
| 34> H 	 -27.8956 	 59.8585 	 120.39
| 35> C 	 -29.5874 	 60.9773 	 121.157
| 36> H 	 -30.4256 	 60.6538 	 120.556
| 37> H 	 -29.76 	 61.9367 	 121.64
| 38> H 	 -29.5786 	 60.1821 	 121.902
| 39> H 	 -30.4772 	 56.2677 	 116.901
| 40> H 	 -24.024 	 61.4108 	 116.801
| 41> *
| 42>
| 43>                          ****END OF INPUT****

CARTESIAN COORDINATES (ANGSTROEM)
---------------------------------
  S    -28.354500   57.475400  117.153000
  C    -29.996800   57.251100  116.893000
  C    -30.654600   58.419200  116.992000
  C    -29.779800   59.570700  116.958000
  C    -28.459800   59.218600  117.252000
  H    -30.123100   60.619300  116.935000
  C    -32.139400   58.539500  116.932000
  H    -32.485100   59.346700  117.524000
  H    -32.574400   57.602900  117.410000
  C    -32.845200   58.727700  115.582000
  H    -33.912100   58.649700  115.689000
  H    -32.583900   59.742200  115.282000
  C    -32.330700   57.732200  114.548000
  H    -32.865200   56.822700  114.749000
  H    -32.554200   57.977400  113.532000
  H    -31.223600   57.470500  114.587000
  S    -25.977800   59.868100  116.180000
  C    -25.029500   61.099200  117.011000
  C    -25.743600   61.629900  118.050000
  C    -27.132600   61.210100  118.099000
  C    -27.337100   60.154500  117.215000
  H    -25.253600   62.401100  118.715000
  C    -28.188300   61.683500  119.088000
  H    -29.203700   61.508900  118.701000
  H    -28.149500   62.715400  119.215000
  C    -28.153900   60.955700  120.465000
  H    -27.337700   61.420000  121.015000
  H    -27.895600   59.858500  120.390000
  C    -29.587400   60.977300  121.157000
  H    -30.425600   60.653800  120.556000
  H    -29.760000   61.936700  121.640000
  H    -29.578600   60.182100  121.902000
  H    -30.477200   56.267700  116.901000
  H    -24.024000   61.410800  116.801000

 Total Charge           Charge          ....    0
 Multiplicity           Mult            ....    1
 Number of Electrons    NEL             ....  134
 Basis Dimension        Dim             ....  322

ORBITAL ENERGIES
----------------

  NO   OCC          E(Eh)            E(eV)
   0   2.0000     -88.966227     -2420.8941
   1   2.0000     -88.965100     -2420.8635
   2   2.0000     -10.330354      -281.1032
   3   2.0000     -10.324996      -280.9574
   4   2.0000     -10.315673      -280.7037
   5   2.0000     -10.308015      -280.4954
   6   2.0000     -10.305313      -280.4218
   7   2.0000     -10.299716      -280.2695
   8   2.0000     -10.297808      -280.2176
   9   2.0000     -10.295364      -280.1511
  10   2.0000     -10.291718      -280.0519
  11   2.0000     -10.288037      -279.9517
  12   2.0000     -10.286663      -279.9143
  13   2.0000     -10.284193      -279.8471
  14   2.0000     -10.278918      -279.7036
  15   2.0000     -10.270424      -279.4724
  16   2.0000      -8.081230      -219.9014
  17   2.0000      -8.080924      -219.8931
  18   2.0000      -6.039673      -164.3479
  19   2.0000      -6.039521      -164.3437
  20   2.0000      -6.035433      -164.2325
  21   2.0000      -6.035381      -164.2311
  22   2.0000      -6.032053      -164.1405
  23   2.0000      -6.031637      -164.1292
  24   2.0000      -1.013487       -27.5784
  25   2.0000      -0.989693       -26.9309
  26   2.0000      -0.913969       -24.8704
  27   2.0000      -0.901266       -24.5247
  28   2.0000      -0.872319       -23.7370
  29   2.0000      -0.847961       -23.0742
  30   2.0000      -0.841415       -22.8961
  31   2.0000      -0.815720       -22.1969
  32   2.0000      -0.782228       -21.2855
  33   2.0000      -0.774147       -21.0656
  34   2.0000      -0.708555       -19.2807
  35   2.0000      -0.696093       -18.9416
  36   2.0000      -0.693201       -18.8629
  37   2.0000      -0.656821       -17.8730
  38   2.0000      -0.640939       -17.4408
  39   2.0000      -0.616744       -16.7825
  40   2.0000      -0.594272       -16.1709
  41   2.0000      -0.570308       -15.5189
  42   2.0000      -0.560610       -15.2550
  43   2.0000      -0.554742       -15.0953
  44   2.0000      -0.546086       -14.8598
  45   2.0000      -0.520683       -14.1685
  46   2.0000      -0.515887       -14.0380
  47   2.0000      -0.508950       -13.8492
  48   2.0000      -0.501839       -13.6557
  49   2.0000      -0.494942       -13.4681
  50   2.0000      -0.491743       -13.3810
  51   2.0000      -0.488747       -13.2995
  52   2.0000      -0.471631       -12.8337
  53   2.0000      -0.467857       -12.7310
  54   2.0000      -0.454948       -12.3798
  55   2.0000      -0.445609       -12.1256
  56   2.0000      -0.437363       -11.9013
  57   2.0000      -0.432194       -11.7606
  58   2.0000      -0.431395       -11.7389
  59   2.0000      -0.427349       -11.6288
  60   2.0000      -0.420051       -11.4302
  61   2.0000      -0.414016       -11.2659
  62   2.0000      -0.411294       -11.1919
  63   2.0000      -0.351358        -9.5609
  64   2.0000      -0.330572        -8.9953
  65   2.0000      -0.325350        -8.8532
  66   2.0000      -0.293068        -7.9748
  67   0.0000       0.031016         0.8440
  68   0.0000       0.073276         1.9939
  69   0.0000       0.112447         3.0598
  70   0.0000       0.122311         3.3282
  71   0.0000       0.132310         3.6003

MULLIKEN ATOMIC CHARGES
-----------------------
   0 S :    0.118798
   1 C :   -0.121078
   2 C :   -0.096117
   3 C :    0.002035
   4 C :   -0.142770
   5 H :    0.040076
   6 C :    0.043668
   7 H :    0.014006
   8 H :    0.022941
   9 C :   -0.033765
  10 H :    0.034539
  11 H :    0.018842
  12 C :   -0.071800
  13 H :    0.012408
  14 H :    0.026868
  15 H :    0.058918
  16 S :    0.118216
  17 C :   -0.093879
  18 C :   -0.051176
  19 C :   -0.048543
  20 C :   -0.155554
  21 H :    0.038816
  22 C :    0.116464
  23 H :   -0.004325
  24 H :    0.012356
  25 C :   -0.101469
  26 H :    0.031810
  27 H :    0.046999
  28 C :   -0.053842
  29 H :    0.037779
  30 H :    0.039583
  31 H :    0.026171
  32 H :    0.061685
  33 H :    0.051339
Sum of atomic charges:   -0.0000000

LOEWDIN ATOMIC CHARGES
----------------------
   0 S :    0.435672
   1 C :   -0.217011
   2 C :   -0.074137
   3 C :   -0.058413
   4 C :   -0.197336
   5 H :    0.034188
   6 C :   -0.035585
   7 H :    0.023599
   8 H :    0.032234
   9 C :   -0.032947
  10 H :    0.025557
  11 H :    0.018716
  12 C :   -0.074043
  13 H :    0.019776
  14 H :    0.020382
  15 H :    0.036623
  16 S :    0.407637
  17 C :   -0.186420
  18 C :   -0.075292
  19 C :   -0.050952
  20 C :   -0.204520
  21 H :    0.040229
  22 C :   -0.030895
  23 H :    0.027505
  24 H :    0.021338
  25 C :   -0.035325
  26 H :    0.022057
  27 H :    0.031867
  28 C :   -0.067545
  29 H :    0.026204
  30 H :    0.024063
  31 H :    0.026934
  32 H :    0.036283
  33 H :    0.029557

  Mayer bond orders larger than 0.100000
B(  0-S ,  1-C ) :   1.1556 B(  0-S ,  4-C ) :   1.1568 B(  1-C ,  2-C ) :   1.5936
B(  1-C , 32-H ) :   0.9626 B(  2-C ,  3-C ) :   1.2444 B(  2-C ,  6-C ) :   1.0469
B(  3-C ,  4-C ) :   1.5562 B(  3-C ,  5-H ) :   0.9785 B(  4-C , 20-C ) :   1.0461
B(  6-C ,  7-H ) :   0.9366 B(  6-C ,  8-H ) :   0.9401 B(  6-C ,  9-C ) :   1.0711
B(  9-C , 10-H ) :   0.9568 B(  9-C , 11-H ) :   0.9555 B(  9-C , 12-C ) :   1.0749
B( 12-C , 13-H ) :   0.9754 B( 12-C , 14-H ) :   0.9748 B( 12-C , 15-H ) :   0.9711
B( 16-S , 17-C ) :   1.1346 B( 16-S , 20-C ) :   1.1468 B( 17-C , 18-C ) :   1.6379
B( 17-C , 33-H ) :   0.9698 B( 18-C , 19-C ) :   1.2353 B( 18-C , 21-H ) :   0.9769
B( 19-C , 20-C ) :   1.5880 B( 19-C , 22-C ) :   1.0574 B( 22-C , 23-H ) :   0.9339
B( 22-C , 24-H ) :   0.9261 B( 22-C , 25-C ) :   1.0410 B( 25-C , 26-H ) :   0.9595
B( 25-C , 27-H ) :   0.9663 B( 25-C , 28-C ) :   1.0695 B( 28-C , 29-H ) :   0.9739
B( 28-C , 30-H ) :   0.9786 B( 28-C , 31-H ) :   0.9778

Dispersion correction           -0.015002245
FINAL SINGLE POINT ENERGY     -1339.872954357916

DIPOLE MOMENT
-------------
                                X             Y             Z
Electronic contribution:     22.50495      -4.82985      -8.02092
Nuclear contribution   :    -22.93524       5.11425       8.33353
                        -----------------------------------------
Total Dipole Moment    :     -0.43029       0.28441       0.31261
                        -----------------------------------------
Magnitude (a.u.)       :      0.60313
Magnitude (Debye)      :      1.53303

Rotational constants in cm-1:     0.019374     0.009042     0.007219
Rotational constants in MHz :   580.805990   271.072395   216.433452

                             ****ORCA TERMINATED NORMALLY****
TOTAL RUN TIME: 0 days 0 hours 0 minutes 31 seconds 10 msec
