                         Program Version 4.2.1 -  RELEASE  -
|  1> ! wB97X-D3 SP def2-SVP
|  2> %pal
|  3> nprocs 16
|  4> end
|  5>
|  6> * xyz 0 1
|  7> S 	 57.4763 	 11.4364 	 51.0375
|  8> C 	 57.4451 	 12.1078 	 49.3811
|  9> C 	 56.1144 	 12.2969 	 49.0045
| 10> C 	 55.1628 	 11.8554 	 50.0502
| 11> C 	 55.7741 	 11.2691 	 51.1452
| 12> H 	 54.1557 	 12.061 	 49.9729
| 13> C 	 55.7272 	 12.924 	 47.6716
| 14> H 	 56.4867 	 13.605 	 47.3928
| 15> H 	 54.8586 	 13.5874 	 47.9483
| 16> C 	 55.3244 	 12.0099 	 46.5248
| 17> H 	 54.4959 	 11.4072 	 46.8457
| 18> H 	 55.0427 	 12.714 	 45.7187
| 19> C 	 56.4492 	 11.1257 	 46.0203
| 20> H 	 57.3501 	 11.6366 	 45.801
| 21> H 	 56.6769 	 10.4722 	 46.8154
| 22> H 	 56.2414 	 10.5285 	 45.0463
| 23> S 	 55.1712 	 9.03878 	 52.7712
| 24> C 	 54.1489 	 9.26296 	 54.0661
| 25> C 	 53.5145 	 10.4752 	 54.0228
| 26> C 	 53.9534 	 11.3861 	 53.0079
| 27> C 	 55.025 	 10.7788 	 52.3084
| 28> H 	 52.8009 	 10.5652 	 54.7798
| 29> C 	 53.4444 	 12.8262 	 52.9359
| 30> H 	 54.0919 	 13.2318 	 52.1447
| 31> H 	 53.6117 	 13.1985 	 53.9393
| 32> C 	 51.9475 	 12.8904 	 52.6776
| 33> H 	 51.5478 	 12.2843 	 53.592
| 34> H 	 51.6664 	 12.4347 	 51.7677
| 35> C 	 51.4415 	 14.3143 	 52.8162
| 36> H 	 51.4045 	 14.6677 	 51.7571
| 37> H 	 52.1229 	 14.8973 	 53.4794
| 38> H 	 50.425 	 14.3267 	 53.1351
| 39> H 	 58.3375 	 12.5197 	 48.8465
| 40> H 	 53.8621 	 8.50592 	 54.7923
| 41> *
| 42>
| 43>                          ****END OF INPUT****

CARTESIAN COORDINATES (ANGSTROEM)
---------------------------------
  S     57.476300   11.436400   51.037500
  C     57.445100   12.107800   49.381100
  C     56.114400   12.296900   49.004500
  C     55.162800   11.855400   50.050200
  C     55.774100   11.269100   51.145200
  H     54.155700   12.061000   49.972900
  C     55.727200   12.924000   47.671600
  H     56.486700   13.605000   47.392800
  H     54.858600   13.587400   47.948300
  C     55.324400   12.009900   46.524800
  H     54.495900   11.407200   46.845700
  H     55.042700   12.714000   45.718700
  C     56.449200   11.125700   46.020300
  H     57.350100   11.636600   45.801000
  H     56.676900   10.472200   46.815400
  H     56.241400   10.528500   45.046300
  S     55.171200    9.038780   52.771200
  C     54.148900    9.262960   54.066100
  C     53.514500   10.475200   54.022800
  C     53.953400   11.386100   53.007900
  C     55.025000   10.778800   52.308400
  H     52.800900   10.565200   54.779800
  C     53.444400   12.826200   52.935900
  H     54.091900   13.231800   52.144700
  H     53.611700   13.198500   53.939300
  C     51.947500   12.890400   52.677600
  H     51.547800   12.284300   53.592000
  H     51.666400   12.434700   51.767700
  C     51.441500   14.314300   52.816200
  H     51.404500   14.667700   51.757100
  H     52.122900   14.897300   53.479400
  H     50.425000   14.326700   53.135100
  H     58.337500   12.519700   48.846500
  H     53.862100    8.505920   54.792300

 Total Charge           Charge          ....    0
 Multiplicity           Mult            ....    1
 Number of Electrons    NEL             ....  134
 Basis Dimension        Dim             ....  322

ORBITAL ENERGIES
----------------

  NO   OCC          E(Eh)            E(eV)
   0   2.0000     -88.965014     -2420.8611
   1   2.0000     -88.962992     -2420.8061
   2   2.0000     -10.331248      -281.1276
   3   2.0000     -10.329978      -281.0930
   4   2.0000     -10.321841      -280.8716
   5   2.0000     -10.308569      -280.5104
   6   2.0000     -10.308513      -280.5089
   7   2.0000     -10.307028      -280.4685
   8   2.0000     -10.294034      -280.1149
   9   2.0000     -10.293778      -280.1079
  10   2.0000     -10.292690      -280.0783
  11   2.0000     -10.290502      -280.0188
  12   2.0000     -10.286109      -279.8993
  13   2.0000     -10.283366      -279.8246
  14   2.0000     -10.281256      -279.7672
  15   2.0000     -10.272734      -279.5353
  16   2.0000      -8.079754      -219.8613
  17   2.0000      -8.078714      -219.8330
  18   2.0000      -6.038359      -164.3121
  19   2.0000      -6.037038      -164.2762
  20   2.0000      -6.034201      -164.1990
  21   2.0000      -6.033161      -164.1707
  22   2.0000      -6.030446      -164.0968
  23   2.0000      -6.029522      -164.0716
  24   2.0000      -1.004542       -27.3350
  25   2.0000      -0.983503       -26.7625
  26   2.0000      -0.918510       -24.9939
  27   2.0000      -0.914719       -24.8908
  28   2.0000      -0.868586       -23.6354
  29   2.0000      -0.853637       -23.2286
  30   2.0000      -0.842019       -22.9125
  31   2.0000      -0.811644       -22.0860
  32   2.0000      -0.786055       -21.3896
  33   2.0000      -0.775177       -21.0937
  34   2.0000      -0.706923       -19.2364
  35   2.0000      -0.695176       -18.9167
  36   2.0000      -0.691880       -18.8270
  37   2.0000      -0.654370       -17.8063
  38   2.0000      -0.637762       -17.3544
  39   2.0000      -0.623488       -16.9660
  40   2.0000      -0.594710       -16.1829
  41   2.0000      -0.581426       -15.8214
  42   2.0000      -0.569872       -15.5070
  43   2.0000      -0.548914       -14.9367
  44   2.0000      -0.542057       -14.7501
  45   2.0000      -0.527867       -14.3640
  46   2.0000      -0.520444       -14.1620
  47   2.0000      -0.512123       -13.9356
  48   2.0000      -0.507164       -13.8006
  49   2.0000      -0.499745       -13.5988
  50   2.0000      -0.490554       -13.3487
  51   2.0000      -0.480619       -13.0783
  52   2.0000      -0.469418       -12.7735
  53   2.0000      -0.464522       -12.6403
  54   2.0000      -0.459027       -12.4908
  55   2.0000      -0.449605       -12.2344
  56   2.0000      -0.444272       -12.0892
  57   2.0000      -0.439222       -11.9518
  58   2.0000      -0.434643       -11.8272
  59   2.0000      -0.432650       -11.7730
  60   2.0000      -0.421021       -11.4566
  61   2.0000      -0.407574       -11.0907
  62   2.0000      -0.405546       -11.0355
  63   2.0000      -0.341478        -9.2921
  64   2.0000      -0.330156        -8.9840
  65   2.0000      -0.324772        -8.8375
  66   2.0000      -0.297020        -8.0823
  67   0.0000       0.032056         0.8723
  68   0.0000       0.069746         1.8979
  69   0.0000       0.108291         2.9467
  70   0.0000       0.114915         3.1270
  71   0.0000       0.126776         3.4497

MULLIKEN ATOMIC CHARGES
-----------------------
   0 S :    0.108170
   1 C :   -0.142336
   2 C :   -0.127751
   3 C :    0.060082
   4 C :   -0.140652
   5 H :   -0.022368
   6 C :    0.046078
   7 H :    0.011614
   8 H :    0.029715
   9 C :   -0.028449
  10 H :    0.029876
  11 H :    0.034691
  12 C :   -0.055172
  13 H :    0.010490
  14 H :    0.032087
  15 H :    0.046951
  16 S :    0.115042
  17 C :   -0.084773
  18 C :   -0.048057
  19 C :   -0.004693
  20 C :   -0.181002
  21 H :   -0.009475
  22 C :    0.088137
  23 H :    0.034074
  24 H :    0.035961
  25 C :   -0.130783
  26 H :    0.037645
  27 H :    0.027844
  28 C :   -0.011119
  29 H :    0.034279
  30 H :    0.042093
  31 H :    0.031067
  32 H :    0.073908
  33 H :    0.056822
Sum of atomic charges:   -0.0000000

LOEWDIN ATOMIC CHARGES
----------------------
   0 S :    0.408026
   1 C :   -0.201267
   2 C :   -0.060801
   3 C :   -0.057222
   4 C :   -0.209375
   5 H :    0.014135
   6 C :   -0.034412
   7 H :    0.022625
   8 H :    0.037859
   9 C :   -0.036146
  10 H :    0.023888
  11 H :    0.028889
  12 C :   -0.068959
  13 H :    0.015730
  14 H :    0.021404
  15 H :    0.038024
  16 S :    0.418092
  17 C :   -0.207565
  18 C :   -0.080141
  19 C :   -0.042221
  20 C :   -0.190760
  21 H :    0.018297
  22 C :   -0.028452
  23 H :    0.030903
  24 H :    0.035568
  25 C :   -0.041014
  26 H :    0.032019
  27 H :    0.016581
  28 C :   -0.065135
  29 H :    0.032970
  30 H :    0.031489
  31 H :    0.022020
  32 H :    0.041444
  33 H :    0.033507

  Mayer bond orders larger than 0.100000
B(  0-S ,  1-C ) :   1.1251 B(  0-S ,  4-C ) :   1.1667 B(  1-C ,  2-C ) :   1.6059
B(  1-C , 32-H ) :   0.9654 B(  2-C ,  3-C ) :   1.2363 B(  2-C ,  6-C ) :   1.0216
B(  3-C ,  4-C ) :   1.5503 B(  3-C ,  5-H ) :   1.0078 B(  4-C , 20-C ) :   1.0297
B(  6-C ,  7-H ) :   0.9419 B(  6-C ,  8-H ) :   0.9374 B(  6-C ,  9-C ) :   1.0743
B(  9-C , 10-H ) :   0.9559 B(  9-C , 11-H ) :   0.9516 B(  9-C , 12-C ) :   1.0760
B( 12-C , 13-H ) :   0.9734 B( 12-C , 14-H ) :   0.9742 B( 12-C , 15-H ) :   0.9735
B( 16-S , 17-C ) :   1.1691 B( 16-S , 20-C ) :   1.1469 B( 17-C , 18-C ) :   1.6257
B( 17-C , 33-H ) :   0.9617 B( 18-C , 19-C ) :   1.2135 B( 18-C , 21-H ) :   0.9963
B( 19-C , 20-C ) :   1.5751 B( 19-C , 22-C ) :   1.0280 B( 22-C , 23-H ) :   0.9302
B( 22-C , 24-H ) :   0.9329 B( 22-C , 25-C ) :   1.0651 B( 25-C , 26-H ) :   0.9561
B( 25-C , 27-H ) :   0.9626 B( 25-C , 28-C ) :   1.0736 B( 28-C , 29-H ) :   0.9743
B( 28-C , 30-H ) :   0.9720 B( 28-C , 31-H ) :   0.9738

Dispersion correction           -0.014003372
FINAL SINGLE POINT ENERGY     -1339.860858643392

DIPOLE MOMENT
-------------
                                X             Y             Z
Electronic contribution:     14.48108     -15.00696      14.26713
Nuclear contribution   :    -15.02721      15.47910     -14.42032
                        -----------------------------------------
Total Dipole Moment    :     -0.54613       0.47214      -0.15319
                        -----------------------------------------
Magnitude (a.u.)       :      0.73800
Magnitude (Debye)      :      1.87585

Rotational constants in cm-1:     0.017676     0.008361     0.006587
Rotational constants in MHz :   529.904581   250.664219   197.470973

                             ****ORCA TERMINATED NORMALLY****
TOTAL RUN TIME: 0 days 0 hours 0 minutes 29 seconds 711 msec
