                         Program Version 4.2.1 -  RELEASE  -
|  1> ! wB97X-D3 SP def2-SVP
|  2> %pal
|  3> nprocs 16
|  4> end
|  5>
|  6> * xyz 0 1
|  7> S 	 1.26683 	 -5.83822 	 78.521
|  8> C 	 -0.354902 	 -5.8871 	 79.2042
|  9> C 	 -0.725266 	 -4.63482 	 79.7083
| 10> C 	 0.341305 	 -3.63671 	 79.3693
| 11> C 	 1.39241 	 -4.13046 	 78.6116
| 12> H 	 0.493353 	 -2.63248 	 79.6176
| 13> C 	 -2.03621 	 -4.30214 	 80.3791
| 14> H 	 -2.80912 	 -4.54041 	 79.6443
| 15> H 	 -2.12866 	 -3.22688 	 80.5047
| 16> C 	 -2.25453 	 -5.05716 	 81.7056
| 17> H 	 -3.31671 	 -5.02766 	 81.9624
| 18> H 	 -2.003 	 -6.07728 	 81.5717
| 19> C 	 -1.34142 	 -4.46123 	 82.7481
| 20> H 	 -0.315203 	 -4.44921 	 82.3259
| 21> H 	 -1.46656 	 -3.40847 	 82.973
| 22> H 	 -1.20591 	 -5.00148 	 83.6744
| 23> S 	 4.05357 	 -4.02568 	 78.6982
| 24> C 	 4.91177 	 -2.55033 	 78.1457
| 25> C 	 4.01021 	 -1.58778 	 77.8046
| 26> C 	 2.66263 	 -2.02645 	 77.8141
| 27> C 	 2.55081 	 -3.38542 	 78.159
| 28> H 	 4.33272 	 -0.624922 	 77.4738
| 29> C 	 1.5915 	 -1.01669 	 77.5015
| 30> H 	 2.03204 	 -0.132861 	 77.0167
| 31> H 	 1.19266 	 -0.624227 	 78.4193
| 32> C 	 0.442635 	 -1.42169 	 76.5344
| 33> H 	 -0.0400383 	 -2.34397 	 76.7448
| 34> H 	 0.945969 	 -1.74657 	 75.6342
| 35> C 	 -0.468092 	 -0.188372 	 76.2608
| 36> H 	 -0.923336 	 0.193474 	 77.1169
| 37> H 	 -1.27372 	 -0.558069 	 75.5717
| 38> H 	 0.0722503 	 0.560677 	 75.7394
| 39> H 	 -0.790234 	 -6.8342 	 79.4126
| 40> H 	 6.00315 	 -2.40667 	 78.1003
| 41> *
| 42>
| 43>                          ****END OF INPUT****

CARTESIAN COORDINATES (ANGSTROEM)
---------------------------------
  S      1.266830   -5.838220   78.521000
  C     -0.354902   -5.887100   79.204200
  C     -0.725266   -4.634820   79.708300
  C      0.341305   -3.636710   79.369300
  C      1.392410   -4.130460   78.611600
  H      0.493353   -2.632480   79.617600
  C     -2.036210   -4.302140   80.379100
  H     -2.809120   -4.540410   79.644300
  H     -2.128660   -3.226880   80.504700
  C     -2.254530   -5.057160   81.705600
  H     -3.316710   -5.027660   81.962400
  H     -2.003000   -6.077280   81.571700
  C     -1.341420   -4.461230   82.748100
  H     -0.315203   -4.449210   82.325900
  H     -1.466560   -3.408470   82.973000
  H     -1.205910   -5.001480   83.674400
  S      4.053570   -4.025680   78.698200
  C      4.911770   -2.550330   78.145700
  C      4.010210   -1.587780   77.804600
  C      2.662630   -2.026450   77.814100
  C      2.550810   -3.385420   78.159000
  H      4.332720   -0.624922   77.473800
  C      1.591500   -1.016690   77.501500
  H      2.032040   -0.132861   77.016700
  H      1.192660   -0.624227   78.419300
  C      0.442635   -1.421690   76.534400
  H     -0.040038   -2.343970   76.744800
  H      0.945969   -1.746570   75.634200
  C     -0.468092   -0.188372   76.260800
  H     -0.923336    0.193474   77.116900
  H     -1.273720   -0.558069   75.571700
  H      0.072250    0.560677   75.739400
  H     -0.790234   -6.834200   79.412600
  H      6.003150   -2.406670   78.100300

 Total Charge           Charge          ....    0
 Multiplicity           Mult            ....    1
 Number of Electrons    NEL             ....  134
 Basis Dimension        Dim             ....  322

ORBITAL ENERGIES
----------------

  NO   OCC          E(Eh)            E(eV)
   0   2.0000     -88.966194     -2420.8932
   1   2.0000     -88.961341     -2420.7612
   2   2.0000     -10.326869      -281.0084
   3   2.0000     -10.324884      -280.9544
   4   2.0000     -10.321082      -280.8509
   5   2.0000     -10.315656      -280.7033
   6   2.0000     -10.313960      -280.6571
   7   2.0000     -10.304636      -280.4034
   8   2.0000     -10.293510      -280.1006
   9   2.0000     -10.293446      -280.0989
  10   2.0000     -10.291614      -280.0490
  11   2.0000     -10.291076      -280.0344
  12   2.0000     -10.285761      -279.8898
  13   2.0000     -10.280080      -279.7352
  14   2.0000     -10.275680      -279.6155
  15   2.0000     -10.272416      -279.5266
  16   2.0000      -8.080949      -219.8938
  17   2.0000      -8.076825      -219.7816
  18   2.0000      -6.039575      -164.3452
  19   2.0000      -6.035451      -164.2330
  20   2.0000      -6.035332      -164.2297
  21   2.0000      -6.031562      -164.1271
  22   2.0000      -6.031203      -164.1174
  23   2.0000      -6.027571      -164.0186
  24   2.0000      -1.009353       -27.4659
  25   2.0000      -0.981772       -26.7154
  26   2.0000      -0.917407       -24.9639
  27   2.0000      -0.906387       -24.6640
  28   2.0000      -0.873807       -23.7775
  29   2.0000      -0.850593       -23.1458
  30   2.0000      -0.841084       -22.8871
  31   2.0000      -0.815461       -22.1898
  32   2.0000      -0.780792       -21.2464
  33   2.0000      -0.771131       -20.9835
  34   2.0000      -0.714775       -19.4500
  35   2.0000      -0.710752       -19.3406
  36   2.0000      -0.691224       -18.8092
  37   2.0000      -0.667503       -18.1637
  38   2.0000      -0.646962       -17.6047
  39   2.0000      -0.606937       -16.5156
  40   2.0000      -0.595851       -16.2139
  41   2.0000      -0.577523       -15.7152
  42   2.0000      -0.563882       -15.3440
  43   2.0000      -0.555167       -15.1069
  44   2.0000      -0.536660       -14.6032
  45   2.0000      -0.523307       -14.2399
  46   2.0000      -0.516765       -14.0619
  47   2.0000      -0.512509       -13.9461
  48   2.0000      -0.503325       -13.6962
  49   2.0000      -0.498700       -13.5703
  50   2.0000      -0.494626       -13.4595
  51   2.0000      -0.480616       -13.0782
  52   2.0000      -0.477000       -12.9798
  53   2.0000      -0.468497       -12.7484
  54   2.0000      -0.456042       -12.4095
  55   2.0000      -0.454454       -12.3663
  56   2.0000      -0.438045       -11.9198
  57   2.0000      -0.437464       -11.9040
  58   2.0000      -0.434952       -11.8356
  59   2.0000      -0.423801       -11.5322
  60   2.0000      -0.420093       -11.4313
  61   2.0000      -0.417141       -11.3510
  62   2.0000      -0.413773       -11.2593
  63   2.0000      -0.354173        -9.6375
  64   2.0000      -0.328014        -8.9257
  65   2.0000      -0.322758        -8.7827
  66   2.0000      -0.291814        -7.9407
  67   0.0000       0.023572         0.6414
  68   0.0000       0.072554         1.9743
  69   0.0000       0.101072         2.7503
  70   0.0000       0.122269         3.3271
  71   0.0000       0.132614         3.6086

MULLIKEN ATOMIC CHARGES
-----------------------
   0 S :    0.093455
   1 C :   -0.109146
   2 C :   -0.103822
   3 C :    0.053019
   4 C :   -0.176169
   5 H :   -0.019381
   6 C :    0.055540
   7 H :    0.041830
   8 H :    0.020803
   9 C :   -0.020421
  10 H :    0.030523
  11 H :    0.017492
  12 C :   -0.057331
  13 H :    0.028630
  14 H :    0.022215
  15 H :    0.033020
  16 S :    0.095302
  17 C :   -0.095016
  18 C :   -0.020253
  19 C :   -0.044334
  20 C :   -0.095556
  21 H :    0.009188
  22 C :    0.040209
  23 H :    0.011022
  24 H :    0.028998
  25 C :   -0.066725
  26 H :    0.032154
  27 H :    0.016843
  28 C :   -0.023680
  29 H :    0.023639
  30 H :    0.038234
  31 H :    0.026710
  32 H :    0.048425
  33 H :    0.064582
Sum of atomic charges:    0.0000000

LOEWDIN ATOMIC CHARGES
----------------------
   0 S :    0.407010
   1 C :   -0.191084
   2 C :   -0.051779
   3 C :   -0.061776
   4 C :   -0.210216
   5 H :    0.019588
   6 C :   -0.032116
   7 H :    0.037366
   8 H :    0.029469
   9 C :   -0.032689
  10 H :    0.024188
  11 H :    0.019660
  12 C :   -0.071873
  13 H :    0.032904
  14 H :    0.022822
  15 H :    0.023750
  16 S :    0.405131
  17 C :   -0.172400
  18 C :   -0.065880
  19 C :   -0.055848
  20 C :   -0.207276
  21 H :    0.028797
  22 C :   -0.033999
  23 H :    0.031388
  24 H :    0.024611
  25 C :   -0.038431
  26 H :    0.019185
  27 H :    0.025121
  28 C :   -0.053980
  29 H :    0.015389
  30 H :    0.035888
  31 H :    0.020747
  32 H :    0.020320
  33 H :    0.036013

  Mayer bond orders larger than 0.100000
B(  0-S ,  1-C ) :   1.1413 B(  0-S ,  4-C ) :   1.1526 B(  1-C ,  2-C ) :   1.6016
B(  1-C , 32-H ) :   0.9753 B(  2-C ,  3-C ) :   1.1976 B(  2-C ,  6-C ) :   1.0192
B(  3-C ,  4-C ) :   1.5851 B(  3-C ,  5-H ) :   0.9992 B(  4-C , 20-C ) :   1.0319
B(  6-C ,  7-H ) :   0.9386 B(  6-C ,  8-H ) :   0.9466 B(  6-C ,  9-C ) :   1.0662
B(  9-C , 10-H ) :   0.9560 B(  9-C , 11-H ) :   0.9575 B(  9-C , 12-C ) :   1.0690
B( 12-C , 13-H ) :   0.9712 B( 12-C , 14-H ) :   0.9745 B( 12-C , 15-H ) :   0.9736
B( 16-S , 17-C ) :   1.1437 B( 16-S , 20-C ) :   1.1528 B( 17-C , 18-C ) :   1.6072
B( 17-C , 33-H ) :   0.9649 B( 18-C , 19-C ) :   1.2613 B( 18-C , 21-H ) :   0.9937
B( 19-C , 20-C ) :   1.5667 B( 19-C , 22-C ) :   1.0411 B( 22-C , 23-H ) :   0.9393
B( 22-C , 24-H ) :   0.9271 B( 22-C , 25-C ) :   1.0526 B( 25-C , 26-H ) :   0.9577
B( 25-C , 27-H ) :   0.9512 B( 25-C , 28-C ) :   1.0792 B( 28-C , 29-H ) :   0.9786
B( 28-C , 30-H ) :   0.9738 B( 28-C , 31-H ) :   0.9757

Dispersion correction           -0.014536249
FINAL SINGLE POINT ENERGY     -1339.870863053375

DIPOLE MOMENT
-------------
                                X             Y             Z
Electronic contribution:     20.98904     -14.17717      -4.52183
Nuclear contribution   :    -21.31754      14.73806       4.67151
                        -----------------------------------------
Total Dipole Moment    :     -0.32850       0.56089       0.14969
                        -----------------------------------------
Magnitude (a.u.)       :      0.66702
Magnitude (Debye)      :      1.69543

Rotational constants in cm-1:     0.017645     0.009139     0.007189
Rotational constants in MHz :   528.993775   273.986956   215.519353

                             ****ORCA TERMINATED NORMALLY****
TOTAL RUN TIME: 0 days 0 hours 0 minutes 34 seconds 947 msec
