                         Program Version 4.2.1 -  RELEASE  -
|  1> ! wB97X-D3 SP def2-SVP
|  2> %pal
|  3> nprocs 16
|  4> end
|  5>
|  6> * xyz 0 1
|  7> S 	 -21.5553 	 31.4559 	 42.5688
|  8> C 	 -20.3061 	 32.0646 	 43.6047
|  9> C 	 -19.8422 	 33.3007 	 43.0978
| 10> C 	 -20.3867 	 33.646 	 41.8605
| 11> C 	 -21.2598 	 32.7163 	 41.3905
| 12> H 	 -20.1283 	 34.4921 	 41.3743
| 13> C 	 -18.902 	 34.2999 	 43.7716
| 14> H 	 -19.0742 	 34.1965 	 44.8205
| 15> H 	 -19.1236 	 35.3414 	 43.5952
| 16> C 	 -17.4434 	 34.0914 	 43.3404
| 17> H 	 -16.9745 	 33.1269 	 43.5299
| 18> H 	 -17.3022 	 34.3061 	 42.2708
| 19> C 	 -16.4756 	 34.922 	 44.2064
| 20> H 	 -16.7409 	 35.9791 	 44.2991
| 21> H 	 -16.5184 	 34.5679 	 45.2372
| 22> H 	 -15.4353 	 34.7523 	 43.9478
| 23> S 	 -23.6605 	 33.5758 	 40.2758
| 24> C 	 -23.8489 	 33.4924 	 38.5904
| 25> C 	 -22.74 	 33.0252 	 37.928
| 26> C 	 -21.7209 	 32.5781 	 38.8534
| 27> C 	 -22.0675 	 32.794 	 40.1574
| 28> H 	 -22.7358 	 32.9108 	 36.8605
| 29> C 	 -20.3798 	 32.1361 	 38.4652
| 30> H 	 -20.3854 	 31.2244 	 37.9345
| 31> H 	 -19.7308 	 32.0542 	 39.3835
| 32> C 	 -19.6462 	 33.192 	 37.6167
| 33> H 	 -19.5026 	 34.085 	 38.1833
| 34> H 	 -20.2219 	 33.3307 	 36.6728
| 35> C 	 -18.249 	 32.8279 	 37.2197
| 36> H 	 -17.9176 	 33.6148 	 36.4487
| 37> H 	 -18.1211 	 31.7991 	 36.908
| 38> H 	 -17.5719 	 33.0296 	 38.0939
| 39> H 	 -19.9671 	 31.5803 	 44.4559
| 40> H 	 -24.6989 	 33.8084 	 38.1257
| 41> *
| 42>
| 43>                          ****END OF INPUT****

CARTESIAN COORDINATES (ANGSTROEM)
---------------------------------
  S    -21.555300   31.455900   42.568800
  C    -20.306100   32.064600   43.604700
  C    -19.842200   33.300700   43.097800
  C    -20.386700   33.646000   41.860500
  C    -21.259800   32.716300   41.390500
  H    -20.128300   34.492100   41.374300
  C    -18.902000   34.299900   43.771600
  H    -19.074200   34.196500   44.820500
  H    -19.123600   35.341400   43.595200
  C    -17.443400   34.091400   43.340400
  H    -16.974500   33.126900   43.529900
  H    -17.302200   34.306100   42.270800
  C    -16.475600   34.922000   44.206400
  H    -16.740900   35.979100   44.299100
  H    -16.518400   34.567900   45.237200
  H    -15.435300   34.752300   43.947800
  S    -23.660500   33.575800   40.275800
  C    -23.848900   33.492400   38.590400
  C    -22.740000   33.025200   37.928000
  C    -21.720900   32.578100   38.853400
  C    -22.067500   32.794000   40.157400
  H    -22.735800   32.910800   36.860500
  C    -20.379800   32.136100   38.465200
  H    -20.385400   31.224400   37.934500
  H    -19.730800   32.054200   39.383500
  C    -19.646200   33.192000   37.616700
  H    -19.502600   34.085000   38.183300
  H    -20.221900   33.330700   36.672800
  C    -18.249000   32.827900   37.219700
  H    -17.917600   33.614800   36.448700
  H    -18.121100   31.799100   36.908000
  H    -17.571900   33.029600   38.093900
  H    -19.967100   31.580300   44.455900
  H    -24.698900   33.808400   38.125700

 Total Charge           Charge          ....    0
 Multiplicity           Mult            ....    1
 Number of Electrons    NEL             ....  134
 Basis Dimension        Dim             ....  322

ORBITAL ENERGIES
----------------

  NO   OCC          E(Eh)            E(eV)
   0   2.0000     -88.966156     -2420.8922
   1   2.0000     -88.960136     -2420.7284
   2   2.0000     -10.325100      -280.9603
   3   2.0000     -10.319994      -280.8213
   4   2.0000     -10.312068      -280.6056
   5   2.0000     -10.307010      -280.4680
   6   2.0000     -10.298918      -280.2478
   7   2.0000     -10.297997      -280.2228
   8   2.0000     -10.291100      -280.0351
   9   2.0000     -10.290854      -280.0284
  10   2.0000     -10.287994      -279.9506
  11   2.0000     -10.283228      -279.8209
  12   2.0000     -10.281971      -279.7866
  13   2.0000     -10.281251      -279.7671
  14   2.0000     -10.281134      -279.7639
  15   2.0000     -10.276299      -279.6323
  16   2.0000      -8.081074      -219.8972
  17   2.0000      -8.075872      -219.7556
  18   2.0000      -6.039439      -164.3415
  19   2.0000      -6.035479      -164.2337
  20   2.0000      -6.034234      -164.1998
  21   2.0000      -6.032059      -164.1407
  22   2.0000      -6.030313      -164.0932
  23   2.0000      -6.026660      -163.9937
  24   2.0000      -1.008537       -27.4437
  25   2.0000      -0.987974       -26.8841
  26   2.0000      -0.916428       -24.9373
  27   2.0000      -0.911252       -24.7964
  28   2.0000      -0.868737       -23.6395
  29   2.0000      -0.855096       -23.2684
  30   2.0000      -0.853059       -23.2129
  31   2.0000      -0.815368       -22.1873
  32   2.0000      -0.782348       -21.2888
  33   2.0000      -0.769507       -20.9394
  34   2.0000      -0.702027       -19.1031
  35   2.0000      -0.699415       -19.0321
  36   2.0000      -0.691443       -18.8151
  37   2.0000      -0.660618       -17.9763
  38   2.0000      -0.654635       -17.8135
  39   2.0000      -0.626959       -17.0604
  40   2.0000      -0.601759       -16.3747
  41   2.0000      -0.577436       -15.7128
  42   2.0000      -0.573973       -15.6186
  43   2.0000      -0.557456       -15.1692
  44   2.0000      -0.530331       -14.4310
  45   2.0000      -0.527721       -14.3600
  46   2.0000      -0.520728       -14.1697
  47   2.0000      -0.516456       -14.0535
  48   2.0000      -0.508387       -13.8339
  49   2.0000      -0.504825       -13.7370
  50   2.0000      -0.491890       -13.3850
  51   2.0000      -0.475865       -12.9490
  52   2.0000      -0.467430       -12.7194
  53   2.0000      -0.466500       -12.6941
  54   2.0000      -0.457032       -12.4365
  55   2.0000      -0.451199       -12.2778
  56   2.0000      -0.443857       -12.0780
  57   2.0000      -0.438985       -11.9454
  58   2.0000      -0.433878       -11.8064
  59   2.0000      -0.426127       -11.5955
  60   2.0000      -0.421235       -11.4624
  61   2.0000      -0.413556       -11.2534
  62   2.0000      -0.406835       -11.0705
  63   2.0000      -0.339510        -9.2385
  64   2.0000      -0.326737        -8.8910
  65   2.0000      -0.321954        -8.7608
  66   2.0000      -0.306590        -8.3427
  67   0.0000       0.045791         1.2460
  68   0.0000       0.058794         1.5999
  69   0.0000       0.114822         3.1245
  70   0.0000       0.124132         3.3778
  71   0.0000       0.127198         3.4612

MULLIKEN ATOMIC CHARGES
-----------------------
   0 S :    0.123929
   1 C :   -0.096362
   2 C :   -0.081882
   3 C :    0.097668
   4 C :   -0.178150
   5 H :   -0.038184
   6 C :    0.075483
   7 H :    0.013300
   8 H :    0.023204
   9 C :   -0.073234
  10 H :    0.029070
  11 H :    0.031453
  12 C :   -0.052753
  13 H :    0.025060
  14 H :    0.018332
  15 H :    0.034464
  16 S :    0.108957
  17 C :   -0.047907
  18 C :   -0.030906
  19 C :   -0.001488
  20 C :   -0.174177
  21 H :    0.015540
  22 C :    0.086719
  23 H :    0.016123
  24 H :    0.036259
  25 C :   -0.109731
  26 H :    0.025136
  27 H :    0.033405
  28 C :   -0.057260
  29 H :    0.044742
  30 H :    0.033327
  31 H :    0.029394
  32 H :    0.021640
  33 H :    0.018831
Sum of atomic charges:   -0.0000000

LOEWDIN ATOMIC CHARGES
----------------------
   0 S :    0.424055
   1 C :   -0.193826
   2 C :   -0.054854
   3 C :   -0.046884
   4 C :   -0.195079
   5 H :    0.015181
   6 C :   -0.027695
   7 H :    0.026469
   8 H :    0.031485
   9 C :   -0.040493
  10 H :    0.027180
  11 H :    0.023547
  12 C :   -0.069794
  13 H :    0.019085
  14 H :    0.023233
  15 H :    0.025388
  16 S :    0.409380
  17 C :   -0.174769
  18 C :   -0.070543
  19 C :   -0.049640
  20 C :   -0.199525
  21 H :    0.028571
  22 C :   -0.031919
  23 H :    0.024148
  24 H :    0.038436
  25 C :   -0.041964
  26 H :    0.022781
  27 H :    0.022840
  28 C :   -0.070849
  29 H :    0.037691
  30 H :    0.019880
  31 H :    0.026472
  32 H :    0.013300
  33 H :    0.008714

  Mayer bond orders larger than 0.100000
B(  0-S ,  1-C ) :   1.1583 B(  0-S ,  4-C ) :   1.1724 B(  1-C ,  2-C ) :   1.5655
B(  1-C ,  4-C ) :   0.1086 B(  1-C , 32-H ) :   0.9843 B(  2-C ,  3-C ) :   1.2711
B(  2-C ,  6-C ) :   1.0203 B(  3-C ,  4-C ) :   1.5449 B(  3-C ,  5-H ) :   1.0219
B(  4-C , 20-C ) :   0.9878 B(  6-C ,  7-H ) :   0.9428 B(  6-C ,  8-H ) :   0.9459
B(  6-C ,  9-C ) :   1.0571 B(  9-C , 10-H ) :   0.9614 B(  9-C , 11-H ) :   0.9580
B(  9-C , 12-C ) :   1.0737 B( 12-C , 13-H ) :   0.9737 B( 12-C , 14-H ) :   0.9754
B( 12-C , 15-H ) :   0.9757 B( 16-S , 17-C ) :   1.1721 B( 16-S , 20-C ) :   1.1310
B( 17-C , 18-C ) :   1.6148 B( 17-C , 33-H ) :   0.9766 B( 18-C , 19-C ) :   1.2060
B( 18-C , 21-H ) :   0.9939 B( 19-C , 20-C ) :   1.6443 B( 19-C , 22-C ) :   1.0679
B( 22-C , 23-H ) :   0.9163 B( 22-C , 24-H ) :   0.9311 B( 22-C , 25-C ) :   1.0738
B( 25-C , 26-H ) :   0.9559 B( 25-C , 27-H ) :   0.9524 B( 25-C , 28-C ) :   1.0924
B( 28-C , 29-H ) :   0.9717 B( 28-C , 30-H ) :   0.9718 B( 28-C , 31-H ) :   0.9746

Dispersion correction           -0.014015688
FINAL SINGLE POINT ENERGY     -1339.872400929157

DIPOLE MOMENT
-------------
                                X             Y             Z
Electronic contribution:    -29.06102      -8.23083       3.65745
Nuclear contribution   :     29.56368       8.50090      -3.79768
                        -----------------------------------------
Total Dipole Moment    :      0.50266       0.27007      -0.14023
                        -----------------------------------------
Magnitude (a.u.)       :      0.58760
Magnitude (Debye)      :      1.49355

Rotational constants in cm-1:     0.017446     0.008685     0.006721
Rotational constants in MHz :   523.003037   260.366394   201.481280

                             ****ORCA TERMINATED NORMALLY****
TOTAL RUN TIME: 0 days 0 hours 0 minutes 34 seconds 111 msec
