                         Program Version 4.2.1 -  RELEASE  -
|  1> ! wB97X-D3 SP def2-SVP
|  2> %pal
|  3> nprocs 16
|  4> end
|  5>
|  6> * xyz 0 1
|  7> S 	 -46.7857 	 50.1376 	 102.375
|  8> C 	 -45.8335 	 51.4559 	 102.993
|  9> C 	 -44.8314 	 51.0123 	 103.834
| 10> C 	 -44.7795 	 49.6081 	 103.924
| 11> C 	 -45.7316 	 48.9358 	 103.163
| 12> H 	 -44.0246 	 49.0855 	 104.476
| 13> C 	 -43.6987 	 51.953 	 104.34
| 14> H 	 -42.7145 	 51.5228 	 104.183
| 15> H 	 -43.7528 	 52.0854 	 105.433
| 16> C 	 -43.6515 	 53.3647 	 103.672
| 17> H 	 -43.8175 	 53.2172 	 102.643
| 18> H 	 -44.4209 	 53.9262 	 104.031
| 19> C 	 -42.3117 	 54.1415 	 104.029
| 20> H 	 -42.1771 	 54.1216 	 105.102
| 21> H 	 -41.3571 	 54.0013 	 103.471
| 22> H 	 -42.4559 	 55.1593 	 103.645
| 23> S 	 -46.3414 	 46.6291 	 101.769
| 24> C 	 -46.2598 	 45.0946 	 102.612
| 25> C 	 -46.112 	 45.2067 	 103.922
| 26> C 	 -46.0024 	 46.6264 	 104.33
| 27> C 	 -46.0387 	 47.4785 	 103.217
| 28> H 	 -45.9648 	 44.3174 	 104.633
| 29> C 	 -45.7284 	 47.0962 	 105.726
| 30> H 	 -44.8227 	 47.6095 	 105.943
| 31> H 	 -45.524 	 46.252 	 106.331
| 32> C 	 -46.8575 	 47.9352 	 106.287
| 33> H 	 -47.7484 	 47.8981 	 105.615
| 34> H 	 -46.5602 	 48.9619 	 106.272
| 35> C 	 -47.3414 	 47.4958 	 107.675
| 36> H 	 -46.6433 	 47.2988 	 108.441
| 37> H 	 -48.0244 	 46.7158 	 107.515
| 38> H 	 -47.9502 	 48.3696 	 107.948
| 39> H 	 -45.9349 	 52.5027 	 102.669
| 40> H 	 -46.1999 	 44.1753 	 102.01
| 41> *
| 42>
| 43>                          ****END OF INPUT****

CARTESIAN COORDINATES (ANGSTROEM)
---------------------------------
  S    -46.785700   50.137600  102.375000
  C    -45.833500   51.455900  102.993000
  C    -44.831400   51.012300  103.834000
  C    -44.779500   49.608100  103.924000
  C    -45.731600   48.935800  103.163000
  H    -44.024600   49.085500  104.476000
  C    -43.698700   51.953000  104.340000
  H    -42.714500   51.522800  104.183000
  H    -43.752800   52.085400  105.433000
  C    -43.651500   53.364700  103.672000
  H    -43.817500   53.217200  102.643000
  H    -44.420900   53.926200  104.031000
  C    -42.311700   54.141500  104.029000
  H    -42.177100   54.121600  105.102000
  H    -41.357100   54.001300  103.471000
  H    -42.455900   55.159300  103.645000
  S    -46.341400   46.629100  101.769000
  C    -46.259800   45.094600  102.612000
  C    -46.112000   45.206700  103.922000
  C    -46.002400   46.626400  104.330000
  C    -46.038700   47.478500  103.217000
  H    -45.964800   44.317400  104.633000
  C    -45.728400   47.096200  105.726000
  H    -44.822700   47.609500  105.943000
  H    -45.524000   46.252000  106.331000
  C    -46.857500   47.935200  106.287000
  H    -47.748400   47.898100  105.615000
  H    -46.560200   48.961900  106.272000
  C    -47.341400   47.495800  107.675000
  H    -46.643300   47.298800  108.441000
  H    -48.024400   46.715800  107.515000
  H    -47.950200   48.369600  107.948000
  H    -45.934900   52.502700  102.669000
  H    -46.199900   44.175300  102.010000

 Total Charge           Charge          ....    0
 Multiplicity           Mult            ....    1
 Number of Electrons    NEL             ....  134
 Basis Dimension        Dim             ....  322

ORBITAL ENERGIES
----------------

  NO   OCC          E(Eh)            E(eV)
   0   2.0000     -88.966692     -2420.9068
   1   2.0000     -88.962027     -2420.7798
   2   2.0000     -10.333808      -281.1972
   3   2.0000     -10.324875      -280.9541
   4   2.0000     -10.314750      -280.6786
   5   2.0000     -10.314650      -280.6759
   6   2.0000     -10.306659      -280.4585
   7   2.0000     -10.301836      -280.3272
   8   2.0000     -10.301129      -280.3080
   9   2.0000     -10.295605      -280.1577
  10   2.0000     -10.292323      -280.0684
  11   2.0000     -10.286528      -279.9107
  12   2.0000     -10.283966      -279.8409
  13   2.0000     -10.277698      -279.6704
  14   2.0000     -10.275361      -279.6068
  15   2.0000     -10.266026      -279.3528
  16   2.0000      -8.080941      -219.8936
  17   2.0000      -8.078076      -219.8156
  18   2.0000      -6.039543      -164.3443
  19   2.0000      -6.036572      -164.2635
  20   2.0000      -6.035434      -164.2325
  21   2.0000      -6.032481      -164.1522
  22   2.0000      -6.031733      -164.1318
  23   2.0000      -6.028697      -164.0492
  24   2.0000      -1.006300       -27.3828
  25   2.0000      -0.985443       -26.8153
  26   2.0000      -0.911708       -24.8088
  27   2.0000      -0.904656       -24.6169
  28   2.0000      -0.867353       -23.6019
  29   2.0000      -0.850273       -23.1371
  30   2.0000      -0.844709       -22.9857
  31   2.0000      -0.816267       -22.2118
  32   2.0000      -0.782619       -21.2961
  33   2.0000      -0.769553       -20.9406
  34   2.0000      -0.716990       -19.5103
  35   2.0000      -0.702001       -19.1024
  36   2.0000      -0.685537       -18.6544
  37   2.0000      -0.659130       -17.9358
  38   2.0000      -0.636655       -17.3243
  39   2.0000      -0.618791       -16.8382
  40   2.0000      -0.602318       -16.3899
  41   2.0000      -0.573545       -15.6070
  42   2.0000      -0.564086       -15.3496
  43   2.0000      -0.556784       -15.1509
  44   2.0000      -0.528358       -14.3773
  45   2.0000      -0.522369       -14.2144
  46   2.0000      -0.522267       -14.2116
  47   2.0000      -0.510528       -13.8922
  48   2.0000      -0.500393       -13.6164
  49   2.0000      -0.497430       -13.5358
  50   2.0000      -0.489121       -13.3097
  51   2.0000      -0.480338       -13.0707
  52   2.0000      -0.477187       -12.9849
  53   2.0000      -0.461449       -12.5567
  54   2.0000      -0.456074       -12.4104
  55   2.0000      -0.445982       -12.1358
  56   2.0000      -0.445369       -12.1191
  57   2.0000      -0.440966       -11.9993
  58   2.0000      -0.435296       -11.8450
  59   2.0000      -0.424615       -11.5544
  60   2.0000      -0.416509       -11.3338
  61   2.0000      -0.413171       -11.2429
  62   2.0000      -0.406811       -11.0699
  63   2.0000      -0.353422        -9.6171
  64   2.0000      -0.333637        -9.0787
  65   2.0000      -0.325401        -8.8546
  66   2.0000      -0.291250        -7.9253
  67   0.0000       0.028994         0.7890
  68   0.0000       0.077352         2.1049
  69   0.0000       0.112470         3.0605
  70   0.0000       0.122527         3.3341
  71   0.0000       0.137349         3.7375

MULLIKEN ATOMIC CHARGES
-----------------------
   0 S :    0.106328
   1 C :   -0.142072
   2 C :   -0.061972
   3 C :    0.011050
   4 C :   -0.115124
   5 H :    0.005040
   6 C :    0.034399
   7 H :    0.032846
   8 H :    0.033057
   9 C :   -0.061347
  10 H :    0.029340
  11 H :    0.018519
  12 C :   -0.068783
  13 H :    0.041289
  14 H :    0.042591
  15 H :    0.025795
  16 S :    0.101244
  17 C :   -0.099599
  18 C :   -0.027111
  19 C :   -0.088091
  20 C :   -0.145422
  21 H :    0.052610
  22 C :    0.114336
  23 H :    0.014407
  24 H :   -0.011565
  25 C :   -0.099936
  26 H :    0.040988
  27 H :    0.028911
  28 C :   -0.022891
  29 H :    0.030368
  30 H :    0.025079
  31 H :    0.026119
  32 H :    0.062376
  33 H :    0.067216
Sum of atomic charges:    0.0000000

LOEWDIN ATOMIC CHARGES
----------------------
   0 S :    0.396908
   1 C :   -0.205232
   2 C :   -0.068703
   3 C :   -0.058222
   4 C :   -0.181822
   5 H :    0.028699
   6 C :   -0.029723
   7 H :    0.029233
   8 H :    0.030541
   9 C :   -0.027531
  10 H :    0.018166
  11 H :    0.011572
  12 C :   -0.073507
  13 H :    0.025251
  14 H :    0.032965
  15 H :    0.030075
  16 S :    0.412371
  17 C :   -0.182847
  18 C :   -0.078625
  19 C :   -0.047828
  20 C :   -0.215798
  21 H :    0.049793
  22 C :   -0.040319
  23 H :    0.028220
  24 H :    0.023058
  25 C :   -0.036263
  26 H :    0.032489
  27 H :    0.018509
  28 C :   -0.057980
  29 H :    0.016164
  30 H :    0.020464
  31 H :    0.032652
  32 H :    0.033463
  33 H :    0.033808

  Mayer bond orders larger than 0.100000
B(  0-S ,  1-C ) :   1.1431 B(  0-S ,  4-C ) :   1.1489 B(  1-C ,  2-C ) :   1.6094
B(  1-C ,  4-C ) :   0.1024 B(  1-C , 32-H ) :   0.9522 B(  2-C ,  3-C ) :   1.2689
B(  2-C ,  6-C ) :   1.0028 B(  3-C ,  4-C ) :   1.5646 B(  3-C ,  5-H ) :   1.0031
B(  4-C , 20-C ) :   1.0206 B(  6-C ,  7-H ) :   0.9573 B(  6-C ,  8-H ) :   0.9310
B(  6-C ,  9-C ) :   1.0808 B(  9-C , 10-H ) :   0.9552 B(  9-C , 11-H ) :   0.9507
B(  9-C , 12-C ) :   1.0747 B( 12-C , 13-H ) :   0.9770 B( 12-C , 14-H ) :   0.9757
B( 12-C , 15-H ) :   0.9714 B( 16-S , 17-C ) :   1.1440 B( 16-S , 20-C ) :   1.1439
B( 17-C , 18-C ) :   1.6464 B( 17-C , 33-H ) :   0.9624 B( 18-C , 19-C ) :   1.2208
B( 18-C , 21-H ) :   0.9762 B( 19-C , 20-C ) :   1.6016 B( 19-C , 22-C ) :   1.0579
B( 22-C , 23-H ) :   0.9309 B( 22-C , 24-H ) :   0.9255 B( 22-C , 25-C ) :   1.0298
B( 25-C , 26-H ) :   0.9649 B( 25-C , 27-H ) :   0.9592 B( 25-C , 28-C ) :   1.0829
B( 28-C , 29-H ) :   0.9792 B( 28-C , 30-H ) :   0.9769 B( 28-C , 31-H ) :   0.9739

Dispersion correction           -0.014258221
FINAL SINGLE POINT ENERGY     -1339.859286600971

DIPOLE MOMENT
-------------
                                X             Y             Z
Electronic contribution:    -10.44200     -14.69581     -20.88893
Nuclear contribution   :     10.92674      14.80744      21.39575
                        -----------------------------------------
Total Dipole Moment    :      0.48474       0.11162       0.50682
                        -----------------------------------------
Magnitude (a.u.)       :      0.71014
Magnitude (Debye)      :      1.80503

Rotational constants in cm-1:     0.020653     0.007651     0.006402
Rotational constants in MHz :   619.171825   229.369880   191.936168

                             ****ORCA TERMINATED NORMALLY****
TOTAL RUN TIME: 0 days 0 hours 0 minutes 30 seconds 139 msec
