                         Program Version 4.2.1 -  RELEASE  -
|  1> ! wB97X-D3 SP def2-SVP
|  2> %pal
|  3> nprocs 16
|  4> end
|  5>
|  6> * xyz 0 1
|  7> S 	 37.2539 	 13.4867 	 80.1082
|  8> C 	 38.2997 	 13.5484 	 81.4886
|  9> C 	 39.6109 	 13.7357 	 81.0789
| 10> C 	 39.6888 	 13.8971 	 79.6442
| 11> C 	 38.5173 	 13.8837 	 78.911
| 12> H 	 40.5527 	 13.958 	 79.0624
| 13> C 	 40.8324 	 13.6179 	 81.9173
| 14> H 	 40.4813 	 13.6536 	 82.9304
| 15> H 	 41.4265 	 14.4959 	 81.7356
| 16> C 	 41.6425 	 12.2427 	 81.651
| 17> H 	 41.0895 	 11.4302 	 82.1781
| 18> H 	 41.4837 	 12.0622 	 80.6283
| 19> C 	 43.1182 	 12.1943 	 82.139
| 20> H 	 43.1899 	 12.3148 	 83.2546
| 21> H 	 43.639 	 11.2046 	 81.9915
| 22> H 	 43.7036 	 12.9703 	 81.7478
| 23> S 	 36.6315 	 14.3738 	 76.9659
| 24> C 	 37.0944 	 14.4796 	 75.2732
| 25> C 	 38.4999 	 14.4388 	 75.1388
| 26> C 	 39.1399 	 14.0897 	 76.343
| 27> C 	 38.2981 	 13.9571 	 77.4247
| 28> H 	 38.8433 	 14.7314 	 74.1469
| 29> C 	 40.6886 	 13.9045 	 76.4242
| 30> H 	 40.8761 	 13.2374 	 77.2599
| 31> H 	 41.1925 	 14.8669 	 76.7342
| 32> C 	 41.4693 	 13.3067 	 75.2142
| 33> H 	 42.4759 	 13.2539 	 75.5698
| 34> H 	 41.4305 	 13.966 	 74.4066
| 35> C 	 40.9806 	 11.85 	 74.8801
| 36> H 	 41.6942 	 11.273 	 74.2427
| 37> H 	 39.9607 	 11.795 	 74.3039
| 38> H 	 40.852 	 11.298 	 75.8082
| 39> H 	 38.0864 	 13.3905 	 82.4645
| 40> H 	 36.4774 	 14.7373 	 74.4255
| 41> *
| 42>
| 43>                          ****END OF INPUT****

CARTESIAN COORDINATES (ANGSTROEM)
---------------------------------
  S     37.253900   13.486700   80.108200
  C     38.299700   13.548400   81.488600
  C     39.610900   13.735700   81.078900
  C     39.688800   13.897100   79.644200
  C     38.517300   13.883700   78.911000
  H     40.552700   13.958000   79.062400
  C     40.832400   13.617900   81.917300
  H     40.481300   13.653600   82.930400
  H     41.426500   14.495900   81.735600
  C     41.642500   12.242700   81.651000
  H     41.089500   11.430200   82.178100
  H     41.483700   12.062200   80.628300
  C     43.118200   12.194300   82.139000
  H     43.189900   12.314800   83.254600
  H     43.639000   11.204600   81.991500
  H     43.703600   12.970300   81.747800
  S     36.631500   14.373800   76.965900
  C     37.094400   14.479600   75.273200
  C     38.499900   14.438800   75.138800
  C     39.139900   14.089700   76.343000
  C     38.298100   13.957100   77.424700
  H     38.843300   14.731400   74.146900
  C     40.688600   13.904500   76.424200
  H     40.876100   13.237400   77.259900
  H     41.192500   14.866900   76.734200
  C     41.469300   13.306700   75.214200
  H     42.475900   13.253900   75.569800
  H     41.430500   13.966000   74.406600
  C     40.980600   11.850000   74.880100
  H     41.694200   11.273000   74.242700
  H     39.960700   11.795000   74.303900
  H     40.852000   11.298000   75.808200
  H     38.086400   13.390500   82.464500
  H     36.477400   14.737300   74.425500

 Total Charge           Charge          ....    0
 Multiplicity           Mult            ....    1
 Number of Electrons    NEL             ....  134
 Basis Dimension        Dim             ....  322

ORBITAL ENERGIES
----------------

  NO   OCC          E(Eh)            E(eV)
   0   2.0000     -88.969493     -2420.9830
   1   2.0000     -88.964278     -2420.8411
   2   2.0000     -10.338659      -281.3292
   3   2.0000     -10.337811      -281.3061
   4   2.0000     -10.322674      -280.8942
   5   2.0000     -10.311606      -280.5931
   6   2.0000     -10.309518      -280.5363
   7   2.0000     -10.302182      -280.3366
   8   2.0000     -10.300437      -280.2891
   9   2.0000     -10.299713      -280.2694
  10   2.0000     -10.294315      -280.1226
  11   2.0000     -10.292284      -280.0673
  12   2.0000     -10.289636      -279.9952
  13   2.0000     -10.289576      -279.9936
  14   2.0000     -10.288472      -279.9635
  15   2.0000     -10.286058      -279.8979
  16   2.0000      -8.083497      -219.9631
  17   2.0000      -8.078533      -219.8281
  18   2.0000      -6.042026      -164.4119
  19   2.0000      -6.038171      -164.3070
  20   2.0000      -6.037328      -164.2841
  21   2.0000      -6.034194      -164.1988
  22   2.0000      -6.033021      -164.1669
  23   2.0000      -6.029082      -164.0597
  24   2.0000      -1.004103       -27.3230
  25   2.0000      -0.984527       -26.7903
  26   2.0000      -0.905275       -24.6338
  27   2.0000      -0.903305       -24.5802
  28   2.0000      -0.868091       -23.6220
  29   2.0000      -0.848926       -23.1004
  30   2.0000      -0.841000       -22.8848
  31   2.0000      -0.819485       -22.2993
  32   2.0000      -0.779688       -21.2164
  33   2.0000      -0.772140       -21.0110
  34   2.0000      -0.713254       -19.4086
  35   2.0000      -0.705288       -19.1919
  36   2.0000      -0.701455       -19.0876
  37   2.0000      -0.659937       -17.9578
  38   2.0000      -0.647678       -17.6242
  39   2.0000      -0.623672       -16.9710
  40   2.0000      -0.594950       -16.1894
  41   2.0000      -0.568470       -15.4689
  42   2.0000      -0.558081       -15.1862
  43   2.0000      -0.550651       -14.9840
  44   2.0000      -0.534894       -14.5552
  45   2.0000      -0.526698       -14.3322
  46   2.0000      -0.516821       -14.0634
  47   2.0000      -0.512805       -13.9541
  48   2.0000      -0.504303       -13.7228
  49   2.0000      -0.502910       -13.6849
  50   2.0000      -0.494139       -13.4462
  51   2.0000      -0.481133       -13.0923
  52   2.0000      -0.465977       -12.6799
  53   2.0000      -0.465132       -12.6569
  54   2.0000      -0.457820       -12.4579
  55   2.0000      -0.450024       -12.2458
  56   2.0000      -0.443498       -12.0682
  57   2.0000      -0.436992       -11.8912
  58   2.0000      -0.433065       -11.7843
  59   2.0000      -0.431496       -11.7416
  60   2.0000      -0.421025       -11.4567
  61   2.0000      -0.419998       -11.4287
  62   2.0000      -0.408983       -11.1290
  63   2.0000      -0.360827        -9.8186
  64   2.0000      -0.335493        -9.1292
  65   2.0000      -0.324074        -8.8185
  66   2.0000      -0.286840        -7.8053
  67   0.0000       0.018686         0.5085
  68   0.0000       0.081915         2.2290
  69   0.0000       0.098548         2.6816
  70   0.0000       0.113536         3.0895
  71   0.0000       0.133563         3.6344

MULLIKEN ATOMIC CHARGES
-----------------------
   0 S :    0.086363
   1 C :   -0.044786
   2 C :   -0.125631
   3 C :    0.004620
   4 C :   -0.095739
   5 H :   -0.035258
   6 C :    0.093990
   7 H :    0.010122
   8 H :    0.029566
   9 C :   -0.062228
  10 H :    0.033062
  11 H :    0.021504
  12 C :   -0.055174
  13 H :    0.032530
  14 H :    0.046636
  15 H :    0.026029
  16 S :    0.097112
  17 C :   -0.092174
  18 C :   -0.063050
  19 C :   -0.034091
  20 C :   -0.102582
  21 H :    0.027984
  22 C :   -0.024821
  23 H :    0.036385
  24 H :    0.055524
  25 C :   -0.001340
  26 H :    0.027227
  27 H :    0.021535
  28 C :   -0.105583
  29 H :    0.042722
  30 H :    0.055495
  31 H :    0.036119
  32 H :    0.000528
  33 H :    0.057406
Sum of atomic charges:   -0.0000000

LOEWDIN ATOMIC CHARGES
----------------------
   0 S :    0.391005
   1 C :   -0.181029
   2 C :   -0.063608
   3 C :   -0.070107
   4 C :   -0.175937
   5 H :    0.012988
   6 C :   -0.026811
   7 H :    0.025316
   8 H :    0.029097
   9 C :   -0.031275
  10 H :    0.031247
  11 H :    0.014304
  12 C :   -0.072242
  13 H :    0.031428
  14 H :    0.035816
  15 H :    0.014911
  16 S :    0.399085
  17 C :   -0.180029
  18 C :   -0.072730
  19 C :   -0.059577
  20 C :   -0.180872
  21 H :    0.036843
  22 C :   -0.034682
  23 H :    0.024654
  24 H :    0.038491
  25 C :   -0.030706
  26 H :    0.027744
  27 H :    0.013056
  28 C :   -0.077247
  29 H :    0.027562
  30 H :    0.038610
  31 H :    0.024519
  32 H :    0.010154
  33 H :    0.030022

  Mayer bond orders larger than 0.100000
B(  0-S ,  1-C ) :   1.1388 B(  0-S ,  4-C ) :   1.1286 B(  1-C ,  2-C ) :   1.6035
B(  1-C , 32-H ) :   0.9773 B(  2-C ,  3-C ) :   1.2286 B(  2-C ,  6-C ) :   1.0473
B(  3-C ,  4-C ) :   1.5945 B(  3-C ,  5-H ) :   0.9944 B(  4-C , 20-C ) :   1.0421
B(  6-C ,  7-H ) :   0.9352 B(  6-C ,  8-H ) :   0.9388 B(  6-C ,  9-C ) :   1.0362
B(  9-C , 10-H ) :   0.9556 B(  9-C , 11-H ) :   0.9684 B(  9-C , 12-C ) :   1.0698
B( 12-C , 13-H ) :   0.9746 B( 12-C , 14-H ) :   0.9745 B( 12-C , 15-H ) :   0.9788
B( 16-S , 17-C ) :   1.1640 B( 16-S , 20-C ) :   1.1322 B( 17-C , 18-C ) :   1.6040
B( 17-C , 20-C ) :   0.1039 B( 17-C , 33-H ) :   0.9658 B( 18-C , 19-C ) :   1.2451
B( 18-C , 21-H ) :   0.9931 B( 19-C , 20-C ) :   1.6066 B( 19-C , 22-C ) :   1.0128
B( 22-C , 23-H ) :   0.9349 B( 22-C , 24-H ) :   0.9345 B( 22-C , 25-C ) :   1.0778
B( 25-C , 26-H ) :   0.9512 B( 25-C , 27-H ) :   0.9529 B( 25-C , 28-C ) :   1.0673
B( 28-C , 29-H ) :   0.9777 B( 28-C , 30-H ) :   0.9738 B( 28-C , 31-H ) :   0.9760

Dispersion correction           -0.013835818
FINAL SINGLE POINT ENERGY     -1339.858523817705

DIPOLE MOMENT
-------------
                                X             Y             Z
Electronic contribution:    -29.44923       9.26769      -1.09102
Nuclear contribution   :     30.25580      -9.27464       0.93127
                        -----------------------------------------
Total Dipole Moment    :      0.80658      -0.00695      -0.15976
                        -----------------------------------------
Magnitude (a.u.)       :      0.82227
Magnitude (Debye)      :      2.09006

Rotational constants in cm-1:     0.017421     0.008907     0.006222
Rotational constants in MHz :   522.268434   267.010411   186.517807

                             ****ORCA TERMINATED NORMALLY****
TOTAL RUN TIME: 0 days 0 hours 0 minutes 30 seconds 311 msec
