                         Program Version 4.2.1 -  RELEASE  -
|  1> ! wB97X-D3 SP def2-SVP
|  2> %pal
|  3> nprocs 16
|  4> end
|  5>
|  6> * xyz 0 1
|  7> S 	 -56.2618 	 38.6856 	 107.595
|  8> C 	 -55.3284 	 38.529 	 106.147
|  9> C 	 -54.1002 	 38.0355 	 106.517
| 10> C 	 -53.7549 	 37.9621 	 107.925
| 11> C 	 -54.8702 	 38.4159 	 108.649
| 12> H 	 -52.8179 	 37.7338 	 108.405
| 13> C 	 -53.0249 	 37.6944 	 105.522
| 14> H 	 -53.5821 	 37.3361 	 104.681
| 15> H 	 -52.5601 	 36.7924 	 105.833
| 16> C 	 -51.9258 	 38.7522 	 105.249
| 17> H 	 -52.3804 	 39.5827 	 104.653
| 18> H 	 -51.5661 	 39.157 	 106.191
| 19> C 	 -50.7883 	 38.2079 	 104.331
| 20> H 	 -50.1862 	 37.3547 	 104.752
| 21> H 	 -51.1987 	 37.8439 	 103.414
| 22> H 	 -50.2008 	 39.0088 	 104.005
| 23> S 	 -53.8356 	 39.4948 	 110.855
| 24> C 	 -54.5599 	 39.2192 	 112.362
| 25> C 	 -55.6712 	 38.3711 	 112.237
| 26> C 	 -55.9384 	 37.9243 	 110.961
| 27> C 	 -55.0195 	 38.4528 	 110.083
| 28> H 	 -56.1627 	 38.1968 	 113.22
| 29> C 	 -56.9872 	 36.9397 	 110.726
| 30> H 	 -56.7181 	 36.419 	 109.798
| 31> H 	 -57.874 	 37.4816 	 110.414
| 32> C 	 -57.1625 	 35.8239 	 111.734
| 33> H 	 -57.5971 	 36.2742 	 112.662
| 34> H 	 -56.2253 	 35.3029 	 112.024
| 35> C 	 -58.0839 	 34.7254 	 111.131
| 36> H 	 -58.1421 	 33.9154 	 111.816
| 37> H 	 -57.8434 	 34.3625 	 110.107
| 38> H 	 -59.0459 	 35.2999 	 110.991
| 39> H 	 -55.6405 	 38.3988 	 105.142
| 40> H 	 -54.1821 	 39.539 	 113.364
| 41> *
| 42>
| 43>                          ****END OF INPUT****

CARTESIAN COORDINATES (ANGSTROEM)
---------------------------------
  S    -56.261800   38.685600  107.595000
  C    -55.328400   38.529000  106.147000
  C    -54.100200   38.035500  106.517000
  C    -53.754900   37.962100  107.925000
  C    -54.870200   38.415900  108.649000
  H    -52.817900   37.733800  108.405000
  C    -53.024900   37.694400  105.522000
  H    -53.582100   37.336100  104.681000
  H    -52.560100   36.792400  105.833000
  C    -51.925800   38.752200  105.249000
  H    -52.380400   39.582700  104.653000
  H    -51.566100   39.157000  106.191000
  C    -50.788300   38.207900  104.331000
  H    -50.186200   37.354700  104.752000
  H    -51.198700   37.843900  103.414000
  H    -50.200800   39.008800  104.005000
  S    -53.835600   39.494800  110.855000
  C    -54.559900   39.219200  112.362000
  C    -55.671200   38.371100  112.237000
  C    -55.938400   37.924300  110.961000
  C    -55.019500   38.452800  110.083000
  H    -56.162700   38.196800  113.220000
  C    -56.987200   36.939700  110.726000
  H    -56.718100   36.419000  109.798000
  H    -57.874000   37.481600  110.414000
  C    -57.162500   35.823900  111.734000
  H    -57.597100   36.274200  112.662000
  H    -56.225300   35.302900  112.024000
  C    -58.083900   34.725400  111.131000
  H    -58.142100   33.915400  111.816000
  H    -57.843400   34.362500  110.107000
  H    -59.045900   35.299900  110.991000
  H    -55.640500   38.398800  105.142000
  H    -54.182100   39.539000  113.364000

 Total Charge           Charge          ....    0
 Multiplicity           Mult            ....    1
 Number of Electrons    NEL             ....  134
 Basis Dimension        Dim             ....  322

ORBITAL ENERGIES
----------------

  NO   OCC          E(Eh)            E(eV)
   0   2.0000     -88.966953     -2420.9139
   1   2.0000     -88.964921     -2420.8586
   2   2.0000     -10.331350      -281.1303
   3   2.0000     -10.320569      -280.8370
   4   2.0000     -10.313655      -280.6488
   5   2.0000     -10.307504      -280.4814
   6   2.0000     -10.297579      -280.2114
   7   2.0000     -10.296937      -280.1939
   8   2.0000     -10.296111      -280.1714
   9   2.0000     -10.292989      -280.0865
  10   2.0000     -10.291238      -280.0388
  11   2.0000     -10.288572      -279.9663
  12   2.0000     -10.285066      -279.8709
  13   2.0000     -10.282468      -279.8002
  14   2.0000     -10.278950      -279.7045
  15   2.0000     -10.275463      -279.6096
  16   2.0000      -8.082375      -219.9326
  17   2.0000      -8.079409      -219.8519
  18   2.0000      -6.040617      -164.3735
  19   2.0000      -6.038001      -164.3023
  20   2.0000      -6.036718      -164.2674
  21   2.0000      -6.033943      -164.1919
  22   2.0000      -6.033457      -164.1787
  23   2.0000      -6.030099      -164.0873
  24   2.0000      -1.012503       -27.5516
  25   2.0000      -0.987548       -26.8726
  26   2.0000      -0.918559       -24.9953
  27   2.0000      -0.905984       -24.6531
  28   2.0000      -0.870335       -23.6830
  29   2.0000      -0.858176       -23.3522
  30   2.0000      -0.845439       -23.0056
  31   2.0000      -0.811495       -22.0819
  32   2.0000      -0.783454       -21.3189
  33   2.0000      -0.768482       -20.9114
  34   2.0000      -0.708268       -19.2730
  35   2.0000      -0.703657       -19.1475
  36   2.0000      -0.696348       -18.9486
  37   2.0000      -0.657267       -17.8851
  38   2.0000      -0.638965       -17.3871
  39   2.0000      -0.614989       -16.7347
  40   2.0000      -0.599521       -16.3138
  41   2.0000      -0.570742       -15.5307
  42   2.0000      -0.565117       -15.3776
  43   2.0000      -0.553866       -15.0715
  44   2.0000      -0.536702       -14.6044
  45   2.0000      -0.524638       -14.2761
  46   2.0000      -0.519607       -14.1392
  47   2.0000      -0.512079       -13.9344
  48   2.0000      -0.504743       -13.7348
  49   2.0000      -0.500922       -13.6308
  50   2.0000      -0.484894       -13.1946
  51   2.0000      -0.480257       -13.0685
  52   2.0000      -0.476849       -12.9757
  53   2.0000      -0.466128       -12.6840
  54   2.0000      -0.454614       -12.3707
  55   2.0000      -0.454166       -12.3585
  56   2.0000      -0.440852       -11.9962
  57   2.0000      -0.437164       -11.8958
  58   2.0000      -0.432038       -11.7563
  59   2.0000      -0.425678       -11.5833
  60   2.0000      -0.416736       -11.3400
  61   2.0000      -0.410868       -11.1803
  62   2.0000      -0.407422       -11.0865
  63   2.0000      -0.344223        -9.3668
  64   2.0000      -0.335730        -9.1357
  65   2.0000      -0.324268        -8.8238
  66   2.0000      -0.290953        -7.9172
  67   0.0000       0.029820         0.8114
  68   0.0000       0.072606         1.9757
  69   0.0000       0.106146         2.8884
  70   0.0000       0.123542         3.3617
  71   0.0000       0.136695         3.7197

MULLIKEN ATOMIC CHARGES
-----------------------
   0 S :    0.104066
   1 C :   -0.071036
   2 C :   -0.140301
   3 C :    0.036054
   4 C :   -0.138681
   5 H :    0.021935
   6 C :    0.084822
   7 H :   -0.003955
   8 H :    0.001869
   9 C :   -0.057433
  10 H :    0.032286
  11 H :    0.031801
  12 C :   -0.032739
  13 H :    0.041988
  14 H :    0.014582
  15 H :    0.024265
  16 S :    0.127434
  17 C :   -0.110156
  18 C :   -0.097507
  19 C :    0.027047
  20 C :   -0.199565
  21 H :    0.027468
  22 C :    0.078039
  23 H :    0.012672
  24 H :    0.036584
  25 C :   -0.102533
  26 H :    0.040384
  27 H :    0.042245
  28 C :   -0.046577
  29 H :    0.035519
  30 H :    0.041835
  31 H :    0.031288
  32 H :    0.039894
  33 H :    0.066405
Sum of atomic charges:    0.0000000

LOEWDIN ATOMIC CHARGES
----------------------
   0 S :    0.407476
   1 C :   -0.212189
   2 C :   -0.057680
   3 C :   -0.062638
   4 C :   -0.184221
   5 H :    0.033046
   6 C :   -0.039681
   7 H :    0.022536
   8 H :    0.022844
   9 C :   -0.031706
  10 H :    0.030454
  11 H :    0.022634
  12 C :   -0.065217
  13 H :    0.029920
  14 H :    0.021596
  15 H :    0.020027
  16 S :    0.440138
  17 C :   -0.216052
  18 C :   -0.079550
  19 C :   -0.061710
  20 C :   -0.201622
  21 H :    0.036945
  22 C :   -0.042509
  23 H :    0.032258
  24 H :    0.037303
  25 C :   -0.039856
  26 H :    0.026042
  27 H :    0.028996
  28 C :   -0.064287
  29 H :    0.020139
  30 H :    0.028938
  31 H :    0.031917
  32 H :    0.028058
  33 H :    0.037655

  Mayer bond orders larger than 0.100000
B(  0-S ,  1-C ) :   1.1152 B(  0-S ,  4-C ) :   1.1541 B(  1-C ,  2-C ) :   1.6287
B(  1-C , 32-H ) :   0.9665 B(  2-C ,  3-C ) :   1.2178 B(  2-C ,  6-C ) :   1.0419
B(  3-C ,  4-C ) :   1.5480 B(  3-C ,  5-H ) :   0.9953 B(  4-C , 20-C ) :   1.0318
B(  6-C ,  7-H ) :   0.9310 B(  6-C ,  8-H ) :   0.9352 B(  6-C ,  9-C ) :   1.0550
B(  9-C , 10-H ) :   0.9548 B(  9-C , 11-H ) :   0.9590 B(  9-C , 12-C ) :   1.0775
B( 12-C , 13-H ) :   0.9763 B( 12-C , 14-H ) :   0.9725 B( 12-C , 15-H ) :   0.9742
B( 16-S , 17-C ) :   1.1790 B( 16-S , 20-C ) :   1.1643 B( 17-C , 18-C ) :   1.5850
B( 17-C , 20-C ) :   0.1107 B( 17-C , 33-H ) :   0.9601 B( 18-C , 19-C ) :   1.2486
B( 18-C , 21-H ) :   0.9887 B( 19-C , 20-C ) :   1.5547 B( 19-C , 22-C ) :   1.0486
B( 22-C , 23-H ) :   0.9271 B( 22-C , 24-H ) :   0.9093 B( 22-C , 25-C ) :   1.0673
B( 25-C , 26-H ) :   0.9459 B( 25-C , 27-H ) :   0.9596 B( 25-C , 28-C ) :   1.0774
B( 28-C , 29-H ) :   0.9748 B( 28-C , 30-H ) :   0.9761 B( 28-C , 31-H ) :   0.9737

Dispersion correction           -0.013661840
FINAL SINGLE POINT ENERGY     -1339.863775220605

DIPOLE MOMENT
-------------
                                X             Y             Z
Electronic contribution:     -3.14596      14.13679       8.20418
Nuclear contribution   :      3.25407     -14.56900      -8.18826
                        -----------------------------------------
Total Dipole Moment    :      0.10811      -0.43221       0.01591
                        -----------------------------------------
Magnitude (a.u.)       :      0.44581
Magnitude (Debye)      :      1.13317

Rotational constants in cm-1:     0.021534     0.007260     0.006177
Rotational constants in MHz :   645.568667   217.657071   185.180281

                             ****ORCA TERMINATED NORMALLY****
TOTAL RUN TIME: 0 days 0 hours 0 minutes 27 seconds 269 msec
