                         Program Version 4.2.1 -  RELEASE  -
|  1> ! wB97X-D3 SP def2-SVP
|  2> %pal
|  3> nprocs 16
|  4> end
|  5>
|  6> * xyz 0 1
|  7> S 	 45.8196 	 18.1631 	 81.8776
|  8> C 	 45.1711 	 19.8323 	 81.5959
|  9> C 	 46.1654 	 20.8312 	 81.7186
| 10> C 	 47.4627 	 20.1921 	 81.7832
| 11> C 	 47.4555 	 18.7964 	 81.8697
| 12> H 	 48.4193 	 20.6458 	 81.6055
| 13> C 	 45.9747 	 22.3001 	 81.3562
| 14> H 	 44.9424 	 22.4288 	 81.0969
| 15> H 	 46.6053 	 22.6146 	 80.568
| 16> C 	 46.228 	 23.2851 	 82.4409
| 17> H 	 47.1841 	 23.0242 	 82.803
| 18> H 	 46.1539 	 24.3346 	 82.1074
| 19> C 	 45.2566 	 23.1047 	 83.6026
| 20> H 	 44.2477 	 22.9885 	 83.3138
| 21> H 	 45.5339 	 22.3154 	 84.1655
| 22> H 	 45.2231 	 23.9396 	 84.2264
| 23> S 	 48.6692 	 16.9022 	 80.4171
| 24> C 	 50.3711 	 16.5653 	 80.5564
| 25> C 	 50.7802 	 17.0985 	 81.7201
| 26> C 	 49.8592 	 17.9371 	 82.4159
| 27> C 	 48.6039 	 17.9266 	 81.7859
| 28> H 	 51.8622 	 17.1399 	 81.9341
| 29> C 	 50.2896 	 18.9979 	 83.5145
| 30> H 	 49.4572 	 19.6747 	 83.7527
| 31> H 	 51.0658 	 19.6637 	 83.1073
| 32> C 	 50.8559 	 18.324 	 84.7378
| 33> H 	 50.9818 	 19.0716 	 85.525
| 34> H 	 51.8021 	 17.8502 	 84.547
| 35> C 	 49.8816 	 17.2041 	 85.3011
| 36> H 	 49.9946 	 16.1962 	 84.836
| 37> H 	 48.8161 	 17.4703 	 85.2405
| 38> H 	 50.1376 	 17.1649 	 86.3681
| 39> H 	 44.1816 	 20.0852 	 81.3503
| 40> H 	 50.9305 	 15.9552 	 79.9026
| 41> *
| 42>
| 43>                          ****END OF INPUT****

CARTESIAN COORDINATES (ANGSTROEM)
---------------------------------
  S     45.819600   18.163100   81.877600
  C     45.171100   19.832300   81.595900
  C     46.165400   20.831200   81.718600
  C     47.462700   20.192100   81.783200
  C     47.455500   18.796400   81.869700
  H     48.419300   20.645800   81.605500
  C     45.974700   22.300100   81.356200
  H     44.942400   22.428800   81.096900
  H     46.605300   22.614600   80.568000
  C     46.228000   23.285100   82.440900
  H     47.184100   23.024200   82.803000
  H     46.153900   24.334600   82.107400
  C     45.256600   23.104700   83.602600
  H     44.247700   22.988500   83.313800
  H     45.533900   22.315400   84.165500
  H     45.223100   23.939600   84.226400
  S     48.669200   16.902200   80.417100
  C     50.371100   16.565300   80.556400
  C     50.780200   17.098500   81.720100
  C     49.859200   17.937100   82.415900
  C     48.603900   17.926600   81.785900
  H     51.862200   17.139900   81.934100
  C     50.289600   18.997900   83.514500
  H     49.457200   19.674700   83.752700
  H     51.065800   19.663700   83.107300
  C     50.855900   18.324000   84.737800
  H     50.981800   19.071600   85.525000
  H     51.802100   17.850200   84.547000
  C     49.881600   17.204100   85.301100
  H     49.994600   16.196200   84.836000
  H     48.816100   17.470300   85.240500
  H     50.137600   17.164900   86.368100
  H     44.181600   20.085200   81.350300
  H     50.930500   15.955200   79.902600

 Total Charge           Charge          ....    0
 Multiplicity           Mult            ....    1
 Number of Electrons    NEL             ....  134
 Basis Dimension        Dim             ....  322

ORBITAL ENERGIES
----------------

  NO   OCC          E(Eh)            E(eV)
   0   2.0000     -88.970543     -2421.0116
   1   2.0000     -88.960906     -2420.7493
   2   2.0000     -10.331864      -281.1443
   3   2.0000     -10.324836      -280.9531
   4   2.0000     -10.321478      -280.8617
   5   2.0000     -10.314562      -280.6735
   6   2.0000     -10.310648      -280.5670
   7   2.0000     -10.308356      -280.5046
   8   2.0000     -10.297690      -280.2144
   9   2.0000     -10.296089      -280.1708
  10   2.0000     -10.293031      -280.0876
  11   2.0000     -10.285817      -279.8913
  12   2.0000     -10.285066      -279.8709
  13   2.0000     -10.278528      -279.6930
  14   2.0000     -10.276210      -279.6299
  15   2.0000     -10.254192      -279.0308
  16   2.0000      -8.084059      -219.9784
  17   2.0000      -8.076979      -219.7858
  18   2.0000      -6.042701      -164.4303
  19   2.0000      -6.038795      -164.3240
  20   2.0000      -6.035436      -164.2326
  21   2.0000      -6.034686      -164.2121
  22   2.0000      -6.031075      -164.1139
  23   2.0000      -6.027880      -164.0270
  24   2.0000      -1.011230       -27.5170
  25   2.0000      -0.980373       -26.6773
  26   2.0000      -0.923675       -25.1345
  27   2.0000      -0.903824       -24.5943
  28   2.0000      -0.874571       -23.7983
  29   2.0000      -0.846164       -23.0253
  30   2.0000      -0.837282       -22.7836
  31   2.0000      -0.813891       -22.1471
  32   2.0000      -0.790330       -21.5060
  33   2.0000      -0.775433       -21.1006
  34   2.0000      -0.711689       -19.3660
  35   2.0000      -0.697090       -18.9688
  36   2.0000      -0.693032       -18.8584
  37   2.0000      -0.654202       -17.8017
  38   2.0000      -0.644798       -17.5458
  39   2.0000      -0.620280       -16.8787
  40   2.0000      -0.602319       -16.3899
  41   2.0000      -0.577713       -15.7204
  42   2.0000      -0.560595       -15.2546
  43   2.0000      -0.551422       -15.0050
  44   2.0000      -0.545920       -14.8553
  45   2.0000      -0.540273       -14.7016
  46   2.0000      -0.519525       -14.1370
  47   2.0000      -0.513211       -13.9652
  48   2.0000      -0.505759       -13.7624
  49   2.0000      -0.492924       -13.4132
  50   2.0000      -0.489844       -13.3293
  51   2.0000      -0.475994       -12.9525
  52   2.0000      -0.470836       -12.8121
  53   2.0000      -0.467016       -12.7082
  54   2.0000      -0.463351       -12.6084
  55   2.0000      -0.447049       -12.1648
  56   2.0000      -0.439713       -11.9652
  57   2.0000      -0.433376       -11.7928
  58   2.0000      -0.429787       -11.6951
  59   2.0000      -0.425093       -11.5674
  60   2.0000      -0.423603       -11.5268
  61   2.0000      -0.414180       -11.2704
  62   2.0000      -0.409463       -11.1421
  63   2.0000      -0.348185        -9.4746
  64   2.0000      -0.333175        -9.0662
  65   2.0000      -0.325598        -8.8600
  66   2.0000      -0.296551        -8.0696
  67   0.0000       0.027842         0.7576
  68   0.0000       0.066847         1.8190
  69   0.0000       0.108780         2.9601
  70   0.0000       0.112754         3.0682
  71   0.0000       0.124572         3.3898

MULLIKEN ATOMIC CHARGES
-----------------------
   0 S :    0.111494
   1 C :   -0.103424
   2 C :   -0.087324
   3 C :    0.030476
   4 C :   -0.158429
   5 H :    0.016405
   6 C :    0.104299
   7 H :    0.002857
   8 H :    0.028318
   9 C :   -0.071955
  10 H :    0.009748
  11 H :    0.036933
  12 C :    0.012434
  13 H :    0.004072
  14 H :    0.013887
  15 H :    0.009128
  16 S :    0.101221
  17 C :   -0.079329
  18 C :   -0.035589
  19 C :   -0.045886
  20 C :   -0.157640
  21 H :    0.029782
  22 C :    0.058359
  23 H :    0.030109
  24 H :    0.036244
  25 C :   -0.074903
  26 H :    0.031313
  27 H :    0.029938
  28 C :   -0.081136
  29 H :    0.050534
  30 H :    0.037561
  31 H :    0.031840
  32 H :    0.031419
  33 H :    0.047242
Sum of atomic charges:   -0.0000000

LOEWDIN ATOMIC CHARGES
----------------------
   0 S :    0.382673
   1 C :   -0.166558
   2 C :   -0.053312
   3 C :   -0.060024
   4 C :   -0.194495
   5 H :    0.028454
   6 C :   -0.022354
   7 H :    0.024113
   8 H :    0.029662
   9 C :   -0.033619
  10 H :    0.016858
  11 H :    0.028252
  12 C :   -0.050470
  13 H :    0.017980
  14 H :    0.013796
  15 H :    0.019700
  16 S :    0.427362
  17 C :   -0.176564
  18 C :   -0.080914
  19 C :   -0.052017
  20 C :   -0.218179
  21 H :    0.034032
  22 C :   -0.030809
  23 H :    0.029791
  24 H :    0.031047
  25 C :   -0.041190
  26 H :    0.025241
  27 H :    0.020340
  28 C :   -0.073588
  29 H :    0.030948
  30 H :    0.026340
  31 H :    0.025448
  32 H :    0.016169
  33 H :    0.025889

  Mayer bond orders larger than 0.100000
B(  0-S ,  1-C ) :   1.1302 B(  0-S ,  4-C ) :   1.1346 B(  1-C ,  2-C ) :   1.6202
B(  1-C , 32-H ) :   0.9701 B(  2-C ,  3-C ) :   1.2065 B(  2-C ,  6-C ) :   1.0299
B(  3-C ,  4-C ) :   1.6052 B(  3-C ,  5-H ) :   0.9857 B(  4-C , 20-C ) :   1.0299
B(  6-C ,  7-H ) :   0.9397 B(  6-C ,  8-H ) :   0.9452 B(  6-C ,  9-C ) :   1.0741
B(  9-C , 10-H ) :   0.9555 B(  9-C , 11-H ) :   0.9590 B(  9-C , 12-C ) :   1.0830
B( 12-C , 13-H ) :   0.9732 B( 12-C , 14-H ) :   0.9706 B( 12-C , 15-H ) :   0.9706
B( 16-S , 17-C ) :   1.1576 B( 16-S , 20-C ) :   1.1672 B( 17-C , 18-C ) :   1.6071
B( 17-C , 33-H ) :   0.9778 B( 18-C , 19-C ) :   1.2581 B( 18-C , 21-H ) :   0.9776
B( 19-C , 20-C ) :   1.5697 B( 19-C , 22-C ) :   1.0272 B( 22-C , 23-H ) :   0.9370
B( 22-C , 24-H ) :   0.9445 B( 22-C , 25-C ) :   1.0792 B( 25-C , 26-H ) :   0.9605
B( 25-C , 27-H ) :   0.9563 B( 25-C , 28-C ) :   1.0647 B( 28-C , 29-H ) :   0.9732
B( 28-C , 30-H ) :   0.9800 B( 28-C , 31-H ) :   0.9778

Dispersion correction           -0.014533031
FINAL SINGLE POINT ENERGY     -1339.859158455428

DIPOLE MOMENT
-------------
                                X             Y             Z
Electronic contribution:     -4.06012     -18.52845     -16.37962
Nuclear contribution   :      4.47905      19.14476      16.35896
                        -----------------------------------------
Total Dipole Moment    :      0.41892       0.61631      -0.02067
                        -----------------------------------------
Magnitude (a.u.)       :      0.74549
Magnitude (Debye)      :      1.89488

Rotational constants in cm-1:     0.019799     0.008453     0.007036
Rotational constants in MHz :   593.570735   253.425122   210.937232

                             ****ORCA TERMINATED NORMALLY****
TOTAL RUN TIME: 0 days 0 hours 0 minutes 30 seconds 500 msec
