                         Program Version 4.2.1 -  RELEASE  -
|  1> ! wB97X-D3 SP def2-SVP
|  2> %pal
|  3> nprocs 16
|  4> end
|  5>
|  6> * xyz 0 1
|  7> S 	 11.5719 	 18.6964 	 39.884
|  8> C 	 12.0968 	 19.9021 	 38.6986
|  9> C 	 11.1697 	 20.037 	 37.6849
| 10> C 	 10.042 	 19.1775 	 37.8469
| 11> C 	 10.074 	 18.4765 	 39.0587
| 12> H 	 9.24091 	 18.995 	 37.2198
| 13> C 	 11.339 	 20.9469 	 36.5592
| 14> H 	 10.6442 	 20.6586 	 35.7789
| 15> H 	 12.302 	 20.8382 	 36.0344
| 16> C 	 11.0158 	 22.41 	 36.9207
| 17> H 	 10.6839 	 23.0468 	 36.0845
| 18> H 	 10.0866 	 22.3299 	 37.363
| 19> C 	 11.9373 	 23.2093 	 37.833
| 20> H 	 12.9032 	 23.258 	 37.5853
| 21> H 	 11.6847 	 24.2404 	 37.851
| 22> H 	 11.8744 	 22.8323 	 38.8736
| 23> S 	 9.73487 	 16.0568 	 40.2555
| 24> C 	 8.13495 	 15.3349 	 40.3319
| 25> C 	 7.15643 	 16.1818 	 39.7576
| 26> C 	 7.75284 	 17.3821 	 39.2198
| 27> C 	 9.12727 	 17.4915 	 39.4781
| 28> H 	 6.12187 	 15.8368 	 39.6328
| 29> C 	 6.9042 	 18.3088 	 38.4537
| 30> H 	 7.2391 	 19.2995 	 38.7161
| 31> H 	 5.86201 	 18.1374 	 38.8382
| 32> C 	 6.69436 	 18.0706 	 36.965
| 33> H 	 6.1278 	 17.1366 	 36.7309
| 34> H 	 7.63226 	 17.7782 	 36.5039
| 35> C 	 6.19384 	 19.3049 	 36.1895
| 36> H 	 5.95856 	 19.1041 	 35.0859
| 37> H 	 6.91568 	 20.0803 	 36.1066
| 38> H 	 5.29278 	 19.6794 	 36.6339
| 39> H 	 13.1556 	 20.3492 	 38.7082
| 40> H 	 7.89266 	 14.3277 	 40.631
| 41> *
| 42>
| 43>                          ****END OF INPUT****

CARTESIAN COORDINATES (ANGSTROEM)
---------------------------------
  S     11.571900   18.696400   39.884000
  C     12.096800   19.902100   38.698600
  C     11.169700   20.037000   37.684900
  C     10.042000   19.177500   37.846900
  C     10.074000   18.476500   39.058700
  H      9.240910   18.995000   37.219800
  C     11.339000   20.946900   36.559200
  H     10.644200   20.658600   35.778900
  H     12.302000   20.838200   36.034400
  C     11.015800   22.410000   36.920700
  H     10.683900   23.046800   36.084500
  H     10.086600   22.329900   37.363000
  C     11.937300   23.209300   37.833000
  H     12.903200   23.258000   37.585300
  H     11.684700   24.240400   37.851000
  H     11.874400   22.832300   38.873600
  S      9.734870   16.056800   40.255500
  C      8.134950   15.334900   40.331900
  C      7.156430   16.181800   39.757600
  C      7.752840   17.382100   39.219800
  C      9.127270   17.491500   39.478100
  H      6.121870   15.836800   39.632800
  C      6.904200   18.308800   38.453700
  H      7.239100   19.299500   38.716100
  H      5.862010   18.137400   38.838200
  C      6.694360   18.070600   36.965000
  H      6.127800   17.136600   36.730900
  H      7.632260   17.778200   36.503900
  C      6.193840   19.304900   36.189500
  H      5.958560   19.104100   35.085900
  H      6.915680   20.080300   36.106600
  H      5.292780   19.679400   36.633900
  H     13.155600   20.349200   38.708200
  H      7.892660   14.327700   40.631000

 Total Charge           Charge          ....    0
 Multiplicity           Mult            ....    1
 Number of Electrons    NEL             ....  134
 Basis Dimension        Dim             ....  322

ORBITAL ENERGIES
----------------

  NO   OCC          E(Eh)            E(eV)
   0   2.0000     -88.969363     -2420.9795
   1   2.0000     -88.967255     -2420.9221
   2   2.0000     -10.327995      -281.0390
   3   2.0000     -10.326504      -280.9985
   4   2.0000     -10.321982      -280.8754
   5   2.0000     -10.319501      -280.8079
   6   2.0000     -10.303819      -280.3812
   7   2.0000     -10.300871      -280.3010
   8   2.0000     -10.299887      -280.2742
   9   2.0000     -10.292329      -280.0685
  10   2.0000     -10.291298      -280.0404
  11   2.0000     -10.290330      -280.0141
  12   2.0000     -10.288432      -279.9625
  13   2.0000     -10.283808      -279.8367
  14   2.0000     -10.279429      -279.7175
  15   2.0000     -10.264175      -279.3024
  16   2.0000      -8.083947      -219.9754
  17   2.0000      -8.082192      -219.9276
  18   2.0000      -6.042510      -164.4251
  19   2.0000      -6.040697      -164.3757
  20   2.0000      -6.038426      -164.3139
  21   2.0000      -6.036660      -164.2659
  22   2.0000      -6.034701      -164.2126
  23   2.0000      -6.032961      -164.1652
  24   2.0000      -1.010279       -27.4911
  25   2.0000      -0.983122       -26.7521
  26   2.0000      -0.918818       -25.0023
  27   2.0000      -0.914152       -24.8753
  28   2.0000      -0.869533       -23.6612
  29   2.0000      -0.856260       -23.3000
  30   2.0000      -0.849619       -23.1193
  31   2.0000      -0.814554       -22.1651
  32   2.0000      -0.788610       -21.4592
  33   2.0000      -0.774552       -21.0766
  34   2.0000      -0.714819       -19.4512
  35   2.0000      -0.707478       -19.2515
  36   2.0000      -0.696161       -18.9435
  37   2.0000      -0.669892       -18.2287
  38   2.0000      -0.640655       -17.4331
  39   2.0000      -0.619614       -16.8606
  40   2.0000      -0.595365       -16.2007
  41   2.0000      -0.572706       -15.5841
  42   2.0000      -0.566300       -15.4098
  43   2.0000      -0.544673       -14.8213
  44   2.0000      -0.539868       -14.6906
  45   2.0000      -0.526725       -14.3329
  46   2.0000      -0.521597       -14.1934
  47   2.0000      -0.513768       -13.9803
  48   2.0000      -0.505882       -13.7657
  49   2.0000      -0.499037       -13.5795
  50   2.0000      -0.492673       -13.4063
  51   2.0000      -0.489059       -13.3080
  52   2.0000      -0.486196       -13.2301
  53   2.0000      -0.467364       -12.7176
  54   2.0000      -0.459861       -12.5134
  55   2.0000      -0.451829       -12.2949
  56   2.0000      -0.440720       -11.9926
  57   2.0000      -0.436696       -11.8831
  58   2.0000      -0.436019       -11.8647
  59   2.0000      -0.431081       -11.7303
  60   2.0000      -0.422752       -11.5037
  61   2.0000      -0.410477       -11.1697
  62   2.0000      -0.408012       -11.1026
  63   2.0000      -0.355358        -9.6698
  64   2.0000      -0.333805        -9.0833
  65   2.0000      -0.329611        -8.9692
  66   2.0000      -0.281792        -7.6679
  67   0.0000       0.019383         0.5274
  68   0.0000       0.075600         2.0572
  69   0.0000       0.100031         2.7220
  70   0.0000       0.119247         3.2449
  71   0.0000       0.128214         3.4889

MULLIKEN ATOMIC CHARGES
-----------------------
   0 S :    0.102784
   1 C :   -0.153097
   2 C :   -0.066294
   3 C :    0.053735
   4 C :   -0.136558
   5 H :   -0.056604
   6 C :    0.079194
   7 H :    0.008937
   8 H :    0.033320
   9 C :   -0.046049
  10 H :    0.018657
  11 H :   -0.004317
  12 C :    0.005814
  13 H :   -0.005247
  14 H :    0.016294
  15 H :    0.039069
  16 S :    0.110185
  17 C :   -0.094001
  18 C :   -0.041534
  19 C :   -0.066159
  20 C :   -0.110863
  21 H :    0.032093
  22 C :    0.047259
  23 H :    0.031989
  24 H :    0.028667
  25 C :   -0.065161
  26 H :    0.027086
  27 H :    0.020430
  28 C :   -0.041756
  29 H :    0.039524
  30 H :    0.024326
  31 H :    0.029568
  32 H :    0.082007
  33 H :    0.056702
Sum of atomic charges:   -0.0000000

LOEWDIN ATOMIC CHARGES
----------------------
   0 S :    0.406697
   1 C :   -0.204625
   2 C :   -0.062579
   3 C :   -0.056212
   4 C :   -0.193009
   5 H :    0.016798
   6 C :   -0.034443
   7 H :    0.032270
   8 H :    0.031812
   9 C :   -0.038668
  10 H :    0.027226
  11 H :    0.017536
  12 C :   -0.058553
  13 H :    0.005067
  14 H :    0.027932
  15 H :    0.032405
  16 S :    0.411495
  17 C :   -0.185456
  18 C :   -0.068800
  19 C :   -0.057258
  20 C :   -0.202945
  21 H :    0.036089
  22 C :   -0.041621
  23 H :    0.031106
  24 H :    0.040057
  25 C :   -0.047454
  26 H :    0.030353
  27 H :    0.016334
  28 C :   -0.063039
  29 H :    0.036944
  30 H :    0.017998
  31 H :    0.020864
  32 H :    0.047101
  33 H :    0.028580

  Mayer bond orders larger than 0.100000
B(  0-S ,  1-C ) :   1.1241 B(  0-S ,  4-C ) :   1.1622 B(  1-C ,  2-C ) :   1.5966
B(  1-C , 32-H ) :   0.9565 B(  2-C ,  3-C ) :   1.2449 B(  2-C ,  6-C ) :   1.0413
B(  3-C ,  4-C ) :   1.5279 B(  3-C ,  5-H ) :   1.0064 B(  4-C , 20-C ) :   1.0902
B(  6-C ,  7-H ) :   0.9286 B(  6-C ,  8-H ) :   0.9412 B(  6-C ,  9-C ) :   1.0640
B(  9-C , 10-H ) :   0.9553 B(  9-C , 11-H ) :   0.9421 B(  9-C , 12-C ) :   1.0875
B( 12-C , 13-H ) :   0.9737 B( 12-C , 14-H ) :   0.9656 B( 12-C , 15-H ) :   0.9694
B( 16-S , 17-C ) :   1.1611 B( 16-S , 20-C ) :   1.1320 B( 17-C , 18-C ) :   1.5934
B( 17-C , 33-H ) :   0.9676 B( 18-C , 19-C ) :   1.2568 B( 18-C , 21-H ) :   0.9847
B( 19-C , 20-C ) :   1.5582 B( 19-C , 22-C ) :   1.0704 B( 22-C , 23-H ) :   0.9336
B( 22-C , 24-H ) :   0.9233 B( 22-C , 25-C ) :   1.0475 B( 25-C , 26-H ) :   0.9466
B( 25-C , 27-H ) :   0.9533 B( 25-C , 28-C ) :   1.0769 B( 28-C , 29-H ) :   0.9724
B( 28-C , 30-H ) :   0.9760 B( 28-C , 31-H ) :   0.9756

Dispersion correction           -0.014822911
FINAL SINGLE POINT ENERGY     -1339.864554480116

DIPOLE MOMENT
-------------
                                X             Y             Z
Electronic contribution:     10.12134     -20.59977      19.23237
Nuclear contribution   :    -10.48972      20.76531     -19.83370
                        -----------------------------------------
Total Dipole Moment    :     -0.36839       0.16555      -0.60133
                        -----------------------------------------
Magnitude (a.u.)       :      0.72437
Magnitude (Debye)      :      1.84121

Rotational constants in cm-1:     0.019129     0.009491     0.006686
Rotational constants in MHz :   573.462858   284.536388   200.427598

                             ****ORCA TERMINATED NORMALLY****
TOTAL RUN TIME: 0 days 0 hours 0 minutes 35 seconds 981 msec
