                         Program Version 4.2.1 -  RELEASE  -
|  1> ! wB97X-D3 SP def2-SVP
|  2> %pal
|  3> nprocs 16
|  4> end
|  5>
|  6> * xyz 0 1
|  7> S 	 32.4678 	 1.79601 	 69.6599
|  8> C 	 32.5201 	 3.53778 	 69.3256
|  9> C 	 32.2529 	 4.30926 	 70.4912
| 10> C 	 31.8785 	 3.48662 	 71.6006
| 11> C 	 31.9927 	 2.1133 	 71.2934
| 12> H 	 31.6769 	 3.81994 	 72.645
| 13> C 	 32.1971 	 5.86438 	 70.5359
| 14> H 	 31.4634 	 6.12773 	 71.2865
| 15> H 	 31.8313 	 6.13765 	 69.5493
| 16> C 	 33.5182 	 6.54046 	 70.8751
| 17> H 	 34.1915 	 6.19143 	 70.1446
| 18> H 	 33.5682 	 7.63817 	 70.8677
| 19> C 	 34.1019 	 6.15253 	 72.2297
| 20> H 	 34.5502 	 5.19101 	 72.2251
| 21> H 	 34.9006 	 6.88904 	 72.5213
| 22> H 	 33.2407 	 6.29233 	 72.8868
| 23> S 	 30.8273 	 -0.331072 	 72.0384
| 24> C 	 31.5275 	 -1.32354 	 73.2155
| 25> C 	 32.5307 	 -0.601742 	 73.8599
| 26> C 	 32.7901 	 0.692221 	 73.3597
| 27> C 	 31.9878 	 0.99943 	 72.2887
| 28> H 	 33.1538 	 -1.11573 	 74.5897
| 29> C 	 33.9303 	 1.56375 	 73.8493
| 30> H 	 34.3807 	 1.95836 	 72.9303
| 31> H 	 34.7108 	 0.88252 	 74.2476
| 32> C 	 33.5743 	 2.62869 	 74.9295
| 33> H 	 32.6531 	 3.1119 	 74.7132
| 34> H 	 34.309 	 3.37129 	 75.0162
| 35> C 	 33.43 	 2.00775 	 76.3692
| 36> H 	 33.7201 	 2.73381 	 77.1938
| 37> H 	 34.0459 	 1.1661 	 76.6038
| 38> H 	 32.4163 	 1.74636 	 76.5135
| 39> H 	 32.6132 	 3.94687 	 68.3506
| 40> H 	 31.2783 	 -2.33909 	 73.4225
| 41> *
| 42>
| 43>                          ****END OF INPUT****

CARTESIAN COORDINATES (ANGSTROEM)
---------------------------------
  S     32.467800    1.796010   69.659900
  C     32.520100    3.537780   69.325600
  C     32.252900    4.309260   70.491200
  C     31.878500    3.486620   71.600600
  C     31.992700    2.113300   71.293400
  H     31.676900    3.819940   72.645000
  C     32.197100    5.864380   70.535900
  H     31.463400    6.127730   71.286500
  H     31.831300    6.137650   69.549300
  C     33.518200    6.540460   70.875100
  H     34.191500    6.191430   70.144600
  H     33.568200    7.638170   70.867700
  C     34.101900    6.152530   72.229700
  H     34.550200    5.191010   72.225100
  H     34.900600    6.889040   72.521300
  H     33.240700    6.292330   72.886800
  S     30.827300   -0.331072   72.038400
  C     31.527500   -1.323540   73.215500
  C     32.530700   -0.601742   73.859900
  C     32.790100    0.692221   73.359700
  C     31.987800    0.999430   72.288700
  H     33.153800   -1.115730   74.589700
  C     33.930300    1.563750   73.849300
  H     34.380700    1.958360   72.930300
  H     34.710800    0.882520   74.247600
  C     33.574300    2.628690   74.929500
  H     32.653100    3.111900   74.713200
  H     34.309000    3.371290   75.016200
  C     33.430000    2.007750   76.369200
  H     33.720100    2.733810   77.193800
  H     34.045900    1.166100   76.603800
  H     32.416300    1.746360   76.513500
  H     32.613200    3.946870   68.350600
  H     31.278300   -2.339090   73.422500

 Total Charge           Charge          ....    0
 Multiplicity           Mult            ....    1
 Number of Electrons    NEL             ....  134
 Basis Dimension        Dim             ....  322

ORBITAL ENERGIES
----------------

  NO   OCC          E(Eh)            E(eV)
   0   2.0000     -88.973486     -2421.0916
   1   2.0000     -88.961244     -2420.7585
   2   2.0000     -10.334013      -281.2028
   3   2.0000     -10.326063      -280.9865
   4   2.0000     -10.319791      -280.8158
   5   2.0000     -10.313015      -280.6314
   6   2.0000     -10.311090      -280.5790
   7   2.0000     -10.302920      -280.3567
   8   2.0000     -10.300309      -280.2856
   9   2.0000     -10.295777      -280.1623
  10   2.0000     -10.294388      -280.1246
  11   2.0000     -10.289746      -279.9982
  12   2.0000     -10.285074      -279.8711
  13   2.0000     -10.280517      -279.7471
  14   2.0000     -10.276328      -279.6331
  15   2.0000     -10.275495      -279.6104
  16   2.0000      -8.087652      -220.0762
  17   2.0000      -8.076707      -219.7784
  18   2.0000      -6.046066      -164.5218
  19   2.0000      -6.042167      -164.4157
  20   2.0000      -6.038614      -164.3190
  21   2.0000      -6.035094      -164.2233
  22   2.0000      -6.030865      -164.1082
  23   2.0000      -6.027793      -164.0246
  24   2.0000      -1.005320       -27.3562
  25   2.0000      -0.983245       -26.7554
  26   2.0000      -0.914282       -24.8789
  27   2.0000      -0.904691       -24.6179
  28   2.0000      -0.863095       -23.4860
  29   2.0000      -0.850817       -23.1519
  30   2.0000      -0.844436       -22.9783
  31   2.0000      -0.809811       -22.0361
  32   2.0000      -0.783393       -21.3172
  33   2.0000      -0.773115       -21.0375
  34   2.0000      -0.709425       -19.3044
  35   2.0000      -0.699074       -19.0228
  36   2.0000      -0.692776       -18.8514
  37   2.0000      -0.660467       -17.9722
  38   2.0000      -0.641492       -17.4559
  39   2.0000      -0.610418       -16.6103
  40   2.0000      -0.592457       -16.1216
  41   2.0000      -0.578855       -15.7515
  42   2.0000      -0.552719       -15.0402
  43   2.0000      -0.551341       -15.0027
  44   2.0000      -0.550440       -14.9782
  45   2.0000      -0.543760       -14.7965
  46   2.0000      -0.516229       -14.0473
  47   2.0000      -0.509526       -13.8649
  48   2.0000      -0.499988       -13.6054
  49   2.0000      -0.495001       -13.4697
  50   2.0000      -0.484934       -13.1957
  51   2.0000      -0.476758       -12.9732
  52   2.0000      -0.470739       -12.8095
  53   2.0000      -0.464732       -12.6460
  54   2.0000      -0.461256       -12.5514
  55   2.0000      -0.447144       -12.1674
  56   2.0000      -0.441662       -12.0182
  57   2.0000      -0.439786       -11.9672
  58   2.0000      -0.437228       -11.8976
  59   2.0000      -0.420628       -11.4459
  60   2.0000      -0.419333       -11.4106
  61   2.0000      -0.418410       -11.3855
  62   2.0000      -0.413623       -11.2553
  63   2.0000      -0.338884        -9.2215
  64   2.0000      -0.332810        -9.0562
  65   2.0000      -0.327783        -8.9194
  66   2.0000      -0.300245        -8.1701
  67   0.0000       0.029390         0.7997
  68   0.0000       0.064445         1.7536
  69   0.0000       0.114841         3.1250
  70   0.0000       0.120248         3.2721
  71   0.0000       0.127044         3.4570

MULLIKEN ATOMIC CHARGES
-----------------------
   0 S :    0.134781
   1 C :   -0.113415
   2 C :   -0.127126
   3 C :    0.035022
   4 C :   -0.153781
   5 H :    0.031034
   6 C :    0.083069
   7 H :    0.024153
   8 H :    0.027387
   9 C :   -0.052121
  10 H :    0.009718
  11 H :    0.036223
  12 C :   -0.069687
  13 H :    0.045948
  14 H :    0.037770
  15 H :    0.024266
  16 S :    0.104954
  17 C :   -0.081767
  18 C :   -0.054193
  19 C :   -0.004591
  20 C :   -0.205365
  21 H :    0.014704
  22 C :    0.045576
  23 H :    0.039149
  24 H :    0.023982
  25 C :   -0.006144
  26 H :    0.019639
  27 H :    0.022760
  28 C :   -0.073780
  29 H :    0.034517
  30 H :    0.021655
  31 H :    0.033031
  32 H :    0.040559
  33 H :    0.052072
Sum of atomic charges:   -0.0000000

LOEWDIN ATOMIC CHARGES
----------------------
   0 S :    0.423358
   1 C :   -0.194068
   2 C :   -0.055144
   3 C :   -0.064600
   4 C :   -0.204929
   5 H :    0.038604
   6 C :   -0.024102
   7 H :    0.025899
   8 H :    0.031917
   9 C :   -0.043851
  10 H :    0.015921
  11 H :    0.027800
  12 C :   -0.063370
  13 H :    0.020703
  14 H :    0.032473
  15 H :    0.022349
  16 S :    0.415992
  17 C :   -0.199016
  18 C :   -0.080655
  19 C :   -0.058717
  20 C :   -0.198573
  21 H :    0.028417
  22 C :   -0.028818
  23 H :    0.034882
  24 H :    0.032176
  25 C :   -0.024959
  26 H :    0.018666
  27 H :    0.018352
  28 C :   -0.066368
  29 H :    0.033351
  30 H :    0.017714
  31 H :    0.020378
  32 H :    0.019800
  33 H :    0.028420

  Mayer bond orders larger than 0.100000
B(  0-S ,  1-C ) :   1.1479 B(  0-S ,  4-C ) :   1.1814 B(  1-C ,  2-C ) :   1.5827
B(  1-C ,  4-C ) :   0.1058 B(  1-C , 32-H ) :   0.9724 B(  2-C ,  3-C ) :   1.2632
B(  2-C ,  6-C ) :   1.0041 B(  3-C ,  4-C ) :   1.5466 B(  3-C ,  5-H ) :   0.9863
B(  4-C , 20-C ) :   1.0033 B(  6-C ,  7-H ) :   0.9480 B(  6-C ,  8-H ) :   0.9433
B(  6-C ,  9-C ) :   1.0688 B(  9-C , 10-H ) :   0.9517 B(  9-C , 11-H ) :   0.9611
B(  9-C , 12-C ) :   1.0772 B( 12-C , 13-H ) :   0.9744 B( 12-C , 14-H ) :   0.9744
B( 12-C , 15-H ) :   0.9781 B( 16-S , 17-C ) :   1.1805 B( 16-S , 20-C ) :   1.1506
B( 17-C , 18-C ) :   1.5687 B( 17-C , 20-C ) :   0.1018 B( 17-C , 33-H ) :   0.9734
B( 18-C , 19-C ) :   1.2703 B( 18-C , 21-H ) :   0.9893 B( 19-C , 20-C ) :   1.5833
B( 19-C , 22-C ) :   1.0293 B( 22-C , 23-H ) :   0.9337 B( 22-C , 24-H ) :   0.9437
B( 22-C , 25-C ) :   1.0632 B( 25-C , 26-H ) :   0.9595 B( 25-C , 27-H ) :   0.9613
B( 25-C , 28-C ) :   1.0610 B( 28-C , 29-H ) :   0.9778 B( 28-C , 30-H ) :   0.9792
B( 28-C , 31-H ) :   0.9816

Dispersion correction           -0.015556860
FINAL SINGLE POINT ENERGY     -1339.877842718289

DIPOLE MOMENT
-------------
                                X             Y             Z
Electronic contribution:    -12.64361     -21.24620     -16.89241
Nuclear contribution   :     13.04220      21.64120      17.15649
                        -----------------------------------------
Total Dipole Moment    :      0.39859       0.39500       0.26408
                        -----------------------------------------
Magnitude (a.u.)       :      0.62019
Magnitude (Debye)      :      1.57641

Rotational constants in cm-1:     0.018293     0.010036     0.007003
Rotational constants in MHz :   548.423062   300.876024   209.940976

                             ****ORCA TERMINATED NORMALLY****
TOTAL RUN TIME: 0 days 0 hours 0 minutes 31 seconds 484 msec
