                         Program Version 4.2.1 -  RELEASE  -
|  1> ! wB97X-D3 SP def2-SVP
|  2> %pal
|  3> nprocs 16
|  4> end
|  5>
|  6> * xyz 0 1
|  7> S 	 6.2769 	 -13.3103 	 64.667
|  8> C 	 8.02636 	 -13.4531 	 64.9796
|  9> C 	 8.48267 	 -12.5536 	 65.9262
| 10> C 	 7.3702 	 -11.7015 	 66.3265
| 11> C 	 6.11774 	 -12.2122 	 66.0188
| 12> H 	 7.45771 	 -10.8058 	 66.9049
| 13> C 	 9.92689 	 -12.3164 	 66.2785
| 14> H 	 9.81024 	 -11.4536 	 66.8618
| 15> H 	 10.3924 	 -11.8961 	 65.343
| 16> C 	 10.7659 	 -13.4526 	 66.9703
| 17> H 	 10.6507 	 -14.3836 	 66.4614
| 18> H 	 11.8072 	 -13.1816 	 66.8896
| 19> C 	 10.4091 	 -13.7043 	 68.4223
| 20> H 	 10.4299 	 -12.7854 	 68.9316
| 21> H 	 9.38872 	 -14.1152 	 68.4645
| 22> H 	 11.0646 	 -14.4468 	 68.8961
| 23> S 	 4.02568 	 -10.7473 	 64.8879
| 24> C 	 2.6601 	 -10.2904 	 65.8608
| 25> C 	 2.91713 	 -10.5951 	 67.1682
| 26> C 	 4.16701 	 -11.2417 	 67.4245
| 27> C 	 4.82983 	 -11.5603 	 66.2272
| 28> H 	 2.21847 	 -10.2407 	 67.9367
| 29> C 	 4.49264 	 -11.7232 	 68.8414
| 30> H 	 3.90654 	 -11.1155 	 69.5846
| 31> H 	 5.58781 	 -11.4455 	 69.0404
| 32> C 	 4.05845 	 -13.2024 	 69.1686
| 33> H 	 3.09969 	 -13.5072 	 68.8386
| 34> H 	 3.99623 	 -13.2608 	 70.2119
| 35> C 	 5.11789 	 -14.1288 	 68.7911
| 36> H 	 6.14934 	 -13.7512 	 69.0441
| 37> H 	 5.1398 	 -14.3403 	 67.7025
| 38> H 	 5.07183 	 -15.0874 	 69.3367
| 39> H 	 8.64118 	 -14.2034 	 64.4607
| 40> H 	 1.83302 	 -9.7309 	 65.5507
| 41> *
| 42>
| 43>                          ****END OF INPUT****

CARTESIAN COORDINATES (ANGSTROEM)
---------------------------------
  S      6.276900  -13.310300   64.667000
  C      8.026360  -13.453100   64.979600
  C      8.482670  -12.553600   65.926200
  C      7.370200  -11.701500   66.326500
  C      6.117740  -12.212200   66.018800
  H      7.457710  -10.805800   66.904900
  C      9.926890  -12.316400   66.278500
  H      9.810240  -11.453600   66.861800
  H     10.392400  -11.896100   65.343000
  C     10.765900  -13.452600   66.970300
  H     10.650700  -14.383600   66.461400
  H     11.807200  -13.181600   66.889600
  C     10.409100  -13.704300   68.422300
  H     10.429900  -12.785400   68.931600
  H      9.388720  -14.115200   68.464500
  H     11.064600  -14.446800   68.896100
  S      4.025680  -10.747300   64.887900
  C      2.660100  -10.290400   65.860800
  C      2.917130  -10.595100   67.168200
  C      4.167010  -11.241700   67.424500
  C      4.829830  -11.560300   66.227200
  H      2.218470  -10.240700   67.936700
  C      4.492640  -11.723200   68.841400
  H      3.906540  -11.115500   69.584600
  H      5.587810  -11.445500   69.040400
  C      4.058450  -13.202400   69.168600
  H      3.099690  -13.507200   68.838600
  H      3.996230  -13.260800   70.211900
  C      5.117890  -14.128800   68.791100
  H      6.149340  -13.751200   69.044100
  H      5.139800  -14.340300   67.702500
  H      5.071830  -15.087400   69.336700
  H      8.641180  -14.203400   64.460700
  H      1.833020   -9.730900   65.550700

 Total Charge           Charge          ....    0
 Multiplicity           Mult            ....    1
 Number of Electrons    NEL             ....  134
 Basis Dimension        Dim             ....  322

ORBITAL ENERGIES
----------------

  NO   OCC          E(Eh)            E(eV)
   0   2.0000     -88.964231     -2420.8398
   1   2.0000     -88.963066     -2420.8081
   2   2.0000     -10.328393      -281.0499
   3   2.0000     -10.326929      -281.0100
   4   2.0000     -10.317178      -280.7447
   5   2.0000     -10.310000      -280.5494
   6   2.0000     -10.304423      -280.3976
   7   2.0000     -10.303351      -280.3684
   8   2.0000     -10.301106      -280.3073
   9   2.0000     -10.298398      -280.2337
  10   2.0000     -10.295598      -280.1575
  11   2.0000     -10.289785      -279.9993
  12   2.0000     -10.288972      -279.9772
  13   2.0000     -10.274676      -279.5881
  14   2.0000     -10.274313      -279.5783
  15   2.0000     -10.267818      -279.4015
  16   2.0000      -8.078506      -219.8273
  17   2.0000      -8.077820      -219.8086
  18   2.0000      -6.037022      -164.2757
  19   2.0000      -6.036387      -164.2584
  20   2.0000      -6.033259      -164.1733
  21   2.0000      -6.032277      -164.1466
  22   2.0000      -6.029086      -164.0598
  23   2.0000      -6.028552      -164.0452
  24   2.0000      -1.004212       -27.3260
  25   2.0000      -0.981189       -26.6995
  26   2.0000      -0.912135       -24.8204
  27   2.0000      -0.907573       -24.6963
  28   2.0000      -0.869477       -23.6597
  29   2.0000      -0.850565       -23.1450
  30   2.0000      -0.845124       -22.9970
  31   2.0000      -0.812520       -22.1098
  32   2.0000      -0.781568       -21.2675
  33   2.0000      -0.766566       -20.8593
  34   2.0000      -0.711178       -19.3521
  35   2.0000      -0.702100       -19.1051
  36   2.0000      -0.693385       -18.8680
  37   2.0000      -0.655706       -17.8427
  38   2.0000      -0.638587       -17.3768
  39   2.0000      -0.609901       -16.5963
  40   2.0000      -0.592804       -16.1310
  41   2.0000      -0.573817       -15.6143
  42   2.0000      -0.552553       -15.0357
  43   2.0000      -0.551221       -14.9995
  44   2.0000      -0.543033       -14.7767
  45   2.0000      -0.529943       -14.4205
  46   2.0000      -0.521578       -14.1928
  47   2.0000      -0.515885       -14.0379
  48   2.0000      -0.501273       -13.6403
  49   2.0000      -0.493152       -13.4194
  50   2.0000      -0.489838       -13.3292
  51   2.0000      -0.476368       -12.9626
  52   2.0000      -0.469469       -12.7749
  53   2.0000      -0.465033       -12.6542
  54   2.0000      -0.458779       -12.4840
  55   2.0000      -0.443575       -12.0703
  56   2.0000      -0.441132       -12.0038
  57   2.0000      -0.438377       -11.9288
  58   2.0000      -0.429903       -11.6982
  59   2.0000      -0.428537       -11.6611
  60   2.0000      -0.419942       -11.4272
  61   2.0000      -0.410201       -11.1621
  62   2.0000      -0.405867       -11.0442
  63   2.0000      -0.340605        -9.2683
  64   2.0000      -0.328291        -8.9333
  65   2.0000      -0.323606        -8.8058
  66   2.0000      -0.294879        -8.0241
  67   0.0000       0.028618         0.7787
  68   0.0000       0.060994         1.6597
  69   0.0000       0.105725         2.8769
  70   0.0000       0.117201         3.1892
  71   0.0000       0.126525         3.4429

MULLIKEN ATOMIC CHARGES
-----------------------
   0 S :    0.091306
   1 C :   -0.129779
   2 C :   -0.115320
   3 C :    0.037429
   4 C :   -0.162248
   5 H :    0.015869
   6 C :    0.074672
   7 H :   -0.006625
   8 H :    0.050097
   9 C :   -0.036550
  10 H :    0.023918
  11 H :    0.027591
  12 C :   -0.045441
  13 H :    0.020182
  14 H :    0.042028
  15 H :    0.039974
  16 S :    0.107708
  17 C :   -0.066080
  18 C :   -0.047811
  19 C :   -0.024534
  20 C :   -0.155874
  21 H :    0.022838
  22 C :    0.005107
  23 H :    0.022848
  24 H :    0.043047
  25 C :    0.023210
  26 H :    0.020405
  27 H :    0.005777
  28 C :   -0.073800
  29 H :    0.023445
  30 H :    0.044055
  31 H :    0.026163
  32 H :    0.059345
  33 H :    0.037048
Sum of atomic charges:   -0.0000000

LOEWDIN ATOMIC CHARGES
----------------------
   0 S :    0.389850
   1 C :   -0.181607
   2 C :   -0.067753
   3 C :   -0.048839
   4 C :   -0.197066
   5 H :    0.025941
   6 C :   -0.033541
   7 H :    0.020723
   8 H :    0.044998
   9 C :   -0.031947
  10 H :    0.020702
  11 H :    0.024348
  12 C :   -0.060158
  13 H :    0.016485
  14 H :    0.030577
  15 H :    0.029893
  16 S :    0.405398
  17 C :   -0.183048
  18 C :   -0.075329
  19 C :   -0.061267
  20 C :   -0.204566
  21 H :    0.033001
  22 C :   -0.033178
  23 H :    0.032043
  24 H :    0.038577
  25 C :   -0.032907
  26 H :    0.024690
  27 H :    0.018900
  28 C :   -0.072161
  29 H :    0.026489
  30 H :    0.026237
  31 H :    0.023894
  32 H :    0.029044
  33 H :    0.021577

  Mayer bond orders larger than 0.100000
B(  0-S ,  1-C ) :   1.1410 B(  0-S ,  4-C ) :   1.1324 B(  1-C ,  2-C ) :   1.6131
B(  1-C , 32-H ) :   0.9661 B(  2-C ,  3-C ) :   1.2232 B(  2-C ,  6-C ) :   1.0058
B(  3-C ,  4-C ) :   1.5977 B(  3-C ,  5-H ) :   0.9841 B(  4-C , 20-C ) :   1.0301
B(  6-C ,  7-H ) :   0.9382 B(  6-C ,  8-H ) :   0.9374 B(  6-C ,  9-C ) :   1.0551
B(  9-C , 10-H ) :   0.9618 B(  9-C , 11-H ) :   0.9542 B(  9-C , 12-C ) :   1.0814
B( 12-C , 13-H ) :   0.9762 B( 12-C , 14-H ) :   0.9759 B( 12-C , 15-H ) :   0.9725
B( 16-S , 17-C ) :   1.1467 B( 16-S , 20-C ) :   1.1509 B( 17-C , 18-C ) :   1.6103
B( 17-C , 33-H ) :   0.9748 B( 18-C , 19-C ) :   1.2571 B( 18-C , 21-H ) :   0.9840
B( 19-C , 20-C ) :   1.5745 B( 19-C , 22-C ) :   1.0479 B( 22-C , 23-H ) :   0.9383
B( 22-C , 24-H ) :   0.9378 B( 22-C , 25-C ) :   1.0616 B( 25-C , 26-H ) :   0.9497
B( 25-C , 27-H ) :   0.9484 B( 25-C , 28-C ) :   1.0970 B( 28-C , 29-H ) :   0.9718
B( 28-C , 30-H ) :   0.9686 B( 28-C , 31-H ) :   0.9692

Dispersion correction           -0.015231254
FINAL SINGLE POINT ENERGY     -1339.863502712094

DIPOLE MOMENT
-------------
                                X             Y             Z
Electronic contribution:    -15.24601       8.65903     -21.43699
Nuclear contribution   :     15.62398      -8.50533      21.96622
                        -----------------------------------------
Total Dipole Moment    :      0.37797       0.15370       0.52923
                        -----------------------------------------
Magnitude (a.u.)       :      0.66826
Magnitude (Debye)      :      1.69857

Rotational constants in cm-1:     0.021082     0.008850     0.007226
Rotational constants in MHz :   632.020003   265.323892   216.617116

                             ****ORCA TERMINATED NORMALLY****
TOTAL RUN TIME: 0 days 0 hours 0 minutes 36 seconds 354 msec
