                         Program Version 4.2.1 -  RELEASE  -
|  1> ! wB97X-D3 SP def2-SVP
|  2> %pal
|  3> nprocs 16
|  4> end
|  5>
|  6> * xyz 0 1
|  7> S 	 1.09535 	 2.72928 	 82.4571
|  8> C 	 1.15021 	 1.03377 	 82.0746
|  9> C 	 1.90597 	 0.347455 	 82.9886
| 10> C 	 2.76788 	 1.10301 	 83.7678
| 11> C 	 2.29817 	 2.40138 	 83.7725
| 12> H 	 3.49245 	 0.757779 	 84.4813
| 13> C 	 1.89476 	 -1.15916 	 83.0338
| 14> H 	 2.82892 	 -1.43974 	 82.6354
| 15> H 	 1.1893 	 -1.5932 	 82.3127
| 16> C 	 1.79229 	 -1.64899 	 84.4747
| 17> H 	 2.46807 	 -1.23654 	 85.1689
| 18> H 	 0.759505 	 -1.1969 	 84.6982
| 19> C 	 1.4823 	 -3.11765 	 84.7069
| 20> H 	 1.53721 	 -3.40498 	 85.7909
| 21> H 	 0.468323 	 -3.41154 	 84.2783
| 22> H 	 2.27964 	 -3.70478 	 84.1493
| 23> S 	 4.24653 	 4.47322 	 83.7576
| 24> C 	 4.57333 	 5.31319 	 85.2469
| 25> C 	 3.72181 	 4.82526 	 86.2161
| 26> C 	 2.7999 	 3.80672 	 85.8176
| 27> C 	 2.93406 	 3.51142 	 84.4597
| 28> H 	 3.68594 	 5.32467 	 87.244
| 29> C 	 1.79432 	 3.17356 	 86.7682
| 30> H 	 2.16961 	 2.86599 	 87.7508
| 31> H 	 1.57498 	 2.18163 	 86.475
| 32> C 	 0.496721 	 4.03672 	 87.0103
| 33> H 	 0.691685 	 5.10054 	 87.2934
| 34> H 	 -0.0391801 	 3.68786 	 87.8448
| 35> C 	 -0.472957 	 4.1109 	 85.7875
| 36> H 	 0.0141373 	 4.5674 	 84.9059
| 37> H 	 -1.43327 	 4.55383 	 85.8625
| 38> H 	 -0.70034 	 3.10381 	 85.4818
| 39> H 	 0.437835 	 0.443947 	 81.5401
| 40> H 	 5.40434 	 6.07292 	 85.3784
| 41> *
| 42>
| 43>                          ****END OF INPUT****

CARTESIAN COORDINATES (ANGSTROEM)
---------------------------------
  S      1.095350    2.729280   82.457100
  C      1.150210    1.033770   82.074600
  C      1.905970    0.347455   82.988600
  C      2.767880    1.103010   83.767800
  C      2.298170    2.401380   83.772500
  H      3.492450    0.757779   84.481300
  C      1.894760   -1.159160   83.033800
  H      2.828920   -1.439740   82.635400
  H      1.189300   -1.593200   82.312700
  C      1.792290   -1.648990   84.474700
  H      2.468070   -1.236540   85.168900
  H      0.759505   -1.196900   84.698200
  C      1.482300   -3.117650   84.706900
  H      1.537210   -3.404980   85.790900
  H      0.468323   -3.411540   84.278300
  H      2.279640   -3.704780   84.149300
  S      4.246530    4.473220   83.757600
  C      4.573330    5.313190   85.246900
  C      3.721810    4.825260   86.216100
  C      2.799900    3.806720   85.817600
  C      2.934060    3.511420   84.459700
  H      3.685940    5.324670   87.244000
  C      1.794320    3.173560   86.768200
  H      2.169610    2.865990   87.750800
  H      1.574980    2.181630   86.475000
  C      0.496721    4.036720   87.010300
  H      0.691685    5.100540   87.293400
  H     -0.039180    3.687860   87.844800
  C     -0.472957    4.110900   85.787500
  H      0.014137    4.567400   84.905900
  H     -1.433270    4.553830   85.862500
  H     -0.700340    3.103810   85.481800
  H      0.437835    0.443947   81.540100
  H      5.404340    6.072920   85.378400

 Total Charge           Charge          ....    0
 Multiplicity           Mult            ....    1
 Number of Electrons    NEL             ....  134
 Basis Dimension        Dim             ....  322

ORBITAL ENERGIES
----------------

  NO   OCC          E(Eh)            E(eV)
   0   2.0000     -88.968702     -2420.9615
   1   2.0000     -88.964400     -2420.8444
   2   2.0000     -10.333023      -281.1759
   3   2.0000     -10.325093      -280.9601
   4   2.0000     -10.323317      -280.9117
   5   2.0000     -10.305987      -280.4402
   6   2.0000     -10.305369      -280.4233
   7   2.0000     -10.297468      -280.2083
   8   2.0000     -10.295577      -280.1569
   9   2.0000     -10.293892      -280.1110
  10   2.0000     -10.293750      -280.1072
  11   2.0000     -10.292801      -280.0813
  12   2.0000     -10.288831      -279.9733
  13   2.0000     -10.288356      -279.9604
  14   2.0000     -10.288340      -279.9600
  15   2.0000     -10.266195      -279.3574
  16   2.0000      -8.082307      -219.9308
  17   2.0000      -8.078903      -219.8381
  18   2.0000      -6.040822      -164.3791
  19   2.0000      -6.037462      -164.2877
  20   2.0000      -6.037121      -164.2784
  21   2.0000      -6.033297      -164.1743
  22   2.0000      -6.032956      -164.1651
  23   2.0000      -6.029754      -164.0779
  24   2.0000      -1.006935       -27.4001
  25   2.0000      -0.985440       -26.8152
  26   2.0000      -0.915624       -24.9154
  27   2.0000      -0.899434       -24.4749
  28   2.0000      -0.869261       -23.6538
  29   2.0000      -0.853603       -23.2277
  30   2.0000      -0.840959       -22.8836
  31   2.0000      -0.815118       -22.1805
  32   2.0000      -0.784283       -21.3414
  33   2.0000      -0.768824       -20.9208
  34   2.0000      -0.711778       -19.3685
  35   2.0000      -0.701305       -19.0835
  36   2.0000      -0.689254       -18.7556
  37   2.0000      -0.649358       -17.6699
  38   2.0000      -0.642645       -17.4872
  39   2.0000      -0.622231       -16.9318
  40   2.0000      -0.601403       -16.3650
  41   2.0000      -0.571481       -15.5508
  42   2.0000      -0.561002       -15.2656
  43   2.0000      -0.546082       -14.8596
  44   2.0000      -0.528095       -14.3702
  45   2.0000      -0.524841       -14.2816
  46   2.0000      -0.515799       -14.0356
  47   2.0000      -0.509164       -13.8551
  48   2.0000      -0.503139       -13.6911
  49   2.0000      -0.498929       -13.5766
  50   2.0000      -0.487099       -13.2546
  51   2.0000      -0.479373       -13.0444
  52   2.0000      -0.476264       -12.9598
  53   2.0000      -0.464777       -12.6472
  54   2.0000      -0.460583       -12.5331
  55   2.0000      -0.446349       -12.1458
  56   2.0000      -0.444241       -12.0884
  57   2.0000      -0.435881       -11.8609
  58   2.0000      -0.432613       -11.7720
  59   2.0000      -0.425060       -11.5665
  60   2.0000      -0.417031       -11.3480
  61   2.0000      -0.412272       -11.2185
  62   2.0000      -0.394942       -10.7469
  63   2.0000      -0.343519        -9.3476
  64   2.0000      -0.328318        -8.9340
  65   2.0000      -0.319518        -8.6945
  66   2.0000      -0.306956        -8.3527
  67   0.0000       0.037343         1.0162
  68   0.0000       0.051055         1.3893
  69   0.0000       0.110089         2.9957
  70   0.0000       0.120930         3.2907
  71   0.0000       0.127547         3.4707

MULLIKEN ATOMIC CHARGES
-----------------------
   0 S :    0.108938
   1 C :   -0.082285
   2 C :   -0.137217
   3 C :    0.059879
   4 C :   -0.191643
   5 H :    0.028037
   6 C :    0.136302
   7 H :    0.013125
   8 H :    0.012363
   9 C :   -0.127487
  10 H :    0.029315
  11 H :    0.035402
  12 C :   -0.063860
  13 H :    0.048723
  14 H :    0.044692
  15 H :    0.030909
  16 S :    0.113595
  17 C :   -0.123737
  18 C :   -0.051182
  19 C :   -0.024443
  20 C :   -0.160079
  21 H :    0.042847
  22 C :    0.097983
  23 H :    0.018350
  24 H :    0.003482
  25 C :   -0.055905
  26 H :    0.031589
  27 H :    0.015664
  28 C :   -0.046140
  29 H :    0.030884
  30 H :    0.026270
  31 H :    0.012137
  32 H :    0.035715
  33 H :    0.087775
Sum of atomic charges:   -0.0000000

LOEWDIN ATOMIC CHARGES
----------------------
   0 S :    0.392944
   1 C :   -0.207544
   2 C :   -0.059010
   3 C :   -0.043036
   4 C :   -0.163157
   5 H :    0.037164
   6 C :   -0.027891
   7 H :    0.021988
   8 H :    0.030750
   9 C :   -0.053263
  10 H :    0.016769
  11 H :    0.036581
  12 C :   -0.074357
  13 H :    0.033143
  14 H :    0.031909
  15 H :    0.024511
  16 S :    0.402447
  17 C :   -0.200989
  18 C :   -0.084590
  19 C :   -0.053602
  20 C :   -0.207124
  21 H :    0.041258
  22 C :   -0.030195
  23 H :    0.035497
  24 H :    0.025138
  25 C :   -0.032366
  26 H :    0.027381
  27 H :    0.015658
  28 C :   -0.071009
  29 H :    0.024104
  30 H :    0.020734
  31 H :    0.018691
  32 H :    0.023238
  33 H :    0.048228

  Mayer bond orders larger than 0.100000
B(  0-S ,  1-C ) :   1.1239 B(  0-S ,  4-C ) :   1.1446 B(  1-C ,  2-C ) :   1.6436
B(  1-C , 32-H ) :   0.9575 B(  2-C ,  3-C ) :   1.2196 B(  2-C ,  6-C ) :   1.0306
B(  3-C ,  4-C ) :   1.6024 B(  3-C ,  5-H ) :   0.9863 B(  4-C , 20-C ) :   1.0233
B(  6-C ,  7-H ) :   0.9184 B(  6-C ,  8-H ) :   0.9420 B(  6-C ,  9-C ) :   1.0386
B(  9-C , 10-H ) :   0.9597 B(  9-C , 11-H ) :   0.9617 B(  9-C , 12-C ) :   1.0806
B( 12-C , 13-H ) :   0.9734 B( 12-C , 14-H ) :   0.9760 B( 12-C , 15-H ) :   0.9721
B( 16-S , 17-C ) :   1.1554 B( 16-S , 20-C ) :   1.1439 B( 17-C , 18-C ) :   1.6013
B( 17-C , 33-H ) :   0.9602 B( 18-C , 19-C ) :   1.2618 B( 18-C , 21-H ) :   0.9746
B( 19-C , 20-C ) :   1.5832 B( 19-C , 22-C ) :   1.0469 B( 22-C , 23-H ) :   0.9361
B( 22-C , 24-H ) :   0.9251 B( 22-C , 25-C ) :   1.0605 B( 25-C , 26-H ) :   0.9619
B( 25-C , 27-H ) :   0.9568 B( 25-C , 28-C ) :   1.0664 B( 28-C , 29-H ) :   0.9762
B( 28-C , 30-H ) :   0.9766 B( 28-C , 31-H ) :   0.9743

Dispersion correction           -0.015452754
FINAL SINGLE POINT ENERGY     -1339.852673561195

DIPOLE MOMENT
-------------
                                X             Y             Z
Electronic contribution:     11.78831      17.87962     -13.71059
Nuclear contribution   :    -11.83186     -18.38148      14.25826
                        -----------------------------------------
Total Dipole Moment    :     -0.04355      -0.50187       0.54767
                        -----------------------------------------
Magnitude (a.u.)       :      0.74411
Magnitude (Debye)      :      1.89139

Rotational constants in cm-1:     0.018914     0.008547     0.007882
Rotational constants in MHz :   567.041457   256.230601   236.310410

                             ****ORCA TERMINATED NORMALLY****
TOTAL RUN TIME: 0 days 0 hours 0 minutes 35 seconds 712 msec
