                         Program Version 4.2.1 -  RELEASE  -
|  1> ! wB97X-D3 SP def2-SVP
|  2> %pal
|  3> nprocs 16
|  4> end
|  5>
|  6> * xyz 0 1
|  7> S 	 -74.401 	 58.5497 	 125.64
|  8> C 	 -74.6683 	 60.1172 	 124.95
|  9> C 	 -73.574 	 60.9853 	 124.997
| 10> C 	 -72.4979 	 60.3562 	 125.752
| 11> C 	 -72.7426 	 59.0778 	 126.164
| 12> H 	 -71.5079 	 60.7319 	 125.879
| 13> C 	 -73.5537 	 62.4504 	 124.581
| 14> H 	 -73.6201 	 63.0409 	 125.519
| 15> H 	 -74.4481 	 62.6427 	 123.928
| 16> C 	 -72.3816 	 62.9585 	 123.702
| 17> H 	 -71.4868 	 62.3898 	 123.944
| 18> H 	 -72.5718 	 62.7176 	 122.632
| 19> C 	 -72.1185 	 64.4108 	 123.838
| 20> H 	 -73.0744 	 64.914 	 123.502
| 21> H 	 -71.9215 	 64.6225 	 124.951
| 22> H 	 -71.3623 	 64.8101 	 123.123
| 23> S 	 -72.2209 	 57.8252 	 128.498
| 24> C 	 -70.7966 	 56.825 	 128.638
| 25> C 	 -69.9884 	 57.0049 	 127.569
| 26> C 	 -70.5618 	 57.8468 	 126.514
| 27> C 	 -71.8128 	 58.2679 	 126.855
| 28> H 	 -69.0874 	 56.4738 	 127.488
| 29> C 	 -69.89 	 58.0074 	 125.178
| 30> H 	 -69.9189 	 59.0801 	 124.948
| 31> H 	 -70.3982 	 57.5315 	 124.345
| 32> C 	 -68.4432 	 57.5909 	 125.03
| 33> H 	 -68.14 	 56.5592 	 125.143
| 34> H 	 -67.9354 	 58.0616 	 125.821
| 35> C 	 -67.7151 	 58.2185 	 123.822
| 36> H 	 -67.8095 	 57.6537 	 122.908
| 37> H 	 -66.6814 	 58.4875 	 124.014
| 38> H 	 -68.2115 	 59.1027 	 123.396
| 39> H 	 -75.553 	 60.3282 	 124.315
| 40> H 	 -70.3733 	 56.2932 	 129.474
| 41> *
| 42>
| 43>                          ****END OF INPUT****

CARTESIAN COORDINATES (ANGSTROEM)
---------------------------------
  S    -74.401000   58.549700  125.640000
  C    -74.668300   60.117200  124.950000
  C    -73.574000   60.985300  124.997000
  C    -72.497900   60.356200  125.752000
  C    -72.742600   59.077800  126.164000
  H    -71.507900   60.731900  125.879000
  C    -73.553700   62.450400  124.581000
  H    -73.620100   63.040900  125.519000
  H    -74.448100   62.642700  123.928000
  C    -72.381600   62.958500  123.702000
  H    -71.486800   62.389800  123.944000
  H    -72.571800   62.717600  122.632000
  C    -72.118500   64.410800  123.838000
  H    -73.074400   64.914000  123.502000
  H    -71.921500   64.622500  124.951000
  H    -71.362300   64.810100  123.123000
  S    -72.220900   57.825200  128.498000
  C    -70.796600   56.825000  128.638000
  C    -69.988400   57.004900  127.569000
  C    -70.561800   57.846800  126.514000
  C    -71.812800   58.267900  126.855000
  H    -69.087400   56.473800  127.488000
  C    -69.890000   58.007400  125.178000
  H    -69.918900   59.080100  124.948000
  H    -70.398200   57.531500  124.345000
  C    -68.443200   57.590900  125.030000
  H    -68.140000   56.559200  125.143000
  H    -67.935400   58.061600  125.821000
  C    -67.715100   58.218500  123.822000
  H    -67.809500   57.653700  122.908000
  H    -66.681400   58.487500  124.014000
  H    -68.211500   59.102700  123.396000
  H    -75.553000   60.328200  124.315000
  H    -70.373300   56.293200  129.474000

 Total Charge           Charge          ....    0
 Multiplicity           Mult            ....    1
 Number of Electrons    NEL             ....  134
 Basis Dimension        Dim             ....  322

ORBITAL ENERGIES
----------------

  NO   OCC          E(Eh)            E(eV)
   0   2.0000     -88.967687     -2420.9338
   1   2.0000     -88.961898     -2420.7763
   2   2.0000     -10.326996      -281.0119
   3   2.0000     -10.319686      -280.8129
   4   2.0000     -10.318635      -280.7843
   5   2.0000     -10.311330      -280.5856
   6   2.0000     -10.307010      -280.4680
   7   2.0000     -10.303465      -280.3715
   8   2.0000     -10.301832      -280.3271
   9   2.0000     -10.294613      -280.1307
  10   2.0000     -10.291136      -280.0361
  11   2.0000     -10.290446      -280.0173
  12   2.0000     -10.287200      -279.9290
  13   2.0000     -10.287102      -279.9263
  14   2.0000     -10.281681      -279.7788
  15   2.0000     -10.277373      -279.6615
  16   2.0000      -8.081675      -219.9136
  17   2.0000      -8.076943      -219.7848
  18   2.0000      -6.040202      -164.3623
  19   2.0000      -6.036408      -164.2590
  20   2.0000      -6.035609      -164.2373
  21   2.0000      -6.032327      -164.1480
  22   2.0000      -6.031391      -164.1225
  23   2.0000      -6.027513      -164.0170
  24   2.0000      -1.007261       -27.4090
  25   2.0000      -0.980218       -26.6731
  26   2.0000      -0.914088       -24.8736
  27   2.0000      -0.912729       -24.8366
  28   2.0000      -0.879291       -23.9267
  29   2.0000      -0.852053       -23.1855
  30   2.0000      -0.846778       -23.0420
  31   2.0000      -0.818349       -22.2684
  32   2.0000      -0.781765       -21.2729
  33   2.0000      -0.768256       -20.9053
  34   2.0000      -0.713605       -19.4182
  35   2.0000      -0.703928       -19.1548
  36   2.0000      -0.688996       -18.7485
  37   2.0000      -0.656302       -17.8589
  38   2.0000      -0.642883       -17.4937
  39   2.0000      -0.621113       -16.9013
  40   2.0000      -0.601709       -16.3733
  41   2.0000      -0.571889       -15.5619
  42   2.0000      -0.569936       -15.5088
  43   2.0000      -0.563331       -15.3290
  44   2.0000      -0.528411       -14.3788
  45   2.0000      -0.526561       -14.3284
  46   2.0000      -0.519357       -14.1324
  47   2.0000      -0.505250       -13.7485
  48   2.0000      -0.504643       -13.7320
  49   2.0000      -0.500595       -13.6219
  50   2.0000      -0.491511       -13.3747
  51   2.0000      -0.482027       -13.1166
  52   2.0000      -0.471411       -12.8277
  53   2.0000      -0.464053       -12.6275
  54   2.0000      -0.457353       -12.4452
  55   2.0000      -0.451251       -12.2792
  56   2.0000      -0.446054       -12.1377
  57   2.0000      -0.434615       -11.8265
  58   2.0000      -0.431312       -11.7366
  59   2.0000      -0.428821       -11.6688
  60   2.0000      -0.420803       -11.4506
  61   2.0000      -0.414088       -11.2679
  62   2.0000      -0.409451       -11.1417
  63   2.0000      -0.345848        -9.4110
  64   2.0000      -0.328658        -8.9433
  65   2.0000      -0.327423        -8.9096
  66   2.0000      -0.298659        -8.1269
  67   0.0000       0.035101         0.9552
  68   0.0000       0.064079         1.7437
  69   0.0000       0.111786         3.0419
  70   0.0000       0.118749         3.2313
  71   0.0000       0.126345         3.4380

MULLIKEN ATOMIC CHARGES
-----------------------
   0 S :    0.117287
   1 C :   -0.130195
   2 C :   -0.076828
   3 C :    0.045051
   4 C :   -0.173873
   5 H :    0.011862
   6 C :    0.029369
   7 H :    0.053976
   8 H :    0.029471
   9 C :   -0.078425
  10 H :    0.020536
  11 H :    0.032344
  12 C :   -0.082489
  13 H :    0.031927
  14 H :    0.050471
  15 H :    0.048481
  16 S :    0.108273
  17 C :   -0.053103
  18 C :   -0.045881
  19 C :   -0.019385
  20 C :   -0.178524
  21 H :   -0.000405
  22 C :    0.094938
  23 H :    0.014563
  24 H :    0.042497
  25 C :   -0.074995
  26 H :    0.036531
  27 H :    0.009328
  28 C :   -0.051739
  29 H :    0.021929
  30 H :    0.041751
  31 H :    0.013582
  32 H :    0.062605
  33 H :    0.049068
Sum of atomic charges:   -0.0000000

LOEWDIN ATOMIC CHARGES
----------------------
   0 S :    0.384387
   1 C :   -0.201430
   2 C :   -0.067358
   3 C :   -0.046942
   4 C :   -0.182320
   5 H :    0.027047
   6 C :   -0.034565
   7 H :    0.038733
   8 H :    0.036165
   9 C :   -0.053835
  10 H :    0.015964
  11 H :    0.027856
  12 C :   -0.075030
  13 H :    0.029031
  14 H :    0.034618
  15 H :    0.032335
  16 S :    0.404284
  17 C :   -0.186522
  18 C :   -0.066894
  19 C :   -0.050364
  20 C :   -0.200324
  21 H :    0.021345
  22 C :   -0.032315
  23 H :    0.034507
  24 H :    0.035915
  25 C :   -0.045843
  26 H :    0.024432
  27 H :    0.019350
  28 C :   -0.068357
  29 H :    0.022571
  30 H :    0.028208
  31 H :    0.027134
  32 H :    0.034035
  33 H :    0.034182

  Mayer bond orders larger than 0.100000
B(  0-S ,  1-C ) :   1.1438 B(  0-S ,  4-C ) :   1.1076 B(  1-C ,  2-C ) :   1.6350
B(  1-C , 32-H ) :   0.9557 B(  2-C ,  3-C ) :   1.2008 B(  2-C ,  6-C ) :   1.0297
B(  3-C ,  4-C ) :   1.6318 B(  3-C ,  5-H ) :   0.9879 B(  4-C , 20-C ) :   1.0647
B(  6-C ,  7-H ) :   0.9492 B(  6-C ,  8-H ) :   0.9403 B(  6-C ,  9-C ) :   1.0388
B(  9-C , 10-H ) :   0.9624 B(  9-C , 11-H ) :   0.9518 B(  9-C , 12-C ) :   1.0851
B( 12-C , 13-H ) :   0.9711 B( 12-C , 14-H ) :   0.9733 B( 12-C , 15-H ) :   0.9702
B( 16-S , 17-C ) :   1.1294 B( 16-S , 20-C ) :   1.1334 B( 17-C , 18-C ) :   1.6559
B( 17-C , 33-H ) :   0.9581 B( 18-C , 19-C ) :   1.2107 B( 18-C , 21-H ) :   0.9891
B( 19-C , 20-C ) :   1.6330 B( 19-C , 22-C ) :   1.0432 B( 22-C , 23-H ) :   0.9186
B( 22-C , 24-H ) :   0.9274 B( 22-C , 25-C ) :   1.0865 B( 25-C , 26-H ) :   0.9493
B( 25-C , 27-H ) :   0.9513 B( 25-C , 28-C ) :   1.0747 B( 28-C , 29-H ) :   0.9718
B( 28-C , 30-H ) :   0.9799 B( 28-C , 31-H ) :   0.9691

Dispersion correction           -0.013480600
FINAL SINGLE POINT ENERGY     -1339.867472642916

DIPOLE MOMENT
-------------
                                X             Y             Z
Electronic contribution:    -18.37763     -17.05852      18.75241
Nuclear contribution   :     18.92959      17.39981     -19.22701
                        -----------------------------------------
Total Dipole Moment    :      0.55197       0.34129      -0.47460
                        -----------------------------------------
Magnitude (a.u.)       :      0.80398
Magnitude (Debye)      :      2.04356

Rotational constants in cm-1:     0.015568     0.008825     0.006481
Rotational constants in MHz :   466.725053   264.581357   194.307368

                             ****ORCA TERMINATED NORMALLY****
TOTAL RUN TIME: 0 days 0 hours 0 minutes 31 seconds 316 msec
