                         Program Version 4.2.1 -  RELEASE  -
|  1> ! wB97X-D3 SP def2-SVP
|  2> %pal
|  3> nprocs 16
|  4> end
|  5>
|  6> * xyz 0 1
|  7> S 	 -42.2499 	 55.9989 	 108.995
|  8> C 	 -43.5991 	 57.1052 	 108.793
|  9> C 	 -43.2159 	 58.4515 	 108.873
| 10> C 	 -41.8865 	 58.5381 	 109.222
| 11> C 	 -41.1177 	 57.3755 	 109.222
| 12> H 	 -41.5273 	 59.4246 	 109.67
| 13> C 	 -44.2202 	 59.5894 	 109.087
| 14> H 	 -44.3957 	 59.6989 	 110.184
| 15> H 	 -45.1782 	 59.2622 	 108.679
| 16> C 	 -43.887 	 60.9727 	 108.451
| 17> H 	 -42.8016 	 61.2079 	 108.494
| 18> H 	 -44.0709 	 60.8601 	 107.392
| 19> C 	 -44.7481 	 62.1298 	 108.938
| 20> H 	 -44.5836 	 62.2999 	 110.024
| 21> H 	 -44.5816 	 63.0651 	 108.43
| 22> H 	 -45.774 	 61.8788 	 108.913
| 23> S 	 -39.6823 	 56.0629 	 111.166
| 24> C 	 -37.9794 	 56.3441 	 111.173
| 25> C 	 -37.5494 	 57.3797 	 110.41
| 26> C 	 -38.566 	 57.8229 	 109.476
| 27> C 	 -39.8052 	 57.2179 	 109.799
| 28> H 	 -36.5475 	 57.701 	 110.412
| 29> C 	 -38.3722 	 58.8421 	 108.371
| 30> H 	 -38.0139 	 59.785 	 108.784
| 31> H 	 -39.3223 	 59.1339 	 107.933
| 32> C 	 -37.423 	 58.3315 	 107.233
| 33> H 	 -37.8368 	 57.3972 	 106.812
| 34> H 	 -36.5627 	 57.9454 	 107.658
| 35> C 	 -37.014 	 59.3956 	 106.179
| 36> H 	 -36.7223 	 60.3938 	 106.531
| 37> H 	 -37.8563 	 59.4677 	 105.421
| 38> H 	 -36.1207 	 58.9783 	 105.625
| 39> H 	 -44.6454 	 56.8206 	 108.735
| 40> H 	 -37.4328 	 55.9077 	 112.035
| 41> *
| 42>
| 43>                          ****END OF INPUT****

CARTESIAN COORDINATES (ANGSTROEM)
---------------------------------
  S    -42.249900   55.998900  108.995000
  C    -43.599100   57.105200  108.793000
  C    -43.215900   58.451500  108.873000
  C    -41.886500   58.538100  109.222000
  C    -41.117700   57.375500  109.222000
  H    -41.527300   59.424600  109.670000
  C    -44.220200   59.589400  109.087000
  H    -44.395700   59.698900  110.184000
  H    -45.178200   59.262200  108.679000
  C    -43.887000   60.972700  108.451000
  H    -42.801600   61.207900  108.494000
  H    -44.070900   60.860100  107.392000
  C    -44.748100   62.129800  108.938000
  H    -44.583600   62.299900  110.024000
  H    -44.581600   63.065100  108.430000
  H    -45.774000   61.878800  108.913000
  S    -39.682300   56.062900  111.166000
  C    -37.979400   56.344100  111.173000
  C    -37.549400   57.379700  110.410000
  C    -38.566000   57.822900  109.476000
  C    -39.805200   57.217900  109.799000
  H    -36.547500   57.701000  110.412000
  C    -38.372200   58.842100  108.371000
  H    -38.013900   59.785000  108.784000
  H    -39.322300   59.133900  107.933000
  C    -37.423000   58.331500  107.233000
  H    -37.836800   57.397200  106.812000
  H    -36.562700   57.945400  107.658000
  C    -37.014000   59.395600  106.179000
  H    -36.722300   60.393800  106.531000
  H    -37.856300   59.467700  105.421000
  H    -36.120700   58.978300  105.625000
  H    -44.645400   56.820600  108.735000
  H    -37.432800   55.907700  112.035000

 Total Charge           Charge          ....    0
 Multiplicity           Mult            ....    1
 Number of Electrons    NEL             ....  134
 Basis Dimension        Dim             ....  322

ORBITAL ENERGIES
----------------

  NO   OCC          E(Eh)            E(eV)
   0   2.0000     -88.969293     -2420.9776
   1   2.0000     -88.964010     -2420.8338
   2   2.0000     -10.328848      -281.0622
   3   2.0000     -10.328635      -281.0565
   4   2.0000     -10.318063      -280.7688
   5   2.0000     -10.315094      -280.6880
   6   2.0000     -10.309472      -280.5350
   7   2.0000     -10.299989      -280.2770
   8   2.0000     -10.298052      -280.2243
   9   2.0000     -10.292533      -280.0741
  10   2.0000     -10.292019      -280.0601
  11   2.0000     -10.289253      -279.9848
  12   2.0000     -10.288928      -279.9760
  13   2.0000     -10.287523      -279.9377
  14   2.0000     -10.283145      -279.8186
  15   2.0000     -10.277208      -279.6571
  16   2.0000      -8.082857      -219.9457
  17   2.0000      -8.078948      -219.8393
  18   2.0000      -6.041377      -164.3942
  19   2.0000      -6.037506      -164.2889
  20   2.0000      -6.037277      -164.2826
  21   2.0000      -6.033694      -164.1852
  22   2.0000      -6.033674      -164.1846
  23   2.0000      -6.029625      -164.0744
  24   2.0000      -1.002495       -27.2793
  25   2.0000      -0.981323       -26.7032
  26   2.0000      -0.907748       -24.7011
  27   2.0000      -0.902445       -24.5568
  28   2.0000      -0.869588       -23.6627
  29   2.0000      -0.851895       -23.1812
  30   2.0000      -0.845896       -23.0180
  31   2.0000      -0.812459       -22.1081
  32   2.0000      -0.783233       -21.3128
  33   2.0000      -0.767079       -20.8733
  34   2.0000      -0.709945       -19.3186
  35   2.0000      -0.700805       -19.0699
  36   2.0000      -0.692915       -18.8552
  37   2.0000      -0.657504       -17.8916
  38   2.0000      -0.638086       -17.3632
  39   2.0000      -0.625791       -17.0286
  40   2.0000      -0.599702       -16.3187
  41   2.0000      -0.564802       -15.3690
  42   2.0000      -0.558990       -15.2109
  43   2.0000      -0.551897       -15.0179
  44   2.0000      -0.529161       -14.3992
  45   2.0000      -0.516511       -14.0550
  46   2.0000      -0.515496       -14.0274
  47   2.0000      -0.512123       -13.9356
  48   2.0000      -0.497650       -13.5417
  49   2.0000      -0.494606       -13.4589
  50   2.0000      -0.488822       -13.3015
  51   2.0000      -0.484977       -13.1969
  52   2.0000      -0.468943       -12.7606
  53   2.0000      -0.461091       -12.5469
  54   2.0000      -0.458316       -12.4714
  55   2.0000      -0.453057       -12.3283
  56   2.0000      -0.447530       -12.1779
  57   2.0000      -0.440328       -11.9819
  58   2.0000      -0.435706       -11.8562
  59   2.0000      -0.425963       -11.5910
  60   2.0000      -0.422329       -11.4921
  61   2.0000      -0.416562       -11.3352
  62   2.0000      -0.413005       -11.2384
  63   2.0000      -0.345797        -9.4096
  64   2.0000      -0.332844        -9.0572
  65   2.0000      -0.329560        -8.9678
  66   2.0000      -0.286097        -7.7851
  67   0.0000       0.021858         0.5948
  68   0.0000       0.067009         1.8234
  69   0.0000       0.103354         2.8124
  70   0.0000       0.121539         3.3072
  71   0.0000       0.126176         3.4334

MULLIKEN ATOMIC CHARGES
-----------------------
   0 S :    0.105350
   1 C :   -0.126864
   2 C :   -0.057009
   3 C :    0.031823
   4 C :   -0.149547
   5 H :    0.007717
   6 C :    0.025012
   7 H :    0.049256
   8 H :    0.017798
   9 C :   -0.085852
  10 H :    0.033389
  11 H :    0.026759
  12 C :   -0.029494
  13 H :    0.025660
  14 H :    0.039513
  15 H :    0.018029
  16 S :    0.101233
  17 C :   -0.097650
  18 C :   -0.005172
  19 C :   -0.050102
  20 C :   -0.165650
  21 H :    0.007990
  22 C :    0.094462
  23 H :    0.022532
  24 H :    0.018312
  25 C :   -0.066402
  26 H :    0.032559
  27 H :    0.002582
  28 C :   -0.075028
  29 H :    0.040688
  30 H :    0.046746
  31 H :    0.041162
  32 H :    0.050383
  33 H :    0.069811
Sum of atomic charges:   -0.0000000

LOEWDIN ATOMIC CHARGES
----------------------
   0 S :    0.391090
   1 C :   -0.186047
   2 C :   -0.074043
   3 C :   -0.051863
   4 C :   -0.192168
   5 H :    0.025218
   6 C :   -0.029321
   7 H :    0.036287
   8 H :    0.028174
   9 C :   -0.046566
  10 H :    0.024233
  11 H :    0.024477
  12 C :   -0.063407
  13 H :    0.027494
  14 H :    0.027687
  15 H :    0.019529
  16 S :    0.391090
  17 C :   -0.189450
  18 C :   -0.065555
  19 C :   -0.044133
  20 C :   -0.186030
  21 H :    0.025688
  22 C :   -0.030317
  23 H :    0.029865
  24 H :    0.028300
  25 C :   -0.039418
  26 H :    0.032686
  27 H :    0.009065
  28 C :   -0.073674
  29 H :    0.025123
  30 H :    0.032426
  31 H :    0.034111
  32 H :    0.027941
  33 H :    0.031508

  Mayer bond orders larger than 0.100000
B(  0-S ,  1-C ) :   1.1645 B(  0-S ,  4-C ) :   1.1302 B(  1-C ,  2-C ) :   1.5643
B(  1-C ,  4-C ) :   0.1037 B(  1-C , 32-H ) :   0.9643 B(  2-C ,  3-C ) :   1.2947
B(  2-C ,  6-C ) :   1.0311 B(  3-C ,  4-C ) :   1.5427 B(  3-C ,  5-H ) :   0.9852
B(  4-C , 20-C ) :   1.0771 B(  6-C ,  7-H ) :   0.9497 B(  6-C ,  8-H ) :   0.9388
B(  6-C ,  9-C ) :   1.0438 B(  9-C , 10-H ) :   0.9632 B(  9-C , 11-H ) :   0.9535
B(  9-C , 12-C ) :   1.0837 B( 12-C , 13-H ) :   0.9740 B( 12-C , 14-H ) :   0.9741
B( 12-C , 15-H ) :   0.9724 B( 16-S , 17-C ) :   1.1501 B( 16-S , 20-C ) :   1.1338
B( 17-C , 18-C ) :   1.6341 B( 17-C , 33-H ) :   0.9574 B( 18-C , 19-C ) :   1.2125
B( 18-C , 21-H ) :   0.9942 B( 19-C , 20-C ) :   1.5988 B( 19-C , 22-C ) :   1.0544
B( 22-C , 23-H ) :   0.9353 B( 22-C , 24-H ) :   0.9306 B( 22-C , 25-C ) :   1.0462
B( 25-C , 26-H ) :   0.9517 B( 25-C , 27-H ) :   0.9632 B( 25-C , 28-C ) :   1.0729
B( 28-C , 29-H ) :   0.9758 B( 28-C , 30-H ) :   0.9776 B( 28-C , 31-H ) :   0.9754

Dispersion correction           -0.013341878
FINAL SINGLE POINT ENERGY     -1339.873634418926

DIPOLE MOMENT
-------------
                                X             Y             Z
Electronic contribution:      0.36686     -25.62482      13.11714
Nuclear contribution   :     -0.36959      26.24871     -13.03227
                        -----------------------------------------
Total Dipole Moment    :     -0.00273       0.62389       0.08487
                        -----------------------------------------
Magnitude (a.u.)       :      0.62965
Magnitude (Debye)      :      1.60043

Rotational constants in cm-1:     0.015906     0.008300     0.006424
Rotational constants in MHz :   476.861823   248.819709   192.590445

                             ****ORCA TERMINATED NORMALLY****
TOTAL RUN TIME: 0 days 0 hours 0 minutes 29 seconds 143 msec
