                         Program Version 4.2.1 -  RELEASE  -
|  1> ! wB97X-D3 SP def2-SVP
|  2> %pal
|  3> nprocs 16
|  4> end
|  5>
|  6> * xyz 0 1
|  7> S 	 42.1786 	 24.0532 	 92.611
|  8> C 	 43.5528 	 25.1453 	 92.3743
|  9> C 	 44.7983 	 24.5075 	 92.3269
| 10> C 	 44.6336 	 23.0718 	 92.5872
| 11> C 	 43.2883 	 22.732 	 92.5689
| 12> H 	 45.3741 	 22.3295 	 92.7185
| 13> C 	 46.1758 	 25.1047 	 92.198
| 14> H 	 45.9765 	 26.1003 	 91.8214
| 15> H 	 46.771 	 24.6293 	 91.4032
| 16> C 	 47.0275 	 25.3022 	 93.5148
| 17> H 	 47.1601 	 24.3302 	 94.0293
| 18> H 	 48.0252 	 25.5781 	 93.1418
| 19> C 	 46.5332 	 26.4073 	 94.4625
| 20> H 	 47.2753 	 27.1889 	 94.3658
| 21> H 	 45.6083 	 27.0198 	 94.2163
| 22> H 	 46.6098 	 26.1288 	 95.5218
| 23> S 	 43.5771 	 20.326 	 93.7686
| 24> C 	 42.4903 	 18.9931 	 93.3444
| 25> C 	 41.9637 	 19.2297 	 92.1074
| 26> C 	 42.2678 	 20.5578 	 91.5964
| 27> C 	 42.9462 	 21.3426 	 92.4557
| 28> H 	 41.3607 	 18.4533 	 91.6851
| 29> C 	 41.6181 	 21.0149 	 90.2989
| 30> H 	 41.8824 	 20.3947 	 89.5181
| 31> H 	 41.9759 	 22.0353 	 90.1141
| 32> C 	 40.0916 	 21.1229 	 90.2361
| 33> H 	 39.7877 	 21.4872 	 91.2728
| 34> H 	 39.6016 	 20.1971 	 90.0204
| 35> C 	 39.6177 	 22.0684 	 89.0941
| 36> H 	 39.9863 	 23.0886 	 89.2268
| 37> H 	 38.5971 	 22.3256 	 89.0495
| 38> H 	 39.9455 	 21.5732 	 88.2134
| 39> H 	 43.5254 	 26.2123 	 92.1692
| 40> H 	 42.3621 	 18.049 	 93.8914
| 41> *
| 42>
| 43>                          ****END OF INPUT****

CARTESIAN COORDINATES (ANGSTROEM)
---------------------------------
  S     42.178600   24.053200   92.611000
  C     43.552800   25.145300   92.374300
  C     44.798300   24.507500   92.326900
  C     44.633600   23.071800   92.587200
  C     43.288300   22.732000   92.568900
  H     45.374100   22.329500   92.718500
  C     46.175800   25.104700   92.198000
  H     45.976500   26.100300   91.821400
  H     46.771000   24.629300   91.403200
  C     47.027500   25.302200   93.514800
  H     47.160100   24.330200   94.029300
  H     48.025200   25.578100   93.141800
  C     46.533200   26.407300   94.462500
  H     47.275300   27.188900   94.365800
  H     45.608300   27.019800   94.216300
  H     46.609800   26.128800   95.521800
  S     43.577100   20.326000   93.768600
  C     42.490300   18.993100   93.344400
  C     41.963700   19.229700   92.107400
  C     42.267800   20.557800   91.596400
  C     42.946200   21.342600   92.455700
  H     41.360700   18.453300   91.685100
  C     41.618100   21.014900   90.298900
  H     41.882400   20.394700   89.518100
  H     41.975900   22.035300   90.114100
  C     40.091600   21.122900   90.236100
  H     39.787700   21.487200   91.272800
  H     39.601600   20.197100   90.020400
  C     39.617700   22.068400   89.094100
  H     39.986300   23.088600   89.226800
  H     38.597100   22.325600   89.049500
  H     39.945500   21.573200   88.213400
  H     43.525400   26.212300   92.169200
  H     42.362100   18.049000   93.891400

 Total Charge           Charge          ....    0
 Multiplicity           Mult            ....    1
 Number of Electrons    NEL             ....  134
 Basis Dimension        Dim             ....  322

ORBITAL ENERGIES
----------------

  NO   OCC          E(Eh)            E(eV)
   0   2.0000     -88.976376     -2421.1703
   1   2.0000     -88.954634     -2420.5787
   2   2.0000     -10.326564      -281.0001
   3   2.0000     -10.321607      -280.8652
   4   2.0000     -10.318221      -280.7731
   5   2.0000     -10.316440      -280.7246
   6   2.0000     -10.306881      -280.4645
   7   2.0000     -10.300075      -280.2793
   8   2.0000     -10.296612      -280.1850
   9   2.0000     -10.296549      -280.1833
  10   2.0000     -10.292645      -280.0771
  11   2.0000     -10.290610      -280.0217
  12   2.0000     -10.285051      -279.8705
  13   2.0000     -10.281958      -279.7863
  14   2.0000     -10.280302      -279.7412
  15   2.0000     -10.270065      -279.4627
  16   2.0000      -8.090414      -220.1514
  17   2.0000      -8.069388      -219.5792
  18   2.0000      -6.049017      -164.6021
  19   2.0000      -6.045185      -164.4979
  20   2.0000      -6.040963      -164.3830
  21   2.0000      -6.028170      -164.0348
  22   2.0000      -6.024037      -163.9224
  23   2.0000      -6.019701      -163.8044
  24   2.0000      -1.007017       -27.4023
  25   2.0000      -0.980167       -26.6717
  26   2.0000      -0.907169       -24.6853
  27   2.0000      -0.905261       -24.6334
  28   2.0000      -0.871453       -23.7135
  29   2.0000      -0.851465       -23.1695
  30   2.0000      -0.842755       -22.9325
  31   2.0000      -0.810748       -22.0616
  32   2.0000      -0.783791       -21.3280
  33   2.0000      -0.773326       -21.0433
  34   2.0000      -0.707995       -19.2655
  35   2.0000      -0.698184       -18.9985
  36   2.0000      -0.691393       -18.8138
  37   2.0000      -0.662780       -18.0352
  38   2.0000      -0.638506       -17.3746
  39   2.0000      -0.613099       -16.6833
  40   2.0000      -0.592882       -16.1331
  41   2.0000      -0.573762       -15.6129
  42   2.0000      -0.567522       -15.4430
  43   2.0000      -0.547551       -14.8996
  44   2.0000      -0.537846       -14.6355
  45   2.0000      -0.527986       -14.3672
  46   2.0000      -0.518218       -14.1014
  47   2.0000      -0.514181       -13.9916
  48   2.0000      -0.500085       -13.6080
  49   2.0000      -0.496775       -13.5179
  50   2.0000      -0.488185       -13.2842
  51   2.0000      -0.482362       -13.1257
  52   2.0000      -0.467101       -12.7105
  53   2.0000      -0.460812       -12.5393
  54   2.0000      -0.455636       -12.3985
  55   2.0000      -0.452512       -12.3135
  56   2.0000      -0.439645       -11.9633
  57   2.0000      -0.437411       -11.9025
  58   2.0000      -0.428705       -11.6656
  59   2.0000      -0.423628       -11.5275
  60   2.0000      -0.419829       -11.4241
  61   2.0000      -0.410880       -11.1806
  62   2.0000      -0.405928       -11.0459
  63   2.0000      -0.345185        -9.3930
  64   2.0000      -0.330903        -9.0043
  65   2.0000      -0.322564        -8.7774
  66   2.0000      -0.292540        -7.9604
  67   0.0000       0.034582         0.9410
  68   0.0000       0.064281         1.7492
  69   0.0000       0.100385         2.7316
  70   0.0000       0.107723         2.9313
  71   0.0000       0.128725         3.5028

MULLIKEN ATOMIC CHARGES
-----------------------
   0 S :    0.142168
   1 C :   -0.115124
   2 C :   -0.081089
   3 C :    0.024690
   4 C :   -0.128727
   5 H :    0.009849
   6 C :    0.051062
   7 H :    0.004346
   8 H :    0.040322
   9 C :   -0.066943
  10 H :    0.039021
  11 H :    0.033810
  12 C :   -0.064549
  13 H :    0.016848
  14 H :    0.046672
  15 H :    0.044620
  16 S :    0.067337
  17 C :   -0.094314
  18 C :   -0.026441
  19 C :   -0.028774
  20 C :   -0.171204
  21 H :    0.014610
  22 C :    0.100045
  23 H :    0.005316
  24 H :    0.019221
  25 C :   -0.090811
  26 H :    0.032477
  27 H :    0.024443
  28 C :   -0.033966
  29 H :    0.026153
  30 H :    0.021895
  31 H :    0.028553
  32 H :    0.043269
  33 H :    0.065218
Sum of atomic charges:    0.0000000

LOEWDIN ATOMIC CHARGES
----------------------
   0 S :    0.416545
   1 C :   -0.200458
   2 C :   -0.052463
   3 C :   -0.048410
   4 C :   -0.203674
   5 H :    0.021553
   6 C :   -0.035617
   7 H :    0.025200
   8 H :    0.035467
   9 C :   -0.036112
  10 H :    0.025915
  11 H :    0.027046
  12 C :   -0.082630
  13 H :    0.026151
  14 H :    0.035709
  15 H :    0.032722
  16 S :    0.366991
  17 C :   -0.174106
  18 C :   -0.069276
  19 C :   -0.059613
  20 C :   -0.176410
  21 H :    0.029078
  22 C :   -0.027812
  23 H :    0.019722
  24 H :    0.029616
  25 C :   -0.038026
  26 H :    0.025312
  27 H :    0.016271
  28 C :   -0.062349
  29 H :    0.026952
  30 H :    0.021494
  31 H :    0.022308
  32 H :    0.026998
  33 H :    0.035905

  Mayer bond orders larger than 0.100000
B(  0-S ,  1-C ) :   1.1115 B(  0-S ,  4-C ) :   1.1409 B(  1-C ,  2-C ) :   1.6495
B(  1-C , 32-H ) :   0.9572 B(  2-C ,  3-C ) :   1.2046 B(  2-C ,  6-C ) :   1.0392
B(  3-C ,  4-C ) :   1.5745 B(  3-C ,  5-H ) :   0.9953 B(  4-C , 20-C ) :   1.0329
B(  6-C ,  7-H ) :   0.9343 B(  6-C ,  8-H ) :   0.9408 B(  6-C ,  9-C ) :   1.0626
B(  9-C , 10-H ) :   0.9641 B(  9-C , 11-H ) :   0.9639 B(  9-C , 12-C ) :   1.0488
B( 12-C , 13-H ) :   0.9762 B( 12-C , 14-H ) :   0.9787 B( 12-C , 15-H ) :   0.9768
B( 16-S , 17-C ) :   1.1243 B( 16-S , 20-C ) :   1.0986 B( 17-C , 18-C ) :   1.6668
B( 17-C , 33-H ) :   0.9651 B( 18-C , 19-C ) :   1.1553 B( 18-C , 21-H ) :   0.9980
B( 19-C , 20-C ) :   1.6657 B( 19-C , 22-C ) :   1.0673 B( 22-C , 23-H ) :   0.9211
B( 22-C , 24-H ) :   0.9391 B( 22-C , 25-C ) :   1.0560 B( 25-C , 26-H ) :   0.9592
B( 25-C , 27-H ) :   0.9551 B( 25-C , 28-C ) :   1.0787 B( 28-C , 29-H ) :   0.9730
B( 28-C , 30-H ) :   0.9738 B( 28-C , 31-H ) :   0.9771

Dispersion correction           -0.014252831
FINAL SINGLE POINT ENERGY     -1339.849362135579

DIPOLE MOMENT
-------------
                                X             Y             Z
Electronic contribution:     -3.10357     -10.47127       8.94229
Nuclear contribution   :      3.30465      10.61457      -9.28873
                        -----------------------------------------
Total Dipole Moment    :      0.20108       0.14330      -0.34644
                        -----------------------------------------
Magnitude (a.u.)       :      0.42542
Magnitude (Debye)      :      1.08134

Rotational constants in cm-1:     0.021284     0.008060     0.006417
Rotational constants in MHz :   638.091647   241.625497   192.388781

                             ****ORCA TERMINATED NORMALLY****
TOTAL RUN TIME: 0 days 0 hours 0 minutes 32 seconds 21 msec
