                         Program Version 4.2.1 -  RELEASE  -
|  1> ! wB97X-D3 SP def2-SVP
|  2> %pal
|  3> nprocs 16
|  4> end
|  5>
|  6> * xyz 0 1
|  7> S 	 -35.2993 	 47.7616 	 94.6345
|  8> C 	 -33.6912 	 47.3595 	 94.6959
|  9> C 	 -32.8774 	 48.4109 	 95.1773
| 10> C 	 -33.6266 	 49.5945 	 95.4751
| 11> C 	 -34.9949 	 49.3995 	 95.216
| 12> H 	 -33.197 	 50.4531 	 95.9482
| 13> C 	 -31.3534 	 48.4583 	 94.988
| 14> H 	 -31.0609 	 49.4503 	 95.3231
| 15> H 	 -30.936 	 48.5477 	 94.0048
| 16> C 	 -30.5215 	 47.4959 	 95.8581
| 17> H 	 -30.5583 	 46.4539 	 95.5241
| 18> H 	 -29.449 	 47.7649 	 95.8926
| 19> C 	 -30.9985 	 47.395 	 97.3794
| 20> H 	 -30.5221 	 46.6308 	 97.9499
| 21> H 	 -30.7175 	 48.3466 	 97.8452
| 22> H 	 -32.0246 	 47.2279 	 97.5222
| 23> S 	 -37.143 	 50.2804 	 93.905
| 24> C 	 -38.0457 	 51.7031 	 94.4027
| 25> C 	 -37.5441 	 52.2165 	 95.6035
| 26> C 	 -36.41 	 51.4799 	 96.0753
| 27> C 	 -36.0802 	 50.4021 	 95.2721
| 28> H 	 -38.0275 	 53.1465 	 95.9905
| 29> C 	 -35.8308 	 51.8736 	 97.4416
| 30> H 	 -36.1929 	 52.8275 	 97.6979
| 31> H 	 -34.7161 	 52.0117 	 97.2763
| 32> C 	 -36.1439 	 50.9873 	 98.5807
| 33> H 	 -35.9055 	 49.9195 	 98.3769
| 34> H 	 -37.2617 	 50.9733 	 98.575
| 35> C 	 -35.6569 	 51.4742 	 99.9682
| 36> H 	 -35.7078 	 50.6196 	 100.642
| 37> H 	 -36.1975 	 52.3072 	 100.519
| 38> H 	 -34.598 	 51.7985 	 99.9341
| 39> H 	 -33.2115 	 46.3746 	 94.3594
| 40> H 	 -38.9682 	 52.0169 	 94.0019
| 41> *
| 42>
| 43>                          ****END OF INPUT****

CARTESIAN COORDINATES (ANGSTROEM)
---------------------------------
  S    -35.299300   47.761600   94.634500
  C    -33.691200   47.359500   94.695900
  C    -32.877400   48.410900   95.177300
  C    -33.626600   49.594500   95.475100
  C    -34.994900   49.399500   95.216000
  H    -33.197000   50.453100   95.948200
  C    -31.353400   48.458300   94.988000
  H    -31.060900   49.450300   95.323100
  H    -30.936000   48.547700   94.004800
  C    -30.521500   47.495900   95.858100
  H    -30.558300   46.453900   95.524100
  H    -29.449000   47.764900   95.892600
  C    -30.998500   47.395000   97.379400
  H    -30.522100   46.630800   97.949900
  H    -30.717500   48.346600   97.845200
  H    -32.024600   47.227900   97.522200
  S    -37.143000   50.280400   93.905000
  C    -38.045700   51.703100   94.402700
  C    -37.544100   52.216500   95.603500
  C    -36.410000   51.479900   96.075300
  C    -36.080200   50.402100   95.272100
  H    -38.027500   53.146500   95.990500
  C    -35.830800   51.873600   97.441600
  H    -36.192900   52.827500   97.697900
  H    -34.716100   52.011700   97.276300
  C    -36.143900   50.987300   98.580700
  H    -35.905500   49.919500   98.376900
  H    -37.261700   50.973300   98.575000
  C    -35.656900   51.474200   99.968200
  H    -35.707800   50.619600  100.642000
  H    -36.197500   52.307200  100.519000
  H    -34.598000   51.798500   99.934100
  H    -33.211500   46.374600   94.359400
  H    -38.968200   52.016900   94.001900

 Total Charge           Charge          ....    0
 Multiplicity           Mult            ....    1
 Number of Electrons    NEL             ....  134
 Basis Dimension        Dim             ....  322

ORBITAL ENERGIES
----------------

  NO   OCC          E(Eh)            E(eV)
   0   2.0000     -88.974685     -2421.1243
   1   2.0000     -88.965534     -2420.8752
   2   2.0000     -10.335856      -281.2529
   3   2.0000     -10.329862      -281.0898
   4   2.0000     -10.317500      -280.7535
   5   2.0000     -10.314382      -280.6686
   6   2.0000     -10.305649      -280.4310
   7   2.0000     -10.303971      -280.3853
   8   2.0000     -10.299474      -280.2629
   9   2.0000     -10.299079      -280.2522
  10   2.0000     -10.291849      -280.0555
  11   2.0000     -10.290931      -280.0305
  12   2.0000     -10.288758      -279.9713
  13   2.0000     -10.287333      -279.9326
  14   2.0000     -10.285352      -279.8787
  15   2.0000     -10.268696      -279.4254
  16   2.0000      -8.090315      -220.1487
  17   2.0000      -8.080476      -219.8809
  18   2.0000      -6.048674      -164.5928
  19   2.0000      -6.044489      -164.4789
  20   2.0000      -6.041383      -164.3944
  21   2.0000      -6.038951      -164.3282
  22   2.0000      -6.034848      -164.2166
  23   2.0000      -6.031355      -164.1215
  24   2.0000      -1.010722       -27.5032
  25   2.0000      -0.987163       -26.8621
  26   2.0000      -0.911959       -24.8157
  27   2.0000      -0.903317       -24.5805
  28   2.0000      -0.867797       -23.6140
  29   2.0000      -0.852602       -23.2005
  30   2.0000      -0.843230       -22.9454
  31   2.0000      -0.809947       -22.0398
  32   2.0000      -0.782256       -21.2863
  33   2.0000      -0.773743       -21.0546
  34   2.0000      -0.703217       -19.1355
  35   2.0000      -0.700833       -19.0706
  36   2.0000      -0.688137       -18.7252
  37   2.0000      -0.668436       -18.1891
  38   2.0000      -0.638279       -17.3684
  39   2.0000      -0.617384       -16.7999
  40   2.0000      -0.593544       -16.1511
  41   2.0000      -0.570665       -15.5286
  42   2.0000      -0.561242       -15.2722
  43   2.0000      -0.545510       -14.8441
  44   2.0000      -0.537543       -14.6273
  45   2.0000      -0.521861       -14.2006
  46   2.0000      -0.512014       -13.9326
  47   2.0000      -0.508036       -13.8244
  48   2.0000      -0.503432       -13.6991
  49   2.0000      -0.499262       -13.5856
  50   2.0000      -0.495611       -13.4863
  51   2.0000      -0.477805       -13.0017
  52   2.0000      -0.467684       -12.7263
  53   2.0000      -0.463207       -12.6045
  54   2.0000      -0.458373       -12.4730
  55   2.0000      -0.451756       -12.2929
  56   2.0000      -0.442986       -12.0543
  57   2.0000      -0.441534       -12.0148
  58   2.0000      -0.437476       -11.9043
  59   2.0000      -0.424167       -11.5422
  60   2.0000      -0.421477       -11.4690
  61   2.0000      -0.404075       -10.9954
  62   2.0000      -0.402197       -10.9443
  63   2.0000      -0.355134        -9.6637
  64   2.0000      -0.335690        -9.1346
  65   2.0000      -0.330445        -8.9919
  66   2.0000      -0.286033        -7.7834
  67   0.0000       0.025216         0.6862
  68   0.0000       0.070642         1.9223
  69   0.0000       0.109477         2.9790
  70   0.0000       0.114357         3.1118
  71   0.0000       0.131450         3.5769

MULLIKEN ATOMIC CHARGES
-----------------------
   0 S :    0.143236
   1 C :   -0.129226
   2 C :   -0.109745
   3 C :    0.041028
   4 C :   -0.150258
   5 H :    0.015260
   6 C :    0.089565
   7 H :   -0.004838
   8 H :    0.037553
   9 C :   -0.104116
  10 H :    0.027894
  11 H :    0.035941
  12 C :   -0.052675
  13 H :    0.023796
  14 H :    0.021117
  15 H :    0.034905
  16 S :    0.094485
  17 C :   -0.076570
  18 C :   -0.067796
  19 C :   -0.059008
  20 C :   -0.134445
  21 H :    0.041193
  22 C :    0.097040
  23 H :   -0.005169
  24 H :    0.026116
  25 C :   -0.071195
  26 H :    0.041304
  27 H :    0.024925
  28 C :   -0.066777
  29 H :    0.035731
  30 H :    0.045742
  31 H :    0.032178
  32 H :    0.080816
  33 H :    0.041993
Sum of atomic charges:   -0.0000000

LOEWDIN ATOMIC CHARGES
----------------------
   0 S :    0.452762
   1 C :   -0.238459
   2 C :   -0.068616
   3 C :   -0.053129
   4 C :   -0.198401
   5 H :    0.030730
   6 C :   -0.035675
   7 H :    0.028044
   8 H :    0.033083
   9 C :   -0.041146
  10 H :    0.017022
  11 H :    0.027479
  12 C :   -0.063883
  13 H :    0.021467
  14 H :    0.022448
  15 H :    0.017427
  16 S :    0.410843
  17 C :   -0.183048
  18 C :   -0.072345
  19 C :   -0.062615
  20 C :   -0.197513
  21 H :    0.041955
  22 C :   -0.032369
  23 H :    0.021525
  24 H :    0.029602
  25 C :   -0.049067
  26 H :    0.030644
  27 H :    0.030431
  28 C :   -0.075835
  29 H :    0.029196
  30 H :    0.033095
  31 H :    0.025959
  32 H :    0.048648
  33 H :    0.019742

  Mayer bond orders larger than 0.100000
B(  0-S ,  1-C ) :   1.1819 B(  0-S ,  4-C ) :   1.1715 B(  1-C ,  2-C ) :   1.5518
B(  1-C , 32-H ) :   0.9567 B(  2-C ,  3-C ) :   1.3010 B(  2-C ,  6-C ) :   1.0137
B(  3-C ,  4-C ) :   1.5285 B(  3-C ,  5-H ) :   0.9909 B(  4-C , 20-C ) :   1.0317
B(  6-C ,  7-H ) :   0.9360 B(  6-C ,  8-H ) :   0.9485 B(  6-C ,  9-C ) :   1.0596
B(  9-C , 10-H ) :   0.9633 B(  9-C , 11-H ) :   0.9609 B(  9-C , 12-C ) :   1.0695
B( 12-C , 13-H ) :   0.9772 B( 12-C , 14-H ) :   0.9801 B( 12-C , 15-H ) :   0.9732
B( 16-S , 17-C ) :   1.1559 B( 16-S , 20-C ) :   1.1497 B( 17-C , 18-C ) :   1.6120
B( 17-C , 20-C ) :   0.1017 B( 17-C , 33-H ) :   0.9699 B( 18-C , 19-C ) :   1.2455
B( 18-C , 21-H ) :   0.9824 B( 19-C , 20-C ) :   1.5936 B( 19-C , 22-C ) :   1.0422
B( 22-C , 23-H ) :   0.9272 B( 22-C , 24-H ) :   0.9238 B( 22-C , 25-C ) :   1.0760
B( 25-C , 26-H ) :   0.9566 B( 25-C , 27-H ) :   0.9460 B( 25-C , 28-C ) :   1.0710
B( 28-C , 29-H ) :   0.9742 B( 28-C , 30-H ) :   0.9750 B( 28-C , 31-H ) :   0.9755

Dispersion correction           -0.014101778
FINAL SINGLE POINT ENERGY     -1339.867161116052

DIPOLE MOMENT
-------------
                                X             Y             Z
Electronic contribution:    -18.11735      -2.73862     -22.40163
Nuclear contribution   :     18.36781       2.96369      22.70535
                        -----------------------------------------
Total Dipole Moment    :      0.25045       0.22506       0.30372
                        -----------------------------------------
Magnitude (a.u.)       :      0.45346
Magnitude (Debye)      :      1.15260

Rotational constants in cm-1:     0.018177     0.008902     0.006604
Rotational constants in MHz :   544.920983   266.863965   197.997328

                             ****ORCA TERMINATED NORMALLY****
TOTAL RUN TIME: 0 days 0 hours 0 minutes 29 seconds 867 msec
