                         Program Version 4.2.1 -  RELEASE  -
|  1> ! wB97X-D3 SP def2-SVP
|  2> %pal
|  3> nprocs 16
|  4> end
|  5>
|  6> * xyz 0 1
|  7> S 	 -3.98473 	 -18.8177 	 85.1605
|  8> C 	 -3.96158 	 -17.4899 	 84.0656
|  9> C 	 -2.74622 	 -17.2358 	 83.6069
| 10> C 	 -1.69201 	 -18.0399 	 84.2403
| 11> C 	 -2.23621 	 -18.9581 	 85.1089
| 12> H 	 -0.588088 	 -18.0331 	 84.1347
| 13> C 	 -2.54795 	 -16.225 	 82.4863
| 14> H 	 -1.48046 	 -16.0105 	 82.394
| 15> H 	 -2.94492 	 -15.2866 	 82.8337
| 16> C 	 -3.19143 	 -16.5343 	 81.1042
| 17> H 	 -3.11773 	 -17.6275 	 80.9559
| 18> H 	 -4.24925 	 -16.3898 	 81.1322
| 19> C 	 -2.68267 	 -15.6753 	 79.9764
| 20> H 	 -1.59221 	 -15.9846 	 79.6351
| 21> H 	 -3.2378 	 -15.665 	 78.9921
| 22> H 	 -2.58422 	 -14.6525 	 80.3301
| 23> S 	 -1.92455 	 -19.7996 	 87.7342
| 24> C 	 -0.959465 	 -21.2861 	 88.0041
| 25> C 	 -0.307532 	 -21.7034 	 86.9202
| 26> C 	 -0.67161 	 -20.976 	 85.7176
| 27> C 	 -1.62711 	 -19.9915 	 85.9566
| 28> H 	 0.40702 	 -22.5328 	 87.0182
| 29> C 	 -0.0150496 	 -21.3418 	 84.3906
| 30> H 	 1.00205 	 -21.131 	 84.6144
| 31> H 	 -0.386491 	 -20.6775 	 83.6128
| 32> C 	 -0.10442 	 -22.794 	 83.9148
| 33> H 	 -1.11319 	 -23.1897 	 83.8401
| 34> H 	 0.473643 	 -23.3619 	 84.6418
| 35> C 	 0.491879 	 -23.0185 	 82.5647
| 36> H 	 -0.174037 	 -22.86 	 81.7983
| 37> H 	 0.817642 	 -24.1347 	 82.4348
| 38> H 	 1.36315 	 -22.48 	 82.2518
| 39> H 	 -4.74993 	 -17.0071 	 83.6597
| 40> H 	 -0.833833 	 -21.802 	 88.9641
| 41> *
| 42>
| 43>                          ****END OF INPUT****

CARTESIAN COORDINATES (ANGSTROEM)
---------------------------------
  S     -3.984730  -18.817700   85.160500
  C     -3.961580  -17.489900   84.065600
  C     -2.746220  -17.235800   83.606900
  C     -1.692010  -18.039900   84.240300
  C     -2.236210  -18.958100   85.108900
  H     -0.588088  -18.033100   84.134700
  C     -2.547950  -16.225000   82.486300
  H     -1.480460  -16.010500   82.394000
  H     -2.944920  -15.286600   82.833700
  C     -3.191430  -16.534300   81.104200
  H     -3.117730  -17.627500   80.955900
  H     -4.249250  -16.389800   81.132200
  C     -2.682670  -15.675300   79.976400
  H     -1.592210  -15.984600   79.635100
  H     -3.237800  -15.665000   78.992100
  H     -2.584220  -14.652500   80.330100
  S     -1.924550  -19.799600   87.734200
  C     -0.959465  -21.286100   88.004100
  C     -0.307532  -21.703400   86.920200
  C     -0.671610  -20.976000   85.717600
  C     -1.627110  -19.991500   85.956600
  H      0.407020  -22.532800   87.018200
  C     -0.015050  -21.341800   84.390600
  H      1.002050  -21.131000   84.614400
  H     -0.386491  -20.677500   83.612800
  C     -0.104420  -22.794000   83.914800
  H     -1.113190  -23.189700   83.840100
  H      0.473643  -23.361900   84.641800
  C      0.491879  -23.018500   82.564700
  H     -0.174037  -22.860000   81.798300
  H      0.817642  -24.134700   82.434800
  H      1.363150  -22.480000   82.251800
  H     -4.749930  -17.007100   83.659700
  H     -0.833833  -21.802000   88.964100

 Total Charge           Charge          ....    0
 Multiplicity           Mult            ....    1
 Number of Electrons    NEL             ....  134
 Basis Dimension        Dim             ....  322

ORBITAL ENERGIES
----------------

  NO   OCC          E(Eh)            E(eV)
   0   2.0000     -88.962111     -2420.7821
   1   2.0000     -88.960789     -2420.7461
   2   2.0000     -10.331281      -281.1284
   3   2.0000     -10.329490      -281.0797
   4   2.0000     -10.316967      -280.7389
   5   2.0000     -10.309584      -280.5381
   6   2.0000     -10.301772      -280.3255
   7   2.0000     -10.297839      -280.2185
   8   2.0000     -10.296725      -280.1881
   9   2.0000     -10.292924      -280.0847
  10   2.0000     -10.291652      -280.0501
  11   2.0000     -10.291087      -280.0347
  12   2.0000     -10.290248      -280.0119
  13   2.0000     -10.288135      -279.9544
  14   2.0000     -10.285401      -279.8800
  15   2.0000     -10.274347      -279.5792
  16   2.0000      -8.076311      -219.7676
  17   2.0000      -8.075606      -219.7484
  18   2.0000      -6.034825      -164.2159
  19   2.0000      -6.034384      -164.2039
  20   2.0000      -6.030713      -164.1040
  21   2.0000      -6.030564      -164.1000
  22   2.0000      -6.027001      -164.0030
  23   2.0000      -6.025857      -163.9719
  24   2.0000      -1.005574       -27.3631
  25   2.0000      -0.981587       -26.7104
  26   2.0000      -0.913430       -24.8557
  27   2.0000      -0.910631       -24.7795
  28   2.0000      -0.873364       -23.7654
  29   2.0000      -0.851405       -23.1679
  30   2.0000      -0.843771       -22.9602
  31   2.0000      -0.822165       -22.3722
  32   2.0000      -0.781757       -21.2727
  33   2.0000      -0.770757       -20.9734
  34   2.0000      -0.709097       -19.2955
  35   2.0000      -0.704599       -19.1731
  36   2.0000      -0.697041       -18.9675
  37   2.0000      -0.656747       -17.8710
  38   2.0000      -0.647142       -17.6096
  39   2.0000      -0.610187       -16.6040
  40   2.0000      -0.592132       -16.1127
  41   2.0000      -0.576110       -15.6767
  42   2.0000      -0.571185       -15.5427
  43   2.0000      -0.557273       -15.1642
  44   2.0000      -0.527606       -14.3569
  45   2.0000      -0.524727       -14.2786
  46   2.0000      -0.521017       -14.1776
  47   2.0000      -0.510994       -13.9049
  48   2.0000      -0.505241       -13.7483
  49   2.0000      -0.498738       -13.5714
  50   2.0000      -0.494899       -13.4669
  51   2.0000      -0.479821       -13.0566
  52   2.0000      -0.475111       -12.9284
  53   2.0000      -0.459856       -12.5133
  54   2.0000      -0.455240       -12.3877
  55   2.0000      -0.452383       -12.3100
  56   2.0000      -0.450054       -12.2466
  57   2.0000      -0.433951       -11.8084
  58   2.0000      -0.432867       -11.7789
  59   2.0000      -0.422090       -11.4856
  60   2.0000      -0.421636       -11.4733
  61   2.0000      -0.414944       -11.2912
  62   2.0000      -0.410719       -11.1762
  63   2.0000      -0.347003        -9.4424
  64   2.0000      -0.330279        -8.9873
  65   2.0000      -0.325619        -8.8605
  66   2.0000      -0.301007        -8.1908
  67   0.0000       0.034924         0.9503
  68   0.0000       0.072726         1.9790
  69   0.0000       0.103045         2.8040
  70   0.0000       0.123627         3.3641
  71   0.0000       0.133119         3.6224

MULLIKEN ATOMIC CHARGES
-----------------------
   0 S :    0.108259
   1 C :   -0.047445
   2 C :   -0.116155
   3 C :    0.045130
   4 C :   -0.185858
   5 H :    0.028340
   6 C :    0.070039
   7 H :    0.014241
   8 H :    0.024115
   9 C :   -0.044368
  10 H :    0.036472
  11 H :    0.018890
  12 C :   -0.099885
  13 H :    0.039024
  14 H :    0.051477
  15 H :    0.033177
  16 S :    0.085231
  17 C :   -0.083553
  18 C :   -0.044993
  19 C :   -0.023662
  20 C :   -0.155413
  21 H :    0.029645
  22 C :    0.084343
  23 H :    0.025491
  24 H :    0.021429
  25 C :   -0.047746
  26 H :    0.039376
  27 H :    0.021944
  28 C :   -0.049923
  29 H :    0.015676
  30 H :    0.035171
  31 H :    0.018449
  32 H :   -0.005157
  33 H :    0.058239
Sum of atomic charges:    0.0000000

LOEWDIN ATOMIC CHARGES
----------------------
   0 S :    0.409889
   1 C :   -0.182606
   2 C :   -0.064091
   3 C :   -0.065036
   4 C :   -0.191565
   5 H :    0.040314
   6 C :   -0.031346
   7 H :    0.028174
   8 H :    0.029267
   9 C :   -0.046504
  10 H :    0.027783
  11 H :    0.019681
  12 C :   -0.078558
  13 H :    0.033199
  14 H :    0.033832
  15 H :    0.023960
  16 S :    0.352359
  17 C :   -0.163296
  18 C :   -0.078220
  19 C :   -0.044277
  20 C :   -0.186700
  21 H :    0.037285
  22 C :   -0.027822
  23 H :    0.032495
  24 H :    0.027664
  25 C :   -0.038489
  26 H :    0.031218
  27 H :    0.021603
  28 C :   -0.066787
  29 H :    0.013512
  30 H :    0.039211
  31 H :    0.020166
  32 H :    0.009239
  33 H :    0.034445

  Mayer bond orders larger than 0.100000
B(  0-S ,  1-C ) :   1.1173 B(  0-S ,  4-C ) :   1.1549 B(  1-C ,  2-C ) :   1.6695
B(  1-C , 32-H ) :   0.9811 B(  2-C ,  3-C ) :   1.1835 B(  2-C ,  6-C ) :   1.0248
B(  3-C ,  4-C ) :   1.6160 B(  3-C ,  5-H ) :   0.9921 B(  4-C , 20-C ) :   1.0088
B(  6-C ,  7-H ) :   0.9465 B(  6-C ,  8-H ) :   0.9315 B(  6-C ,  9-C ) :   1.0511
B(  9-C , 10-H ) :   0.9617 B(  9-C , 11-H ) :   0.9484 B(  9-C , 12-C ) :   1.0775
B( 12-C , 13-H ) :   0.9741 B( 12-C , 14-H ) :   0.9749 B( 12-C , 15-H ) :   0.9717
B( 16-S , 17-C ) :   1.1156 B( 16-S , 20-C ) :   1.1093 B( 17-C , 18-C ) :   1.6966
B( 17-C , 33-H ) :   0.9594 B( 18-C , 19-C ) :   1.1711 B( 18-C , 21-H ) :   0.9833
B( 19-C , 20-C ) :   1.6567 B( 19-C , 22-C ) :   1.0405 B( 22-C , 23-H ) :   0.9238
B( 22-C , 24-H ) :   0.9378 B( 22-C , 25-C ) :   1.0749 B( 25-C , 26-H ) :   0.9560
B( 25-C , 27-H ) :   0.9507 B( 25-C , 28-C ) :   1.0894 B( 28-C , 29-H ) :   0.9752
B( 28-C , 30-H ) :   0.9725 B( 28-C , 31-H ) :   0.9724

Dispersion correction           -0.013254268
FINAL SINGLE POINT ENERGY     -1339.865066188412

DIPOLE MOMENT
-------------
                                X             Y             Z
Electronic contribution:    -10.39707       0.24091      28.11974
Nuclear contribution   :     10.85423      -0.34035     -28.67434
                        -----------------------------------------
Total Dipole Moment    :      0.45715      -0.09944      -0.55460
                        -----------------------------------------
Magnitude (a.u.)       :      0.72557
Magnitude (Debye)      :      1.84426

Rotational constants in cm-1:     0.017965     0.007875     0.005926
Rotational constants in MHz :   538.587204   236.085456   177.671110

                             ****ORCA TERMINATED NORMALLY****
TOTAL RUN TIME: 0 days 0 hours 0 minutes 34 seconds 24 msec
