                         Program Version 4.2.1 -  RELEASE  -
|  1> ! wB97X-D3 SP def2-SVP
|  2> %pal
|  3> nprocs 16
|  4> end
|  5>
|  6> * xyz 0 1
|  7> S 	 -29.2892 	 57.2713 	 111.505
|  8> C 	 -28.0769 	 57.8746 	 110.394
|  9> C 	 -28.4007 	 57.7278 	 109.063
| 10> C 	 -29.7815 	 57.3718 	 108.92
| 11> C 	 -30.4687 	 57.0825 	 110.124
| 12> H 	 -30.2922 	 57.2252 	 107.967
| 13> C 	 -27.4578 	 58.0848 	 107.934
| 14> H 	 -26.5437 	 57.429 	 107.957
| 15> H 	 -26.9772 	 59.0679 	 108.118
| 16> C 	 -28.1639 	 58.1186 	 106.579
| 17> H 	 -28.4501 	 57.0911 	 106.31
| 18> H 	 -29.0404 	 58.8049 	 106.663
| 19> C 	 -27.4284 	 58.8135 	 105.296
| 20> H 	 -27.236 	 59.8633 	 105.535
| 21> H 	 -26.6092 	 58.1548 	 105.037
| 22> H 	 -27.9918 	 58.8365 	 104.382
| 23> S 	 -32.75 	 57.9055 	 111.358
| 24> C 	 -34.3287 	 57.11 	 111.057
| 25> C 	 -34.1258 	 55.9313 	 110.408
| 26> C 	 -32.7538 	 55.7055 	 110.019
| 27> C 	 -31.8627 	 56.7356 	 110.38
| 28> H 	 -35.0202 	 55.4069 	 110.212
| 29> C 	 -32.3581 	 54.4985 	 109.299
| 30> H 	 -33.1309 	 53.7082 	 109.496
| 31> H 	 -31.4607 	 54.1373 	 109.751
| 32> C 	 -32.2096 	 54.6284 	 107.769
| 33> H 	 -32.0725 	 53.6235 	 107.313
| 34> H 	 -31.3687 	 55.2133 	 107.626
| 35> C 	 -33.4648 	 55.2665 	 107.167
| 36> H 	 -33.4043 	 56.382 	 107.406
| 37> H 	 -34.3685 	 54.9759 	 107.637
| 38> H 	 -33.5167 	 55.1628 	 106.064
| 39> H 	 -27.0758 	 58.1665 	 110.769
| 40> H 	 -35.3416 	 57.4384 	 111.318
| 41> *
| 42>
| 43>                          ****END OF INPUT****

CARTESIAN COORDINATES (ANGSTROEM)
---------------------------------
  S    -29.289200   57.271300  111.505000
  C    -28.076900   57.874600  110.394000
  C    -28.400700   57.727800  109.063000
  C    -29.781500   57.371800  108.920000
  C    -30.468700   57.082500  110.124000
  H    -30.292200   57.225200  107.967000
  C    -27.457800   58.084800  107.934000
  H    -26.543700   57.429000  107.957000
  H    -26.977200   59.067900  108.118000
  C    -28.163900   58.118600  106.579000
  H    -28.450100   57.091100  106.310000
  H    -29.040400   58.804900  106.663000
  C    -27.428400   58.813500  105.296000
  H    -27.236000   59.863300  105.535000
  H    -26.609200   58.154800  105.037000
  H    -27.991800   58.836500  104.382000
  S    -32.750000   57.905500  111.358000
  C    -34.328700   57.110000  111.057000
  C    -34.125800   55.931300  110.408000
  C    -32.753800   55.705500  110.019000
  C    -31.862700   56.735600  110.380000
  H    -35.020200   55.406900  110.212000
  C    -32.358100   54.498500  109.299000
  H    -33.130900   53.708200  109.496000
  H    -31.460700   54.137300  109.751000
  C    -32.209600   54.628400  107.769000
  H    -32.072500   53.623500  107.313000
  H    -31.368700   55.213300  107.626000
  C    -33.464800   55.266500  107.167000
  H    -33.404300   56.382000  107.406000
  H    -34.368500   54.975900  107.637000
  H    -33.516700   55.162800  106.064000
  H    -27.075800   58.166500  110.769000
  H    -35.341600   57.438400  111.318000

 Total Charge           Charge          ....    0
 Multiplicity           Mult            ....    1
 Number of Electrons    NEL             ....  134
 Basis Dimension        Dim             ....  322

ORBITAL ENERGIES
----------------

  NO   OCC          E(Eh)            E(eV)
   0   2.0000     -88.967597     -2420.9314
   1   2.0000     -88.960924     -2420.7498
   2   2.0000     -10.340920      -281.3907
   3   2.0000     -10.331042      -281.1219
   4   2.0000     -10.320030      -280.8223
   5   2.0000     -10.318036      -280.7680
   6   2.0000     -10.306513      -280.4545
   7   2.0000     -10.305468      -280.4261
   8   2.0000     -10.304491      -280.3995
   9   2.0000     -10.302457      -280.3441
  10   2.0000     -10.298559      -280.2380
  11   2.0000     -10.291183      -280.0373
  12   2.0000     -10.285106      -279.8720
  13   2.0000     -10.283480      -279.8277
  14   2.0000     -10.281863      -279.7837
  15   2.0000     -10.277533      -279.6659
  16   2.0000      -8.081206      -219.9008
  17   2.0000      -8.074960      -219.7308
  18   2.0000      -6.039729      -164.3494
  19   2.0000      -6.035923      -164.2458
  20   2.0000      -6.033644      -164.1838
  21   2.0000      -6.031954      -164.1378
  22   2.0000      -6.029460      -164.0700
  23   2.0000      -6.025635      -163.9659
  24   2.0000      -0.998779       -27.1782
  25   2.0000      -0.978823       -26.6351
  26   2.0000      -0.912161       -24.8212
  27   2.0000      -0.905956       -24.6523
  28   2.0000      -0.869952       -23.6726
  29   2.0000      -0.842167       -22.9165
  30   2.0000      -0.840019       -22.8581
  31   2.0000      -0.819119       -22.2894
  32   2.0000      -0.782476       -21.2923
  33   2.0000      -0.768578       -20.9141
  34   2.0000      -0.719027       -19.5657
  35   2.0000      -0.697614       -18.9830
  36   2.0000      -0.682513       -18.5721
  37   2.0000      -0.659784       -17.9536
  38   2.0000      -0.641719       -17.4620
  39   2.0000      -0.619862       -16.8673
  40   2.0000      -0.586535       -15.9604
  41   2.0000      -0.571888       -15.5619
  42   2.0000      -0.570075       -15.5125
  43   2.0000      -0.556754       -15.1500
  44   2.0000      -0.546775       -14.8785
  45   2.0000      -0.521348       -14.1866
  46   2.0000      -0.512542       -13.9470
  47   2.0000      -0.507591       -13.8123
  48   2.0000      -0.503919       -13.7123
  49   2.0000      -0.498132       -13.5549
  50   2.0000      -0.488167       -13.2837
  51   2.0000      -0.480070       -13.0634
  52   2.0000      -0.475167       -12.9300
  53   2.0000      -0.467112       -12.7108
  54   2.0000      -0.456100       -12.4111
  55   2.0000      -0.450525       -12.2594
  56   2.0000      -0.437468       -11.9041
  57   2.0000      -0.435359       -11.8467
  58   2.0000      -0.430629       -11.7180
  59   2.0000      -0.427133       -11.6229
  60   2.0000      -0.423695       -11.5293
  61   2.0000      -0.409335       -11.1386
  62   2.0000      -0.404096       -10.9960
  63   2.0000      -0.344768        -9.3816
  64   2.0000      -0.331062        -9.0086
  65   2.0000      -0.321851        -8.7580
  66   2.0000      -0.295437        -8.0393
  67   0.0000       0.026339         0.7167
  68   0.0000       0.054986         1.4963
  69   0.0000       0.107580         2.9274
  70   0.0000       0.115673         3.1476
  71   0.0000       0.127747         3.4762

MULLIKEN ATOMIC CHARGES
-----------------------
   0 S :    0.109605
   1 C :   -0.138252
   2 C :   -0.079400
   3 C :    0.035187
   4 C :   -0.162892
   5 H :    0.028789
   6 C :    0.070525
   7 H :    0.042098
   8 H :    0.031200
   9 C :   -0.157001
  10 H :    0.043537
  11 H :    0.051073
  12 C :   -0.034384
  13 H :    0.041879
  14 H :    0.032374
  15 H :    0.029918
  16 S :    0.090535
  17 C :   -0.094041
  18 C :   -0.032882
  19 C :   -0.033903
  20 C :   -0.154755
  21 H :    0.009479
  22 C :    0.052225
  23 H :    0.023648
  24 H :    0.027960
  25 C :   -0.021101
  26 H :    0.034894
  27 H :    0.000414
  28 C :   -0.071873
  29 H :    0.045101
  30 H :    0.017234
  31 H :    0.043497
  32 H :    0.059946
  33 H :    0.059365
Sum of atomic charges:   -0.0000000

LOEWDIN ATOMIC CHARGES
----------------------
   0 S :    0.379621
   1 C :   -0.189989
   2 C :   -0.070016
   3 C :   -0.054310
   4 C :   -0.180850
   5 H :    0.032269
   6 C :   -0.040469
   7 H :    0.037906
   8 H :    0.035956
   9 C :   -0.046167
  10 H :    0.023678
  11 H :    0.030919
  12 C :   -0.065034
  13 H :    0.027336
  14 H :    0.023310
  15 H :    0.024963
  16 S :    0.383574
  17 C :   -0.168813
  18 C :   -0.073218
  19 C :   -0.051256
  20 C :   -0.200795
  21 H :    0.027982
  22 C :   -0.035751
  23 H :    0.033770
  24 H :    0.029849
  25 C :   -0.028883
  26 H :    0.027809
  27 H :    0.008298
  28 C :   -0.069711
  29 H :    0.035822
  30 H :    0.014664
  31 H :    0.028393
  32 H :    0.032189
  33 H :    0.036955

  Mayer bond orders larger than 0.100000
B(  0-S ,  1-C ) :   1.1526 B(  0-S ,  4-C ) :   1.1315 B(  1-C ,  2-C ) :   1.6115
B(  1-C ,  4-C ) :   0.1064 B(  1-C , 32-H ) :   0.9635 B(  2-C ,  3-C ) :   1.2546
B(  2-C ,  6-C ) :   1.0086 B(  3-C ,  4-C ) :   1.5672 B(  3-C ,  5-H ) :   0.9781
B(  4-C , 20-C ) :   1.0491 B(  6-C ,  7-H ) :   0.9307 B(  6-C ,  8-H ) :   0.9411
B(  6-C ,  9-C ) :   1.0792 B(  9-C , 10-H ) :   0.9527 B(  9-C , 11-H ) :   0.9541
B(  9-C , 12-C ) :   1.0699 B( 12-C , 13-H ) :   0.9770 B( 12-C , 14-H ) :   0.9771
B( 12-C , 15-H ) :   0.9773 B( 16-S , 17-C ) :   1.1419 B( 16-S , 20-C ) :   1.1269
B( 17-C , 18-C ) :   1.6466 B( 17-C , 33-H ) :   0.9621 B( 18-C , 19-C ) :   1.2020
B( 18-C , 21-H ) :   0.9970 B( 19-C , 20-C ) :   1.5803 B( 19-C , 22-C ) :   1.0575
B( 22-C , 23-H ) :   0.9355 B( 22-C , 24-H ) :   0.9305 B( 22-C , 25-C ) :   1.0711
B( 25-C , 26-H ) :   0.9556 B( 25-C , 27-H ) :   0.9552 B( 25-C , 28-C ) :   1.0745
B( 28-C , 29-H ) :   0.9661 B( 28-C , 30-H ) :   0.9777 B( 28-C , 31-H ) :   0.9746

Dispersion correction           -0.014725951
FINAL SINGLE POINT ENERGY     -1339.863606403178

DIPOLE MOMENT
-------------
                                X             Y             Z
Electronic contribution:     -4.56272       4.54851      28.19819
Nuclear contribution   :      4.61835      -4.73133     -28.86594
                        -----------------------------------------
Total Dipole Moment    :      0.05563      -0.18282      -0.66776
                        -----------------------------------------
Magnitude (a.u.)       :      0.69456
Magnitude (Debye)      :      1.76543

Rotational constants in cm-1:     0.018247     0.008854     0.006859
Rotational constants in MHz :   547.024046   265.445366   205.634403

                             ****ORCA TERMINATED NORMALLY****
TOTAL RUN TIME: 0 days 0 hours 0 minutes 31 seconds 147 msec
