                         Program Version 4.2.1 -  RELEASE  -
|  1> ! wB97X-D3 SP def2-SVP
|  2> %pal
|  3> nprocs 16
|  4> end
|  5>
|  6> * xyz 0 1
|  7> S 	 53.9963 	 16.8527 	 52.282
|  8> C 	 54.7744 	 18.032 	 53.2934
|  9> C 	 53.9289 	 19.0306 	 53.6556
| 10> C 	 52.5937 	 18.7097 	 53.3704
| 11> C 	 52.4609 	 17.4237 	 52.8641
| 12> H 	 51.7085 	 19.3326 	 53.375
| 13> C 	 54.1139 	 20.3672 	 54.4019
| 14> H 	 54.5399 	 20.0425 	 55.3847
| 15> H 	 53.0615 	 20.6745 	 54.6628
| 16> C 	 54.8899 	 21.44 	 53.6194
| 17> H 	 54.4289 	 21.7297 	 52.7284
| 18> H 	 54.8035 	 22.296 	 54.3695
| 19> C 	 56.4374 	 21.3794 	 53.4122
| 20> H 	 57.0432 	 21.2098 	 54.2619
| 21> H 	 56.7401 	 20.5012 	 52.8346
| 22> H 	 56.7597 	 22.281 	 52.9806
| 23> S 	 51.2402 	 16.4549 	 50.586
| 24> C 	 49.5764 	 15.9447 	 50.7809
| 25> C 	 49.027 	 16.157 	 51.9812
| 26> C 	 49.9369 	 16.7524 	 52.9475
| 27> C 	 51.2347 	 16.8362 	 52.3672
| 28> H 	 47.9725 	 16.0358 	 52.2061
| 29> C 	 49.4198 	 17.3229 	 54.2894
| 30> H 	 48.4292 	 17.7052 	 54.1638
| 31> H 	 50.0696 	 18.1816 	 54.4829
| 32> C 	 49.3495 	 16.336 	 55.4762
| 33> H 	 50.1535 	 15.5808 	 55.5035
| 34> H 	 48.4393 	 15.8214 	 55.4311
| 35> C 	 49.2927 	 16.9938 	 56.8268
| 36> H 	 50.2993 	 17.415 	 57.0315
| 37> H 	 49.0702 	 16.2011 	 57.5824
| 38> H 	 48.5479 	 17.7122 	 57.0157
| 39> H 	 55.8951 	 18.1429 	 53.2983
| 40> H 	 48.9165 	 15.6843 	 49.9222
| 41> *
| 42>
| 43>                          ****END OF INPUT****

CARTESIAN COORDINATES (ANGSTROEM)
---------------------------------
  S     53.996300   16.852700   52.282000
  C     54.774400   18.032000   53.293400
  C     53.928900   19.030600   53.655600
  C     52.593700   18.709700   53.370400
  C     52.460900   17.423700   52.864100
  H     51.708500   19.332600   53.375000
  C     54.113900   20.367200   54.401900
  H     54.539900   20.042500   55.384700
  H     53.061500   20.674500   54.662800
  C     54.889900   21.440000   53.619400
  H     54.428900   21.729700   52.728400
  H     54.803500   22.296000   54.369500
  C     56.437400   21.379400   53.412200
  H     57.043200   21.209800   54.261900
  H     56.740100   20.501200   52.834600
  H     56.759700   22.281000   52.980600
  S     51.240200   16.454900   50.586000
  C     49.576400   15.944700   50.780900
  C     49.027000   16.157000   51.981200
  C     49.936900   16.752400   52.947500
  C     51.234700   16.836200   52.367200
  H     47.972500   16.035800   52.206100
  C     49.419800   17.322900   54.289400
  H     48.429200   17.705200   54.163800
  H     50.069600   18.181600   54.482900
  C     49.349500   16.336000   55.476200
  H     50.153500   15.580800   55.503500
  H     48.439300   15.821400   55.431100
  C     49.292700   16.993800   56.826800
  H     50.299300   17.415000   57.031500
  H     49.070200   16.201100   57.582400
  H     48.547900   17.712200   57.015700
  H     55.895100   18.142900   53.298300
  H     48.916500   15.684300   49.922200

 Total Charge           Charge          ....    0
 Multiplicity           Mult            ....    1
 Number of Electrons    NEL             ....  134
 Basis Dimension        Dim             ....  322

ORBITAL ENERGIES
----------------

  NO   OCC          E(Eh)            E(eV)
   0   2.0000     -88.966194     -2420.8932
   1   2.0000     -88.963725     -2420.8260
   2   2.0000     -10.331304      -281.1291
   3   2.0000     -10.322202      -280.8814
   4   2.0000     -10.313372      -280.6411
   5   2.0000     -10.311421      -280.5880
   6   2.0000     -10.310123      -280.5527
   7   2.0000     -10.303141      -280.3627
   8   2.0000     -10.295598      -280.1575
   9   2.0000     -10.294271      -280.1213
  10   2.0000     -10.293141      -280.0906
  11   2.0000     -10.289470      -279.9907
  12   2.0000     -10.287219      -279.9295
  13   2.0000     -10.280526      -279.7473
  14   2.0000     -10.275558      -279.6121
  15   2.0000     -10.274880      -279.5937
  16   2.0000      -8.080045      -219.8692
  17   2.0000      -8.079150      -219.8449
  18   2.0000      -6.038672      -164.3206
  19   2.0000      -6.037544      -164.2899
  20   2.0000      -6.035049      -164.2220
  21   2.0000      -6.033966      -164.1926
  22   2.0000      -6.030364      -164.0946
  23   2.0000      -6.029586      -164.0734
  24   2.0000      -1.008303       -27.4373
  25   2.0000      -0.979355       -26.6496
  26   2.0000      -0.909144       -24.7391
  27   2.0000      -0.906476       -24.6665
  28   2.0000      -0.867399       -23.6031
  29   2.0000      -0.854958       -23.2646
  30   2.0000      -0.847757       -23.0686
  31   2.0000      -0.808930       -22.0121
  32   2.0000      -0.788627       -21.4596
  33   2.0000      -0.772835       -21.0299
  34   2.0000      -0.707111       -19.2415
  35   2.0000      -0.703260       -19.1367
  36   2.0000      -0.690036       -18.7768
  37   2.0000      -0.657153       -17.8820
  38   2.0000      -0.635742       -17.2994
  39   2.0000      -0.614285       -16.7155
  40   2.0000      -0.592630       -16.1263
  41   2.0000      -0.571521       -15.5519
  42   2.0000      -0.560655       -15.2562
  43   2.0000      -0.543238       -14.7823
  44   2.0000      -0.534479       -14.5439
  45   2.0000      -0.524147       -14.2628
  46   2.0000      -0.522725       -14.2241
  47   2.0000      -0.507187       -13.8013
  48   2.0000      -0.503183       -13.6923
  49   2.0000      -0.498323       -13.5601
  50   2.0000      -0.487944       -13.2776
  51   2.0000      -0.484197       -13.1757
  52   2.0000      -0.472312       -12.8523
  53   2.0000      -0.465747       -12.6736
  54   2.0000      -0.456768       -12.4293
  55   2.0000      -0.450506       -12.2589
  56   2.0000      -0.448608       -12.2072
  57   2.0000      -0.440357       -11.9827
  58   2.0000      -0.432300       -11.7635
  59   2.0000      -0.430643       -11.7184
  60   2.0000      -0.421577       -11.4717
  61   2.0000      -0.414665       -11.2836
  62   2.0000      -0.398179       -10.8350
  63   2.0000      -0.347988        -9.4692
  64   2.0000      -0.330892        -9.0040
  65   2.0000      -0.327705        -8.9173
  66   2.0000      -0.283165        -7.7053
  67   0.0000       0.023442         0.6379
  68   0.0000       0.061762         1.6806
  69   0.0000       0.096007         2.6125
  70   0.0000       0.119347         3.2476
  71   0.0000       0.126370         3.4387

MULLIKEN ATOMIC CHARGES
-----------------------
   0 S :    0.097879
   1 C :   -0.138394
   2 C :   -0.068682
   3 C :   -0.014398
   4 C :   -0.141193
   5 H :    0.032875
   6 C :    0.046989
   7 H :    0.045549
   8 H :    0.029931
   9 C :   -0.062938
  10 H :    0.027192
  11 H :    0.035581
  12 C :   -0.017562
  13 H :    0.012861
  14 H :    0.021776
  15 H :    0.031117
  16 S :    0.090362
  17 C :   -0.082479
  18 C :   -0.024175
  19 C :   -0.060065
  20 C :   -0.162143
  21 H :    0.016240
  22 C :    0.092587
  23 H :    0.018299
  24 H :    0.010795
  25 C :   -0.044086
  26 H :    0.042786
  27 H :    0.010346
  28 C :   -0.064316
  29 H :    0.038366
  30 H :    0.032771
  31 H :    0.020545
  32 H :    0.061016
  33 H :    0.064566
Sum of atomic charges:   -0.0000000

LOEWDIN ATOMIC CHARGES
----------------------
   0 S :    0.409764
   1 C :   -0.212295
   2 C :   -0.070608
   3 C :   -0.067504
   4 C :   -0.196146
   5 H :    0.031750
   6 C :   -0.031650
   7 H :    0.040281
   8 H :    0.037122
   9 C :   -0.036936
  10 H :    0.019174
  11 H :    0.035217
  12 C :   -0.060885
  13 H :    0.020170
  14 H :    0.022254
  15 H :    0.024191
  16 S :    0.366686
  17 C :   -0.189180
  18 C :   -0.073890
  19 C :   -0.046319
  20 C :   -0.175380
  21 H :    0.031954
  22 C :   -0.025546
  23 H :    0.030018
  24 H :    0.027304
  25 C :   -0.037837
  26 H :    0.031794
  27 H :    0.016038
  28 C :   -0.064680
  29 H :    0.027599
  30 H :    0.032333
  31 H :    0.014461
  32 H :    0.033899
  33 H :    0.036850

  Mayer bond orders larger than 0.100000
B(  0-S ,  1-C ) :   1.1330 B(  0-S ,  4-C ) :   1.1615 B(  1-C ,  2-C ) :   1.6175
B(  1-C , 32-H ) :   0.9611 B(  2-C ,  3-C ) :   1.2583 B(  2-C ,  6-C ) :   0.9879
B(  3-C ,  4-C ) :   1.5521 B(  3-C ,  5-H ) :   0.9836 B(  4-C , 20-C ) :   1.0657
B(  6-C ,  7-H ) :   0.9421 B(  6-C ,  8-H ) :   0.9464 B(  6-C ,  9-C ) :   1.0614
B(  9-C , 10-H ) :   0.9600 B(  9-C , 11-H ) :   0.9557 B(  9-C , 12-C ) :   1.0739
B( 12-C , 13-H ) :   0.9736 B( 12-C , 14-H ) :   0.9724 B( 12-C , 15-H ) :   0.9733
B( 16-S , 17-C ) :   1.1201 B( 16-S , 20-C ) :   1.1212 B( 17-C , 18-C ) :   1.6729
B( 17-C , 33-H ) :   0.9543 B( 18-C , 19-C ) :   1.2109 B( 18-C , 21-H ) :   0.9837
B( 19-C , 20-C ) :   1.6303 B( 19-C , 22-C ) :   1.0351 B( 22-C , 23-H ) :   0.9312
B( 22-C , 24-H ) :   0.9407 B( 22-C , 25-C ) :   1.0576 B( 25-C , 26-H ) :   0.9602
B( 25-C , 27-H ) :   0.9523 B( 25-C , 28-C ) :   1.0922 B( 28-C , 29-H ) :   0.9766
B( 28-C , 30-H ) :   0.9726 B( 28-C , 31-H ) :   0.9741

Dispersion correction           -0.013679670
FINAL SINGLE POINT ENERGY     -1339.841652607621

DIPOLE MOMENT
-------------
                                X             Y             Z
Electronic contribution:      0.81020     -15.56703     -20.83318
Nuclear contribution   :     -1.15729      16.21510      21.18197
                        -----------------------------------------
Total Dipole Moment    :     -0.34709       0.64807       0.34879
                        -----------------------------------------
Magnitude (a.u.)       :      0.81371
Magnitude (Debye)      :      2.06828

Rotational constants in cm-1:     0.018285     0.008313     0.006420
Rotational constants in MHz :   548.165286   249.211325   192.462741

                             ****ORCA TERMINATED NORMALLY****
TOTAL RUN TIME: 0 days 0 hours 0 minutes 30 seconds 96 msec
