                         Program Version 4.2.1 -  RELEASE  -
|  1> ! wB97X-D3 SP def2-SVP
|  2> %pal
|  3> nprocs 16
|  4> end
|  5>
|  6> * xyz 0 1
|  7> S 	 43.1785 	 11.6053 	 51.4644
|  8> C 	 41.8383 	 11.2353 	 50.5615
|  9> C 	 41.0302 	 12.3491 	 50.4122
| 10> C 	 41.5696 	 13.488 	 51.104
| 11> C 	 42.7297 	 13.2424 	 51.7448
| 12> H 	 41.1568 	 14.4534 	 51.2833
| 13> C 	 39.8513 	 12.3987 	 49.4895
| 14> H 	 39.6153 	 11.362 	 49.1109
| 15> H 	 40.1629 	 12.9699 	 48.6014
| 16> C 	 38.5715 	 13.1442 	 49.9232
| 17> H 	 38.2675 	 12.8161 	 50.8675
| 18> H 	 38.825 	 14.1905 	 50.1559
| 19> C 	 37.3922 	 13.142 	 48.9118
| 20> H 	 37.7741 	 13.3234 	 47.8955
| 21> H 	 36.9365 	 12.1842 	 48.8781
| 22> H 	 36.7071 	 13.8976 	 49.1325
| 23> S 	 44.0612 	 15.6128 	 51.9989
| 24> C 	 44.7234 	 16.114 	 53.5144
| 25> C 	 44.4437 	 15.2262 	 54.5459
| 26> C 	 43.8168 	 14.0173 	 54.0538
| 27> C 	 43.4587 	 14.1511 	 52.6826
| 28> H 	 44.9095 	 15.4038 	 55.5154
| 29> C 	 43.5465 	 12.8689 	 54.9396
| 30> H 	 44.3357 	 12.7979 	 55.7516
| 31> H 	 43.6419 	 11.9926 	 54.3317
| 32> C 	 42.233 	 12.6955 	 55.6004
| 33> H 	 41.9403 	 13.5184 	 56.1483
| 34> H 	 42.2922 	 11.9526 	 56.3293
| 35> C 	 41.0886 	 12.3568 	 54.606
| 36> H 	 40.9802 	 13.0876 	 53.7889
| 37> H 	 40.0701 	 12.2204 	 54.989
| 38> H 	 41.3585 	 11.4083 	 54.1375
| 39> H 	 41.7408 	 10.2636 	 50.0948
| 40> H 	 45.2629 	 17.0286 	 53.6843
| 41> *
| 42>
| 43>                          ****END OF INPUT****

CARTESIAN COORDINATES (ANGSTROEM)
---------------------------------
  S     43.178500   11.605300   51.464400
  C     41.838300   11.235300   50.561500
  C     41.030200   12.349100   50.412200
  C     41.569600   13.488000   51.104000
  C     42.729700   13.242400   51.744800
  H     41.156800   14.453400   51.283300
  C     39.851300   12.398700   49.489500
  H     39.615300   11.362000   49.110900
  H     40.162900   12.969900   48.601400
  C     38.571500   13.144200   49.923200
  H     38.267500   12.816100   50.867500
  H     38.825000   14.190500   50.155900
  C     37.392200   13.142000   48.911800
  H     37.774100   13.323400   47.895500
  H     36.936500   12.184200   48.878100
  H     36.707100   13.897600   49.132500
  S     44.061200   15.612800   51.998900
  C     44.723400   16.114000   53.514400
  C     44.443700   15.226200   54.545900
  C     43.816800   14.017300   54.053800
  C     43.458700   14.151100   52.682600
  H     44.909500   15.403800   55.515400
  C     43.546500   12.868900   54.939600
  H     44.335700   12.797900   55.751600
  H     43.641900   11.992600   54.331700
  C     42.233000   12.695500   55.600400
  H     41.940300   13.518400   56.148300
  H     42.292200   11.952600   56.329300
  C     41.088600   12.356800   54.606000
  H     40.980200   13.087600   53.788900
  H     40.070100   12.220400   54.989000
  H     41.358500   11.408300   54.137500
  H     41.740800   10.263600   50.094800
  H     45.262900   17.028600   53.684300

 Total Charge           Charge          ....    0
 Multiplicity           Mult            ....    1
 Number of Electrons    NEL             ....  134
 Basis Dimension        Dim             ....  322

ORBITAL ENERGIES
----------------

  NO   OCC          E(Eh)            E(eV)
   0   2.0000     -88.969049     -2420.9709
   1   2.0000     -88.962036     -2420.7801
   2   2.0000     -10.330529      -281.1080
   3   2.0000     -10.324638      -280.9477
   4   2.0000     -10.315377      -280.6957
   5   2.0000     -10.309181      -280.5271
   6   2.0000     -10.307702      -280.4868
   7   2.0000     -10.302331      -280.3407
   8   2.0000     -10.296281      -280.1760
   9   2.0000     -10.294795      -280.1356
  10   2.0000     -10.288856      -279.9740
  11   2.0000     -10.284567      -279.8573
  12   2.0000     -10.282480      -279.8005
  13   2.0000     -10.274314      -279.5783
  14   2.0000     -10.268591      -279.4226
  15   2.0000     -10.267918      -279.4042
  16   2.0000      -8.084298      -219.9849
  17   2.0000      -8.078947      -219.8393
  18   2.0000      -6.042616      -164.4279
  19   2.0000      -6.038620      -164.3192
  20   2.0000      -6.037181      -164.2800
  21   2.0000      -6.035357      -164.2304
  22   2.0000      -6.032940      -164.1647
  23   2.0000      -6.030062      -164.0863
  24   2.0000      -1.017169       -27.6786
  25   2.0000      -0.992116       -26.9968
  26   2.0000      -0.916580       -24.9414
  27   2.0000      -0.908166       -24.7124
  28   2.0000      -0.873854       -23.7788
  29   2.0000      -0.852453       -23.1964
  30   2.0000      -0.846267       -23.0281
  31   2.0000      -0.819575       -22.3018
  32   2.0000      -0.781597       -21.2683
  33   2.0000      -0.769874       -20.9493
  34   2.0000      -0.712211       -19.3802
  35   2.0000      -0.704622       -19.1737
  36   2.0000      -0.686451       -18.6793
  37   2.0000      -0.665341       -18.1049
  38   2.0000      -0.648357       -17.6427
  39   2.0000      -0.620168       -16.8756
  40   2.0000      -0.598985       -16.2992
  41   2.0000      -0.574101       -15.6221
  42   2.0000      -0.560104       -15.2412
  43   2.0000      -0.549882       -14.9631
  44   2.0000      -0.541778       -14.7425
  45   2.0000      -0.526457       -14.3256
  46   2.0000      -0.518917       -14.1205
  47   2.0000      -0.511639       -13.9224
  48   2.0000      -0.506998       -13.7961
  49   2.0000      -0.496356       -13.5065
  50   2.0000      -0.491457       -13.3732
  51   2.0000      -0.481264       -13.0959
  52   2.0000      -0.474348       -12.9077
  53   2.0000      -0.464673       -12.6444
  54   2.0000      -0.457947       -12.4614
  55   2.0000      -0.452077       -12.3016
  56   2.0000      -0.444991       -12.1088
  57   2.0000      -0.438369       -11.9286
  58   2.0000      -0.432692       -11.7742
  59   2.0000      -0.422729       -11.5030
  60   2.0000      -0.418762       -11.3951
  61   2.0000      -0.416952       -11.3459
  62   2.0000      -0.410909       -11.1814
  63   2.0000      -0.348602        -9.4859
  64   2.0000      -0.333973        -9.0879
  65   2.0000      -0.322981        -8.7888
  66   2.0000      -0.297365        -8.0917
  67   0.0000       0.039534         1.0758
  68   0.0000       0.072966         1.9855
  69   0.0000       0.114643         3.1196
  70   0.0000       0.116886         3.1806
  71   0.0000       0.136469         3.7135

MULLIKEN ATOMIC CHARGES
-----------------------
   0 S :    0.121873
   1 C :   -0.131205
   2 C :   -0.056364
   3 C :    0.042396
   4 C :   -0.162597
   5 H :    0.002687
   6 C :    0.046910
   7 H :    0.021704
   8 H :    0.038798
   9 C :   -0.086925
  10 H :    0.009901
  11 H :    0.022516
  12 C :   -0.004946
  13 H :    0.020363
  14 H :    0.028270
  15 H :    0.027797
  16 S :    0.129177
  17 C :   -0.095106
  18 C :   -0.041369
  19 C :   -0.032214
  20 C :   -0.174752
  21 H :    0.027873
  22 C :    0.060313
  23 H :    0.028913
  24 H :    0.003593
  25 C :    0.032980
  26 H :   -0.003703
  27 H :    0.007730
  28 C :   -0.075387
  29 H :    0.037321
  30 H :    0.029706
  31 H :    0.016853
  32 H :    0.053416
  33 H :    0.053480
Sum of atomic charges:   -0.0000000

LOEWDIN ATOMIC CHARGES
----------------------
   0 S :    0.459189
   1 C :   -0.221114
   2 C :   -0.066795
   3 C :   -0.065769
   4 C :   -0.208194
   5 H :    0.027011
   6 C :   -0.037612
   7 H :    0.031328
   8 H :    0.036330
   9 C :   -0.040231
  10 H :    0.012310
  11 H :    0.023283
  12 C :   -0.052362
  13 H :    0.026726
  14 H :    0.021674
  15 H :    0.021436
  16 S :    0.438377
  17 C :   -0.193889
  18 C :   -0.070743
  19 C :   -0.050578
  20 C :   -0.212028
  21 H :    0.035231
  22 C :   -0.039202
  23 H :    0.040190
  24 H :    0.022391
  25 C :   -0.027739
  26 H :    0.011562
  27 H :    0.019282
  28 C :   -0.069622
  29 H :    0.026920
  30 H :    0.024589
  31 H :    0.019875
  32 H :    0.031153
  33 H :    0.027019

  Mayer bond orders larger than 0.100000
B(  0-S ,  1-C ) :   1.1765 B(  0-S ,  4-C ) :   1.1711 B(  1-C ,  2-C ) :   1.5662
B(  1-C , 32-H ) :   0.9746 B(  2-C ,  3-C ) :   1.2341 B(  2-C ,  6-C ) :   1.0428
B(  3-C ,  4-C ) :   1.5922 B(  3-C ,  5-H ) :   0.9966 B(  4-C , 20-C ) :   0.9875
B(  6-C ,  7-H ) :   0.9447 B(  6-C ,  8-H ) :   0.9322 B(  6-C ,  9-C ) :   1.0543
B(  9-C , 10-H ) :   0.9591 B(  9-C , 11-H ) :   0.9509 B(  9-C , 12-C ) :   1.0840
B( 12-C , 13-H ) :   0.9741 B( 12-C , 14-H ) :   0.9765 B( 12-C , 15-H ) :   0.9747
B( 16-S , 17-C ) :   1.1693 B( 16-S , 20-C ) :   1.1723 B( 17-C , 18-C ) :   1.6039
B( 17-C , 33-H ) :   0.9670 B( 18-C , 19-C ) :   1.2508 B( 18-C , 21-H ) :   0.9850
B( 19-C , 20-C ) :   1.5550 B( 19-C , 22-C ) :   1.0636 B( 22-C , 23-H ) :   0.9245
B( 22-C , 24-H ) :   0.9204 B( 22-C , 25-C ) :   1.0878 B( 25-C , 26-H ) :   0.9459
B( 25-C , 27-H ) :   0.9465 B( 25-C , 28-C ) :   1.0743 B( 28-C , 29-H ) :   0.9732
B( 28-C , 30-H ) :   0.9738 B( 28-C , 31-H ) :   0.9731

Dispersion correction           -0.015599492
FINAL SINGLE POINT ENERGY     -1339.883167389160

DIPOLE MOMENT
-------------
                                X             Y             Z
Electronic contribution:     22.84929       5.47495      -1.83618
Nuclear contribution   :    -23.12495      -5.47718       1.95818
                        -----------------------------------------
Total Dipole Moment    :     -0.27566      -0.00222       0.12200
                        -----------------------------------------
Magnitude (a.u.)       :      0.30146
Magnitude (Debye)      :      0.76624

Rotational constants in cm-1:     0.020849     0.008193     0.007488
Rotational constants in MHz :   625.050978   245.632248   224.482549

                             ****ORCA TERMINATED NORMALLY****
TOTAL RUN TIME: 0 days 0 hours 0 minutes 35 seconds 790 msec
