                         Program Version 4.2.1 -  RELEASE  -
|  1> ! wB97X-D3 SP def2-SVP
|  2> %pal
|  3> nprocs 16
|  4> end
|  5>
|  6> * xyz 0 1
|  7> S 	 32.88 	 25.9273 	 55.9853
|  8> C 	 31.7457 	 27.1351 	 56.5262
|  9> C 	 30.4701 	 26.591 	 56.5726
| 10> C 	 30.4847 	 25.1787 	 56.4772
| 11> C 	 31.7418 	 24.6472 	 56.1601
| 12> H 	 29.6244 	 24.4985 	 56.6747
| 13> C 	 29.2279 	 27.4225 	 56.8943
| 14> H 	 28.5508 	 26.8614 	 57.6394
| 15> H 	 28.7187 	 27.306 	 55.8993
| 16> C 	 29.3088 	 28.889 	 57.2003
| 17> H 	 29.822 	 29.1823 	 58.1867
| 18> H 	 29.8852 	 29.3375 	 56.3156
| 19> C 	 27.8341 	 29.4274 	 57.2159
| 20> H 	 27.2327 	 28.8099 	 57.894
| 21> H 	 27.7457 	 30.4833 	 57.5935
| 22> H 	 27.4367 	 29.3928 	 56.224
| 23> S 	 33.0392 	 22.4475 	 57.24
| 24> C 	 33.0475 	 20.9426 	 56.3765
| 25> C 	 32.4713 	 21.0368 	 55.1143
| 26> C 	 31.7829 	 22.2894 	 54.9751
| 27> C 	 32.1427 	 23.262 	 55.934
| 28> H 	 32.4493 	 20.1823 	 54.4383
| 29> C 	 30.9297 	 22.5014 	 53.7326
| 30> H 	 30.2266 	 23.3692 	 53.9538
| 31> H 	 30.3331 	 21.6379 	 53.4636
| 32> C 	 31.7017 	 22.9094 	 52.5222
| 33> H 	 32.4328 	 22.0191 	 52.3927
| 34> H 	 32.254 	 23.7443 	 52.8344
| 35> C 	 30.7874 	 23.3069 	 51.3537
| 36> H 	 30.2182 	 24.2583 	 51.6308
| 37> H 	 30.0818 	 22.4989 	 51.1681
| 38> H 	 31.2017 	 23.3896 	 50.3736
| 39> H 	 31.9934 	 28.21 	 56.6103
| 40> H 	 33.5718 	 20.051 	 56.6422
| 41> *
| 42>
| 43>                          ****END OF INPUT****

CARTESIAN COORDINATES (ANGSTROEM)
---------------------------------
  S     32.880000   25.927300   55.985300
  C     31.745700   27.135100   56.526200
  C     30.470100   26.591000   56.572600
  C     30.484700   25.178700   56.477200
  C     31.741800   24.647200   56.160100
  H     29.624400   24.498500   56.674700
  C     29.227900   27.422500   56.894300
  H     28.550800   26.861400   57.639400
  H     28.718700   27.306000   55.899300
  C     29.308800   28.889000   57.200300
  H     29.822000   29.182300   58.186700
  H     29.885200   29.337500   56.315600
  C     27.834100   29.427400   57.215900
  H     27.232700   28.809900   57.894000
  H     27.745700   30.483300   57.593500
  H     27.436700   29.392800   56.224000
  S     33.039200   22.447500   57.240000
  C     33.047500   20.942600   56.376500
  C     32.471300   21.036800   55.114300
  C     31.782900   22.289400   54.975100
  C     32.142700   23.262000   55.934000
  H     32.449300   20.182300   54.438300
  C     30.929700   22.501400   53.732600
  H     30.226600   23.369200   53.953800
  H     30.333100   21.637900   53.463600
  C     31.701700   22.909400   52.522200
  H     32.432800   22.019100   52.392700
  H     32.254000   23.744300   52.834400
  C     30.787400   23.306900   51.353700
  H     30.218200   24.258300   51.630800
  H     30.081800   22.498900   51.168100
  H     31.201700   23.389600   50.373600
  H     31.993400   28.210000   56.610300
  H     33.571800   20.051000   56.642200

 Total Charge           Charge          ....    0
 Multiplicity           Mult            ....    1
 Number of Electrons    NEL             ....  134
 Basis Dimension        Dim             ....  322

ORBITAL ENERGIES
----------------

  NO   OCC          E(Eh)            E(eV)
   0   2.0000     -88.966254     -2420.8949
   1   2.0000     -88.964020     -2420.8341
   2   2.0000     -10.330786      -281.1150
   3   2.0000     -10.329586      -281.0823
   4   2.0000     -10.317226      -280.7460
   5   2.0000     -10.314061      -280.6599
   6   2.0000     -10.309182      -280.5271
   7   2.0000     -10.304451      -280.3984
   8   2.0000     -10.303325      -280.3677
   9   2.0000     -10.302850      -280.3548
  10   2.0000     -10.298841      -280.2457
  11   2.0000     -10.295829      -280.1638
  12   2.0000     -10.287754      -279.9440
  13   2.0000     -10.286067      -279.8981
  14   2.0000     -10.282665      -279.8056
  15   2.0000     -10.281213      -279.7660
  16   2.0000      -8.080694      -219.8869
  17   2.0000      -8.079348      -219.8502
  18   2.0000      -6.039249      -164.3363
  19   2.0000      -6.037764      -164.2959
  20   2.0000      -6.035161      -164.2251
  21   2.0000      -6.033622      -164.1832
  22   2.0000      -6.031489      -164.1252
  23   2.0000      -6.030314      -164.0932
  24   2.0000      -1.005913       -27.3723
  25   2.0000      -0.984062       -26.7777
  26   2.0000      -0.914326       -24.8801
  27   2.0000      -0.913148       -24.8480
  28   2.0000      -0.867569       -23.6078
  29   2.0000      -0.847786       -23.0694
  30   2.0000      -0.845596       -23.0098
  31   2.0000      -0.810436       -22.0531
  32   2.0000      -0.780075       -21.2269
  33   2.0000      -0.767643       -20.8886
  34   2.0000      -0.706485       -19.2244
  35   2.0000      -0.699020       -19.0213
  36   2.0000      -0.686423       -18.6785
  37   2.0000      -0.659911       -17.9571
  38   2.0000      -0.637622       -17.3506
  39   2.0000      -0.609981       -16.5984
  40   2.0000      -0.594878       -16.1875
  41   2.0000      -0.575912       -15.6714
  42   2.0000      -0.571430       -15.5494
  43   2.0000      -0.565559       -15.3897
  44   2.0000      -0.521740       -14.1973
  45   2.0000      -0.514489       -14.0000
  46   2.0000      -0.514048       -13.9880
  47   2.0000      -0.512334       -13.9413
  48   2.0000      -0.505750       -13.7622
  49   2.0000      -0.495385       -13.4801
  50   2.0000      -0.495099       -13.4723
  51   2.0000      -0.475284       -12.9331
  52   2.0000      -0.472782       -12.8650
  53   2.0000      -0.461014       -12.5448
  54   2.0000      -0.459843       -12.5130
  55   2.0000      -0.446195       -12.1416
  56   2.0000      -0.443902       -12.0792
  57   2.0000      -0.441265       -12.0074
  58   2.0000      -0.428365       -11.6564
  59   2.0000      -0.425413       -11.5761
  60   2.0000      -0.420774       -11.4498
  61   2.0000      -0.413269       -11.2456
  62   2.0000      -0.411426       -11.1955
  63   2.0000      -0.336020        -9.1436
  64   2.0000      -0.326465        -8.8836
  65   2.0000      -0.325869        -8.8674
  66   2.0000      -0.303353        -8.2547
  67   0.0000       0.036375         0.9898
  68   0.0000       0.059179         1.6103
  69   0.0000       0.115165         3.1338
  70   0.0000       0.120258         3.2724
  71   0.0000       0.129399         3.5211

MULLIKEN ATOMIC CHARGES
-----------------------
   0 S :    0.120664
   1 C :   -0.147913
   2 C :   -0.064906
   3 C :    0.031347
   4 C :   -0.178606
   5 H :    0.029614
   6 C :   -0.008072
   7 H :    0.045388
   8 H :    0.044182
   9 C :   -0.110783
  10 H :    0.057552
  11 H :    0.044891
  12 C :   -0.047589
  13 H :    0.032495
  14 H :    0.042187
  15 H :    0.032004
  16 S :    0.117255
  17 C :   -0.073288
  18 C :   -0.047706
  19 C :   -0.021569
  20 C :   -0.162396
  21 H :    0.030897
  22 C :    0.026158
  23 H :    0.021822
  24 H :    0.021220
  25 C :   -0.061464
  26 H :    0.030452
  27 H :    0.018209
  28 C :   -0.030409
  29 H :    0.047530
  30 H :    0.015910
  31 H :    0.030644
  32 H :    0.064866
  33 H :    0.049414
Sum of atomic charges:   -0.0000000

LOEWDIN ATOMIC CHARGES
----------------------
   0 S :    0.425599
   1 C :   -0.212947
   2 C :   -0.069025
   3 C :   -0.065936
   4 C :   -0.213328
   5 H :    0.040208
   6 C :   -0.048087
   7 H :    0.036811
   8 H :    0.044053
   9 C :   -0.054991
  10 H :    0.033618
  11 H :    0.032612
  12 C :   -0.061953
  13 H :    0.025098
  14 H :    0.031079
  15 H :    0.021610
  16 S :    0.409862
  17 C :   -0.181684
  18 C :   -0.075227
  19 C :   -0.042033
  20 C :   -0.207005
  21 H :    0.034448
  22 C :   -0.038393
  23 H :    0.031490
  24 H :    0.024651
  25 C :   -0.043535
  26 H :    0.029796
  27 H :    0.016781
  28 C :   -0.068480
  29 H :    0.038552
  30 H :    0.022821
  31 H :    0.023342
  32 H :    0.034170
  33 H :    0.026021

  Mayer bond orders larger than 0.100000
B(  0-S ,  1-C ) :   1.1442 B(  0-S ,  4-C ) :   1.1809 B(  1-C ,  2-C ) :   1.5892
B(  1-C ,  4-C ) :   0.1015 B(  1-C , 32-H ) :   0.9607 B(  2-C ,  3-C ) :   1.2606
B(  2-C ,  6-C ) :   0.9926 B(  3-C ,  4-C ) :   1.5547 B(  3-C ,  5-H ) :   0.9935
B(  4-C , 20-C ) :   1.0131 B(  6-C ,  7-H ) :   0.9467 B(  6-C ,  8-H ) :   0.9329
B(  6-C ,  9-C ) :   1.0725 B(  9-C , 10-H ) :   0.9535 B(  9-C , 11-H ) :   0.9454
B(  9-C , 12-C ) :   1.0695 B( 12-C , 13-H ) :   0.9756 B( 12-C , 14-H ) :   0.9745
B( 12-C , 15-H ) :   0.9777 B( 16-S , 17-C ) :   1.1734 B( 16-S , 20-C ) :   1.1338
B( 17-C , 18-C ) :   1.6089 B( 17-C , 20-C ) :   0.1053 B( 17-C , 33-H ) :   0.9650
B( 18-C , 19-C ) :   1.2342 B( 18-C , 21-H ) :   0.9841 B( 19-C , 20-C ) :   1.5891
B( 19-C , 22-C ) :   1.0566 B( 22-C , 23-H ) :   0.9314 B( 22-C , 24-H ) :   0.9341
B( 22-C , 25-C ) :   1.0644 B( 25-C , 26-H ) :   0.9526 B( 25-C , 27-H ) :   0.9542
B( 25-C , 28-C ) :   1.0728 B( 28-C , 29-H ) :   0.9708 B( 28-C , 30-H ) :   0.9723
B( 28-C , 31-H ) :   0.9742

Dispersion correction           -0.013644812
FINAL SINGLE POINT ENERGY     -1339.872557421298

DIPOLE MOMENT
-------------
                                X             Y             Z
Electronic contribution:     20.10505     -11.65512      12.51896
Nuclear contribution   :    -20.67494      11.70363     -12.79390
                        -----------------------------------------
Total Dipole Moment    :     -0.56989       0.04851      -0.27494
                        -----------------------------------------
Magnitude (a.u.)       :      0.63460
Magnitude (Debye)      :      1.61304

Rotational constants in cm-1:     0.020048     0.007345     0.006144
Rotational constants in MHz :   601.014197   220.208630   184.203628

                             ****ORCA TERMINATED NORMALLY****
TOTAL RUN TIME: 0 days 0 hours 0 minutes 33 seconds 795 msec
