                         Program Version 4.2.1 -  RELEASE  -
|  1> ! wB97X-D3 SP def2-SVP
|  2> %pal
|  3> nprocs 16
|  4> end
|  5>
|  6> * xyz 0 1
|  7> S 	 -6.10176 	 8.06746 	 84.9098
|  8> C 	 -7.01547 	 7.34311 	 86.2074
|  9> C 	 -8.0479 	 8.19565 	 86.5517
| 10> C 	 -8.08548 	 9.39653 	 85.769
| 11> C 	 -7.08877 	 9.49852 	 84.8522
| 12> H 	 -8.64639 	 10.2918 	 86.0456
| 13> C 	 -8.9477 	 8.03525 	 87.7749
| 14> H 	 -9.83232 	 8.67326 	 87.5213
| 15> H 	 -8.53627 	 8.29894 	 88.7338
| 16> C 	 -9.45993 	 6.55523 	 87.8775
| 17> H 	 -9.67315 	 6.28735 	 86.821
| 18> H 	 -8.79609 	 5.73146 	 88.2093
| 19> C 	 -10.7217 	 6.44883 	 88.7437
| 20> H 	 -10.5489 	 6.77958 	 89.756
| 21> H 	 -11.6468 	 6.97631 	 88.3731
| 22> H 	 -11.0988 	 5.42198 	 88.663
| 23> S 	 -5.28032 	 11.3518 	 83.9103
| 24> C 	 -5.80746 	 12.5729 	 82.7808
| 25> C 	 -7.03456 	 12.3238 	 82.3244
| 26> C 	 -7.69922 	 11.2913 	 83.069
| 27> C 	 -6.83842 	 10.6153 	 83.9793
| 28> H 	 -7.44608 	 12.7809 	 81.5135
| 29> C 	 -9.14431 	 10.8141 	 82.7328
| 30> H 	 -9.77349 	 11.6709 	 82.6046
| 31> H 	 -9.61061 	 10.3558 	 83.5556
| 32> C 	 -9.44343 	 9.92106 	 81.5312
| 33> H 	 -9.14578 	 10.3976 	 80.6124
| 34> H 	 -10.5558 	 9.91619 	 81.4675
| 35> C 	 -8.88407 	 8.53067 	 81.6032
| 36> H 	 -7.83541 	 8.62562 	 81.9089
| 37> H 	 -8.97373 	 8.06174 	 80.6227
| 38> H 	 -9.51952 	 7.88215 	 82.2682
| 39> H 	 -6.79532 	 6.50477 	 86.784
| 40> H 	 -5.11997 	 13.2491 	 82.2747
| 41> *
| 42>
| 43>                          ****END OF INPUT****

CARTESIAN COORDINATES (ANGSTROEM)
---------------------------------
  S     -6.101760    8.067460   84.909800
  C     -7.015470    7.343110   86.207400
  C     -8.047900    8.195650   86.551700
  C     -8.085480    9.396530   85.769000
  C     -7.088770    9.498520   84.852200
  H     -8.646390   10.291800   86.045600
  C     -8.947700    8.035250   87.774900
  H     -9.832320    8.673260   87.521300
  H     -8.536270    8.298940   88.733800
  C     -9.459930    6.555230   87.877500
  H     -9.673150    6.287350   86.821000
  H     -8.796090    5.731460   88.209300
  C    -10.721700    6.448830   88.743700
  H    -10.548900    6.779580   89.756000
  H    -11.646800    6.976310   88.373100
  H    -11.098800    5.421980   88.663000
  S     -5.280320   11.351800   83.910300
  C     -5.807460   12.572900   82.780800
  C     -7.034560   12.323800   82.324400
  C     -7.699220   11.291300   83.069000
  C     -6.838420   10.615300   83.979300
  H     -7.446080   12.780900   81.513500
  C     -9.144310   10.814100   82.732800
  H     -9.773490   11.670900   82.604600
  H     -9.610610   10.355800   83.555600
  C     -9.443430    9.921060   81.531200
  H     -9.145780   10.397600   80.612400
  H    -10.555800    9.916190   81.467500
  C     -8.884070    8.530670   81.603200
  H     -7.835410    8.625620   81.908900
  H     -8.973730    8.061740   80.622700
  H     -9.519520    7.882150   82.268200
  H     -6.795320    6.504770   86.784000
  H     -5.119970   13.249100   82.274700

 Total Charge           Charge          ....    0
 Multiplicity           Mult            ....    1
 Number of Electrons    NEL             ....  134
 Basis Dimension        Dim             ....  322

ORBITAL ENERGIES
----------------

  NO   OCC          E(Eh)            E(eV)
   0   2.0000     -88.967176     -2420.9199
   1   2.0000     -88.965443     -2420.8728
   2   2.0000     -10.329331      -281.0754
   3   2.0000     -10.327280      -281.0196
   4   2.0000     -10.314361      -280.6680
   5   2.0000     -10.309968      -280.5485
   6   2.0000     -10.309170      -280.5268
   7   2.0000     -10.299781      -280.2713
   8   2.0000     -10.296933      -280.1938
   9   2.0000     -10.291433      -280.0441
  10   2.0000     -10.290346      -280.0145
  11   2.0000     -10.286443      -279.9083
  12   2.0000     -10.282099      -279.7901
  13   2.0000     -10.280469      -279.7458
  14   2.0000     -10.279937      -279.7313
  15   2.0000     -10.271130      -279.4916
  16   2.0000      -8.081897      -219.9196
  17   2.0000      -8.080925      -219.8931
  18   2.0000      -6.040491      -164.3701
  19   2.0000      -6.039381      -164.3399
  20   2.0000      -6.036260      -164.2550
  21   2.0000      -6.035341      -164.2300
  22   2.0000      -6.032695      -164.1580
  23   2.0000      -6.031662      -164.1299
  24   2.0000      -1.012096       -27.5405
  25   2.0000      -0.989705       -26.9312
  26   2.0000      -0.908988       -24.7348
  27   2.0000      -0.906802       -24.6753
  28   2.0000      -0.876145       -23.8411
  29   2.0000      -0.849866       -23.1260
  30   2.0000      -0.844693       -22.9853
  31   2.0000      -0.819905       -22.3107
  32   2.0000      -0.782640       -21.2967
  33   2.0000      -0.771180       -20.9849
  34   2.0000      -0.712512       -19.3884
  35   2.0000      -0.696952       -18.9650
  36   2.0000      -0.686858       -18.6904
  37   2.0000      -0.661858       -18.0101
  38   2.0000      -0.643706       -17.5161
  39   2.0000      -0.618560       -16.8319
  40   2.0000      -0.601188       -16.3592
  41   2.0000      -0.576292       -15.6817
  42   2.0000      -0.562531       -15.3072
  43   2.0000      -0.551401       -15.0044
  44   2.0000      -0.542942       -14.7742
  45   2.0000      -0.523554       -14.2466
  46   2.0000      -0.519947       -14.1485
  47   2.0000      -0.511767       -13.9259
  48   2.0000      -0.508427       -13.8350
  49   2.0000      -0.499555       -13.5936
  50   2.0000      -0.494220       -13.4484
  51   2.0000      -0.476599       -12.9689
  52   2.0000      -0.469497       -12.7757
  53   2.0000      -0.467497       -12.7212
  54   2.0000      -0.462906       -12.5963
  55   2.0000      -0.448266       -12.1979
  56   2.0000      -0.443276       -12.0621
  57   2.0000      -0.432264       -11.7625
  58   2.0000      -0.424541       -11.5524
  59   2.0000      -0.418661       -11.3923
  60   2.0000      -0.416426       -11.3315
  61   2.0000      -0.414195       -11.2708
  62   2.0000      -0.408416       -11.1136
  63   2.0000      -0.354339        -9.6420
  64   2.0000      -0.331335        -9.0161
  65   2.0000      -0.328714        -8.9448
  66   2.0000      -0.295264        -8.0345
  67   0.0000       0.027928         0.7600
  68   0.0000       0.073235         1.9928
  69   0.0000       0.117262         3.1909
  70   0.0000       0.124755         3.3948
  71   0.0000       0.129360         3.5201

MULLIKEN ATOMIC CHARGES
-----------------------
   0 S :    0.114926
   1 C :   -0.084284
   2 C :   -0.112322
   3 C :    0.024497
   4 C :   -0.143361
   5 H :    0.028801
   6 C :    0.079366
   7 H :    0.032271
   8 H :    0.047470
   9 C :   -0.134254
  10 H :    0.033363
  11 H :    0.042635
  12 C :   -0.056226
  13 H :    0.036396
  14 H :    0.030092
  15 H :    0.030949
  16 S :    0.107617
  17 C :   -0.077281
  18 C :    0.016456
  19 C :   -0.064094
  20 C :   -0.157619
  21 H :   -0.017038
  22 C :    0.103769
  23 H :    0.006597
  24 H :   -0.006264
  25 C :   -0.073003
  26 H :    0.011300
  27 H :    0.023071
  28 C :   -0.039609
  29 H :    0.044919
  30 H :    0.029011
  31 H :    0.035578
  32 H :    0.024150
  33 H :    0.062125
Sum of atomic charges:    0.0000000

LOEWDIN ATOMIC CHARGES
----------------------
   0 S :    0.415359
   1 C :   -0.191009
   2 C :   -0.064619
   3 C :   -0.069965
   4 C :   -0.196897
   5 H :    0.036716
   6 C :   -0.027286
   7 H :    0.037908
   8 H :    0.029270
   9 C :   -0.052297
  10 H :    0.026721
  11 H :    0.026816
  12 C :   -0.073978
  13 H :    0.021883
  14 H :    0.028219
  15 H :    0.028423
  16 S :    0.419084
  17 C :   -0.182494
  18 C :   -0.057585
  19 C :   -0.048959
  20 C :   -0.210455
  21 H :    0.018406
  22 C :   -0.033548
  23 H :    0.028160
  24 H :    0.021613
  25 C :   -0.042159
  26 H :    0.015303
  27 H :    0.027327
  28 C :   -0.067615
  29 H :    0.028518
  30 H :    0.025657
  31 H :    0.030729
  32 H :    0.019650
  33 H :    0.033103

  Mayer bond orders larger than 0.100000
B(  0-S ,  1-C ) :   1.1314 B(  0-S ,  4-C ) :   1.1488 B(  1-C ,  2-C ) :   1.6038
B(  1-C , 32-H ) :   0.9803 B(  2-C ,  3-C ) :   1.2572 B(  2-C ,  6-C ) :   1.0167
B(  3-C ,  4-C ) :   1.5889 B(  3-C ,  5-H ) :   0.9853 B(  4-C , 20-C ) :   1.0470
B(  6-C ,  7-H ) :   0.9451 B(  6-C ,  8-H ) :   0.9429 B(  6-C ,  9-C ) :   1.0490
B(  9-C , 10-H ) :   0.9612 B(  9-C , 11-H ) :   0.9532 B(  9-C , 12-C ) :   1.0883
B( 12-C , 13-H ) :   0.9740 B( 12-C , 14-H ) :   0.9741 B( 12-C , 15-H ) :   0.9726
B( 16-S , 17-C ) :   1.1517 B( 16-S , 20-C ) :   1.1532 B( 17-C , 18-C ) :   1.6051
B( 17-C , 33-H ) :   0.9629 B( 18-C , 19-C ) :   1.2532 B( 18-C , 21-H ) :   1.0073
B( 19-C , 20-C ) :   1.5552 B( 19-C , 22-C ) :   1.0459 B( 22-C , 23-H ) :   0.9242
B( 22-C , 24-H ) :   0.9284 B( 22-C , 25-C ) :   1.0827 B( 25-C , 26-H ) :   0.9546
B( 25-C , 27-H ) :   0.9479 B( 25-C , 28-C ) :   1.0844 B( 28-C , 29-H ) :   0.9736
B( 28-C , 30-H ) :   0.9716 B( 28-C , 31-H ) :   0.9732

Dispersion correction           -0.014664281
FINAL SINGLE POINT ENERGY     -1339.873781427963

DIPOLE MOMENT
-------------
                                X             Y             Z
Electronic contribution:     24.78765      11.19756      -3.96932
Nuclear contribution   :    -25.31352     -11.13672       3.99756
                        -----------------------------------------
Total Dipole Moment    :     -0.52587       0.06084       0.02823
                        -----------------------------------------
Magnitude (a.u.)       :      0.53013
Magnitude (Debye)      :      1.34749

Rotational constants in cm-1:     0.021999     0.007819     0.006792
Rotational constants in MHz :   659.516025   234.418264   203.608240

                             ****ORCA TERMINATED NORMALLY****
TOTAL RUN TIME: 0 days 0 hours 0 minutes 35 seconds 553 msec
