                         Program Version 4.2.1 -  RELEASE  -
|  1> ! wB97X-D3 SP def2-SVP
|  2> %pal
|  3> nprocs 16
|  4> end
|  5>
|  6> * xyz 0 1
|  7> S 	 52.6544 	 -2.1874 	 81.472
|  8> C 	 51.4409 	 -1.71079 	 82.5989
|  9> C 	 51.9023 	 -0.822078 	 83.4849
| 10> C 	 53.2779 	 -0.478821 	 83.2003
| 11> C 	 53.9282 	 -1.18904 	 82.2247
| 12> H 	 53.8198 	 0.191343 	 83.8764
| 13> C 	 51.0568 	 -0.06644 	 84.4802
| 14> H 	 50.0153 	 -0.27545 	 84.5125
| 15> H 	 51.2294 	 1.03794 	 84.3345
| 16> C 	 51.5652 	 -0.450557 	 85.881
| 17> H 	 51.3582 	 -1.49948 	 85.9885
| 18> H 	 52.5858 	 -0.320318 	 86.0136
| 19> C 	 50.7347 	 0.170732 	 87.0987
| 20> H 	 50.8017 	 1.26878 	 87.145
| 21> H 	 49.7021 	 -0.173691 	 86.9802
| 22> H 	 51.0643 	 -0.130364 	 88.0924
| 23> S 	 55.9337 	 -3.03829 	 81.8994
| 24> C 	 57.5849 	 -2.55944 	 81.5418
| 25> C 	 57.6424 	 -1.19842 	 81.3738
| 26> C 	 56.3623 	 -0.469577 	 81.5744
| 27> C 	 55.3394 	 -1.36367 	 81.8567
| 28> H 	 58.6524 	 -0.906006 	 81.125
| 29> C 	 56.2544 	 1.0307 	 81.5205
| 30> H 	 57.0861 	 1.42668 	 82.1064
| 31> H 	 55.3657 	 1.32903 	 82.071
| 32> C 	 56.0737 	 1.62913 	 80.1572
| 33> H 	 55.2779 	 1.07239 	 79.6936
| 34> H 	 56.9674 	 1.43341 	 79.5752
| 35> C 	 55.9009 	 3.07838 	 80.1186
| 36> H 	 55.442 	 3.18803 	 79.1362
| 37> H 	 56.8319 	 3.60629 	 80.2887
| 38> H 	 55.1542 	 3.49651 	 80.8448
| 39> H 	 50.431 	 -1.88744 	 82.427
| 40> H 	 58.4492 	 -3.23131 	 81.2291
| 41> *
| 42>
| 43>                          ****END OF INPUT****

CARTESIAN COORDINATES (ANGSTROEM)
---------------------------------
  S     52.654400   -2.187400   81.472000
  C     51.440900   -1.710790   82.598900
  C     51.902300   -0.822078   83.484900
  C     53.277900   -0.478821   83.200300
  C     53.928200   -1.189040   82.224700
  H     53.819800    0.191343   83.876400
  C     51.056800   -0.066440   84.480200
  H     50.015300   -0.275450   84.512500
  H     51.229400    1.037940   84.334500
  C     51.565200   -0.450557   85.881000
  H     51.358200   -1.499480   85.988500
  H     52.585800   -0.320318   86.013600
  C     50.734700    0.170732   87.098700
  H     50.801700    1.268780   87.145000
  H     49.702100   -0.173691   86.980200
  H     51.064300   -0.130364   88.092400
  S     55.933700   -3.038290   81.899400
  C     57.584900   -2.559440   81.541800
  C     57.642400   -1.198420   81.373800
  C     56.362300   -0.469577   81.574400
  C     55.339400   -1.363670   81.856700
  H     58.652400   -0.906006   81.125000
  C     56.254400    1.030700   81.520500
  H     57.086100    1.426680   82.106400
  H     55.365700    1.329030   82.071000
  C     56.073700    1.629130   80.157200
  H     55.277900    1.072390   79.693600
  H     56.967400    1.433410   79.575200
  C     55.900900    3.078380   80.118600
  H     55.442000    3.188030   79.136200
  H     56.831900    3.606290   80.288700
  H     55.154200    3.496510   80.844800
  H     50.431000   -1.887440   82.427000
  H     58.449200   -3.231310   81.229100

 Total Charge           Charge          ....    0
 Multiplicity           Mult            ....    1
 Number of Electrons    NEL             ....  134
 Basis Dimension        Dim             ....  322

ORBITAL ENERGIES
----------------

  NO   OCC          E(Eh)            E(eV)
   0   2.0000     -88.962674     -2420.7974
   1   2.0000     -88.959548     -2420.7124
   2   2.0000     -10.336593      -281.2730
   3   2.0000     -10.334870      -281.2261
   4   2.0000     -10.321852      -280.8719
   5   2.0000     -10.313086      -280.6333
   6   2.0000     -10.305655      -280.4311
   7   2.0000     -10.298890      -280.2470
   8   2.0000     -10.298660      -280.2408
   9   2.0000     -10.297789      -280.2171
  10   2.0000     -10.296362      -280.1782
  11   2.0000     -10.286563      -279.9116
  12   2.0000     -10.282600      -279.8038
  13   2.0000     -10.281824      -279.7827
  14   2.0000     -10.275544      -279.6118
  15   2.0000     -10.275312      -279.6055
  16   2.0000      -8.077001      -219.7864
  17   2.0000      -8.074835      -219.7274
  18   2.0000      -6.035748      -164.2411
  19   2.0000      -6.033475      -164.1792
  20   2.0000      -6.031525      -164.1261
  21   2.0000      -6.029194      -164.0627
  22   2.0000      -6.027533      -164.0175
  23   2.0000      -6.025465      -163.9612
  24   2.0000      -1.006835       -27.3974
  25   2.0000      -0.983847       -26.7718
  26   2.0000      -0.921267       -25.0690
  27   2.0000      -0.912017       -24.8172
  28   2.0000      -0.872791       -23.7499
  29   2.0000      -0.853395       -23.2221
  30   2.0000      -0.839528       -22.8447
  31   2.0000      -0.821048       -22.3419
  32   2.0000      -0.782429       -21.2910
  33   2.0000      -0.774039       -21.0627
  34   2.0000      -0.711119       -19.3505
  35   2.0000      -0.697525       -18.9806
  36   2.0000      -0.691898       -18.8275
  37   2.0000      -0.656964       -17.8769
  38   2.0000      -0.644958       -17.5502
  39   2.0000      -0.628644       -17.1063
  40   2.0000      -0.594527       -16.1779
  41   2.0000      -0.577336       -15.7101
  42   2.0000      -0.568800       -15.4778
  43   2.0000      -0.566192       -15.4069
  44   2.0000      -0.536772       -14.6063
  45   2.0000      -0.522802       -14.2262
  46   2.0000      -0.516081       -14.0433
  47   2.0000      -0.511027       -13.9058
  48   2.0000      -0.506408       -13.7801
  49   2.0000      -0.502194       -13.6654
  50   2.0000      -0.500265       -13.6129
  51   2.0000      -0.477093       -12.9824
  52   2.0000      -0.471790       -12.8381
  53   2.0000      -0.470214       -12.7952
  54   2.0000      -0.455071       -12.3831
  55   2.0000      -0.446152       -12.1404
  56   2.0000      -0.441318       -12.0089
  57   2.0000      -0.436875       -11.8880
  58   2.0000      -0.430804       -11.7228
  59   2.0000      -0.423434       -11.5222
  60   2.0000      -0.418538       -11.3890
  61   2.0000      -0.412907       -11.2358
  62   2.0000      -0.409254       -11.1364
  63   2.0000      -0.354215        -9.6387
  64   2.0000      -0.328028        -8.9261
  65   2.0000      -0.324495        -8.8300
  66   2.0000      -0.301086        -8.1930
  67   0.0000       0.031829         0.8661
  68   0.0000       0.069340         1.8868
  69   0.0000       0.115853         3.1525
  70   0.0000       0.117536         3.1983
  71   0.0000       0.130184         3.5425

MULLIKEN ATOMIC CHARGES
-----------------------
   0 S :    0.084111
   1 C :   -0.088451
   2 C :   -0.093073
   3 C :    0.039434
   4 C :   -0.153740
   5 H :    0.015996
   6 C :    0.087211
   7 H :    0.011231
   8 H :    0.044414
   9 C :   -0.094062
  10 H :    0.026438
  11 H :    0.021171
  12 C :   -0.054396
  13 H :    0.031180
  14 H :    0.031191
  15 H :    0.032406
  16 S :    0.097238
  17 C :   -0.122956
  18 C :   -0.047554
  19 C :   -0.028861
  20 C :   -0.139800
  21 H :    0.016793
  22 C :    0.082322
  23 H :    0.025409
  24 H :    0.002271
  25 C :   -0.065821
  26 H :    0.027091
  27 H :    0.018314
  28 C :   -0.020758
  29 H :    0.036959
  30 H :    0.036556
  31 H :    0.025522
  32 H :    0.028739
  33 H :    0.087475
Sum of atomic charges:   -0.0000000

LOEWDIN ATOMIC CHARGES
----------------------
   0 S :    0.391427
   1 C :   -0.183432
   2 C :   -0.068124
   3 C :   -0.060348
   4 C :   -0.182480
   5 H :    0.028012
   6 C :   -0.023874
   7 H :    0.024649
   8 H :    0.037935
   9 C :   -0.032134
  10 H :    0.024770
  11 H :    0.010347
  12 C :   -0.069240
  13 H :    0.022392
  14 H :    0.024083
  15 H :    0.025287
  16 S :    0.387968
  17 C :   -0.198702
  18 C :   -0.076636
  19 C :   -0.047567
  20 C :   -0.188790
  21 H :    0.031020
  22 C :   -0.036286
  23 H :    0.031272
  24 H :    0.027864
  25 C :   -0.043518
  26 H :    0.026111
  27 H :    0.024960
  28 C :   -0.064161
  29 H :    0.035619
  30 H :    0.026308
  31 H :    0.025566
  32 H :    0.018658
  33 H :    0.051046

  Mayer bond orders larger than 0.100000
B(  0-S ,  1-C ) :   1.1354 B(  0-S ,  4-C ) :   1.1342 B(  1-C ,  2-C ) :   1.6377
B(  1-C , 32-H ) :   0.9736 B(  2-C ,  3-C ) :   1.2313 B(  2-C ,  6-C ) :   1.0287
B(  3-C ,  4-C ) :   1.6025 B(  3-C ,  5-H ) :   0.9838 B(  4-C , 20-C ) :   1.0251
B(  6-C ,  7-H ) :   0.9464 B(  6-C ,  8-H ) :   0.9431 B(  6-C ,  9-C ) :   1.0428
B(  9-C , 10-H ) :   0.9570 B(  9-C , 11-H ) :   0.9676 B(  9-C , 12-C ) :   1.0733
B( 12-C , 13-H ) :   0.9778 B( 12-C , 14-H ) :   0.9761 B( 12-C , 15-H ) :   0.9772
B( 16-S , 17-C ) :   1.1295 B( 16-S , 20-C ) :   1.1317 B( 17-C , 18-C ) :   1.6739
B( 17-C , 33-H ) :   0.9529 B( 18-C , 19-C ) :   1.1702 B( 18-C , 21-H ) :   0.9896
B( 19-C , 20-C ) :   1.6261 B( 19-C , 22-C ) :   1.0548 B( 22-C , 23-H ) :   0.9284
B( 22-C , 24-H ) :   0.9221 B( 22-C , 25-C ) :   1.0746 B( 25-C , 26-H ) :   0.9534
B( 25-C , 27-H ) :   0.9458 B( 25-C , 28-C ) :   1.0926 B( 28-C , 29-H ) :   0.9709
B( 28-C , 30-H ) :   0.9715 B( 28-C , 31-H ) :   0.9709

Dispersion correction           -0.013304216
FINAL SINGLE POINT ENERGY     -1339.867194281575

DIPOLE MOMENT
-------------
                                X             Y             Z
Electronic contribution:      5.36592     -22.75874     -10.75354
Nuclear contribution   :     -5.29422      23.34114      10.93896
                        -----------------------------------------
Total Dipole Moment    :      0.07169       0.58240       0.18542
                        -----------------------------------------
Magnitude (a.u.)       :      0.61539
Magnitude (Debye)      :      1.56421

Rotational constants in cm-1:     0.017467     0.007806     0.006595
Rotational constants in MHz :   523.643226   234.027815   197.726755

                             ****ORCA TERMINATED NORMALLY****
TOTAL RUN TIME: 0 days 0 hours 0 minutes 29 seconds 207 msec
