                         Program Version 4.2.1 -  RELEASE  -
|  1> ! wB97X-D3 SP def2-SVP
|  2> %pal
|  3> nprocs 16
|  4> end
|  5>
|  6> * xyz 0 1
|  7> S 	 18.6638 	 -10.4152 	 81.5132
|  8> C 	 17.9156 	 -11.5158 	 82.6473
|  9> C 	 17.3491 	 -12.6406 	 81.9848
| 10> C 	 17.4397 	 -12.5387 	 80.5624
| 11> C 	 18.1193 	 -11.4245 	 80.1393
| 12> H 	 17.0589 	 -13.2535 	 79.8628
| 13> C 	 16.4102 	 -13.7081 	 82.6645
| 14> H 	 16.6525 	 -13.7737 	 83.7772
| 15> H 	 16.6653 	 -14.6528 	 82.1975
| 16> C 	 14.9227 	 -13.5245 	 82.3824
| 17> H 	 14.7524 	 -13.4544 	 81.2976
| 18> H 	 14.4132 	 -14.4391 	 82.7052
| 19> C 	 14.3318 	 -12.4092 	 83.1819
| 20> H 	 13.4478 	 -12.044 	 82.5715
| 21> H 	 14.0514 	 -12.773 	 84.1481
| 22> H 	 14.994 	 -11.5759 	 83.182
| 23> S 	 20.1444 	 -10.4645 	 78.4543
| 24> C 	 19.8289 	 -10.5012 	 76.7038
| 25> C 	 18.5269 	 -10.8778 	 76.4174
| 26> C 	 17.8014 	 -11.3335 	 77.5573
| 27> C 	 18.5436 	 -11.1436 	 78.7558
| 28> H 	 18.2795 	 -10.9614 	 75.4207
| 29> C 	 16.4759 	 -11.9868 	 77.4971
| 30> H 	 16.0455 	 -11.4763 	 76.6409
| 31> H 	 15.8034 	 -11.6295 	 78.3384
| 32> C 	 16.4232 	 -13.5072 	 77.3119
| 33> H 	 17.2497 	 -13.8763 	 77.7695
| 34> H 	 16.5586 	 -13.8532 	 76.2577
| 35> C 	 15.2852 	 -14.2884 	 77.934
| 36> H 	 15.4593 	 -15.3245 	 78.0591
| 37> H 	 14.3573 	 -14.0972 	 77.3686
| 38> H 	 15.2068 	 -13.9512 	 78.9251
| 39> H 	 17.8213 	 -11.45 	 83.7027
| 40> H 	 20.68 	 -10.2054 	 76.009
| 41> *
| 42>
| 43>                          ****END OF INPUT****

CARTESIAN COORDINATES (ANGSTROEM)
---------------------------------
  S     18.663800  -10.415200   81.513200
  C     17.915600  -11.515800   82.647300
  C     17.349100  -12.640600   81.984800
  C     17.439700  -12.538700   80.562400
  C     18.119300  -11.424500   80.139300
  H     17.058900  -13.253500   79.862800
  C     16.410200  -13.708100   82.664500
  H     16.652500  -13.773700   83.777200
  H     16.665300  -14.652800   82.197500
  C     14.922700  -13.524500   82.382400
  H     14.752400  -13.454400   81.297600
  H     14.413200  -14.439100   82.705200
  C     14.331800  -12.409200   83.181900
  H     13.447800  -12.044000   82.571500
  H     14.051400  -12.773000   84.148100
  H     14.994000  -11.575900   83.182000
  S     20.144400  -10.464500   78.454300
  C     19.828900  -10.501200   76.703800
  C     18.526900  -10.877800   76.417400
  C     17.801400  -11.333500   77.557300
  C     18.543600  -11.143600   78.755800
  H     18.279500  -10.961400   75.420700
  C     16.475900  -11.986800   77.497100
  H     16.045500  -11.476300   76.640900
  H     15.803400  -11.629500   78.338400
  C     16.423200  -13.507200   77.311900
  H     17.249700  -13.876300   77.769500
  H     16.558600  -13.853200   76.257700
  C     15.285200  -14.288400   77.934000
  H     15.459300  -15.324500   78.059100
  H     14.357300  -14.097200   77.368600
  H     15.206800  -13.951200   78.925100
  H     17.821300  -11.450000   83.702700
  H     20.680000  -10.205400   76.009000

 Total Charge           Charge          ....    0
 Multiplicity           Mult            ....    1
 Number of Electrons    NEL             ....  134
 Basis Dimension        Dim             ....  322

ORBITAL ENERGIES
----------------

  NO   OCC          E(Eh)            E(eV)
   0   2.0000     -88.972149     -2421.0552
   1   2.0000     -88.968222     -2420.9484
   2   2.0000     -10.334286      -281.2102
   3   2.0000     -10.331954      -281.1468
   4   2.0000     -10.326289      -280.9926
   5   2.0000     -10.317407      -280.7509
   6   2.0000     -10.307139      -280.4715
   7   2.0000     -10.306418      -280.4519
   8   2.0000     -10.299230      -280.2563
   9   2.0000     -10.294477      -280.1270
  10   2.0000     -10.294210      -280.1197
  11   2.0000     -10.293902      -280.1113
  12   2.0000     -10.284358      -279.8516
  13   2.0000     -10.281974      -279.7867
  14   2.0000     -10.275502      -279.6106
  15   2.0000     -10.271151      -279.4922
  16   2.0000      -8.085800      -220.0258
  17   2.0000      -8.082269      -219.9297
  18   2.0000      -6.044489      -164.4789
  19   2.0000      -6.040696      -164.3757
  20   2.0000      -6.040440      -164.3687
  21   2.0000      -6.036921      -164.2730
  22   2.0000      -6.036466      -164.2606
  23   2.0000      -6.033117      -164.1695
  24   2.0000      -1.001151       -27.2427
  25   2.0000      -0.978357       -26.6225
  26   2.0000      -0.916374       -24.9358
  27   2.0000      -0.912182       -24.8217
  28   2.0000      -0.866746       -23.5854
  29   2.0000      -0.860591       -23.4179
  30   2.0000      -0.848549       -23.0902
  31   2.0000      -0.815281       -22.1849
  32   2.0000      -0.784245       -21.3404
  33   2.0000      -0.771045       -20.9812
  34   2.0000      -0.712954       -19.4005
  35   2.0000      -0.695534       -18.9264
  36   2.0000      -0.689893       -18.7729
  37   2.0000      -0.664640       -18.0858
  38   2.0000      -0.638692       -17.3797
  39   2.0000      -0.623672       -16.9710
  40   2.0000      -0.597050       -16.2466
  41   2.0000      -0.572437       -15.5768
  42   2.0000      -0.567125       -15.4323
  43   2.0000      -0.551531       -15.0079
  44   2.0000      -0.545316       -14.8388
  45   2.0000      -0.531563       -14.4646
  46   2.0000      -0.523507       -14.2454
  47   2.0000      -0.515236       -14.0203
  48   2.0000      -0.506692       -13.7878
  49   2.0000      -0.496078       -13.4990
  50   2.0000      -0.484698       -13.1893
  51   2.0000      -0.483177       -13.1479
  52   2.0000      -0.474338       -12.9074
  53   2.0000      -0.461665       -12.5626
  54   2.0000      -0.459998       -12.5172
  55   2.0000      -0.451929       -12.2976
  56   2.0000      -0.447457       -12.1759
  57   2.0000      -0.438367       -11.9286
  58   2.0000      -0.432811       -11.7774
  59   2.0000      -0.428230       -11.6527
  60   2.0000      -0.423247       -11.5171
  61   2.0000      -0.411247       -11.1906
  62   2.0000      -0.410208       -11.1623
  63   2.0000      -0.356128        -9.6907
  64   2.0000      -0.335765        -9.1366
  65   2.0000      -0.330257        -8.9867
  66   2.0000      -0.283417        -7.7122
  67   0.0000       0.022551         0.6136
  68   0.0000       0.068525         1.8647
  69   0.0000       0.103997         2.8299
  70   0.0000       0.120859         3.2887
  71   0.0000       0.125254         3.4083

MULLIKEN ATOMIC CHARGES
-----------------------
   0 S :    0.114253
   1 C :   -0.093160
   2 C :   -0.089466
   3 C :    0.027470
   4 C :   -0.119531
   5 H :   -0.032285
   6 C :    0.028805
   7 H :    0.035286
   8 H :    0.023154
   9 C :   -0.085485
  10 H :    0.038076
  11 H :    0.027331
  12 C :   -0.022065
  13 H :    0.031598
  14 H :    0.033467
  15 H :    0.025134
  16 S :    0.100715
  17 C :   -0.141313
  18 C :    0.021255
  19 C :   -0.059524
  20 C :   -0.137927
  21 H :   -0.005671
  22 C :    0.040519
  23 H :    0.019121
  24 H :    0.044966
  25 C :   -0.037241
  26 H :    0.006087
  27 H :    0.028093
  28 C :   -0.007237
  29 H :    0.028243
  30 H :    0.040218
  31 H :   -0.007351
  32 H :    0.036253
  33 H :    0.088213
Sum of atomic charges:   -0.0000000

LOEWDIN ATOMIC CHARGES
----------------------
   0 S :    0.393611
   1 C :   -0.200382
   2 C :   -0.057841
   3 C :   -0.063788
   4 C :   -0.173021
   5 H :    0.027680
   6 C :   -0.033031
   7 H :    0.034267
   8 H :    0.027448
   9 C :   -0.047096
  10 H :    0.022439
  11 H :    0.026368
  12 C :   -0.061902
  13 H :    0.036456
  14 H :    0.023182
  15 H :    0.018973
  16 S :    0.387421
  17 C :   -0.182684
  18 C :   -0.061372
  19 C :   -0.056541
  20 C :   -0.189994
  21 H :    0.021657
  22 C :   -0.043220
  23 H :    0.033229
  24 H :    0.041914
  25 C :   -0.041347
  26 H :    0.008525
  27 H :    0.031174
  28 C :   -0.055842
  29 H :    0.026233
  30 H :    0.029901
  31 H :    0.011632
  32 H :    0.023110
  33 H :    0.042841

  Mayer bond orders larger than 0.100000
B(  0-S ,  1-C ) :   1.1339 B(  0-S ,  4-C ) :   1.1319 B(  1-C ,  2-C ) :   1.6050
B(  1-C , 32-H ) :   0.9672 B(  2-C ,  3-C ) :   1.2341 B(  2-C ,  6-C ) :   1.0280
B(  3-C ,  4-C ) :   1.5703 B(  3-C ,  5-H ) :   0.9920 B(  4-C , 20-C ) :   1.0657
B(  6-C ,  7-H ) :   0.9475 B(  6-C ,  8-H ) :   0.9347 B(  6-C ,  9-C ) :   1.0740
B(  9-C , 10-H ) :   0.9530 B(  9-C , 11-H ) :   0.9509 B(  9-C , 12-C ) :   1.0767
B( 12-C , 13-H ) :   0.9712 B( 12-C , 14-H ) :   0.9763 B( 12-C , 15-H ) :   0.9769
B( 16-S , 17-C ) :   1.1513 B( 16-S , 20-C ) :   1.1456 B( 17-C , 18-C ) :   1.5946
B( 17-C , 33-H ) :   0.9592 B( 18-C , 19-C ) :   1.2492 B( 18-C , 21-H ) :   1.0031
B( 19-C , 20-C ) :   1.5528 B( 19-C , 22-C ) :   1.0662 B( 22-C , 23-H ) :   0.9218
B( 22-C , 24-H ) :   0.9307 B( 22-C , 25-C ) :   1.0381 B( 25-C , 26-H ) :   0.9546
B( 25-C , 27-H ) :   0.9437 B( 25-C , 28-C ) :   1.0960 B( 28-C , 29-H ) :   0.9671
B( 28-C , 30-H ) :   0.9716 B( 28-C , 31-H ) :   0.9696

Dispersion correction           -0.015603058
FINAL SINGLE POINT ENERGY     -1339.866877634292

DIPOLE MOMENT
-------------
                                X             Y             Z
Electronic contribution:     25.51558      18.17936      -2.20432
Nuclear contribution   :    -25.97241     -18.68470       1.97217
                        -----------------------------------------
Total Dipole Moment    :     -0.45683      -0.50534      -0.23215
                        -----------------------------------------
Magnitude (a.u.)       :      0.71969
Magnitude (Debye)      :      1.82931

Rotational constants in cm-1:     0.019123     0.010027     0.007048
Rotational constants in MHz :   573.304704   300.613082   211.306496

                             ****ORCA TERMINATED NORMALLY****
TOTAL RUN TIME: 0 days 0 hours 0 minutes 31 seconds 109 msec
