                         Program Version 4.2.1 -  RELEASE  -
|  1> ! wB97X-D3 SP def2-SVP
|  2> %pal
|  3> nprocs 16
|  4> end
|  5>
|  6> * xyz 0 1
|  7> S 	 -3.98139 	 40.9502 	 34.3494
|  8> C 	 -4.7943 	 39.5214 	 34.8057
|  9> C 	 -5.86287 	 39.7459 	 35.6756
| 10> C 	 -5.91508 	 41.134 	 36.0636
| 11> C 	 -4.96241 	 41.918 	 35.4786
| 12> H 	 -6.60575 	 41.5445 	 36.7871
| 13> C 	 -6.7552 	 38.685 	 36.3341
| 14> H 	 -7.17463 	 37.9627 	 35.5935
| 15> H 	 -7.52273 	 39.3028 	 36.7462
| 16> C 	 -5.99901 	 37.8989 	 37.4237
| 17> H 	 -5.2663 	 37.1989 	 37.0073
| 18> H 	 -5.36663 	 38.6037 	 38.0041
| 19> C 	 -7.10006 	 37.1848 	 38.2497
| 20> H 	 -6.68131 	 36.7641 	 39.1402
| 21> H 	 -7.85807 	 37.8297 	 38.589
| 22> H 	 -7.58711 	 36.3988 	 37.6824
| 23> S 	 -4.42097 	 43.7196 	 37.4378
| 24> C 	 -3.62654 	 45.1326 	 37.1186
| 25> C 	 -3.54148 	 45.4349 	 35.8035
| 26> C 	 -4.13177 	 44.4054 	 35.0382
| 27> C 	 -4.68145 	 43.3272 	 35.7488
| 28> H 	 -3.04606 	 46.3633 	 35.4536
| 29> C 	 -4.22408 	 44.5283 	 33.5222
| 30> H 	 -4.83833 	 43.6838 	 33.1899
| 31> H 	 -3.31744 	 44.3671 	 32.9455
| 32> C 	 -4.98236 	 45.8725 	 32.9789
| 33> H 	 -4.41703 	 46.7916 	 33.1026
| 34> H 	 -5.8921 	 46.0813 	 33.5236
| 35> C 	 -5.32871 	 45.8854 	 31.4412
| 36> H 	 -5.54659 	 46.862 	 30.984
| 37> H 	 -6.10638 	 45.1359 	 31.1599
| 38> H 	 -4.42143 	 45.6987 	 30.8788
| 39> H 	 -4.47962 	 38.549 	 34.3524
| 40> H 	 -3.38224 	 45.8756 	 37.911
| 41> *
| 42>
| 43>                          ****END OF INPUT****

CARTESIAN COORDINATES (ANGSTROEM)
---------------------------------
  S     -3.981390   40.950200   34.349400
  C     -4.794300   39.521400   34.805700
  C     -5.862870   39.745900   35.675600
  C     -5.915080   41.134000   36.063600
  C     -4.962410   41.918000   35.478600
  H     -6.605750   41.544500   36.787100
  C     -6.755200   38.685000   36.334100
  H     -7.174630   37.962700   35.593500
  H     -7.522730   39.302800   36.746200
  C     -5.999010   37.898900   37.423700
  H     -5.266300   37.198900   37.007300
  H     -5.366630   38.603700   38.004100
  C     -7.100060   37.184800   38.249700
  H     -6.681310   36.764100   39.140200
  H     -7.858070   37.829700   38.589000
  H     -7.587110   36.398800   37.682400
  S     -4.420970   43.719600   37.437800
  C     -3.626540   45.132600   37.118600
  C     -3.541480   45.434900   35.803500
  C     -4.131770   44.405400   35.038200
  C     -4.681450   43.327200   35.748800
  H     -3.046060   46.363300   35.453600
  C     -4.224080   44.528300   33.522200
  H     -4.838330   43.683800   33.189900
  H     -3.317440   44.367100   32.945500
  C     -4.982360   45.872500   32.978900
  H     -4.417030   46.791600   33.102600
  H     -5.892100   46.081300   33.523600
  C     -5.328710   45.885400   31.441200
  H     -5.546590   46.862000   30.984000
  H     -6.106380   45.135900   31.159900
  H     -4.421430   45.698700   30.878800
  H     -4.479620   38.549000   34.352400
  H     -3.382240   45.875600   37.911000

 Total Charge           Charge          ....    0
 Multiplicity           Mult            ....    1
 Number of Electrons    NEL             ....  134
 Basis Dimension        Dim             ....  322

ORBITAL ENERGIES
----------------

  NO   OCC          E(Eh)            E(eV)
   0   2.0000     -88.965639     -2420.8781
   1   2.0000     -88.961393     -2420.7626
   2   2.0000     -10.331463      -281.1334
   3   2.0000     -10.326383      -280.9952
   4   2.0000     -10.315003      -280.6855
   5   2.0000     -10.310822      -280.5717
   6   2.0000     -10.305638      -280.4307
   7   2.0000     -10.301879      -280.3284
   8   2.0000     -10.294510      -280.1279
   9   2.0000     -10.293832      -280.1094
  10   2.0000     -10.293283      -280.0945
  11   2.0000     -10.291263      -280.0395
  12   2.0000     -10.290354      -280.0148
  13   2.0000     -10.290268      -280.0124
  14   2.0000     -10.279891      -279.7300
  15   2.0000     -10.272105      -279.5182
  16   2.0000      -8.080563      -219.8833
  17   2.0000      -8.078434      -219.8254
  18   2.0000      -6.039020      -164.3301
  19   2.0000      -6.036659      -164.2659
  20   2.0000      -6.035012      -164.2210
  21   2.0000      -6.032468      -164.1518
  22   2.0000      -6.031403      -164.1228
  23   2.0000      -6.029470      -164.0702
  24   2.0000      -1.014696       -27.6113
  25   2.0000      -0.990431       -26.9510
  26   2.0000      -0.909913       -24.7600
  27   2.0000      -0.892837       -24.2953
  28   2.0000      -0.873057       -23.7571
  29   2.0000      -0.850626       -23.1467
  30   2.0000      -0.845308       -23.0020
  31   2.0000      -0.814469       -22.1628
  32   2.0000      -0.778583       -21.1863
  33   2.0000      -0.765269       -20.8240
  34   2.0000      -0.706747       -19.2316
  35   2.0000      -0.703207       -19.1352
  36   2.0000      -0.693416       -18.8688
  37   2.0000      -0.659693       -17.9511
  38   2.0000      -0.639589       -17.4041
  39   2.0000      -0.618429       -16.8283
  40   2.0000      -0.598265       -16.2796
  41   2.0000      -0.568884       -15.4801
  42   2.0000      -0.562020       -15.2933
  43   2.0000      -0.550198       -14.9717
  44   2.0000      -0.524286       -14.2666
  45   2.0000      -0.516562       -14.0564
  46   2.0000      -0.513849       -13.9825
  47   2.0000      -0.506124       -13.7723
  48   2.0000      -0.505265       -13.7490
  49   2.0000      -0.501110       -13.6359
  50   2.0000      -0.482597       -13.1321
  51   2.0000      -0.481306       -13.0970
  52   2.0000      -0.470319       -12.7980
  53   2.0000      -0.463153       -12.6030
  54   2.0000      -0.458213       -12.4686
  55   2.0000      -0.455985       -12.4080
  56   2.0000      -0.450882       -12.2691
  57   2.0000      -0.437808       -11.9134
  58   2.0000      -0.425932       -11.5902
  59   2.0000      -0.423365       -11.5203
  60   2.0000      -0.417345       -11.3565
  61   2.0000      -0.416157       -11.3242
  62   2.0000      -0.412484       -11.2243
  63   2.0000      -0.354742        -9.6530
  64   2.0000      -0.331572        -9.0225
  65   2.0000      -0.329218        -8.9585
  66   2.0000      -0.288759        -7.8575
  67   0.0000       0.030928         0.8416
  68   0.0000       0.073044         1.9876
  69   0.0000       0.109576         2.9817
  70   0.0000       0.119230         3.2444
  71   0.0000       0.134668         3.6645

MULLIKEN ATOMIC CHARGES
-----------------------
   0 S :    0.121306
   1 C :   -0.154252
   2 C :   -0.081661
   3 C :   -0.001011
   4 C :   -0.114972
   5 H :    0.015087
   6 C :    0.064358
   7 H :    0.041525
   8 H :    0.015127
   9 C :   -0.082830
  10 H :    0.033414
  11 H :    0.036233
  12 C :   -0.011714
  13 H :    0.024797
  14 H :    0.017095
  15 H :    0.028288
  16 S :    0.107836
  17 C :   -0.091285
  18 C :   -0.037774
  19 C :   -0.079679
  20 C :   -0.129886
  21 H :    0.033627
  22 C :    0.060867
  23 H :    0.017460
  24 H :    0.035640
  25 C :   -0.080183
  26 H :    0.024604
  27 H :    0.034291
  28 C :   -0.080585
  29 H :    0.031410
  30 H :    0.048216
  31 H :    0.018952
  32 H :    0.065400
  33 H :    0.070300
Sum of atomic charges:    0.0000000

LOEWDIN ATOMIC CHARGES
----------------------
   0 S :    0.413798
   1 C :   -0.214822
   2 C :   -0.065679
   3 C :   -0.067160
   4 C :   -0.186851
   5 H :    0.030871
   6 C :   -0.028578
   7 H :    0.035942
   8 H :    0.024981
   9 C :   -0.036557
  10 H :    0.024919
  11 H :    0.027501
  12 C :   -0.059361
  13 H :    0.022620
  14 H :    0.018576
  15 H :    0.026570
  16 S :    0.451464
  17 C :   -0.213384
  18 C :   -0.084075
  19 C :   -0.057349
  20 C :   -0.206801
  21 H :    0.041933
  22 C :   -0.034592
  23 H :    0.026168
  24 H :    0.029662
  25 C :   -0.037643
  26 H :    0.019733
  27 H :    0.022745
  28 C :   -0.077737
  29 H :    0.029023
  30 H :    0.028470
  31 H :    0.021946
  32 H :    0.034812
  33 H :    0.038855

  Mayer bond orders larger than 0.100000
B(  0-S ,  1-C ) :   1.1631 B(  0-S ,  4-C ) :   1.1311 B(  1-C ,  2-C ) :   1.5855
B(  1-C , 32-H ) :   0.9653 B(  2-C ,  3-C ) :   1.2454 B(  2-C ,  6-C ) :   1.0211
B(  3-C ,  4-C ) :   1.5681 B(  3-C ,  5-H ) :   0.9956 B(  4-C , 20-C ) :   1.0517
B(  6-C ,  7-H ) :   0.9387 B(  6-C ,  8-H ) :   0.9457 B(  6-C ,  9-C ) :   1.0590
B(  9-C , 10-H ) :   0.9553 B(  9-C , 11-H ) :   0.9594 B(  9-C , 12-C ) :   1.0738
B( 12-C , 13-H ) :   0.9735 B( 12-C , 14-H ) :   0.9777 B( 12-C , 15-H ) :   0.9733
B( 16-S , 17-C ) :   1.2150 B( 16-S , 20-C ) :   1.1362 B( 17-C , 18-C ) :   1.5607
B( 17-C , 33-H ) :   0.9530 B( 18-C , 19-C ) :   1.2751 B( 18-C , 21-H ) :   0.9958
B( 19-C , 20-C ) :   1.5577 B( 19-C , 22-C ) :   1.0455 B( 22-C , 23-H ) :   0.9424
B( 22-C , 24-H ) :   0.9392 B( 22-C , 25-C ) :   1.0364 B( 25-C , 26-H ) :   0.9584
B( 25-C , 27-H ) :   0.9634 B( 25-C , 28-C ) :   1.0796 B( 28-C , 29-H ) :   0.9747
B( 28-C , 30-H ) :   0.9786 B( 28-C , 31-H ) :   0.9728

Dispersion correction           -0.013530073
FINAL SINGLE POINT ENERGY     -1339.876534276801

DIPOLE MOMENT
-------------
                                X             Y             Z
Electronic contribution:     10.14597       4.45031       5.88348
Nuclear contribution   :    -10.22814      -4.47990      -5.83344
                        -----------------------------------------
Total Dipole Moment    :     -0.08218      -0.02959       0.05004
                        -----------------------------------------
Magnitude (a.u.)       :      0.10066
Magnitude (Debye)      :      0.25585

Rotational constants in cm-1:     0.023265     0.006904     0.005864
Rotational constants in MHz :   697.465571   206.982809   175.801217

                             ****ORCA TERMINATED NORMALLY****
TOTAL RUN TIME: 0 days 0 hours 0 minutes 31 seconds 182 msec
