                         Program Version 4.2.1 -  RELEASE  -
|  1> ! wB97X-D3 SP def2-SVP
|  2> %pal
|  3> nprocs 16
|  4> end
|  5>
|  6> * xyz 0 1
|  7> S 	 -108.099 	 58.2757 	 116.464
|  8> C 	 -108.097 	 58.7216 	 114.774
|  9> C 	 -107.605 	 57.7282 	 113.945
| 10> C 	 -107.129 	 56.6201 	 114.721
| 11> C 	 -107.325 	 56.7476 	 116.075
| 12> H 	 -106.734 	 55.6989 	 114.34
| 13> C 	 -107.597 	 57.7919 	 112.434
| 14> H 	 -106.564 	 57.8226 	 112.17
| 15> H 	 -108.086 	 58.7368 	 112.163
| 16> C 	 -108.22 	 56.723 	 111.689
| 17> H 	 -108.014 	 56.8442 	 110.65
| 18> H 	 -107.7 	 55.8573 	 111.973
| 19> C 	 -109.669 	 56.4961 	 111.907
| 20> H 	 -109.932 	 56.2315 	 112.947
| 21> H 	 -110.302 	 57.3312 	 111.621
| 22> H 	 -110.001 	 55.6375 	 111.405
| 23> S 	 -105.92 	 55.8236 	 118.33
| 24> C 	 -106.077 	 54.1766 	 118.809
| 25> C 	 -107.09 	 53.5958 	 118.049
| 26> C 	 -107.708 	 54.4488 	 117.143
| 27> C 	 -107.122 	 55.6896 	 117.082
| 28> H 	 -107.232 	 52.598 	 118.174
| 29> C 	 -108.749 	 53.8801 	 116.208
| 30> H 	 -109.167 	 54.5598 	 115.404
| 31> H 	 -109.602 	 53.5217 	 116.754
| 32> C 	 -108.128 	 52.7892 	 115.354
| 33> H 	 -107.704 	 51.9947 	 115.98
| 34> H 	 -107.249 	 53.1639 	 114.807
| 35> C 	 -109.074 	 52.2243 	 114.269
| 36> H 	 -108.696 	 51.4308 	 113.662
| 37> H 	 -109.596 	 52.9826 	 113.525
| 38> H 	 -109.939 	 51.7486 	 114.712
| 39> H 	 -108.59 	 59.5888 	 114.366
| 40> H 	 -105.371 	 53.714 	 119.563
| 41> *
| 42>
| 43>                          ****END OF INPUT****

CARTESIAN COORDINATES (ANGSTROEM)
---------------------------------
  S    -108.099000   58.275700  116.464000
  C    -108.097000   58.721600  114.774000
  C    -107.605000   57.728200  113.945000
  C    -107.129000   56.620100  114.721000
  C    -107.325000   56.747600  116.075000
  H    -106.734000   55.698900  114.340000
  C    -107.597000   57.791900  112.434000
  H    -106.564000   57.822600  112.170000
  H    -108.086000   58.736800  112.163000
  C    -108.220000   56.723000  111.689000
  H    -108.014000   56.844200  110.650000
  H    -107.700000   55.857300  111.973000
  C    -109.669000   56.496100  111.907000
  H    -109.932000   56.231500  112.947000
  H    -110.302000   57.331200  111.621000
  H    -110.001000   55.637500  111.405000
  S    -105.920000   55.823600  118.330000
  C    -106.077000   54.176600  118.809000
  C    -107.090000   53.595800  118.049000
  C    -107.708000   54.448800  117.143000
  C    -107.122000   55.689600  117.082000
  H    -107.232000   52.598000  118.174000
  C    -108.749000   53.880100  116.208000
  H    -109.167000   54.559800  115.404000
  H    -109.602000   53.521700  116.754000
  C    -108.128000   52.789200  115.354000
  H    -107.704000   51.994700  115.980000
  H    -107.249000   53.163900  114.807000
  C    -109.074000   52.224300  114.269000
  H    -108.696000   51.430800  113.662000
  H    -109.596000   52.982600  113.525000
  H    -109.939000   51.748600  114.712000
  H    -108.590000   59.588800  114.366000
  H    -105.371000   53.714000  119.563000

 Total Charge           Charge          ....    0
 Multiplicity           Mult            ....    1
 Number of Electrons    NEL             ....  134
 Basis Dimension        Dim             ....  322

ORBITAL ENERGIES
----------------

  NO   OCC          E(Eh)            E(eV)
   0   2.0000     -88.965363     -2420.8706
   1   2.0000     -88.962917     -2420.8040
   2   2.0000     -10.328412      -281.0504
   3   2.0000     -10.323529      -280.9175
   4   2.0000     -10.322303      -280.8842
   5   2.0000     -10.311251      -280.5834
   6   2.0000     -10.299476      -280.2630
   7   2.0000     -10.299085      -280.2523
   8   2.0000     -10.292808      -280.0816
   9   2.0000     -10.292088      -280.0620
  10   2.0000     -10.290428      -280.0168
  11   2.0000     -10.285189      -279.8742
  12   2.0000     -10.285172      -279.8738
  13   2.0000     -10.283971      -279.8411
  14   2.0000     -10.271972      -279.5146
  15   2.0000     -10.269324      -279.4425
  16   2.0000      -8.080018      -219.8685
  17   2.0000      -8.078578      -219.8293
  18   2.0000      -6.038502      -164.3160
  19   2.0000      -6.036896      -164.2723
  20   2.0000      -6.034583      -164.2093
  21   2.0000      -6.032737      -164.1591
  22   2.0000      -6.030773      -164.1057
  23   2.0000      -6.029702      -164.0765
  24   2.0000      -1.010516       -27.4975
  25   2.0000      -0.988164       -26.8893
  26   2.0000      -0.929615       -25.2961
  27   2.0000      -0.913195       -24.8493
  28   2.0000      -0.869959       -23.6728
  29   2.0000      -0.851224       -23.1630
  30   2.0000      -0.847795       -23.0697
  31   2.0000      -0.816281       -22.2121
  32   2.0000      -0.789642       -21.4873
  33   2.0000      -0.776723       -21.1357
  34   2.0000      -0.709653       -19.3106
  35   2.0000      -0.700646       -19.0655
  36   2.0000      -0.691859       -18.8264
  37   2.0000      -0.663814       -18.0633
  38   2.0000      -0.640964       -17.4415
  39   2.0000      -0.625907       -17.0318
  40   2.0000      -0.606298       -16.4982
  41   2.0000      -0.572663       -15.5830
  42   2.0000      -0.568934       -15.4815
  43   2.0000      -0.560158       -15.2427
  44   2.0000      -0.549981       -14.9657
  45   2.0000      -0.524249       -14.2655
  46   2.0000      -0.519564       -14.1381
  47   2.0000      -0.514813       -14.0088
  48   2.0000      -0.509682       -13.8692
  49   2.0000      -0.493980       -13.4419
  50   2.0000      -0.489010       -13.3066
  51   2.0000      -0.478553       -13.0221
  52   2.0000      -0.474928       -12.9234
  53   2.0000      -0.463704       -12.6180
  54   2.0000      -0.460469       -12.5300
  55   2.0000      -0.452264       -12.3067
  56   2.0000      -0.443810       -12.0767
  57   2.0000      -0.442763       -12.0482
  58   2.0000      -0.434079       -11.8119
  59   2.0000      -0.425473       -11.5777
  60   2.0000      -0.422569       -11.4987
  61   2.0000      -0.415473       -11.3056
  62   2.0000      -0.410525       -11.1710
  63   2.0000      -0.337856        -9.1935
  64   2.0000      -0.331708        -9.0262
  65   2.0000      -0.330065        -8.9815
  66   2.0000      -0.302072        -8.2198
  67   0.0000       0.041920         1.1407
  68   0.0000       0.061229         1.6661
  69   0.0000       0.114353         3.1117
  70   0.0000       0.124040         3.3753
  71   0.0000       0.130688         3.5562

MULLIKEN ATOMIC CHARGES
-----------------------
   0 S :    0.116915
   1 C :   -0.116683
   2 C :   -0.116531
   3 C :    0.035740
   4 C :   -0.150059
   5 H :    0.001215
   6 C :    0.120863
   7 H :    0.028265
   8 H :    0.003179
   9 C :   -0.030542
  10 H :    0.020241
  11 H :    0.000272
  12 C :   -0.028838
  13 H :    0.031362
  14 H :    0.025358
  15 H :    0.014311
  16 S :    0.112670
  17 C :   -0.124466
  18 C :   -0.024740
  19 C :    0.029501
  20 C :   -0.185123
  21 H :   -0.016517
  22 C :    0.072116
  23 H :    0.036519
  24 H :    0.029207
  25 C :   -0.096342
  26 H :    0.028804
  27 H :    0.031815
  28 C :   -0.064036
  29 H :    0.029681
  30 H :    0.040790
  31 H :    0.016990
  32 H :    0.040620
  33 H :    0.087445
Sum of atomic charges:   -0.0000000

LOEWDIN ATOMIC CHARGES
----------------------
   0 S :    0.404150
   1 C :   -0.197195
   2 C :   -0.060402
   3 C :   -0.058080
   4 C :   -0.188472
   5 H :    0.026561
   6 C :   -0.025550
   7 H :    0.034293
   8 H :    0.027187
   9 C :   -0.043273
  10 H :    0.026882
  11 H :    0.018283
  12 C :   -0.060315
  13 H :    0.029108
  14 H :    0.024291
  15 H :    0.020250
  16 S :    0.425419
  17 C :   -0.197482
  18 C :   -0.066569
  19 C :   -0.054226
  20 C :   -0.210968
  21 H :    0.013771
  22 C :   -0.030791
  23 H :    0.038012
  24 H :    0.029304
  25 C :   -0.042152
  26 H :    0.022698
  27 H :    0.024976
  28 C :   -0.079432
  29 H :    0.022217
  30 H :    0.036412
  31 H :    0.020611
  32 H :    0.024945
  33 H :    0.045536

  Mayer bond orders larger than 0.100000
B(  0-S ,  1-C ) :   1.1388 B(  0-S ,  4-C ) :   1.1549 B(  1-C ,  2-C ) :   1.6296
B(  1-C , 32-H ) :   0.9621 B(  2-C ,  3-C ) :   1.2164 B(  2-C ,  6-C ) :   1.0187
B(  3-C ,  4-C ) :   1.6009 B(  3-C ,  5-H ) :   1.0001 B(  4-C , 20-C ) :   1.0043
B(  6-C ,  7-H ) :   0.9261 B(  6-C ,  8-H ) :   0.9340 B(  6-C ,  9-C ) :   1.1011
B(  9-C , 10-H ) :   0.9432 B(  9-C , 11-H ) :   0.9402 B(  9-C , 12-C ) :   1.0949
B( 12-C , 13-H ) :   0.9678 B( 12-C , 14-H ) :   0.9714 B( 12-C , 15-H ) :   0.9670
B( 16-S , 17-C ) :   1.1867 B( 16-S , 20-C ) :   1.1607 B( 17-C , 18-C ) :   1.5554
B( 17-C , 20-C ) :   0.1040 B( 17-C , 33-H ) :   0.9630 B( 18-C , 19-C ) :   1.2533
B( 18-C , 21-H ) :   1.0148 B( 19-C , 20-C ) :   1.5753 B( 19-C , 22-C ) :   1.0474
B( 22-C , 23-H ) :   0.9390 B( 22-C , 24-H ) :   0.9295 B( 22-C , 25-C ) :   1.0540
B( 25-C , 26-H ) :   0.9504 B( 25-C , 27-H ) :   0.9549 B( 25-C , 28-C ) :   1.0789
B( 28-C , 29-H ) :   0.9747 B( 28-C , 30-H ) :   0.9717 B( 28-C , 31-H ) :   0.9713

Dispersion correction           -0.015548248
FINAL SINGLE POINT ENERGY     -1339.878819336205

DIPOLE MOMENT
-------------
                                X             Y             Z
Electronic contribution:     11.76434      14.97518      25.61507
Nuclear contribution   :    -11.91046     -15.57972     -26.19168
                        -----------------------------------------
Total Dipole Moment    :     -0.14612      -0.60454      -0.57661
                        -----------------------------------------
Magnitude (a.u.)       :      0.84811
Magnitude (Debye)      :      2.15573

Rotational constants in cm-1:     0.017593     0.010495     0.007256
Rotational constants in MHz :   527.427801   314.637299   217.517815

                             ****ORCA TERMINATED NORMALLY****
TOTAL RUN TIME: 0 days 0 hours 0 minutes 37 seconds 111 msec
