                         Program Version 4.2.1 -  RELEASE  -
|  1> ! wB97X-D3 SP def2-SVP
|  2> %pal
|  3> nprocs 16
|  4> end
|  5>
|  6> * xyz 0 1
|  7> S 	 -53.8918 	 32.8825 	 89.4029
|  8> C 	 -54.9574 	 31.6272 	 88.8697
|  9> C 	 -56.2345 	 32.0971 	 88.5762
| 10> C 	 -56.2922 	 33.476 	 88.8505
| 11> C 	 -55.1435 	 34.1121 	 89.1835
| 12> H 	 -57.1783 	 34.0785 	 88.9323
| 13> C 	 -57.4888 	 31.2694 	 88.2833
| 14> H 	 -57.2539 	 30.2106 	 87.9883
| 15> H 	 -57.8875 	 31.6097 	 87.3556
| 16> C 	 -58.5339 	 31.3015 	 89.3852
| 17> H 	 -58.9104 	 32.3137 	 89.3477
| 18> H 	 -59.2643 	 30.6473 	 88.988
| 19> C 	 -58.0903 	 30.732 	 90.7648
| 20> H 	 -57.4955 	 31.4053 	 91.3557
| 21> H 	 -58.8995 	 30.5081 	 91.3811
| 22> H 	 -57.5627 	 29.7821 	 90.7091
| 23> S 	 -53.3746 	 36.2563 	 88.4842
| 24> C 	 -53.9362 	 37.8699 	 88.7012
| 25> C 	 -54.9509 	 37.8975 	 89.6475
| 26> C 	 -55.5024 	 36.5997 	 89.8369
| 27> C 	 -54.781 	 35.5372 	 89.2806
| 28> H 	 -55.3269 	 38.7576 	 90.0174
| 29> C 	 -56.7755 	 36.5227 	 90.7306
| 30> H 	 -56.7232 	 37.3513 	 91.4233
| 31> H 	 -56.7184 	 35.6349 	 91.292
| 32> C 	 -58.1173 	 36.6132 	 89.9158
| 33> H 	 -58.2487 	 35.6687 	 89.3683
| 34> H 	 -58.0258 	 37.4138 	 89.2091
| 35> C 	 -59.3241 	 36.8983 	 90.7599
| 36> H 	 -59.5737 	 36.1389 	 91.5
| 37> H 	 -60.2842 	 36.9903 	 90.1392
| 38> H 	 -59.29 	 37.8585 	 91.3776
| 39> H 	 -54.7313 	 30.5551 	 88.8905
| 40> H 	 -53.4144 	 38.7817 	 88.437
| 41> *
| 42>
| 43>                          ****END OF INPUT****

CARTESIAN COORDINATES (ANGSTROEM)
---------------------------------
  S    -53.891800   32.882500   89.402900
  C    -54.957400   31.627200   88.869700
  C    -56.234500   32.097100   88.576200
  C    -56.292200   33.476000   88.850500
  C    -55.143500   34.112100   89.183500
  H    -57.178300   34.078500   88.932300
  C    -57.488800   31.269400   88.283300
  H    -57.253900   30.210600   87.988300
  H    -57.887500   31.609700   87.355600
  C    -58.533900   31.301500   89.385200
  H    -58.910400   32.313700   89.347700
  H    -59.264300   30.647300   88.988000
  C    -58.090300   30.732000   90.764800
  H    -57.495500   31.405300   91.355700
  H    -58.899500   30.508100   91.381100
  H    -57.562700   29.782100   90.709100
  S    -53.374600   36.256300   88.484200
  C    -53.936200   37.869900   88.701200
  C    -54.950900   37.897500   89.647500
  C    -55.502400   36.599700   89.836900
  C    -54.781000   35.537200   89.280600
  H    -55.326900   38.757600   90.017400
  C    -56.775500   36.522700   90.730600
  H    -56.723200   37.351300   91.423300
  H    -56.718400   35.634900   91.292000
  C    -58.117300   36.613200   89.915800
  H    -58.248700   35.668700   89.368300
  H    -58.025800   37.413800   89.209100
  C    -59.324100   36.898300   90.759900
  H    -59.573700   36.138900   91.500000
  H    -60.284200   36.990300   90.139200
  H    -59.290000   37.858500   91.377600
  H    -54.731300   30.555100   88.890500
  H    -53.414400   38.781700   88.437000

 Total Charge           Charge          ....    0
 Multiplicity           Mult            ....    1
 Number of Electrons    NEL             ....  134
 Basis Dimension        Dim             ....  322

ORBITAL ENERGIES
----------------

  NO   OCC          E(Eh)            E(eV)
   0   2.0000     -88.967387     -2420.9257
   1   2.0000     -88.963329     -2420.8153
   2   2.0000     -10.331713      -281.1402
   3   2.0000     -10.330043      -281.0947
   4   2.0000     -10.317834      -280.7625
   5   2.0000     -10.314383      -280.6686
   6   2.0000     -10.303740      -280.3790
   7   2.0000     -10.299481      -280.2631
   8   2.0000     -10.293351      -280.0963
   9   2.0000     -10.290264      -280.0123
  10   2.0000     -10.289830      -280.0005
  11   2.0000     -10.288547      -279.9656
  12   2.0000     -10.287743      -279.9437
  13   2.0000     -10.287278      -279.9311
  14   2.0000     -10.286363      -279.9062
  15   2.0000     -10.273420      -279.5540
  16   2.0000      -8.082063      -219.9241
  17   2.0000      -8.078301      -219.8217
  18   2.0000      -6.040706      -164.3760
  19   2.0000      -6.036818      -164.2702
  20   2.0000      -6.036499      -164.2615
  21   2.0000      -6.032746      -164.1594
  22   2.0000      -6.032734      -164.1590
  23   2.0000      -6.029074      -164.0594
  24   2.0000      -1.007338       -27.4111
  25   2.0000      -0.988141       -26.8887
  26   2.0000      -0.913252       -24.8508
  27   2.0000      -0.906489       -24.6668
  28   2.0000      -0.868656       -23.6373
  29   2.0000      -0.851783       -23.1782
  30   2.0000      -0.845065       -22.9954
  31   2.0000      -0.817227       -22.2379
  32   2.0000      -0.789535       -21.4843
  33   2.0000      -0.773225       -21.0405
  34   2.0000      -0.710566       -19.3355
  35   2.0000      -0.701247       -19.0819
  36   2.0000      -0.692772       -18.8513
  37   2.0000      -0.666407       -18.1339
  38   2.0000      -0.644768       -17.5450
  39   2.0000      -0.625109       -17.0101
  40   2.0000      -0.593348       -16.1458
  41   2.0000      -0.575307       -15.6549
  42   2.0000      -0.566488       -15.4149
  43   2.0000      -0.552721       -15.0403
  44   2.0000      -0.543105       -14.7786
  45   2.0000      -0.521659       -14.1951
  46   2.0000      -0.513642       -13.9769
  47   2.0000      -0.512903       -13.9568
  48   2.0000      -0.505830       -13.7643
  49   2.0000      -0.500604       -13.6221
  50   2.0000      -0.493583       -13.4311
  51   2.0000      -0.477295       -12.9879
  52   2.0000      -0.474610       -12.9148
  53   2.0000      -0.468562       -12.7502
  54   2.0000      -0.464281       -12.6337
  55   2.0000      -0.452512       -12.3135
  56   2.0000      -0.445744       -12.1293
  57   2.0000      -0.435572       -11.8525
  58   2.0000      -0.428155       -11.6507
  59   2.0000      -0.425642       -11.5823
  60   2.0000      -0.422813       -11.5053
  61   2.0000      -0.417076       -11.3492
  62   2.0000      -0.413287       -11.2461
  63   2.0000      -0.352396        -9.5892
  64   2.0000      -0.331411        -9.0181
  65   2.0000      -0.329015        -8.9530
  66   2.0000      -0.288633        -7.8541
  67   0.0000       0.029388         0.7997
  68   0.0000       0.065574         1.7844
  69   0.0000       0.113517         3.0890
  70   0.0000       0.121979         3.3192
  71   0.0000       0.131283         3.5724

MULLIKEN ATOMIC CHARGES
-----------------------
   0 S :    0.099500
   1 C :   -0.121074
   2 C :   -0.069027
   3 C :    0.041981
   4 C :   -0.166723
   5 H :   -0.042265
   6 C :    0.051159
   7 H :    0.015470
   8 H :    0.021133
   9 C :   -0.046113
  10 H :    0.030448
  11 H :    0.021655
  12 C :   -0.013485
  13 H :    0.034838
  14 H :    0.015567
  15 H :    0.023225
  16 S :    0.117445
  17 C :   -0.087261
  18 C :    0.015514
  19 C :   -0.086443
  20 C :   -0.102255
  21 H :   -0.023028
  22 C :    0.080747
  23 H :    0.013716
  24 H :    0.019251
  25 C :   -0.041374
  26 H :    0.040826
  27 H :    0.025554
  28 C :   -0.092209
  29 H :    0.029455
  30 H :    0.042482
  31 H :    0.037307
  32 H :    0.052493
  33 H :    0.061490
Sum of atomic charges:   -0.0000000

LOEWDIN ATOMIC CHARGES
----------------------
   0 S :    0.400394
   1 C :   -0.198741
   2 C :   -0.067191
   3 C :   -0.065106
   4 C :   -0.181379
   5 H :    0.023013
   6 C :   -0.031535
   7 H :    0.029996
   8 H :    0.027889
   9 C :   -0.032348
  10 H :    0.023558
  11 H :    0.023845
  12 C :   -0.059874
  13 H :    0.026488
  14 H :    0.019661
  15 H :    0.028599
  16 S :    0.417321
  17 C :   -0.186873
  18 C :   -0.060002
  19 C :   -0.050474
  20 C :   -0.205919
  21 H :    0.011165
  22 C :   -0.019730
  23 H :    0.027133
  24 H :    0.021391
  25 C :   -0.038490
  26 H :    0.024282
  27 H :    0.023623
  28 C :   -0.080729
  29 H :    0.021504
  30 H :    0.034374
  31 H :    0.030095
  32 H :    0.031674
  33 H :    0.032389

  Mayer bond orders larger than 0.100000
B(  0-S ,  1-C ) :   1.1557 B(  0-S ,  4-C ) :   1.1371 B(  1-C ,  2-C ) :   1.6000
B(  1-C ,  4-C ) :   0.1000 B(  1-C , 32-H ) :   0.9627 B(  2-C ,  3-C ) :   1.2470
B(  2-C ,  6-C ) :   1.0209 B(  3-C ,  4-C ) :   1.6065 B(  3-C ,  5-H ) :   0.9915
B(  4-C , 20-C ) :   1.0320 B(  6-C ,  7-H ) :   0.9412 B(  6-C ,  8-H ) :   0.9334
B(  6-C ,  9-C ) :   1.0842 B(  9-C , 10-H ) :   0.9555 B(  9-C , 11-H ) :   0.9517
B(  9-C , 12-C ) :   1.0678 B( 12-C , 13-H ) :   0.9752 B( 12-C , 14-H ) :   0.9737
B( 12-C , 15-H ) :   0.9734 B( 16-S , 17-C ) :   1.1815 B( 16-S , 20-C ) :   1.1264
B( 17-C , 18-C ) :   1.5711 B( 17-C , 20-C ) :   0.1001 B( 17-C , 33-H ) :   0.9637
B( 18-C , 19-C ) :   1.2729 B( 18-C , 21-H ) :   1.0033 B( 19-C , 20-C ) :   1.5757
B( 19-C , 22-C ) :   1.0406 B( 22-C , 23-H ) :   0.9438 B( 22-C , 24-H ) :   0.9344
B( 22-C , 25-C ) :   1.0566 B( 25-C , 26-H ) :   0.9459 B( 25-C , 27-H ) :   0.9529
B( 25-C , 28-C ) :   1.0910 B( 28-C , 29-H ) :   0.9734 B( 28-C , 30-H ) :   0.9720
B( 28-C , 31-H ) :   0.9724

Dispersion correction           -0.014777969
FINAL SINGLE POINT ENERGY     -1339.868300701845

DIPOLE MOMENT
-------------
                                X             Y             Z
Electronic contribution:     29.68620       4.60774      -8.22925
Nuclear contribution   :    -30.44814      -4.55089       8.44556
                        -----------------------------------------
Total Dipole Moment    :     -0.76194       0.05684       0.21631
                        -----------------------------------------
Magnitude (a.u.)       :      0.79409
Magnitude (Debye)      :      2.01842

Rotational constants in cm-1:     0.017277     0.009970     0.006830
Rotational constants in MHz :   517.944005   298.901648   204.765360

                             ****ORCA TERMINATED NORMALLY****
TOTAL RUN TIME: 0 days 0 hours 0 minutes 31 seconds 144 msec
