                         Program Version 4.2.1 -  RELEASE  -
|  1> ! wB97X-D3 SP def2-SVP
|  2> %pal
|  3> nprocs 16
|  4> end
|  5>
|  6> * xyz 0 1
|  7> S 	 37.4085 	 19.0342 	 80.219
|  8> C 	 35.9255 	 18.2315 	 79.7212
|  9> C 	 36.059 	 16.8371 	 79.651
| 10> C 	 37.3282 	 16.3897 	 80.1327
| 11> C 	 38.1303 	 17.4255 	 80.5345
| 12> H 	 37.6867 	 15.3736 	 80.1638
| 13> C 	 34.955 	 15.7518 	 79.3227
| 14> H 	 35.4814 	 14.9809 	 78.7806
| 15> H 	 34.174 	 16.1806 	 78.5805
| 16> C 	 34.1367 	 15.2602 	 80.5659
| 17> H 	 34.8681 	 14.6441 	 81.1011
| 18> H 	 33.8418 	 16.1255 	 81.1236
| 19> C 	 32.9783 	 14.29 	 80.2697
| 20> H 	 32.521 	 13.9149 	 81.1603
| 21> H 	 32.2598 	 14.705 	 79.5926
| 22> H 	 33.3982 	 13.4333 	 79.7553
| 23> S 	 40.6844 	 18.4457 	 80.4803
| 24> C 	 41.893 	 17.7996 	 81.5452
| 25> C 	 41.4034 	 16.8003 	 82.3238
| 26> C 	 40.0489 	 16.4908 	 82.0502
| 27> C 	 39.4419 	 17.4006 	 81.1222
| 28> H 	 42.0988 	 16.2201 	 82.922
| 29> C 	 39.4272 	 15.2326 	 82.597
| 30> H 	 40.1648 	 14.5051 	 83.0716
| 31> H 	 38.9953 	 14.6351 	 81.7662
| 32> C 	 38.3108 	 15.4788 	 83.6667
| 33> H 	 37.678 	 16.2686 	 83.2486
| 34> H 	 38.7051 	 15.9686 	 84.5304
| 35> C 	 37.4916 	 14.2021 	 83.9209
| 36> H 	 36.6497 	 14.3239 	 84.5477
| 37> H 	 38.1101 	 13.4897 	 84.4714
| 38> H 	 37.1061 	 13.7288 	 83.0143
| 39> H 	 35.0494 	 18.7756 	 79.3201
| 40> H 	 42.9436 	 18.0131 	 81.4718
| 41> *
| 42>
| 43>                          ****END OF INPUT****

CARTESIAN COORDINATES (ANGSTROEM)
---------------------------------
  S     37.408500   19.034200   80.219000
  C     35.925500   18.231500   79.721200
  C     36.059000   16.837100   79.651000
  C     37.328200   16.389700   80.132700
  C     38.130300   17.425500   80.534500
  H     37.686700   15.373600   80.163800
  C     34.955000   15.751800   79.322700
  H     35.481400   14.980900   78.780600
  H     34.174000   16.180600   78.580500
  C     34.136700   15.260200   80.565900
  H     34.868100   14.644100   81.101100
  H     33.841800   16.125500   81.123600
  C     32.978300   14.290000   80.269700
  H     32.521000   13.914900   81.160300
  H     32.259800   14.705000   79.592600
  H     33.398200   13.433300   79.755300
  S     40.684400   18.445700   80.480300
  C     41.893000   17.799600   81.545200
  C     41.403400   16.800300   82.323800
  C     40.048900   16.490800   82.050200
  C     39.441900   17.400600   81.122200
  H     42.098800   16.220100   82.922000
  C     39.427200   15.232600   82.597000
  H     40.164800   14.505100   83.071600
  H     38.995300   14.635100   81.766200
  C     38.310800   15.478800   83.666700
  H     37.678000   16.268600   83.248600
  H     38.705100   15.968600   84.530400
  C     37.491600   14.202100   83.920900
  H     36.649700   14.323900   84.547700
  H     38.110100   13.489700   84.471400
  H     37.106100   13.728800   83.014300
  H     35.049400   18.775600   79.320100
  H     42.943600   18.013100   81.471800

 Total Charge           Charge          ....    0
 Multiplicity           Mult            ....    1
 Number of Electrons    NEL             ....  134
 Basis Dimension        Dim             ....  322

ORBITAL ENERGIES
----------------

  NO   OCC          E(Eh)            E(eV)
   0   2.0000     -88.968415     -2420.9537
   1   2.0000     -88.967726     -2420.9349
   2   2.0000     -10.331679      -281.1393
   3   2.0000     -10.328627      -281.0562
   4   2.0000     -10.319891      -280.8185
   5   2.0000     -10.313008      -280.6312
   6   2.0000     -10.308889      -280.5191
   7   2.0000     -10.306908      -280.4652
   8   2.0000     -10.304820      -280.4084
   9   2.0000     -10.298340      -280.2321
  10   2.0000     -10.295482      -280.1543
  11   2.0000     -10.290981      -280.0318
  12   2.0000     -10.289011      -279.9782
  13   2.0000     -10.282498      -279.8010
  14   2.0000     -10.276162      -279.6286
  15   2.0000     -10.275312      -279.6055
  16   2.0000      -8.082656      -219.9403
  17   2.0000      -8.082476      -219.9354
  18   2.0000      -6.041151      -164.3881
  19   2.0000      -6.040989      -164.3837
  20   2.0000      -6.037254      -164.2820
  21   2.0000      -6.037037      -164.2761
  22   2.0000      -6.033528      -164.1806
  23   2.0000      -6.033100      -164.1690
  24   2.0000      -1.006674       -27.3930
  25   2.0000      -0.981645       -26.7119
  26   2.0000      -0.904476       -24.6121
  27   2.0000      -0.903092       -24.5744
  28   2.0000      -0.871524       -23.7154
  29   2.0000      -0.852858       -23.2075
  30   2.0000      -0.846861       -23.0443
  31   2.0000      -0.813812       -22.1450
  32   2.0000      -0.781488       -21.2654
  33   2.0000      -0.767324       -20.8799
  34   2.0000      -0.709942       -19.3185
  35   2.0000      -0.699057       -19.0223
  36   2.0000      -0.693215       -18.8633
  37   2.0000      -0.661887       -18.0109
  38   2.0000      -0.638593       -17.3770
  39   2.0000      -0.622002       -16.9255
  40   2.0000      -0.597619       -16.2620
  41   2.0000      -0.569760       -15.5040
  42   2.0000      -0.560987       -15.2652
  43   2.0000      -0.553815       -15.0701
  44   2.0000      -0.525600       -14.3023
  45   2.0000      -0.519111       -14.1257
  46   2.0000      -0.512837       -13.9550
  47   2.0000      -0.511103       -13.9078
  48   2.0000      -0.504544       -13.7293
  49   2.0000      -0.497714       -13.5435
  50   2.0000      -0.490185       -13.3386
  51   2.0000      -0.487389       -13.2625
  52   2.0000      -0.472929       -12.8691
  53   2.0000      -0.466602       -12.6969
  54   2.0000      -0.461204       -12.5500
  55   2.0000      -0.451306       -12.2807
  56   2.0000      -0.439953       -11.9717
  57   2.0000      -0.438699       -11.9376
  58   2.0000      -0.437411       -11.9026
  59   2.0000      -0.426882       -11.6161
  60   2.0000      -0.423856       -11.5337
  61   2.0000      -0.415355       -11.3024
  62   2.0000      -0.408754       -11.1228
  63   2.0000      -0.354055        -9.6343
  64   2.0000      -0.335814        -9.1380
  65   2.0000      -0.329566        -8.9679
  66   2.0000      -0.283583        -7.7167
  67   0.0000       0.021717         0.5910
  68   0.0000       0.068094         1.8529
  69   0.0000       0.102999         2.8027
  70   0.0000       0.114292         3.1100
  71   0.0000       0.131010         3.5650

MULLIKEN ATOMIC CHARGES
-----------------------
   0 S :    0.104833
   1 C :   -0.129328
   2 C :   -0.075282
   3 C :    0.014862
   4 C :   -0.136044
   5 H :    0.009940
   6 C :    0.008505
   7 H :    0.028136
   8 H :    0.030679
   9 C :   -0.064177
  10 H :    0.026720
  11 H :    0.036540
  12 C :   -0.015792
  13 H :    0.036259
  14 H :    0.026422
  15 H :    0.018401
  16 S :    0.109171
  17 C :   -0.088628
  18 C :   -0.027971
  19 C :   -0.019281
  20 C :   -0.134506
  21 H :    0.019732
  22 C :   -0.000798
  23 H :    0.030832
  24 H :    0.026586
  25 C :   -0.061678
  26 H :    0.035821
  27 H :    0.022070
  28 C :   -0.022367
  29 H :    0.023389
  30 H :    0.023516
  31 H :    0.027587
  32 H :    0.061428
  33 H :    0.054422
Sum of atomic charges:   -0.0000000

LOEWDIN ATOMIC CHARGES
----------------------
   0 S :    0.385617
   1 C :   -0.200803
   2 C :   -0.059487
   3 C :   -0.062359
   4 C :   -0.173917
   5 H :    0.031456
   6 C :   -0.033233
   7 H :    0.024523
   8 H :    0.031701
   9 C :   -0.036715
  10 H :    0.024601
  11 H :    0.022610
  12 C :   -0.059686
  13 H :    0.026383
  14 H :    0.019956
  15 H :    0.025511
  16 S :    0.419737
  17 C :   -0.188522
  18 C :   -0.072495
  19 C :   -0.054247
  20 C :   -0.208868
  21 H :    0.034545
  22 C :   -0.038093
  23 H :    0.034281
  24 H :    0.027550
  25 C :   -0.037841
  26 H :    0.025745
  27 H :    0.021511
  28 C :   -0.063598
  29 H :    0.021423
  30 H :    0.025096
  31 H :    0.024598
  32 H :    0.033788
  33 H :    0.029235

  Mayer bond orders larger than 0.100000
B(  0-S ,  1-C ) :   1.1310 B(  0-S ,  4-C ) :   1.1337 B(  1-C ,  2-C ) :   1.6296
B(  1-C ,  4-C ) :   0.1021 B(  1-C , 32-H ) :   0.9624 B(  2-C ,  3-C ) :   1.2167
B(  2-C ,  6-C ) :   1.0210 B(  3-C ,  4-C ) :   1.5902 B(  3-C ,  5-H ) :   0.9950
B(  4-C , 20-C ) :   1.0657 B(  6-C ,  7-H ) :   0.9439 B(  6-C ,  8-H ) :   0.9481
B(  6-C ,  9-C ) :   1.0514 B(  9-C , 10-H ) :   0.9561 B(  9-C , 11-H ) :   0.9592
B(  9-C , 12-C ) :   1.0827 B( 12-C , 13-H ) :   0.9738 B( 12-C , 14-H ) :   0.9764
B( 12-C , 15-H ) :   0.9725 B( 16-S , 17-C ) :   1.1640 B( 16-S , 20-C ) :   1.1551
B( 17-C , 18-C ) :   1.5907 B( 17-C , 20-C ) :   0.1046 B( 17-C , 33-H ) :   0.9665
B( 18-C , 19-C ) :   1.2826 B( 18-C , 21-H ) :   0.9893 B( 19-C , 20-C ) :   1.5334
B( 19-C , 22-C ) :   1.0398 B( 22-C , 23-H ) :   0.9408 B( 22-C , 24-H ) :   0.9420
B( 22-C , 25-C ) :   1.0463 B( 25-C , 26-H ) :   0.9609 B( 25-C , 27-H ) :   0.9546
B( 25-C , 28-C ) :   1.0751 B( 28-C , 29-H ) :   0.9732 B( 28-C , 30-H ) :   0.9733
B( 28-C , 31-H ) :   0.9736

Dispersion correction           -0.014678330
FINAL SINGLE POINT ENERGY     -1339.883972606758

DIPOLE MOMENT
-------------
                                X             Y             Z
Electronic contribution:     20.20263      25.22255      -9.20167
Nuclear contribution   :    -20.34450     -25.93013       9.32219
                        -----------------------------------------
Total Dipole Moment    :     -0.14187      -0.70758       0.12051
                        -----------------------------------------
Magnitude (a.u.)       :      0.73166
Magnitude (Debye)      :      1.85972

Rotational constants in cm-1:     0.019297     0.009092     0.006644
Rotational constants in MHz :   578.507712   272.577582   199.170384

                             ****ORCA TERMINATED NORMALLY****
TOTAL RUN TIME: 0 days 0 hours 0 minutes 30 seconds 565 msec
