                         Program Version 4.2.1 -  RELEASE  -
|  1> ! wB97X-D3 SP def2-SVP
|  2> %pal
|  3> nprocs 16
|  4> end
|  5>
|  6> * xyz 0 1
|  7> S 	 -33.8915 	 58.4134 	 115.478
|  8> C 	 -34.2875 	 57.7846 	 113.871
|  9> C 	 -33.5264 	 58.3374 	 112.866
| 10> C 	 -32.5856 	 59.3204 	 113.434
| 11> C 	 -32.7289 	 59.5226 	 114.794
| 12> H 	 -32.0226 	 60.0572 	 112.861
| 13> C 	 -33.6657 	 58.104 	 111.386
| 14> H 	 -33.1187 	 58.8594 	 110.763
| 15> H 	 -34.7264 	 58.2125 	 111.084
| 16> C 	 -33.0963 	 56.6956 	 111.13
| 17> H 	 -32.2615 	 56.4863 	 111.691
| 18> H 	 -33.8056 	 56.0078 	 111.622
| 19> C 	 -32.8842 	 56.2898 	 109.687
| 20> H 	 -32.4664 	 55.2969 	 109.625
| 21> H 	 -33.8039 	 56.403 	 109.118
| 22> H 	 -32.216 	 57.068 	 109.279
| 23> S 	 -31.0018 	 59.7233 	 116.974
| 24> C 	 -30.339 	 61.3089 	 117.396
| 25> C 	 -30.7773 	 62.2727 	 116.533
| 26> C 	 -31.6677 	 61.8312 	 115.51
| 27> C 	 -31.8683 	 60.4371 	 115.57
| 28> H 	 -30.484 	 63.2982 	 116.594
| 29> C 	 -32.3443 	 62.8067 	 114.481
| 30> H 	 -32.7442 	 62.2298 	 113.638
| 31> H 	 -31.6238 	 63.4737 	 113.935
| 32> C 	 -33.6218 	 63.5557 	 114.896
| 33> H 	 -33.3441 	 64.0741 	 115.776
| 34> H 	 -34.4682 	 62.9504 	 115.202
| 35> C 	 -34.1109 	 64.4616 	 113.716
| 36> H 	 -34.961 	 65.0571 	 113.932
| 37> H 	 -34.4661 	 63.8444 	 112.885
| 38> H 	 -33.2244 	 65.047 	 113.36
| 39> H 	 -35.0165 	 57.0349 	 113.613
| 40> H 	 -29.5187 	 61.4227 	 118.073
| 41> *
| 42>
| 43>                          ****END OF INPUT****

CARTESIAN COORDINATES (ANGSTROEM)
---------------------------------
  S    -33.891500   58.413400  115.478000
  C    -34.287500   57.784600  113.871000
  C    -33.526400   58.337400  112.866000
  C    -32.585600   59.320400  113.434000
  C    -32.728900   59.522600  114.794000
  H    -32.022600   60.057200  112.861000
  C    -33.665700   58.104000  111.386000
  H    -33.118700   58.859400  110.763000
  H    -34.726400   58.212500  111.084000
  C    -33.096300   56.695600  111.130000
  H    -32.261500   56.486300  111.691000
  H    -33.805600   56.007800  111.622000
  C    -32.884200   56.289800  109.687000
  H    -32.466400   55.296900  109.625000
  H    -33.803900   56.403000  109.118000
  H    -32.216000   57.068000  109.279000
  S    -31.001800   59.723300  116.974000
  C    -30.339000   61.308900  117.396000
  C    -30.777300   62.272700  116.533000
  C    -31.667700   61.831200  115.510000
  C    -31.868300   60.437100  115.570000
  H    -30.484000   63.298200  116.594000
  C    -32.344300   62.806700  114.481000
  H    -32.744200   62.229800  113.638000
  H    -31.623800   63.473700  113.935000
  C    -33.621800   63.555700  114.896000
  H    -33.344100   64.074100  115.776000
  H    -34.468200   62.950400  115.202000
  C    -34.110900   64.461600  113.716000
  H    -34.961000   65.057100  113.932000
  H    -34.466100   63.844400  112.885000
  H    -33.224400   65.047000  113.360000
  H    -35.016500   57.034900  113.613000
  H    -29.518700   61.422700  118.073000

 Total Charge           Charge          ....    0
 Multiplicity           Mult            ....    1
 Number of Electrons    NEL             ....  134
 Basis Dimension        Dim             ....  322

ORBITAL ENERGIES
----------------

  NO   OCC          E(Eh)            E(eV)
   0   2.0000     -88.969702     -2420.9887
   1   2.0000     -88.966114     -2420.8910
   2   2.0000     -10.336201      -281.2623
   3   2.0000     -10.330681      -281.1121
   4   2.0000     -10.317720      -280.7594
   5   2.0000     -10.314175      -280.6630
   6   2.0000     -10.311781      -280.5978
   7   2.0000     -10.304441      -280.3981
   8   2.0000     -10.300018      -280.2777
   9   2.0000     -10.299573      -280.2656
  10   2.0000     -10.295529      -280.1556
  11   2.0000     -10.293087      -280.0891
  12   2.0000     -10.283583      -279.8305
  13   2.0000     -10.281395      -279.7710
  14   2.0000     -10.278545      -279.6934
  15   2.0000     -10.277205      -279.6570
  16   2.0000      -8.083824      -219.9720
  17   2.0000      -8.079944      -219.8664
  18   2.0000      -6.042522      -164.4254
  19   2.0000      -6.038493      -164.3158
  20   2.0000      -6.038442      -164.3143
  21   2.0000      -6.034581      -164.2093
  22   2.0000      -6.034397      -164.2043
  23   2.0000      -6.030709      -164.1039
  24   2.0000      -0.999944       -27.2099
  25   2.0000      -0.978460       -26.6253
  26   2.0000      -0.916190       -24.9308
  27   2.0000      -0.903017       -24.5724
  28   2.0000      -0.867747       -23.6126
  29   2.0000      -0.848597       -23.0915
  30   2.0000      -0.843787       -22.9606
  31   2.0000      -0.812146       -22.0996
  32   2.0000      -0.780789       -21.2463
  33   2.0000      -0.771121       -20.9833
  34   2.0000      -0.707289       -19.2463
  35   2.0000      -0.703638       -19.1470
  36   2.0000      -0.694970       -18.9111
  37   2.0000      -0.661059       -17.9883
  38   2.0000      -0.639898       -17.4125
  39   2.0000      -0.614318       -16.7164
  40   2.0000      -0.599817       -16.3218
  41   2.0000      -0.569788       -15.5047
  42   2.0000      -0.562016       -15.2932
  43   2.0000      -0.555115       -15.1055
  44   2.0000      -0.534605       -14.5474
  45   2.0000      -0.523159       -14.2359
  46   2.0000      -0.518701       -14.1146
  47   2.0000      -0.509866       -13.8742
  48   2.0000      -0.503681       -13.7059
  49   2.0000      -0.495962       -13.4958
  50   2.0000      -0.491718       -13.3803
  51   2.0000      -0.473564       -12.8863
  52   2.0000      -0.468685       -12.7536
  53   2.0000      -0.459201       -12.4955
  54   2.0000      -0.457784       -12.4569
  55   2.0000      -0.452677       -12.3180
  56   2.0000      -0.447794       -12.1851
  57   2.0000      -0.445165       -12.1136
  58   2.0000      -0.438281       -11.9262
  59   2.0000      -0.426904       -11.6167
  60   2.0000      -0.423836       -11.5332
  61   2.0000      -0.408722       -11.1219
  62   2.0000      -0.405487       -11.0339
  63   2.0000      -0.345739        -9.4080
  64   2.0000      -0.334520        -9.1028
  65   2.0000      -0.327710        -8.9174
  66   2.0000      -0.294983        -8.0269
  67   0.0000       0.031623         0.8605
  68   0.0000       0.063678         1.7328
  69   0.0000       0.107575         2.9273
  70   0.0000       0.118555         3.2260
  71   0.0000       0.134429         3.6580

MULLIKEN ATOMIC CHARGES
-----------------------
   0 S :    0.120754
   1 C :   -0.114643
   2 C :   -0.102136
   3 C :    0.032559
   4 C :   -0.150770
   5 H :    0.023471
   6 C :    0.058582
   7 H :    0.026131
   8 H :    0.042874
   9 C :   -0.091430
  10 H :    0.016824
  11 H :    0.012354
  12 C :   -0.002847
  13 H :    0.043228
  14 H :    0.024045
  15 H :    0.025350
  16 S :    0.090760
  17 C :   -0.078016
  18 C :   -0.016905
  19 C :   -0.006991
  20 C :   -0.173821
  21 H :    0.010619
  22 C :    0.011399
  23 H :    0.007353
  24 H :    0.037721
  25 C :   -0.036928
  26 H :    0.014437
  27 H :    0.035553
  28 C :   -0.059096
  29 H :    0.033551
  30 H :    0.031183
  31 H :    0.036297
  32 H :    0.040450
  33 H :    0.058089
Sum of atomic charges:    0.0000000

LOEWDIN ATOMIC CHARGES
----------------------
   0 S :    0.399545
   1 C :   -0.194795
   2 C :   -0.054727
   3 C :   -0.062283
   4 C :   -0.200405
   5 H :    0.030121
   6 C :   -0.031698
   7 H :    0.030649
   8 H :    0.035680
   9 C :   -0.041193
  10 H :    0.015795
  11 H :    0.022496
  12 C :   -0.061841
  13 H :    0.028567
  14 H :    0.023932
  15 H :    0.026705
  16 S :    0.378216
  17 C :   -0.174367
  18 C :   -0.067362
  19 C :   -0.054400
  20 C :   -0.174278
  21 H :    0.028806
  22 C :   -0.040219
  23 H :    0.028073
  24 H :    0.034851
  25 C :   -0.035232
  26 H :    0.013495
  27 H :    0.027718
  28 C :   -0.063834
  29 H :    0.021978
  30 H :    0.026764
  31 H :    0.029129
  32 H :    0.026813
  33 H :    0.027302

  Mayer bond orders larger than 0.100000
B(  0-S ,  1-C ) :   1.1188 B(  0-S ,  4-C ) :   1.1385 B(  1-C ,  2-C ) :   1.6457
B(  1-C , 32-H ) :   0.9630 B(  2-C ,  3-C ) :   1.2204 B(  2-C ,  6-C ) :   1.0223
B(  3-C ,  4-C ) :   1.6052 B(  3-C ,  5-H ) :   0.9816 B(  4-C , 20-C ) :   1.0285
B(  6-C ,  7-H ) :   0.9478 B(  6-C ,  8-H ) :   0.9402 B(  6-C ,  9-C ) :   1.0441
B(  9-C , 10-H ) :   0.9590 B(  9-C , 11-H ) :   0.9495 B(  9-C , 12-C ) :   1.0884
B( 12-C , 13-H ) :   0.9719 B( 12-C , 14-H ) :   0.9703 B( 12-C , 15-H ) :   0.9734
B( 16-S , 17-C ) :   1.1389 B( 16-S , 20-C ) :   1.1428 B( 17-C , 18-C ) :   1.6113
B( 17-C , 20-C ) :   0.1005 B( 17-C , 33-H ) :   0.9684 B( 18-C , 19-C ) :   1.2494
B( 18-C , 21-H ) :   0.9901 B( 19-C , 20-C ) :   1.6032 B( 19-C , 22-C ) :   1.0265
B( 22-C , 23-H ) :   0.9356 B( 22-C , 24-H ) :   0.9447 B( 22-C , 25-C ) :   1.0516
B( 25-C , 26-H ) :   0.9590 B( 25-C , 27-H ) :   0.9554 B( 25-C , 28-C ) :   1.0713
B( 28-C , 29-H ) :   0.9745 B( 28-C , 30-H ) :   0.9757 B( 28-C , 31-H ) :   0.9758

Dispersion correction           -0.013513412
FINAL SINGLE POINT ENERGY     -1339.874710084419

DIPOLE MOMENT
-------------
                                X             Y             Z
Electronic contribution:      6.22264      -7.49618      25.02413
Nuclear contribution   :     -6.28260       7.80562     -25.62569
                        -----------------------------------------
Total Dipole Moment    :     -0.05996       0.30944      -0.60156
                        -----------------------------------------
Magnitude (a.u.)       :      0.67913
Magnitude (Debye)      :      1.72622

Rotational constants in cm-1:     0.017874     0.007757     0.006352
Rotational constants in MHz :   535.842654   232.560657   190.421628

                             ****ORCA TERMINATED NORMALLY****
TOTAL RUN TIME: 0 days 0 hours 0 minutes 28 seconds 975 msec
