                         Program Version 4.2.1 -  RELEASE  -
|  1> ! wB97X-D3 SP def2-SVP
|  2> %pal
|  3> nprocs 16
|  4> end
|  5>
|  6> * xyz 0 1
|  7> S 	 39.2565 	 26.4093 	 93.3611
|  8> C 	 40.3857 	 27.7719 	 93.5228
|  9> C 	 41.3128 	 27.5163 	 94.5001
| 10> C 	 41.0278 	 26.2686 	 95.1178
| 11> C 	 39.8889 	 25.5803 	 94.6863
| 12> H 	 41.6258 	 25.8662 	 95.8731
| 13> C 	 42.543 	 28.3722 	 94.9073
| 14> H 	 42.8579 	 28.1831 	 95.8714
| 15> H 	 42.3397 	 29.4048 	 94.8472
| 16> C 	 43.6988 	 28.1512 	 93.9387
| 17> H 	 43.2487 	 28.3209 	 92.9928
| 18> H 	 44.5516 	 28.8198 	 94.0888
| 19> C 	 44.314 	 26.7403 	 93.9884
| 20> H 	 44.8581 	 26.477 	 94.9195
| 21> H 	 43.4999 	 26.0412 	 93.7832
| 22> H 	 45.0218 	 26.5834 	 93.1643
| 23> S 	 37.7418 	 24.1946 	 95.8062
| 24> C 	 38.0226 	 22.5546 	 96.2302
| 25> C 	 39.2564 	 22.0842 	 95.9494
| 26> C 	 40.0846 	 23.1045 	 95.3953
| 27> C 	 39.3987 	 24.3033 	 95.1843
| 28> H 	 39.5724 	 21.0238 	 96.2046
| 29> C 	 41.4586 	 22.8153 	 95.0256
| 30> H 	 41.6237 	 21.7687 	 95.3317
| 31> H 	 42.1743 	 23.3519 	 95.624
| 32> C 	 41.6609 	 22.8357 	 93.4677
| 33> H 	 42.6031 	 22.421 	 93.1702
| 34> H 	 41.5863 	 23.8146 	 93.0184
| 35> C 	 40.6226 	 21.9118 	 92.7946
| 36> H 	 39.6485 	 22.3959 	 92.8027
| 37> H 	 40.442 	 20.9809 	 93.3783
| 38> H 	 41.048 	 21.6404 	 91.8138
| 39> H 	 40.4777 	 28.7092 	 93.047
| 40> H 	 37.1172 	 21.9836 	 96.6284
| 41> *
| 42>
| 43>                          ****END OF INPUT****

CARTESIAN COORDINATES (ANGSTROEM)
---------------------------------
  S     39.256500   26.409300   93.361100
  C     40.385700   27.771900   93.522800
  C     41.312800   27.516300   94.500100
  C     41.027800   26.268600   95.117800
  C     39.888900   25.580300   94.686300
  H     41.625800   25.866200   95.873100
  C     42.543000   28.372200   94.907300
  H     42.857900   28.183100   95.871400
  H     42.339700   29.404800   94.847200
  C     43.698800   28.151200   93.938700
  H     43.248700   28.320900   92.992800
  H     44.551600   28.819800   94.088800
  C     44.314000   26.740300   93.988400
  H     44.858100   26.477000   94.919500
  H     43.499900   26.041200   93.783200
  H     45.021800   26.583400   93.164300
  S     37.741800   24.194600   95.806200
  C     38.022600   22.554600   96.230200
  C     39.256400   22.084200   95.949400
  C     40.084600   23.104500   95.395300
  C     39.398700   24.303300   95.184300
  H     39.572400   21.023800   96.204600
  C     41.458600   22.815300   95.025600
  H     41.623700   21.768700   95.331700
  H     42.174300   23.351900   95.624000
  C     41.660900   22.835700   93.467700
  H     42.603100   22.421000   93.170200
  H     41.586300   23.814600   93.018400
  C     40.622600   21.911800   92.794600
  H     39.648500   22.395900   92.802700
  H     40.442000   20.980900   93.378300
  H     41.048000   21.640400   91.813800
  H     40.477700   28.709200   93.047000
  H     37.117200   21.983600   96.628400

 Total Charge           Charge          ....    0
 Multiplicity           Mult            ....    1
 Number of Electrons    NEL             ....  134
 Basis Dimension        Dim             ....  322

ORBITAL ENERGIES
----------------

  NO   OCC          E(Eh)            E(eV)
   0   2.0000     -88.969613     -2420.9862
   1   2.0000     -88.966266     -2420.8952
   2   2.0000     -10.326930      -281.0101
   3   2.0000     -10.325831      -280.9801
   4   2.0000     -10.319995      -280.8213
   5   2.0000     -10.311504      -280.5903
   6   2.0000     -10.301597      -280.3207
   7   2.0000     -10.300128      -280.2807
   8   2.0000     -10.297335      -280.2047
   9   2.0000     -10.287721      -279.9431
  10   2.0000     -10.286722      -279.9159
  11   2.0000     -10.285611      -279.8857
  12   2.0000     -10.282618      -279.8043
  13   2.0000     -10.281750      -279.7806
  14   2.0000     -10.276509      -279.6380
  15   2.0000     -10.273503      -279.5562
  16   2.0000      -8.084488      -219.9901
  17   2.0000      -8.081616      -219.9120
  18   2.0000      -6.043106      -164.4413
  19   2.0000      -6.039963      -164.3558
  20   2.0000      -6.038762      -164.3231
  21   2.0000      -6.036081      -164.2501
  22   2.0000      -6.035313      -164.2292
  23   2.0000      -6.032471      -164.1519
  24   2.0000      -1.011885       -27.5348
  25   2.0000      -0.990887       -26.9634
  26   2.0000      -0.917327       -24.9617
  27   2.0000      -0.913190       -24.8492
  28   2.0000      -0.869816       -23.6689
  29   2.0000      -0.848885       -23.0993
  30   2.0000      -0.842142       -22.9159
  31   2.0000      -0.811676       -22.0868
  32   2.0000      -0.790273       -21.5044
  33   2.0000      -0.774397       -21.0724
  34   2.0000      -0.710061       -19.3217
  35   2.0000      -0.698628       -19.0106
  36   2.0000      -0.687181       -18.6991
  37   2.0000      -0.660949       -17.9853
  38   2.0000      -0.638791       -17.3824
  39   2.0000      -0.618155       -16.8209
  40   2.0000      -0.596516       -16.2320
  41   2.0000      -0.581818       -15.8321
  42   2.0000      -0.557207       -15.1624
  43   2.0000      -0.554916       -15.1000
  44   2.0000      -0.546865       -14.8810
  45   2.0000      -0.546167       -14.8619
  46   2.0000      -0.511794       -13.9266
  47   2.0000      -0.507162       -13.8006
  48   2.0000      -0.497950       -13.5499
  49   2.0000      -0.495479       -13.4827
  50   2.0000      -0.491463       -13.3734
  51   2.0000      -0.477003       -12.9799
  52   2.0000      -0.469112       -12.7652
  53   2.0000      -0.467736       -12.7277
  54   2.0000      -0.458749       -12.4832
  55   2.0000      -0.446185       -12.1413
  56   2.0000      -0.443104       -12.0575
  57   2.0000      -0.431842       -11.7510
  58   2.0000      -0.429768       -11.6946
  59   2.0000      -0.426931       -11.6174
  60   2.0000      -0.422398       -11.4940
  61   2.0000      -0.416981       -11.3466
  62   2.0000      -0.416118       -11.3231
  63   2.0000      -0.344064        -9.3625
  64   2.0000      -0.336280        -9.1506
  65   2.0000      -0.329226        -8.9587
  66   2.0000      -0.296014        -8.0549
  67   0.0000       0.030363         0.8262
  68   0.0000       0.070496         1.9183
  69   0.0000       0.113511         3.0888
  70   0.0000       0.119662         3.2562
  71   0.0000       0.129683         3.5289

MULLIKEN ATOMIC CHARGES
-----------------------
   0 S :    0.127519
   1 C :   -0.096842
   2 C :   -0.129183
   3 C :    0.049024
   4 C :   -0.157826
   5 H :   -0.024813
   6 C :    0.156664
   7 H :   -0.000192
   8 H :    0.013452
   9 C :   -0.066658
  10 H :    0.013439
  11 H :    0.033351
  12 C :   -0.081633
  13 H :    0.037385
  14 H :    0.038108
  15 H :    0.031771
  16 S :    0.116243
  17 C :   -0.118764
  18 C :   -0.041182
  19 C :   -0.062226
  20 C :   -0.164115
  21 H :    0.045749
  22 C :    0.096567
  23 H :    0.004642
  24 H :    0.031079
  25 C :   -0.062078
  26 H :    0.019956
  27 H :    0.048737
  28 C :   -0.067850
  29 H :    0.046195
  30 H :    0.019827
  31 H :    0.040512
  32 H :    0.021064
  33 H :    0.082079
Sum of atomic charges:    0.0000000

LOEWDIN ATOMIC CHARGES
----------------------
   0 S :    0.431822
   1 C :   -0.193810
   2 C :   -0.056373
   3 C :   -0.060672
   4 C :   -0.220699
   5 H :    0.015369
   6 C :   -0.012991
   7 H :    0.017366
   8 H :    0.027676
   9 C :   -0.034413
  10 H :    0.018448
  11 H :    0.023667
  12 C :   -0.073300
  13 H :    0.026009
  14 H :    0.025428
  15 H :    0.026805
  16 S :    0.412405
  17 C :   -0.195246
  18 C :   -0.085909
  19 C :   -0.049874
  20 C :   -0.201476
  21 H :    0.046372
  22 C :   -0.033651
  23 H :    0.031328
  24 H :    0.028301
  25 C :   -0.030286
  26 H :    0.018488
  27 H :    0.023065
  28 C :   -0.065842
  29 H :    0.026208
  30 H :    0.022627
  31 H :    0.028636
  32 H :    0.023573
  33 H :    0.040947

  Mayer bond orders larger than 0.100000
B(  0-S ,  1-C ) :   1.1367 B(  0-S ,  4-C ) :   1.1686 B(  1-C ,  2-C ) :   1.6088
B(  1-C ,  4-C ) :   0.1011 B(  1-C , 32-H ) :   0.9646 B(  2-C ,  3-C ) :   1.2682
B(  2-C ,  6-C ) :   1.0185 B(  3-C ,  4-C ) :   1.5389 B(  3-C ,  5-H ) :   1.0101
B(  4-C , 20-C ) :   1.0407 B(  6-C ,  7-H ) :   0.9416 B(  6-C ,  8-H ) :   0.9346
B(  6-C ,  9-C ) :   1.0685 B(  9-C , 10-H ) :   0.9545 B(  9-C , 11-H ) :   0.9582
B(  9-C , 12-C ) :   1.0835 B( 12-C , 13-H ) :   0.9751 B( 12-C , 14-H ) :   0.9729
B( 12-C , 15-H ) :   0.9720 B( 16-S , 17-C ) :   1.1753 B( 16-S , 20-C ) :   1.1397
B( 17-C , 18-C ) :   1.6056 B( 17-C , 33-H ) :   0.9529 B( 18-C , 19-C ) :   1.2477
B( 18-C , 21-H ) :   0.9782 B( 19-C , 20-C ) :   1.5786 B( 19-C , 22-C ) :   1.0595
B( 22-C , 23-H ) :   0.9283 B( 22-C , 24-H ) :   0.9257 B( 22-C , 25-C ) :   1.0615
B( 25-C , 26-H ) :   0.9644 B( 25-C , 27-H ) :   0.9566 B( 25-C , 28-C ) :   1.0681
B( 28-C , 29-H ) :   0.9694 B( 28-C , 30-H ) :   0.9768 B( 28-C , 31-H ) :   0.9751

Dispersion correction           -0.016478061
FINAL SINGLE POINT ENERGY     -1339.877070991549

DIPOLE MOMENT
-------------
                                X             Y             Z
Electronic contribution:    -24.77862       3.11456       5.74554
Nuclear contribution   :     25.36860      -3.25366      -5.60965
                        -----------------------------------------
Total Dipole Moment    :      0.58997      -0.13910       0.13589
                        -----------------------------------------
Magnitude (a.u.)       :      0.62119
Magnitude (Debye)      :      1.57895

Rotational constants in cm-1:     0.021521     0.009430     0.007870
Rotational constants in MHz :   645.189789   282.694566   235.946854

                             ****ORCA TERMINATED NORMALLY****
TOTAL RUN TIME: 0 days 0 hours 0 minutes 35 seconds 653 msec
