                         Program Version 4.2.1 -  RELEASE  -
|  1> ! wB97X-D3 SP def2-SVP
|  2> %pal
|  3> nprocs 16
|  4> end
|  5>
|  6> * xyz 0 1
|  7> S 	 -1.2055 	 -6.61774 	 89.3125
|  8> C 	 0.181704 	 -6.11558 	 90.295
|  9> C 	 -0.0272356 	 -6.1955 	 91.6685
| 10> C 	 -1.39089 	 -6.6658 	 91.9187
| 11> C 	 -2.09755 	 -6.88726 	 90.7691
| 12> H 	 -1.8748 	 -6.81772 	 92.8613
| 13> C 	 1.08695 	 -6.12295 	 92.7167
| 14> H 	 0.809346 	 -5.30422 	 93.4113
| 15> H 	 1.96916 	 -5.81852 	 92.2078
| 16> C 	 1.32809 	 -7.44209 	 93.4292
| 17> H 	 2.25065 	 -7.36423 	 93.9468
| 18> H 	 0.542001 	 -7.75322 	 94.0723
| 19> C 	 1.4191 	 -8.64192 	 92.4814
| 20> H 	 2.42565 	 -8.81727 	 92.05
| 21> H 	 1.28556 	 -9.55011 	 93.0714
| 22> H 	 0.565203 	 -8.66764 	 91.7975
| 23> S 	 -4.71334 	 -6.24314 	 91.3313
| 24> C 	 -5.96445 	 -7.08752 	 90.5485
| 25> C 	 -5.57338 	 -8.3172 	 90.1741
| 26> C 	 -4.14027 	 -8.44455 	 90.139
| 27> C 	 -3.50673 	 -7.29623 	 90.6624
| 28> H 	 -6.29398 	 -9.13614 	 89.8359
| 29> C 	 -3.44378 	 -9.71082 	 89.6868
| 30> H 	 -2.45668 	 -9.44353 	 89.3205
| 31> H 	 -4.08419 	 -10.1836 	 88.9344
| 32> C 	 -3.28762 	 -10.7401 	 90.8761
| 33> H 	 -4.25427 	 -11.0768 	 91.1768
| 34> H 	 -2.78208 	 -10.2069 	 91.6706
| 35> C 	 -2.55328 	 -12.0203 	 90.4762
| 36> H 	 -3.29847 	 -12.5943 	 89.8203
| 37> H 	 -2.4155 	 -12.6798 	 91.3098
| 38> H 	 -1.66425 	 -11.807 	 89.9247
| 39> H 	 1.10026 	 -5.66498 	 90.0317
| 40> H 	 -6.91353 	 -6.64808 	 90.4935
| 41> *
| 42>
| 43>                          ****END OF INPUT****

CARTESIAN COORDINATES (ANGSTROEM)
---------------------------------
  S     -1.205500   -6.617740   89.312500
  C      0.181704   -6.115580   90.295000
  C     -0.027236   -6.195500   91.668500
  C     -1.390890   -6.665800   91.918700
  C     -2.097550   -6.887260   90.769100
  H     -1.874800   -6.817720   92.861300
  C      1.086950   -6.122950   92.716700
  H      0.809346   -5.304220   93.411300
  H      1.969160   -5.818520   92.207800
  C      1.328090   -7.442090   93.429200
  H      2.250650   -7.364230   93.946800
  H      0.542001   -7.753220   94.072300
  C      1.419100   -8.641920   92.481400
  H      2.425650   -8.817270   92.050000
  H      1.285560   -9.550110   93.071400
  H      0.565203   -8.667640   91.797500
  S     -4.713340   -6.243140   91.331300
  C     -5.964450   -7.087520   90.548500
  C     -5.573380   -8.317200   90.174100
  C     -4.140270   -8.444550   90.139000
  C     -3.506730   -7.296230   90.662400
  H     -6.293980   -9.136140   89.835900
  C     -3.443780   -9.710820   89.686800
  H     -2.456680   -9.443530   89.320500
  H     -4.084190  -10.183600   88.934400
  C     -3.287620  -10.740100   90.876100
  H     -4.254270  -11.076800   91.176800
  H     -2.782080  -10.206900   91.670600
  C     -2.553280  -12.020300   90.476200
  H     -3.298470  -12.594300   89.820300
  H     -2.415500  -12.679800   91.309800
  H     -1.664250  -11.807000   89.924700
  H      1.100260   -5.664980   90.031700
  H     -6.913530   -6.648080   90.493500

 Total Charge           Charge          ....    0
 Multiplicity           Mult            ....    1
 Number of Electrons    NEL             ....  134
 Basis Dimension        Dim             ....  322

ORBITAL ENERGIES
----------------

  NO   OCC          E(Eh)            E(eV)
   0   2.0000     -88.970701     -2421.0159
   1   2.0000     -88.960260     -2420.7317
   2   2.0000     -10.328182      -281.0441
   3   2.0000     -10.323921      -280.9282
   4   2.0000     -10.309782      -280.5434
   5   2.0000     -10.307693      -280.4866
   6   2.0000     -10.304771      -280.4071
   7   2.0000     -10.303219      -280.3649
   8   2.0000     -10.296342      -280.1777
   9   2.0000     -10.293470      -280.0996
  10   2.0000     -10.292974      -280.0861
  11   2.0000     -10.292125      -280.0630
  12   2.0000     -10.282112      -279.7905
  13   2.0000     -10.280548      -279.7479
  14   2.0000     -10.277442      -279.6634
  15   2.0000     -10.272429      -279.5270
  16   2.0000      -8.084874      -220.0006
  17   2.0000      -8.076713      -219.7785
  18   2.0000      -6.043484      -164.4516
  19   2.0000      -6.039562      -164.3448
  20   2.0000      -6.035451      -164.2330
  21   2.0000      -6.035121      -164.2240
  22   2.0000      -6.031114      -164.1150
  23   2.0000      -6.027356      -164.0127
  24   2.0000      -1.010245       -27.4902
  25   2.0000      -0.986557       -26.8456
  26   2.0000      -0.916148       -24.9297
  27   2.0000      -0.906032       -24.6544
  28   2.0000      -0.868025       -23.6202
  29   2.0000      -0.850894       -23.1540
  30   2.0000      -0.843789       -22.9607
  31   2.0000      -0.815350       -22.1868
  32   2.0000      -0.785216       -21.3668
  33   2.0000      -0.770786       -20.9741
  34   2.0000      -0.705323       -19.1928
  35   2.0000      -0.695627       -18.9290
  36   2.0000      -0.689043       -18.7498
  37   2.0000      -0.661275       -17.9942
  38   2.0000      -0.635714       -17.2987
  39   2.0000      -0.618496       -16.8301
  40   2.0000      -0.599760       -16.3203
  41   2.0000      -0.570633       -15.5277
  42   2.0000      -0.567609       -15.4454
  43   2.0000      -0.554612       -15.0918
  44   2.0000      -0.551433       -15.0052
  45   2.0000      -0.528520       -14.3818
  46   2.0000      -0.515142       -14.0177
  47   2.0000      -0.510157       -13.8821
  48   2.0000      -0.508007       -13.8236
  49   2.0000      -0.490679       -13.3521
  50   2.0000      -0.484440       -13.1823
  51   2.0000      -0.475019       -12.9259
  52   2.0000      -0.466747       -12.7008
  53   2.0000      -0.463172       -12.6036
  54   2.0000      -0.458297       -12.4709
  55   2.0000      -0.452835       -12.3223
  56   2.0000      -0.447004       -12.1636
  57   2.0000      -0.437900       -11.9159
  58   2.0000      -0.430089       -11.7033
  59   2.0000      -0.425459       -11.5773
  60   2.0000      -0.420945       -11.4545
  61   2.0000      -0.420239       -11.4353
  62   2.0000      -0.414392       -11.2762
  63   2.0000      -0.342936        -9.3318
  64   2.0000      -0.332118        -9.0374
  65   2.0000      -0.323935        -8.8147
  66   2.0000      -0.293217        -7.9788
  67   0.0000       0.041108         1.1186
  68   0.0000       0.060339         1.6419
  69   0.0000       0.101505         2.7621
  70   0.0000       0.119163         3.2426
  71   0.0000       0.128910         3.5078

MULLIKEN ATOMIC CHARGES
-----------------------
   0 S :    0.133161
   1 C :   -0.086643
   2 C :   -0.150189
   3 C :    0.018819
   4 C :   -0.145630
   5 H :    0.003755
   6 C :    0.123346
   7 H :    0.040680
   8 H :    0.003786
   9 C :   -0.053886
  10 H :    0.026554
  11 H :    0.028882
  12 C :   -0.073235
  13 H :    0.033773
  14 H :    0.016516
  15 H :    0.053050
  16 S :    0.112135
  17 C :   -0.079864
  18 C :   -0.035615
  19 C :   -0.052409
  20 C :   -0.179069
  21 H :    0.043678
  22 C :    0.077308
  23 H :    0.018804
  24 H :    0.019935
  25 C :   -0.070654
  26 H :    0.015635
  27 H :    0.029816
  28 C :   -0.030818
  29 H :    0.025017
  30 H :    0.034757
  31 H :    0.034225
  32 H :    0.022768
  33 H :    0.041611
Sum of atomic charges:    0.0000000

LOEWDIN ATOMIC CHARGES
----------------------
   0 S :    0.412722
   1 C :   -0.195300
   2 C :   -0.054993
   3 C :   -0.070484
   4 C :   -0.195735
   5 H :    0.026938
   6 C :   -0.025806
   7 H :    0.036803
   8 H :    0.024272
   9 C :   -0.036120
  10 H :    0.024424
  11 H :    0.022701
  12 C :   -0.068958
  13 H :    0.025653
  14 H :    0.024287
  15 H :    0.029293
  16 S :    0.427925
  17 C :   -0.184260
  18 C :   -0.081194
  19 C :   -0.054167
  20 C :   -0.214274
  21 H :    0.044048
  22 C :   -0.027320
  23 H :    0.023718
  24 H :    0.028193
  25 C :   -0.031589
  26 H :    0.017904
  27 H :    0.020523
  28 C :   -0.063019
  29 H :    0.031298
  30 H :    0.024217
  31 H :    0.020009
  32 H :    0.019593
  33 H :    0.018699

  Mayer bond orders larger than 0.100000
B(  0-S ,  1-C ) :   1.1156 B(  0-S ,  4-C ) :   1.1431 B(  1-C ,  2-C ) :   1.6638
B(  1-C , 32-H ) :   0.9602 B(  2-C ,  3-C ) :   1.1830 B(  2-C ,  6-C ) :   1.0280
B(  3-C ,  4-C ) :   1.6188 B(  3-C ,  5-H ) :   0.9985 B(  4-C , 20-C ) :   1.0152
B(  6-C ,  7-H ) :   0.9333 B(  6-C ,  8-H ) :   0.9367 B(  6-C ,  9-C ) :   1.0710
B(  9-C , 10-H ) :   0.9554 B(  9-C , 11-H ) :   0.9573 B(  9-C , 12-C ) :   1.0840
B( 12-C , 13-H ) :   0.9765 B( 12-C , 14-H ) :   0.9738 B( 12-C , 15-H ) :   0.9677
B( 16-S , 17-C ) :   1.1755 B( 16-S , 20-C ) :   1.1488 B( 17-C , 18-C ) :   1.5830
B( 17-C , 33-H ) :   0.9802 B( 18-C , 19-C ) :   1.2448 B( 18-C , 21-H ) :   0.9803
B( 19-C , 20-C ) :   1.5706 B( 19-C , 22-C ) :   1.0619 B( 22-C , 23-H ) :   0.9269
B( 22-C , 24-H ) :   0.9317 B( 22-C , 25-C ) :   1.0673 B( 25-C , 26-H ) :   0.9570
B( 25-C , 27-H ) :   0.9580 B( 25-C , 28-C ) :   1.0847 B( 28-C , 29-H ) :   0.9742
B( 28-C , 30-H ) :   0.9731 B( 28-C , 31-H ) :   0.9762

Dispersion correction           -0.015120658
FINAL SINGLE POINT ENERGY     -1339.871668835367

DIPOLE MOMENT
-------------
                                X             Y             Z
Electronic contribution:    -13.57509      20.25153      -8.07823
Nuclear contribution   :     13.66161     -20.62774       8.38298
                        -----------------------------------------
Total Dipole Moment    :      0.08651      -0.37621       0.30476
                        -----------------------------------------
Magnitude (a.u.)       :      0.49183
Magnitude (Debye)      :      1.25013

Rotational constants in cm-1:     0.017795     0.009625     0.007653
Rotational constants in MHz :   533.486664   288.548848   229.439906

                             ****ORCA TERMINATED NORMALLY****
TOTAL RUN TIME: 0 days 0 hours 0 minutes 34 seconds 948 msec
