                         Program Version 4.2.1 -  RELEASE  -
|  1> ! wB97X-D3 SP def2-SVP
|  2> %pal
|  3> nprocs 16
|  4> end
|  5>
|  6> * xyz 0 1
|  7> S 	 33.3057 	 -3.04593 	 67.052
|  8> C 	 32.8804 	 -1.38341 	 66.747
|  9> C 	 32.7151 	 -0.664715 	 67.8987
| 10> C 	 32.8713 	 -1.4707 	 69.0701
| 11> C 	 33.3402 	 -2.71356 	 68.8199
| 12> H 	 32.8501 	 -1.10163 	 70.1074
| 13> C 	 32.5599 	 0.870758 	 68.0368
| 14> H 	 31.9942 	 1.12342 	 68.9993
| 15> H 	 31.8639 	 1.19142 	 67.2616
| 16> C 	 33.8233 	 1.65277 	 68.1618
| 17> H 	 34.4114 	 1.57301 	 67.206
| 18> H 	 33.526 	 2.65465 	 68.376
| 19> C 	 34.7698 	 1.30228 	 69.2196
| 20> H 	 34.2076 	 1.2156 	 70.1298
| 21> H 	 35.261 	 0.359799 	 69.1294
| 22> H 	 35.5348 	 2.06725 	 69.3956
| 23> S 	 33.5241 	 -5.34681 	 69.5079
| 24> C 	 34.4713 	 -5.89441 	 70.8636
| 25> C 	 35.0673 	 -4.79027 	 71.392
| 26> C 	 34.9272 	 -3.50735 	 70.6939
| 27> C 	 33.9186 	 -3.64577 	 69.7368
| 28> H 	 35.7388 	 -4.88207 	 72.2071
| 29> C 	 35.6309 	 -2.22719 	 71.0474
| 30> H 	 36.1452 	 -2.37034 	 72.0659
| 31> H 	 34.8682 	 -1.50516 	 71.2554
| 32> C 	 36.7215 	 -1.81745 	 70.0381
| 33> H 	 36.2641 	 -1.66868 	 69.0781
| 34> H 	 37.4665 	 -2.62713 	 69.7841
| 35> C 	 37.5513 	 -0.557003 	 70.5115
| 36> H 	 38.3681 	 -0.410135 	 69.8464
| 37> H 	 38.1371 	 -0.667915 	 71.5075
| 38> H 	 37.0169 	 0.385059 	 70.4942
| 39> H 	 32.6462 	 -0.979656 	 65.7509
| 40> H 	 34.4014 	 -6.84609 	 71.3272
| 41> *
| 42>
| 43>                          ****END OF INPUT****

CARTESIAN COORDINATES (ANGSTROEM)
---------------------------------
  S     33.305700   -3.045930   67.052000
  C     32.880400   -1.383410   66.747000
  C     32.715100   -0.664715   67.898700
  C     32.871300   -1.470700   69.070100
  C     33.340200   -2.713560   68.819900
  H     32.850100   -1.101630   70.107400
  C     32.559900    0.870758   68.036800
  H     31.994200    1.123420   68.999300
  H     31.863900    1.191420   67.261600
  C     33.823300    1.652770   68.161800
  H     34.411400    1.573010   67.206000
  H     33.526000    2.654650   68.376000
  C     34.769800    1.302280   69.219600
  H     34.207600    1.215600   70.129800
  H     35.261000    0.359799   69.129400
  H     35.534800    2.067250   69.395600
  S     33.524100   -5.346810   69.507900
  C     34.471300   -5.894410   70.863600
  C     35.067300   -4.790270   71.392000
  C     34.927200   -3.507350   70.693900
  C     33.918600   -3.645770   69.736800
  H     35.738800   -4.882070   72.207100
  C     35.630900   -2.227190   71.047400
  H     36.145200   -2.370340   72.065900
  H     34.868200   -1.505160   71.255400
  C     36.721500   -1.817450   70.038100
  H     36.264100   -1.668680   69.078100
  H     37.466500   -2.627130   69.784100
  C     37.551300   -0.557003   70.511500
  H     38.368100   -0.410135   69.846400
  H     38.137100   -0.667915   71.507500
  H     37.016900    0.385059   70.494200
  H     32.646200   -0.979656   65.750900
  H     34.401400   -6.846090   71.327200

 Total Charge           Charge          ....    0
 Multiplicity           Mult            ....    1
 Number of Electrons    NEL             ....  134
 Basis Dimension        Dim             ....  322

ORBITAL ENERGIES
----------------

  NO   OCC          E(Eh)            E(eV)
   0   2.0000     -88.965417     -2420.8721
   1   2.0000     -88.960412     -2420.7359
   2   2.0000     -10.328564      -281.0545
   3   2.0000     -10.327200      -281.0174
   4   2.0000     -10.315842      -280.7083
   5   2.0000     -10.314978      -280.6848
   6   2.0000     -10.308508      -280.5088
   7   2.0000     -10.301377      -280.3147
   8   2.0000     -10.299594      -280.2662
   9   2.0000     -10.298522      -280.2370
  10   2.0000     -10.295981      -280.1679
  11   2.0000     -10.293956      -280.1128
  12   2.0000     -10.292597      -280.0758
  13   2.0000     -10.284437      -279.8537
  14   2.0000     -10.282037      -279.7885
  15   2.0000     -10.270213      -279.4667
  16   2.0000      -8.079738      -219.8608
  17   2.0000      -8.075527      -219.7463
  18   2.0000      -6.038342      -164.3116
  19   2.0000      -6.034457      -164.2059
  20   2.0000      -6.034167      -164.1980
  21   2.0000      -6.030247      -164.0914
  22   2.0000      -6.029873      -164.0812
  23   2.0000      -6.026223      -163.9819
  24   2.0000      -1.008129       -27.4326
  25   2.0000      -0.984252       -26.7829
  26   2.0000      -0.921926       -25.0869
  27   2.0000      -0.906084       -24.6558
  28   2.0000      -0.876065       -23.8389
  29   2.0000      -0.851781       -23.1781
  30   2.0000      -0.841550       -22.8997
  31   2.0000      -0.819807       -22.3081
  32   2.0000      -0.785143       -21.3648
  33   2.0000      -0.775578       -21.1045
  34   2.0000      -0.711068       -19.3491
  35   2.0000      -0.698437       -19.0054
  36   2.0000      -0.696668       -18.9573
  37   2.0000      -0.664256       -18.0753
  38   2.0000      -0.640658       -17.4332
  39   2.0000      -0.615918       -16.7600
  40   2.0000      -0.596371       -16.2281
  41   2.0000      -0.582921       -15.8621
  42   2.0000      -0.561282       -15.2733
  43   2.0000      -0.556314       -15.1381
  44   2.0000      -0.543674       -14.7941
  45   2.0000      -0.525368       -14.2960
  46   2.0000      -0.521867       -14.2007
  47   2.0000      -0.511208       -13.9107
  48   2.0000      -0.505745       -13.7620
  49   2.0000      -0.503436       -13.6992
  50   2.0000      -0.493222       -13.4212
  51   2.0000      -0.479047       -13.0355
  52   2.0000      -0.472228       -12.8500
  53   2.0000      -0.463437       -12.6108
  54   2.0000      -0.457671       -12.4539
  55   2.0000      -0.451304       -12.2806
  56   2.0000      -0.445778       -12.1302
  57   2.0000      -0.441732       -12.0201
  58   2.0000      -0.439343       -11.9551
  59   2.0000      -0.416718       -11.3395
  60   2.0000      -0.414798       -11.2872
  61   2.0000      -0.412390       -11.2217
  62   2.0000      -0.406375       -11.0580
  63   2.0000      -0.353020        -9.6062
  64   2.0000      -0.333568        -9.0768
  65   2.0000      -0.326201        -8.8764
  66   2.0000      -0.292598        -7.9620
  67   0.0000       0.025326         0.6892
  68   0.0000       0.070307         1.9132
  69   0.0000       0.105411         2.8684
  70   0.0000       0.121316         3.3012
  71   0.0000       0.129227         3.5165

MULLIKEN ATOMIC CHARGES
-----------------------
   0 S :    0.105453
   1 C :   -0.122789
   2 C :   -0.096514
   3 C :    0.023222
   4 C :   -0.132017
   5 H :    0.021478
   6 C :    0.032941
   7 H :    0.024967
   8 H :    0.030326
   9 C :   -0.007357
  10 H :    0.028340
  11 H :    0.022240
  12 C :   -0.055630
  13 H :   -0.000310
  14 H :    0.026014
  15 H :    0.043462
  16 S :    0.081904
  17 C :   -0.063870
  18 C :   -0.018426
  19 C :   -0.055710
  20 C :   -0.161253
  21 H :    0.002765
  22 C :    0.077082
  23 H :    0.025223
  24 H :    0.023299
  25 C :   -0.087831
  26 H :    0.043640
  27 H :    0.039617
  28 C :   -0.057887
  29 H :    0.021754
  30 H :    0.040588
  31 H :    0.033186
  32 H :    0.054961
  33 H :    0.057134
Sum of atomic charges:    0.0000000

LOEWDIN ATOMIC CHARGES
----------------------
   0 S :    0.380361
   1 C :   -0.197638
   2 C :   -0.068493
   3 C :   -0.061831
   4 C :   -0.177906
   5 H :    0.035150
   6 C :   -0.033795
   7 H :    0.034691
   8 H :    0.031094
   9 C :   -0.042776
  10 H :    0.028393
  11 H :    0.025612
  12 C :   -0.065360
  13 H :    0.017134
  14 H :    0.021670
  15 H :    0.031691
  16 S :    0.395278
  17 C :   -0.183449
  18 C :   -0.066175
  19 C :   -0.051314
  20 C :   -0.192593
  21 H :    0.020484
  22 C :   -0.035365
  23 H :    0.038715
  24 H :    0.026908
  25 C :   -0.038178
  26 H :    0.021734
  27 H :    0.036474
  28 C :   -0.075461
  29 H :    0.021853
  30 H :    0.036140
  31 H :    0.022374
  32 H :    0.033965
  33 H :    0.030616

  Mayer bond orders larger than 0.100000
B(  0-S ,  1-C ) :   1.1248 B(  0-S ,  4-C ) :   1.1154 B(  1-C ,  2-C ) :   1.6515
B(  1-C , 32-H ) :   0.9629 B(  2-C ,  3-C ) :   1.2104 B(  2-C ,  6-C ) :   1.0153
B(  3-C ,  4-C ) :   1.6164 B(  3-C ,  5-H ) :   0.9913 B(  4-C , 20-C ) :   1.0669
B(  6-C ,  7-H ) :   0.9386 B(  6-C ,  8-H ) :   0.9405 B(  6-C ,  9-C ) :   1.0863
B(  9-C , 10-H ) :   0.9453 B(  9-C , 11-H ) :   0.9455 B(  9-C , 12-C ) :   1.1040
B( 12-C , 13-H ) :   0.9611 B( 12-C , 14-H ) :   0.9610 B( 12-C , 15-H ) :   0.9624
B( 16-S , 17-C ) :   1.1359 B( 16-S , 20-C ) :   1.1398 B( 17-C , 18-C ) :   1.6202
B( 17-C , 33-H ) :   0.9723 B( 18-C , 19-C ) :   1.2371 B( 18-C , 21-H ) :   0.9854
B( 19-C , 20-C ) :   1.5704 B( 19-C , 22-C ) :   1.0448 B( 22-C , 23-H ) :   0.9328
B( 22-C , 24-H ) :   0.9369 B( 22-C , 25-C ) :   1.0457 B( 25-C , 26-H ) :   0.9524
B( 25-C , 27-H ) :   0.9525 B( 25-C , 28-C ) :   1.0742 B( 28-C , 29-H ) :   0.9733
B( 28-C , 30-H ) :   0.9718 B( 28-C , 31-H ) :   0.9738

Dispersion correction           -0.016893242
FINAL SINGLE POINT ENERGY     -1339.872991612737

DIPOLE MOMENT
-------------
                                X             Y             Z
Electronic contribution:    -14.24649     -26.87530      -8.13395
Nuclear contribution   :     14.59735      27.51094       8.48709
                        -----------------------------------------
Total Dipole Moment    :      0.35086       0.63564       0.35314
                        -----------------------------------------
Magnitude (a.u.)       :      0.80737
Magnitude (Debye)      :      2.05217

Rotational constants in cm-1:     0.018540     0.011118     0.007750
Rotational constants in MHz :   555.806780   333.299791   232.353516

                             ****ORCA TERMINATED NORMALLY****
TOTAL RUN TIME: 0 days 0 hours 0 minutes 31 seconds 712 msec
