                         Program Version 4.2.1 -  RELEASE  -
|  1> ! wB97X-D3 SP def2-SVP
|  2> %pal
|  3> nprocs 16
|  4> end
|  5>
|  6> * xyz 0 1
|  7> S 	 -75.7201 	 49.1471 	 136.882
|  8> C 	 -76.2973 	 50.5422 	 137.659
|  9> C 	 -75.3906 	 51.5799 	 137.441
| 10> C 	 -74.171 	 51.1171 	 136.969
| 11> C 	 -74.1909 	 49.8079 	 136.529
| 12> H 	 -73.2136 	 51.7052 	 136.903
| 13> C 	 -75.6255 	 52.9865 	 137.96
| 14> H 	 -75.831 	 52.9437 	 139.038
| 15> H 	 -76.625 	 53.3396 	 137.575
| 16> C 	 -74.4973 	 54.0473 	 137.709
| 17> H 	 -73.6346 	 53.7206 	 138.344
| 18> H 	 -74.0864 	 54.3318 	 136.648
| 19> C 	 -74.9909 	 55.4573 	 138.193
| 20> H 	 -74.2021 	 56.2111 	 138.199
| 21> H 	 -75.7621 	 55.9016 	 137.533
| 22> H 	 -75.3909 	 55.3548 	 139.203
| 23> S 	 -71.8299 	 48.8386 	 137.634
| 24> C 	 -70.8656 	 47.8126 	 136.519
| 25> C 	 -71.5239 	 47.4574 	 135.365
| 26> C 	 -72.7433 	 48.108 	 135.304
| 27> C 	 -73.0274 	 49.0019 	 136.337
| 28> H 	 -71.1689 	 46.8639 	 134.535
| 29> C 	 -73.62 	 47.9684 	 134.072
| 30> H 	 -72.938 	 47.5213 	 133.329
| 31> H 	 -73.9062 	 48.9563 	 133.71
| 32> C 	 -74.9878 	 47.1382 	 134.077
| 33> H 	 -75.7548 	 47.6613 	 134.607
| 34> H 	 -74.7418 	 46.2193 	 134.617
| 35> C 	 -75.4121 	 46.6715 	 132.62
| 36> H 	 -74.801 	 46.0071 	 132.124
| 37> H 	 -75.5638 	 47.6306 	 132.068
| 38> H 	 -76.3691 	 46.1563 	 132.546
| 39> H 	 -77.2044 	 50.7763 	 138.134
| 40> H 	 -69.7736 	 47.5758 	 136.527
| 41> *
| 42>
| 43>                          ****END OF INPUT****

CARTESIAN COORDINATES (ANGSTROEM)
---------------------------------
  S    -75.720100   49.147100  136.882000
  C    -76.297300   50.542200  137.659000
  C    -75.390600   51.579900  137.441000
  C    -74.171000   51.117100  136.969000
  C    -74.190900   49.807900  136.529000
  H    -73.213600   51.705200  136.903000
  C    -75.625500   52.986500  137.960000
  H    -75.831000   52.943700  139.038000
  H    -76.625000   53.339600  137.575000
  C    -74.497300   54.047300  137.709000
  H    -73.634600   53.720600  138.344000
  H    -74.086400   54.331800  136.648000
  C    -74.990900   55.457300  138.193000
  H    -74.202100   56.211100  138.199000
  H    -75.762100   55.901600  137.533000
  H    -75.390900   55.354800  139.203000
  S    -71.829900   48.838600  137.634000
  C    -70.865600   47.812600  136.519000
  C    -71.523900   47.457400  135.365000
  C    -72.743300   48.108000  135.304000
  C    -73.027400   49.001900  136.337000
  H    -71.168900   46.863900  134.535000
  C    -73.620000   47.968400  134.072000
  H    -72.938000   47.521300  133.329000
  H    -73.906200   48.956300  133.710000
  C    -74.987800   47.138200  134.077000
  H    -75.754800   47.661300  134.607000
  H    -74.741800   46.219300  134.617000
  C    -75.412100   46.671500  132.620000
  H    -74.801000   46.007100  132.124000
  H    -75.563800   47.630600  132.068000
  H    -76.369100   46.156300  132.546000
  H    -77.204400   50.776300  138.134000
  H    -69.773600   47.575800  136.527000

 Total Charge           Charge          ....    0
 Multiplicity           Mult            ....    1
 Number of Electrons    NEL             ....  134
 Basis Dimension        Dim             ....  322

ORBITAL ENERGIES
----------------

  NO   OCC          E(Eh)            E(eV)
   0   2.0000     -88.969970     -2420.9960
   1   2.0000     -88.969509     -2420.9834
   2   2.0000     -10.321072      -280.8506
   3   2.0000     -10.320266      -280.8287
   4   2.0000     -10.317824      -280.7623
   5   2.0000     -10.310263      -280.5565
   6   2.0000     -10.306301      -280.4487
   7   2.0000     -10.303051      -280.3603
   8   2.0000     -10.297848      -280.2187
   9   2.0000     -10.293270      -280.0941
  10   2.0000     -10.293158      -280.0911
  11   2.0000     -10.289111      -279.9809
  12   2.0000     -10.288562      -279.9660
  13   2.0000     -10.287432      -279.9353
  14   2.0000     -10.283348      -279.8241
  15   2.0000     -10.275329      -279.6059
  16   2.0000      -8.085067      -220.0059
  17   2.0000      -8.083122      -219.9529
  18   2.0000      -6.043349      -164.4479
  19   2.0000      -6.041717      -164.4035
  20   2.0000      -6.039178      -164.3344
  21   2.0000      -6.038016      -164.3028
  22   2.0000      -6.036254      -164.2548
  23   2.0000      -6.033712      -164.1857
  24   2.0000      -1.017914       -27.6988
  25   2.0000      -0.986761       -26.8511
  26   2.0000      -0.907571       -24.6963
  27   2.0000      -0.892505       -24.2863
  28   2.0000      -0.874218       -23.7887
  29   2.0000      -0.851046       -23.1581
  30   2.0000      -0.845135       -22.9973
  31   2.0000      -0.815196       -22.1826
  32   2.0000      -0.779931       -21.2230
  33   2.0000      -0.765142       -20.8206
  34   2.0000      -0.714574       -19.4445
  35   2.0000      -0.696309       -18.9475
  36   2.0000      -0.688700       -18.7405
  37   2.0000      -0.668825       -18.1997
  38   2.0000      -0.635096       -17.2818
  39   2.0000      -0.616826       -16.7847
  40   2.0000      -0.588563       -16.0156
  41   2.0000      -0.572838       -15.5877
  42   2.0000      -0.561889       -15.2898
  43   2.0000      -0.558925       -15.2091
  44   2.0000      -0.527220       -14.3464
  45   2.0000      -0.517553       -14.0833
  46   2.0000      -0.512954       -13.9582
  47   2.0000      -0.509447       -13.8628
  48   2.0000      -0.499026       -13.5792
  49   2.0000      -0.494599       -13.4587
  50   2.0000      -0.490627       -13.3506
  51   2.0000      -0.478557       -13.0222
  52   2.0000      -0.471375       -12.8268
  53   2.0000      -0.466134       -12.6841
  54   2.0000      -0.460266       -12.5245
  55   2.0000      -0.454212       -12.3597
  56   2.0000      -0.445525       -12.1234
  57   2.0000      -0.432275       -11.7628
  58   2.0000      -0.431286       -11.7359
  59   2.0000      -0.425262       -11.5720
  60   2.0000      -0.420183       -11.4338
  61   2.0000      -0.410772       -11.1777
  62   2.0000      -0.406805       -11.0697
  63   2.0000      -0.341450        -9.2913
  64   2.0000      -0.336662        -9.1610
  65   2.0000      -0.326427        -8.8825
  66   2.0000      -0.290471        -7.9041
  67   0.0000       0.026443         0.7196
  68   0.0000       0.057616         1.5678
  69   0.0000       0.100259         2.7282
  70   0.0000       0.121941         3.3182
  71   0.0000       0.138335         3.7643

MULLIKEN ATOMIC CHARGES
-----------------------
   0 S :    0.140550
   1 C :   -0.090004
   2 C :   -0.069853
   3 C :   -0.043543
   4 C :   -0.134713
   5 H :    0.039840
   6 C :    0.026760
   7 H :    0.040534
   8 H :    0.033441
   9 C :   -0.130243
  10 H :    0.048551
  11 H :    0.061103
  12 C :   -0.057708
  13 H :    0.032329
  14 H :    0.039608
  15 H :    0.027192
  16 S :    0.122624
  17 C :   -0.098427
  18 C :   -0.031225
  19 C :   -0.032953
  20 C :   -0.145760
  21 H :    0.019822
  22 C :    0.028103
  23 H :    0.010745
  24 H :    0.034378
  25 C :   -0.056597
  26 H :    0.035139
  27 H :    0.026469
  28 C :   -0.051666
  29 H :    0.020804
  30 H :    0.034470
  31 H :    0.028814
  32 H :    0.024445
  33 H :    0.066972
Sum of atomic charges:   -0.0000000

LOEWDIN ATOMIC CHARGES
----------------------
   0 S :    0.479011
   1 C :   -0.204255
   2 C :   -0.071552
   3 C :   -0.064840
   4 C :   -0.228791
   5 H :    0.042707
   6 C :   -0.040298
   7 H :    0.037361
   8 H :    0.034831
   9 C :   -0.054302
  10 H :    0.028801
  11 H :    0.039802
  12 C :   -0.069836
  13 H :    0.024423
  14 H :    0.027455
  15 H :    0.020739
  16 S :    0.388520
  17 C :   -0.180316
  18 C :   -0.069716
  19 C :   -0.062708
  20 C :   -0.194985
  21 H :    0.035444
  22 C :   -0.035403
  23 H :    0.027786
  24 H :    0.029690
  25 C :   -0.035269
  26 H :    0.006694
  27 H :    0.021383
  28 C :   -0.065669
  29 H :    0.012728
  30 H :    0.029981
  31 H :    0.028280
  32 H :    0.022487
  33 H :    0.039819

  Mayer bond orders larger than 0.100000
B(  0-S ,  1-C ) :   1.1874 B(  0-S ,  4-C ) :   1.1748 B(  1-C ,  2-C ) :   1.5390
B(  1-C ,  4-C ) :   0.1054 B(  1-C , 32-H ) :   0.9792 B(  2-C ,  3-C ) :   1.3063
B(  2-C ,  6-C ) :   1.0100 B(  3-C ,  4-C ) :   1.4935 B(  3-C ,  5-H ) :   0.9920
B(  4-C , 20-C ) :   1.0684 B(  6-C ,  7-H ) :   0.9378 B(  6-C ,  8-H ) :   0.9419
B(  6-C ,  9-C ) :   1.0612 B(  9-C , 10-H ) :   0.9468 B(  9-C , 11-H ) :   0.9609
B(  9-C , 12-C ) :   1.0745 B( 12-C , 13-H ) :   0.9751 B( 12-C , 14-H ) :   0.9776
B( 12-C , 15-H ) :   0.9744 B( 16-S , 17-C ) :   1.1465 B( 16-S , 20-C ) :   1.1111
B( 17-C , 18-C ) :   1.6035 B( 17-C , 20-C ) :   0.1038 B( 17-C , 33-H ) :   0.9524
B( 18-C , 19-C ) :   1.2815 B( 18-C , 21-H ) :   0.9822 B( 19-C , 20-C ) :   1.5732
B( 19-C , 22-C ) :   1.0475 B( 22-C , 23-H ) :   0.9421 B( 22-C , 24-H ) :   0.9315
B( 22-C , 25-C ) :   1.0464 B( 25-C , 26-H ) :   0.9511 B( 25-C , 27-H ) :   0.9607
B( 25-C , 28-C ) :   1.0734 B( 28-C , 29-H ) :   0.9787 B( 28-C , 30-H ) :   0.9784
B( 28-C , 31-H ) :   0.9745

Dispersion correction           -0.013904985
FINAL SINGLE POINT ENERGY     -1339.847943376180

DIPOLE MOMENT
-------------
                                X             Y             Z
Electronic contribution:      7.59749     -11.99561       9.67872
Nuclear contribution   :     -7.70348      12.37001      -9.77101
                        -----------------------------------------
Total Dipole Moment    :     -0.10599       0.37440      -0.09230
                        -----------------------------------------
Magnitude (a.u.)       :      0.39991
Magnitude (Debye)      :      1.01650

Rotational constants in cm-1:     0.019839     0.007939     0.006445
Rotational constants in MHz :   594.745583   237.997240   193.204954

                             ****ORCA TERMINATED NORMALLY****
TOTAL RUN TIME: 0 days 0 hours 0 minutes 35 seconds 653 msec
