                         Program Version 4.2.1 -  RELEASE  -
|  1> ! wB97X-D3 SP def2-SVP
|  2> %pal
|  3> nprocs 16
|  4> end
|  5>
|  6> * xyz 0 1
|  7> S 	 8.36121 	 -9.90462 	 64.3456
|  8> C 	 8.48078 	 -9.79341 	 66.027
|  9> C 	 9.68116 	 -10.1548 	 66.4853
| 10> C 	 10.584 	 -10.6682 	 65.4353
| 11> C 	 9.91794 	 -10.6844 	 64.2302
| 12> H 	 11.6194 	 -11.1206 	 65.5649
| 13> C 	 10.0268 	 -10.1477 	 67.9687
| 14> H 	 10.8621 	 -10.8894 	 68.0573
| 15> H 	 9.18925 	 -10.361 	 68.6148
| 16> C 	 10.5153 	 -8.78228 	 68.4258
| 17> H 	 10.7311 	 -8.72602 	 69.456
| 18> H 	 11.4884 	 -8.61591 	 67.9339
| 19> C 	 9.55104 	 -7.59843 	 68.2247
| 20> H 	 8.46003 	 -7.67948 	 68.4066
| 21> H 	 9.79728 	 -6.74939 	 68.9072
| 22> H 	 9.73116 	 -7.16158 	 67.2525
| 23> S 	 11.3609 	 -10.1029 	 61.9121
| 24> C 	 11.8349 	 -11.5098 	 60.9458
| 25> C 	 11.1893 	 -12.6551 	 61.3632
| 26> C 	 10.4144 	 -12.5023 	 62.5333
| 27> C 	 10.4139 	 -11.1625 	 62.9482
| 28> H 	 11.3898 	 -13.5899 	 60.9194
| 29> C 	 9.56949 	 -13.5751 	 63.2418
| 30> H 	 8.52848 	 -13.2883 	 62.9937
| 31> H 	 9.70472 	 -13.2904 	 64.2876
| 32> C 	 9.70051 	 -15.0933 	 62.9432
| 33> H 	 10.6467 	 -15.4528 	 63.4404
| 34> H 	 9.88184 	 -15.2422 	 61.8879
| 35> C 	 8.56129 	 -15.8784 	 63.4347
| 36> H 	 7.66105 	 -15.5741 	 62.9533
| 37> H 	 8.51632 	 -15.9852 	 64.4961
| 38> H 	 8.73987 	 -16.9595 	 63.1521
| 39> H 	 7.66556 	 -9.38597 	 66.6262
| 40> H 	 12.4658 	 -11.367 	 60.0502
| 41> *
| 42>
| 43>                          ****END OF INPUT****

CARTESIAN COORDINATES (ANGSTROEM)
---------------------------------
  S      8.361210   -9.904620   64.345600
  C      8.480780   -9.793410   66.027000
  C      9.681160  -10.154800   66.485300
  C     10.584000  -10.668200   65.435300
  C      9.917940  -10.684400   64.230200
  H     11.619400  -11.120600   65.564900
  C     10.026800  -10.147700   67.968700
  H     10.862100  -10.889400   68.057300
  H      9.189250  -10.361000   68.614800
  C     10.515300   -8.782280   68.425800
  H     10.731100   -8.726020   69.456000
  H     11.488400   -8.615910   67.933900
  C      9.551040   -7.598430   68.224700
  H      8.460030   -7.679480   68.406600
  H      9.797280   -6.749390   68.907200
  H      9.731160   -7.161580   67.252500
  S     11.360900  -10.102900   61.912100
  C     11.834900  -11.509800   60.945800
  C     11.189300  -12.655100   61.363200
  C     10.414400  -12.502300   62.533300
  C     10.413900  -11.162500   62.948200
  H     11.389800  -13.589900   60.919400
  C      9.569490  -13.575100   63.241800
  H      8.528480  -13.288300   62.993700
  H      9.704720  -13.290400   64.287600
  C      9.700510  -15.093300   62.943200
  H     10.646700  -15.452800   63.440400
  H      9.881840  -15.242200   61.887900
  C      8.561290  -15.878400   63.434700
  H      7.661050  -15.574100   62.953300
  H      8.516320  -15.985200   64.496100
  H      8.739870  -16.959500   63.152100
  H      7.665560   -9.385970   66.626200
  H     12.465800  -11.367000   60.050200

 Total Charge           Charge          ....    0
 Multiplicity           Mult            ....    1
 Number of Electrons    NEL             ....  134
 Basis Dimension        Dim             ....  322

ORBITAL ENERGIES
----------------

  NO   OCC          E(Eh)            E(eV)
   0   2.0000     -88.964926     -2420.8587
   1   2.0000     -88.958562     -2420.6855
   2   2.0000     -10.323736      -280.9231
   3   2.0000     -10.319825      -280.8167
   4   2.0000     -10.319091      -280.7967
   5   2.0000     -10.303071      -280.3608
   6   2.0000     -10.302740      -280.3518
   7   2.0000     -10.302684      -280.3503
   8   2.0000     -10.296145      -280.1724
   9   2.0000     -10.291909      -280.0571
  10   2.0000     -10.291412      -280.0436
  11   2.0000     -10.289112      -279.9810
  12   2.0000     -10.288805      -279.9726
  13   2.0000     -10.281427      -279.7719
  14   2.0000     -10.278165      -279.6831
  15   2.0000     -10.275478      -279.6100
  16   2.0000      -8.079203      -219.8463
  17   2.0000      -8.075057      -219.7335
  18   2.0000      -6.037569      -164.2906
  19   2.0000      -6.033823      -164.1887
  20   2.0000      -6.033420      -164.1777
  21   2.0000      -6.030107      -164.0876
  22   2.0000      -6.029345      -164.0668
  23   2.0000      -6.025836      -163.9713
  24   2.0000      -1.007696       -27.4208
  25   2.0000      -0.983693       -26.7676
  26   2.0000      -0.911077       -24.7917
  27   2.0000      -0.909707       -24.7544
  28   2.0000      -0.868662       -23.6375
  29   2.0000      -0.855266       -23.2730
  30   2.0000      -0.843105       -22.9420
  31   2.0000      -0.812630       -22.1128
  32   2.0000      -0.782980       -21.3060
  33   2.0000      -0.770377       -20.9630
  34   2.0000      -0.703330       -19.1386
  35   2.0000      -0.699924       -19.0459
  36   2.0000      -0.688824       -18.7439
  37   2.0000      -0.651225       -17.7207
  38   2.0000      -0.643876       -17.5208
  39   2.0000      -0.612597       -16.6696
  40   2.0000      -0.595229       -16.1970
  41   2.0000      -0.574524       -15.6336
  42   2.0000      -0.564980       -15.3739
  43   2.0000      -0.549057       -14.9406
  44   2.0000      -0.539071       -14.6689
  45   2.0000      -0.526754       -14.3337
  46   2.0000      -0.515861       -14.0373
  47   2.0000      -0.511359       -13.9148
  48   2.0000      -0.504975       -13.7411
  49   2.0000      -0.493852       -13.4384
  50   2.0000      -0.485415       -13.2088
  51   2.0000      -0.483152       -13.1472
  52   2.0000      -0.472132       -12.8474
  53   2.0000      -0.464593       -12.6422
  54   2.0000      -0.458095       -12.4654
  55   2.0000      -0.450464       -12.2578
  56   2.0000      -0.441627       -12.0173
  57   2.0000      -0.433556       -11.7977
  58   2.0000      -0.428870       -11.6702
  59   2.0000      -0.423192       -11.5156
  60   2.0000      -0.420552       -11.4438
  61   2.0000      -0.417157       -11.3514
  62   2.0000      -0.405558       -11.0358
  63   2.0000      -0.336450        -9.1553
  64   2.0000      -0.328832        -8.9480
  65   2.0000      -0.317421        -8.6375
  66   2.0000      -0.306545        -8.3415
  67   0.0000       0.047372         1.2891
  68   0.0000       0.058302         1.5865
  69   0.0000       0.118904         3.2355
  70   0.0000       0.125091         3.4039
  71   0.0000       0.129335         3.5194

MULLIKEN ATOMIC CHARGES
-----------------------
   0 S :    0.112824
   1 C :   -0.116327
   2 C :   -0.102718
   3 C :    0.038494
   4 C :   -0.218745
   5 H :    0.046549
   6 C :    0.073043
   7 H :    0.027957
   8 H :    0.027279
   9 C :   -0.045582
  10 H :    0.019323
  11 H :    0.023971
  12 C :   -0.087062
  13 H :    0.034257
  14 H :    0.026453
  15 H :    0.039218
  16 S :    0.115878
  17 C :   -0.116172
  18 C :   -0.012763
  19 C :   -0.030432
  20 C :   -0.171015
  21 H :    0.001294
  22 C :    0.063030
  23 H :    0.034188
  24 H :    0.039460
  25 C :   -0.065683
  26 H :    0.029653
  27 H :    0.026760
  28 C :   -0.025526
  29 H :    0.032389
  30 H :    0.031913
  31 H :    0.028428
  32 H :    0.049747
  33 H :    0.069916
Sum of atomic charges:    0.0000000

LOEWDIN ATOMIC CHARGES
----------------------
   0 S :    0.422058
   1 C :   -0.209169
   2 C :   -0.070195
   3 C :   -0.064209
   4 C :   -0.200959
   5 H :    0.047677
   6 C :   -0.028824
   7 H :    0.034654
   8 H :    0.027927
   9 C :   -0.040952
  10 H :    0.016646
  11 H :    0.027614
  12 C :   -0.079554
  13 H :    0.025649
  14 H :    0.030500
  15 H :    0.025808
  16 S :    0.397874
  17 C :   -0.178996
  18 C :   -0.072992
  19 C :   -0.045052
  20 C :   -0.216073
  21 H :    0.023311
  22 C :   -0.036831
  23 H :    0.037390
  24 H :    0.035810
  25 C :   -0.046164
  26 H :    0.029541
  27 H :    0.021433
  28 C :   -0.061116
  29 H :    0.022582
  30 H :    0.025197
  31 H :    0.035890
  32 H :    0.030363
  33 H :    0.033160

  Mayer bond orders larger than 0.100000
B(  0-S ,  1-C ) :   1.1366 B(  0-S ,  4-C ) :   1.1598 B(  1-C ,  2-C ) :   1.6538
B(  1-C , 32-H ) :   0.9647 B(  2-C ,  3-C ) :   1.2036 B(  2-C ,  6-C ) :   1.0149
B(  3-C ,  4-C ) :   1.6146 B(  3-C ,  5-H ) :   0.9836 B(  4-C , 20-C ) :   0.9971
B(  6-C ,  7-H ) :   0.9407 B(  6-C ,  8-H ) :   0.9489 B(  6-C ,  9-C ) :   1.0821
B(  9-C , 10-H ) :   0.9628 B(  9-C , 11-H ) :   0.9518 B(  9-C , 12-C ) :   1.0685
B( 12-C , 13-H ) :   0.9747 B( 12-C , 14-H ) :   0.9736 B( 12-C , 15-H ) :   0.9740
B( 16-S , 17-C ) :   1.1614 B( 16-S , 20-C ) :   1.1535 B( 17-C , 18-C ) :   1.5855
B( 17-C , 20-C ) :   0.1066 B( 17-C , 33-H ) :   0.9639 B( 18-C , 19-C ) :   1.2677
B( 18-C , 21-H ) :   0.9929 B( 19-C , 20-C ) :   1.5916 B( 19-C , 22-C ) :   1.0139
B( 22-C , 23-H ) :   0.9388 B( 22-C , 24-H ) :   0.9208 B( 22-C , 25-C ) :   1.0585
B( 25-C , 26-H ) :   0.9492 B( 25-C , 27-H ) :   0.9507 B( 25-C , 28-C ) :   1.1083
B( 28-C , 29-H ) :   0.9720 B( 28-C , 30-H ) :   0.9720 B( 28-C , 31-H ) :   0.9665

Dispersion correction           -0.014323117
FINAL SINGLE POINT ENERGY     -1339.877027243835

DIPOLE MOMENT
-------------
                                X             Y             Z
Electronic contribution:      2.39133      10.61075     -16.83617
Nuclear contribution   :     -2.29170     -11.03896      17.19962
                        -----------------------------------------
Total Dipole Moment    :      0.09963      -0.42821       0.36345
                        -----------------------------------------
Magnitude (a.u.)       :      0.57043
Magnitude (Debye)      :      1.44991

Rotational constants in cm-1:     0.019764     0.007931     0.006502
Rotational constants in MHz :   592.508388   237.767065   194.923482

                             ****ORCA TERMINATED NORMALLY****
TOTAL RUN TIME: 0 days 0 hours 0 minutes 34 seconds 465 msec
