                         Program Version 4.2.1 -  RELEASE  -
|  1> ! wB97X-D3 SP def2-SVP
|  2> %pal
|  3> nprocs 16
|  4> end
|  5>
|  6> * xyz 0 1
|  7> S 	 8.55781 	 27.1484 	 37.7119
|  8> C 	 6.84582 	 27.5764 	 37.9386
|  9> C 	 6.31262 	 26.6622 	 38.8611
| 10> C 	 7.19633 	 25.6951 	 39.3432
| 11> C 	 8.51351 	 25.8739 	 38.8945
| 12> H 	 7.04252 	 25.014 	 40.1168
| 13> C 	 4.96162 	 26.6919 	 39.4387
| 14> H 	 4.46288 	 25.7514 	 39.2162
| 15> H 	 4.39403 	 27.4335 	 38.9323
| 16> C 	 4.93196 	 26.976 	 40.9576
| 17> H 	 3.78914 	 27.0259 	 41.2291
| 18> H 	 5.38274 	 26.1975 	 41.4948
| 19> C 	 5.60877 	 28.3422 	 41.2778
| 20> H 	 5.07925 	 29.1268 	 40.8048
| 21> H 	 5.63638 	 28.5144 	 42.2982
| 22> H 	 6.64014 	 28.5303 	 40.9451
| 23> S 	 10.8896 	 26.1932 	 40.1804
| 24> C 	 11.8597 	 24.7685 	 40.534
| 25> C 	 11.2397 	 23.5853 	 40.0321
| 26> C 	 9.99718 	 23.8469 	 39.3609
| 27> C 	 9.71352 	 25.1931 	 39.3425
| 28> H 	 11.6242 	 22.6129 	 40.364
| 29> C 	 8.99486 	 22.7334 	 38.9306
| 30> H 	 9.33134 	 22.3582 	 37.9628
| 31> H 	 8.03241 	 23.1501 	 38.9274
| 32> C 	 8.90261 	 21.4538 	 39.7841
| 33> H 	 8.74466 	 21.584 	 40.856
| 34> H 	 9.70079 	 20.6969 	 39.6991
| 35> C 	 7.63253 	 20.6819 	 39.3011
| 36> H 	 6.71546 	 21.3379 	 39.2007
| 37> H 	 7.34999 	 19.7219 	 39.8241
| 38> H 	 7.7567 	 20.3045 	 38.2629
| 39> H 	 6.31064 	 28.4951 	 37.672
| 40> H 	 12.8194 	 24.7432 	 40.9296
| 41> *
| 42>
| 43>                          ****END OF INPUT****

CARTESIAN COORDINATES (ANGSTROEM)
---------------------------------
  S      8.557810   27.148400   37.711900
  C      6.845820   27.576400   37.938600
  C      6.312620   26.662200   38.861100
  C      7.196330   25.695100   39.343200
  C      8.513510   25.873900   38.894500
  H      7.042520   25.014000   40.116800
  C      4.961620   26.691900   39.438700
  H      4.462880   25.751400   39.216200
  H      4.394030   27.433500   38.932300
  C      4.931960   26.976000   40.957600
  H      3.789140   27.025900   41.229100
  H      5.382740   26.197500   41.494800
  C      5.608770   28.342200   41.277800
  H      5.079250   29.126800   40.804800
  H      5.636380   28.514400   42.298200
  H      6.640140   28.530300   40.945100
  S     10.889600   26.193200   40.180400
  C     11.859700   24.768500   40.534000
  C     11.239700   23.585300   40.032100
  C      9.997180   23.846900   39.360900
  C      9.713520   25.193100   39.342500
  H     11.624200   22.612900   40.364000
  C      8.994860   22.733400   38.930600
  H      9.331340   22.358200   37.962800
  H      8.032410   23.150100   38.927400
  C      8.902610   21.453800   39.784100
  H      8.744660   21.584000   40.856000
  H      9.700790   20.696900   39.699100
  C      7.632530   20.681900   39.301100
  H      6.715460   21.337900   39.200700
  H      7.349990   19.721900   39.824100
  H      7.756700   20.304500   38.262900
  H      6.310640   28.495100   37.672000
  H     12.819400   24.743200   40.929600

 Total Charge           Charge          ....    0
 Multiplicity           Mult            ....    1
 Number of Electrons    NEL             ....  134
 Basis Dimension        Dim             ....  322

ORBITAL ENERGIES
----------------

  NO   OCC          E(Eh)            E(eV)
   0   2.0000     -88.971230     -2421.0303
   1   2.0000     -88.966559     -2420.9031
   2   2.0000     -10.329577      -281.0821
   3   2.0000     -10.325843      -280.9805
   4   2.0000     -10.319432      -280.8060
   5   2.0000     -10.316244      -280.7193
   6   2.0000     -10.308291      -280.5029
   7   2.0000     -10.301343      -280.3138
   8   2.0000     -10.296442      -280.1804
   9   2.0000     -10.295477      -280.1542
  10   2.0000     -10.295084      -280.1435
  11   2.0000     -10.294299      -280.1221
  12   2.0000     -10.288860      -279.9741
  13   2.0000     -10.286428      -279.9079
  14   2.0000     -10.282637      -279.8048
  15   2.0000     -10.267194      -279.3846
  16   2.0000      -8.085373      -220.0142
  17   2.0000      -8.080643      -219.8855
  18   2.0000      -6.043861      -164.4618
  19   2.0000      -6.039911      -164.3543
  20   2.0000      -6.039174      -164.3343
  21   2.0000      -6.036235      -164.2543
  22   2.0000      -6.034991      -164.2205
  23   2.0000      -6.031662      -164.1299
  24   2.0000      -1.005837       -27.3702
  25   2.0000      -0.981271       -26.7017
  26   2.0000      -0.914067       -24.8730
  27   2.0000      -0.908253       -24.7148
  28   2.0000      -0.864820       -23.5329
  29   2.0000      -0.850554       -23.1447
  30   2.0000      -0.843390       -22.9498
  31   2.0000      -0.811493       -22.0819
  32   2.0000      -0.782834       -21.3020
  33   2.0000      -0.771818       -21.0022
  34   2.0000      -0.711026       -19.3480
  35   2.0000      -0.703562       -19.1449
  36   2.0000      -0.696865       -18.9627
  37   2.0000      -0.659452       -17.9446
  38   2.0000      -0.641173       -17.4472
  39   2.0000      -0.624215       -16.9858
  40   2.0000      -0.596579       -16.2338
  41   2.0000      -0.574721       -15.6389
  42   2.0000      -0.564368       -15.3572
  43   2.0000      -0.555362       -15.1122
  44   2.0000      -0.532317       -14.4851
  45   2.0000      -0.526307       -14.3215
  46   2.0000      -0.518784       -14.1168
  47   2.0000      -0.511249       -13.9118
  48   2.0000      -0.505212       -13.7475
  49   2.0000      -0.496067       -13.4987
  50   2.0000      -0.487848       -13.2750
  51   2.0000      -0.471744       -12.8368
  52   2.0000      -0.469069       -12.7640
  53   2.0000      -0.467117       -12.7109
  54   2.0000      -0.453997       -12.3539
  55   2.0000      -0.449289       -12.2258
  56   2.0000      -0.443548       -12.0696
  57   2.0000      -0.438377       -11.9288
  58   2.0000      -0.437333       -11.9004
  59   2.0000      -0.426679       -11.6105
  60   2.0000      -0.424192       -11.5429
  61   2.0000      -0.420213       -11.4346
  62   2.0000      -0.412425       -11.2226
  63   2.0000      -0.337672        -9.1885
  64   2.0000      -0.333451        -9.0737
  65   2.0000      -0.327041        -8.8992
  66   2.0000      -0.296876        -8.0784
  67   0.0000       0.027286         0.7425
  68   0.0000       0.062484         1.7003
  69   0.0000       0.110596         3.0095
  70   0.0000       0.119869         3.2618
  71   0.0000       0.125777         3.4226

MULLIKEN ATOMIC CHARGES
-----------------------
   0 S :    0.111515
   1 C :   -0.122034
   2 C :   -0.110369
   3 C :    0.065010
   4 C :   -0.185845
   5 H :   -0.004137
   6 C :    0.095768
   7 H :    0.032114
   8 H :   -0.002959
   9 C :   -0.091422
  10 H :    0.047636
  11 H :    0.026344
  12 C :   -0.022868
  13 H :    0.011074
  14 H :    0.018147
  15 H :    0.041752
  16 S :    0.129042
  17 C :   -0.078828
  18 C :   -0.056753
  19 C :   -0.007794
  20 C :   -0.178537
  21 H :    0.032718
  22 C :    0.121421
  23 H :    0.040579
  24 H :    0.006609
  25 C :   -0.080895
  26 H :    0.038066
  27 H :    0.038093
  28 C :   -0.116997
  29 H :    0.037329
  30 H :    0.044823
  31 H :    0.024963
  32 H :    0.057316
  33 H :    0.039118
Sum of atomic charges:    0.0000000

LOEWDIN ATOMIC CHARGES
----------------------
   0 S :    0.407860
   1 C :   -0.210224
   2 C :   -0.061689
   3 C :   -0.061309
   4 C :   -0.192504
   5 H :    0.020846
   6 C :   -0.034247
   7 H :    0.033739
   8 H :    0.020838
   9 C :   -0.029809
  10 H :    0.038387
  11 H :    0.011578
  12 C :   -0.062355
  13 H :    0.019332
  14 H :    0.016575
  15 H :    0.032564
  16 S :    0.413865
  17 C :   -0.176542
  18 C :   -0.068684
  19 C :   -0.050272
  20 C :   -0.207360
  21 H :    0.034089
  22 C :   -0.016022
  23 H :    0.040889
  24 H :    0.022489
  25 C :   -0.044650
  26 H :    0.023998
  27 H :    0.026967
  28 C :   -0.082053
  29 H :    0.026635
  30 H :    0.030676
  31 H :    0.023533
  32 H :    0.036501
  33 H :    0.016356

  Mayer bond orders larger than 0.100000
B(  0-S ,  1-C ) :   1.1270 B(  0-S ,  4-C ) :   1.1794 B(  1-C ,  2-C ) :   1.5792
B(  1-C ,  4-C ) :   0.1095 B(  1-C , 32-H ) :   0.9643 B(  2-C ,  3-C ) :   1.2597
B(  2-C ,  6-C ) :   1.0417 B(  3-C ,  4-C ) :   1.5386 B(  3-C ,  5-H ) :   0.9970
B(  4-C , 20-C ) :   1.0265 B(  6-C ,  7-H ) :   0.9325 B(  6-C ,  8-H ) :   0.9355
B(  6-C ,  9-C ) :   1.0680 B(  9-C , 10-H ) :   0.9567 B(  9-C , 11-H ) :   0.9589
B(  9-C , 12-C ) :   1.0672 B( 12-C , 13-H ) :   0.9751 B( 12-C , 14-H ) :   0.9746
B( 12-C , 15-H ) :   0.9721 B( 16-S , 17-C ) :   1.1586 B( 16-S , 20-C ) :   1.1483
B( 17-C , 18-C ) :   1.6063 B( 17-C , 20-C ) :   0.1057 B( 17-C , 33-H ) :   0.9732
B( 18-C , 19-C ) :   1.2441 B( 18-C , 21-H ) :   0.9802 B( 19-C , 20-C ) :   1.6024
B( 19-C , 22-C ) :   1.0276 B( 22-C , 23-H ) :   0.9226 B( 22-C , 24-H ) :   0.9430
B( 22-C , 25-C ) :   1.0641 B( 25-C , 26-H ) :   0.9607 B( 25-C , 27-H ) :   0.9501
B( 25-C , 28-C ) :   1.0685 B( 28-C , 29-H ) :   0.9757 B( 28-C , 30-H ) :   0.9743
B( 28-C , 31-H ) :   0.9738

Dispersion correction           -0.014580852
FINAL SINGLE POINT ENERGY     -1339.862954180457

DIPOLE MOMENT
-------------
                                X             Y             Z
Electronic contribution:     19.26341      13.39302      -7.94812
Nuclear contribution   :    -19.57993     -13.80407       8.34768
                        -----------------------------------------
Total Dipole Moment    :     -0.31652      -0.41105       0.39956
                        -----------------------------------------
Magnitude (a.u.)       :      0.65483
Magnitude (Debye)      :      1.66443

Rotational constants in cm-1:     0.016789     0.009340     0.007442
Rotational constants in MHz :   503.327022   280.013392   223.103628

                             ****ORCA TERMINATED NORMALLY****
TOTAL RUN TIME: 0 days 0 hours 0 minutes 33 seconds 529 msec
