                         Program Version 4.2.1 -  RELEASE  -
|  1> ! wB97X-D3 SP def2-SVP
|  2> %pal
|  3> nprocs 16
|  4> end
|  5>
|  6> * xyz 0 1
|  7> S 	 49.4008 	 21.7307 	 44.5549
|  8> C 	 49.0455 	 20.3673 	 43.5571
|  9> C 	 47.8169 	 20.5839 	 42.9261
| 10> C 	 47.1712 	 21.82 	 43.1686
| 11> C 	 47.8276 	 22.4652 	 44.2525
| 12> H 	 46.342 	 22.3191 	 42.7602
| 13> C 	 47.4251 	 19.7624 	 41.7218
| 14> H 	 47.3349 	 18.746 	 42.0828
| 15> H 	 48.2924 	 19.7201 	 41.0723
| 16> C 	 46.133 	 20.0187 	 40.869
| 17> H 	 45.3605 	 20.1076 	 41.6152
| 18> H 	 46.1539 	 20.9654 	 40.3953
| 19> C 	 45.93 	 18.9829 	 39.7763
| 20> H 	 44.9321 	 18.9401 	 39.3571
| 21> H 	 46.7436 	 19.001 	 39.0218
| 22> H 	 46.0685 	 17.9843 	 40.3383
| 23> S 	 48.6873 	 24.9512 	 45.2151
| 24> C 	 47.4919 	 26.2042 	 45.5079
| 25> C 	 46.2484 	 25.6944 	 45.5181
| 26> C 	 46.2003 	 24.2903 	 45.1668
| 27> C 	 47.4571 	 23.7395 	 44.9112
| 28> H 	 45.4986 	 26.2848 	 45.9127
| 29> C 	 44.9121 	 23.5332 	 45.1536
| 30> H 	 44.6863 	 23.1621 	 44.2026
| 31> H 	 44.0232 	 24.1743 	 45.3206
| 32> C 	 44.9396 	 22.407 	 46.202
| 33> H 	 45.6777 	 21.6281 	 45.9928
| 34> H 	 44.0283 	 21.7561 	 46.0936
| 35> C 	 45.0962 	 22.8202 	 47.6792
| 36> H 	 44.6774 	 23.7824 	 47.9688
| 37> H 	 46.1441 	 22.9113 	 48.0242
| 38> H 	 44.6122 	 22.0198 	 48.3443
| 39> H 	 49.8091 	 19.6151 	 43.3637
| 40> H 	 47.8086 	 27.2673 	 45.7274
| 41> *
| 42>
| 43>                          ****END OF INPUT****

CARTESIAN COORDINATES (ANGSTROEM)
---------------------------------
  S     49.400800   21.730700   44.554900
  C     49.045500   20.367300   43.557100
  C     47.816900   20.583900   42.926100
  C     47.171200   21.820000   43.168600
  C     47.827600   22.465200   44.252500
  H     46.342000   22.319100   42.760200
  C     47.425100   19.762400   41.721800
  H     47.334900   18.746000   42.082800
  H     48.292400   19.720100   41.072300
  C     46.133000   20.018700   40.869000
  H     45.360500   20.107600   41.615200
  H     46.153900   20.965400   40.395300
  C     45.930000   18.982900   39.776300
  H     44.932100   18.940100   39.357100
  H     46.743600   19.001000   39.021800
  H     46.068500   17.984300   40.338300
  S     48.687300   24.951200   45.215100
  C     47.491900   26.204200   45.507900
  C     46.248400   25.694400   45.518100
  C     46.200300   24.290300   45.166800
  C     47.457100   23.739500   44.911200
  H     45.498600   26.284800   45.912700
  C     44.912100   23.533200   45.153600
  H     44.686300   23.162100   44.202600
  H     44.023200   24.174300   45.320600
  C     44.939600   22.407000   46.202000
  H     45.677700   21.628100   45.992800
  H     44.028300   21.756100   46.093600
  C     45.096200   22.820200   47.679200
  H     44.677400   23.782400   47.968800
  H     46.144100   22.911300   48.024200
  H     44.612200   22.019800   48.344300
  H     49.809100   19.615100   43.363700
  H     47.808600   27.267300   45.727400

 Total Charge           Charge          ....    0
 Multiplicity           Mult            ....    1
 Number of Electrons    NEL             ....  134
 Basis Dimension        Dim             ....  322

ORBITAL ENERGIES
----------------

  NO   OCC          E(Eh)            E(eV)
   0   2.0000     -88.967552     -2420.9302
   1   2.0000     -88.961811     -2420.7739
   2   2.0000     -10.336567      -281.2723
   3   2.0000     -10.329318      -281.0750
   4   2.0000     -10.320974      -280.8480
   5   2.0000     -10.315072      -280.6874
   6   2.0000     -10.305303      -280.4215
   7   2.0000     -10.305212      -280.4191
   8   2.0000     -10.297082      -280.1979
   9   2.0000     -10.288591      -279.9668
  10   2.0000     -10.288462      -279.9633
  11   2.0000     -10.288275      -279.9582
  12   2.0000     -10.286719      -279.9159
  13   2.0000     -10.286041      -279.8974
  14   2.0000     -10.285348      -279.8785
  15   2.0000     -10.279003      -279.7059
  16   2.0000      -8.082370      -219.9325
  17   2.0000      -8.076935      -219.7846
  18   2.0000      -6.040746      -164.3771
  19   2.0000      -6.036825      -164.2704
  20   2.0000      -6.035586      -164.2366
  21   2.0000      -6.033338      -164.1755
  22   2.0000      -6.031377      -164.1221
  23   2.0000      -6.027531      -164.0175
  24   2.0000      -1.006158       -27.3790
  25   2.0000      -0.986042       -26.8316
  26   2.0000      -0.909120       -24.7384
  27   2.0000      -0.906464       -24.6661
  28   2.0000      -0.870952       -23.6998
  29   2.0000      -0.852342       -23.1934
  30   2.0000      -0.840117       -22.8608
  31   2.0000      -0.819243       -22.2927
  32   2.0000      -0.781026       -21.2528
  33   2.0000      -0.766779       -20.8651
  34   2.0000      -0.714256       -19.4359
  35   2.0000      -0.698645       -19.0111
  36   2.0000      -0.683266       -18.5926
  37   2.0000      -0.663387       -18.0517
  38   2.0000      -0.646562       -17.5939
  39   2.0000      -0.618890       -16.8409
  40   2.0000      -0.597350       -16.2547
  41   2.0000      -0.569743       -15.5035
  42   2.0000      -0.568491       -15.4694
  43   2.0000      -0.549743       -14.9593
  44   2.0000      -0.539627       -14.6840
  45   2.0000      -0.528671       -14.3859
  46   2.0000      -0.517942       -14.0939
  47   2.0000      -0.508567       -13.8388
  48   2.0000      -0.500643       -13.6232
  49   2.0000      -0.494256       -13.4494
  50   2.0000      -0.486859       -13.2481
  51   2.0000      -0.484129       -13.1738
  52   2.0000      -0.478211       -13.0128
  53   2.0000      -0.472146       -12.8477
  54   2.0000      -0.456616       -12.4251
  55   2.0000      -0.445955       -12.1350
  56   2.0000      -0.436788       -11.8856
  57   2.0000      -0.431226       -11.7343
  58   2.0000      -0.428245       -11.6531
  59   2.0000      -0.424253       -11.5445
  60   2.0000      -0.419341       -11.4108
  61   2.0000      -0.418077       -11.3765
  62   2.0000      -0.403071       -10.9681
  63   2.0000      -0.354640        -9.6502
  64   2.0000      -0.334316        -9.0972
  65   2.0000      -0.324787        -8.8379
  66   2.0000      -0.283601        -7.7172
  67   0.0000       0.018361         0.4996
  68   0.0000       0.074311         2.0221
  69   0.0000       0.102691         2.7944
  70   0.0000       0.120339         3.2746
  71   0.0000       0.135394         3.6842

MULLIKEN ATOMIC CHARGES
-----------------------
   0 S :    0.104697
   1 C :   -0.133079
   2 C :   -0.029577
   3 C :    0.019993
   4 C :   -0.152361
   5 H :    0.008022
   6 C :   -0.008314
   7 H :    0.021376
   8 H :    0.031008
   9 C :   -0.043341
  10 H :    0.022537
  11 H :    0.021896
  12 C :   -0.053607
  13 H :    0.045024
  14 H :    0.044141
  15 H :    0.024961
  16 S :    0.085052
  17 C :   -0.117610
  18 C :    0.009570
  19 C :   -0.069308
  20 C :   -0.116699
  21 H :   -0.003944
  22 C :    0.120048
  23 H :    0.003944
  24 H :    0.016498
  25 C :   -0.093763
  26 H :    0.041050
  27 H :    0.022947
  28 C :   -0.073820
  29 H :    0.021998
  30 H :    0.043799
  31 H :    0.042949
  32 H :    0.062415
  33 H :    0.081498
Sum of atomic charges:    0.0000000

LOEWDIN ATOMIC CHARGES
----------------------
   0 S :    0.417213
   1 C :   -0.211930
   2 C :   -0.061086
   3 C :   -0.058485
   4 C :   -0.178537
   5 H :    0.027305
   6 C :   -0.038375
   7 H :    0.029116
   8 H :    0.028568
   9 C :   -0.042366
  10 H :    0.021164
  11 H :    0.016205
  12 C :   -0.065944
  13 H :    0.028031
  14 H :    0.030572
  15 H :    0.031346
  16 S :    0.389955
  17 C :   -0.178785
  18 C :   -0.069971
  19 C :   -0.052014
  20 C :   -0.200477
  21 H :    0.022751
  22 C :   -0.031920
  23 H :    0.021346
  24 H :    0.034391
  25 C :   -0.047410
  26 H :    0.028722
  27 H :    0.025914
  28 C :   -0.076949
  29 H :    0.019417
  30 H :    0.029644
  31 H :    0.036562
  32 H :    0.032615
  33 H :    0.043414

  Mayer bond orders larger than 0.100000
B(  0-S ,  1-C ) :   1.1496 B(  0-S ,  4-C ) :   1.1857 B(  1-C ,  2-C ) :   1.5528
B(  1-C ,  4-C ) :   0.1122 B(  1-C , 32-H ) :   0.9795 B(  2-C ,  3-C ) :   1.2661
B(  2-C ,  6-C ) :   1.0094 B(  3-C ,  4-C ) :   1.5075 B(  3-C ,  5-H ) :   1.0011
B(  4-C , 20-C ) :   1.0485 B(  6-C ,  7-H ) :   0.9344 B(  6-C ,  8-H ) :   0.9496
B(  6-C ,  9-C ) :   1.0706 B(  9-C , 10-H ) :   0.9531 B(  9-C , 11-H ) :   0.9473
B(  9-C , 12-C ) :   1.0790 B( 12-C , 13-H ) :   0.9722 B( 12-C , 14-H ) :   0.9745
B( 12-C , 15-H ) :   0.9749 B( 16-S , 17-C ) :   1.1542 B( 16-S , 20-C ) :   1.1260
B( 17-C , 18-C ) :   1.6177 B( 17-C , 33-H ) :   0.9583 B( 18-C , 19-C ) :   1.2260
B( 18-C , 21-H ) :   1.0047 B( 19-C , 20-C ) :   1.5921 B( 19-C , 22-C ) :   1.0481
B( 22-C , 23-H ) :   0.9253 B( 22-C , 24-H ) :   0.9339 B( 22-C , 25-C ) :   1.0758
B( 25-C , 26-H ) :   0.9534 B( 25-C , 27-H ) :   0.9594 B( 25-C , 28-C ) :   1.0576
B( 28-C , 29-H ) :   0.9799 B( 28-C , 30-H ) :   0.9754 B( 28-C , 31-H ) :   0.9762

Dispersion correction           -0.014719440
FINAL SINGLE POINT ENERGY     -1339.863913106383

DIPOLE MOMENT
-------------
                                X             Y             Z
Electronic contribution:     20.46946      14.48082       7.71951
Nuclear contribution   :    -20.95091     -14.52870      -8.03136
                        -----------------------------------------
Total Dipole Moment    :     -0.48145      -0.04787      -0.31185
                        -----------------------------------------
Magnitude (a.u.)       :      0.57562
Magnitude (Debye)      :      1.46310

Rotational constants in cm-1:     0.019974     0.008209     0.007098
Rotational constants in MHz :   598.794597   246.112051   212.778459

                             ****ORCA TERMINATED NORMALLY****
TOTAL RUN TIME: 0 days 0 hours 0 minutes 34 seconds 577 msec
