                         Program Version 4.2.1 -  RELEASE  -
|  1> ! wB97X-D3 SP def2-SVP
|  2> %pal
|  3> nprocs 16
|  4> end
|  5>
|  6> * xyz 0 1
|  7> S 	 -10.8776 	 70.7805 	 49.2135
|  8> C 	 -11.0568 	 69.9647 	 47.7352
|  9> C 	 -12.2579 	 70.2542 	 47.104
| 10> C 	 -12.9732 	 71.3027 	 47.7911
| 11> C 	 -12.289 	 71.7916 	 48.8862
| 12> H 	 -13.8747 	 71.8021 	 47.4243
| 13> C 	 -12.7683 	 69.7189 	 45.8128
| 14> H 	 -13.7608 	 69.9846 	 45.5982
| 15> H 	 -12.7046 	 68.6507 	 45.8145
| 16> C 	 -11.9725 	 70.1039 	 44.5203
| 17> H 	 -12.1193 	 71.229 	 44.3858
| 18> H 	 -10.9075 	 69.8305 	 44.6199
| 19> C 	 -12.5394 	 69.4949 	 43.1775
| 20> H 	 -11.8602 	 69.7262 	 42.3837
| 21> H 	 -12.6969 	 68.4694 	 43.1213
| 22> H 	 -13.5198 	 69.9247 	 42.8966
| 23> S 	 -12.7244 	 72.2352 	 51.619
| 24> C 	 -13.2287 	 73.8419 	 52.0875
| 25> C 	 -13.528 	 74.6047 	 51.0231
| 26> C 	 -13.1414 	 74.0536 	 49.7729
| 27> C 	 -12.6729 	 72.7784 	 49.9371
| 28> H 	 -14.0111 	 75.5328 	 51.3663
| 29> C 	 -13.3116 	 74.7235 	 48.3848
| 30> H 	 -12.7364 	 74.178 	 47.6014
| 31> H 	 -12.9656 	 75.7402 	 48.418
| 32> C 	 -14.7091 	 74.8313 	 47.8593
| 33> H 	 -15.2616 	 75.5473 	 48.477
| 34> H 	 -15.1546 	 73.8043 	 47.9002
| 35> C 	 -14.8433 	 75.1752 	 46.4111
| 36> H 	 -15.8108 	 75.1757 	 46.0107
| 37> H 	 -14.2531 	 74.5171 	 45.6887
| 38> H 	 -14.3832 	 76.1036 	 46.135
| 39> H 	 -10.4142 	 69.1815 	 47.4333
| 40> H 	 -13.4506 	 74.1821 	 53.0805
| 41> *
| 42>
| 43>                          ****END OF INPUT****

CARTESIAN COORDINATES (ANGSTROEM)
---------------------------------
  S    -10.877600   70.780500   49.213500
  C    -11.056800   69.964700   47.735200
  C    -12.257900   70.254200   47.104000
  C    -12.973200   71.302700   47.791100
  C    -12.289000   71.791600   48.886200
  H    -13.874700   71.802100   47.424300
  C    -12.768300   69.718900   45.812800
  H    -13.760800   69.984600   45.598200
  H    -12.704600   68.650700   45.814500
  C    -11.972500   70.103900   44.520300
  H    -12.119300   71.229000   44.385800
  H    -10.907500   69.830500   44.619900
  C    -12.539400   69.494900   43.177500
  H    -11.860200   69.726200   42.383700
  H    -12.696900   68.469400   43.121300
  H    -13.519800   69.924700   42.896600
  S    -12.724400   72.235200   51.619000
  C    -13.228700   73.841900   52.087500
  C    -13.528000   74.604700   51.023100
  C    -13.141400   74.053600   49.772900
  C    -12.672900   72.778400   49.937100
  H    -14.011100   75.532800   51.366300
  C    -13.311600   74.723500   48.384800
  H    -12.736400   74.178000   47.601400
  H    -12.965600   75.740200   48.418000
  C    -14.709100   74.831300   47.859300
  H    -15.261600   75.547300   48.477000
  H    -15.154600   73.804300   47.900200
  C    -14.843300   75.175200   46.411100
  H    -15.810800   75.175700   46.010700
  H    -14.253100   74.517100   45.688700
  H    -14.383200   76.103600   46.135000
  H    -10.414200   69.181500   47.433300
  H    -13.450600   74.182100   53.080500

 Total Charge           Charge          ....    0
 Multiplicity           Mult            ....    1
 Number of Electrons    NEL             ....  134
 Basis Dimension        Dim             ....  322

ORBITAL ENERGIES
----------------

  NO   OCC          E(Eh)            E(eV)
   0   2.0000     -88.965029     -2420.8615
   1   2.0000     -88.964887     -2420.8577
   2   2.0000     -10.330943      -281.1192
   3   2.0000     -10.327877      -281.0358
   4   2.0000     -10.310242      -280.5559
   5   2.0000     -10.309482      -280.5353
   6   2.0000     -10.305008      -280.4135
   7   2.0000     -10.301720      -280.3240
   8   2.0000     -10.298582      -280.2387
   9   2.0000     -10.298086      -280.2252
  10   2.0000     -10.291450      -280.0446
  11   2.0000     -10.291161      -280.0367
  12   2.0000     -10.286627      -279.9134
  13   2.0000     -10.285672      -279.8874
  14   2.0000     -10.276657      -279.6421
  15   2.0000     -10.275948      -279.6228
  16   2.0000      -8.080571      -219.8835
  17   2.0000      -8.079555      -219.8559
  18   2.0000      -6.038889      -164.3265
  19   2.0000      -6.038087      -164.3047
  20   2.0000      -6.034983      -164.2202
  21   2.0000      -6.034284      -164.2012
  22   2.0000      -6.031465      -164.1245
  23   2.0000      -6.030071      -164.0866
  24   2.0000      -1.008806       -27.4510
  25   2.0000      -0.989010       -26.9123
  26   2.0000      -0.916082       -24.9279
  27   2.0000      -0.907822       -24.7031
  28   2.0000      -0.868563       -23.6348
  29   2.0000      -0.854035       -23.2395
  30   2.0000      -0.847679       -23.0665
  31   2.0000      -0.819713       -22.3055
  32   2.0000      -0.787432       -21.4271
  33   2.0000      -0.776599       -21.1323
  34   2.0000      -0.702458       -19.1149
  35   2.0000      -0.701411       -19.0864
  36   2.0000      -0.693192       -18.8627
  37   2.0000      -0.658773       -17.9261
  38   2.0000      -0.642854       -17.4929
  39   2.0000      -0.620847       -16.8941
  40   2.0000      -0.597790       -16.2667
  41   2.0000      -0.575612       -15.6632
  42   2.0000      -0.575375       -15.6568
  43   2.0000      -0.558242       -15.1905
  44   2.0000      -0.526445       -14.3253
  45   2.0000      -0.520657       -14.1678
  46   2.0000      -0.517520       -14.0824
  47   2.0000      -0.515086       -14.0162
  48   2.0000      -0.506927       -13.7942
  49   2.0000      -0.499554       -13.5936
  50   2.0000      -0.493269       -13.4225
  51   2.0000      -0.485250       -13.2043
  52   2.0000      -0.471893       -12.8409
  53   2.0000      -0.467316       -12.7163
  54   2.0000      -0.459338       -12.4992
  55   2.0000      -0.448594       -12.2069
  56   2.0000      -0.445043       -12.1102
  57   2.0000      -0.433905       -11.8072
  58   2.0000      -0.432631       -11.7725
  59   2.0000      -0.425965       -11.5911
  60   2.0000      -0.425807       -11.5868
  61   2.0000      -0.419721       -11.4212
  62   2.0000      -0.410509       -11.1705
  63   2.0000      -0.349661        -9.5148
  64   2.0000      -0.333503        -9.0751
  65   2.0000      -0.327834        -8.9208
  66   2.0000      -0.295183        -8.0323
  67   0.0000       0.032829         0.8933
  68   0.0000       0.070027         1.9055
  69   0.0000       0.108571         2.9544
  70   0.0000       0.123661         3.3650
  71   0.0000       0.128572         3.4986

MULLIKEN ATOMIC CHARGES
-----------------------
   0 S :    0.112220
   1 C :   -0.094042
   2 C :   -0.087179
   3 C :    0.042695
   4 C :   -0.172769
   5 H :    0.010444
   6 C :    0.106830
   7 H :    0.004344
   8 H :    0.017872
   9 C :   -0.122794
  10 H :    0.041428
  11 H :    0.039997
  12 C :   -0.035048
  13 H :    0.031206
  14 H :    0.015771
  15 H :    0.027322
  16 S :    0.106809
  17 C :   -0.089258
  18 C :   -0.054254
  19 C :    0.003096
  20 C :   -0.144770
  21 H :    0.023858
  22 C :    0.074184
  23 H :    0.030456
  24 H :    0.018175
  25 C :   -0.074595
  26 H :    0.032640
  27 H :    0.031495
  28 C :   -0.033638
  29 H :    0.028971
  30 H :    0.018911
  31 H :    0.010659
  32 H :    0.034569
  33 H :    0.044395
Sum of atomic charges:   -0.0000000

LOEWDIN ATOMIC CHARGES
----------------------
   0 S :    0.424198
   1 C :   -0.202426
   2 C :   -0.062754
   3 C :   -0.058490
   4 C :   -0.185968
   5 H :    0.032591
   6 C :   -0.032744
   7 H :    0.022634
   8 H :    0.028280
   9 C :   -0.035520
  10 H :    0.031082
  11 H :    0.022933
  12 C :   -0.066728
  13 H :    0.027110
  14 H :    0.012898
  15 H :    0.027528
  16 S :    0.388996
  17 C :   -0.180618
  18 C :   -0.076861
  19 C :   -0.055457
  20 C :   -0.188397
  21 H :    0.039574
  22 C :   -0.028540
  23 H :    0.034074
  24 H :    0.027236
  25 C :   -0.045816
  26 H :    0.025507
  27 H :    0.026549
  28 C :   -0.068579
  29 H :    0.021049
  30 H :    0.030190
  31 H :    0.018857
  32 H :    0.020411
  33 H :    0.027201

  Mayer bond orders larger than 0.100000
B(  0-S ,  1-C ) :   1.1600 B(  0-S ,  4-C ) :   1.1613 B(  1-C ,  2-C ) :   1.5883
B(  1-C , 32-H ) :   0.9727 B(  2-C ,  3-C ) :   1.2486 B(  2-C ,  6-C ) :   1.0459
B(  3-C ,  4-C ) :   1.5670 B(  3-C ,  5-H ) :   0.9904 B(  4-C , 20-C ) :   1.0108
B(  6-C ,  7-H ) :   0.9421 B(  6-C ,  8-H ) :   0.9295 B(  6-C ,  9-C ) :   1.0585
B(  9-C , 10-H ) :   0.9590 B(  9-C , 11-H ) :   0.9599 B(  9-C , 12-C ) :   1.0719
B( 12-C , 13-H ) :   0.9750 B( 12-C , 14-H ) :   0.9775 B( 12-C , 15-H ) :   0.9754
B( 16-S , 17-C ) :   1.1270 B( 16-S , 20-C ) :   1.1392 B( 17-C , 18-C ) :   1.6794
B( 17-C , 33-H ) :   0.9649 B( 18-C , 19-C ) :   1.1805 B( 18-C , 21-H ) :   0.9883
B( 19-C , 20-C ) :   1.6434 B( 19-C , 22-C ) :   1.0493 B( 22-C , 23-H ) :   0.9319
B( 22-C , 24-H ) :   0.9273 B( 22-C , 25-C ) :   1.0715 B( 25-C , 26-H ) :   0.9487
B( 25-C , 27-H ) :   0.9497 B( 25-C , 28-C ) :   1.0942 B( 28-C , 29-H ) :   0.9737
B( 28-C , 30-H ) :   0.9664 B( 28-C , 31-H ) :   0.9680

Dispersion correction           -0.013993414
FINAL SINGLE POINT ENERGY     -1339.874163290551

DIPOLE MOMENT
-------------
                                X             Y             Z
Electronic contribution:     10.53511      -4.83003      31.13193
Nuclear contribution   :    -10.93003       5.00198     -31.66540
                        -----------------------------------------
Total Dipole Moment    :     -0.39493       0.17195      -0.53347
                        -----------------------------------------
Magnitude (a.u.)       :      0.68565
Magnitude (Debye)      :      1.74279

Rotational constants in cm-1:     0.018675     0.008692     0.006234
Rotational constants in MHz :   559.853523   260.565649   186.877632

                             ****ORCA TERMINATED NORMALLY****
TOTAL RUN TIME: 0 days 0 hours 0 minutes 33 seconds 216 msec
