                         Program Version 4.2.1 -  RELEASE  -
|  1> ! wB97X-D3 SP def2-SVP
|  2> %pal
|  3> nprocs 16
|  4> end
|  5>
|  6> * xyz 0 1
|  7> S 	 57.2847 	 26.0862 	 40.0432
|  8> C 	 57.861 	 27.6799 	 40.0481
|  9> C 	 57.3253 	 28.4691 	 41.0305
| 10> C 	 56.2063 	 27.7635 	 41.6759
| 11> C 	 56.0505 	 26.4659 	 41.2174
| 12> H 	 55.5482 	 28.1254 	 42.3393
| 13> C 	 57.609 	 30.0211 	 41.1703
| 14> H 	 56.8406 	 30.4144 	 41.9273
| 15> H 	 57.5263 	 30.5824 	 40.234
| 16> C 	 59.0112 	 30.2745 	 41.6915
| 17> H 	 59.8193 	 29.8784 	 41.0777
| 18> H 	 59.0476 	 31.4047 	 41.7044
| 19> C 	 59.2409 	 29.7218 	 43.1543
| 20> H 	 58.3687 	 29.9375 	 43.7848
| 21> H 	 59.3938 	 28.6394 	 43.2584
| 22> H 	 60.0893 	 30.2714 	 43.3856
| 23> S 	 54.3934 	 24.4279 	 40.3253
| 24> C 	 53.15 	 23.7335 	 41.3264
| 25> C 	 53.0798 	 24.3618 	 42.5291
| 26> C 	 54.1525 	 25.3157 	 42.7496
| 27> C 	 54.9441 	 25.5589 	 41.6496
| 28> H 	 52.3823 	 24.0433 	 43.2408
| 29> C 	 54.1736 	 26.2278 	 43.9566
| 30> H 	 53.2735 	 25.9102 	 44.5427
| 31> H 	 53.9434 	 27.2822 	 43.6039
| 32> C 	 55.4252 	 26.2391 	 44.845
| 33> H 	 56.2659 	 26.4846 	 44.2146
| 34> H 	 55.5853 	 25.3054 	 45.3306
| 35> C 	 55.4131 	 27.1948 	 45.9114
| 36> H 	 56.2079 	 26.9812 	 46.5445
| 37> H 	 54.4415 	 27.112 	 46.3622
| 38> H 	 55.6487 	 28.1693 	 45.571
| 39> H 	 58.6572 	 28.0751 	 39.4713
| 40> H 	 52.5327 	 22.8624 	 41.0977
| 41> *
| 42>
| 43>                          ****END OF INPUT****

CARTESIAN COORDINATES (ANGSTROEM)
---------------------------------
  S     57.284700   26.086200   40.043200
  C     57.861000   27.679900   40.048100
  C     57.325300   28.469100   41.030500
  C     56.206300   27.763500   41.675900
  C     56.050500   26.465900   41.217400
  H     55.548200   28.125400   42.339300
  C     57.609000   30.021100   41.170300
  H     56.840600   30.414400   41.927300
  H     57.526300   30.582400   40.234000
  C     59.011200   30.274500   41.691500
  H     59.819300   29.878400   41.077700
  H     59.047600   31.404700   41.704400
  C     59.240900   29.721800   43.154300
  H     58.368700   29.937500   43.784800
  H     59.393800   28.639400   43.258400
  H     60.089300   30.271400   43.385600
  S     54.393400   24.427900   40.325300
  C     53.150000   23.733500   41.326400
  C     53.079800   24.361800   42.529100
  C     54.152500   25.315700   42.749600
  C     54.944100   25.558900   41.649600
  H     52.382300   24.043300   43.240800
  C     54.173600   26.227800   43.956600
  H     53.273500   25.910200   44.542700
  H     53.943400   27.282200   43.603900
  C     55.425200   26.239100   44.845000
  H     56.265900   26.484600   44.214600
  H     55.585300   25.305400   45.330600
  C     55.413100   27.194800   45.911400
  H     56.207900   26.981200   46.544500
  H     54.441500   27.112000   46.362200
  H     55.648700   28.169300   45.571000
  H     58.657200   28.075100   39.471300
  H     52.532700   22.862400   41.097700

 Total Charge           Charge          ....    0
 Multiplicity           Mult            ....    1
 Number of Electrons    NEL             ....  134
 Basis Dimension        Dim             ....  322

ORBITAL ENERGIES
----------------

  NO   OCC          E(Eh)            E(eV)
   0   2.0000     -88.971145     -2421.0279
   1   2.0000     -88.959004     -2420.6976
   2   2.0000     -10.335262      -281.2368
   3   2.0000     -10.335190      -281.2348
   4   2.0000     -10.316423      -280.7241
   5   2.0000     -10.308638      -280.5123
   6   2.0000     -10.305926      -280.4385
   7   2.0000     -10.305552      -280.4283
   8   2.0000     -10.303807      -280.3809
   9   2.0000     -10.297536      -280.2102
  10   2.0000     -10.293637      -280.1041
  11   2.0000     -10.292105      -280.0624
  12   2.0000     -10.290357      -280.0148
  13   2.0000     -10.275183      -279.6020
  14   2.0000     -10.270465      -279.4735
  15   2.0000     -10.259060      -279.1632
  16   2.0000      -8.086617      -220.0480
  17   2.0000      -8.073287      -219.6853
  18   2.0000      -6.045125      -164.4962
  19   2.0000      -6.041032      -164.3848
  20   2.0000      -6.037297      -164.2832
  21   2.0000      -6.031918      -164.1368
  22   2.0000      -6.027831      -164.0256
  23   2.0000      -6.023960      -163.9203
  24   2.0000      -1.006802       -27.3965
  25   2.0000      -0.983821       -26.7711
  26   2.0000      -0.920677       -25.0529
  27   2.0000      -0.907972       -24.7072
  28   2.0000      -0.871749       -23.7215
  29   2.0000      -0.858398       -23.3582
  30   2.0000      -0.846021       -23.0214
  31   2.0000      -0.817318       -22.2404
  32   2.0000      -0.783430       -21.3182
  33   2.0000      -0.773756       -21.0550
  34   2.0000      -0.705276       -19.1915
  35   2.0000      -0.694951       -18.9106
  36   2.0000      -0.686229       -18.6732
  37   2.0000      -0.667989       -18.1769
  38   2.0000      -0.648159       -17.6373
  39   2.0000      -0.613989       -16.7075
  40   2.0000      -0.594502       -16.1772
  41   2.0000      -0.580725       -15.8023
  42   2.0000      -0.577042       -15.7021
  43   2.0000      -0.552170       -15.0253
  44   2.0000      -0.544632       -14.8202
  45   2.0000      -0.533756       -14.5242
  46   2.0000      -0.517565       -14.0837
  47   2.0000      -0.512580       -13.9480
  48   2.0000      -0.510830       -13.9004
  49   2.0000      -0.505054       -13.7432
  50   2.0000      -0.494168       -13.4470
  51   2.0000      -0.482382       -13.1263
  52   2.0000      -0.475281       -12.9331
  53   2.0000      -0.465479       -12.6663
  54   2.0000      -0.459057       -12.4916
  55   2.0000      -0.447986       -12.1903
  56   2.0000      -0.443130       -12.0582
  57   2.0000      -0.439836       -11.9685
  58   2.0000      -0.425194       -11.5701
  59   2.0000      -0.423032       -11.5113
  60   2.0000      -0.420096       -11.4314
  61   2.0000      -0.409317       -11.1381
  62   2.0000      -0.406766       -11.0687
  63   2.0000      -0.356901        -9.7118
  64   2.0000      -0.332010        -9.0345
  65   2.0000      -0.327705        -8.9173
  66   2.0000      -0.291861        -7.9419
  67   0.0000       0.024232         0.6594
  68   0.0000       0.080946         2.2027
  69   0.0000       0.103870         2.8264
  70   0.0000       0.114720         3.1217
  71   0.0000       0.123587         3.3630

MULLIKEN ATOMIC CHARGES
-----------------------
   0 S :    0.138740
   1 C :   -0.097315
   2 C :   -0.077276
   3 C :    0.054760
   4 C :   -0.101002
   5 H :   -0.059978
   6 C :    0.033824
   7 H :    0.037837
   8 H :    0.046783
   9 C :   -0.120527
  10 H :    0.038936
  11 H :    0.038212
  12 C :   -0.040788
  13 H :    0.024816
  14 H :    0.050351
  15 H :    0.028258
  16 S :    0.064083
  17 C :   -0.075352
  18 C :   -0.018937
  19 C :   -0.028872
  20 C :   -0.134488
  21 H :    0.001504
  22 C :   -0.032449
  23 H :    0.016465
  24 H :    0.050627
  25 C :   -0.048325
  26 H :    0.022858
  27 H :    0.016530
  28 C :    0.036982
  29 H :    0.013173
  30 H :    0.020129
  31 H :    0.004033
  32 H :    0.033448
  33 H :    0.062957
Sum of atomic charges:    0.0000000

LOEWDIN ATOMIC CHARGES
----------------------
   0 S :    0.433370
   1 C :   -0.205574
   2 C :   -0.061729
   3 C :   -0.047207
   4 C :   -0.195096
   5 H :    0.004283
   6 C :   -0.034668
   7 H :    0.036313
   8 H :    0.032503
   9 C :   -0.044133
  10 H :    0.022479
  11 H :    0.029184
  12 C :   -0.062124
  13 H :    0.023147
  14 H :    0.029975
  15 H :    0.018971
  16 S :    0.364620
  17 C :   -0.179447
  18 C :   -0.072148
  19 C :   -0.061688
  20 C :   -0.158736
  21 H :    0.023294
  22 C :   -0.038093
  23 H :    0.029791
  24 H :    0.034974
  25 C :   -0.041950
  26 H :    0.023094
  27 H :    0.022910
  28 C :   -0.050602
  29 H :    0.022680
  30 H :    0.024038
  31 H :    0.016947
  32 H :    0.023728
  33 H :    0.036892

  Mayer bond orders larger than 0.100000
B(  0-S ,  1-C ) :   1.1505 B(  0-S ,  4-C ) :   1.1449 B(  1-C ,  2-C ) :   1.6252
B(  1-C , 32-H ) :   0.9649 B(  2-C ,  3-C ) :   1.2214 B(  2-C ,  6-C ) :   1.0007
B(  3-C ,  4-C ) :   1.5700 B(  3-C ,  5-H ) :   1.0146 B(  4-C , 20-C ) :   1.0452
B(  6-C ,  7-H ) :   0.9477 B(  6-C ,  8-H ) :   0.9529 B(  6-C ,  9-C ) :   1.0692
B(  9-C , 10-H ) :   0.9580 B(  9-C , 11-H ) :   0.9599 B(  9-C , 12-C ) :   1.0590
B( 12-C , 13-H ) :   0.9782 B( 12-C , 14-H ) :   0.9747 B( 12-C , 15-H ) :   0.9778
B( 16-S , 17-C ) :   1.1481 B( 16-S , 20-C ) :   1.1061 B( 17-C , 18-C ) :   1.6369
B( 17-C , 33-H ) :   0.9615 B( 18-C , 19-C ) :   1.2194 B( 18-C , 21-H ) :   0.9939
B( 19-C , 20-C ) :   1.6280 B( 19-C , 22-C ) :   1.0359 B( 22-C , 23-H ) :   0.9284
B( 22-C , 24-H ) :   0.9436 B( 22-C , 25-C ) :   1.0668 B( 25-C , 26-H ) :   0.9478
B( 25-C , 27-H ) :   0.9495 B( 25-C , 28-C ) :   1.1092 B( 28-C , 29-H ) :   0.9643
B( 28-C , 30-H ) :   0.9676 B( 28-C , 31-H ) :   0.9662

Dispersion correction           -0.014550882
FINAL SINGLE POINT ENERGY     -1339.851884312757

DIPOLE MOMENT
-------------
                                X             Y             Z
Electronic contribution:     -7.54064     -19.79976     -22.36835
Nuclear contribution   :      7.58255      20.25597      22.80969
                        -----------------------------------------
Total Dipole Moment    :      0.04191       0.45622       0.44134
                        -----------------------------------------
Magnitude (a.u.)       :      0.63614
Magnitude (Debye)      :      1.61694

Rotational constants in cm-1:     0.019195     0.009377     0.006726
Rotational constants in MHz :   575.439063   281.113377   201.637010

                             ****ORCA TERMINATED NORMALLY****
TOTAL RUN TIME: 0 days 0 hours 0 minutes 31 seconds 292 msec
