                         Program Version 4.2.1 -  RELEASE  -
|  1> ! wB97X-D3 SP def2-SVP
|  2> %pal
|  3> nprocs 16
|  4> end
|  5>
|  6> * xyz 0 1
|  7> S 	 10.5277 	 21.0632 	 38.0487
|  8> C 	 11.9654 	 21.5673 	 37.2058
|  9> C 	 12.9452 	 21.9275 	 38.1042
| 10> C 	 12.4162 	 22.091 	 39.4073
| 11> C 	 11.1004 	 21.8569 	 39.4293
| 12> H 	 12.9374 	 22.3261 	 40.3084
| 13> C 	 14.3776 	 22.153 	 37.8251
| 14> H 	 14.7217 	 21.2251 	 37.4503
| 15> H 	 14.8831 	 22.3546 	 38.766
| 16> C 	 14.6732 	 23.22 	 36.8143
| 17> H 	 14.1575 	 23.1838 	 35.8555
| 18> H 	 14.3856 	 24.1465 	 37.32
| 19> C 	 16.1311 	 23.45 	 36.4528
| 20> H 	 16.3013 	 24.4753 	 36.1666
| 21> H 	 16.6485 	 23.3007 	 37.4136
| 22> H 	 16.6571 	 22.7627 	 35.7881
| 23> S 	 9.31423 	 20.5077 	 41.0463
| 24> C 	 8.80806 	 21.0383 	 42.5975
| 25> C 	 9.52486 	 22.1843 	 42.8828
| 26> C 	 10.3672 	 22.6608 	 41.8402
| 27> C 	 10.2871 	 21.8869 	 40.6709
| 28> H 	 9.35134 	 22.6277 	 43.8356
| 29> C 	 11.0504 	 23.925 	 42.0417
| 30> H 	 10.1954 	 24.5605 	 42.1822
| 31> H 	 11.4492 	 24.1786 	 41.0642
| 32> C 	 12.0986 	 24.0951 	 43.1546
| 33> H 	 13.0682 	 23.7459 	 42.7539
| 34> H 	 11.9279 	 23.415 	 43.9823
| 35> C 	 12.2747 	 25.6156 	 43.4707
| 36> H 	 13.3339 	 25.7606 	 43.7235
| 37> H 	 11.7164 	 26.0743 	 44.3458
| 38> H 	 12.2266 	 26.2263 	 42.5592
| 39> H 	 12.1782 	 21.2535 	 36.207
| 40> H 	 8.12258 	 20.6162 	 43.3342
| 41> *
| 42>
| 43>                          ****END OF INPUT****

CARTESIAN COORDINATES (ANGSTROEM)
---------------------------------
  S     10.527700   21.063200   38.048700
  C     11.965400   21.567300   37.205800
  C     12.945200   21.927500   38.104200
  C     12.416200   22.091000   39.407300
  C     11.100400   21.856900   39.429300
  H     12.937400   22.326100   40.308400
  C     14.377600   22.153000   37.825100
  H     14.721700   21.225100   37.450300
  H     14.883100   22.354600   38.766000
  C     14.673200   23.220000   36.814300
  H     14.157500   23.183800   35.855500
  H     14.385600   24.146500   37.320000
  C     16.131100   23.450000   36.452800
  H     16.301300   24.475300   36.166600
  H     16.648500   23.300700   37.413600
  H     16.657100   22.762700   35.788100
  S      9.314230   20.507700   41.046300
  C      8.808060   21.038300   42.597500
  C      9.524860   22.184300   42.882800
  C     10.367200   22.660800   41.840200
  C     10.287100   21.886900   40.670900
  H      9.351340   22.627700   43.835600
  C     11.050400   23.925000   42.041700
  H     10.195400   24.560500   42.182200
  H     11.449200   24.178600   41.064200
  C     12.098600   24.095100   43.154600
  H     13.068200   23.745900   42.753900
  H     11.927900   23.415000   43.982300
  C     12.274700   25.615600   43.470700
  H     13.333900   25.760600   43.723500
  H     11.716400   26.074300   44.345800
  H     12.226600   26.226300   42.559200
  H     12.178200   21.253500   36.207000
  H      8.122580   20.616200   43.334200

 Total Charge           Charge          ....    0
 Multiplicity           Mult            ....    1
 Number of Electrons    NEL             ....  134
 Basis Dimension        Dim             ....  322

ORBITAL ENERGIES
----------------

  NO   OCC          E(Eh)            E(eV)
   0   2.0000     -88.965381     -2420.8711
   1   2.0000     -88.960430     -2420.7364
   2   2.0000     -10.324220      -280.9363
   3   2.0000     -10.322787      -280.8973
   4   2.0000     -10.313745      -280.6513
   5   2.0000     -10.307506      -280.4815
   6   2.0000     -10.297068      -280.1975
   7   2.0000     -10.295979      -280.1678
   8   2.0000     -10.294621      -280.1309
   9   2.0000     -10.287529      -279.9379
  10   2.0000     -10.285605      -279.8855
  11   2.0000     -10.285204      -279.8746
  12   2.0000     -10.284512      -279.8558
  13   2.0000     -10.283968      -279.8410
  14   2.0000     -10.280249      -279.7398
  15   2.0000     -10.276022      -279.6248
  16   2.0000      -8.081642      -219.9127
  17   2.0000      -8.076020      -219.7597
  18   2.0000      -6.040020      -164.3573
  19   2.0000      -6.036291      -164.2558
  20   2.0000      -6.034542      -164.2082
  21   2.0000      -6.032092      -164.1416
  22   2.0000      -6.030206      -164.0903
  23   2.0000      -6.026916      -164.0007
  24   2.0000      -1.019813       -27.7505
  25   2.0000      -0.994217       -27.0540
  26   2.0000      -0.924178       -25.1482
  27   2.0000      -0.913275       -24.8515
  28   2.0000      -0.871499       -23.7147
  29   2.0000      -0.859311       -23.3830
  30   2.0000      -0.848589       -23.0913
  31   2.0000      -0.820670       -22.3316
  32   2.0000      -0.784179       -21.3386
  33   2.0000      -0.770108       -20.9557
  34   2.0000      -0.710947       -19.3458
  35   2.0000      -0.705906       -19.2087
  36   2.0000      -0.694800       -18.9065
  37   2.0000      -0.663118       -18.0444
  38   2.0000      -0.642819       -17.4920
  39   2.0000      -0.625094       -17.0097
  40   2.0000      -0.594735       -16.1836
  41   2.0000      -0.580971       -15.8090
  42   2.0000      -0.566418       -15.4130
  43   2.0000      -0.555530       -15.1167
  44   2.0000      -0.531559       -14.4645
  45   2.0000      -0.526012       -14.3135
  46   2.0000      -0.522265       -14.2116
  47   2.0000      -0.519730       -14.1426
  48   2.0000      -0.511246       -13.9117
  49   2.0000      -0.504301       -13.7227
  50   2.0000      -0.491916       -13.3857
  51   2.0000      -0.486655       -13.2426
  52   2.0000      -0.475937       -12.9509
  53   2.0000      -0.466890       -12.7047
  54   2.0000      -0.459450       -12.5023
  55   2.0000      -0.448445       -12.2028
  56   2.0000      -0.445635       -12.1264
  57   2.0000      -0.438336       -11.9277
  58   2.0000      -0.435737       -11.8570
  59   2.0000      -0.423007       -11.5106
  60   2.0000      -0.420049       -11.4301
  61   2.0000      -0.418706       -11.3936
  62   2.0000      -0.408061       -11.1039
  63   2.0000      -0.353158        -9.6099
  64   2.0000      -0.331164        -9.0114
  65   2.0000      -0.320815        -8.7298
  66   2.0000      -0.288979        -7.8635
  67   0.0000       0.027375         0.7449
  68   0.0000       0.076934         2.0935
  69   0.0000       0.103997         2.8299
  70   0.0000       0.125256         3.4084
  71   0.0000       0.136056         3.7023

MULLIKEN ATOMIC CHARGES
-----------------------
   0 S :    0.111215
   1 C :   -0.100599
   2 C :   -0.102561
   3 C :   -0.000303
   4 C :   -0.113795
   5 H :    0.002609
   6 C :    0.135962
   7 H :    0.016941
   8 H :    0.014266
   9 C :   -0.094445
  10 H :    0.035107
  11 H :    0.023705
  12 C :   -0.038179
  13 H :    0.034231
  14 H :    0.008308
  15 H :    0.034903
  16 S :    0.088191
  17 C :   -0.082606
  18 C :   -0.049475
  19 C :   -0.067828
  20 C :   -0.106692
  21 H :    0.005236
  22 C :    0.046648
  23 H :    0.036843
  24 H :    0.012314
  25 C :   -0.045391
  26 H :    0.023954
  27 H :    0.032371
  28 C :   -0.069919
  29 H :    0.020316
  30 H :    0.056991
  31 H :    0.036042
  32 H :    0.034918
  33 H :    0.060723
Sum of atomic charges:   -0.0000000

LOEWDIN ATOMIC CHARGES
----------------------
   0 S :    0.431165
   1 C :   -0.198351
   2 C :   -0.052042
   3 C :   -0.064606
   4 C :   -0.199419
   5 H :    0.029794
   6 C :   -0.029523
   7 H :    0.028069
   8 H :    0.030916
   9 C :   -0.042042
  10 H :    0.024565
  11 H :    0.029113
  12 C :   -0.067979
  13 H :    0.026767
  14 H :    0.023962
  15 H :    0.022663
  16 S :    0.420805
  17 C :   -0.201270
  18 C :   -0.075215
  19 C :   -0.067873
  20 C :   -0.205418
  21 H :    0.024417
  22 C :   -0.043112
  23 H :    0.037328
  24 H :    0.027352
  25 C :   -0.035450
  26 H :    0.026518
  27 H :    0.024005
  28 C :   -0.075811
  29 H :    0.026290
  30 H :    0.035070
  31 H :    0.030025
  32 H :    0.019917
  33 H :    0.039373

  Mayer bond orders larger than 0.100000
B(  0-S ,  1-C ) :   1.1299 B(  0-S ,  4-C ) :   1.1773 B(  1-C ,  2-C ) :   1.6062
B(  1-C , 32-H ) :   0.9729 B(  2-C ,  3-C ) :   1.2378 B(  2-C ,  6-C ) :   1.0278
B(  3-C ,  4-C ) :   1.5583 B(  3-C ,  5-H ) :   1.0065 B(  4-C , 20-C ) :   1.0142
B(  6-C ,  7-H ) :   0.9167 B(  6-C ,  8-H ) :   0.9335 B(  6-C ,  9-C ) :   1.0792
B(  9-C , 10-H ) :   0.9568 B(  9-C , 11-H ) :   0.9523 B(  9-C , 12-C ) :   1.0849
B( 12-C , 13-H ) :   0.9753 B( 12-C , 14-H ) :   0.9688 B( 12-C , 15-H ) :   0.9755
B( 16-S , 17-C ) :   1.1669 B( 16-S , 20-C ) :   1.1499 B( 17-C , 18-C ) :   1.5850
B( 17-C , 33-H ) :   0.9679 B( 18-C , 19-C ) :   1.2620 B( 18-C , 21-H ) :   0.9953
B( 19-C , 20-C ) :   1.5615 B( 19-C , 22-C ) :   1.0495 B( 22-C , 23-H ) :   0.9435
B( 22-C , 24-H ) :   0.9253 B( 22-C , 25-C ) :   1.0448 B( 25-C , 26-H ) :   0.9543
B( 25-C , 27-H ) :   0.9639 B( 25-C , 28-C ) :   1.0656 B( 28-C , 29-H ) :   0.9758
B( 28-C , 30-H ) :   0.9766 B( 28-C , 31-H ) :   0.9724

Dispersion correction           -0.013433942
FINAL SINGLE POINT ENERGY     -1339.855929789564

DIPOLE MOMENT
-------------
                                X             Y             Z
Electronic contribution:    -24.31627     -20.03350      -2.79646
Nuclear contribution   :     24.95892      20.33151       3.10508
                        -----------------------------------------
Total Dipole Moment    :      0.64265       0.29800       0.30862
                        -----------------------------------------
Magnitude (a.u.)       :      0.77269
Magnitude (Debye)      :      1.96402

Rotational constants in cm-1:     0.017653     0.008583     0.006011
Rotational constants in MHz :   529.227661   257.301150   180.192626

                             ****ORCA TERMINATED NORMALLY****
TOTAL RUN TIME: 0 days 0 hours 0 minutes 34 seconds 267 msec
