                         Program Version 4.2.1 -  RELEASE  -
|  1> ! wB97X-D3 SP def2-SVP
|  2> %pal
|  3> nprocs 16
|  4> end
|  5>
|  6> * xyz 0 1
|  7> S 	 61.1011 	 6.51003 	 79.463
|  8> C 	 59.575 	 7.3136 	 79.7863
|  9> C 	 58.6923 	 7.18274 	 78.755
| 10> C 	 59.2548 	 6.60157 	 77.6052
| 11> C 	 60.6035 	 6.21411 	 77.8419
| 12> H 	 58.7295 	 6.31818 	 76.7087
| 13> C 	 57.3052 	 7.7645 	 78.7384
| 14> H 	 56.8462 	 7.61097 	 77.7801
| 15> H 	 57.4049 	 8.83976 	 79.0325
| 16> C 	 56.3913 	 7.30082 	 79.8716
| 17> H 	 56.0531 	 6.28939 	 79.7392
| 18> H 	 56.9712 	 7.37921 	 80.8029
| 19> C 	 55.03 	 8.01587 	 79.9604
| 20> H 	 55.1677 	 9.13323 	 79.7329
| 21> H 	 54.4391 	 7.58112 	 79.1429
| 22> H 	 54.5004 	 7.89209 	 80.9088
| 23> S 	 61.4299 	 3.73716 	 77.3076
| 24> C 	 62.331 	 3.39079 	 75.8881
| 25> C 	 62.5653 	 4.56548 	 75.2338
| 26> C 	 62.1757 	 5.76412 	 75.9235
| 27> C 	 61.4105 	 5.40432 	 77.0144
| 28> H 	 63.1776 	 4.61689 	 74.2937
| 29> C 	 62.3204 	 7.2024 	 75.4233
| 30> H 	 63.2243 	 7.2604 	 74.7691
| 31> H 	 62.448 	 7.93864 	 76.2914
| 32> C 	 61.1628 	 7.69661 	 74.5172
| 33> H 	 60.2382 	 7.88578 	 75.0286
| 34> H 	 60.8772 	 7.06586 	 73.626
| 35> C 	 61.4944 	 9.08426 	 74.0231
| 36> H 	 60.7724 	 9.55698 	 73.354
| 37> H 	 62.3995 	 9.06376 	 73.4801
| 38> H 	 61.6274 	 9.74088 	 74.8825
| 39> H 	 59.3152 	 7.78729 	 80.7115
| 40> H 	 62.4448 	 2.40912 	 75.4331
| 41> *
| 42>
| 43>                          ****END OF INPUT****

CARTESIAN COORDINATES (ANGSTROEM)
---------------------------------
  S     61.101100    6.510030   79.463000
  C     59.575000    7.313600   79.786300
  C     58.692300    7.182740   78.755000
  C     59.254800    6.601570   77.605200
  C     60.603500    6.214110   77.841900
  H     58.729500    6.318180   76.708700
  C     57.305200    7.764500   78.738400
  H     56.846200    7.610970   77.780100
  H     57.404900    8.839760   79.032500
  C     56.391300    7.300820   79.871600
  H     56.053100    6.289390   79.739200
  H     56.971200    7.379210   80.802900
  C     55.030000    8.015870   79.960400
  H     55.167700    9.133230   79.732900
  H     54.439100    7.581120   79.142900
  H     54.500400    7.892090   80.908800
  S     61.429900    3.737160   77.307600
  C     62.331000    3.390790   75.888100
  C     62.565300    4.565480   75.233800
  C     62.175700    5.764120   75.923500
  C     61.410500    5.404320   77.014400
  H     63.177600    4.616890   74.293700
  C     62.320400    7.202400   75.423300
  H     63.224300    7.260400   74.769100
  H     62.448000    7.938640   76.291400
  C     61.162800    7.696610   74.517200
  H     60.238200    7.885780   75.028600
  H     60.877200    7.065860   73.626000
  C     61.494400    9.084260   74.023100
  H     60.772400    9.556980   73.354000
  H     62.399500    9.063760   73.480100
  H     61.627400    9.740880   74.882500
  H     59.315200    7.787290   80.711500
  H     62.444800    2.409120   75.433100

 Total Charge           Charge          ....    0
 Multiplicity           Mult            ....    1
 Number of Electrons    NEL             ....  134
 Basis Dimension        Dim             ....  322

ORBITAL ENERGIES
----------------

  NO   OCC          E(Eh)            E(eV)
   0   2.0000     -88.970111     -2420.9998
   1   2.0000     -88.961685     -2420.7705
   2   2.0000     -10.324928      -280.9556
   3   2.0000     -10.312886      -280.6279
   4   2.0000     -10.311036      -280.5776
   5   2.0000     -10.308864      -280.5185
   6   2.0000     -10.303702      -280.3780
   7   2.0000     -10.299384      -280.2605
   8   2.0000     -10.296175      -280.1732
   9   2.0000     -10.295483      -280.1543
  10   2.0000     -10.293977      -280.1134
  11   2.0000     -10.292772      -280.0806
  12   2.0000     -10.285573      -279.8847
  13   2.0000     -10.283883      -279.8387
  14   2.0000     -10.283705      -279.8338
  15   2.0000     -10.267746      -279.3996
  16   2.0000      -8.085008      -220.0043
  17   2.0000      -8.078256      -219.8205
  18   2.0000      -6.043268      -164.4457
  19   2.0000      -6.039477      -164.3425
  20   2.0000      -6.036602      -164.2643
  21   2.0000      -6.036040      -164.2490
  22   2.0000      -6.032396      -164.1498
  23   2.0000      -6.029163      -164.0619
  24   2.0000      -1.017599       -27.6903
  25   2.0000      -0.990486       -26.9525
  26   2.0000      -0.916991       -24.9526
  27   2.0000      -0.908324       -24.7167
  28   2.0000      -0.874236       -23.7892
  29   2.0000      -0.853576       -23.2270
  30   2.0000      -0.850807       -23.1516
  31   2.0000      -0.811367       -22.0784
  32   2.0000      -0.781005       -21.2522
  33   2.0000      -0.768206       -20.9040
  34   2.0000      -0.707802       -19.2603
  35   2.0000      -0.694696       -18.9036
  36   2.0000      -0.692087       -18.8326
  37   2.0000      -0.659185       -17.9373
  38   2.0000      -0.643185       -17.5019
  39   2.0000      -0.617743       -16.8096
  40   2.0000      -0.597270       -16.2526
  41   2.0000      -0.579860       -15.7788
  42   2.0000      -0.565061       -15.3761
  43   2.0000      -0.560428       -15.2500
  44   2.0000      -0.527101       -14.3432
  45   2.0000      -0.520965       -14.1762
  46   2.0000      -0.518916       -14.1204
  47   2.0000      -0.513252       -13.9663
  48   2.0000      -0.503455       -13.6997
  49   2.0000      -0.498702       -13.5704
  50   2.0000      -0.493877       -13.4391
  51   2.0000      -0.484963       -13.1965
  52   2.0000      -0.470508       -12.8032
  53   2.0000      -0.464460       -12.6386
  54   2.0000      -0.450978       -12.2717
  55   2.0000      -0.449078       -12.2200
  56   2.0000      -0.443833       -12.0773
  57   2.0000      -0.434905       -11.8344
  58   2.0000      -0.434122       -11.8131
  59   2.0000      -0.427047       -11.6205
  60   2.0000      -0.423756       -11.5310
  61   2.0000      -0.416432       -11.3317
  62   2.0000      -0.413983       -11.2651
  63   2.0000      -0.339665        -9.2427
  64   2.0000      -0.329424        -8.9641
  65   2.0000      -0.321648        -8.7525
  66   2.0000      -0.303669        -8.2633
  67   0.0000       0.041013         1.1160
  68   0.0000       0.056316         1.5324
  69   0.0000       0.116961         3.1827
  70   0.0000       0.122788         3.3412
  71   0.0000       0.128357         3.4928

MULLIKEN ATOMIC CHARGES
-----------------------
   0 S :    0.135159
   1 C :   -0.126539
   2 C :   -0.052468
   3 C :    0.048971
   4 C :   -0.195432
   5 H :    0.018011
   6 C :    0.076482
   7 H :    0.015270
   8 H :    0.039341
   9 C :   -0.098762
  10 H :    0.024643
  11 H :    0.027431
  12 C :   -0.069776
  13 H :    0.031348
  14 H :    0.033108
  15 H :    0.048988
  16 S :    0.129640
  17 C :   -0.088465
  18 C :   -0.063466
  19 C :    0.000127
  20 C :   -0.193109
  21 H :    0.030470
  22 C :    0.033541
  23 H :    0.026091
  24 H :    0.051520
  25 C :   -0.072497
  26 H :    0.022794
  27 H :    0.036566
  28 C :   -0.036083
  29 H :    0.031311
  30 H :    0.009741
  31 H :    0.023784
  32 H :    0.036921
  33 H :    0.065338
Sum of atomic charges:    0.0000000

LOEWDIN ATOMIC CHARGES
----------------------
   0 S :    0.432887
   1 C :   -0.198035
   2 C :   -0.064622
   3 C :   -0.053239
   4 C :   -0.205963
   5 H :    0.032167
   6 C :   -0.028856
   7 H :    0.024825
   8 H :    0.042076
   9 C :   -0.044494
  10 H :    0.020598
  11 H :    0.020236
  12 C :   -0.071176
  13 H :    0.026417
  14 H :    0.026340
  15 H :    0.029146
  16 S :    0.445662
  17 C :   -0.208551
  18 C :   -0.076229
  19 C :   -0.061015
  20 C :   -0.229694
  21 H :    0.035122
  22 C :   -0.031733
  23 H :    0.033615
  24 H :    0.044548
  25 C :   -0.045527
  26 H :    0.020076
  27 H :    0.029524
  28 C :   -0.064460
  29 H :    0.025759
  30 H :    0.013065
  31 H :    0.024445
  32 H :    0.021288
  33 H :    0.035796

  Mayer bond orders larger than 0.100000
B(  0-S ,  1-C ) :   1.1407 B(  0-S ,  4-C ) :   1.1891 B(  1-C ,  2-C ) :   1.5915
B(  1-C ,  4-C ) :   0.1085 B(  1-C , 32-H ) :   0.9687 B(  2-C ,  3-C ) :   1.2719
B(  2-C ,  6-C ) :   1.0280 B(  3-C ,  4-C ) :   1.5337 B(  3-C ,  5-H ) :   0.9919
B(  4-C , 20-C ) :   1.0292 B(  6-C ,  7-H ) :   0.9450 B(  6-C ,  8-H ) :   0.9349
B(  6-C ,  9-C ) :   1.0569 B(  9-C , 10-H ) :   0.9577 B(  9-C , 11-H ) :   0.9597
B(  9-C , 12-C ) :   1.0718 B( 12-C , 13-H ) :   0.9740 B( 12-C , 14-H ) :   0.9779
B( 12-C , 15-H ) :   0.9746 B( 16-S , 17-C ) :   1.1514 B( 16-S , 20-C ) :   1.1837
B( 17-C , 18-C ) :   1.6083 B( 17-C , 33-H ) :   0.9668 B( 18-C , 19-C ) :   1.2622
B( 18-C , 21-H ) :   0.9749 B( 19-C , 20-C ) :   1.5676 B( 19-C , 22-C ) :   1.0588
B( 22-C , 23-H ) :   0.9349 B( 22-C , 24-H ) :   0.9282 B( 22-C , 25-C ) :   1.0625
B( 25-C , 26-H ) :   0.9508 B( 25-C , 27-H ) :   0.9563 B( 25-C , 28-C ) :   1.0823
B( 28-C , 29-H ) :   0.9722 B( 28-C , 30-H ) :   0.9739 B( 28-C , 31-H ) :   0.9721

Dispersion correction           -0.013941060
FINAL SINGLE POINT ENERGY     -1339.877787184694

DIPOLE MOMENT
-------------
                                X             Y             Z
Electronic contribution:     16.99843     -18.88038       8.08065
Nuclear contribution   :    -17.41040      19.11095      -8.37950
                        -----------------------------------------
Total Dipole Moment    :     -0.41197       0.23057      -0.29885
                        -----------------------------------------
Magnitude (a.u.)       :      0.55874
Magnitude (Debye)      :      1.42021

Rotational constants in cm-1:     0.019281     0.008031     0.006635
Rotational constants in MHz :   578.041529   240.763497   198.914840

                             ****ORCA TERMINATED NORMALLY****
TOTAL RUN TIME: 0 days 0 hours 0 minutes 28 seconds 85 msec
