                         Program Version 4.2.1 -  RELEASE  -
|  1> ! wB97X-D3 SP def2-SVP
|  2> %pal
|  3> nprocs 16
|  4> end
|  5>
|  6> * xyz 0 1
|  7> S 	 -29.8312 	 68.2855 	 109.256
|  8> C 	 -28.9369 	 69.835 	 109.18
|  9> C 	 -27.5821 	 69.6015 	 109.32
| 10> C 	 -27.2775 	 68.2079 	 109.466
| 11> C 	 -28.3663 	 67.3543 	 109.521
| 12> H 	 -26.317 	 67.784 	 109.561
| 13> C 	 -26.429 	 70.6554 	 109.237
| 14> H 	 -25.6063 	 70.0863 	 109.694
| 15> H 	 -26.657 	 71.5264 	 109.828
| 16> C 	 -25.9778 	 71.1483 	 107.858
| 17> H 	 -25.0285 	 71.6802 	 108.064
| 18> H 	 -25.6137 	 70.2152 	 107.23
| 19> C 	 -26.8994 	 72.0845 	 107.098
| 20> H 	 -26.509 	 72.2556 	 106.065
| 21> H 	 -27.8973 	 71.6937 	 106.769
| 22> H 	 -27.1132 	 73.0288 	 107.721
| 23> S 	 -27.1011 	 65.2473 	 110.667
| 24> C 	 -27.8154 	 63.6669 	 110.529
| 25> C 	 -28.7456 	 63.6181 	 109.466
| 26> C 	 -29.0333 	 64.8825 	 108.906
| 27> C 	 -28.3241 	 65.8875 	 109.599
| 28> H 	 -29.3551 	 62.7706 	 109.215
| 29> C 	 -29.9321 	 65.0307 	 107.641
| 30> H 	 -29.9681 	 66.1565 	 107.518
| 31> H 	 -30.9989 	 64.71 	 107.757
| 32> C 	 -29.2781 	 64.5959 	 106.304
| 33> H 	 -30.0599 	 64.4717 	 105.563
| 34> H 	 -28.642 	 63.7457 	 106.308
| 35> C 	 -28.3854 	 65.8138 	 105.78
| 36> H 	 -28.9932 	 66.5787 	 105.37
| 37> H 	 -27.7971 	 65.4594 	 104.974
| 38> H 	 -27.663 	 66.0881 	 106.643
| 39> H 	 -29.3361 	 70.8402 	 108.889
| 40> H 	 -27.4235 	 62.7484 	 110.949
| 41> *
| 42>
| 43>                          ****END OF INPUT****

CARTESIAN COORDINATES (ANGSTROEM)
---------------------------------
  S    -29.831200   68.285500  109.256000
  C    -28.936900   69.835000  109.180000
  C    -27.582100   69.601500  109.320000
  C    -27.277500   68.207900  109.466000
  C    -28.366300   67.354300  109.521000
  H    -26.317000   67.784000  109.561000
  C    -26.429000   70.655400  109.237000
  H    -25.606300   70.086300  109.694000
  H    -26.657000   71.526400  109.828000
  C    -25.977800   71.148300  107.858000
  H    -25.028500   71.680200  108.064000
  H    -25.613700   70.215200  107.230000
  C    -26.899400   72.084500  107.098000
  H    -26.509000   72.255600  106.065000
  H    -27.897300   71.693700  106.769000
  H    -27.113200   73.028800  107.721000
  S    -27.101100   65.247300  110.667000
  C    -27.815400   63.666900  110.529000
  C    -28.745600   63.618100  109.466000
  C    -29.033300   64.882500  108.906000
  C    -28.324100   65.887500  109.599000
  H    -29.355100   62.770600  109.215000
  C    -29.932100   65.030700  107.641000
  H    -29.968100   66.156500  107.518000
  H    -30.998900   64.710000  107.757000
  C    -29.278100   64.595900  106.304000
  H    -30.059900   64.471700  105.563000
  H    -28.642000   63.745700  106.308000
  C    -28.385400   65.813800  105.780000
  H    -28.993200   66.578700  105.370000
  H    -27.797100   65.459400  104.974000
  H    -27.663000   66.088100  106.643000
  H    -29.336100   70.840200  108.889000
  H    -27.423500   62.748400  110.949000

 Total Charge           Charge          ....    0
 Multiplicity           Mult            ....    1
 Number of Electrons    NEL             ....  134
 Basis Dimension        Dim             ....  322

ORBITAL ENERGIES
----------------

  NO   OCC          E(Eh)            E(eV)
   0   2.0000     -88.972618     -2421.0680
   1   2.0000     -88.967831     -2420.9378
   2   2.0000     -10.332865      -281.1715
   3   2.0000     -10.331674      -281.1391
   4   2.0000     -10.320155      -280.8257
   5   2.0000     -10.319506      -280.8080
   6   2.0000     -10.308568      -280.5104
   7   2.0000     -10.303641      -280.3763
   8   2.0000     -10.300960      -280.3034
   9   2.0000     -10.299487      -280.2633
  10   2.0000     -10.296270      -280.1757
  11   2.0000     -10.294518      -280.1281
  12   2.0000     -10.292742      -280.0797
  13   2.0000     -10.289957      -280.0040
  14   2.0000     -10.286474      -279.9092
  15   2.0000     -10.274492      -279.5831
  16   2.0000      -8.087274      -220.0659
  17   2.0000      -8.081139      -219.8990
  18   2.0000      -6.045714      -164.5122
  19   2.0000      -6.041911      -164.4087
  20   2.0000      -6.039870      -164.3532
  21   2.0000      -6.038009      -164.3026
  22   2.0000      -6.035763      -164.2415
  23   2.0000      -6.031809      -164.1339
  24   2.0000      -1.005003       -27.3475
  25   2.0000      -0.980421       -26.6786
  26   2.0000      -0.906567       -24.6689
  27   2.0000      -0.901319       -24.5261
  28   2.0000      -0.865949       -23.5637
  29   2.0000      -0.850126       -23.1331
  30   2.0000      -0.840658       -22.8755
  31   2.0000      -0.806170       -21.9370
  32   2.0000      -0.782573       -21.2949
  33   2.0000      -0.770473       -20.9656
  34   2.0000      -0.702531       -19.1168
  35   2.0000      -0.695410       -18.9231
  36   2.0000      -0.689183       -18.7536
  37   2.0000      -0.664799       -18.0901
  38   2.0000      -0.634096       -17.2546
  39   2.0000      -0.614115       -16.7109
  40   2.0000      -0.596622       -16.2349
  41   2.0000      -0.564085       -15.3495
  42   2.0000      -0.552939       -15.0462
  43   2.0000      -0.549598       -14.9553
  44   2.0000      -0.537502       -14.6262
  45   2.0000      -0.532769       -14.4974
  46   2.0000      -0.517247       -14.0750
  47   2.0000      -0.508025       -13.8241
  48   2.0000      -0.495931       -13.4950
  49   2.0000      -0.491571       -13.3763
  50   2.0000      -0.483422       -13.1546
  51   2.0000      -0.482895       -13.1402
  52   2.0000      -0.468778       -12.7561
  53   2.0000      -0.462970       -12.5981
  54   2.0000      -0.458030       -12.4636
  55   2.0000      -0.451104       -12.2752
  56   2.0000      -0.442223       -12.0335
  57   2.0000      -0.437557       -11.9065
  58   2.0000      -0.428647       -11.6641
  59   2.0000      -0.424197       -11.5430
  60   2.0000      -0.420774       -11.4498
  61   2.0000      -0.407984       -11.1018
  62   2.0000      -0.402680       -10.9575
  63   2.0000      -0.349536        -9.5114
  64   2.0000      -0.335855        -9.1391
  65   2.0000      -0.330031        -8.9806
  66   2.0000      -0.285789        -7.7767
  67   0.0000       0.020046         0.5455
  68   0.0000       0.071640         1.9494
  69   0.0000       0.099794         2.7155
  70   0.0000       0.117546         3.1986
  71   0.0000       0.129283         3.5180

MULLIKEN ATOMIC CHARGES
-----------------------
   0 S :    0.104876
   1 C :   -0.149527
   2 C :   -0.073381
   3 C :    0.006951
   4 C :   -0.114627
   5 H :   -0.005939
   6 C :    0.072534
   7 H :    0.025752
   8 H :    0.026580
   9 C :   -0.086600
  10 H :    0.038540
  11 H :    0.039772
  12 C :   -0.082338
  13 H :    0.042396
  14 H :    0.034802
  15 H :    0.047179
  16 S :    0.116281
  17 C :   -0.080632
  18 C :   -0.031056
  19 C :   -0.050010
  20 C :   -0.170284
  21 H :    0.019561
  22 C :    0.021225
  23 H :    0.026088
  24 H :    0.050135
  25 C :   -0.048531
  26 H :    0.028103
  27 H :    0.030237
  28 C :   -0.082818
  29 H :    0.037718
  30 H :    0.018334
  31 H :    0.062303
  32 H :    0.065992
  33 H :    0.060384
Sum of atomic charges:   -0.0000000

LOEWDIN ATOMIC CHARGES
----------------------
   0 S :    0.398406
   1 C :   -0.199337
   2 C :   -0.062111
   3 C :   -0.074003
   4 C :   -0.188488
   5 H :    0.016683
   6 C :   -0.029866
   7 H :    0.034738
   8 H :    0.027467
   9 C :   -0.053485
  10 H :    0.029580
  11 H :    0.034835
  12 C :   -0.086269
  13 H :    0.035996
  14 H :    0.027045
  15 H :    0.034930
  16 S :    0.426787
  17 C :   -0.194264
  18 C :   -0.063847
  19 C :   -0.059189
  20 C :   -0.195788
  21 H :    0.030061
  22 C :   -0.042049
  23 H :    0.028347
  24 H :    0.034873
  25 C :   -0.031846
  26 H :    0.024160
  27 H :    0.016848
  28 C :   -0.065215
  29 H :    0.019373
  30 H :    0.015598
  31 H :    0.040540
  32 H :    0.040325
  33 H :    0.029165

  Mayer bond orders larger than 0.100000
B(  0-S ,  1-C ) :   1.1262 B(  0-S ,  4-C ) :   1.1435 B(  1-C ,  2-C ) :   1.6207
B(  1-C , 32-H ) :   0.9615 B(  2-C ,  3-C ) :   1.2500 B(  2-C ,  6-C ) :   1.0058
B(  3-C ,  4-C ) :   1.5670 B(  3-C ,  5-H ) :   0.9894 B(  4-C , 20-C ) :   1.0445
B(  6-C ,  7-H ) :   0.9387 B(  6-C ,  8-H ) :   0.9420 B(  6-C ,  9-C ) :   1.0801
B(  9-C , 10-H ) :   0.9505 B(  9-C , 11-H ) :   0.9505 B(  9-C , 12-C ) :   1.0772
B( 12-C , 13-H ) :   0.9683 B( 12-C , 14-H ) :   0.9710 B( 12-C , 15-H ) :   0.9697
B( 16-S , 17-C ) :   1.1578 B( 16-S , 20-C ) :   1.1622 B( 17-C , 18-C ) :   1.5788
B( 17-C , 20-C ) :   0.1069 B( 17-C , 33-H ) :   0.9671 B( 18-C , 19-C ) :   1.2791
B( 18-C , 21-H ) :   0.9848 B( 19-C , 20-C ) :   1.5483 B( 19-C , 22-C ) :   1.0297
B( 22-C , 23-H ) :   0.9350 B( 22-C , 24-H ) :   0.9420 B( 22-C , 25-C ) :   1.0497
B( 25-C , 26-H ) :   0.9550 B( 25-C , 27-H ) :   0.9675 B( 25-C , 28-C ) :   1.0809
B( 28-C , 29-H ) :   0.9743 B( 28-C , 30-H ) :   0.9751 B( 28-C , 31-H ) :   0.9775

Dispersion correction           -0.014904761
FINAL SINGLE POINT ENERGY     -1339.860718354933

DIPOLE MOMENT
-------------
                                X             Y             Z
Electronic contribution:     -5.21741     -11.23090      19.57363
Nuclear contribution   :      5.45885      11.27001     -20.06678
                        -----------------------------------------
Total Dipole Moment    :      0.24144       0.03911      -0.49315
                        -----------------------------------------
Magnitude (a.u.)       :      0.55047
Magnitude (Debye)      :      1.39919

Rotational constants in cm-1:     0.021083     0.008188     0.007200
Rotational constants in MHz :   632.043323   245.477370   215.861373

                             ****ORCA TERMINATED NORMALLY****
TOTAL RUN TIME: 0 days 0 hours 0 minutes 29 seconds 175 msec
