                         Program Version 4.2.1 -  RELEASE  -
|  1> ! wB97X-D3 SP def2-SVP
|  2> %pal
|  3> nprocs 16
|  4> end
|  5>
|  6> * xyz 0 1
|  7> S 	 -12.0283 	 69.0945 	 52.3316
|  8> C 	 -12.3087 	 67.3217 	 52.2987
|  9> C 	 -11.1431 	 66.5917 	 52.4218
| 10> C 	 -10.0376 	 67.4635 	 52.6471
| 11> C 	 -10.3292 	 68.8356 	 52.5036
| 12> H 	 -9.04258 	 67.3601 	 52.8636
| 13> C 	 -10.8858 	 65.1631 	 52.5105
| 14> H 	 -11.4809 	 64.8504 	 53.3464
| 15> H 	 -9.91253 	 64.8587 	 52.787
| 16> C 	 -11.2522 	 64.3331 	 51.2477
| 17> H 	 -12.2401 	 64.7067 	 50.9066
| 18> H 	 -10.426 	 64.4973 	 50.5252
| 19> C 	 -11.5799 	 62.8006 	 51.3945
| 20> H 	 -12.3571 	 62.6331 	 52.1476
| 21> H 	 -12.0866 	 62.4362 	 50.4627
| 22> H 	 -10.7055 	 62.1154 	 51.7533
| 23> S 	 -9.43417 	 70.6809 	 54.0518
| 24> C 	 -8.06613 	 71.5997 	 53.6033
| 25> C 	 -7.43297 	 71.1392 	 52.4593
| 26> C 	 -8.16873 	 70.1255 	 51.8683
| 27> C 	 -9.32968 	 69.8696 	 52.5737
| 28> H 	 -6.44555 	 71.4645 	 52.1505
| 29> C 	 -7.79537 	 69.4123 	 50.6058
| 30> H 	 -8.39619 	 68.4878 	 50.5594
| 31> H 	 -6.70663 	 69.2587 	 50.6323
| 32> C 	 -8.07974 	 70.1566 	 49.3544
| 33> H 	 -7.44199 	 71.057 	 49.3749
| 34> H 	 -9.03575 	 70.5374 	 49.4901
| 35> C 	 -7.83922 	 69.4898 	 48.0642
| 36> H 	 -8.51027 	 68.721 	 47.834
| 37> H 	 -6.7919 	 69.1031 	 48.1443
| 38> H 	 -7.94024 	 70.209 	 47.2327
| 39> H 	 -13.2983 	 66.7775 	 52.1886
| 40> H 	 -7.64221 	 72.3502 	 54.2863
| 41> *
| 42>
| 43>                          ****END OF INPUT****

CARTESIAN COORDINATES (ANGSTROEM)
---------------------------------
  S    -12.028300   69.094500   52.331600
  C    -12.308700   67.321700   52.298700
  C    -11.143100   66.591700   52.421800
  C    -10.037600   67.463500   52.647100
  C    -10.329200   68.835600   52.503600
  H     -9.042580   67.360100   52.863600
  C    -10.885800   65.163100   52.510500
  H    -11.480900   64.850400   53.346400
  H     -9.912530   64.858700   52.787000
  C    -11.252200   64.333100   51.247700
  H    -12.240100   64.706700   50.906600
  H    -10.426000   64.497300   50.525200
  C    -11.579900   62.800600   51.394500
  H    -12.357100   62.633100   52.147600
  H    -12.086600   62.436200   50.462700
  H    -10.705500   62.115400   51.753300
  S     -9.434170   70.680900   54.051800
  C     -8.066130   71.599700   53.603300
  C     -7.432970   71.139200   52.459300
  C     -8.168730   70.125500   51.868300
  C     -9.329680   69.869600   52.573700
  H     -6.445550   71.464500   52.150500
  C     -7.795370   69.412300   50.605800
  H     -8.396190   68.487800   50.559400
  H     -6.706630   69.258700   50.632300
  C     -8.079740   70.156600   49.354400
  H     -7.441990   71.057000   49.374900
  H     -9.035750   70.537400   49.490100
  C     -7.839220   69.489800   48.064200
  H     -8.510270   68.721000   47.834000
  H     -6.791900   69.103100   48.144300
  H     -7.940240   70.209000   47.232700
  H    -13.298300   66.777500   52.188600
  H     -7.642210   72.350200   54.286300

 Total Charge           Charge          ....    0
 Multiplicity           Mult            ....    1
 Number of Electrons    NEL             ....  134
 Basis Dimension        Dim             ....  322

ORBITAL ENERGIES
----------------

  NO   OCC          E(Eh)            E(eV)
   0   2.0000     -88.969834     -2420.9923
   1   2.0000     -88.966187     -2420.8930
   2   2.0000     -10.321946      -280.8744
   3   2.0000     -10.320254      -280.8284
   4   2.0000     -10.314004      -280.6583
   5   2.0000     -10.313367      -280.6410
   6   2.0000     -10.300732      -280.2972
   7   2.0000     -10.296885      -280.1925
   8   2.0000     -10.296436      -280.1803
   9   2.0000     -10.293694      -280.1057
  10   2.0000     -10.291138      -280.0361
  11   2.0000     -10.284576      -279.8575
  12   2.0000     -10.284224      -279.8480
  13   2.0000     -10.283181      -279.8196
  14   2.0000     -10.272633      -279.5325
  15   2.0000     -10.267480      -279.3923
  16   2.0000      -8.083788      -219.9711
  17   2.0000      -8.083082      -219.9518
  18   2.0000      -6.042343      -164.4205
  19   2.0000      -6.041121      -164.3872
  20   2.0000      -6.038400      -164.3132
  21   2.0000      -6.037395      -164.2859
  22   2.0000      -6.034552      -164.2085
  23   2.0000      -6.034080      -164.1957
  24   2.0000      -1.019863       -27.7519
  25   2.0000      -0.986693       -26.8493
  26   2.0000      -0.923693       -25.1350
  27   2.0000      -0.914534       -24.8857
  28   2.0000      -0.870845       -23.6969
  29   2.0000      -0.860540       -23.4165
  30   2.0000      -0.848195       -23.0806
  31   2.0000      -0.809581       -22.0298
  32   2.0000      -0.786597       -21.4044
  33   2.0000      -0.774191       -21.0668
  34   2.0000      -0.702730       -19.1222
  35   2.0000      -0.699065       -19.0225
  36   2.0000      -0.688449       -18.7337
  37   2.0000      -0.670080       -18.2338
  38   2.0000      -0.644607       -17.5406
  39   2.0000      -0.611724       -16.6459
  40   2.0000      -0.599904       -16.3242
  41   2.0000      -0.582574       -15.8527
  42   2.0000      -0.576372       -15.6839
  43   2.0000      -0.552072       -15.0226
  44   2.0000      -0.528513       -14.3816
  45   2.0000      -0.523089       -14.2340
  46   2.0000      -0.515459       -14.0263
  47   2.0000      -0.511847       -13.9281
  48   2.0000      -0.507833       -13.8188
  49   2.0000      -0.496901       -13.5214
  50   2.0000      -0.490081       -13.3358
  51   2.0000      -0.481487       -13.1019
  52   2.0000      -0.481151       -13.0928
  53   2.0000      -0.471341       -12.8258
  54   2.0000      -0.455639       -12.3986
  55   2.0000      -0.453559       -12.3420
  56   2.0000      -0.441680       -12.0187
  57   2.0000      -0.435401       -11.8479
  58   2.0000      -0.428930       -11.6718
  59   2.0000      -0.425542       -11.5796
  60   2.0000      -0.419945       -11.4273
  61   2.0000      -0.416712       -11.3393
  62   2.0000      -0.411178       -11.1887
  63   2.0000      -0.341211        -9.2848
  64   2.0000      -0.329331        -8.9616
  65   2.0000      -0.324698        -8.8355
  66   2.0000      -0.296753        -8.0751
  67   0.0000       0.037113         1.0099
  68   0.0000       0.061823         1.6823
  69   0.0000       0.110734         3.0132
  70   0.0000       0.113518         3.0890
  71   0.0000       0.132107         3.5948

MULLIKEN ATOMIC CHARGES
-----------------------
   0 S :    0.126392
   1 C :   -0.150258
   2 C :   -0.042762
   3 C :    0.072081
   4 C :   -0.206816
   5 H :   -0.028089
   6 C :    0.113871
   7 H :    0.020639
   8 H :    0.010439
   9 C :   -0.100002
  10 H :    0.030457
  11 H :    0.046903
  12 C :   -0.094906
  13 H :    0.025422
  14 H :    0.048048
  15 H :    0.049445
  16 S :    0.138037
  17 C :   -0.090999
  18 C :   -0.045341
  19 C :   -0.023347
  20 C :   -0.196866
  21 H :    0.014702
  22 C :    0.088901
  23 H :    0.022439
  24 H :    0.014382
  25 C :   -0.061817
  26 H :    0.008871
  27 H :    0.003506
  28 C :    0.001581
  29 H :    0.022285
  30 H :    0.026642
  31 H :    0.035611
  32 H :    0.062588
  33 H :    0.057964
Sum of atomic charges:   -0.0000000

LOEWDIN ATOMIC CHARGES
----------------------
   0 S :    0.404702
   1 C :   -0.203962
   2 C :   -0.059179
   3 C :   -0.052598
   4 C :   -0.215387
   5 H :    0.015688
   6 C :   -0.033554
   7 H :    0.034310
   8 H :    0.025635
   9 C :   -0.038504
  10 H :    0.026454
  11 H :    0.029318
  12 C :   -0.083488
  13 H :    0.021479
  14 H :    0.033987
  15 H :    0.032335
  16 S :    0.465932
  17 C :   -0.198390
  18 C :   -0.069718
  19 C :   -0.054529
  20 C :   -0.226095
  21 H :    0.033377
  22 C :   -0.029866
  23 H :    0.032108
  24 H :    0.028987
  25 C :   -0.046988
  26 H :    0.022819
  27 H :    0.013685
  28 C :   -0.057106
  29 H :    0.016263
  30 H :    0.031396
  31 H :    0.032977
  32 H :    0.040609
  33 H :    0.027302

  Mayer bond orders larger than 0.100000
B(  0-S ,  1-C ) :   1.1266 B(  0-S ,  4-C ) :   1.1564 B(  1-C ,  2-C ) :   1.6130
B(  1-C , 32-H ) :   0.9563 B(  2-C ,  3-C ) :   1.2103 B(  2-C ,  6-C ) :   1.0276
B(  3-C ,  4-C ) :   1.5702 B(  3-C ,  5-H ) :   1.0075 B(  4-C , 20-C ) :   1.0074
B(  6-C ,  7-H ) :   0.9263 B(  6-C ,  8-H ) :   0.9429 B(  6-C ,  9-C ) :   1.0498
B(  9-C , 10-H ) :   0.9620 B(  9-C , 11-H ) :   0.9593 B(  9-C , 12-C ) :   1.0695
B( 12-C , 13-H ) :   0.9739 B( 12-C , 14-H ) :   0.9753 B( 12-C , 15-H ) :   0.9745
B( 16-S , 17-C ) :   1.1884 B( 16-S , 20-C ) :   1.1950 B( 17-C , 18-C ) :   1.5607
B( 17-C , 20-C ) :   0.1062 B( 17-C , 33-H ) :   0.9663 B( 18-C , 19-C ) :   1.2752
B( 18-C , 21-H ) :   0.9969 B( 19-C , 20-C ) :   1.5653 B( 19-C , 22-C ) :   1.0578
B( 22-C , 23-H ) :   0.9213 B( 22-C , 24-H ) :   0.9170 B( 22-C , 25-C ) :   1.0881
B( 25-C , 26-H ) :   0.9461 B( 25-C , 27-H ) :   0.9439 B( 25-C , 28-C ) :   1.0965
B( 28-C , 29-H ) :   0.9730 B( 28-C , 30-H ) :   0.9673 B( 28-C , 31-H ) :   0.9692

Dispersion correction           -0.013772502
FINAL SINGLE POINT ENERGY     -1339.850476312900

DIPOLE MOMENT
-------------
                                X             Y             Z
Electronic contribution:     -6.50876      20.64510      18.34791
Nuclear contribution   :      6.85428     -21.04837     -18.42655
                        -----------------------------------------
Total Dipole Moment    :      0.34552      -0.40327      -0.07863
                        -----------------------------------------
Magnitude (a.u.)       :      0.53683
Magnitude (Debye)      :      1.36452

Rotational constants in cm-1:     0.018380     0.008190     0.006595
Rotational constants in MHz :   551.024929   245.528157   197.715021

                             ****ORCA TERMINATED NORMALLY****
TOTAL RUN TIME: 0 days 0 hours 0 minutes 33 seconds 432 msec
