                         Program Version 4.2.1 -  RELEASE  -
|  1> ! wB97X-D3 SP def2-SVP
|  2> %pal
|  3> nprocs 16
|  4> end
|  5>
|  6> * xyz 0 1
|  7> S 	 -54.5429 	 25.0183 	 93.6958
|  8> C 	 -53.153 	 24.1355 	 94.0311
|  9> C 	 -52.1028 	 24.9766 	 94.3226
| 10> C 	 -52.5333 	 26.3217 	 94.2171
| 11> C 	 -53.8672 	 26.5733 	 93.8598
| 12> H 	 -51.834 	 27.2129 	 94.3462
| 13> C 	 -50.6299 	 24.615 	 94.5068
| 14> H 	 -50.5413 	 23.8806 	 95.2737
| 15> H 	 -50.0302 	 25.386 	 94.9473
| 16> C 	 -50.0454 	 24.0902 	 93.1754
| 17> H 	 -50.5038 	 23.1564 	 92.9074
| 18> H 	 -50.3761 	 24.7757 	 92.3721
| 19> C 	 -48.5117 	 24.0561 	 93.2364
| 20> H 	 -48.0512 	 23.787 	 92.2564
| 21> H 	 -47.9565 	 25.0316 	 93.494
| 22> H 	 -48.3462 	 23.3256 	 94.0309
| 23> S 	 -55.0566 	 27.811 	 91.7638
| 24> C 	 -55.8842 	 29.3412 	 91.994
| 25> C 	 -55.8015 	 29.7342 	 93.3396
| 26> C 	 -54.8538 	 28.9023 	 94.0581
| 27> C 	 -54.4417 	 27.7699 	 93.3937
| 28> H 	 -56.5686 	 30.4529 	 93.7543
| 29> C 	 -54.6408 	 29.1561 	 95.5488
| 30> H 	 -54.5336 	 28.2246 	 96.169
| 31> H 	 -55.6409 	 29.3664 	 95.957
| 32> C 	 -53.5923 	 30.2248 	 95.8666
| 33> H 	 -54.0403 	 31.133 	 95.4041
| 34> H 	 -52.6426 	 30.0441 	 95.3282
| 35> C 	 -53.469 	 30.4985 	 97.3648
| 36> H 	 -52.8129 	 31.3273 	 97.5577
| 37> H 	 -53.2258 	 29.6445 	 97.9756
| 38> H 	 -54.4063 	 30.9375 	 97.7089
| 39> H 	 -53.0191 	 23.0294 	 93.8309
| 40> H 	 -56.6969 	 29.7251 	 91.3665
| 41> *
| 42>
| 43>                          ****END OF INPUT****

CARTESIAN COORDINATES (ANGSTROEM)
---------------------------------
  S    -54.542900   25.018300   93.695800
  C    -53.153000   24.135500   94.031100
  C    -52.102800   24.976600   94.322600
  C    -52.533300   26.321700   94.217100
  C    -53.867200   26.573300   93.859800
  H    -51.834000   27.212900   94.346200
  C    -50.629900   24.615000   94.506800
  H    -50.541300   23.880600   95.273700
  H    -50.030200   25.386000   94.947300
  C    -50.045400   24.090200   93.175400
  H    -50.503800   23.156400   92.907400
  H    -50.376100   24.775700   92.372100
  C    -48.511700   24.056100   93.236400
  H    -48.051200   23.787000   92.256400
  H    -47.956500   25.031600   93.494000
  H    -48.346200   23.325600   94.030900
  S    -55.056600   27.811000   91.763800
  C    -55.884200   29.341200   91.994000
  C    -55.801500   29.734200   93.339600
  C    -54.853800   28.902300   94.058100
  C    -54.441700   27.769900   93.393700
  H    -56.568600   30.452900   93.754300
  C    -54.640800   29.156100   95.548800
  H    -54.533600   28.224600   96.169000
  H    -55.640900   29.366400   95.957000
  C    -53.592300   30.224800   95.866600
  H    -54.040300   31.133000   95.404100
  H    -52.642600   30.044100   95.328200
  C    -53.469000   30.498500   97.364800
  H    -52.812900   31.327300   97.557700
  H    -53.225800   29.644500   97.975600
  H    -54.406300   30.937500   97.708900
  H    -53.019100   23.029400   93.830900
  H    -56.696900   29.725100   91.366500

 Total Charge           Charge          ....    0
 Multiplicity           Mult            ....    1
 Number of Electrons    NEL             ....  134
 Basis Dimension        Dim             ....  322

ORBITAL ENERGIES
----------------

  NO   OCC          E(Eh)            E(eV)
   0   2.0000     -88.966382     -2420.8983
   1   2.0000     -88.965046     -2420.8620
   2   2.0000     -10.324654      -280.9481
   3   2.0000     -10.322783      -280.8972
   4   2.0000     -10.319966      -280.8205
   5   2.0000     -10.314497      -280.6717
   6   2.0000     -10.305584      -280.4292
   7   2.0000     -10.304220      -280.3921
   8   2.0000     -10.299374      -280.2602
   9   2.0000     -10.296241      -280.1750
  10   2.0000     -10.289734      -279.9979
  11   2.0000     -10.289585      -279.9938
  12   2.0000     -10.288337      -279.9599
  13   2.0000     -10.288152      -279.9549
  14   2.0000     -10.288060      -279.9523
  15   2.0000     -10.274087      -279.5721
  16   2.0000      -8.082852      -219.9456
  17   2.0000      -8.079827      -219.8633
  18   2.0000      -6.041177      -164.3888
  19   2.0000      -6.038383      -164.3128
  20   2.0000      -6.036783      -164.2692
  21   2.0000      -6.034286      -164.2013
  22   2.0000      -6.033992      -164.1933
  23   2.0000      -6.030541      -164.0994
  24   2.0000      -1.018638       -27.7186
  25   2.0000      -0.989655       -26.9299
  26   2.0000      -0.914094       -24.8738
  27   2.0000      -0.905225       -24.6324
  28   2.0000      -0.876265       -23.8444
  29   2.0000      -0.849249       -23.1092
  30   2.0000      -0.844862       -22.9899
  31   2.0000      -0.811847       -22.0915
  32   2.0000      -0.780175       -21.2296
  33   2.0000      -0.771093       -20.9825
  34   2.0000      -0.706605       -19.2277
  35   2.0000      -0.702030       -19.1032
  36   2.0000      -0.693934       -18.8829
  37   2.0000      -0.661322       -17.9955
  38   2.0000      -0.640895       -17.4396
  39   2.0000      -0.617743       -16.8096
  40   2.0000      -0.592537       -16.1238
  41   2.0000      -0.572756       -15.5855
  42   2.0000      -0.558729       -15.2038
  43   2.0000      -0.555456       -15.1147
  44   2.0000      -0.530021       -14.4226
  45   2.0000      -0.527278       -14.3480
  46   2.0000      -0.518964       -14.1217
  47   2.0000      -0.515925       -14.0390
  48   2.0000      -0.511866       -13.9286
  49   2.0000      -0.501909       -13.6576
  50   2.0000      -0.489519       -13.3205
  51   2.0000      -0.473343       -12.8803
  52   2.0000      -0.471306       -12.8249
  53   2.0000      -0.460888       -12.5414
  54   2.0000      -0.455289       -12.3890
  55   2.0000      -0.448737       -12.2107
  56   2.0000      -0.444248       -12.0886
  57   2.0000      -0.436572       -11.8797
  58   2.0000      -0.435011       -11.8372
  59   2.0000      -0.421993       -11.4830
  60   2.0000      -0.416701       -11.3390
  61   2.0000      -0.411512       -11.1978
  62   2.0000      -0.401438       -10.9237
  63   2.0000      -0.342355        -9.3160
  64   2.0000      -0.332064        -9.0359
  65   2.0000      -0.325518        -8.8578
  66   2.0000      -0.298610        -8.1256
  67   0.0000       0.027682         0.7533
  68   0.0000       0.065962         1.7949
  69   0.0000       0.110135         2.9969
  70   0.0000       0.131081         3.5669
  71   0.0000       0.132350         3.6014

MULLIKEN ATOMIC CHARGES
-----------------------
   0 S :    0.132172
   1 C :   -0.154724
   2 C :   -0.087902
   3 C :    0.000450
   4 C :   -0.165704
   5 H :    0.030127
   6 C :    0.090419
   7 H :    0.014962
   8 H :    0.011087
   9 C :   -0.068893
  10 H :    0.024228
  11 H :    0.034912
  12 C :   -0.077365
  13 H :    0.044398
  14 H :    0.047716
  15 H :    0.033289
  16 S :    0.105846
  17 C :   -0.101392
  18 C :   -0.068426
  19 C :   -0.027682
  20 C :   -0.139626
  21 H :    0.058778
  22 C :    0.014751
  23 H :    0.026494
  24 H :    0.011853
  25 C :   -0.071311
  26 H :    0.024709
  27 H :    0.039584
  28 C :   -0.012129
  29 H :    0.026098
  30 H :    0.038134
  31 H :    0.016327
  32 H :    0.077202
  33 H :    0.071618
Sum of atomic charges:   -0.0000000

LOEWDIN ATOMIC CHARGES
----------------------
   0 S :    0.466232
   1 C :   -0.230995
   2 C :   -0.072206
   3 C :   -0.064185
   4 C :   -0.230490
   5 H :    0.036495
   6 C :   -0.027396
   7 H :    0.025445
   8 H :    0.027648
   9 C :   -0.038077
  10 H :    0.020653
  11 H :    0.026217
  12 C :   -0.076179
  13 H :    0.029646
  14 H :    0.034648
  15 H :    0.025232
  16 S :    0.411234
  17 C :   -0.197891
  18 C :   -0.075776
  19 C :   -0.051812
  20 C :   -0.204866
  21 H :    0.046600
  22 C :   -0.045469
  23 H :    0.030478
  24 H :    0.029347
  25 C :   -0.042055
  26 H :    0.028836
  27 H :    0.025618
  28 C :   -0.064499
  29 H :    0.025599
  30 H :    0.023731
  31 H :    0.027082
  32 H :    0.045686
  33 H :    0.035470

  Mayer bond orders larger than 0.100000
B(  0-S ,  1-C ) :   1.1929 B(  0-S ,  4-C ) :   1.1741 B(  1-C ,  2-C ) :   1.5339
B(  1-C ,  4-C ) :   0.1013 B(  1-C , 32-H ) :   0.9595 B(  2-C ,  3-C ) :   1.3296
B(  2-C ,  6-C ) :   1.0271 B(  3-C ,  4-C ) :   1.5036 B(  3-C ,  5-H ) :   0.9832
B(  4-C , 20-C ) :   1.0776 B(  6-C ,  7-H ) :   0.9303 B(  6-C ,  8-H ) :   0.9461
B(  6-C ,  9-C ) :   1.0491 B(  9-C , 10-H ) :   0.9543 B(  9-C , 11-H ) :   0.9611
B(  9-C , 12-C ) :   1.0732 B( 12-C , 13-H ) :   0.9739 B( 12-C , 14-H ) :   0.9762
B( 12-C , 15-H ) :   0.9742 B( 16-S , 17-C ) :   1.1567 B( 16-S , 20-C ) :   1.1328
B( 17-C , 18-C ) :   1.6196 B( 17-C , 33-H ) :   0.9597 B( 18-C , 19-C ) :   1.2446
B( 18-C , 21-H ) :   0.9745 B( 19-C , 20-C ) :   1.5947 B( 19-C , 22-C ) :   1.0396
B( 22-C , 23-H ) :   0.9385 B( 22-C , 24-H ) :   0.9401 B( 22-C , 25-C ) :   1.0421
B( 25-C , 26-H ) :   0.9542 B( 25-C , 27-H ) :   0.9589 B( 25-C , 28-C ) :   1.0834
B( 28-C , 29-H ) :   0.9719 B( 28-C , 30-H ) :   0.9764 B( 28-C , 31-H ) :   0.9693

Dispersion correction           -0.013678068
FINAL SINGLE POINT ENERGY     -1339.860897229849

DIPOLE MOMENT
-------------
                                X             Y             Z
Electronic contribution:    -20.02815      -4.43226     -13.93361
Nuclear contribution   :     20.21056       4.48795      14.23151
                        -----------------------------------------
Total Dipole Moment    :      0.18241       0.05570       0.29790
                        -----------------------------------------
Magnitude (a.u.)       :      0.35372
Magnitude (Debye)      :      0.89908

Rotational constants in cm-1:     0.018198     0.007930     0.006479
Rotational constants in MHz :   545.549761   237.734796   194.221276

                             ****ORCA TERMINATED NORMALLY****
TOTAL RUN TIME: 0 days 0 hours 0 minutes 27 seconds 999 msec
