                         Program Version 4.2.1 -  RELEASE  -
|  1> ! wB97X-D3 SP def2-SVP
|  2> %pal
|  3> nprocs 16
|  4> end
|  5>
|  6> * xyz 0 1
|  7> S 	 -39.9531 	 49.063 	 102.726
|  8> C 	 -38.5294 	 48.8232 	 103.826
|  9> C 	 -38.0265 	 50.0962 	 104.115
| 10> C 	 -38.8067 	 51.1909 	 103.61
| 11> C 	 -39.9288 	 50.7975 	 102.92
| 12> H 	 -38.6151 	 52.3004 	 103.658
| 13> C 	 -36.7583 	 50.1877 	 104.901
| 14> H 	 -36.8411 	 49.5003 	 105.647
| 15> H 	 -36.7934 	 51.1634 	 105.347
| 16> C 	 -35.4871 	 50.0478 	 104.118
| 17> H 	 -34.6333 	 49.8067 	 104.769
| 18> H 	 -35.569 	 49.1761 	 103.534
| 19> C 	 -35.1112 	 51.2743 	 103.277
| 20> H 	 -34.1945 	 51.0635 	 102.732
| 21> H 	 -35.9435 	 51.2922 	 102.583
| 22> H 	 -35.0009 	 52.1562 	 103.834
| 23> S 	 -41.4309 	 53.1445 	 103.338
| 24> C 	 -42.6464 	 53.6277 	 102.15
| 25> C 	 -42.5846 	 52.7953 	 101.049
| 26> C 	 -41.6157 	 51.6998 	 101.168
| 27> C 	 -40.9588 	 51.7403 	 102.366
| 28> H 	 -43.312 	 52.8333 	 100.154
| 29> C 	 -41.4727 	 50.6026 	 100.098
| 30> H 	 -42.4766 	 50.4967 	 99.602
| 31> H 	 -41.3385 	 49.6243 	 100.518
| 32> C 	 -40.3018 	 50.8224 	 99.1234
| 33> H 	 -39.3818 	 50.8121 	 99.6987
| 34> H 	 -40.4351 	 51.82 	 98.7341
| 35> C 	 -40.1659 	 49.9424 	 97.9167
| 36> H 	 -41.143 	 49.6499 	 97.5841
| 37> H 	 -39.634 	 49.0501 	 98.2062
| 38> H 	 -39.7182 	 50.3265 	 96.9982
| 39> H 	 -38.0619 	 47.9482 	 104.088
| 40> H 	 -43.2735 	 54.5023 	 102.192
| 41> *
| 42>
| 43>                          ****END OF INPUT****

CARTESIAN COORDINATES (ANGSTROEM)
---------------------------------
  S    -39.953100   49.063000  102.726000
  C    -38.529400   48.823200  103.826000
  C    -38.026500   50.096200  104.115000
  C    -38.806700   51.190900  103.610000
  C    -39.928800   50.797500  102.920000
  H    -38.615100   52.300400  103.658000
  C    -36.758300   50.187700  104.901000
  H    -36.841100   49.500300  105.647000
  H    -36.793400   51.163400  105.347000
  C    -35.487100   50.047800  104.118000
  H    -34.633300   49.806700  104.769000
  H    -35.569000   49.176100  103.534000
  C    -35.111200   51.274300  103.277000
  H    -34.194500   51.063500  102.732000
  H    -35.943500   51.292200  102.583000
  H    -35.000900   52.156200  103.834000
  S    -41.430900   53.144500  103.338000
  C    -42.646400   53.627700  102.150000
  C    -42.584600   52.795300  101.049000
  C    -41.615700   51.699800  101.168000
  C    -40.958800   51.740300  102.366000
  H    -43.312000   52.833300  100.154000
  C    -41.472700   50.602600  100.098000
  H    -42.476600   50.496700   99.602000
  H    -41.338500   49.624300  100.518000
  C    -40.301800   50.822400   99.123400
  H    -39.381800   50.812100   99.698700
  H    -40.435100   51.820000   98.734100
  C    -40.165900   49.942400   97.916700
  H    -41.143000   49.649900   97.584100
  H    -39.634000   49.050100   98.206200
  H    -39.718200   50.326500   96.998200
  H    -38.061900   47.948200  104.088000
  H    -43.273500   54.502300  102.192000

 Total Charge           Charge          ....    0
 Multiplicity           Mult            ....    1
 Number of Electrons    NEL             ....  134
 Basis Dimension        Dim             ....  322

ORBITAL ENERGIES
----------------

  NO   OCC          E(Eh)            E(eV)
   0   2.0000     -88.969795     -2420.9912
   1   2.0000     -88.969171     -2420.9742
   2   2.0000     -10.335834      -281.2523
   3   2.0000     -10.333536      -281.1898
   4   2.0000     -10.323346      -280.9125
   5   2.0000     -10.315478      -280.6984
   6   2.0000     -10.307466      -280.4804
   7   2.0000     -10.307262      -280.4749
   8   2.0000     -10.304220      -280.3921
   9   2.0000     -10.299379      -280.2603
  10   2.0000     -10.296185      -280.1734
  11   2.0000     -10.278581      -279.6944
  12   2.0000     -10.278193      -279.6838
  13   2.0000     -10.276593      -279.6403
  14   2.0000     -10.270743      -279.4811
  15   2.0000     -10.269929      -279.4590
  16   2.0000      -8.083724      -219.9693
  17   2.0000      -8.082287      -219.9302
  18   2.0000      -6.042486      -164.4244
  19   2.0000      -6.040999      -164.3839
  20   2.0000      -6.038359      -164.3121
  21   2.0000      -6.036991      -164.2749
  22   2.0000      -6.034241      -164.2000
  23   2.0000      -6.032954      -164.1650
  24   2.0000      -1.002745       -27.2861
  25   2.0000      -0.981119       -26.6976
  26   2.0000      -0.920312       -25.0430
  27   2.0000      -0.907921       -24.7058
  28   2.0000      -0.866952       -23.5910
  29   2.0000      -0.851635       -23.1742
  30   2.0000      -0.843248       -22.9459
  31   2.0000      -0.817308       -22.2401
  32   2.0000      -0.785731       -21.3808
  33   2.0000      -0.776565       -21.1314
  34   2.0000      -0.708628       -19.2828
  35   2.0000      -0.704050       -19.1582
  36   2.0000      -0.692497       -18.8438
  37   2.0000      -0.666552       -18.1378
  38   2.0000      -0.634094       -17.2546
  39   2.0000      -0.612134       -16.6570
  40   2.0000      -0.595475       -16.2037
  41   2.0000      -0.576323       -15.6826
  42   2.0000      -0.564875       -15.3710
  43   2.0000      -0.560132       -15.2420
  44   2.0000      -0.545630       -14.8474
  45   2.0000      -0.523706       -14.2508
  46   2.0000      -0.518872       -14.1192
  47   2.0000      -0.515735       -14.0339
  48   2.0000      -0.511323       -13.9138
  49   2.0000      -0.495099       -13.4723
  50   2.0000      -0.490372       -13.3437
  51   2.0000      -0.483592       -13.1592
  52   2.0000      -0.472433       -12.8556
  53   2.0000      -0.464259       -12.6331
  54   2.0000      -0.461813       -12.5666
  55   2.0000      -0.454493       -12.3674
  56   2.0000      -0.448242       -12.1973
  57   2.0000      -0.439637       -11.9631
  58   2.0000      -0.426349       -11.6015
  59   2.0000      -0.423403       -11.5214
  60   2.0000      -0.417784       -11.3685
  61   2.0000      -0.411286       -11.1917
  62   2.0000      -0.402255       -10.9459
  63   2.0000      -0.352457        -9.5908
  64   2.0000      -0.332858        -9.0575
  65   2.0000      -0.331069        -9.0088
  66   2.0000      -0.295337        -8.0365
  67   0.0000       0.023880         0.6498
  68   0.0000       0.071414         1.9433
  69   0.0000       0.103241         2.8093
  70   0.0000       0.115761         3.1500
  71   0.0000       0.122595         3.3360

MULLIKEN ATOMIC CHARGES
-----------------------
   0 S :    0.087844
   1 C :   -0.078081
   2 C :   -0.132119
   3 C :   -0.009974
   4 C :   -0.121982
   5 H :    0.039060
   6 C :    0.137062
   7 H :    0.002203
   8 H :    0.005079
   9 C :   -0.057417
  10 H :    0.020663
  11 H :    0.003035
  12 C :   -0.023495
  13 H :    0.033582
  14 H :    0.033490
  15 H :    0.026186
  16 S :    0.101476
  17 C :   -0.086412
  18 C :   -0.052447
  19 C :   -0.064261
  20 C :   -0.134339
  21 H :    0.050868
  22 C :    0.047777
  23 H :    0.024733
  24 H :    0.020045
  25 C :   -0.061035
  26 H :    0.033933
  27 H :    0.017985
  28 C :   -0.013656
  29 H :    0.007940
  30 H :    0.027047
  31 H :    0.035882
  32 H :    0.017939
  33 H :    0.061389
Sum of atomic charges:    0.0000000

LOEWDIN ATOMIC CHARGES
----------------------
   0 S :    0.390767
   1 C :   -0.169099
   2 C :   -0.051583
   3 C :   -0.086030
   4 C :   -0.183071
   5 H :    0.040737
   6 C :   -0.025005
   7 H :    0.021208
   8 H :    0.027827
   9 C :   -0.035762
  10 H :    0.022063
  11 H :    0.014427
  12 C :   -0.054104
  13 H :    0.028508
  14 H :    0.028106
  15 H :    0.017233
  16 S :    0.392038
  17 C :   -0.181711
  18 C :   -0.075199
  19 C :   -0.059700
  20 C :   -0.182300
  21 H :    0.044648
  22 C :   -0.033774
  23 H :    0.033557
  24 H :    0.014248
  25 C :   -0.041925
  26 H :    0.025998
  27 H :    0.021908
  28 C :   -0.065186
  29 H :    0.020708
  30 H :    0.024465
  31 H :    0.030396
  32 H :    0.012802
  33 H :    0.032806

  Mayer bond orders larger than 0.100000
B(  0-S ,  1-C ) :   1.1088 B(  0-S ,  4-C ) :   1.1553 B(  1-C ,  2-C ) :   1.6089
B(  1-C , 32-H ) :   0.9825 B(  2-C ,  3-C ) :   1.2271 B(  2-C ,  6-C ) :   1.0230
B(  3-C ,  4-C ) :   1.5743 B(  3-C ,  5-H ) :   0.9824 B(  4-C , 20-C ) :   1.0236
B(  6-C ,  7-H ) :   0.9289 B(  6-C ,  8-H ) :   0.9340 B(  6-C ,  9-C ) :   1.0759
B(  9-C , 10-H ) :   0.9515 B(  9-C , 11-H ) :   0.9531 B(  9-C , 12-C ) :   1.0762
B( 12-C , 13-H ) :   0.9719 B( 12-C , 14-H ) :   0.9787 B( 12-C , 15-H ) :   0.9770
B( 16-S , 17-C ) :   1.1317 B( 16-S , 20-C ) :   1.1271 B( 17-C , 18-C ) :   1.6368
B( 17-C , 33-H ) :   0.9692 B( 18-C , 19-C ) :   1.2305 B( 18-C , 21-H ) :   0.9686
B( 19-C , 20-C ) :   1.6275 B( 19-C , 22-C ) :   1.0384 B( 22-C , 23-H ) :   0.9321
B( 22-C , 24-H ) :   0.9365 B( 22-C , 25-C ) :   1.0556 B( 25-C , 26-H ) :   0.9577
B( 25-C , 27-H ) :   0.9559 B( 25-C , 28-C ) :   1.0822 B( 28-C , 29-H ) :   0.9697
B( 28-C , 30-H ) :   0.9742 B( 28-C , 31-H ) :   0.9758

Dispersion correction           -0.014389401
FINAL SINGLE POINT ENERGY     -1339.870379184229

DIPOLE MOMENT
-------------
                                X             Y             Z
Electronic contribution:    -17.19083       4.08098      11.73004
Nuclear contribution   :     17.45476      -4.06666     -11.96394
                        -----------------------------------------
Total Dipole Moment    :      0.26393       0.01432      -0.23390
                        -----------------------------------------
Magnitude (a.u.)       :      0.35295
Magnitude (Debye)      :      0.89712

Rotational constants in cm-1:     0.017906     0.008742     0.007189
Rotational constants in MHz :   536.798229   262.066969   215.526053

                             ****ORCA TERMINATED NORMALLY****
TOTAL RUN TIME: 0 days 0 hours 0 minutes 28 seconds 19 msec
