                         Program Version 4.2.1 -  RELEASE  -
|  1> ! wB97X-D3 SP def2-SVP
|  2> %pal
|  3> nprocs 16
|  4> end
|  5>
|  6> * xyz 0 1
|  7> S 	 54.4083 	 0.0652026 	 87.8476
|  8> C 	 55.0954 	 -0.809261 	 89.231
|  9> C 	 54.6548 	 -0.332377 	 90.4345
| 10> C 	 53.6539 	 0.704371 	 90.3057
| 11> C 	 53.4669 	 1.03104 	 88.9983
| 12> H 	 53.151 	 1.035 	 91.1944
| 13> C 	 55.129 	 -0.781713 	 91.7996
| 14> H 	 55.4246 	 -1.87892 	 91.6355
| 15> H 	 54.2936 	 -0.803639 	 92.4547
| 16> C 	 56.2065 	 0.0700532 	 92.4613
| 17> H 	 57.0757 	 0.030536 	 91.8344
| 18> H 	 55.9242 	 1.1219 	 92.4775
| 19> C 	 56.5042 	 -0.412178 	 93.9233
| 20> H 	 55.5433 	 -0.315037 	 94.5213
| 21> H 	 56.7295 	 -1.46979 	 93.9086
| 22> H 	 57.1804 	 0.314655 	 94.2346
| 23> S 	 51.5979 	 1.76962 	 87.2338
| 24> C 	 50.5199 	 3.08219 	 87.5874
| 25> C 	 50.9449 	 3.86209 	 88.6292
| 26> C 	 52.1449 	 3.35114 	 89.2253
| 27> C 	 52.5922 	 2.13027 	 88.6381
| 28> H 	 50.3323 	 4.68902 	 88.9507
| 29> C 	 52.8168 	 4.01283 	 90.4354
| 30> H 	 53.8348 	 3.69698 	 90.4991
| 31> H 	 52.2315 	 3.59426 	 91.2395
| 32> C 	 52.8679 	 5.52905 	 90.6097
| 33> H 	 51.933 	 5.83102 	 91.0326
| 34> H 	 53.0306 	 6.09332 	 89.7232
| 35> C 	 53.8192 	 5.91839 	 91.8247
| 36> H 	 54.0747 	 6.97701 	 91.9346
| 37> H 	 54.7785 	 5.377 	 91.7525
| 38> H 	 53.3987 	 5.69964 	 92.7492
| 39> H 	 55.6267 	 -1.71864 	 89.1465
| 40> H 	 49.7088 	 3.30773 	 86.9077
| 41> *
| 42>
| 43>                          ****END OF INPUT****

CARTESIAN COORDINATES (ANGSTROEM)
---------------------------------
  S     54.408300    0.065203   87.847600
  C     55.095400   -0.809261   89.231000
  C     54.654800   -0.332377   90.434500
  C     53.653900    0.704371   90.305700
  C     53.466900    1.031040   88.998300
  H     53.151000    1.035000   91.194400
  C     55.129000   -0.781713   91.799600
  H     55.424600   -1.878920   91.635500
  H     54.293600   -0.803639   92.454700
  C     56.206500    0.070053   92.461300
  H     57.075700    0.030536   91.834400
  H     55.924200    1.121900   92.477500
  C     56.504200   -0.412178   93.923300
  H     55.543300   -0.315037   94.521300
  H     56.729500   -1.469790   93.908600
  H     57.180400    0.314655   94.234600
  S     51.597900    1.769620   87.233800
  C     50.519900    3.082190   87.587400
  C     50.944900    3.862090   88.629200
  C     52.144900    3.351140   89.225300
  C     52.592200    2.130270   88.638100
  H     50.332300    4.689020   88.950700
  C     52.816800    4.012830   90.435400
  H     53.834800    3.696980   90.499100
  H     52.231500    3.594260   91.239500
  C     52.867900    5.529050   90.609700
  H     51.933000    5.831020   91.032600
  H     53.030600    6.093320   89.723200
  C     53.819200    5.918390   91.824700
  H     54.074700    6.977010   91.934600
  H     54.778500    5.377000   91.752500
  H     53.398700    5.699640   92.749200
  H     55.626700   -1.718640   89.146500
  H     49.708800    3.307730   86.907700

 Total Charge           Charge          ....    0
 Multiplicity           Mult            ....    1
 Number of Electrons    NEL             ....  134
 Basis Dimension        Dim             ....  322

ORBITAL ENERGIES
----------------

  NO   OCC          E(Eh)            E(eV)
   0   2.0000     -88.968081     -2420.9446
   1   2.0000     -88.959427     -2420.7091
   2   2.0000     -10.330501      -281.1072
   3   2.0000     -10.326510      -280.9986
   4   2.0000     -10.314807      -280.6802
   5   2.0000     -10.312343      -280.6131
   6   2.0000     -10.309044      -280.5234
   7   2.0000     -10.296564      -280.1838
   8   2.0000     -10.294326      -280.1228
   9   2.0000     -10.292235      -280.0659
  10   2.0000     -10.289688      -279.9966
  11   2.0000     -10.289093      -279.9805
  12   2.0000     -10.287157      -279.9278
  13   2.0000     -10.285690      -279.8879
  14   2.0000     -10.281971      -279.7867
  15   2.0000     -10.279191      -279.7110
  16   2.0000      -8.082108      -219.9253
  17   2.0000      -8.074927      -219.7299
  18   2.0000      -6.040809      -164.3788
  19   2.0000      -6.036984      -164.2747
  20   2.0000      -6.033229      -164.1725
  21   2.0000      -6.032442      -164.1511
  22   2.0000      -6.029330      -164.0664
  23   2.0000      -6.025864      -163.9721
  24   2.0000      -1.004329       -27.3292
  25   2.0000      -0.980702       -26.6862
  26   2.0000      -0.911759       -24.8102
  27   2.0000      -0.907683       -24.6993
  28   2.0000      -0.870840       -23.6968
  29   2.0000      -0.852565       -23.1995
  30   2.0000      -0.844792       -22.9880
  31   2.0000      -0.814686       -22.1687
  32   2.0000      -0.781227       -21.2583
  33   2.0000      -0.771020       -20.9805
  34   2.0000      -0.713508       -19.4155
  35   2.0000      -0.701578       -19.0909
  36   2.0000      -0.698798       -19.0153
  37   2.0000      -0.657062       -17.8796
  38   2.0000      -0.636452       -17.3187
  39   2.0000      -0.624332       -16.9889
  40   2.0000      -0.597292       -16.2532
  41   2.0000      -0.576081       -15.6760
  42   2.0000      -0.568533       -15.4706
  43   2.0000      -0.561182       -15.2705
  44   2.0000      -0.536543       -14.6001
  45   2.0000      -0.520906       -14.1746
  46   2.0000      -0.519938       -14.1482
  47   2.0000      -0.509322       -13.8593
  48   2.0000      -0.500901       -13.6302
  49   2.0000      -0.497602       -13.5404
  50   2.0000      -0.485598       -13.2138
  51   2.0000      -0.484573       -13.1859
  52   2.0000      -0.468644       -12.7525
  53   2.0000      -0.462473       -12.5845
  54   2.0000      -0.457223       -12.4417
  55   2.0000      -0.454721       -12.3736
  56   2.0000      -0.450426       -12.2567
  57   2.0000      -0.444534       -12.0964
  58   2.0000      -0.436917       -11.8891
  59   2.0000      -0.425820       -11.5872
  60   2.0000      -0.418610       -11.3909
  61   2.0000      -0.416201       -11.3254
  62   2.0000      -0.411148       -11.1879
  63   2.0000      -0.350903        -9.5486
  64   2.0000      -0.332285        -9.0419
  65   2.0000      -0.325786        -8.8651
  66   2.0000      -0.285052        -7.7567
  67   0.0000       0.025664         0.6984
  68   0.0000       0.077815         2.1175
  69   0.0000       0.100501         2.7348
  70   0.0000       0.122754         3.3403
  71   0.0000       0.132673         3.6102

MULLIKEN ATOMIC CHARGES
-----------------------
   0 S :    0.105269
   1 C :   -0.111145
   2 C :   -0.094185
   3 C :   -0.004106
   4 C :   -0.072475
   5 H :    0.009040
   6 C :    0.048188
   7 H :    0.029044
   8 H :    0.004241
   9 C :   -0.072022
  10 H :    0.023808
  11 H :    0.023950
  12 C :   -0.020143
  13 H :    0.031421
  14 H :    0.039504
  15 H :    0.035818
  16 S :    0.082130
  17 C :   -0.090894
  18 C :   -0.031784
  19 C :   -0.045492
  20 C :   -0.150352
  21 H :    0.021795
  22 C :    0.041682
  23 H :    0.027990
  24 H :    0.037629
  25 C :   -0.033395
  26 H :    0.016389
  27 H :    0.036700
  28 C :   -0.059637
  29 H :    0.033858
  30 H :    0.029845
  31 H :    0.015154
  32 H :    0.032601
  33 H :    0.059572
Sum of atomic charges:   -0.0000000

LOEWDIN ATOMIC CHARGES
----------------------
   0 S :    0.376169
   1 C :   -0.188620
   2 C :   -0.057183
   3 C :   -0.059163
   4 C :   -0.182305
   5 H :    0.031749
   6 C :   -0.036657
   7 H :    0.036456
   8 H :    0.019366
   9 C :   -0.035747
  10 H :    0.020367
  11 H :    0.023207
  12 C :   -0.055726
  13 H :    0.030792
  14 H :    0.026331
  15 H :    0.021134
  16 S :    0.402907
  17 C :   -0.181238
  18 C :   -0.077490
  19 C :   -0.047123
  20 C :   -0.194337
  21 H :    0.034441
  22 C :   -0.033027
  23 H :    0.026268
  24 H :    0.034811
  25 C :   -0.032022
  26 H :    0.021181
  27 H :    0.021360
  28 C :   -0.061169
  29 H :    0.029427
  30 H :    0.024289
  31 H :    0.014730
  32 H :    0.019933
  33 H :    0.026886

  Mayer bond orders larger than 0.100000
B(  0-S ,  1-C ) :   1.0990 B(  0-S ,  4-C ) :   1.1271 B(  1-C ,  2-C ) :   1.6620
B(  1-C , 32-H ) :   0.9673 B(  2-C ,  3-C ) :   1.2125 B(  2-C ,  6-C ) :   1.0294
B(  3-C ,  4-C ) :   1.5777 B(  3-C ,  5-H ) :   1.0028 B(  4-C , 20-C ) :   1.0490
B(  6-C ,  7-H ) :   0.9382 B(  6-C ,  8-H ) :   0.9366 B(  6-C ,  9-C ) :   1.0627
B(  9-C , 10-H ) :   0.9535 B(  9-C , 11-H ) :   0.9546 B(  9-C , 12-C ) :   1.0726
B( 12-C , 13-H ) :   0.9754 B( 12-C , 14-H ) :   0.9762 B( 12-C , 15-H ) :   0.9755
B( 16-S , 17-C ) :   1.1771 B( 16-S , 20-C ) :   1.1364 B( 17-C , 18-C ) :   1.5911
B( 17-C , 33-H ) :   0.9661 B( 18-C , 19-C ) :   1.2443 B( 18-C , 21-H ) :   0.9989
B( 19-C , 20-C ) :   1.5715 B( 19-C , 22-C ) :   1.0249 B( 22-C , 23-H ) :   0.9494
B( 22-C , 24-H ) :   0.9293 B( 22-C , 25-C ) :   1.0659 B( 25-C , 26-H ) :   0.9477
B( 25-C , 27-H ) :   0.9668 B( 25-C , 28-C ) :   1.0706 B( 28-C , 29-H ) :   0.9756
B( 28-C , 30-H ) :   0.9789 B( 28-C , 31-H ) :   0.9791

Dispersion correction           -0.013446656
FINAL SINGLE POINT ENERGY     -1339.863429671738

DIPOLE MOMENT
-------------
                                X             Y             Z
Electronic contribution:    -10.89334      -9.82363     -29.44996
Nuclear contribution   :     10.83805      10.10646      30.23001
                        -----------------------------------------
Total Dipole Moment    :     -0.05529       0.28283       0.78005
                        -----------------------------------------
Magnitude (a.u.)       :      0.83158
Magnitude (Debye)      :      2.11370

Rotational constants in cm-1:     0.015662     0.009218     0.006203
Rotational constants in MHz :   469.535950   276.335553   185.959354

                             ****ORCA TERMINATED NORMALLY****
TOTAL RUN TIME: 0 days 0 hours 0 minutes 29 seconds 402 msec
