                         Program Version 4.2.1 -  RELEASE  -
|  1> ! wB97X-D3 SP def2-SVP
|  2> %pal
|  3> nprocs 16
|  4> end
|  5>
|  6> * xyz 0 1
|  7> S 	 65.3534 	 22.6244 	 72.4729
|  8> C 	 64.3704 	 22.1339 	 73.8275
|  9> C 	 65.0737 	 22.375 	 74.9611
| 10> C 	 66.3203 	 23.0223 	 74.7963
| 11> C 	 66.5494 	 23.4363 	 73.5107
| 12> H 	 66.9956 	 23.3851 	 75.5591
| 13> C 	 64.4726 	 22.1368 	 76.4091
| 14> H 	 63.4578 	 21.777 	 76.3642
| 15> H 	 64.3836 	 23.0513 	 76.9666
| 16> C 	 65.259 	 21.0672 	 77.3101
| 17> H 	 65.2964 	 20.1013 	 76.9108
| 18> H 	 66.3182 	 21.3643 	 77.3819
| 19> C 	 64.7611 	 20.908 	 78.7245
| 20> H 	 63.7615 	 20.7042 	 78.9271
| 21> H 	 65.3584 	 20.1157 	 79.1662
| 22> H 	 64.9895 	 21.7977 	 79.3993
| 23> S 	 67.1903 	 25.66 	 71.9547
| 24> C 	 68.777 	 26.2855 	 71.8897
| 25> C 	 69.5793 	 25.5795 	 72.7516
| 26> C 	 68.9477 	 24.4943 	 73.4095
| 27> C 	 67.6231 	 24.394 	 73.1247
| 28> H 	 70.6317 	 25.8202 	 72.8276
| 29> C 	 69.7427 	 23.566 	 74.359
| 30> H 	 70.7046 	 23.3844 	 73.8448
| 31> H 	 69.3898 	 22.5342 	 74.3374
| 32> C 	 70.0629 	 24.12 	 75.7713
| 33> H 	 69.098 	 24.3589 	 76.1858
| 34> H 	 70.6467 	 25.0755 	 75.7949
| 35> C 	 70.7565 	 23.0169 	 76.5893
| 36> H 	 70.7881 	 23.5233 	 77.5952
| 37> H 	 71.7931 	 22.8191 	 76.1737
| 38> H 	 70.1011 	 22.1592 	 76.8179
| 39> H 	 63.3751 	 21.6654 	 73.7655
| 40> H 	 69.2797 	 27.1568 	 71.5175
| 41> *
| 42>
| 43>                          ****END OF INPUT****

CARTESIAN COORDINATES (ANGSTROEM)
---------------------------------
  S     65.353400   22.624400   72.472900
  C     64.370400   22.133900   73.827500
  C     65.073700   22.375000   74.961100
  C     66.320300   23.022300   74.796300
  C     66.549400   23.436300   73.510700
  H     66.995600   23.385100   75.559100
  C     64.472600   22.136800   76.409100
  H     63.457800   21.777000   76.364200
  H     64.383600   23.051300   76.966600
  C     65.259000   21.067200   77.310100
  H     65.296400   20.101300   76.910800
  H     66.318200   21.364300   77.381900
  C     64.761100   20.908000   78.724500
  H     63.761500   20.704200   78.927100
  H     65.358400   20.115700   79.166200
  H     64.989500   21.797700   79.399300
  S     67.190300   25.660000   71.954700
  C     68.777000   26.285500   71.889700
  C     69.579300   25.579500   72.751600
  C     68.947700   24.494300   73.409500
  C     67.623100   24.394000   73.124700
  H     70.631700   25.820200   72.827600
  C     69.742700   23.566000   74.359000
  H     70.704600   23.384400   73.844800
  H     69.389800   22.534200   74.337400
  C     70.062900   24.120000   75.771300
  H     69.098000   24.358900   76.185800
  H     70.646700   25.075500   75.794900
  C     70.756500   23.016900   76.589300
  H     70.788100   23.523300   77.595200
  H     71.793100   22.819100   76.173700
  H     70.101100   22.159200   76.817900
  H     63.375100   21.665400   73.765500
  H     69.279700   27.156800   71.517500

 Total Charge           Charge          ....    0
 Multiplicity           Mult            ....    1
 Number of Electrons    NEL             ....  134
 Basis Dimension        Dim             ....  322

ORBITAL ENERGIES
----------------

  NO   OCC          E(Eh)            E(eV)
   0   2.0000     -88.966148     -2420.8920
   1   2.0000     -88.964764     -2420.8543
   2   2.0000     -10.334772      -281.2234
   3   2.0000     -10.330582      -281.1094
   4   2.0000     -10.315135      -280.6891
   5   2.0000     -10.312565      -280.6192
   6   2.0000     -10.302703      -280.3508
   7   2.0000     -10.301752      -280.3249
   8   2.0000     -10.296068      -280.1702
   9   2.0000     -10.293835      -280.1095
  10   2.0000     -10.293749      -280.1071
  11   2.0000     -10.292049      -280.0609
  12   2.0000     -10.291446      -280.0445
  13   2.0000     -10.288089      -279.9531
  14   2.0000     -10.286206      -279.9019
  15   2.0000     -10.275843      -279.6199
  16   2.0000      -8.080993      -219.8950
  17   2.0000      -8.079139      -219.8445
  18   2.0000      -6.039566      -164.3449
  19   2.0000      -6.037816      -164.2973
  20   2.0000      -6.035398      -164.2315
  21   2.0000      -6.033703      -164.1854
  22   2.0000      -6.031708      -164.1311
  23   2.0000      -6.029698      -164.0764
  24   2.0000      -1.009364       -27.4662
  25   2.0000      -0.990644       -26.9568
  26   2.0000      -0.907609       -24.6973
  27   2.0000      -0.899958       -24.4891
  28   2.0000      -0.873004       -23.7556
  29   2.0000      -0.852330       -23.1931
  30   2.0000      -0.845242       -23.0002
  31   2.0000      -0.819864       -22.3096
  32   2.0000      -0.779096       -21.2003
  33   2.0000      -0.771931       -21.0053
  34   2.0000      -0.708473       -19.2785
  35   2.0000      -0.699732       -19.0407
  36   2.0000      -0.696322       -18.9479
  37   2.0000      -0.661597       -18.0030
  38   2.0000      -0.643818       -17.5192
  39   2.0000      -0.620547       -16.8859
  40   2.0000      -0.593085       -16.1387
  41   2.0000      -0.569057       -15.4848
  42   2.0000      -0.565726       -15.3942
  43   2.0000      -0.556180       -15.1344
  44   2.0000      -0.527037       -14.3414
  45   2.0000      -0.521950       -14.2030
  46   2.0000      -0.518944       -14.1212
  47   2.0000      -0.515780       -14.0351
  48   2.0000      -0.502377       -13.6704
  49   2.0000      -0.497200       -13.5295
  50   2.0000      -0.492391       -13.3986
  51   2.0000      -0.485502       -13.2112
  52   2.0000      -0.474084       -12.9005
  53   2.0000      -0.468988       -12.7618
  54   2.0000      -0.466256       -12.6875
  55   2.0000      -0.447336       -12.1726
  56   2.0000      -0.445385       -12.1196
  57   2.0000      -0.435468       -11.8497
  58   2.0000      -0.431814       -11.7502
  59   2.0000      -0.419564       -11.4169
  60   2.0000      -0.416311       -11.3284
  61   2.0000      -0.410076       -11.1587
  62   2.0000      -0.408853       -11.1254
  63   2.0000      -0.355110        -9.6630
  64   2.0000      -0.332650        -9.0519
  65   2.0000      -0.328654        -8.9431
  66   2.0000      -0.296406        -8.0656
  67   0.0000       0.028741         0.7821
  68   0.0000       0.075565         2.0562
  69   0.0000       0.117194         3.1890
  70   0.0000       0.122429         3.3315
  71   0.0000       0.128858         3.5064

MULLIKEN ATOMIC CHARGES
-----------------------
   0 S :    0.106497
   1 C :   -0.138600
   2 C :   -0.044257
   3 C :    0.028482
   4 C :   -0.126688
   5 H :    0.002839
   6 C :    0.069491
   7 H :    0.008509
   8 H :    0.030639
   9 C :   -0.066770
  10 H :    0.021424
  11 H :    0.023636
  12 C :   -0.053440
  13 H :    0.021357
  14 H :    0.027770
  15 H :    0.027008
  16 S :    0.113550
  17 C :   -0.047751
  18 C :   -0.076822
  19 C :   -0.015267
  20 C :   -0.176303
  21 H :    0.014873
  22 C :    0.039418
  23 H :    0.013534
  24 H :    0.027644
  25 C :   -0.075099
  26 H :    0.019326
  27 H :    0.041336
  28 C :   -0.067416
  29 H :    0.036497
  30 H :    0.058066
  31 H :    0.043953
  32 H :    0.063774
  33 H :    0.048791
Sum of atomic charges:    0.0000000

LOEWDIN ATOMIC CHARGES
----------------------
   0 S :    0.389056
   1 C :   -0.199110
   2 C :   -0.066578
   3 C :   -0.064346
   4 C :   -0.177626
   5 H :    0.030349
   6 C :   -0.022393
   7 H :    0.023096
   8 H :    0.026914
   9 C :   -0.038233
  10 H :    0.017678
  11 H :    0.025022
  12 C :   -0.068302
  13 H :    0.012964
  14 H :    0.029786
  15 H :    0.029296
  16 S :    0.417302
  17 C :   -0.201914
  18 C :   -0.076316
  19 C :   -0.060746
  20 C :   -0.185894
  21 H :    0.028530
  22 C :   -0.040597
  23 H :    0.030290
  24 H :    0.031605
  25 C :   -0.041656
  26 H :    0.016055
  27 H :    0.031190
  28 C :   -0.073838
  29 H :    0.033921
  30 H :    0.035846
  31 H :    0.029388
  32 H :    0.040673
  33 H :    0.038590

  Mayer bond orders larger than 0.100000
B(  0-S ,  1-C ) :   1.1203 B(  0-S ,  4-C ) :   1.1423 B(  1-C ,  2-C ) :   1.6301
B(  1-C , 32-H ) :   0.9672 B(  2-C ,  3-C ) :   1.2265 B(  2-C ,  6-C ) :   1.0150
B(  3-C ,  4-C ) :   1.5801 B(  3-C ,  5-H ) :   0.9973 B(  4-C , 20-C ) :   1.0424
B(  6-C ,  7-H ) :   0.9476 B(  6-C ,  8-H ) :   0.9524 B(  6-C ,  9-C ) :   1.0464
B(  9-C , 10-H ) :   0.9608 B(  9-C , 11-H ) :   0.9558 B(  9-C , 12-C ) :   1.0885
B( 12-C , 13-H ) :   0.9777 B( 12-C , 14-H ) :   0.9716 B( 12-C , 15-H ) :   0.9730
B( 16-S , 17-C ) :   1.1562 B( 16-S , 20-C ) :   1.1249 B( 17-C , 18-C ) :   1.6161
B( 17-C , 33-H ) :   0.9617 B( 18-C , 19-C ) :   1.2550 B( 18-C , 21-H ) :   0.9857
B( 19-C , 20-C ) :   1.6135 B( 19-C , 22-C ) :   1.0328 B( 22-C , 23-H ) :   0.9298
B( 22-C , 24-H ) :   0.9404 B( 22-C , 25-C ) :   1.0504 B( 25-C , 26-H ) :   0.9545
B( 25-C , 27-H ) :   0.9529 B( 25-C , 28-C ) :   1.0829 B( 28-C , 29-H ) :   0.9731
B( 28-C , 30-H ) :   0.9724 B( 28-C , 31-H ) :   0.9725

Dispersion correction           -0.013795675
FINAL SINGLE POINT ENERGY     -1339.861376090634

DIPOLE MOMENT
-------------
                                X             Y             Z
Electronic contribution:     -8.38918      11.35877     -30.52609
Nuclear contribution   :      8.73785     -11.44022      31.24283
                        -----------------------------------------
Total Dipole Moment    :      0.34867      -0.08145       0.71673
                        -----------------------------------------
Magnitude (a.u.)       :      0.80119
Magnitude (Debye)      :      2.03648

Rotational constants in cm-1:     0.016648     0.009061     0.006287
Rotational constants in MHz :   499.095316   271.637490   188.487241

                             ****ORCA TERMINATED NORMALLY****
TOTAL RUN TIME: 0 days 0 hours 0 minutes 29 seconds 396 msec
