                         Program Version 4.2.1 -  RELEASE  -
|  1> ! wB97X-D3 SP def2-SVP
|  2> %pal
|  3> nprocs 16
|  4> end
|  5>
|  6> * xyz 0 1
|  7> S 	 -35.7264 	 30.3535 	 81.9783
|  8> C 	 -34.8763 	 30.4938 	 80.4636
|  9> C 	 -35.7777 	 30.8135 	 79.4738
| 10> C 	 -37.1144 	 31.0296 	 79.9149
| 11> C 	 -37.3136 	 30.8289 	 81.3348
| 12> H 	 -37.9745 	 31.26 	 79.3204
| 13> C 	 -35.4716 	 31.0932 	 78.0151
| 14> H 	 -35.9056 	 30.2814 	 77.4099
| 15> H 	 -34.3424 	 31.0774 	 77.9755
| 16> C 	 -35.9112 	 32.4569 	 77.432
| 17> H 	 -36.9811 	 32.4705 	 77.674
| 18> H 	 -35.4 	 33.2767 	 77.9769
| 19> C 	 -35.5959 	 32.7147 	 75.9975
| 20> H 	 -36.0631 	 32.0858 	 75.2437
| 21> H 	 -35.7582 	 33.7818 	 75.8844
| 22> H 	 -34.5441 	 32.53 	 75.6964
| 23> S 	 -38.4117 	 31.3751 	 83.8134
| 24> C 	 -40.1459 	 31.4866 	 83.9003
| 25> C 	 -40.7594 	 31.2873 	 82.6778
| 26> C 	 -39.831 	 30.8809 	 81.6349
| 27> C 	 -38.5317 	 30.957 	 82.09
| 28> H 	 -41.7834 	 31.4751 	 82.5532
| 29> C 	 -40.2275 	 30.2526 	 80.2428
| 30> H 	 -41.0081 	 29.5087 	 80.5489
| 31> H 	 -39.512 	 29.5411 	 79.8541
| 32> C 	 -40.6598 	 31.2494 	 79.1712
| 33> H 	 -39.9382 	 32.0844 	 79.0411
| 34> H 	 -41.5821 	 31.6508 	 79.6267
| 35> C 	 -40.7812 	 30.6742 	 77.7074
| 36> H 	 -40.8469 	 31.4158 	 76.8366
| 37> H 	 -41.7193 	 30.0486 	 77.7424
| 38> H 	 -39.903 	 30.0634 	 77.4052
| 39> H 	 -33.8364 	 30.1969 	 80.2316
| 40> H 	 -40.7421 	 31.6608 	 84.7003
| 41> *
| 42>
| 43>                          ****END OF INPUT****

CARTESIAN COORDINATES (ANGSTROEM)
---------------------------------
  S    -35.726400   30.353500   81.978300
  C    -34.876300   30.493800   80.463600
  C    -35.777700   30.813500   79.473800
  C    -37.114400   31.029600   79.914900
  C    -37.313600   30.828900   81.334800
  H    -37.974500   31.260000   79.320400
  C    -35.471600   31.093200   78.015100
  H    -35.905600   30.281400   77.409900
  H    -34.342400   31.077400   77.975500
  C    -35.911200   32.456900   77.432000
  H    -36.981100   32.470500   77.674000
  H    -35.400000   33.276700   77.976900
  C    -35.595900   32.714700   75.997500
  H    -36.063100   32.085800   75.243700
  H    -35.758200   33.781800   75.884400
  H    -34.544100   32.530000   75.696400
  S    -38.411700   31.375100   83.813400
  C    -40.145900   31.486600   83.900300
  C    -40.759400   31.287300   82.677800
  C    -39.831000   30.880900   81.634900
  C    -38.531700   30.957000   82.090000
  H    -41.783400   31.475100   82.553200
  C    -40.227500   30.252600   80.242800
  H    -41.008100   29.508700   80.548900
  H    -39.512000   29.541100   79.854100
  C    -40.659800   31.249400   79.171200
  H    -39.938200   32.084400   79.041100
  H    -41.582100   31.650800   79.626700
  C    -40.781200   30.674200   77.707400
  H    -40.846900   31.415800   76.836600
  H    -41.719300   30.048600   77.742400
  H    -39.903000   30.063400   77.405200
  H    -33.836400   30.196900   80.231600
  H    -40.742100   31.660800   84.700300

 Total Charge           Charge          ....    0
 Multiplicity           Mult            ....    1
 Number of Electrons    NEL             ....  134
 Basis Dimension        Dim             ....  322

ORBITAL ENERGIES
----------------

  NO   OCC          E(Eh)            E(eV)
   0   2.0000     -88.970122     -2421.0001
   1   2.0000     -88.967192     -2420.9204
   2   2.0000     -10.336952      -281.2828
   3   2.0000     -10.330744      -281.1138
   4   2.0000     -10.316936      -280.7381
   5   2.0000     -10.313901      -280.6555
   6   2.0000     -10.311889      -280.6008
   7   2.0000     -10.302503      -280.3454
   8   2.0000     -10.299602      -280.2664
   9   2.0000     -10.299091      -280.2525
  10   2.0000     -10.298433      -280.2346
  11   2.0000     -10.296557      -280.1836
  12   2.0000     -10.295054      -280.1427
  13   2.0000     -10.294439      -280.1259
  14   2.0000     -10.288484      -279.9639
  15   2.0000     -10.278971      -279.7050
  16   2.0000      -8.084581      -219.9926
  17   2.0000      -8.081175      -219.9000
  18   2.0000      -6.043207      -164.4440
  19   2.0000      -6.039814      -164.3517
  20   2.0000      -6.039278      -164.3371
  21   2.0000      -6.035611      -164.2373
  22   2.0000      -6.035086      -164.2230
  23   2.0000      -6.032009      -164.1393
  24   2.0000      -1.003804       -27.3149
  25   2.0000      -0.981365       -26.7043
  26   2.0000      -0.911027       -24.7903
  27   2.0000      -0.906207       -24.6591
  28   2.0000      -0.874341       -23.7920
  29   2.0000      -0.851397       -23.1677
  30   2.0000      -0.844873       -22.9902
  31   2.0000      -0.812817       -22.1179
  32   2.0000      -0.782974       -21.3058
  33   2.0000      -0.773133       -21.0380
  34   2.0000      -0.713311       -19.4102
  35   2.0000      -0.699794       -19.0424
  36   2.0000      -0.693507       -18.8713
  37   2.0000      -0.666439       -18.1347
  38   2.0000      -0.636386       -17.3170
  39   2.0000      -0.619029       -16.8446
  40   2.0000      -0.597473       -16.2581
  41   2.0000      -0.573589       -15.6082
  42   2.0000      -0.565284       -15.3822
  43   2.0000      -0.558443       -15.1960
  44   2.0000      -0.533163       -14.5081
  45   2.0000      -0.523258       -14.2386
  46   2.0000      -0.517080       -14.0705
  47   2.0000      -0.513709       -13.9787
  48   2.0000      -0.504946       -13.7403
  49   2.0000      -0.502300       -13.6683
  50   2.0000      -0.497304       -13.5323
  51   2.0000      -0.483789       -13.1646
  52   2.0000      -0.475262       -12.9325
  53   2.0000      -0.470141       -12.7932
  54   2.0000      -0.457389       -12.4462
  55   2.0000      -0.453161       -12.3311
  56   2.0000      -0.443408       -12.0657
  57   2.0000      -0.436944       -11.8898
  58   2.0000      -0.429094       -11.6762
  59   2.0000      -0.424809       -11.5596
  60   2.0000      -0.415150       -11.2968
  61   2.0000      -0.408117       -11.1054
  62   2.0000      -0.404269       -11.0007
  63   2.0000      -0.359857        -9.7922
  64   2.0000      -0.335358        -9.1255
  65   2.0000      -0.327943        -8.9238
  66   2.0000      -0.282611        -7.6902
  67   0.0000       0.015733         0.4281
  68   0.0000       0.082848         2.2544
  69   0.0000       0.103266         2.8100
  70   0.0000       0.118770         3.2319
  71   0.0000       0.120267         3.2726

MULLIKEN ATOMIC CHARGES
-----------------------
   0 S :    0.100196
   1 C :   -0.123808
   2 C :   -0.069606
   3 C :    0.027091
   4 C :   -0.136239
   5 H :   -0.028114
   6 C :    0.037126
   7 H :    0.039421
   8 H :    0.015929
   9 C :   -0.086513
  10 H :    0.030465
  11 H :    0.037269
  12 C :   -0.030603
  13 H :    0.025672
  14 H :    0.039701
  15 H :    0.022202
  16 S :    0.115056
  17 C :   -0.030414
  18 C :   -0.029106
  19 C :   -0.049851
  20 C :   -0.127021
  21 H :    0.004246
  22 C :    0.020277
  23 H :    0.039305
  24 H :    0.027698
  25 C :   -0.081258
  26 H :    0.048705
  27 H :    0.036222
  28 C :   -0.095219
  29 H :    0.054094
  30 H :    0.047172
  31 H :    0.041869
  32 H :    0.063295
  33 H :    0.014741
Sum of atomic charges:   -0.0000000

LOEWDIN ATOMIC CHARGES
----------------------
   0 S :    0.400408
   1 C :   -0.210879
   2 C :   -0.071407
   3 C :   -0.063527
   4 C :   -0.181111
   5 H :    0.021744
   6 C :   -0.037626
   7 H :    0.031939
   8 H :    0.028355
   9 C :   -0.045195
  10 H :    0.022663
  11 H :    0.032847
  12 C :   -0.070165
  13 H :    0.023033
  14 H :    0.032480
  15 H :    0.028780
  16 S :    0.398209
  17 C :   -0.167608
  18 C :   -0.059605
  19 C :   -0.048696
  20 C :   -0.186704
  21 H :    0.022947
  22 C :   -0.036787
  23 H :    0.038870
  24 H :    0.026525
  25 C :   -0.050487
  26 H :    0.025251
  27 H :    0.028877
  28 C :   -0.081039
  29 H :    0.036049
  30 H :    0.031702
  31 H :    0.027430
  32 H :    0.041754
  33 H :    0.010975

  Mayer bond orders larger than 0.100000
B(  0-S ,  1-C ) :   1.1343 B(  0-S ,  4-C ) :   1.1556 B(  1-C ,  2-C ) :   1.5932
B(  1-C ,  4-C ) :   0.1023 B(  1-C , 32-H ) :   0.9591 B(  2-C ,  3-C ) :   1.2679
B(  2-C ,  6-C ) :   1.0263 B(  3-C ,  4-C ) :   1.5152 B(  3-C ,  5-H ) :   0.9876
B(  4-C , 20-C ) :   1.1101 B(  6-C ,  7-H ) :   0.9342 B(  6-C ,  8-H ) :   0.9440
B(  6-C ,  9-C ) :   1.0695 B(  9-C , 10-H ) :   0.9505 B(  9-C , 11-H ) :   0.9548
B(  9-C , 12-C ) :   1.0882 B( 12-C , 13-H ) :   0.9711 B( 12-C , 14-H ) :   0.9738
B( 12-C , 15-H ) :   0.9697 B( 16-S , 17-C ) :   1.1365 B( 16-S , 20-C ) :   1.1152
B( 17-C , 18-C ) :   1.6431 B( 17-C , 33-H ) :   0.9759 B( 18-C , 19-C ) :   1.2198
B( 18-C , 21-H ) :   0.9929 B( 19-C , 20-C ) :   1.6167 B( 19-C , 22-C ) :   1.0120
B( 22-C , 23-H ) :   0.9407 B( 22-C , 24-H ) :   0.9477 B( 22-C , 25-C ) :   1.0337
B( 25-C , 26-H ) :   0.9578 B( 25-C , 27-H ) :   0.9580 B( 25-C , 28-C ) :   1.0589
B( 28-C , 29-H ) :   0.9770 B( 28-C , 30-H ) :   0.9777 B( 28-C , 31-H ) :   0.9736

Dispersion correction           -0.014357272
FINAL SINGLE POINT ENERGY     -1339.861079619499

DIPOLE MOMENT
-------------
                                X             Y             Z
Electronic contribution:      6.19709      -4.35734      33.18197
Nuclear contribution   :     -6.60349       4.38055     -33.82466
                        -----------------------------------------
Total Dipole Moment    :     -0.40639       0.02321      -0.64269
                        -----------------------------------------
Magnitude (a.u.)       :      0.76075
Magnitude (Debye)      :      1.93367

Rotational constants in cm-1:     0.017077     0.009611     0.006671
Rotational constants in MHz :   511.947667   288.133543   200.004202

                             ****ORCA TERMINATED NORMALLY****
TOTAL RUN TIME: 0 days 0 hours 0 minutes 31 seconds 101 msec
