                         Program Version 4.2.1 -  RELEASE  -
|  1> ! wB97X-D3 SP def2-SVP
|  2> %pal
|  3> nprocs 16
|  4> end
|  5>
|  6> * xyz 0 1
|  7> S 	 3.32728 	 12.7307 	 87.5955
|  8> C 	 2.92464 	 14.0794 	 86.6447
|  9> C 	 2.51526 	 13.6081 	 85.4287
| 10> C 	 2.54378 	 12.1696 	 85.3221
| 11> C 	 3.03986 	 11.5345 	 86.4624
| 12> H 	 2.2653 	 11.623 	 84.483
| 13> C 	 1.85792 	 14.6011 	 84.4534
| 14> H 	 2.09722 	 15.5866 	 84.8002
| 15> H 	 0.792925 	 14.647 	 84.433
| 16> C 	 2.3574 	 14.3636 	 82.9871
| 17> H 	 3.42046 	 14.5318 	 83.0431
| 18> H 	 2.23444 	 13.3377 	 82.6818
| 19> C 	 1.75669 	 15.3503 	 81.9335
| 20> H 	 2.05178 	 16.3487 	 82.1509
| 21> H 	 2.06434 	 14.9461 	 80.9869
| 22> H 	 0.70746 	 15.3336 	 81.9038
| 23> S 	 1.47607 	 9.34876 	 86.3278
| 24> C 	 2.17947 	 7.71227 	 86.6064
| 25> C 	 3.49473 	 7.835 	 86.9762
| 26> C 	 3.98798 	 9.17524 	 87.0133
| 27> C 	 2.98816 	 10.1038 	 86.7167
| 28> H 	 4.13212 	 7.00397 	 87.1986
| 29> C 	 5.3268 	 9.50123 	 87.6714
| 30> H 	 5.13084 	 10.5569 	 87.9885
| 31> H 	 6.17448 	 9.59566 	 86.9531
| 32> C 	 5.74225 	 8.64132 	 88.9094
| 33> H 	 6.6989 	 8.95719 	 89.1684
| 34> H 	 5.83189 	 7.67462 	 88.6158
| 35> C 	 4.75275 	 8.79795 	 90.1057
| 36> H 	 4.72224 	 9.83677 	 90.4678
| 37> H 	 5.09502 	 8.33772 	 91.0128
| 38> H 	 3.67739 	 8.35939 	 90.0589
| 39> H 	 2.81376 	 15.0919 	 86.9869
| 40> H 	 1.60097 	 6.79921 	 86.5567
| 41> *
| 42>
| 43>                          ****END OF INPUT****

CARTESIAN COORDINATES (ANGSTROEM)
---------------------------------
  S      3.327280   12.730700   87.595500
  C      2.924640   14.079400   86.644700
  C      2.515260   13.608100   85.428700
  C      2.543780   12.169600   85.322100
  C      3.039860   11.534500   86.462400
  H      2.265300   11.623000   84.483000
  C      1.857920   14.601100   84.453400
  H      2.097220   15.586600   84.800200
  H      0.792925   14.647000   84.433000
  C      2.357400   14.363600   82.987100
  H      3.420460   14.531800   83.043100
  H      2.234440   13.337700   82.681800
  C      1.756690   15.350300   81.933500
  H      2.051780   16.348700   82.150900
  H      2.064340   14.946100   80.986900
  H      0.707460   15.333600   81.903800
  S      1.476070    9.348760   86.327800
  C      2.179470    7.712270   86.606400
  C      3.494730    7.835000   86.976200
  C      3.987980    9.175240   87.013300
  C      2.988160   10.103800   86.716700
  H      4.132120    7.003970   87.198600
  C      5.326800    9.501230   87.671400
  H      5.130840   10.556900   87.988500
  H      6.174480    9.595660   86.953100
  C      5.742250    8.641320   88.909400
  H      6.698900    8.957190   89.168400
  H      5.831890    7.674620   88.615800
  C      4.752750    8.797950   90.105700
  H      4.722240    9.836770   90.467800
  H      5.095020    8.337720   91.012800
  H      3.677390    8.359390   90.058900
  H      2.813760   15.091900   86.986900
  H      1.600970    6.799210   86.556700

 Total Charge           Charge          ....    0
 Multiplicity           Mult            ....    1
 Number of Electrons    NEL             ....  134
 Basis Dimension        Dim             ....  322

ORBITAL ENERGIES
----------------

  NO   OCC          E(Eh)            E(eV)
   0   2.0000     -88.966618     -2420.9048
   1   2.0000     -88.962218     -2420.7850
   2   2.0000     -10.327276      -281.0195
   3   2.0000     -10.325304      -280.9658
   4   2.0000     -10.321211      -280.8544
   5   2.0000     -10.307261      -280.4748
   6   2.0000     -10.302087      -280.3341
   7   2.0000     -10.298755      -280.2434
   8   2.0000     -10.295831      -280.1638
   9   2.0000     -10.292826      -280.0820
  10   2.0000     -10.289486      -279.9911
  11   2.0000     -10.287024      -279.9241
  12   2.0000     -10.283408      -279.8258
  13   2.0000     -10.282059      -279.7891
  14   2.0000     -10.281649      -279.7779
  15   2.0000     -10.270183      -279.4659
  16   2.0000      -8.080659      -219.8859
  17   2.0000      -8.079016      -219.8412
  18   2.0000      -6.039289      -164.3374
  19   2.0000      -6.037364      -164.2850
  20   2.0000      -6.035191      -164.2259
  21   2.0000      -6.032882      -164.1631
  22   2.0000      -6.031402      -164.1228
  23   2.0000      -6.030147      -164.0886
  24   2.0000      -1.016881       -27.6707
  25   2.0000      -0.987047       -26.8589
  26   2.0000      -0.906018       -24.6540
  27   2.0000      -0.903331       -24.5809
  28   2.0000      -0.874512       -23.7967
  29   2.0000      -0.847276       -23.0555
  30   2.0000      -0.839989       -22.8573
  31   2.0000      -0.818253       -22.2658
  32   2.0000      -0.781996       -21.2792
  33   2.0000      -0.770948       -20.9786
  34   2.0000      -0.716195       -19.4887
  35   2.0000      -0.707140       -19.2423
  36   2.0000      -0.690062       -18.7775
  37   2.0000      -0.666071       -18.1247
  38   2.0000      -0.646150       -17.5826
  39   2.0000      -0.614680       -16.7263
  40   2.0000      -0.597883       -16.2692
  41   2.0000      -0.575609       -15.6631
  42   2.0000      -0.560791       -15.2599
  43   2.0000      -0.547406       -14.8957
  44   2.0000      -0.539866       -14.6905
  45   2.0000      -0.525600       -14.3023
  46   2.0000      -0.520769       -14.1708
  47   2.0000      -0.515284       -14.0216
  48   2.0000      -0.505330       -13.7507
  49   2.0000      -0.497630       -13.5412
  50   2.0000      -0.489304       -13.3146
  51   2.0000      -0.478803       -13.0289
  52   2.0000      -0.469243       -12.7688
  53   2.0000      -0.464760       -12.6468
  54   2.0000      -0.459145       -12.4940
  55   2.0000      -0.446915       -12.1612
  56   2.0000      -0.444274       -12.0893
  57   2.0000      -0.438015       -11.9190
  58   2.0000      -0.433359       -11.7923
  59   2.0000      -0.424590       -11.5537
  60   2.0000      -0.421209       -11.4617
  61   2.0000      -0.418415       -11.3857
  62   2.0000      -0.403025       -10.9669
  63   2.0000      -0.345902        -9.4125
  64   2.0000      -0.332929        -9.0595
  65   2.0000      -0.324940        -8.8421
  66   2.0000      -0.296546        -8.0694
  67   0.0000       0.034818         0.9474
  68   0.0000       0.070347         1.9142
  69   0.0000       0.107987         2.9385
  70   0.0000       0.124818         3.3965
  71   0.0000       0.138969         3.7815

MULLIKEN ATOMIC CHARGES
-----------------------
   0 S :    0.113186
   1 C :   -0.116519
   2 C :   -0.087585
   3 C :    0.016751
   4 C :   -0.117173
   5 H :   -0.010121
   6 C :    0.094859
   7 H :   -0.004894
   8 H :    0.027104
   9 C :   -0.127798
  10 H :    0.029004
  11 H :    0.031947
  12 C :    0.008174
  13 H :    0.027203
  14 H :    0.027797
  15 H :    0.013452
  16 S :    0.104107
  17 C :   -0.096794
  18 C :   -0.012772
  19 C :   -0.024711
  20 C :   -0.168298
  21 H :    0.012141
  22 C :    0.028478
  23 H :    0.015645
  24 H :    0.043504
  25 C :    0.022873
  26 H :    0.013592
  27 H :    0.005761
  28 C :   -0.087456
  29 H :    0.031831
  30 H :    0.016903
  31 H :    0.059065
  32 H :    0.051277
  33 H :    0.059467
Sum of atomic charges:    0.0000000

LOEWDIN ATOMIC CHARGES
----------------------
   0 S :    0.465990
   1 C :   -0.214609
   2 C :   -0.063548
   3 C :   -0.065768
   4 C :   -0.222931
   5 H :    0.015390
   6 C :   -0.025488
   7 H :    0.021790
   8 H :    0.023800
   9 C :   -0.036044
  10 H :    0.023186
  11 H :    0.018909
  12 C :   -0.054483
  13 H :    0.021768
  14 H :    0.027769
  15 H :    0.016046
  16 S :    0.403705
  17 C :   -0.169855
  18 C :   -0.064730
  19 C :   -0.058311
  20 C :   -0.200189
  21 H :    0.028698
  22 C :   -0.035419
  23 H :    0.025633
  24 H :    0.035093
  25 C :   -0.020489
  26 H :    0.023349
  27 H :    0.007998
  28 C :   -0.079931
  29 H :    0.028821
  30 H :    0.020853
  31 H :    0.041318
  32 H :    0.031957
  33 H :    0.029721

  Mayer bond orders larger than 0.100000
B(  0-S ,  1-C ) :   1.1665 B(  0-S ,  4-C ) :   1.1998 B(  1-C ,  2-C ) :   1.5666
B(  1-C , 32-H ) :   0.9763 B(  2-C ,  3-C ) :   1.2706 B(  2-C ,  6-C ) :   1.0250
B(  3-C ,  4-C ) :   1.5173 B(  3-C ,  5-H ) :   1.0144 B(  4-C , 20-C ) :   1.0128
B(  6-C ,  7-H ) :   0.9403 B(  6-C ,  8-H ) :   0.9451 B(  6-C ,  9-C ) :   1.0465
B(  9-C , 10-H ) :   0.9607 B(  9-C , 11-H ) :   0.9643 B(  9-C , 12-C ) :   1.0816
B( 12-C , 13-H ) :   0.9764 B( 12-C , 14-H ) :   0.9735 B( 12-C , 15-H ) :   0.9750
B( 16-S , 17-C ) :   1.1376 B( 16-S , 20-C ) :   1.1551 B( 17-C , 18-C ) :   1.5996
B( 17-C , 33-H ) :   0.9716 B( 18-C , 19-C ) :   1.2581 B( 18-C , 21-H ) :   0.9879
B( 19-C , 20-C ) :   1.5839 B( 19-C , 22-C ) :   1.0249 B( 22-C , 23-H ) :   0.9420
B( 22-C , 24-H ) :   0.9291 B( 22-C , 25-C ) :   1.0762 B( 25-C , 26-H ) :   0.9468
B( 25-C , 27-H ) :   0.9524 B( 25-C , 28-C ) :   1.0719 B( 28-C , 29-H ) :   0.9743
B( 28-C , 30-H ) :   0.9729 B( 28-C , 31-H ) :   0.9741

Dispersion correction           -0.014016134
FINAL SINGLE POINT ENERGY     -1339.863242341363

DIPOLE MOMENT
-------------
                                X             Y             Z
Electronic contribution:     -6.24283      -6.27029       5.47285
Nuclear contribution   :      6.35211       6.22137      -5.51052
                        -----------------------------------------
Total Dipole Moment    :      0.10928      -0.04892      -0.03767
                        -----------------------------------------
Magnitude (a.u.)       :      0.12552
Magnitude (Debye)      :      0.31905

Rotational constants in cm-1:     0.025776     0.007053     0.006135
Rotational constants in MHz :   772.742108   211.454814   183.910003

                             ****ORCA TERMINATED NORMALLY****
TOTAL RUN TIME: 0 days 0 hours 0 minutes 34 seconds 472 msec
