                         Program Version 4.2.1 -  RELEASE  -
|  1> ! wB97X-D3 SP def2-SVP
|  2> %pal
|  3> nprocs 16
|  4> end
|  5>
|  6> * xyz 0 1
|  7> S 	 45.6394 	 19.7754 	 86.6469
|  8> C 	 43.9955 	 20.3905 	 86.7796
|  9> C 	 43.1405 	 19.5586 	 86.121
| 10> C 	 43.856 	 18.4174 	 85.5025
| 11> C 	 45.1935 	 18.4607 	 85.6666
| 12> H 	 43.3933 	 17.5931 	 84.9721
| 13> C 	 41.6754 	 19.7779 	 85.8851
| 14> H 	 41.129 	 19.9637 	 86.8205
| 15> H 	 41.3588 	 18.7028 	 85.5844
| 16> C 	 41.3446 	 20.7576 	 84.7327
| 17> H 	 41.5583 	 21.8053 	 84.967
| 18> H 	 42.0026 	 20.4226 	 83.93
| 19> C 	 39.897 	 20.7446 	 84.229
| 20> H 	 39.5962 	 19.7807 	 83.8512
| 21> H 	 39.2543 	 21.0389 	 84.9987
| 22> H 	 39.7427 	 21.4474 	 83.3977
| 23> S 	 47.7174 	 17.1242 	 86.1239
| 24> C 	 48.2716 	 15.9173 	 84.9344
| 25> C 	 47.1935 	 15.6562 	 84.1102
| 26> C 	 46.0905 	 16.4232 	 84.2537
| 27> C 	 46.1803 	 17.3989 	 85.2569
| 28> H 	 47.3939 	 14.8201 	 83.4543
| 29> C 	 44.9587 	 16.212 	 83.2399
| 30> H 	 45.3952 	 16.135 	 82.2783
| 31> H 	 44.3396 	 17.1471 	 83.0433
| 32> C 	 43.9913 	 14.9507 	 83.4001
| 33> H 	 43.5142 	 14.9147 	 84.3856
| 34> H 	 44.6245 	 14.05 	 83.4638
| 35> C 	 42.9644 	 14.7949 	 82.2916
| 36> H 	 42.3752 	 15.7175 	 82.268
| 37> H 	 42.4352 	 13.9138 	 82.4422
| 38> H 	 43.4736 	 14.6563 	 81.3657
| 39> H 	 43.7074 	 21.35 	 87.1883
| 40> H 	 49.2812 	 15.4877 	 84.8547
| 41> *
| 42>
| 43>                          ****END OF INPUT****

CARTESIAN COORDINATES (ANGSTROEM)
---------------------------------
  S     45.639400   19.775400   86.646900
  C     43.995500   20.390500   86.779600
  C     43.140500   19.558600   86.121000
  C     43.856000   18.417400   85.502500
  C     45.193500   18.460700   85.666600
  H     43.393300   17.593100   84.972100
  C     41.675400   19.777900   85.885100
  H     41.129000   19.963700   86.820500
  H     41.358800   18.702800   85.584400
  C     41.344600   20.757600   84.732700
  H     41.558300   21.805300   84.967000
  H     42.002600   20.422600   83.930000
  C     39.897000   20.744600   84.229000
  H     39.596200   19.780700   83.851200
  H     39.254300   21.038900   84.998700
  H     39.742700   21.447400   83.397700
  S     47.717400   17.124200   86.123900
  C     48.271600   15.917300   84.934400
  C     47.193500   15.656200   84.110200
  C     46.090500   16.423200   84.253700
  C     46.180300   17.398900   85.256900
  H     47.393900   14.820100   83.454300
  C     44.958700   16.212000   83.239900
  H     45.395200   16.135000   82.278300
  H     44.339600   17.147100   83.043300
  C     43.991300   14.950700   83.400100
  H     43.514200   14.914700   84.385600
  H     44.624500   14.050000   83.463800
  C     42.964400   14.794900   82.291600
  H     42.375200   15.717500   82.268000
  H     42.435200   13.913800   82.442200
  H     43.473600   14.656300   81.365700
  H     43.707400   21.350000   87.188300
  H     49.281200   15.487700   84.854700

 Total Charge           Charge          ....    0
 Multiplicity           Mult            ....    1
 Number of Electrons    NEL             ....  134
 Basis Dimension        Dim             ....  322

ORBITAL ENERGIES
----------------

  NO   OCC          E(Eh)            E(eV)
   0   2.0000     -88.967361     -2420.9250
   1   2.0000     -88.963672     -2420.8246
   2   2.0000     -10.339044      -281.3397
   3   2.0000     -10.330160      -281.0979
   4   2.0000     -10.322087      -280.8783
   5   2.0000     -10.313713      -280.6504
   6   2.0000     -10.303072      -280.3608
   7   2.0000     -10.302306      -280.3400
   8   2.0000     -10.299916      -280.2750
   9   2.0000     -10.297825      -280.2181
  10   2.0000     -10.292739      -280.0797
  11   2.0000     -10.291996      -280.0595
  12   2.0000     -10.289657      -279.9958
  13   2.0000     -10.287848      -279.9466
  14   2.0000     -10.274755      -279.5903
  15   2.0000     -10.274034      -279.5707
  16   2.0000      -8.080849      -219.8911
  17   2.0000      -8.079310      -219.8492
  18   2.0000      -6.039431      -164.3413
  19   2.0000      -6.037933      -164.3005
  20   2.0000      -6.035443      -164.2328
  21   2.0000      -6.033665      -164.1844
  22   2.0000      -6.031676      -164.1303
  23   2.0000      -6.029898      -164.0819
  24   2.0000      -1.009189       -27.4614
  25   2.0000      -0.988588       -26.9008
  26   2.0000      -0.911420       -24.8010
  27   2.0000      -0.903145       -24.5758
  28   2.0000      -0.869408       -23.6578
  29   2.0000      -0.857422       -23.3316
  30   2.0000      -0.846166       -23.0253
  31   2.0000      -0.817920       -22.2567
  32   2.0000      -0.782215       -21.2852
  33   2.0000      -0.775368       -21.0988
  34   2.0000      -0.705693       -19.2029
  35   2.0000      -0.703388       -19.1402
  36   2.0000      -0.697280       -18.9739
  37   2.0000      -0.660543       -17.9743
  38   2.0000      -0.639586       -17.4040
  39   2.0000      -0.620891       -16.8953
  40   2.0000      -0.598253       -16.2793
  41   2.0000      -0.570063       -15.5122
  42   2.0000      -0.566181       -15.4066
  43   2.0000      -0.557520       -15.1709
  44   2.0000      -0.535267       -14.5654
  45   2.0000      -0.525752       -14.3064
  46   2.0000      -0.520497       -14.1635
  47   2.0000      -0.516986       -14.0679
  48   2.0000      -0.507268       -13.8035
  49   2.0000      -0.502395       -13.6709
  50   2.0000      -0.494902       -13.4670
  51   2.0000      -0.481888       -13.1128
  52   2.0000      -0.470263       -12.7965
  53   2.0000      -0.465672       -12.6716
  54   2.0000      -0.457525       -12.4499
  55   2.0000      -0.450781       -12.2664
  56   2.0000      -0.443910       -12.0794
  57   2.0000      -0.437248       -11.8981
  58   2.0000      -0.432111       -11.7583
  59   2.0000      -0.425477       -11.5778
  60   2.0000      -0.421744       -11.4762
  61   2.0000      -0.414903       -11.2901
  62   2.0000      -0.408041       -11.1034
  63   2.0000      -0.359331        -9.7779
  64   2.0000      -0.335634        -9.1331
  65   2.0000      -0.327119        -8.9013
  66   2.0000      -0.289947        -7.8899
  67   0.0000       0.020329         0.5532
  68   0.0000       0.085595         2.3292
  69   0.0000       0.104464         2.8426
  70   0.0000       0.124035         3.3752
  71   0.0000       0.126785         3.4500

MULLIKEN ATOMIC CHARGES
-----------------------
   0 S :    0.095685
   1 C :   -0.110783
   2 C :   -0.084089
   3 C :   -0.019845
   4 C :   -0.095942
   5 H :    0.010758
   6 C :    0.027063
   7 H :    0.036388
   8 H :    0.026929
   9 C :   -0.063162
  10 H :    0.032199
  11 H :    0.028952
  12 C :   -0.022081
  13 H :    0.021822
  14 H :    0.019987
  15 H :    0.034274
  16 S :    0.092700
  17 C :   -0.123337
  18 C :   -0.037760
  19 C :    0.016244
  20 C :   -0.118288
  21 H :    0.019184
  22 C :    0.009288
  23 H :    0.010449
  24 H :    0.027283
  25 C :   -0.092727
  26 H :    0.028094
  27 H :    0.018235
  28 C :    0.011074
  29 H :    0.035025
  30 H :    0.026259
  31 H :    0.019108
  32 H :    0.047487
  33 H :    0.073530
Sum of atomic charges:    0.0000000

LOEWDIN ATOMIC CHARGES
----------------------
   0 S :    0.414190
   1 C :   -0.189515
   2 C :   -0.062461
   3 C :   -0.072302
   4 C :   -0.198180
   5 H :    0.029887
   6 C :   -0.040567
   7 H :    0.029393
   8 H :    0.038359
   9 C :   -0.038399
  10 H :    0.025001
  11 H :    0.026546
  12 C :   -0.059736
  13 H :    0.020720
  14 H :    0.016794
  15 H :    0.030569
  16 S :    0.380777
  17 C :   -0.179785
  18 C :   -0.074238
  19 C :   -0.068819
  20 C :   -0.174287
  21 H :    0.034485
  22 C :   -0.036989
  23 H :    0.024056
  24 H :    0.032306
  25 C :   -0.041928
  26 H :    0.021040
  27 H :    0.021916
  28 C :   -0.053475
  29 H :    0.028594
  30 H :    0.022186
  31 H :    0.022571
  32 H :    0.031518
  33 H :    0.039773

  Mayer bond orders larger than 0.100000
B(  0-S ,  1-C ) :   1.1205 B(  0-S ,  4-C ) :   1.1496 B(  1-C ,  2-C ) :   1.6375
B(  1-C , 32-H ) :   0.9734 B(  2-C ,  3-C ) :   1.2123 B(  2-C ,  6-C ) :   1.0267
B(  3-C ,  4-C ) :   1.5960 B(  3-C ,  5-H ) :   0.9887 B(  4-C , 20-C ) :   1.0378
B(  6-C ,  7-H ) :   0.9393 B(  6-C ,  8-H ) :   0.9433 B(  6-C ,  9-C ) :   1.0526
B(  9-C , 10-H ) :   0.9565 B(  9-C , 11-H ) :   0.9549 B(  9-C , 12-C ) :   1.0904
B( 12-C , 13-H ) :   0.9750 B( 12-C , 14-H ) :   0.9740 B( 12-C , 15-H ) :   0.9736
B( 16-S , 17-C ) :   1.1503 B( 16-S , 20-C ) :   1.1486 B( 17-C , 18-C ) :   1.5726
B( 17-C , 20-C ) :   0.1190 B( 17-C , 33-H ) :   0.9672 B( 18-C , 19-C ) :   1.2908
B( 18-C , 21-H ) :   0.9942 B( 19-C , 20-C ) :   1.5519 B( 19-C , 22-C ) :   1.0244
B( 22-C , 23-H ) :   0.9372 B( 22-C , 24-H ) :   0.9422 B( 22-C , 25-C ) :   1.0453
B( 25-C , 26-H ) :   0.9565 B( 25-C , 27-H ) :   0.9525 B( 25-C , 28-C ) :   1.0846
B( 28-C , 29-H ) :   0.9753 B( 28-C , 30-H ) :   0.9702 B( 28-C , 31-H ) :   0.9727

Dispersion correction           -0.013639436
FINAL SINGLE POINT ENERGY     -1339.870740341940

DIPOLE MOMENT
-------------
                                X             Y             Z
Electronic contribution:     28.55293       4.04977      17.18946
Nuclear contribution   :    -29.08594      -4.31300     -17.71291
                        -----------------------------------------
Total Dipole Moment    :     -0.53301      -0.26322      -0.52345
                        -----------------------------------------
Magnitude (a.u.)       :      0.79207
Magnitude (Debye)      :      2.01329

Rotational constants in cm-1:     0.016913     0.008989     0.006073
Rotational constants in MHz :   507.038807   269.489118   182.049104

                             ****ORCA TERMINATED NORMALLY****
TOTAL RUN TIME: 0 days 0 hours 0 minutes 29 seconds 374 msec
