                         Program Version 4.2.1 -  RELEASE  -
|  1> ! wB97X-D3 SP def2-SVP
|  2> %pal
|  3> nprocs 16
|  4> end
|  5>
|  6> * xyz 0 1
|  7> S 	 46.6489 	 17.719 	 76.7355
|  8> C 	 46.1989 	 17.997 	 78.4109
|  9> C 	 46.7769 	 16.9782 	 79.2047
| 10> C 	 47.685 	 16.104 	 78.5068
| 11> C 	 47.6672 	 16.3747 	 77.1614
| 12> H 	 48.2685 	 15.2122 	 78.8381
| 13> C 	 46.5168 	 16.8197 	 80.7142
| 14> H 	 46.7915 	 15.7698 	 81.0235
| 15> H 	 45.3961 	 16.8798 	 80.849
| 16> C 	 47.1063 	 18.0211 	 81.5246
| 17> H 	 46.9474 	 19.0204 	 81.0655
| 18> H 	 46.4688 	 18.0756 	 82.3768
| 19> C 	 48.5271 	 17.7345 	 82.073
| 20> H 	 49.401 	 17.5195 	 81.3842
| 21> H 	 48.696 	 18.6475 	 82.699
| 22> H 	 48.4428 	 16.7932 	 82.5956
| 23> S 	 47.79 	 15.52 	 74.5314
| 24> C 	 49.2922 	 14.9424 	 73.8344
| 25> C 	 50.326 	 15.0455 	 74.7872
| 26> C 	 49.9381 	 15.4689 	 76.0564
| 27> C 	 48.5262 	 15.6939 	 76.1444
| 28> H 	 51.3474 	 14.7258 	 74.5918
| 29> C 	 50.9849 	 15.9931 	 76.9251
| 30> H 	 50.6581 	 16.4555 	 77.8715
| 31> H 	 51.7063 	 16.656 	 76.4449
| 32> C 	 51.8821 	 14.8259 	 77.5312
| 33> H 	 52.7008 	 15.1787 	 77.9725
| 34> H 	 52.2204 	 14.2767 	 76.65
| 35> C 	 51.1396 	 13.9403 	 78.5543
| 36> H 	 51.9767 	 13.3424 	 79.0024
| 37> H 	 50.294 	 13.3757 	 78.1011
| 38> H 	 50.6382 	 14.5293 	 79.3516
| 39> H 	 45.4994 	 18.7735 	 78.7152
| 40> H 	 49.478 	 14.4234 	 72.8756
| 41> *
| 42>
| 43>                          ****END OF INPUT****

CARTESIAN COORDINATES (ANGSTROEM)
---------------------------------
  S     46.648900   17.719000   76.735500
  C     46.198900   17.997000   78.410900
  C     46.776900   16.978200   79.204700
  C     47.685000   16.104000   78.506800
  C     47.667200   16.374700   77.161400
  H     48.268500   15.212200   78.838100
  C     46.516800   16.819700   80.714200
  H     46.791500   15.769800   81.023500
  H     45.396100   16.879800   80.849000
  C     47.106300   18.021100   81.524600
  H     46.947400   19.020400   81.065500
  H     46.468800   18.075600   82.376800
  C     48.527100   17.734500   82.073000
  H     49.401000   17.519500   81.384200
  H     48.696000   18.647500   82.699000
  H     48.442800   16.793200   82.595600
  S     47.790000   15.520000   74.531400
  C     49.292200   14.942400   73.834400
  C     50.326000   15.045500   74.787200
  C     49.938100   15.468900   76.056400
  C     48.526200   15.693900   76.144400
  H     51.347400   14.725800   74.591800
  C     50.984900   15.993100   76.925100
  H     50.658100   16.455500   77.871500
  H     51.706300   16.656000   76.444900
  C     51.882100   14.825900   77.531200
  H     52.700800   15.178700   77.972500
  H     52.220400   14.276700   76.650000
  C     51.139600   13.940300   78.554300
  H     51.976700   13.342400   79.002400
  H     50.294000   13.375700   78.101100
  H     50.638200   14.529300   79.351600
  H     45.499400   18.773500   78.715200
  H     49.478000   14.423400   72.875600

 Total Charge           Charge          ....    0
 Multiplicity           Mult            ....    1
 Number of Electrons    NEL             ....  134
 Basis Dimension        Dim             ....  322

ORBITAL ENERGIES
----------------

  NO   OCC          E(Eh)            E(eV)
   0   2.0000     -88.970800     -2421.0185
   1   2.0000     -88.967040     -2420.9162
   2   2.0000     -10.337151      -281.2882
   3   2.0000     -10.329757      -281.0870
   4   2.0000     -10.324422      -280.9418
   5   2.0000     -10.316565      -280.7280
   6   2.0000     -10.307542      -280.4825
   7   2.0000     -10.303437      -280.3708
   8   2.0000     -10.300619      -280.2941
   9   2.0000     -10.296373      -280.1786
  10   2.0000     -10.293615      -280.1035
  11   2.0000     -10.290363      -280.0150
  12   2.0000     -10.289537      -279.9925
  13   2.0000     -10.285901      -279.8936
  14   2.0000     -10.285316      -279.8777
  15   2.0000     -10.278274      -279.6861
  16   2.0000      -8.084530      -219.9913
  17   2.0000      -8.081588      -219.9112
  18   2.0000      -6.043119      -164.4416
  19   2.0000      -6.040097      -164.3594
  20   2.0000      -6.039048      -164.3309
  21   2.0000      -6.036086      -164.2503
  22   2.0000      -6.035402      -164.2316
  23   2.0000      -6.032387      -164.1496
  24   2.0000      -1.002735       -27.2858
  25   2.0000      -0.981009       -26.6946
  26   2.0000      -0.911660       -24.8075
  27   2.0000      -0.903320       -24.5806
  28   2.0000      -0.861613       -23.4457
  29   2.0000      -0.852164       -23.1886
  30   2.0000      -0.844744       -22.9867
  31   2.0000      -0.810142       -22.0451
  32   2.0000      -0.777344       -21.1526
  33   2.0000      -0.765168       -20.8213
  34   2.0000      -0.705148       -19.1881
  35   2.0000      -0.702855       -19.1257
  36   2.0000      -0.690035       -18.7768
  37   2.0000      -0.658195       -17.9104
  38   2.0000      -0.642200       -17.4751
  39   2.0000      -0.610957       -16.6250
  40   2.0000      -0.597107       -16.2481
  41   2.0000      -0.566348       -15.4111
  42   2.0000      -0.553015       -15.0483
  43   2.0000      -0.542573       -14.7642
  44   2.0000      -0.541921       -14.7464
  45   2.0000      -0.527622       -14.3573
  46   2.0000      -0.519984       -14.1495
  47   2.0000      -0.514208       -13.9923
  48   2.0000      -0.504891       -13.7388
  49   2.0000      -0.496984       -13.5236
  50   2.0000      -0.487798       -13.2737
  51   2.0000      -0.478750       -13.0275
  52   2.0000      -0.471885       -12.8407
  53   2.0000      -0.466104       -12.6833
  54   2.0000      -0.459427       -12.5017
  55   2.0000      -0.448338       -12.1999
  56   2.0000      -0.444431       -12.0936
  57   2.0000      -0.436078       -11.8663
  58   2.0000      -0.427793       -11.6408
  59   2.0000      -0.422485       -11.4964
  60   2.0000      -0.418384       -11.3848
  61   2.0000      -0.411196       -11.1892
  62   2.0000      -0.405769       -11.0415
  63   2.0000      -0.347556        -9.4575
  64   2.0000      -0.330918        -9.0047
  65   2.0000      -0.327753        -8.9186
  66   2.0000      -0.284274        -7.7355
  67   0.0000       0.023114         0.6290
  68   0.0000       0.064564         1.7569
  69   0.0000       0.102690         2.7943
  70   0.0000       0.113940         3.1005
  71   0.0000       0.124198         3.3796

MULLIKEN ATOMIC CHARGES
-----------------------
   0 S :    0.112929
   1 C :   -0.134539
   2 C :   -0.076174
   3 C :   -0.000141
   4 C :   -0.116957
   5 H :    0.026111
   6 C :    0.009288
   7 H :    0.037037
   8 H :    0.038414
   9 C :   -0.055702
  10 H :    0.037855
  11 H :    0.016666
  12 C :   -0.066866
  13 H :    0.045552
  14 H :    0.050436
  15 H :    0.025171
  16 S :    0.101439
  17 C :   -0.096801
  18 C :   -0.058903
  19 C :    0.012998
  20 C :   -0.162886
  21 H :    0.024403
  22 C :    0.015162
  23 H :    0.025137
  24 H :    0.046368
  25 C :   -0.043150
  26 H :   -0.005748
  27 H :    0.014143
  28 C :   -0.089768
  29 H :    0.050321
  30 H :    0.054772
  31 H :    0.032483
  32 H :    0.057601
  33 H :    0.073352
Sum of atomic charges:   -0.0000000

LOEWDIN ATOMIC CHARGES
----------------------
   0 S :    0.409240
   1 C :   -0.209055
   2 C :   -0.055169
   3 C :   -0.081326
   4 C :   -0.194730
   5 H :    0.042107
   6 C :   -0.040344
   7 H :    0.034042
   8 H :    0.036075
   9 C :   -0.040639
  10 H :    0.028478
  11 H :    0.019993
  12 C :   -0.072800
  13 H :    0.029888
  14 H :    0.034830
  15 H :    0.022247
  16 S :    0.402837
  17 C :   -0.194956
  18 C :   -0.067356
  19 C :   -0.065521
  20 C :   -0.182686
  21 H :    0.029900
  22 C :   -0.029905
  23 H :    0.029085
  24 H :    0.036102
  25 C :   -0.027092
  26 H :    0.001669
  27 H :    0.018550
  28 C :   -0.073646
  29 H :    0.036550
  30 H :    0.029824
  31 H :    0.022250
  32 H :    0.030478
  33 H :    0.041080

  Mayer bond orders larger than 0.100000
B(  0-S ,  1-C ) :   1.1294 B(  0-S ,  4-C ) :   1.1668 B(  1-C ,  2-C ) :   1.5904
B(  1-C , 32-H ) :   0.9737 B(  2-C ,  3-C ) :   1.2343 B(  2-C ,  6-C ) :   1.0185
B(  3-C ,  4-C ) :   1.5767 B(  3-C ,  5-H ) :   0.9881 B(  4-C , 20-C ) :   1.0302
B(  6-C ,  7-H ) :   0.9521 B(  6-C ,  8-H ) :   0.9456 B(  6-C ,  9-C ) :   1.0577
B(  9-C , 10-H ) :   0.9592 B(  9-C , 11-H ) :   0.9537 B(  9-C , 12-C ) :   1.0625
B( 12-C , 13-H ) :   0.9789 B( 12-C , 14-H ) :   0.9754 B( 12-C , 15-H ) :   0.9756
B( 16-S , 17-C ) :   1.1608 B( 16-S , 20-C ) :   1.1504 B( 17-C , 18-C ) :   1.5769
B( 17-C , 20-C ) :   0.1100 B( 17-C , 33-H ) :   0.9629 B( 18-C , 19-C ) :   1.2877
B( 18-C , 21-H ) :   0.9780 B( 19-C , 20-C ) :   1.5134 B( 19-C , 22-C ) :   1.0559
B( 22-C , 23-H ) :   0.9401 B( 22-C , 24-H ) :   0.9469 B( 22-C , 25-C ) :   1.0603
B( 25-C , 26-H ) :   0.9560 B( 25-C , 27-H ) :   0.9561 B( 25-C , 28-C ) :   1.0697
B( 28-C , 29-H ) :   0.9732 B( 28-C , 30-H ) :   0.9737 B( 28-C , 31-H ) :   0.9699

Dispersion correction           -0.014666234
FINAL SINGLE POINT ENERGY     -1339.849867983436

DIPOLE MOMENT
-------------
                                X             Y             Z
Electronic contribution:    -14.44011       2.80192     -26.34659
Nuclear contribution   :     14.83910      -2.83014      26.81932
                        -----------------------------------------
Total Dipole Moment    :      0.39899      -0.02823       0.47273
                        -----------------------------------------
Magnitude (a.u.)       :      0.61924
Magnitude (Debye)      :      1.57400

Rotational constants in cm-1:     0.018940     0.009410     0.006747
Rotational constants in MHz :   567.807805   282.100867   202.270617

                             ****ORCA TERMINATED NORMALLY****
TOTAL RUN TIME: 0 days 0 hours 0 minutes 29 seconds 893 msec
