                         Program Version 4.2.1 -  RELEASE  -
|  1> ! wB97X-D3 SP def2-SVP
|  2> %pal
|  3> nprocs 16
|  4> end
|  5>
|  6> * xyz 0 1
|  7> S 	 -1.49439 	 -25.9666 	 59.5899
|  8> C 	 -2.74731 	 -24.7975 	 59.806
|  9> C 	 -2.36719 	 -23.7012 	 60.488
| 10> C 	 -1.0344 	 -23.8011 	 60.9607
| 11> C 	 -0.356527 	 -24.9194 	 60.4319
| 12> H 	 -0.614855 	 -23.0292 	 61.5988
| 13> C 	 -3.2356 	 -22.4988 	 60.6928
| 14> H 	 -4.11522 	 -22.7133 	 60.0893
| 15> H 	 -2.58176 	 -21.7288 	 60.227
| 16> C 	 -3.6239 	 -22.0401 	 62.1483
| 17> H 	 -4.12704 	 -21.1235 	 61.9873
| 18> H 	 -4.35336 	 -22.7855 	 62.4865
| 19> C 	 -2.47674 	 -21.9006 	 63.1506
| 20> H 	 -1.85189 	 -22.7124 	 63.3457
| 21> H 	 -1.91987 	 -20.9496 	 62.9391
| 22> H 	 -2.84989 	 -21.7204 	 64.0933
| 23> S 	 0.895954 	 -27.0978 	 61.2457
| 24> C 	 2.59931 	 -27.0034 	 61.7752
| 25> C 	 3.11806 	 -25.7334 	 61.6179
| 26> C 	 2.12541 	 -24.7953 	 61.36
| 27> C 	 0.917372 	 -25.4003 	 60.9646
| 28> H 	 4.19493 	 -25.6087 	 61.7058
| 29> C 	 2.56533 	 -23.3047 	 61.1727
| 30> H 	 1.73784 	 -22.8454 	 60.7248
| 31> H 	 3.38034 	 -23.1622 	 60.5072
| 32> C 	 3.04168 	 -22.6832 	 62.5697
| 33> H 	 3.33104 	 -21.6258 	 62.4419
| 34> H 	 3.94628 	 -23.2198 	 62.8487
| 35> C 	 1.88179 	 -22.8135 	 63.5448
| 36> H 	 2.02401 	 -23.7599 	 64.1014
| 37> H 	 0.883876 	 -22.7668 	 62.9659
| 38> H 	 1.81982 	 -22.0201 	 64.3395
| 39> H 	 -3.77569 	 -24.9349 	 59.4858
| 40> H 	 3.20389 	 -27.9318 	 61.8171
| 41> *
| 42>
| 43>                          ****END OF INPUT****

CARTESIAN COORDINATES (ANGSTROEM)
---------------------------------
  S     -1.494390  -25.966600   59.589900
  C     -2.747310  -24.797500   59.806000
  C     -2.367190  -23.701200   60.488000
  C     -1.034400  -23.801100   60.960700
  C     -0.356527  -24.919400   60.431900
  H     -0.614855  -23.029200   61.598800
  C     -3.235600  -22.498800   60.692800
  H     -4.115220  -22.713300   60.089300
  H     -2.581760  -21.728800   60.227000
  C     -3.623900  -22.040100   62.148300
  H     -4.127040  -21.123500   61.987300
  H     -4.353360  -22.785500   62.486500
  C     -2.476740  -21.900600   63.150600
  H     -1.851890  -22.712400   63.345700
  H     -1.919870  -20.949600   62.939100
  H     -2.849890  -21.720400   64.093300
  S      0.895954  -27.097800   61.245700
  C      2.599310  -27.003400   61.775200
  C      3.118060  -25.733400   61.617900
  C      2.125410  -24.795300   61.360000
  C      0.917372  -25.400300   60.964600
  H      4.194930  -25.608700   61.705800
  C      2.565330  -23.304700   61.172700
  H      1.737840  -22.845400   60.724800
  H      3.380340  -23.162200   60.507200
  C      3.041680  -22.683200   62.569700
  H      3.331040  -21.625800   62.441900
  H      3.946280  -23.219800   62.848700
  C      1.881790  -22.813500   63.544800
  H      2.024010  -23.759900   64.101400
  H      0.883876  -22.766800   62.965900
  H      1.819820  -22.020100   64.339500
  H     -3.775690  -24.934900   59.485800
  H      3.203890  -27.931800   61.817100

 Total Charge           Charge          ....    0
 Multiplicity           Mult            ....    1
 Number of Electrons    NEL             ....  134
 Basis Dimension        Dim             ....  322

ORBITAL ENERGIES
----------------

  NO   OCC          E(Eh)            E(eV)
   0   2.0000     -88.969267     -2420.9768
   1   2.0000     -88.963091     -2420.8088
   2   2.0000     -10.332110      -281.1510
   3   2.0000     -10.328082      -281.0414
   4   2.0000     -10.313075      -280.6330
   5   2.0000     -10.307464      -280.4804
   6   2.0000     -10.301576      -280.3201
   7   2.0000     -10.294102      -280.1167
   8   2.0000     -10.293518      -280.1009
   9   2.0000     -10.291780      -280.0536
  10   2.0000     -10.291535      -280.0469
  11   2.0000     -10.291181      -280.0373
  12   2.0000     -10.290122      -280.0085
  13   2.0000     -10.288036      -279.9517
  14   2.0000     -10.284827      -279.8644
  15   2.0000     -10.274376      -279.5800
  16   2.0000      -8.084102      -219.9796
  17   2.0000      -8.078090      -219.8160
  18   2.0000      -6.042718      -164.4307
  19   2.0000      -6.038621      -164.3192
  20   2.0000      -6.036501      -164.2615
  21   2.0000      -6.034723      -164.2132
  22   2.0000      -6.032651      -164.1568
  23   2.0000      -6.028832      -164.0529
  24   2.0000      -1.010205       -27.4891
  25   2.0000      -0.986107       -26.8333
  26   2.0000      -0.912961       -24.8429
  27   2.0000      -0.901602       -24.5338
  28   2.0000      -0.872816       -23.7505
  29   2.0000      -0.850787       -23.1511
  30   2.0000      -0.843069       -22.9411
  31   2.0000      -0.813954       -22.1488
  32   2.0000      -0.784927       -21.3589
  33   2.0000      -0.769486       -20.9388
  34   2.0000      -0.711332       -19.3563
  35   2.0000      -0.703848       -19.1527
  36   2.0000      -0.692255       -18.8372
  37   2.0000      -0.660394       -17.9702
  38   2.0000      -0.634720       -17.2716
  39   2.0000      -0.617957       -16.8155
  40   2.0000      -0.589043       -16.0287
  41   2.0000      -0.574850       -15.6425
  42   2.0000      -0.552857       -15.0440
  43   2.0000      -0.548063       -14.9136
  44   2.0000      -0.541693       -14.7402
  45   2.0000      -0.536528       -14.5997
  46   2.0000      -0.521659       -14.1951
  47   2.0000      -0.510052       -13.8792
  48   2.0000      -0.502587       -13.6761
  49   2.0000      -0.496033       -13.4977
  50   2.0000      -0.490293       -13.3416
  51   2.0000      -0.480379       -13.0718
  52   2.0000      -0.471830       -12.8392
  53   2.0000      -0.461763       -12.5652
  54   2.0000      -0.455892       -12.4055
  55   2.0000      -0.451108       -12.2753
  56   2.0000      -0.442965       -12.0537
  57   2.0000      -0.436022       -11.8648
  58   2.0000      -0.433384       -11.7930
  59   2.0000      -0.427274       -11.6267
  60   2.0000      -0.420416       -11.4401
  61   2.0000      -0.419396       -11.4124
  62   2.0000      -0.409591       -11.1455
  63   2.0000      -0.353373        -9.6158
  64   2.0000      -0.334014        -9.0890
  65   2.0000      -0.326967        -8.8972
  66   2.0000      -0.280940        -7.6448
  67   0.0000       0.021894         0.5958
  68   0.0000       0.075498         2.0544
  69   0.0000       0.107332         2.9207
  70   0.0000       0.115879         3.1532
  71   0.0000       0.128822         3.5054

MULLIKEN ATOMIC CHARGES
-----------------------
   0 S :    0.105934
   1 C :   -0.131915
   2 C :   -0.088537
   3 C :    0.007869
   4 C :   -0.099208
   5 H :    0.002576
   6 C :    0.044228
   7 H :    0.016939
   8 H :    0.040629
   9 C :   -0.036644
  10 H :    0.028483
  11 H :    0.031328
  12 C :   -0.027067
  13 H :    0.039094
  14 H :    0.032428
  15 H :    0.007595
  16 S :    0.089065
  17 C :   -0.116487
  18 C :   -0.036809
  19 C :   -0.051318
  20 C :   -0.139612
  21 H :    0.032157
  22 C :    0.072883
  23 H :    0.004354
  24 H :    0.025722
  25 C :   -0.079892
  26 H :    0.035228
  27 H :    0.030988
  28 C :   -0.074089
  29 H :    0.053050
  30 H :    0.036432
  31 H :    0.036294
  32 H :    0.041584
  33 H :    0.066716
Sum of atomic charges:    0.0000000

LOEWDIN ATOMIC CHARGES
----------------------
   0 S :    0.406784
   1 C :   -0.204019
   2 C :   -0.072502
   3 C :   -0.056240
   4 C :   -0.193556
   5 H :    0.023915
   6 C :   -0.032617
   7 H :    0.029665
   8 H :    0.037658
   9 C :   -0.028021
  10 H :    0.023417
  11 H :    0.026543
  12 C :   -0.065502
  13 H :    0.021668
  14 H :    0.034287
  15 H :    0.021364
  16 S :    0.401699
  17 C :   -0.191969
  18 C :   -0.063314
  19 C :   -0.066797
  20 C :   -0.190384
  21 H :    0.037019
  22 C :   -0.016785
  23 H :    0.015730
  24 H :    0.024593
  25 C :   -0.040320
  26 H :    0.024253
  27 H :    0.020916
  28 C :   -0.078026
  29 H :    0.034731
  30 H :    0.031483
  31 H :    0.026124
  32 H :    0.028428
  33 H :    0.029774

  Mayer bond orders larger than 0.100000
B(  0-S ,  1-C ) :   1.1300 B(  0-S ,  4-C ) :   1.1498 B(  1-C ,  2-C ) :   1.6241
B(  1-C , 32-H ) :   0.9553 B(  2-C ,  3-C ) :   1.2723 B(  2-C ,  6-C ) :   1.0088
B(  3-C ,  4-C ) :   1.5227 B(  3-C ,  5-H ) :   0.9765 B(  4-C , 20-C ) :   1.0584
B(  6-C ,  7-H ) :   0.9407 B(  6-C ,  8-H ) :   0.9348 B(  6-C ,  9-C ) :   1.0650
B(  9-C , 10-H ) :   0.9541 B(  9-C , 11-H ) :   0.9551 B(  9-C , 12-C ) :   1.0938
B( 12-C , 13-H ) :   0.9653 B( 12-C , 14-H ) :   0.9699 B( 12-C , 15-H ) :   0.9616
B( 16-S , 17-C ) :   1.1350 B( 16-S , 20-C ) :   1.1683 B( 17-C , 18-C ) :   1.6198
B( 17-C , 20-C ) :   0.1044 B( 17-C , 33-H ) :   0.9597 B( 18-C , 19-C ) :   1.2427
B( 18-C , 21-H ) :   0.9866 B( 19-C , 20-C ) :   1.5652 B( 19-C , 22-C ) :   1.0300
B( 22-C , 23-H ) :   0.9422 B( 22-C , 24-H ) :   0.9506 B( 22-C , 25-C ) :   1.0605
B( 25-C , 26-H ) :   0.9607 B( 25-C , 27-H ) :   0.9613 B( 25-C , 28-C ) :   1.0612
B( 28-C , 29-H ) :   0.9671 B( 28-C , 30-H ) :   0.9777 B( 28-C , 31-H ) :   0.9723

Dispersion correction           -0.015531256
FINAL SINGLE POINT ENERGY     -1339.855000188018

DIPOLE MOMENT
-------------
                                X             Y             Z
Electronic contribution:      0.42499     -25.06297     -14.06346
Nuclear contribution   :     -0.47355      25.68030      14.29984
                        -----------------------------------------
Total Dipole Moment    :     -0.04856       0.61733       0.23638
                        -----------------------------------------
Magnitude (a.u.)       :      0.66282
Magnitude (Debye)      :      1.68477

Rotational constants in cm-1:     0.017873     0.010648     0.007399
Rotational constants in MHz :   535.827917   319.233546   221.831374

                             ****ORCA TERMINATED NORMALLY****
TOTAL RUN TIME: 0 days 0 hours 0 minutes 37 seconds 458 msec
