                         Program Version 4.2.1 -  RELEASE  -
|  1> ! wB97X-D3 SP def2-SVP
|  2> %pal
|  3> nprocs 16
|  4> end
|  5>
|  6> * xyz 0 1
|  7> S 	 6.41186 	 23.7947 	 70.263
|  8> C 	 6.38366 	 22.4799 	 69.1052
|  9> C 	 5.40567 	 22.7297 	 68.1565
| 10> C 	 4.64545 	 23.9894 	 68.4476
| 11> C 	 4.92632 	 24.5709 	 69.6176
| 12> H 	 3.90516 	 24.2649 	 67.8107
| 13> C 	 5.11164 	 21.9624 	 66.8607
| 14> H 	 4.11743 	 22.3831 	 66.5336
| 15> H 	 5.00265 	 20.8595 	 67.0373
| 16> C 	 6.2316 	 22.2154 	 65.8401
| 17> H 	 5.97674 	 21.5862 	 64.9664
| 18> H 	 6.1023 	 23.2451 	 65.4797
| 19> C 	 7.6202 	 21.7779 	 66.2395
| 20> H 	 8.21643 	 21.9916 	 65.4082
| 21> H 	 7.98913 	 22.3171 	 67.0811
| 22> H 	 7.75224 	 20.6905 	 66.4195
| 23> S 	 4.19367 	 26.0349 	 71.8227
| 24> C 	 4.04679 	 27.7826 	 71.7348
| 25> C 	 4.21749 	 28.1486 	 70.4615
| 26> C 	 4.49808 	 27.1263 	 69.5135
| 27> C 	 4.48074 	 25.8549 	 70.0694
| 28> H 	 4.02527 	 29.178 	 70.2051
| 29> C 	 4.98808 	 27.4362 	 68.0931
| 30> H 	 4.60172 	 28.4546 	 67.8644
| 31> H 	 4.41338 	 26.7991 	 67.4721
| 32> C 	 6.51736 	 27.3013 	 67.8155
| 33> H 	 6.64064 	 27.6043 	 66.7748
| 34> H 	 6.69851 	 26.1793 	 67.7235
| 35> C 	 7.54062 	 28.0132 	 68.7909
| 36> H 	 7.32942 	 28.9994 	 69.0977
| 37> H 	 8.54133 	 28.045 	 68.3572
| 38> H 	 7.80694 	 27.4575 	 69.646
| 39> H 	 7.03515 	 21.6029 	 69.0503
| 40> H 	 3.60677 	 28.3476 	 72.5193
| 41> *
| 42>
| 43>                          ****END OF INPUT****

CARTESIAN COORDINATES (ANGSTROEM)
---------------------------------
  S      6.411860   23.794700   70.263000
  C      6.383660   22.479900   69.105200
  C      5.405670   22.729700   68.156500
  C      4.645450   23.989400   68.447600
  C      4.926320   24.570900   69.617600
  H      3.905160   24.264900   67.810700
  C      5.111640   21.962400   66.860700
  H      4.117430   22.383100   66.533600
  H      5.002650   20.859500   67.037300
  C      6.231600   22.215400   65.840100
  H      5.976740   21.586200   64.966400
  H      6.102300   23.245100   65.479700
  C      7.620200   21.777900   66.239500
  H      8.216430   21.991600   65.408200
  H      7.989130   22.317100   67.081100
  H      7.752240   20.690500   66.419500
  S      4.193670   26.034900   71.822700
  C      4.046790   27.782600   71.734800
  C      4.217490   28.148600   70.461500
  C      4.498080   27.126300   69.513500
  C      4.480740   25.854900   70.069400
  H      4.025270   29.178000   70.205100
  C      4.988080   27.436200   68.093100
  H      4.601720   28.454600   67.864400
  H      4.413380   26.799100   67.472100
  C      6.517360   27.301300   67.815500
  H      6.640640   27.604300   66.774800
  H      6.698510   26.179300   67.723500
  C      7.540620   28.013200   68.790900
  H      7.329420   28.999400   69.097700
  H      8.541330   28.045000   68.357200
  H      7.806940   27.457500   69.646000
  H      7.035150   21.602900   69.050300
  H      3.606770   28.347600   72.519300

 Total Charge           Charge          ....    0
 Multiplicity           Mult            ....    1
 Number of Electrons    NEL             ....  134
 Basis Dimension        Dim             ....  322

ORBITAL ENERGIES
----------------

  NO   OCC          E(Eh)            E(eV)
   0   2.0000     -88.961897     -2420.7763
   1   2.0000     -88.957546     -2420.6579
   2   2.0000     -10.328440      -281.0511
   3   2.0000     -10.327618      -281.0288
   4   2.0000     -10.317430      -280.7515
   5   2.0000     -10.313621      -280.6479
   6   2.0000     -10.304395      -280.3968
   7   2.0000     -10.303885      -280.3830
   8   2.0000     -10.300501      -280.2909
   9   2.0000     -10.296818      -280.1907
  10   2.0000     -10.293196      -280.0921
  11   2.0000     -10.289844      -280.0009
  12   2.0000     -10.289154      -279.9821
  13   2.0000     -10.288516      -279.9648
  14   2.0000     -10.273609      -279.5591
  15   2.0000     -10.271408      -279.4992
  16   2.0000      -8.075887      -219.7561
  17   2.0000      -8.072309      -219.6587
  18   2.0000      -6.034829      -164.2161
  19   2.0000      -6.030853      -164.1079
  20   2.0000      -6.030463      -164.0972
  21   2.0000      -6.026729      -163.9956
  22   2.0000      -6.026216      -163.9817
  23   2.0000      -6.023088      -163.8966
  24   2.0000      -1.005433       -27.3592
  25   2.0000      -0.981250       -26.7012
  26   2.0000      -0.913479       -24.8570
  27   2.0000      -0.897856       -24.4319
  28   2.0000      -0.874966       -23.8090
  29   2.0000      -0.845277       -23.0012
  30   2.0000      -0.838826       -22.8256
  31   2.0000      -0.819695       -22.3050
  32   2.0000      -0.786355       -21.3978
  33   2.0000      -0.778678       -21.1889
  34   2.0000      -0.715080       -19.4583
  35   2.0000      -0.696180       -18.9440
  36   2.0000      -0.694838       -18.9075
  37   2.0000      -0.662335       -18.0231
  38   2.0000      -0.641846       -17.4655
  39   2.0000      -0.623124       -16.9561
  40   2.0000      -0.588427       -16.0119
  41   2.0000      -0.572614       -15.5816
  42   2.0000      -0.553315       -15.0565
  43   2.0000      -0.550697       -14.9852
  44   2.0000      -0.546261       -14.8645
  45   2.0000      -0.535076       -14.5602
  46   2.0000      -0.514759       -14.0073
  47   2.0000      -0.512714       -13.9517
  48   2.0000      -0.507973       -13.8226
  49   2.0000      -0.493635       -13.4325
  50   2.0000      -0.487842       -13.2749
  51   2.0000      -0.483467       -13.1558
  52   2.0000      -0.477924       -13.0050
  53   2.0000      -0.464194       -12.6314
  54   2.0000      -0.459764       -12.5108
  55   2.0000      -0.444627       -12.0989
  56   2.0000      -0.440096       -11.9756
  57   2.0000      -0.433206       -11.7881
  58   2.0000      -0.430794       -11.7225
  59   2.0000      -0.427339       -11.6285
  60   2.0000      -0.421360       -11.4658
  61   2.0000      -0.403799       -10.9879
  62   2.0000      -0.403541       -10.9809
  63   2.0000      -0.351830        -9.5738
  64   2.0000      -0.329334        -8.9616
  65   2.0000      -0.323810        -8.8113
  66   2.0000      -0.298276        -8.1165
  67   0.0000       0.027451         0.7470
  68   0.0000       0.066040         1.7970
  69   0.0000       0.110893         3.0176
  70   0.0000       0.120090         3.2678
  71   0.0000       0.129340         3.5195

MULLIKEN ATOMIC CHARGES
-----------------------
   0 S :    0.092477
   1 C :   -0.114941
   2 C :   -0.128416
   3 C :    0.026702
   4 C :   -0.052255
   5 H :   -0.025688
   6 C :    0.040082
   7 H :    0.029026
   8 H :    0.041476
   9 C :   -0.075198
  10 H :    0.027789
  11 H :    0.029329
  12 C :   -0.025637
  13 H :    0.022823
  14 H :    0.038588
  15 H :    0.032449
  16 S :    0.072126
  17 C :   -0.072694
  18 C :   -0.029947
  19 C :   -0.047862
  20 C :   -0.189551
  21 H :    0.013754
  22 C :    0.092341
  23 H :    0.014632
  24 H :    0.010436
  25 C :   -0.070659
  26 H :    0.029391
  27 H :    0.042776
  28 C :   -0.006413
  29 H :    0.024365
  30 H :    0.019527
  31 H :    0.024415
  32 H :    0.057753
  33 H :    0.057005
Sum of atomic charges:    0.0000000

LOEWDIN ATOMIC CHARGES
----------------------
   0 S :    0.379295
   1 C :   -0.198546
   2 C :   -0.061551
   3 C :   -0.050421
   4 C :   -0.178765
   5 H :    0.010971
   6 C :   -0.039169
   7 H :    0.033829
   8 H :    0.033966
   9 C :   -0.042235
  10 H :    0.026568
  11 H :    0.026421
  12 C :   -0.062543
  13 H :    0.024459
  14 H :    0.020323
  15 H :    0.030668
  16 S :    0.381471
  17 C :   -0.168633
  18 C :   -0.076512
  19 C :   -0.051966
  20 C :   -0.186513
  21 H :    0.029531
  22 C :   -0.030397
  23 H :    0.028916
  24 H :    0.024237
  25 C :   -0.038596
  26 H :    0.024579
  27 H :    0.035251
  28 C :   -0.065539
  29 H :    0.019444
  30 H :    0.032107
  31 H :    0.025208
  32 H :    0.035515
  33 H :    0.028627

  Mayer bond orders larger than 0.100000
B(  0-S ,  1-C ) :   1.1171 B(  0-S ,  4-C ) :   1.1060 B(  1-C ,  2-C ) :   1.6426
B(  1-C , 32-H ) :   0.9621 B(  2-C ,  3-C ) :   1.2039 B(  2-C ,  6-C ) :   1.0181
B(  3-C ,  4-C ) :   1.6082 B(  3-C ,  5-H ) :   1.0166 B(  4-C , 20-C ) :   1.0611
B(  6-C ,  7-H ) :   0.9431 B(  6-C ,  8-H ) :   0.9439 B(  6-C ,  9-C ) :   1.0712
B(  9-C , 10-H ) :   0.9531 B(  9-C , 11-H ) :   0.9527 B(  9-C , 12-C ) :   1.0839
B( 12-C , 13-H ) :   0.9657 B( 12-C , 14-H ) :   0.9670 B( 12-C , 15-H ) :   0.9708
B( 16-S , 17-C ) :   1.1479 B( 16-S , 20-C ) :   1.1296 B( 17-C , 18-C ) :   1.6158
B( 17-C , 33-H ) :   0.9690 B( 18-C , 19-C ) :   1.2506 B( 18-C , 21-H ) :   0.9863
B( 19-C , 20-C ) :   1.5785 B( 19-C , 22-C ) :   1.0286 B( 22-C , 23-H ) :   0.9327
B( 22-C , 24-H ) :   0.9324 B( 22-C , 25-C ) :   1.0693 B( 25-C , 26-H ) :   0.9578
B( 25-C , 27-H ) :   0.9541 B( 25-C , 28-C ) :   1.0608 B( 28-C , 29-H ) :   0.9804
B( 28-C , 30-H ) :   0.9708 B( 28-C , 31-H ) :   0.9719

Dispersion correction           -0.015888367
FINAL SINGLE POINT ENERGY     -1339.863652712806

DIPOLE MOMENT
-------------
                                X             Y             Z
Electronic contribution:    -10.46028       0.90534      23.50218
Nuclear contribution   :     10.54008      -0.74392     -24.31116
                        -----------------------------------------
Total Dipole Moment    :      0.07980       0.16142      -0.80898
                        -----------------------------------------
Magnitude (a.u.)       :      0.82877
Magnitude (Debye)      :      2.10658

Rotational constants in cm-1:     0.023133     0.008771     0.007579
Rotational constants in MHz :   693.506493   262.944857   227.222283

                             ****ORCA TERMINATED NORMALLY****
TOTAL RUN TIME: 0 days 0 hours 0 minutes 36 seconds 550 msec
