                         Program Version 4.2.1 -  RELEASE  -
|  1> ! wB97X-D3 SP def2-SVP
|  2> %pal
|  3> nprocs 16
|  4> end
|  5>
|  6> * xyz 0 1
|  7> S 	 -15.752 	 38.4328 	 32.0917
|  8> C 	 -17.4008 	 38.1301 	 31.7413
|  9> C 	 -17.9164 	 39.0249 	 30.8004
| 10> C 	 -16.9828 	 39.9898 	 30.4048
| 11> C 	 -15.7835 	 39.8741 	 31.0666
| 12> H 	 -17.1167 	 40.8308 	 29.7044
| 13> C 	 -19.1479 	 38.809 	 30.0428
| 14> H 	 -19.9195 	 39.4049 	 30.4965
| 15> H 	 -19.4621 	 37.7892 	 30.3295
| 16> C 	 -19.2671 	 39.2453 	 28.5573
| 17> H 	 -20.2578 	 39.0373 	 28.0472
| 18> H 	 -19.2573 	 40.2591 	 28.6743
| 19> C 	 -18.1312 	 38.8307 	 27.685
| 20> H 	 -18.423 	 39.1792 	 26.7154
| 21> H 	 -17.1723 	 39.2966 	 27.8976
| 22> H 	 -18.0921 	 37.7512 	 27.5789
| 23> S 	 -13.1181 	 39.905 	 30.5791
| 24> C 	 -12.2183 	 41.3701 	 30.4326
| 25> C 	 -13.0278 	 42.4614 	 30.7442
| 26> C 	 -14.4367 	 42.1346 	 30.8955
| 27> C 	 -14.6102 	 40.7286 	 30.9084
| 28> H 	 -12.5737 	 43.4641 	 30.8616
| 29> C 	 -15.487 	 43.1772 	 31.1336
| 30> H 	 -15.2278 	 43.621 	 32.0931
| 31> H 	 -16.3718 	 42.5705 	 31.2912
| 32> C 	 -15.8533 	 44.1953 	 30.0131
| 33> H 	 -16.6303 	 44.8938 	 30.3265
| 34> H 	 -16.2843 	 43.523 	 29.2581
| 35> C 	 -14.715 	 45.1225 	 29.665
| 36> H 	 -13.9911 	 44.5848 	 29.0373
| 37> H 	 -14.2958 	 45.497 	 30.6582
| 38> H 	 -15.2071 	 45.9272 	 29.0836
| 39> H 	 -17.9174 	 37.2482 	 32.1089
| 40> H 	 -11.1893 	 41.377 	 30.2669
| 41> *
| 42>
| 43>                          ****END OF INPUT****

CARTESIAN COORDINATES (ANGSTROEM)
---------------------------------
  S    -15.752000   38.432800   32.091700
  C    -17.400800   38.130100   31.741300
  C    -17.916400   39.024900   30.800400
  C    -16.982800   39.989800   30.404800
  C    -15.783500   39.874100   31.066600
  H    -17.116700   40.830800   29.704400
  C    -19.147900   38.809000   30.042800
  H    -19.919500   39.404900   30.496500
  H    -19.462100   37.789200   30.329500
  C    -19.267100   39.245300   28.557300
  H    -20.257800   39.037300   28.047200
  H    -19.257300   40.259100   28.674300
  C    -18.131200   38.830700   27.685000
  H    -18.423000   39.179200   26.715400
  H    -17.172300   39.296600   27.897600
  H    -18.092100   37.751200   27.578900
  S    -13.118100   39.905000   30.579100
  C    -12.218300   41.370100   30.432600
  C    -13.027800   42.461400   30.744200
  C    -14.436700   42.134600   30.895500
  C    -14.610200   40.728600   30.908400
  H    -12.573700   43.464100   30.861600
  C    -15.487000   43.177200   31.133600
  H    -15.227800   43.621000   32.093100
  H    -16.371800   42.570500   31.291200
  C    -15.853300   44.195300   30.013100
  H    -16.630300   44.893800   30.326500
  H    -16.284300   43.523000   29.258100
  C    -14.715000   45.122500   29.665000
  H    -13.991100   44.584800   29.037300
  H    -14.295800   45.497000   30.658200
  H    -15.207100   45.927200   29.083600
  H    -17.917400   37.248200   32.108900
  H    -11.189300   41.377000   30.266900

 Total Charge           Charge          ....    0
 Multiplicity           Mult            ....    1
 Number of Electrons    NEL             ....  134
 Basis Dimension        Dim             ....  322

ORBITAL ENERGIES
----------------

  NO   OCC          E(Eh)            E(eV)
   0   2.0000     -88.967877     -2420.9390
   1   2.0000     -88.963388     -2420.8169
   2   2.0000     -10.328197      -281.0445
   3   2.0000     -10.327576      -281.0276
   4   2.0000     -10.312671      -280.6221
   5   2.0000     -10.311970      -280.6030
   6   2.0000     -10.307891      -280.4920
   7   2.0000     -10.298162      -280.2272
   8   2.0000     -10.296369      -280.1784
   9   2.0000     -10.292719      -280.0791
  10   2.0000     -10.288371      -279.9608
  11   2.0000     -10.286943      -279.9220
  12   2.0000     -10.285374      -279.8793
  13   2.0000     -10.285194      -279.8744
  14   2.0000     -10.283786      -279.8360
  15   2.0000     -10.267885      -279.4033
  16   2.0000      -8.082894      -219.9467
  17   2.0000      -8.078922      -219.8386
  18   2.0000      -6.041256      -164.3909
  19   2.0000      -6.037404      -164.2861
  20   2.0000      -6.037358      -164.2849
  21   2.0000      -6.033759      -164.1869
  22   2.0000      -6.033214      -164.1721
  23   2.0000      -6.029819      -164.0797
  24   2.0000      -1.009210       -27.4620
  25   2.0000      -0.986427       -26.8420
  26   2.0000      -0.918442       -24.9921
  27   2.0000      -0.911661       -24.8076
  28   2.0000      -0.871441       -23.7131
  29   2.0000      -0.856324       -23.3018
  30   2.0000      -0.848503       -23.0889
  31   2.0000      -0.819405       -22.2971
  32   2.0000      -0.785060       -21.3626
  33   2.0000      -0.771091       -20.9824
  34   2.0000      -0.710441       -19.3321
  35   2.0000      -0.696586       -18.9551
  36   2.0000      -0.690207       -18.7815
  37   2.0000      -0.659712       -17.9517
  38   2.0000      -0.641040       -17.4436
  39   2.0000      -0.624121       -16.9832
  40   2.0000      -0.588559       -16.0155
  41   2.0000      -0.567829       -15.4514
  42   2.0000      -0.558494       -15.1974
  43   2.0000      -0.553921       -15.0730
  44   2.0000      -0.548454       -14.9242
  45   2.0000      -0.544316       -14.8116
  46   2.0000      -0.521940       -14.2027
  47   2.0000      -0.513041       -13.9606
  48   2.0000      -0.501117       -13.6361
  49   2.0000      -0.500867       -13.6293
  50   2.0000      -0.494120       -13.4457
  51   2.0000      -0.481180       -13.0936
  52   2.0000      -0.471797       -12.8382
  53   2.0000      -0.471103       -12.8194
  54   2.0000      -0.461227       -12.5506
  55   2.0000      -0.445169       -12.1137
  56   2.0000      -0.437601       -11.9077
  57   2.0000      -0.435699       -11.8560
  58   2.0000      -0.430159       -11.7052
  59   2.0000      -0.427352       -11.6288
  60   2.0000      -0.420757       -11.4494
  61   2.0000      -0.414649       -11.2832
  62   2.0000      -0.410674       -11.1750
  63   2.0000      -0.349798        -9.5185
  64   2.0000      -0.329839        -8.9754
  65   2.0000      -0.325486        -8.8569
  66   2.0000      -0.286003        -7.7825
  67   0.0000       0.030413         0.8276
  68   0.0000       0.069514         1.8916
  69   0.0000       0.115451         3.1416
  70   0.0000       0.118202         3.2164
  71   0.0000       0.126072         3.4306

MULLIKEN ATOMIC CHARGES
-----------------------
   0 S :    0.123512
   1 C :   -0.128639
   2 C :   -0.082644
   3 C :    0.001964
   4 C :   -0.161526
   5 H :    0.028004
   6 C :    0.093529
   7 H :    0.021775
   8 H :    0.007533
   9 C :   -0.069594
  10 H :    0.040248
  11 H :    0.002335
  12 C :   -0.015306
  13 H :    0.012507
  14 H :    0.041767
  15 H :    0.032810
  16 S :    0.104471
  17 C :   -0.074938
  18 C :   -0.050425
  19 C :   -0.053733
  20 C :   -0.161238
  21 H :    0.033602
  22 C :    0.053907
  23 H :    0.035084
  24 H :    0.011026
  25 C :   -0.064834
  26 H :    0.030113
  27 H :    0.028432
  28 C :   -0.068409
  29 H :    0.051768
  30 H :    0.045343
  31 H :    0.041488
  32 H :    0.050206
  33 H :    0.039859
Sum of atomic charges:   -0.0000000

LOEWDIN ATOMIC CHARGES
----------------------
   0 S :    0.418287
   1 C :   -0.208828
   2 C :   -0.066545
   3 C :   -0.066394
   4 C :   -0.190522
   5 H :    0.036278
   6 C :   -0.038627
   7 H :    0.033384
   8 H :    0.027350
   9 C :   -0.037582
  10 H :    0.038916
  11 H :    0.010609
  12 C :   -0.063462
  13 H :    0.024043
  14 H :    0.027577
  15 H :    0.026931
  16 S :    0.421863
  17 C :   -0.188091
  18 C :   -0.073118
  19 C :   -0.056939
  20 C :   -0.205760
  21 H :    0.035727
  22 C :   -0.039737
  23 H :    0.031566
  24 H :    0.028798
  25 C :   -0.041471
  26 H :    0.026545
  27 H :    0.024025
  28 C :   -0.071467
  29 H :    0.026772
  30 H :    0.034601
  31 H :    0.030381
  32 H :    0.027923
  33 H :    0.016969

  Mayer bond orders larger than 0.100000
B(  0-S ,  1-C ) :   1.1510 B(  0-S ,  4-C ) :   1.1641 B(  1-C ,  2-C ) :   1.5809
B(  1-C ,  4-C ) :   0.1009 B(  1-C , 32-H ) :   0.9652 B(  2-C ,  3-C ) :   1.2629
B(  2-C ,  6-C ) :   1.0326 B(  3-C ,  4-C ) :   1.5585 B(  3-C ,  5-H ) :   0.9812
B(  4-C , 20-C ) :   1.0331 B(  6-C ,  7-H ) :   0.9187 B(  6-C ,  8-H ) :   0.9380
B(  6-C ,  9-C ) :   1.0603 B(  9-C , 10-H ) :   0.9532 B(  9-C , 11-H ) :   0.9406
B(  9-C , 12-C ) :   1.1040 B( 12-C , 13-H ) :   0.9657 B( 12-C , 14-H ) :   0.9653
B( 12-C , 15-H ) :   0.9747 B( 16-S , 17-C ) :   1.1614 B( 16-S , 20-C ) :   1.1641
B( 17-C , 18-C ) :   1.5884 B( 17-C , 20-C ) :   0.1024 B( 17-C , 33-H ) :   0.9781
B( 18-C , 19-C ) :   1.2378 B( 18-C , 21-H ) :   0.9821 B( 19-C , 20-C ) :   1.5685
B( 19-C , 22-C ) :   1.0378 B( 22-C , 23-H ) :   0.9340 B( 22-C , 24-H ) :   0.9275
B( 22-C , 25-C ) :   1.0733 B( 25-C , 26-H ) :   0.9570 B( 25-C , 27-H ) :   0.9523
B( 25-C , 28-C ) :   1.0745 B( 28-C , 29-H ) :   0.9707 B( 28-C , 30-H ) :   0.9692
B( 28-C , 31-H ) :   0.9739

Dispersion correction           -0.014749785
FINAL SINGLE POINT ENERGY     -1339.865558769194

DIPOLE MOMENT
-------------
                                X             Y             Z
Electronic contribution:     15.55808     -15.49770      13.69298
Nuclear contribution   :    -15.95852      15.91352     -13.98271
                        -----------------------------------------
Total Dipole Moment    :     -0.40045       0.41582      -0.28973
                        -----------------------------------------
Magnitude (a.u.)       :      0.64592
Magnitude (Debye)      :      1.64180

Rotational constants in cm-1:     0.017998     0.009449     0.007363
Rotational constants in MHz :   539.562225   283.261814   220.745236

                             ****ORCA TERMINATED NORMALLY****
TOTAL RUN TIME: 0 days 0 hours 0 minutes 35 seconds 237 msec
