                         Program Version 4.2.1 -  RELEASE  -
|  1> ! wB97X-D3 SP def2-SVP
|  2> %pal
|  3> nprocs 16
|  4> end
|  5>
|  6> * xyz 0 1
|  7> S 	 0.584443 	 -26.8655 	 66.2957
|  8> C 	 -1.04062 	 -26.5024 	 66.0048
|  9> C 	 -1.3855 	 -26.2841 	 64.6969
| 10> C 	 -0.258876 	 -26.6513 	 63.8955
| 11> C 	 0.896684 	 -26.8987 	 64.5651
| 12> H 	 -0.280532 	 -26.7259 	 62.842
| 13> C 	 -2.70554 	 -25.841 	 64.112
| 14> H 	 -3.47836 	 -26.2969 	 64.7394
| 15> H 	 -2.84272 	 -26.2717 	 63.0928
| 16> C 	 -2.69514 	 -24.3215 	 63.8522
| 17> H 	 -1.70224 	 -23.8931 	 63.5622
| 18> H 	 -3.24374 	 -24.1393 	 62.903
| 19> C 	 -3.2409 	 -23.4462 	 65.0172
| 20> H 	 -4.00994 	 -24.0189 	 65.6272
| 21> H 	 -2.60196 	 -23.3282 	 65.8584
| 22> H 	 -3.75391 	 -22.5334 	 64.6958
| 23> S 	 3.19622 	 -28.4347 	 64.5282
| 24> C 	 4.376 	 -28.184 	 63.3637
| 25> C 	 4.01548 	 -27.1245 	 62.5871
| 26> C 	 2.83376 	 -26.4439 	 62.8911
| 27> C 	 2.218 	 -27.0461 	 63.9529
| 28> H 	 4.59922 	 -26.8907 	 61.7061
| 29> C 	 2.40787 	 -25.2418 	 62.0709
| 30> H 	 1.37869 	 -25.2595 	 61.8562
| 31> H 	 2.9123 	 -25.4687 	 61.129
| 32> C 	 2.7148 	 -23.7838 	 62.5027
| 33> H 	 2.7991 	 -23.1734 	 61.6243
| 34> H 	 3.71225 	 -23.7116 	 62.913
| 35> C 	 1.54754 	 -23.1963 	 63.3721
| 36> H 	 0.799261 	 -22.8966 	 62.6356
| 37> H 	 1.80371 	 -22.2117 	 63.908
| 38> H 	 1.16543 	 -23.983 	 64.0151
| 39> H 	 -1.80818 	 -26.3104 	 66.8291
| 40> H 	 5.2688 	 -28.7057 	 63.1295
| 41> *
| 42>
| 43>                          ****END OF INPUT****

CARTESIAN COORDINATES (ANGSTROEM)
---------------------------------
  S      0.584443  -26.865500   66.295700
  C     -1.040620  -26.502400   66.004800
  C     -1.385500  -26.284100   64.696900
  C     -0.258876  -26.651300   63.895500
  C      0.896684  -26.898700   64.565100
  H     -0.280532  -26.725900   62.842000
  C     -2.705540  -25.841000   64.112000
  H     -3.478360  -26.296900   64.739400
  H     -2.842720  -26.271700   63.092800
  C     -2.695140  -24.321500   63.852200
  H     -1.702240  -23.893100   63.562200
  H     -3.243740  -24.139300   62.903000
  C     -3.240900  -23.446200   65.017200
  H     -4.009940  -24.018900   65.627200
  H     -2.601960  -23.328200   65.858400
  H     -3.753910  -22.533400   64.695800
  S      3.196220  -28.434700   64.528200
  C      4.376000  -28.184000   63.363700
  C      4.015480  -27.124500   62.587100
  C      2.833760  -26.443900   62.891100
  C      2.218000  -27.046100   63.952900
  H      4.599220  -26.890700   61.706100
  C      2.407870  -25.241800   62.070900
  H      1.378690  -25.259500   61.856200
  H      2.912300  -25.468700   61.129000
  C      2.714800  -23.783800   62.502700
  H      2.799100  -23.173400   61.624300
  H      3.712250  -23.711600   62.913000
  C      1.547540  -23.196300   63.372100
  H      0.799261  -22.896600   62.635600
  H      1.803710  -22.211700   63.908000
  H      1.165430  -23.983000   64.015100
  H     -1.808180  -26.310400   66.829100
  H      5.268800  -28.705700   63.129500

 Total Charge           Charge          ....    0
 Multiplicity           Mult            ....    1
 Number of Electrons    NEL             ....  134
 Basis Dimension        Dim             ....  322

ORBITAL ENERGIES
----------------

  NO   OCC          E(Eh)            E(eV)
   0   2.0000     -88.966039     -2420.8890
   1   2.0000     -88.962284     -2420.7868
   2   2.0000     -10.326605      -281.0012
   3   2.0000     -10.324333      -280.9394
   4   2.0000     -10.313229      -280.6372
   5   2.0000     -10.307960      -280.4939
   6   2.0000     -10.299902      -280.2746
   7   2.0000     -10.299240      -280.2566
   8   2.0000     -10.297052      -280.1970
   9   2.0000     -10.296991      -280.1954
  10   2.0000     -10.289608      -279.9945
  11   2.0000     -10.286041      -279.8974
  12   2.0000     -10.285432      -279.8808
  13   2.0000     -10.282748      -279.8078
  14   2.0000     -10.282469      -279.8002
  15   2.0000     -10.280802      -279.7548
  16   2.0000      -8.081771      -219.9162
  17   2.0000      -8.078004      -219.8137
  18   2.0000      -6.040229      -164.3630
  19   2.0000      -6.036385      -164.2584
  20   2.0000      -6.036223      -164.2540
  21   2.0000      -6.032442      -164.1511
  22   2.0000      -6.032283      -164.1468
  23   2.0000      -6.028916      -164.0551
  24   2.0000      -1.013768       -27.5860
  25   2.0000      -0.995106       -27.0782
  26   2.0000      -0.910312       -24.7708
  27   2.0000      -0.908597       -24.7242
  28   2.0000      -0.869858       -23.6700
  29   2.0000      -0.853166       -23.2158
  30   2.0000      -0.847716       -23.0675
  31   2.0000      -0.811865       -22.0920
  32   2.0000      -0.783573       -21.3221
  33   2.0000      -0.776480       -21.1291
  34   2.0000      -0.711545       -19.3621
  35   2.0000      -0.701338       -19.0844
  36   2.0000      -0.694581       -18.9005
  37   2.0000      -0.663558       -18.0563
  38   2.0000      -0.639764       -17.4089
  39   2.0000      -0.622964       -16.9517
  40   2.0000      -0.600155       -16.3311
  41   2.0000      -0.570718       -15.5300
  42   2.0000      -0.554589       -15.0911
  43   2.0000      -0.546841       -14.8803
  44   2.0000      -0.535263       -14.5653
  45   2.0000      -0.529362       -14.4047
  46   2.0000      -0.514486       -13.9999
  47   2.0000      -0.512000       -13.9322
  48   2.0000      -0.501758       -13.6535
  49   2.0000      -0.495861       -13.4931
  50   2.0000      -0.493183       -13.4202
  51   2.0000      -0.483424       -13.1546
  52   2.0000      -0.471454       -12.8289
  53   2.0000      -0.470706       -12.8086
  54   2.0000      -0.461602       -12.5608
  55   2.0000      -0.448462       -12.2033
  56   2.0000      -0.444427       -12.0935
  57   2.0000      -0.436820       -11.8865
  58   2.0000      -0.433038       -11.7836
  59   2.0000      -0.425989       -11.5918
  60   2.0000      -0.420093       -11.4313
  61   2.0000      -0.408831       -11.1249
  62   2.0000      -0.408382       -11.1126
  63   2.0000      -0.351534        -9.5657
  64   2.0000      -0.333405        -9.0724
  65   2.0000      -0.329673        -8.9709
  66   2.0000      -0.290966        -7.9176
  67   0.0000       0.032772         0.8918
  68   0.0000       0.078109         2.1255
  69   0.0000       0.114762         3.1228
  70   0.0000       0.122658         3.3377
  71   0.0000       0.126192         3.4339

MULLIKEN ATOMIC CHARGES
-----------------------
   0 S :    0.127158
   1 C :   -0.136755
   2 C :   -0.097793
   3 C :    0.006540
   4 C :   -0.130581
   5 H :   -0.004689
   6 C :    0.062798
   7 H :    0.040648
   8 H :    0.030169
   9 C :   -0.075789
  10 H :    0.040903
  11 H :    0.027275
  12 C :   -0.049297
  13 H :    0.009917
  14 H :    0.027221
  15 H :    0.048128
  16 S :    0.104226
  17 C :   -0.042797
  18 C :   -0.080517
  19 C :   -0.008333
  20 C :   -0.172255
  21 H :    0.007764
  22 C :    0.079183
  23 H :   -0.002360
  24 H :    0.011535
  25 C :   -0.022247
  26 H :    0.018443
  27 H :    0.021506
  28 C :   -0.092855
  29 H :    0.034379
  30 H :    0.049620
  31 H :    0.065100
  32 H :    0.063080
  33 H :    0.040671
Sum of atomic charges:   -0.0000000

LOEWDIN ATOMIC CHARGES
----------------------
   0 S :    0.420887
   1 C :   -0.223919
   2 C :   -0.069364
   3 C :   -0.056058
   4 C :   -0.200240
   5 H :    0.022020
   6 C :   -0.030688
   7 H :    0.035048
   8 H :    0.038227
   9 C :   -0.045279
  10 H :    0.033361
  11 H :    0.026110
  12 C :   -0.076994
  13 H :    0.027669
  14 H :    0.022136
  15 H :    0.030295
  16 S :    0.417661
  17 C :   -0.202735
  18 C :   -0.079964
  19 C :   -0.058578
  20 C :   -0.180198
  21 H :    0.025944
  22 C :   -0.025054
  23 H :    0.020061
  24 H :    0.034055
  25 C :   -0.033621
  26 H :    0.021600
  27 H :    0.020480
  28 C :   -0.070372
  29 H :    0.023371
  30 H :    0.036259
  31 H :    0.027308
  32 H :    0.039742
  33 H :    0.030826

  Mayer bond orders larger than 0.100000
B(  0-S ,  1-C ) :   1.1499 B(  0-S ,  4-C ) :   1.1358 B(  1-C ,  2-C ) :   1.6311
B(  1-C , 32-H ) :   0.9490 B(  2-C ,  3-C ) :   1.2357 B(  2-C ,  6-C ) :   1.0244
B(  3-C ,  4-C ) :   1.5956 B(  3-C ,  5-H ) :   1.0033 B(  4-C , 20-C ) :   1.0276
B(  6-C ,  7-H ) :   0.9491 B(  6-C ,  8-H ) :   0.9432 B(  6-C ,  9-C ) :   1.0482
B(  9-C , 10-H ) :   0.9552 B(  9-C , 11-H ) :   0.9607 B(  9-C , 12-C ) :   1.0621
B( 12-C , 13-H ) :   0.9744 B( 12-C , 14-H ) :   0.9731 B( 12-C , 15-H ) :   0.9777
B( 16-S , 17-C ) :   1.1610 B( 16-S , 20-C ) :   1.1452 B( 17-C , 18-C ) :   1.6030
B( 17-C , 33-H ) :   0.9684 B( 18-C , 19-C ) :   1.2662 B( 18-C , 21-H ) :   0.9815
B( 19-C , 20-C ) :   1.5882 B( 19-C , 22-C ) :   1.0343 B( 22-C , 23-H ) :   0.9322
B( 22-C , 24-H ) :   0.9237 B( 22-C , 25-C ) :   1.0693 B( 25-C , 26-H ) :   0.9571
B( 25-C , 27-H ) :   0.9570 B( 25-C , 28-C ) :   1.0588 B( 28-C , 29-H ) :   0.9733
B( 28-C , 30-H ) :   0.9726 B( 28-C , 31-H ) :   0.9816

Dispersion correction           -0.015649809
FINAL SINGLE POINT ENERGY     -1339.867659704733

DIPOLE MOMENT
-------------
                                X             Y             Z
Electronic contribution:     15.17433     -23.64836      10.81519
Nuclear contribution   :    -15.44748      24.06410     -11.42687
                        -----------------------------------------
Total Dipole Moment    :     -0.27315       0.41574      -0.61167
                        -----------------------------------------
Magnitude (a.u.)       :      0.78841
Magnitude (Debye)      :      2.00398

Rotational constants in cm-1:     0.021036     0.009339     0.007272
Rotational constants in MHz :   630.646928   279.985176   218.011491

                             ****ORCA TERMINATED NORMALLY****
TOTAL RUN TIME: 0 days 0 hours 0 minutes 37 seconds 216 msec
