                         Program Version 4.2.1 -  RELEASE  -
|  1> ! wB97X-D3 SP def2-SVP
|  2> %pal
|  3> nprocs 16
|  4> end
|  5>
|  6> * xyz 0 1
|  7> S 	 10.3933 	 -9.26194 	 69.1425
|  8> C 	 8.71117 	 -8.87851 	 69.3432
|  9> C 	 8.05908 	 -8.72931 	 68.0534
| 10> C 	 9.03814 	 -8.57619 	 67.0241
| 11> C 	 10.3483 	 -8.78141 	 67.4711
| 12> H 	 8.81381 	 -8.37529 	 65.9632
| 13> C 	 6.55296 	 -8.4424 	 67.9051
| 14> H 	 6.06609 	 -8.41867 	 68.836
| 15> H 	 6.09066 	 -9.33517 	 67.4663
| 16> C 	 6.12347 	 -7.29932 	 66.9816
| 17> H 	 6.85275 	 -6.47632 	 67.0134
| 18> H 	 6.08821 	 -7.62863 	 65.9331
| 19> C 	 4.86423 	 -6.55656 	 67.4711
| 20> H 	 4.63209 	 -5.65483 	 66.9271
| 21> H 	 3.98233 	 -7.17869 	 67.4118
| 22> H 	 4.956 	 -6.27695 	 68.522
| 23> S 	 12.5673 	 -10.0891 	 66.4551
| 24> C 	 13.6093 	 -9.20262 	 65.2655
| 25> C 	 13.1404 	 -7.89369 	 65.118
| 26> C 	 11.9339 	 -7.60374 	 65.8858
| 27> C 	 11.5118 	 -8.65761 	 66.6814
| 28> H 	 13.636 	 -7.20285 	 64.4306
| 29> C 	 11.241 	 -6.25806 	 65.8446
| 30> H 	 10.1947 	 -6.23555 	 65.6172
| 31> H 	 11.7879 	 -5.62726 	 65.1538
| 32> C 	 11.4092 	 -5.46 	 67.1599
| 33> H 	 12.45 	 -5.40356 	 67.4323
| 34> H 	 10.9663 	 -6.07685 	 68.002
| 35> C 	 10.724 	 -4.13735 	 67.2042
| 36> H 	 11.1217 	 -3.41069 	 66.4812
| 37> H 	 10.9365 	 -3.64717 	 68.1761
| 38> H 	 9.70636 	 -4.25881 	 67.0635
| 39> H 	 8.17941 	 -8.82265 	 70.2291
| 40> H 	 14.4644 	 -9.66868 	 64.8523
| 41> *
| 42>
| 43>                          ****END OF INPUT****

CARTESIAN COORDINATES (ANGSTROEM)
---------------------------------
  S     10.393300   -9.261940   69.142500
  C      8.711170   -8.878510   69.343200
  C      8.059080   -8.729310   68.053400
  C      9.038140   -8.576190   67.024100
  C     10.348300   -8.781410   67.471100
  H      8.813810   -8.375290   65.963200
  C      6.552960   -8.442400   67.905100
  H      6.066090   -8.418670   68.836000
  H      6.090660   -9.335170   67.466300
  C      6.123470   -7.299320   66.981600
  H      6.852750   -6.476320   67.013400
  H      6.088210   -7.628630   65.933100
  C      4.864230   -6.556560   67.471100
  H      4.632090   -5.654830   66.927100
  H      3.982330   -7.178690   67.411800
  H      4.956000   -6.276950   68.522000
  S     12.567300  -10.089100   66.455100
  C     13.609300   -9.202620   65.265500
  C     13.140400   -7.893690   65.118000
  C     11.933900   -7.603740   65.885800
  C     11.511800   -8.657610   66.681400
  H     13.636000   -7.202850   64.430600
  C     11.241000   -6.258060   65.844600
  H     10.194700   -6.235550   65.617200
  H     11.787900   -5.627260   65.153800
  C     11.409200   -5.460000   67.159900
  H     12.450000   -5.403560   67.432300
  H     10.966300   -6.076850   68.002000
  C     10.724000   -4.137350   67.204200
  H     11.121700   -3.410690   66.481200
  H     10.936500   -3.647170   68.176100
  H      9.706360   -4.258810   67.063500
  H      8.179410   -8.822650   70.229100
  H     14.464400   -9.668680   64.852300

 Total Charge           Charge          ....    0
 Multiplicity           Mult            ....    1
 Number of Electrons    NEL             ....  134
 Basis Dimension        Dim             ....  322

ORBITAL ENERGIES
----------------

  NO   OCC          E(Eh)            E(eV)
   0   2.0000     -88.972318     -2421.0599
   1   2.0000     -88.961761     -2420.7726
   2   2.0000     -10.326819      -281.0070
   3   2.0000     -10.325277      -280.9651
   4   2.0000     -10.323935      -280.9286
   5   2.0000     -10.316639      -280.7300
   6   2.0000     -10.312166      -280.6083
   7   2.0000     -10.306260      -280.4476
   8   2.0000     -10.303612      -280.3755
   9   2.0000     -10.300588      -280.2933
  10   2.0000     -10.293109      -280.0897
  11   2.0000     -10.291824      -280.0548
  12   2.0000     -10.287096      -279.9261
  13   2.0000     -10.279586      -279.7218
  14   2.0000     -10.277670      -279.6696
  15   2.0000     -10.269717      -279.4532
  16   2.0000      -8.086915      -220.0561
  17   2.0000      -8.075252      -219.7388
  18   2.0000      -6.045260      -164.4999
  19   2.0000      -6.041457      -164.3964
  20   2.0000      -6.037837      -164.2979
  21   2.0000      -6.033946      -164.1920
  22   2.0000      -6.029918      -164.0824
  23   2.0000      -6.025909      -163.9733
  24   2.0000      -1.003345       -27.3024
  25   2.0000      -0.973105       -26.4795
  26   2.0000      -0.911922       -24.8147
  27   2.0000      -0.907269       -24.6880
  28   2.0000      -0.870356       -23.6836
  29   2.0000      -0.852270       -23.1914
  30   2.0000      -0.844697       -22.9854
  31   2.0000      -0.812279       -22.1032
  32   2.0000      -0.783888       -21.3307
  33   2.0000      -0.770613       -20.9694
  34   2.0000      -0.713161       -19.4061
  35   2.0000      -0.698777       -19.0147
  36   2.0000      -0.687272       -18.7016
  37   2.0000      -0.663775       -18.0622
  38   2.0000      -0.645004       -17.5514
  39   2.0000      -0.619667       -16.8620
  40   2.0000      -0.598361       -16.2822
  41   2.0000      -0.569518       -15.4974
  42   2.0000      -0.567216       -15.4347
  43   2.0000      -0.558472       -15.1968
  44   2.0000      -0.530784       -14.4434
  45   2.0000      -0.523289       -14.2394
  46   2.0000      -0.516379       -14.0514
  47   2.0000      -0.511442       -13.9170
  48   2.0000      -0.506564       -13.7843
  49   2.0000      -0.503390       -13.6979
  50   2.0000      -0.488373       -13.2893
  51   2.0000      -0.482781       -13.1371
  52   2.0000      -0.474891       -12.9224
  53   2.0000      -0.466941       -12.7061
  54   2.0000      -0.456991       -12.4354
  55   2.0000      -0.449260       -12.2250
  56   2.0000      -0.444322       -12.0906
  57   2.0000      -0.439240       -11.9523
  58   2.0000      -0.436724       -11.8839
  59   2.0000      -0.429310       -11.6821
  60   2.0000      -0.419082       -11.4038
  61   2.0000      -0.411358       -11.1936
  62   2.0000      -0.402067       -10.9408
  63   2.0000      -0.343660        -9.3515
  64   2.0000      -0.331907        -9.0316
  65   2.0000      -0.326861        -8.8943
  66   2.0000      -0.287009        -7.8099
  67   0.0000       0.026112         0.7105
  68   0.0000       0.056486         1.5371
  69   0.0000       0.107489         2.9249
  70   0.0000       0.119924         3.2633
  71   0.0000       0.122943         3.3454

MULLIKEN ATOMIC CHARGES
-----------------------
   0 S :    0.141982
   1 C :   -0.099452
   2 C :   -0.098641
   3 C :    0.025935
   4 C :   -0.181460
   5 H :    0.031697
   6 C :    0.102796
   7 H :   -0.001768
   8 H :    0.034670
   9 C :   -0.098411
  10 H :    0.033772
  11 H :    0.040310
  12 C :   -0.053553
  13 H :    0.033166
  14 H :    0.024306
  15 H :    0.032462
  16 S :    0.076186
  17 C :   -0.091563
  18 C :   -0.021334
  19 C :   -0.037129
  20 C :   -0.136516
  21 H :    0.029379
  22 C :    0.106108
  23 H :    0.018256
  24 H :    0.004070
  25 C :   -0.118985
  26 H :    0.020141
  27 H :    0.038508
  28 C :   -0.009975
  29 H :    0.021842
  30 H :    0.035622
  31 H :    0.018937
  32 H :    0.024666
  33 H :    0.053972
Sum of atomic charges:   -0.0000000

LOEWDIN ATOMIC CHARGES
----------------------
   0 S :    0.431350
   1 C :   -0.195836
   2 C :   -0.049737
   3 C :   -0.058419
   4 C :   -0.207268
   5 H :    0.038049
   6 C :   -0.033677
   7 H :    0.022089
   8 H :    0.040443
   9 C :   -0.045871
  10 H :    0.024919
  11 H :    0.025880
  12 C :   -0.062127
  13 H :    0.025396
  14 H :    0.019367
  15 H :    0.026869
  16 S :    0.354764
  17 C :   -0.157671
  18 C :   -0.065886
  19 C :   -0.052919
  20 C :   -0.185510
  21 H :    0.034784
  22 C :   -0.029013
  23 H :    0.024486
  24 H :    0.027215
  25 C :   -0.043507
  26 H :    0.019081
  27 H :    0.028633
  28 C :   -0.062019
  29 H :    0.023047
  30 H :    0.034630
  31 H :    0.014544
  32 H :    0.011779
  33 H :    0.022135

  Mayer bond orders larger than 0.100000
B(  0-S ,  1-C ) :   1.1619 B(  0-S ,  4-C ) :   1.1522 B(  1-C ,  2-C ) :   1.5515
B(  1-C ,  4-C ) :   0.1141 B(  1-C , 32-H ) :   0.9798 B(  2-C ,  3-C ) :   1.2698
B(  2-C ,  6-C ) :   1.0381 B(  3-C ,  4-C ) :   1.5383 B(  3-C ,  5-H ) :   0.9877
B(  4-C , 20-C ) :   1.0722 B(  6-C ,  7-H ) :   0.9471 B(  6-C ,  8-H ) :   0.9232
B(  6-C ,  9-C ) :   1.0476 B(  9-C , 10-H ) :   0.9673 B(  9-C , 11-H ) :   0.9518
B(  9-C , 12-C ) :   1.0805 B( 12-C , 13-H ) :   0.9758 B( 12-C , 14-H ) :   0.9769
B( 12-C , 15-H ) :   0.9754 B( 16-S , 17-C ) :   1.1353 B( 16-S , 20-C ) :   1.1152
B( 17-C , 18-C ) :   1.6149 B( 17-C , 20-C ) :   0.1016 B( 17-C , 33-H ) :   0.9758
B( 18-C , 19-C ) :   1.2230 B( 18-C , 21-H ) :   0.9846 B( 19-C , 20-C ) :   1.6094
B( 19-C , 22-C ) :   1.0572 B( 22-C , 23-H ) :   0.9332 B( 22-C , 24-H ) :   0.9269
B( 22-C , 25-C ) :   1.0610 B( 25-C , 26-H ) :   0.9530 B( 25-C , 27-H ) :   0.9528
B( 25-C , 28-C ) :   1.0954 B( 28-C , 29-H ) :   0.9709 B( 28-C , 30-H ) :   0.9684
B( 28-C , 31-H ) :   0.9714

Dispersion correction           -0.014702008
FINAL SINGLE POINT ENERGY     -1339.873282073723

DIPOLE MOMENT
-------------
                                X             Y             Z
Electronic contribution:     20.39052     -23.49842       3.23040
Nuclear contribution   :    -20.86181      24.01153      -3.43700
                        -----------------------------------------
Total Dipole Moment    :     -0.47129       0.51311      -0.20660
                        -----------------------------------------
Magnitude (a.u.)       :      0.72669
Magnitude (Debye)      :      1.84710

Rotational constants in cm-1:     0.018636     0.008854     0.007205
Rotational constants in MHz :   558.693448   265.439434   216.003490

                             ****ORCA TERMINATED NORMALLY****
TOTAL RUN TIME: 0 days 0 hours 0 minutes 35 seconds 917 msec
