                         Program Version 4.2.1 -  RELEASE  -
|  1> ! wB97X-D3 SP def2-SVP
|  2> %pal
|  3> nprocs 16
|  4> end
|  5>
|  6> * xyz 0 1
|  7> S 	 -46.9015 	 33.3913 	 98.8759
|  8> C 	 -46.6568 	 34.8713 	 98.0267
|  9> C 	 -46.4599 	 35.9853 	 98.8383
| 10> C 	 -46.4146 	 35.5868 	 100.199
| 11> C 	 -46.5868 	 34.2139 	 100.427
| 12> H 	 -46.2504 	 36.1935 	 101.082
| 13> C 	 -46.4689 	 37.3958 	 98.2754
| 14> H 	 -47.5457 	 37.5542 	 98.0426
| 15> H 	 -45.8591 	 37.403 	 97.3597
| 16> C 	 -45.9707 	 38.4605 	 99.2611
| 17> H 	 -46.4812 	 38.3705 	 100.169
| 18> H 	 -44.8634 	 38.3613 	 99.4384
| 19> C 	 -46.223 	 39.854 	 98.7428
| 20> H 	 -45.5624 	 40.1618 	 97.88
| 21> H 	 -47.2713 	 39.8897 	 98.4221
| 22> H 	 -46.0027 	 40.5893 	 99.5206
| 23> S 	 -48.1191 	 32.504 	 101.898
| 24> C 	 -47.8452 	 32.2836 	 103.593
| 25> C 	 -46.8284 	 33.0749 	 104.008
| 26> C 	 -46.1517 	 33.7865 	 102.934
| 27> C 	 -46.7751 	 33.6075 	 101.752
| 28> H 	 -46.4635 	 33.0802 	 105.019
| 29> C 	 -45.0364 	 34.835 	 103.243
| 30> H 	 -44.5313 	 35.1001 	 102.31
| 31> H 	 -44.207 	 34.2893 	 103.706
| 32> C 	 -45.364 	 36.0998 	 104.124
| 33> H 	 -45.7475 	 35.7617 	 105.127
| 34> H 	 -46.0825 	 36.785 	 103.745
| 35> C 	 -44.1853 	 37.0337 	 104.339
| 36> H 	 -43.8957 	 37.5417 	 103.375
| 37> H 	 -43.4141 	 36.3663 	 104.74
| 38> H 	 -44.2686 	 37.8143 	 105.089
| 39> H 	 -46.7891 	 34.9354 	 96.9404
| 40> H 	 -48.3906 	 31.6932 	 104.3
| 41> *
| 42>
| 43>                          ****END OF INPUT****

CARTESIAN COORDINATES (ANGSTROEM)
---------------------------------
  S    -46.901500   33.391300   98.875900
  C    -46.656800   34.871300   98.026700
  C    -46.459900   35.985300   98.838300
  C    -46.414600   35.586800  100.199000
  C    -46.586800   34.213900  100.427000
  H    -46.250400   36.193500  101.082000
  C    -46.468900   37.395800   98.275400
  H    -47.545700   37.554200   98.042600
  H    -45.859100   37.403000   97.359700
  C    -45.970700   38.460500   99.261100
  H    -46.481200   38.370500  100.169000
  H    -44.863400   38.361300   99.438400
  C    -46.223000   39.854000   98.742800
  H    -45.562400   40.161800   97.880000
  H    -47.271300   39.889700   98.422100
  H    -46.002700   40.589300   99.520600
  S    -48.119100   32.504000  101.898000
  C    -47.845200   32.283600  103.593000
  C    -46.828400   33.074900  104.008000
  C    -46.151700   33.786500  102.934000
  C    -46.775100   33.607500  101.752000
  H    -46.463500   33.080200  105.019000
  C    -45.036400   34.835000  103.243000
  H    -44.531300   35.100100  102.310000
  H    -44.207000   34.289300  103.706000
  C    -45.364000   36.099800  104.124000
  H    -45.747500   35.761700  105.127000
  H    -46.082500   36.785000  103.745000
  C    -44.185300   37.033700  104.339000
  H    -43.895700   37.541700  103.375000
  H    -43.414100   36.366300  104.740000
  H    -44.268600   37.814300  105.089000
  H    -46.789100   34.935400   96.940400
  H    -48.390600   31.693200  104.300000

 Total Charge           Charge          ....    0
 Multiplicity           Mult            ....    1
 Number of Electrons    NEL             ....  134
 Basis Dimension        Dim             ....  322

ORBITAL ENERGIES
----------------

  NO   OCC          E(Eh)            E(eV)
   0   2.0000     -88.969970     -2420.9960
   1   2.0000     -88.961608     -2420.7684
   2   2.0000     -10.331577      -281.1365
   3   2.0000     -10.324985      -280.9571
   4   2.0000     -10.312485      -280.6170
   5   2.0000     -10.311682      -280.5951
   6   2.0000     -10.301798      -280.3262
   7   2.0000     -10.301635      -280.3217
   8   2.0000     -10.300066      -280.2790
   9   2.0000     -10.298432      -280.2346
  10   2.0000     -10.296083      -280.1707
  11   2.0000     -10.292838      -280.0823
  12   2.0000     -10.289695      -279.9968
  13   2.0000     -10.286240      -279.9028
  14   2.0000     -10.282743      -279.8077
  15   2.0000     -10.282106      -279.7903
  16   2.0000      -8.084198      -219.9822
  17   2.0000      -8.077130      -219.7899
  18   2.0000      -6.042654      -164.4290
  19   2.0000      -6.038769      -164.3232
  20   2.0000      -6.035768      -164.2416
  21   2.0000      -6.035081      -164.2229
  22   2.0000      -6.031544      -164.1267
  23   2.0000      -6.027674      -164.0214
  24   2.0000      -1.008083       -27.4313
  25   2.0000      -0.985436       -26.8151
  26   2.0000      -0.915803       -24.9203
  27   2.0000      -0.903590       -24.5879
  28   2.0000      -0.872493       -23.7417
  29   2.0000      -0.855241       -23.2723
  30   2.0000      -0.846543       -23.0356
  31   2.0000      -0.817091       -22.2342
  32   2.0000      -0.779896       -21.2221
  33   2.0000      -0.769833       -20.9482
  34   2.0000      -0.710079       -19.3222
  35   2.0000      -0.698424       -19.0051
  36   2.0000      -0.687054       -18.6957
  37   2.0000      -0.662199       -18.0194
  38   2.0000      -0.640150       -17.4194
  39   2.0000      -0.617983       -16.8162
  40   2.0000      -0.595391       -16.2014
  41   2.0000      -0.579005       -15.7555
  42   2.0000      -0.565771       -15.3954
  43   2.0000      -0.565431       -15.3862
  44   2.0000      -0.528298       -14.3757
  45   2.0000      -0.521003       -14.1772
  46   2.0000      -0.519022       -14.1233
  47   2.0000      -0.509603       -13.8670
  48   2.0000      -0.505901       -13.7663
  49   2.0000      -0.497400       -13.5349
  50   2.0000      -0.491236       -13.3672
  51   2.0000      -0.480904       -13.0861
  52   2.0000      -0.472136       -12.8475
  53   2.0000      -0.467435       -12.7196
  54   2.0000      -0.460243       -12.5239
  55   2.0000      -0.452675       -12.3179
  56   2.0000      -0.445437       -12.1210
  57   2.0000      -0.432377       -11.7656
  58   2.0000      -0.431006       -11.7283
  59   2.0000      -0.426682       -11.6106
  60   2.0000      -0.420582       -11.4446
  61   2.0000      -0.419561       -11.4168
  62   2.0000      -0.414304       -11.2738
  63   2.0000      -0.355096        -9.6626
  64   2.0000      -0.332739        -9.0543
  65   2.0000      -0.329262        -8.9597
  66   2.0000      -0.288848        -7.8600
  67   0.0000       0.029423         0.8006
  68   0.0000       0.078140         2.1263
  69   0.0000       0.110183         2.9982
  70   0.0000       0.124645         3.3918
  71   0.0000       0.128719         3.5026

MULLIKEN ATOMIC CHARGES
-----------------------
   0 S :    0.121327
   1 C :   -0.133842
   2 C :   -0.066570
   3 C :    0.000943
   4 C :   -0.143665
   5 H :    0.009802
   6 C :    0.047737
   7 H :    0.050734
   8 H :    0.040115
   9 C :   -0.086672
  10 H :    0.025186
  11 H :    0.041139
  12 C :   -0.049869
  13 H :    0.036960
  14 H :    0.029198
  15 H :    0.034775
  16 S :    0.096780
  17 C :   -0.065230
  18 C :   -0.037424
  19 C :   -0.046089
  20 C :   -0.137916
  21 H :    0.013558
  22 C :    0.043039
  23 H :    0.020880
  24 H :    0.021718
  25 C :   -0.052833
  26 H :    0.031220
  27 H :    0.027380
  28 C :   -0.075510
  29 H :    0.042336
  30 H :    0.024878
  31 H :    0.037205
  32 H :    0.050907
  33 H :    0.047803
Sum of atomic charges:   -0.0000000

LOEWDIN ATOMIC CHARGES
----------------------
   0 S :    0.408460
   1 C :   -0.206380
   2 C :   -0.067850
   3 C :   -0.059708
   4 C :   -0.189033
   5 H :    0.030499
   6 C :   -0.030647
   7 H :    0.040951
   8 H :    0.035869
   9 C :   -0.044764
  10 H :    0.016289
  11 H :    0.032036
  12 C :   -0.067126
  13 H :    0.029242
  14 H :    0.024522
  15 H :    0.026339
  16 S :    0.403963
  17 C :   -0.187153
  18 C :   -0.067401
  19 C :   -0.064805
  20 C :   -0.188602
  21 H :    0.027381
  22 C :   -0.035968
  23 H :    0.028988
  24 H :    0.032635
  25 C :   -0.042571
  26 H :    0.027878
  27 H :    0.017370
  28 C :   -0.069930
  29 H :    0.030199
  30 H :    0.023612
  31 H :    0.026207
  32 H :    0.028927
  33 H :    0.030569

  Mayer bond orders larger than 0.100000
B(  0-S ,  1-C ) :   1.1590 B(  0-S ,  4-C ) :   1.1488 B(  1-C ,  2-C ) :   1.5896
B(  1-C ,  4-C ) :   0.1019 B(  1-C , 32-H ) :   0.9662 B(  2-C ,  3-C ) :   1.2666
B(  2-C ,  6-C ) :   1.0047 B(  3-C ,  4-C ) :   1.5454 B(  3-C ,  5-H ) :   0.9905
B(  4-C , 20-C ) :   1.0387 B(  6-C ,  7-H ) :   0.9354 B(  6-C ,  8-H ) :   0.9407
B(  6-C ,  9-C ) :   1.0910 B(  9-C , 10-H ) :   0.9434 B(  9-C , 11-H ) :   0.9534
B(  9-C , 12-C ) :   1.0966 B( 12-C , 13-H ) :   0.9736 B( 12-C , 14-H ) :   0.9727
B( 12-C , 15-H ) :   0.9724 B( 16-S , 17-C ) :   1.1324 B( 16-S , 20-C ) :   1.1279
B( 17-C , 18-C ) :   1.6465 B( 17-C , 33-H ) :   0.9690 B( 18-C , 19-C ) :   1.2101
B( 18-C , 21-H ) :   0.9888 B( 19-C , 20-C ) :   1.6550 B( 19-C , 22-C ) :   1.0475
B( 22-C , 23-H ) :   0.9366 B( 22-C , 24-H ) :   0.9276 B( 22-C , 25-C ) :   1.0450
B( 25-C , 26-H ) :   0.9517 B( 25-C , 27-H ) :   0.9606 B( 25-C , 28-C ) :   1.0778
B( 28-C , 29-H ) :   0.9751 B( 28-C , 30-H ) :   0.9761 B( 28-C , 31-H ) :   0.9742

Dispersion correction           -0.013764703
FINAL SINGLE POINT ENERGY     -1339.885460150694

DIPOLE MOMENT
-------------
                                X             Y             Z
Electronic contribution:    -12.64363     -30.29722      -6.58836
Nuclear contribution   :     12.79756      30.99944       6.83434
                        -----------------------------------------
Total Dipole Moment    :      0.15393       0.70222       0.24599
                        -----------------------------------------
Magnitude (a.u.)       :      0.75981
Magnitude (Debye)      :      1.93128

Rotational constants in cm-1:     0.015704     0.009765     0.006474
Rotational constants in MHz :   470.794837   292.752800   194.088338

                             ****ORCA TERMINATED NORMALLY****
TOTAL RUN TIME: 0 days 0 hours 0 minutes 31 seconds 49 msec
