                         Program Version 4.2.1 -  RELEASE  -
|  1> ! wB97X-D3 SP def2-SVP
|  2> %pal
|  3> nprocs 16
|  4> end
|  5>
|  6> * xyz 0 1
|  7> S 	 9.29486 	 -22.948 	 82.6731
|  8> C 	 7.57906 	 -22.7043 	 82.9776
|  9> C 	 6.77532 	 -23.0307 	 81.8834
| 10> C 	 7.5732 	 -23.6381 	 80.8399
| 11> C 	 8.88179 	 -23.5272 	 81.0833
| 12> H 	 7.23762 	 -24.1542 	 79.9476
| 13> C 	 5.25372 	 -22.8611 	 81.7534
| 14> H 	 4.97439 	 -23.7247 	 81.2646
| 15> H 	 5.03555 	 -22.0354 	 81.0186
| 16> C 	 4.33708 	 -22.7298 	 83.0326
| 17> H 	 4.47985 	 -23.5852 	 83.6309
| 18> H 	 4.6527 	 -21.9457 	 83.6645
| 19> C 	 2.89358 	 -22.4102 	 82.7363
| 20> H 	 2.16735 	 -22.4248 	 83.5995
| 21> H 	 2.80032 	 -21.4015 	 82.3073
| 22> H 	 2.40661 	 -23.15 	 82.1026
| 23> S 	 10.1019 	 -25.6333 	 79.794
| 24> C 	 11.5535 	 -25.4043 	 78.7855
| 25> C 	 11.9383 	 -24.0983 	 78.8147
| 26> C 	 11.0539 	 -23.2672 	 79.5564
| 27> C 	 9.98494 	 -23.9542 	 80.2212
| 28> H 	 12.6219 	 -23.7231 	 78.0974
| 29> C 	 11.1596 	 -21.7398 	 79.5128
| 30> H 	 12.1985 	 -21.4659 	 79.6135
| 31> H 	 10.6941 	 -21.3822 	 80.4018
| 32> C 	 10.5228 	 -21.1302 	 78.2896
| 33> H 	 9.53386 	 -21.4543 	 78.253
| 34> H 	 11.0533 	 -21.3272 	 77.4176
| 35> C 	 10.5686 	 -19.6047 	 78.313
| 36> H 	 9.92498 	 -19.2055 	 79.1103
| 37> H 	 10.2392 	 -19.1212 	 77.4308
| 38> H 	 11.519 	 -19.244 	 78.6289
| 39> H 	 7.22359 	 -22.3406 	 83.8713
| 40> H 	 12.0392 	 -26.2199 	 78.2194
| 41> *
| 42>
| 43>                          ****END OF INPUT****

CARTESIAN COORDINATES (ANGSTROEM)
---------------------------------
  S      9.294860  -22.948000   82.673100
  C      7.579060  -22.704300   82.977600
  C      6.775320  -23.030700   81.883400
  C      7.573200  -23.638100   80.839900
  C      8.881790  -23.527200   81.083300
  H      7.237620  -24.154200   79.947600
  C      5.253720  -22.861100   81.753400
  H      4.974390  -23.724700   81.264600
  H      5.035550  -22.035400   81.018600
  C      4.337080  -22.729800   83.032600
  H      4.479850  -23.585200   83.630900
  H      4.652700  -21.945700   83.664500
  C      2.893580  -22.410200   82.736300
  H      2.167350  -22.424800   83.599500
  H      2.800320  -21.401500   82.307300
  H      2.406610  -23.150000   82.102600
  S     10.101900  -25.633300   79.794000
  C     11.553500  -25.404300   78.785500
  C     11.938300  -24.098300   78.814700
  C     11.053900  -23.267200   79.556400
  C      9.984940  -23.954200   80.221200
  H     12.621900  -23.723100   78.097400
  C     11.159600  -21.739800   79.512800
  H     12.198500  -21.465900   79.613500
  H     10.694100  -21.382200   80.401800
  C     10.522800  -21.130200   78.289600
  H      9.533860  -21.454300   78.253000
  H     11.053300  -21.327200   77.417600
  C     10.568600  -19.604700   78.313000
  H      9.924980  -19.205500   79.110300
  H     10.239200  -19.121200   77.430800
  H     11.519000  -19.244000   78.628900
  H      7.223590  -22.340600   83.871300
  H     12.039200  -26.219900   78.219400

 Total Charge           Charge          ....    0
 Multiplicity           Mult            ....    1
 Number of Electrons    NEL             ....  134
 Basis Dimension        Dim             ....  322

ORBITAL ENERGIES
----------------

  NO   OCC          E(Eh)            E(eV)
   0   2.0000     -88.967124     -2420.9185
   1   2.0000     -88.962982     -2420.8058
   2   2.0000     -10.327024      -281.0126
   3   2.0000     -10.326434      -280.9966
   4   2.0000     -10.320089      -280.8239
   5   2.0000     -10.310994      -280.5764
   6   2.0000     -10.309688      -280.5409
   7   2.0000     -10.303418      -280.3703
   8   2.0000     -10.297243      -280.2022
   9   2.0000     -10.294679      -280.1325
  10   2.0000     -10.288908      -279.9754
  11   2.0000     -10.285218      -279.8750
  12   2.0000     -10.284448      -279.8541
  13   2.0000     -10.280415      -279.7443
  14   2.0000     -10.269565      -279.4491
  15   2.0000     -10.266109      -279.3550
  16   2.0000      -8.081825      -219.9176
  17   2.0000      -8.077337      -219.7955
  18   2.0000      -6.040295      -164.3648
  19   2.0000      -6.036501      -164.2615
  20   2.0000      -6.035795      -164.2423
  21   2.0000      -6.032452      -164.1514
  22   2.0000      -6.031748      -164.1322
  23   2.0000      -6.028327      -164.0391
  24   2.0000      -1.007109       -27.4048
  25   2.0000      -0.981924       -26.7195
  26   2.0000      -0.911276       -24.7971
  27   2.0000      -0.909689       -24.7539
  28   2.0000      -0.871624       -23.7181
  29   2.0000      -0.856502       -23.3066
  30   2.0000      -0.844290       -22.9743
  31   2.0000      -0.818933       -22.2843
  32   2.0000      -0.783870       -21.3302
  33   2.0000      -0.766134       -20.8476
  34   2.0000      -0.716842       -19.5063
  35   2.0000      -0.704866       -19.1804
  36   2.0000      -0.693452       -18.8698
  37   2.0000      -0.662636       -18.0313
  38   2.0000      -0.646883       -17.6026
  39   2.0000      -0.613713       -16.7000
  40   2.0000      -0.593417       -16.1477
  41   2.0000      -0.575322       -15.6553
  42   2.0000      -0.572627       -15.5820
  43   2.0000      -0.565836       -15.3972
  44   2.0000      -0.528360       -14.3774
  45   2.0000      -0.521398       -14.1880
  46   2.0000      -0.518297       -14.1036
  47   2.0000      -0.515820       -14.0362
  48   2.0000      -0.506624       -13.7859
  49   2.0000      -0.503809       -13.7093
  50   2.0000      -0.490490       -13.3469
  51   2.0000      -0.480454       -13.0738
  52   2.0000      -0.469149       -12.7662
  53   2.0000      -0.464582       -12.6419
  54   2.0000      -0.458101       -12.4656
  55   2.0000      -0.452539       -12.3142
  56   2.0000      -0.442835       -12.0501
  57   2.0000      -0.437861       -11.9148
  58   2.0000      -0.435640       -11.8544
  59   2.0000      -0.430759       -11.7215
  60   2.0000      -0.421064       -11.4577
  61   2.0000      -0.419260       -11.4086
  62   2.0000      -0.410517       -11.1707
  63   2.0000      -0.343348        -9.3430
  64   2.0000      -0.335975        -9.1424
  65   2.0000      -0.323673        -8.8076
  66   2.0000      -0.296672        -8.0729
  67   0.0000       0.038072         1.0360
  68   0.0000       0.066382         1.8064
  69   0.0000       0.112472         3.0605
  70   0.0000       0.113913         3.0997
  71   0.0000       0.132973         3.6184

MULLIKEN ATOMIC CHARGES
-----------------------
   0 S :    0.123076
   1 C :   -0.100876
   2 C :   -0.082034
   3 C :    0.015170
   4 C :   -0.138472
   5 H :    0.019574
   6 C :    0.075800
   7 H :    0.007751
   8 H :    0.047258
   9 C :   -0.033266
  10 H :    0.020373
  11 H :    0.020782
  12 C :   -0.075464
  13 H :    0.036373
  14 H :    0.038218
  15 H :    0.026682
  16 S :    0.097136
  17 C :   -0.117194
  18 C :    0.009064
  19 C :   -0.079000
  20 C :   -0.162399
  21 H :    0.015306
  22 C :    0.086205
  23 H :    0.012247
  24 H :    0.000476
  25 C :   -0.001120
  26 H :    0.016713
  27 H :    0.009514
  28 C :   -0.023899
  29 H :    0.014583
  30 H :    0.027113
  31 H :    0.009036
  32 H :    0.012647
  33 H :    0.072627
Sum of atomic charges:    0.0000000

LOEWDIN ATOMIC CHARGES
----------------------
   0 S :    0.408604
   1 C :   -0.182054
   2 C :   -0.050905
   3 C :   -0.060194
   4 C :   -0.193819
   5 H :    0.036167
   6 C :   -0.026448
   7 H :    0.020900
   8 H :    0.040956
   9 C :   -0.037459
  10 H :    0.020532
  11 H :    0.019342
  12 C :   -0.070640
  13 H :    0.034196
  14 H :    0.028468
  15 H :    0.022043
  16 S :    0.401262
  17 C :   -0.177194
  18 C :   -0.074122
  19 C :   -0.053674
  20 C :   -0.213411
  21 H :    0.029699
  22 C :   -0.026671
  23 H :    0.025913
  24 H :    0.019742
  25 C :   -0.025051
  26 H :    0.019912
  27 H :    0.016384
  28 C :   -0.058807
  29 H :    0.024360
  30 H :    0.019848
  31 H :    0.018244
  32 H :    0.006628
  33 H :    0.037247

  Mayer bond orders larger than 0.100000
B(  0-S ,  1-C ) :   1.1242 B(  0-S ,  4-C ) :   1.1445 B(  1-C ,  2-C ) :   1.6436
B(  1-C , 32-H ) :   0.9783 B(  2-C ,  3-C ) :   1.1937 B(  2-C ,  6-C ) :   1.0054
B(  3-C ,  4-C ) :   1.6392 B(  3-C ,  5-H ) :   0.9933 B(  4-C , 20-C ) :   0.9993
B(  6-C ,  7-H ) :   0.9355 B(  6-C ,  8-H ) :   0.9391 B(  6-C ,  9-C ) :   1.0620
B(  9-C , 10-H ) :   0.9557 B(  9-C , 11-H ) :   0.9524 B(  9-C , 12-C ) :   1.0875
B( 12-C , 13-H ) :   0.9719 B( 12-C , 14-H ) :   0.9746 B( 12-C , 15-H ) :   0.9765
B( 16-S , 17-C ) :   1.1606 B( 16-S , 20-C ) :   1.1515 B( 17-C , 18-C ) :   1.5900
B( 17-C , 20-C ) :   0.1053 B( 17-C , 33-H ) :   0.9632 B( 18-C , 19-C ) :   1.2758
B( 18-C , 21-H ) :   0.9885 B( 19-C , 20-C ) :   1.5617 B( 19-C , 22-C ) :   1.0523
B( 22-C , 23-H ) :   0.9285 B( 22-C , 24-H ) :   0.9260 B( 22-C , 25-C ) :   1.0795
B( 25-C , 26-H ) :   0.9522 B( 25-C , 27-H ) :   0.9537 B( 25-C , 28-C ) :   1.0884
B( 28-C , 29-H ) :   0.9719 B( 28-C , 30-H ) :   0.9756 B( 28-C , 31-H ) :   0.9706

Dispersion correction           -0.013756810
FINAL SINGLE POINT ENERGY     -1339.870162805772

DIPOLE MOMENT
-------------
                                X             Y             Z
Electronic contribution:     16.32766     -17.83494       3.96318
Nuclear contribution   :    -16.71899      18.11205      -4.21491
                        -----------------------------------------
Total Dipole Moment    :     -0.39133       0.27711      -0.25173
                        -----------------------------------------
Magnitude (a.u.)       :      0.54157
Magnitude (Debye)      :      1.37656

Rotational constants in cm-1:     0.020339     0.007194     0.006217
Rotational constants in MHz :   609.735212   215.657861   186.376153

                             ****ORCA TERMINATED NORMALLY****
TOTAL RUN TIME: 0 days 0 hours 0 minutes 32 seconds 176 msec
