                         Program Version 4.2.1 -  RELEASE  -
|  1> ! wB97X-D3 SP def2-SVP
|  2> %pal
|  3> nprocs 16
|  4> end
|  5>
|  6> * xyz 0 1
|  7> S 	 48.4506 	 10.0893 	 77.933
|  8> C 	 47.8959 	 9.46527 	 79.5154
|  9> C 	 47.7821 	 10.4906 	 80.498
| 10> C 	 48.0916 	 11.7494 	 79.9001
| 11> C 	 48.4933 	 11.7174 	 78.5919
| 12> H 	 48.1372 	 12.7051 	 80.4535
| 13> C 	 47.5945 	 10.3613 	 82.0368
| 14> H 	 47.6524 	 11.382 	 82.503
| 15> H 	 48.4065 	 9.88431 	 82.4038
| 16> C 	 46.2917 	 9.7702 	 82.4921
| 17> H 	 45.4574 	 10.2461 	 82.0434
| 18> H 	 46.348 	 8.81434 	 81.9158
| 19> C 	 45.9685 	 9.45335 	 83.9478
| 20> H 	 46.8021 	 8.87941 	 84.3278
| 21> H 	 45.8859 	 10.4184 	 84.4377
| 22> H 	 44.9799 	 9.01542 	 83.9163
| 23> S 	 50.3939 	 12.5251 	 76.8911
| 24> C 	 50.5604 	 14.2024 	 76.4894
| 25> C 	 49.434 	 14.9114 	 76.9214
| 26> C 	 48.5909 	 14.245 	 77.7926
| 27> C 	 49.0231 	 12.8963 	 77.8671
| 28> H 	 49.2585 	 15.9248 	 76.5469
| 29> C 	 47.3331 	 14.9693 	 78.3777
| 30> H 	 46.763 	 14.2355 	 78.9029
| 31> H 	 46.692 	 15.3499 	 77.5539
| 32> C 	 47.6046 	 16.2144 	 79.3077
| 33> H 	 46.6596 	 16.4392 	 79.7671
| 34> H 	 47.9454 	 17.1195 	 78.8387
| 35> C 	 48.6497 	 15.9868 	 80.4586
| 36> H 	 48.1973 	 15.2591 	 81.1243
| 37> H 	 48.7803 	 16.8622 	 81.1305
| 38> H 	 49.6978 	 15.6769 	 80.0484
| 39> H 	 47.9776 	 8.43191 	 79.766
| 40> H 	 51.2039 	 14.5729 	 75.6981
| 41> *
| 42>
| 43>                          ****END OF INPUT****

CARTESIAN COORDINATES (ANGSTROEM)
---------------------------------
  S     48.450600   10.089300   77.933000
  C     47.895900    9.465270   79.515400
  C     47.782100   10.490600   80.498000
  C     48.091600   11.749400   79.900100
  C     48.493300   11.717400   78.591900
  H     48.137200   12.705100   80.453500
  C     47.594500   10.361300   82.036800
  H     47.652400   11.382000   82.503000
  H     48.406500    9.884310   82.403800
  C     46.291700    9.770200   82.492100
  H     45.457400   10.246100   82.043400
  H     46.348000    8.814340   81.915800
  C     45.968500    9.453350   83.947800
  H     46.802100    8.879410   84.327800
  H     45.885900   10.418400   84.437700
  H     44.979900    9.015420   83.916300
  S     50.393900   12.525100   76.891100
  C     50.560400   14.202400   76.489400
  C     49.434000   14.911400   76.921400
  C     48.590900   14.245000   77.792600
  C     49.023100   12.896300   77.867100
  H     49.258500   15.924800   76.546900
  C     47.333100   14.969300   78.377700
  H     46.763000   14.235500   78.902900
  H     46.692000   15.349900   77.553900
  C     47.604600   16.214400   79.307700
  H     46.659600   16.439200   79.767100
  H     47.945400   17.119500   78.838700
  C     48.649700   15.986800   80.458600
  H     48.197300   15.259100   81.124300
  H     48.780300   16.862200   81.130500
  H     49.697800   15.676900   80.048400
  H     47.977600    8.431910   79.766000
  H     51.203900   14.572900   75.698100

 Total Charge           Charge          ....    0
 Multiplicity           Mult            ....    1
 Number of Electrons    NEL             ....  134
 Basis Dimension        Dim             ....  322

ORBITAL ENERGIES
----------------

  NO   OCC          E(Eh)            E(eV)
   0   2.0000     -88.970984     -2421.0236
   1   2.0000     -88.970193     -2421.0020
   2   2.0000     -10.331294      -281.1288
   3   2.0000     -10.328453      -281.0515
   4   2.0000     -10.318444      -280.7791
   5   2.0000     -10.312994      -280.6308
   6   2.0000     -10.310202      -280.5549
   7   2.0000     -10.306803      -280.4624
   8   2.0000     -10.303248      -280.3656
   9   2.0000     -10.291615      -280.0491
  10   2.0000     -10.290831      -280.0278
  11   2.0000     -10.290715      -280.0246
  12   2.0000     -10.290635      -280.0224
  13   2.0000     -10.286525      -279.9106
  14   2.0000     -10.279335      -279.7149
  15   2.0000     -10.278381      -279.6890
  16   2.0000      -8.085465      -220.0167
  17   2.0000      -8.084650      -219.9945
  18   2.0000      -6.043685      -164.4570
  19   2.0000      -6.043294      -164.4464
  20   2.0000      -6.039978      -164.3561
  21   2.0000      -6.039374      -164.3397
  22   2.0000      -6.036420      -164.2593
  23   2.0000      -6.035276      -164.2282
  24   2.0000      -1.008007       -27.4293
  25   2.0000      -0.980748       -26.6875
  26   2.0000      -0.914574       -24.8868
  27   2.0000      -0.901597       -24.5337
  28   2.0000      -0.865154       -23.5420
  29   2.0000      -0.851053       -23.1583
  30   2.0000      -0.847642       -23.0655
  31   2.0000      -0.809922       -22.0391
  32   2.0000      -0.786339       -21.3974
  33   2.0000      -0.774651       -21.0793
  34   2.0000      -0.703082       -19.1318
  35   2.0000      -0.699095       -19.0233
  36   2.0000      -0.688484       -18.7346
  37   2.0000      -0.660217       -17.9654
  38   2.0000      -0.639535       -17.4026
  39   2.0000      -0.617620       -16.8063
  40   2.0000      -0.595758       -16.2114
  41   2.0000      -0.567373       -15.4390
  42   2.0000      -0.559018       -15.2117
  43   2.0000      -0.547922       -14.9097
  44   2.0000      -0.541139       -14.7251
  45   2.0000      -0.535355       -14.5677
  46   2.0000      -0.520074       -14.1519
  47   2.0000      -0.506185       -13.7740
  48   2.0000      -0.499636       -13.5958
  49   2.0000      -0.494088       -13.4448
  50   2.0000      -0.490980       -13.3602
  51   2.0000      -0.476612       -12.9693
  52   2.0000      -0.472114       -12.8469
  53   2.0000      -0.462289       -12.5795
  54   2.0000      -0.461440       -12.5564
  55   2.0000      -0.449286       -12.2257
  56   2.0000      -0.447134       -12.1671
  57   2.0000      -0.440267       -11.9803
  58   2.0000      -0.437652       -11.9091
  59   2.0000      -0.425227       -11.5710
  60   2.0000      -0.424111       -11.5407
  61   2.0000      -0.418325       -11.3832
  62   2.0000      -0.397637       -10.8202
  63   2.0000      -0.347304        -9.4506
  64   2.0000      -0.337373        -9.1804
  65   2.0000      -0.333102        -9.0642
  66   2.0000      -0.284404        -7.7390
  67   0.0000       0.022953         0.6246
  68   0.0000       0.066994         1.8230
  69   0.0000       0.104653         2.8477
  70   0.0000       0.118647         3.2285
  71   0.0000       0.131385         3.5752

MULLIKEN ATOMIC CHARGES
-----------------------
   0 S :    0.105982
   1 C :   -0.125876
   2 C :   -0.087585
   3 C :   -0.006798
   4 C :   -0.117881
   5 H :    0.014292
   6 C :    0.123546
   7 H :    0.013442
   8 H :    0.008684
   9 C :   -0.140078
  10 H :    0.018065
  11 H :    0.013896
  12 C :    0.011524
  13 H :    0.036365
  14 H :    0.026599
  15 H :    0.044264
  16 S :    0.119658
  17 C :   -0.093707
  18 C :   -0.059210
  19 C :   -0.024632
  20 C :   -0.182369
  21 H :    0.022292
  22 C :    0.083485
  23 H :    0.017513
  24 H :    0.048909
  25 C :   -0.066545
  26 H :    0.026781
  27 H :    0.030619
  28 C :   -0.110792
  29 H :    0.030763
  30 H :    0.037817
  31 H :    0.070037
  32 H :    0.050785
  33 H :    0.060155
Sum of atomic charges:   -0.0000000

LOEWDIN ATOMIC CHARGES
----------------------
   0 S :    0.387214
   1 C :   -0.193297
   2 C :   -0.045576
   3 C :   -0.074446
   4 C :   -0.194080
   5 H :    0.033924
   6 C :   -0.021147
   7 H :    0.029625
   8 H :    0.016234
   9 C :   -0.051904
  10 H :    0.018573
  11 H :    0.022619
  12 C :   -0.054334
  13 H :    0.026507
  14 H :    0.024198
  15 H :    0.034127
  16 S :    0.436618
  17 C :   -0.208246
  18 C :   -0.066203
  19 C :   -0.062999
  20 C :   -0.195770
  21 H :    0.032479
  22 C :   -0.021680
  23 H :    0.024857
  24 H :    0.042135
  25 C :   -0.038320
  26 H :    0.024187
  27 H :    0.019156
  28 C :   -0.080533
  29 H :    0.018119
  30 H :    0.028359
  31 H :    0.040998
  32 H :    0.020283
  33 H :    0.028323

  Mayer bond orders larger than 0.100000
B(  0-S ,  1-C ) :   1.1299 B(  0-S ,  4-C ) :   1.1415 B(  1-C ,  2-C ) :   1.6017
B(  1-C , 32-H ) :   0.9661 B(  2-C ,  3-C ) :   1.2606 B(  2-C ,  6-C ) :   1.0065
B(  3-C ,  4-C ) :   1.5844 B(  3-C ,  5-H ) :   0.9854 B(  4-C , 20-C ) :   1.0311
B(  6-C ,  7-H ) :   0.9401 B(  6-C ,  8-H ) :   0.9349 B(  6-C ,  9-C ) :   1.0574
B(  9-C , 10-H ) :   0.9571 B(  9-C , 11-H ) :   0.9561 B(  9-C , 12-C ) :   1.0807
B( 12-C , 13-H ) :   0.9740 B( 12-C , 14-H ) :   0.9737 B( 12-C , 15-H ) :   0.9703
B( 16-S , 17-C ) :   1.1591 B( 16-S , 20-C ) :   1.1897 B( 17-C , 18-C ) :   1.5745
B( 17-C , 20-C ) :   0.1134 B( 17-C , 33-H ) :   0.9665 B( 18-C , 19-C ) :   1.2889
B( 18-C , 21-H ) :   0.9838 B( 19-C , 20-C ) :   1.5281 B( 19-C , 22-C ) :   1.0331
B( 22-C , 23-H ) :   0.9343 B( 22-C , 24-H ) :   0.9419 B( 22-C , 25-C ) :   1.0594
B( 25-C , 26-H ) :   0.9573 B( 25-C , 27-H ) :   0.9613 B( 25-C , 28-C ) :   1.0735
B( 28-C , 29-H ) :   0.9747 B( 28-C , 30-H ) :   0.9729 B( 28-C , 31-H ) :   0.9704

Dispersion correction           -0.014047797
FINAL SINGLE POINT ENERGY     -1339.857552608756

DIPOLE MOMENT
-------------
                                X             Y             Z
Electronic contribution:     13.26572      -9.07585     -25.47822
Nuclear contribution   :    -13.49936       9.46371      25.89012
                        -----------------------------------------
Total Dipole Moment    :     -0.23365       0.38786       0.41190
                        -----------------------------------------
Magnitude (a.u.)       :      0.61212
Magnitude (Debye)      :      1.55588

Rotational constants in cm-1:     0.019045     0.008205     0.006130
Rotational constants in MHz :   570.965362   245.980796   183.766822

                             ****ORCA TERMINATED NORMALLY****
TOTAL RUN TIME: 0 days 0 hours 0 minutes 27 seconds 814 msec
