                         Program Version 4.2.1 -  RELEASE  -
|  1> ! wB97X-D3 SP def2-SVP
|  2> %pal
|  3> nprocs 16
|  4> end
|  5>
|  6> * xyz 0 1
|  7> S 	 9.13727 	 -24.6772 	 85.0392
|  8> C 	 7.67172 	 -24.4638 	 86.0009
|  9> C 	 6.57479 	 -24.6648 	 85.1611
| 10> C 	 6.88597 	 -24.9532 	 83.8028
| 11> C 	 8.23065 	 -24.9034 	 83.5407
| 12> H 	 6.10877 	 -25.1465 	 83.0015
| 13> C 	 5.13129 	 -24.7072 	 85.6008
| 14> H 	 5.14551 	 -25.2388 	 86.5706
| 15> H 	 4.45574 	 -25.3378 	 84.9397
| 16> C 	 4.35782 	 -23.4418 	 85.7773
| 17> H 	 4.7014 	 -23.008 	 86.7498
| 18> H 	 4.59869 	 -22.668 	 85.0418
| 19> C 	 2.8321 	 -23.6195 	 85.8601
| 20> H 	 2.35695 	 -22.6616 	 85.9415
| 21> H 	 2.39062 	 -24.3223 	 85.1254
| 22> H 	 2.66517 	 -23.9375 	 86.8989
| 23> S 	 8.23135 	 -26.3156 	 81.2212
| 24> C 	 9.3223 	 -25.9106 	 79.9549
| 25> C 	 10.2798 	 -25.0984 	 80.4612
| 26> C 	 10.1079 	 -24.513 	 81.759
| 27> C 	 8.92117 	 -25.0532 	 82.2794
| 28> H 	 11.0445 	 -24.8595 	 79.7511
| 29> C 	 11.2298 	 -23.6685 	 82.4531
| 30> H 	 12.239 	 -23.6085 	 81.8922
| 31> H 	 11.5618 	 -24.2532 	 83.2957
| 32> C 	 10.6566 	 -22.335 	 82.9257
| 33> H 	 11.5242 	 -22.0129 	 83.529
| 34> H 	 9.77737 	 -22.5054 	 83.5714
| 35> C 	 10.2317 	 -21.2799 	 81.8835
| 36> H 	 9.73567 	 -20.4376 	 82.4185
| 37> H 	 9.37767 	 -21.5235 	 81.2681
| 38> H 	 11.0836 	 -20.8193 	 81.3384
| 39> H 	 7.63011 	 -24.3268 	 87.0159
| 40> H 	 9.43369 	 -26.4281 	 79.0366
| 41> *
| 42>
| 43>                          ****END OF INPUT****

CARTESIAN COORDINATES (ANGSTROEM)
---------------------------------
  S      9.137270  -24.677200   85.039200
  C      7.671720  -24.463800   86.000900
  C      6.574790  -24.664800   85.161100
  C      6.885970  -24.953200   83.802800
  C      8.230650  -24.903400   83.540700
  H      6.108770  -25.146500   83.001500
  C      5.131290  -24.707200   85.600800
  H      5.145510  -25.238800   86.570600
  H      4.455740  -25.337800   84.939700
  C      4.357820  -23.441800   85.777300
  H      4.701400  -23.008000   86.749800
  H      4.598690  -22.668000   85.041800
  C      2.832100  -23.619500   85.860100
  H      2.356950  -22.661600   85.941500
  H      2.390620  -24.322300   85.125400
  H      2.665170  -23.937500   86.898900
  S      8.231350  -26.315600   81.221200
  C      9.322300  -25.910600   79.954900
  C     10.279800  -25.098400   80.461200
  C     10.107900  -24.513000   81.759000
  C      8.921170  -25.053200   82.279400
  H     11.044500  -24.859500   79.751100
  C     11.229800  -23.668500   82.453100
  H     12.239000  -23.608500   81.892200
  H     11.561800  -24.253200   83.295700
  C     10.656600  -22.335000   82.925700
  H     11.524200  -22.012900   83.529000
  H      9.777370  -22.505400   83.571400
  C     10.231700  -21.279900   81.883500
  H      9.735670  -20.437600   82.418500
  H      9.377670  -21.523500   81.268100
  H     11.083600  -20.819300   81.338400
  H      7.630110  -24.326800   87.015900
  H      9.433690  -26.428100   79.036600

 Total Charge           Charge          ....    0
 Multiplicity           Mult            ....    1
 Number of Electrons    NEL             ....  134
 Basis Dimension        Dim             ....  322

ORBITAL ENERGIES
----------------

  NO   OCC          E(Eh)            E(eV)
   0   2.0000     -88.967989     -2420.9421
   1   2.0000     -88.963333     -2420.8154
   2   2.0000     -10.331803      -281.1426
   3   2.0000     -10.331179      -281.1257
   4   2.0000     -10.314061      -280.6599
   5   2.0000     -10.309816      -280.5444
   6   2.0000     -10.307272      -280.4751
   7   2.0000     -10.303496      -280.3724
   8   2.0000     -10.303097      -280.3615
   9   2.0000     -10.297188      -280.2007
  10   2.0000     -10.292034      -280.0605
  11   2.0000     -10.285618      -279.8859
  12   2.0000     -10.285490      -279.8824
  13   2.0000     -10.284734      -279.8618
  14   2.0000     -10.279910      -279.7306
  15   2.0000     -10.276527      -279.6385
  16   2.0000      -8.081646      -219.9128
  17   2.0000      -8.078118      -219.8168
  18   2.0000      -6.040308      -164.3651
  19   2.0000      -6.036682      -164.2665
  20   2.0000      -6.036225      -164.2540
  21   2.0000      -6.032703      -164.1582
  22   2.0000      -6.032384      -164.1495
  23   2.0000      -6.028726      -164.0500
  24   2.0000      -1.006829       -27.3972
  25   2.0000      -0.984188       -26.7811
  26   2.0000      -0.913827       -24.8665
  27   2.0000      -0.903667       -24.5900
  28   2.0000      -0.872172       -23.7330
  29   2.0000      -0.849817       -23.1247
  30   2.0000      -0.841580       -22.9006
  31   2.0000      -0.813426       -22.1344
  32   2.0000      -0.786969       -21.4145
  33   2.0000      -0.774832       -21.0843
  34   2.0000      -0.710611       -19.3367
  35   2.0000      -0.696458       -18.9516
  36   2.0000      -0.684963       -18.6388
  37   2.0000      -0.662821       -18.0363
  38   2.0000      -0.635754       -17.2998
  39   2.0000      -0.617165       -16.7939
  40   2.0000      -0.597159       -16.2495
  41   2.0000      -0.573723       -15.6118
  42   2.0000      -0.561979       -15.2922
  43   2.0000      -0.553449       -15.0601
  44   2.0000      -0.536467       -14.5980
  45   2.0000      -0.522518       -14.2184
  46   2.0000      -0.518069       -14.0974
  47   2.0000      -0.509338       -13.8598
  48   2.0000      -0.505286       -13.7495
  49   2.0000      -0.501203       -13.6384
  50   2.0000      -0.489942       -13.3320
  51   2.0000      -0.478003       -13.0071
  52   2.0000      -0.473925       -12.8962
  53   2.0000      -0.467897       -12.7321
  54   2.0000      -0.458741       -12.4830
  55   2.0000      -0.447549       -12.1784
  56   2.0000      -0.440701       -11.9921
  57   2.0000      -0.434903       -11.8343
  58   2.0000      -0.427317       -11.6279
  59   2.0000      -0.417012       -11.3475
  60   2.0000      -0.415849       -11.3158
  61   2.0000      -0.404203       -10.9989
  62   2.0000      -0.401812       -10.9338
  63   2.0000      -0.355161        -9.6644
  64   2.0000      -0.330604        -8.9962
  65   2.0000      -0.328726        -8.9451
  66   2.0000      -0.287521        -7.8238
  67   0.0000       0.019638         0.5344
  68   0.0000       0.079711         2.1691
  69   0.0000       0.102547         2.7905
  70   0.0000       0.110716         3.0127
  71   0.0000       0.131695         3.5836

MULLIKEN ATOMIC CHARGES
-----------------------
   0 S :    0.091189
   1 C :   -0.076471
   2 C :   -0.063433
   3 C :   -0.003445
   4 C :   -0.135332
   5 H :    0.044667
   6 C :    0.017540
   7 H :    0.028626
   8 H :    0.023674
   9 C :   -0.080203
  10 H :    0.019997
  11 H :    0.031152
  12 C :   -0.042698
  13 H :    0.027933
  14 H :    0.051740
  15 H :    0.020624
  16 S :    0.097210
  17 C :   -0.071311
  18 C :   -0.055588
  19 C :   -0.006520
  20 C :   -0.151902
  21 H :    0.007449
  22 C :    0.041375
  23 H :    0.040908
  24 H :    0.037325
  25 C :   -0.091418
  26 H :    0.028621
  27 H :    0.051214
  28 C :   -0.045038
  29 H :    0.024124
  30 H :    0.037083
  31 H :    0.038882
  32 H :    0.014945
  33 H :    0.047082
Sum of atomic charges:    0.0000000

LOEWDIN ATOMIC CHARGES
----------------------
   0 S :    0.409447
   1 C :   -0.180703
   2 C :   -0.057892
   3 C :   -0.074535
   4 C :   -0.187435
   5 H :    0.043925
   6 C :   -0.043768
   7 H :    0.033514
   8 H :    0.032248
   9 C :   -0.048614
  10 H :    0.025003
  11 H :    0.021019
  12 C :   -0.069971
  13 H :    0.027659
  14 H :    0.029228
  15 H :    0.028966
  16 S :    0.405517
  17 C :   -0.194787
  18 C :   -0.072236
  19 C :   -0.052675
  20 C :   -0.182292
  21 H :    0.024827
  22 C :   -0.036656
  23 H :    0.042257
  24 H :    0.027955
  25 C :   -0.050024
  26 H :    0.028444
  27 H :    0.021408
  28 C :   -0.076441
  29 H :    0.032734
  30 H :    0.027465
  31 H :    0.027260
  32 H :    0.012097
  33 H :    0.027057

  Mayer bond orders larger than 0.100000
B(  0-S ,  1-C ) :   1.1223 B(  0-S ,  4-C ) :   1.1473 B(  1-C ,  2-C ) :   1.5950
B(  1-C , 32-H ) :   0.9865 B(  2-C ,  3-C ) :   1.2577 B(  2-C ,  6-C ) :   1.0181
B(  3-C ,  4-C ) :   1.5526 B(  3-C ,  5-H ) :   0.9814 B(  4-C , 20-C ) :   1.0575
B(  6-C ,  7-H ) :   0.9385 B(  6-C ,  8-H ) :   0.9510 B(  6-C ,  9-C ) :   1.0588
B(  9-C , 10-H ) :   0.9523 B(  9-C , 11-H ) :   0.9601 B(  9-C , 12-C ) :   1.0838
B( 12-C , 13-H ) :   0.9693 B( 12-C , 14-H ) :   0.9741 B( 12-C , 15-H ) :   0.9739
B( 16-S , 17-C ) :   1.1331 B( 16-S , 20-C ) :   1.1552 B( 17-C , 18-C ) :   1.6371
B( 17-C , 33-H ) :   0.9686 B( 18-C , 19-C ) :   1.2247 B( 18-C , 21-H ) :   0.9841
B( 19-C , 20-C ) :   1.5591 B( 19-C , 22-C ) :   1.0122 B( 22-C , 23-H ) :   0.9446
B( 22-C , 24-H ) :   0.9386 B( 22-C , 25-C ) :   1.0590 B( 25-C , 26-H ) :   0.9543
B( 25-C , 27-H ) :   0.9516 B( 25-C , 28-C ) :   1.0831 B( 28-C , 29-H ) :   0.9687
B( 28-C , 30-H ) :   0.9701 B( 28-C , 31-H ) :   0.9755

Dispersion correction           -0.014168784
FINAL SINGLE POINT ENERGY     -1339.860684772351

DIPOLE MOMENT
-------------
                                X             Y             Z
Electronic contribution:     10.39256     -16.20897      -6.55256
Nuclear contribution   :    -10.44948      16.39447       6.67543
                        -----------------------------------------
Total Dipole Moment    :     -0.05692       0.18550       0.12287
                        -----------------------------------------
Magnitude (a.u.)       :      0.22967
Magnitude (Debye)      :      0.58378

Rotational constants in cm-1:     0.020509     0.007924     0.006850
Rotational constants in MHz :   614.847238   237.548619   205.353401

                             ****ORCA TERMINATED NORMALLY****
TOTAL RUN TIME: 0 days 0 hours 0 minutes 31 seconds 855 msec
