                         Program Version 4.2.1 -  RELEASE  -
|  1> ! wB97X-D3 SP def2-SVP
|  2> %pal
|  3> nprocs 16
|  4> end
|  5>
|  6> * xyz 0 1
|  7> S 	 -48.079 	 10.3631 	 79.5652
|  8> C 	 -46.5346 	 10.5693 	 80.391
|  9> C 	 -46.7091 	 11.4441 	 81.4318
| 10> C 	 -47.9128 	 12.202 	 81.3924
| 11> C 	 -48.7575 	 11.6996 	 80.4414
| 12> H 	 -48.3082 	 12.954 	 82.0745
| 13> C 	 -45.6446 	 11.8068 	 82.4016
| 14> H 	 -45.8046 	 12.9022 	 82.4897
| 15> H 	 -44.7287 	 11.4834 	 81.9278
| 16> C 	 -45.7765 	 11.2726 	 83.8787
| 17> H 	 -45.2912 	 12.0397 	 84.4872
| 18> H 	 -46.8127 	 11.3022 	 84.1304
| 19> C 	 -45.0924 	 9.92155 	 84.0236
| 20> H 	 -44.041 	 10.0906 	 84.2734
| 21> H 	 -45.3747 	 9.26917 	 84.9127
| 22> H 	 -45.2176 	 9.40092 	 83.1116
| 23> S 	 -50.6126 	 12.5241 	 78.5131
| 24> C 	 -52.0465 	 13.224 	 79.1851
| 25> C 	 -52.2483 	 13.109 	 80.504
| 26> C 	 -51.1273 	 12.4587 	 81.1303
| 27> C 	 -50.1505 	 12.1071 	 80.1877
| 28> H 	 -53.0862 	 13.4952 	 81.0259
| 29> C 	 -51.0946 	 12.1089 	 82.6351
| 30> H 	 -52.0434 	 12.5152 	 82.9554
| 31> H 	 -50.4424 	 12.78 	 83.2187
| 32> C 	 -50.8214 	 10.6052 	 82.8668
| 33> H 	 -50.9051 	 10.4159 	 83.9332
| 34> H 	 -49.8314 	 10.3571 	 82.5993
| 35> C 	 -51.6646 	 9.66768 	 82.1088
| 36> H 	 -51.7057 	 8.68239 	 82.6092
| 37> H 	 -51.357 	 9.64696 	 81.0563
| 38> H 	 -52.6606 	 10.0291 	 82.0864
| 39> H 	 -45.6887 	 9.91451 	 80.4267
| 40> H 	 -52.8466 	 13.5817 	 78.5355
| 41> *
| 42>
| 43>                          ****END OF INPUT****

CARTESIAN COORDINATES (ANGSTROEM)
---------------------------------
  S    -48.079000   10.363100   79.565200
  C    -46.534600   10.569300   80.391000
  C    -46.709100   11.444100   81.431800
  C    -47.912800   12.202000   81.392400
  C    -48.757500   11.699600   80.441400
  H    -48.308200   12.954000   82.074500
  C    -45.644600   11.806800   82.401600
  H    -45.804600   12.902200   82.489700
  H    -44.728700   11.483400   81.927800
  C    -45.776500   11.272600   83.878700
  H    -45.291200   12.039700   84.487200
  H    -46.812700   11.302200   84.130400
  C    -45.092400    9.921550   84.023600
  H    -44.041000   10.090600   84.273400
  H    -45.374700    9.269170   84.912700
  H    -45.217600    9.400920   83.111600
  S    -50.612600   12.524100   78.513100
  C    -52.046500   13.224000   79.185100
  C    -52.248300   13.109000   80.504000
  C    -51.127300   12.458700   81.130300
  C    -50.150500   12.107100   80.187700
  H    -53.086200   13.495200   81.025900
  C    -51.094600   12.108900   82.635100
  H    -52.043400   12.515200   82.955400
  H    -50.442400   12.780000   83.218700
  C    -50.821400   10.605200   82.866800
  H    -50.905100   10.415900   83.933200
  H    -49.831400   10.357100   82.599300
  C    -51.664600    9.667680   82.108800
  H    -51.705700    8.682390   82.609200
  H    -51.357000    9.646960   81.056300
  H    -52.660600   10.029100   82.086400
  H    -45.688700    9.914510   80.426700
  H    -52.846600   13.581700   78.535500

 Total Charge           Charge          ....    0
 Multiplicity           Mult            ....    1
 Number of Electrons    NEL             ....  134
 Basis Dimension        Dim             ....  322

ORBITAL ENERGIES
----------------

  NO   OCC          E(Eh)            E(eV)
   0   2.0000     -88.968219     -2420.9483
   1   2.0000     -88.965196     -2420.8661
   2   2.0000     -10.327069      -281.0138
   3   2.0000     -10.326848      -281.0078
   4   2.0000     -10.314234      -280.6646
   5   2.0000     -10.308544      -280.5097
   6   2.0000     -10.307104      -280.4706
   7   2.0000     -10.297446      -280.2078
   8   2.0000     -10.295471      -280.1540
   9   2.0000     -10.290642      -280.0226
  10   2.0000     -10.289605      -279.9944
  11   2.0000     -10.288937      -279.9762
  12   2.0000     -10.286915      -279.9212
  13   2.0000     -10.279885      -279.7299
  14   2.0000     -10.275295      -279.6050
  15   2.0000     -10.264078      -279.2998
  16   2.0000      -8.082992      -219.9494
  17   2.0000      -8.079898      -219.8652
  18   2.0000      -6.041349      -164.3935
  19   2.0000      -6.038437      -164.3142
  20   2.0000      -6.037741      -164.2953
  21   2.0000      -6.034509      -164.2073
  22   2.0000      -6.033652      -164.1840
  23   2.0000      -6.030528      -164.0990
  24   2.0000      -1.008408       -27.4402
  25   2.0000      -0.987234       -26.8640
  26   2.0000      -0.913439       -24.8559
  27   2.0000      -0.912383       -24.8272
  28   2.0000      -0.869132       -23.6503
  29   2.0000      -0.854442       -23.2506
  30   2.0000      -0.848684       -23.0939
  31   2.0000      -0.816717       -22.2240
  32   2.0000      -0.785589       -21.3770
  33   2.0000      -0.771992       -21.0070
  34   2.0000      -0.711985       -19.3741
  35   2.0000      -0.702351       -19.1119
  36   2.0000      -0.687342       -18.7035
  37   2.0000      -0.662324       -18.0228
  38   2.0000      -0.638188       -17.3660
  39   2.0000      -0.617011       -16.7897
  40   2.0000      -0.597062       -16.2469
  41   2.0000      -0.570106       -15.5134
  42   2.0000      -0.556111       -15.1325
  43   2.0000      -0.553417       -15.0593
  44   2.0000      -0.549263       -14.9462
  45   2.0000      -0.535590       -14.5742
  46   2.0000      -0.518588       -14.1115
  47   2.0000      -0.510974       -13.9043
  48   2.0000      -0.497719       -13.5436
  49   2.0000      -0.491789       -13.3823
  50   2.0000      -0.488253       -13.2860
  51   2.0000      -0.484223       -13.1764
  52   2.0000      -0.470464       -12.8020
  53   2.0000      -0.467851       -12.7309
  54   2.0000      -0.458569       -12.4783
  55   2.0000      -0.452188       -12.3047
  56   2.0000      -0.446960       -12.1624
  57   2.0000      -0.437532       -11.9059
  58   2.0000      -0.434857       -11.8331
  59   2.0000      -0.424757       -11.5582
  60   2.0000      -0.420920       -11.4538
  61   2.0000      -0.412729       -11.2309
  62   2.0000      -0.410470       -11.1695
  63   2.0000      -0.347976        -9.4689
  64   2.0000      -0.334396        -9.0994
  65   2.0000      -0.327641        -8.9156
  66   2.0000      -0.293281        -7.9806
  67   0.0000       0.027486         0.7479
  68   0.0000       0.071702         1.9511
  69   0.0000       0.102753         2.7961
  70   0.0000       0.117959         3.2098
  71   0.0000       0.124618         3.3910

MULLIKEN ATOMIC CHARGES
-----------------------
   0 S :    0.100291
   1 C :   -0.089376
   2 C :   -0.111331
   3 C :    0.025217
   4 C :   -0.147556
   5 H :    0.015805
   6 C :    0.014933
   7 H :    0.034373
   8 H :    0.020329
   9 C :   -0.025484
  10 H :    0.028254
  11 H :    0.017924
  12 C :   -0.056733
  13 H :    0.032664
  14 H :    0.041115
  15 H :    0.027520
  16 S :    0.117615
  17 C :   -0.073493
  18 C :   -0.015065
  19 C :   -0.087449
  20 C :   -0.167735
  21 H :    0.007558
  22 C :    0.095596
  23 H :   -0.003693
  24 H :    0.031188
  25 C :   -0.043861
  26 H :    0.021703
  27 H :    0.030212
  28 C :   -0.017546
  29 H :    0.038795
  30 H :    0.039901
  31 H :    0.003640
  32 H :    0.040362
  33 H :    0.054324
Sum of atomic charges:   -0.0000000

LOEWDIN ATOMIC CHARGES
----------------------
   0 S :    0.398152
   1 C :   -0.205667
   2 C :   -0.061521
   3 C :   -0.070430
   4 C :   -0.185541
   5 H :    0.036104
   6 C :   -0.030743
   7 H :    0.039175
   8 H :    0.026648
   9 C :   -0.033994
  10 H :    0.024366
  11 H :    0.017875
  12 C :   -0.070720
  13 H :    0.029119
  14 H :    0.034309
  15 H :    0.017219
  16 S :    0.398366
  17 C :   -0.178988
  18 C :   -0.071909
  19 C :   -0.045901
  20 C :   -0.199009
  21 H :    0.029282
  22 C :   -0.030154
  23 H :    0.025325
  24 H :    0.031776
  25 C :   -0.038794
  26 H :    0.023908
  27 H :    0.022215
  28 C :   -0.062616
  29 H :    0.032970
  30 H :    0.029224
  31 H :    0.016240
  32 H :    0.025281
  33 H :    0.028431

  Mayer bond orders larger than 0.100000
B(  0-S ,  1-C ) :   1.1043 B(  0-S ,  4-C ) :   1.1646 B(  1-C ,  2-C ) :   1.6378
B(  1-C , 32-H ) :   0.9622 B(  2-C ,  3-C ) :   1.2032 B(  2-C ,  6-C ) :   1.0339
B(  3-C ,  4-C ) :   1.6056 B(  3-C ,  5-H ) :   0.9900 B(  4-C , 20-C ) :   1.0175
B(  6-C ,  7-H ) :   0.9381 B(  6-C ,  8-H ) :   0.9483 B(  6-C ,  9-C ) :   1.0550
B(  9-C , 10-H ) :   0.9620 B(  9-C , 11-H ) :   0.9572 B(  9-C , 12-C ) :   1.0651
B( 12-C , 13-H ) :   0.9750 B( 12-C , 14-H ) :   0.9735 B( 12-C , 15-H ) :   0.9809
B( 16-S , 17-C ) :   1.1519 B( 16-S , 20-C ) :   1.1280 B( 17-C , 18-C ) :   1.6411
B( 17-C , 33-H ) :   0.9556 B( 18-C , 19-C ) :   1.2298 B( 18-C , 21-H ) :   0.9934
B( 19-C , 20-C ) :   1.6116 B( 19-C , 22-C ) :   1.0213 B( 22-C , 23-H ) :   0.9280
B( 22-C , 24-H ) :   0.9326 B( 22-C , 25-C ) :   1.0644 B( 25-C , 26-H ) :   0.9541
B( 25-C , 27-H ) :   0.9493 B( 25-C , 28-C ) :   1.0942 B( 28-C , 29-H ) :   0.9695
B( 28-C , 30-H ) :   0.9636 B( 28-C , 31-H ) :   0.9740

Dispersion correction           -0.016035344
FINAL SINGLE POINT ENERGY     -1339.868802876533

DIPOLE MOMENT
-------------
                                X             Y             Z
Electronic contribution:     -6.37936       6.23045     -25.12335
Nuclear contribution   :      6.26737      -6.06378      25.88377
                        -----------------------------------------
Total Dipole Moment    :     -0.11199       0.16667       0.76042
                        -----------------------------------------
Magnitude (a.u.)       :      0.78649
Magnitude (Debye)      :      1.99909

Rotational constants in cm-1:     0.022628     0.008937     0.007645
Rotational constants in MHz :   678.380716   267.920808   229.195365

                             ****ORCA TERMINATED NORMALLY****
TOTAL RUN TIME: 0 days 0 hours 0 minutes 32 seconds 923 msec
