                         Program Version 4.2.1 -  RELEASE  -
|  1> ! wB97X-D3 SP def2-SVP
|  2> %pal
|  3> nprocs 16
|  4> end
|  5>
|  6> * xyz 0 1
|  7> S 	 13.4641 	 24.44 	 65.3827
|  8> C 	 13.5517 	 25.6904 	 64.1874
|  9> C 	 13.6342 	 26.9075 	 64.8002
| 10> C 	 13.7753 	 26.861 	 66.2375
| 11> C 	 13.8203 	 25.5531 	 66.728
| 12> H 	 13.9038 	 27.6593 	 66.9439
| 13> C 	 13.788 	 28.285 	 64.1333
| 14> H 	 13.1693 	 29.0494 	 64.7163
| 15> H 	 13.3356 	 28.2065 	 63.125
| 16> C 	 15.1946 	 28.8394 	 64.0125
| 17> H 	 15.1353 	 29.614 	 63.3299
| 18> H 	 15.4979 	 29.2631 	 64.9547
| 19> C 	 16.3252 	 27.8752 	 63.5198
| 20> H 	 16.2446 	 27.5171 	 62.5409
| 21> H 	 17.3458 	 28.3131 	 63.4529
| 22> H 	 16.3775 	 26.9713 	 64.1505
| 23> S 	 12.6912 	 24.4059 	 69.0458
| 24> C 	 13.6052 	 24.3895 	 70.5088
| 25> C 	 14.7665 	 25.0555 	 70.2915
| 26> C 	 14.9626 	 25.5247 	 68.9634
| 27> C 	 13.9375 	 25.1829 	 68.1216
| 28> H 	 15.4073 	 25.2436 	 71.1596
| 29> C 	 16.2455 	 26.266 	 68.6034
| 30> H 	 16.2891 	 26.6304 	 67.5941
| 31> H 	 17.0533 	 25.5131 	 68.6548
| 32> C 	 16.6034 	 27.4455 	 69.5888
| 33> H 	 17.6812 	 27.5422 	 69.8236
| 34> H 	 15.9757 	 27.2838 	 70.5135
| 35> C 	 16.2511 	 28.8255 	 68.9859
| 36> H 	 15.2217 	 29.11 	 69.093
| 37> H 	 16.6308 	 29.0396 	 67.964
| 38> H 	 16.7647 	 29.6291 	 69.4845
| 39> H 	 13.2546 	 25.5271 	 63.0892
| 40> H 	 13.2101 	 24.0125 	 71.398
| 41> *
| 42>
| 43>                          ****END OF INPUT****

CARTESIAN COORDINATES (ANGSTROEM)
---------------------------------
  S     13.464100   24.440000   65.382700
  C     13.551700   25.690400   64.187400
  C     13.634200   26.907500   64.800200
  C     13.775300   26.861000   66.237500
  C     13.820300   25.553100   66.728000
  H     13.903800   27.659300   66.943900
  C     13.788000   28.285000   64.133300
  H     13.169300   29.049400   64.716300
  H     13.335600   28.206500   63.125000
  C     15.194600   28.839400   64.012500
  H     15.135300   29.614000   63.329900
  H     15.497900   29.263100   64.954700
  C     16.325200   27.875200   63.519800
  H     16.244600   27.517100   62.540900
  H     17.345800   28.313100   63.452900
  H     16.377500   26.971300   64.150500
  S     12.691200   24.405900   69.045800
  C     13.605200   24.389500   70.508800
  C     14.766500   25.055500   70.291500
  C     14.962600   25.524700   68.963400
  C     13.937500   25.182900   68.121600
  H     15.407300   25.243600   71.159600
  C     16.245500   26.266000   68.603400
  H     16.289100   26.630400   67.594100
  H     17.053300   25.513100   68.654800
  C     16.603400   27.445500   69.588800
  H     17.681200   27.542200   69.823600
  H     15.975700   27.283800   70.513500
  C     16.251100   28.825500   68.985900
  H     15.221700   29.110000   69.093000
  H     16.630800   29.039600   67.964000
  H     16.764700   29.629100   69.484500
  H     13.254600   25.527100   63.089200
  H     13.210100   24.012500   71.398000

 Total Charge           Charge          ....    0
 Multiplicity           Mult            ....    1
 Number of Electrons    NEL             ....  134
 Basis Dimension        Dim             ....  322

ORBITAL ENERGIES
----------------

  NO   OCC          E(Eh)            E(eV)
   0   2.0000     -88.963933     -2420.8317
   1   2.0000     -88.961726     -2420.7716
   2   2.0000     -10.331680      -281.1393
   3   2.0000     -10.323347      -280.9126
   4   2.0000     -10.319891      -280.8185
   5   2.0000     -10.313136      -280.6347
   6   2.0000     -10.301883      -280.3285
   7   2.0000     -10.301666      -280.3226
   8   2.0000     -10.298132      -280.2264
   9   2.0000     -10.297225      -280.2017
  10   2.0000     -10.295419      -280.1526
  11   2.0000     -10.291981      -280.0590
  12   2.0000     -10.291915      -280.0572
  13   2.0000     -10.281856      -279.7835
  14   2.0000     -10.276665      -279.6423
  15   2.0000     -10.273619      -279.5594
  16   2.0000      -8.078554      -219.8286
  17   2.0000      -8.077547      -219.8012
  18   2.0000      -6.037190      -164.2803
  19   2.0000      -6.036045      -164.2491
  20   2.0000      -6.032967      -164.1654
  21   2.0000      -6.031825      -164.1343
  22   2.0000      -6.029286      -164.0652
  23   2.0000      -6.028308      -164.0386
  24   2.0000      -1.011367       -27.5207
  25   2.0000      -0.987601       -26.8740
  26   2.0000      -0.907338       -24.6899
  27   2.0000      -0.903643       -24.5894
  28   2.0000      -0.875083       -23.8122
  29   2.0000      -0.847940       -23.0736
  30   2.0000      -0.840655       -22.8754
  31   2.0000      -0.814976       -22.1766
  32   2.0000      -0.782853       -21.3025
  33   2.0000      -0.776421       -21.1275
  34   2.0000      -0.709286       -19.3006
  35   2.0000      -0.701737       -19.0952
  36   2.0000      -0.697181       -18.9713
  37   2.0000      -0.656091       -17.8531
  38   2.0000      -0.639062       -17.3898
  39   2.0000      -0.618135       -16.8203
  40   2.0000      -0.605544       -16.4777
  41   2.0000      -0.566876       -15.4255
  42   2.0000      -0.556502       -15.1432
  43   2.0000      -0.547249       -14.8914
  44   2.0000      -0.542718       -14.7681
  45   2.0000      -0.528243       -14.3742
  46   2.0000      -0.521658       -14.1950
  47   2.0000      -0.509022       -13.8512
  48   2.0000      -0.506261       -13.7761
  49   2.0000      -0.497954       -13.5500
  50   2.0000      -0.484171       -13.1750
  51   2.0000      -0.480201       -13.0669
  52   2.0000      -0.474316       -12.9068
  53   2.0000      -0.465775       -12.6744
  54   2.0000      -0.460176       -12.5220
  55   2.0000      -0.447160       -12.1678
  56   2.0000      -0.440916       -11.9979
  57   2.0000      -0.437010       -11.8917
  58   2.0000      -0.429316       -11.6823
  59   2.0000      -0.422694       -11.5021
  60   2.0000      -0.420201       -11.4343
  61   2.0000      -0.414129       -11.2690
  62   2.0000      -0.409561       -11.1447
  63   2.0000      -0.346680        -9.4336
  64   2.0000      -0.328829        -8.9479
  65   2.0000      -0.326902        -8.8954
  66   2.0000      -0.301721        -8.2102
  67   0.0000       0.033455         0.9104
  68   0.0000       0.069277         1.8851
  69   0.0000       0.116302         3.1647
  70   0.0000       0.120477         3.2783
  71   0.0000       0.129121         3.5136

MULLIKEN ATOMIC CHARGES
-----------------------
   0 S :    0.105581
   1 C :   -0.143561
   2 C :   -0.088854
   3 C :    0.049859
   4 C :   -0.190704
   5 H :    0.008795
   6 C :    0.025747
   7 H :    0.043518
   8 H :    0.020770
   9 C :   -0.009368
  10 H :    0.014875
  11 H :    0.021510
  12 C :   -0.067408
  13 H :    0.009268
  14 H :    0.030596
  15 H :    0.047396
  16 S :    0.105080
  17 C :   -0.072540
  18 C :   -0.040794
  19 C :   -0.046810
  20 C :   -0.140215
  21 H :    0.029138
  22 C :    0.097727
  23 H :    0.019194
  24 H :    0.040724
  25 C :   -0.100243
  26 H :    0.039867
  27 H :    0.046978
  28 C :   -0.065742
  29 H :    0.035037
  30 H :    0.033214
  31 H :    0.015674
  32 H :    0.085473
  33 H :    0.040219
Sum of atomic charges:    0.0000000

LOEWDIN ATOMIC CHARGES
----------------------
   0 S :    0.398127
   1 C :   -0.215746
   2 C :   -0.072735
   3 C :   -0.051710
   4 C :   -0.181617
   5 H :    0.030119
   6 C :   -0.034815
   7 H :    0.040834
   8 H :    0.027005
   9 C :   -0.032657
  10 H :    0.017914
  11 H :    0.021165
  12 C :   -0.071196
  13 H :    0.014228
  14 H :    0.031223
  15 H :    0.029129
  16 S :    0.417702
  17 C :   -0.174780
  18 C :   -0.078641
  19 C :   -0.057255
  20 C :   -0.211997
  21 H :    0.034062
  22 C :   -0.029285
  23 H :    0.024424
  24 H :    0.038629
  25 C :   -0.040742
  26 H :    0.029286
  27 H :    0.032338
  28 C :   -0.077307
  29 H :    0.021141
  30 H :    0.027649
  31 H :    0.023601
  32 H :    0.051309
  33 H :    0.020598

  Mayer bond orders larger than 0.100000
B(  0-S ,  1-C ) :   1.1372 B(  0-S ,  4-C ) :   1.1428 B(  1-C ,  2-C ) :   1.6208
B(  1-C , 32-H ) :   0.9538 B(  2-C ,  3-C ) :   1.2174 B(  2-C ,  6-C ) :   1.0303
B(  3-C ,  4-C ) :   1.5737 B(  3-C ,  5-H ) :   0.9999 B(  4-C , 20-C ) :   1.0547
B(  6-C ,  7-H ) :   0.9426 B(  6-C ,  8-H ) :   0.9415 B(  6-C ,  9-C ) :   1.0743
B(  9-C , 10-H ) :   0.9524 B(  9-C , 11-H ) :   0.9538 B(  9-C , 12-C ) :   1.0752
B( 12-C , 13-H ) :   0.9749 B( 12-C , 14-H ) :   0.9742 B( 12-C , 15-H ) :   0.9730
B( 16-S , 17-C ) :   1.1652 B( 16-S , 20-C ) :   1.1427 B( 17-C , 18-C ) :   1.5935
B( 17-C , 33-H ) :   0.9799 B( 18-C , 19-C ) :   1.2448 B( 18-C , 21-H ) :   0.9868
B( 19-C , 20-C ) :   1.5893 B( 19-C , 22-C ) :   1.0454 B( 22-C , 23-H ) :   0.9394
B( 22-C , 24-H ) :   0.9361 B( 22-C , 25-C ) :   1.0349 B( 25-C , 26-H ) :   0.9597
B( 25-C , 27-H ) :   0.9618 B( 25-C , 28-C ) :   1.0819 B( 28-C , 29-H ) :   0.9755
B( 28-C , 30-H ) :   0.9722 B( 28-C , 31-H ) :   0.9702

Dispersion correction           -0.015431073
FINAL SINGLE POINT ENERGY     -1339.877262012919

DIPOLE MOMENT
-------------
                                X             Y             Z
Electronic contribution:    -18.27616     -23.70620       5.09285
Nuclear contribution   :     18.64883      24.34464      -4.97807
                        -----------------------------------------
Total Dipole Moment    :      0.37267       0.63844       0.11478
                        -----------------------------------------
Magnitude (a.u.)       :      0.74810
Magnitude (Debye)      :      1.90152

Rotational constants in cm-1:     0.018341     0.010142     0.007222
Rotational constants in MHz :   549.849401   304.036208   216.503160

                             ****ORCA TERMINATED NORMALLY****
TOTAL RUN TIME: 0 days 0 hours 0 minutes 36 seconds 505 msec
