                         Program Version 4.2.1 -  RELEASE  -
|  1> ! wB97X-D3 SP def2-SVP
|  2> %pal
|  3> nprocs 16
|  4> end
|  5>
|  6> * xyz 0 1
|  7> S 	 -5.32142 	 10.7151 	 81.9633
|  8> C 	 -4.56235 	 9.24678 	 82.5183
|  9> C 	 -3.67999 	 8.71275 	 81.5694
| 10> C 	 -3.52491 	 9.56607 	 80.4746
| 11> C 	 -4.27796 	 10.7215 	 80.5723
| 12> H 	 -2.98639 	 9.27253 	 79.5769
| 13> C 	 -2.76996 	 7.5205 	 81.7342
| 14> H 	 -2.44034 	 7.66739 	 82.7614
| 15> H 	 -1.89849 	 7.66545 	 81.1148
| 16> C 	 -3.33185 	 6.14262 	 81.4311
| 17> H 	 -2.61319 	 5.30169 	 81.5594
| 18> H 	 -4.08906 	 5.89461 	 82.1608
| 19> C 	 -3.55456 	 5.85877 	 79.9882
| 20> H 	 -2.61736 	 6.03241 	 79.4485
| 21> H 	 -3.83442 	 4.82858 	 79.9751
| 22> H 	 -4.43817 	 6.4034 	 79.5732
| 23> S 	 -6.14507 	 11.9778 	 79.1431
| 24> C 	 -5.76343 	 13.2327 	 78.0404
| 25> C 	 -4.40283 	 13.1182 	 77.7019
| 26> C 	 -3.67819 	 12.3074 	 78.6174
| 27> C 	 -4.52101 	 11.6439 	 79.4931
| 28> H 	 -4.01763 	 13.5543 	 76.8415
| 29> C 	 -2.12866 	 12.0444 	 78.5258
| 30> H 	 -2.00186 	 11.1755 	 77.8877
| 31> H 	 -1.76475 	 11.6376 	 79.552
| 32> C 	 -1.12451 	 13.1038 	 78.002
| 33> H 	 -1.47135 	 14.1004 	 78.2514
| 34> H 	 -1.27257 	 13.3213 	 76.8519
| 35> C 	 0.33603 	 12.7995 	 78.3225
| 36> H 	 0.938048 	 13.7401 	 78.1365
| 37> H 	 0.712441 	 11.879 	 77.8552
| 38> H 	 0.237372 	 12.595 	 79.4227
| 39> H 	 -4.75619 	 8.8733 	 83.5527
| 40> H 	 -6.53367 	 13.7587 	 77.4292
| 41> *
| 42>
| 43>                          ****END OF INPUT****

CARTESIAN COORDINATES (ANGSTROEM)
---------------------------------
  S     -5.321420   10.715100   81.963300
  C     -4.562350    9.246780   82.518300
  C     -3.679990    8.712750   81.569400
  C     -3.524910    9.566070   80.474600
  C     -4.277960   10.721500   80.572300
  H     -2.986390    9.272530   79.576900
  C     -2.769960    7.520500   81.734200
  H     -2.440340    7.667390   82.761400
  H     -1.898490    7.665450   81.114800
  C     -3.331850    6.142620   81.431100
  H     -2.613190    5.301690   81.559400
  H     -4.089060    5.894610   82.160800
  C     -3.554560    5.858770   79.988200
  H     -2.617360    6.032410   79.448500
  H     -3.834420    4.828580   79.975100
  H     -4.438170    6.403400   79.573200
  S     -6.145070   11.977800   79.143100
  C     -5.763430   13.232700   78.040400
  C     -4.402830   13.118200   77.701900
  C     -3.678190   12.307400   78.617400
  C     -4.521010   11.643900   79.493100
  H     -4.017630   13.554300   76.841500
  C     -2.128660   12.044400   78.525800
  H     -2.001860   11.175500   77.887700
  H     -1.764750   11.637600   79.552000
  C     -1.124510   13.103800   78.002000
  H     -1.471350   14.100400   78.251400
  H     -1.272570   13.321300   76.851900
  C      0.336030   12.799500   78.322500
  H      0.938048   13.740100   78.136500
  H      0.712441   11.879000   77.855200
  H      0.237372   12.595000   79.422700
  H     -4.756190    8.873300   83.552700
  H     -6.533670   13.758700   77.429200

 Total Charge           Charge          ....    0
 Multiplicity           Mult            ....    1
 Number of Electrons    NEL             ....  134
 Basis Dimension        Dim             ....  322

ORBITAL ENERGIES
----------------

  NO   OCC          E(Eh)            E(eV)
   0   2.0000     -88.970604     -2421.0132
   1   2.0000     -88.962472     -2420.7919
   2   2.0000     -10.325612      -280.9742
   3   2.0000     -10.319090      -280.7967
   4   2.0000     -10.318027      -280.7678
   5   2.0000     -10.315281      -280.6931
   6   2.0000     -10.303252      -280.3657
   7   2.0000     -10.301898      -280.3289
   8   2.0000     -10.299796      -280.2717
   9   2.0000     -10.294010      -280.1142
  10   2.0000     -10.290898      -280.0296
  11   2.0000     -10.290309      -280.0135
  12   2.0000     -10.290073      -280.0071
  13   2.0000     -10.288561      -279.9660
  14   2.0000     -10.283260      -279.8217
  15   2.0000     -10.277343      -279.6607
  16   2.0000      -8.085432      -220.0158
  17   2.0000      -8.078947      -219.8393
  18   2.0000      -6.043745      -164.4587
  19   2.0000      -6.039942      -164.3552
  20   2.0000      -6.037190      -164.2803
  21   2.0000      -6.036374      -164.2581
  22   2.0000      -6.033248      -164.1730
  23   2.0000      -6.029820      -164.0797
  24   2.0000      -1.016497       -27.6603
  25   2.0000      -0.989784       -26.9334
  26   2.0000      -0.920025       -25.0352
  27   2.0000      -0.900803       -24.5121
  28   2.0000      -0.873355       -23.7652
  29   2.0000      -0.858960       -23.3735
  30   2.0000      -0.848641       -23.0927
  31   2.0000      -0.813308       -22.1312
  32   2.0000      -0.781862       -21.2755
  33   2.0000      -0.768809       -20.9204
  34   2.0000      -0.700956       -19.0740
  35   2.0000      -0.699385       -19.0312
  36   2.0000      -0.692378       -18.8406
  37   2.0000      -0.660630       -17.9767
  38   2.0000      -0.638829       -17.3834
  39   2.0000      -0.617670       -16.8077
  40   2.0000      -0.595114       -16.1939
  41   2.0000      -0.577378       -15.7113
  42   2.0000      -0.560005       -15.2385
  43   2.0000      -0.551699       -15.0125
  44   2.0000      -0.548324       -14.9206
  45   2.0000      -0.526226       -14.3193
  46   2.0000      -0.517088       -14.0707
  47   2.0000      -0.513406       -13.9705
  48   2.0000      -0.503822       -13.7097
  49   2.0000      -0.497278       -13.5316
  50   2.0000      -0.486891       -13.2490
  51   2.0000      -0.479607       -13.0508
  52   2.0000      -0.472314       -12.8523
  53   2.0000      -0.468215       -12.7408
  54   2.0000      -0.459114       -12.4931
  55   2.0000      -0.452102       -12.3023
  56   2.0000      -0.442659       -12.0454
  57   2.0000      -0.438356       -11.9283
  58   2.0000      -0.434943       -11.8354
  59   2.0000      -0.432715       -11.7748
  60   2.0000      -0.421577       -11.4717
  61   2.0000      -0.400681       -10.9031
  62   2.0000      -0.396273       -10.7831
  63   2.0000      -0.349708        -9.5160
  64   2.0000      -0.334824        -9.1110
  65   2.0000      -0.325776        -8.8648
  66   2.0000      -0.285358        -7.7650
  67   0.0000       0.025816         0.7025
  68   0.0000       0.070545         1.9196
  69   0.0000       0.107944         2.9373
  70   0.0000       0.115187         3.1344
  71   0.0000       0.136598         3.7170

MULLIKEN ATOMIC CHARGES
-----------------------
   0 S :    0.122435
   1 C :   -0.152904
   2 C :   -0.066852
   3 C :    0.002442
   4 C :   -0.133671
   5 H :    0.019803
   6 C :    0.079115
   7 H :    0.029785
   8 H :    0.008803
   9 C :   -0.077827
  10 H :    0.022454
  11 H :    0.024787
  12 C :   -0.039340
  13 H :    0.035052
  14 H :    0.026502
  15 H :    0.042495
  16 S :    0.111949
  17 C :   -0.115657
  18 C :   -0.024836
  19 C :   -0.018479
  20 C :   -0.149363
  21 H :   -0.002954
  22 C :    0.001937
  23 H :    0.040016
  24 H :    0.039470
  25 C :   -0.094924
  26 H :    0.021126
  27 H :    0.022537
  28 C :   -0.056269
  29 H :    0.058779
  30 H :    0.046603
  31 H :    0.037480
  32 H :    0.064094
  33 H :    0.075413
Sum of atomic charges:    0.0000000

LOEWDIN ATOMIC CHARGES
----------------------
   0 S :    0.423982
   1 C :   -0.206038
   2 C :   -0.063981
   3 C :   -0.060895
   4 C :   -0.198833
   5 H :    0.034037
   6 C :   -0.031617
   7 H :    0.036116
   8 H :    0.025856
   9 C :   -0.050257
  10 H :    0.031423
  11 H :    0.021466
  12 C :   -0.062010
  13 H :    0.027996
  14 H :    0.025784
  15 H :    0.026108
  16 S :    0.444455
  17 C :   -0.212527
  18 C :   -0.061903
  19 C :   -0.062315
  20 C :   -0.215377
  21 H :    0.018611
  22 C :   -0.042546
  23 H :    0.029221
  24 H :    0.037386
  25 C :   -0.062082
  26 H :    0.020093
  27 H :    0.025936
  28 C :   -0.069878
  29 H :    0.040335
  30 H :    0.028349
  31 H :    0.032499
  32 H :    0.033624
  33 H :    0.036978

  Mayer bond orders larger than 0.100000
B(  0-S ,  1-C ) :   1.1544 B(  0-S ,  4-C ) :   1.1683 B(  1-C ,  2-C ) :   1.5631
B(  1-C ,  4-C ) :   0.1019 B(  1-C , 32-H ) :   0.9654 B(  2-C ,  3-C ) :   1.2938
B(  2-C ,  6-C ) :   0.9994 B(  3-C ,  4-C ) :   1.5132 B(  3-C ,  5-H ) :   0.9915
B(  4-C , 20-C ) :   1.0500 B(  6-C ,  7-H ) :   0.9388 B(  6-C ,  8-H ) :   0.9451
B(  6-C ,  9-C ) :   1.0833 B(  9-C , 10-H ) :   0.9584 B(  9-C , 11-H ) :   0.9564
B(  9-C , 12-C ) :   1.0635 B( 12-C , 13-H ) :   0.9718 B( 12-C , 14-H ) :   0.9745
B( 12-C , 15-H ) :   0.9732 B( 16-S , 17-C ) :   1.1733 B( 16-S , 20-C ) :   1.1769
B( 17-C , 18-C ) :   1.5502 B( 17-C , 20-C ) :   0.1030 B( 17-C , 33-H ) :   0.9647
B( 18-C , 19-C ) :   1.2813 B( 18-C , 21-H ) :   0.9997 B( 19-C , 20-C ) :   1.5641
B( 19-C , 22-C ) :   1.0316 B( 22-C , 23-H ) :   0.9360 B( 22-C , 24-H ) :   0.9371
B( 22-C , 25-C ) :   1.0511 B( 25-C , 26-H ) :   0.9598 B( 25-C , 27-H ) :   0.9410
B( 25-C , 28-C ) :   1.0684 B( 28-C , 29-H ) :   0.9707 B( 28-C , 30-H ) :   0.9755
B( 28-C , 31-H ) :   0.9755

Dispersion correction           -0.013726691
FINAL SINGLE POINT ENERGY     -1339.853246081948

DIPOLE MOMENT
-------------
                                X             Y             Z
Electronic contribution:    -23.47932      12.28270       6.79067
Nuclear contribution   :     23.92605     -12.73936      -6.99338
                        -----------------------------------------
Total Dipole Moment    :      0.44673      -0.45666      -0.20271
                        -----------------------------------------
Magnitude (a.u.)       :      0.67023
Magnitude (Debye)      :      1.70358

Rotational constants in cm-1:     0.016543     0.008770     0.006758
Rotational constants in MHz :   495.958011   262.904039   202.595587

                             ****ORCA TERMINATED NORMALLY****
TOTAL RUN TIME: 0 days 0 hours 0 minutes 32 seconds 193 msec
