                         Program Version 4.2.1 -  RELEASE  -
|  1> ! wB97X-D3 SP def2-SVP
|  2> %pal
|  3> nprocs 16
|  4> end
|  5>
|  6> * xyz 0 1
|  7> S 	 -10.8152 	 -14.363 	 86.4372
|  8> C 	 -12.219 	 -13.7347 	 85.5711
|  9> C 	 -12.7653 	 -12.6496 	 86.2257
| 10> C 	 -12.0041 	 -12.3037 	 87.3598
| 11> C 	 -10.9217 	 -13.1479 	 87.6009
| 12> H 	 -12.1699 	 -11.4214 	 87.9155
| 13> C 	 -13.9637 	 -11.8083 	 85.7741
| 14> H 	 -13.5552 	 -10.982 	 85.0936
| 15> H 	 -14.2262 	 -11.2506 	 86.7365
| 16> C 	 -15.1394 	 -12.5541 	 85.2458
| 17> H 	 -14.9031 	 -13.0103 	 84.2678
| 18> H 	 -15.3531 	 -13.3969 	 85.7948
| 19> C 	 -16.2819 	 -11.5727 	 85.0592
| 20> H 	 -15.938 	 -10.8514 	 84.29
| 21> H 	 -17.1836 	 -12.1216 	 84.7651
| 22> H 	 -16.3115 	 -11.1061 	 86.0725
| 23> S 	 -8.38749 	 -12.3745 	 88.2026
| 24> C 	 -7.93011 	 -12.4499 	 89.8854
| 25> C 	 -8.88948 	 -12.9022 	 90.7252
| 26> C 	 -10.1154 	 -13.2789 	 90.0331
| 27> C 	 -9.94685 	 -13.0001 	 88.6738
| 28> H 	 -8.69123 	 -12.7663 	 91.7971
| 29> C 	 -11.4212 	 -13.6205 	 90.7106
| 30> H 	 -12.2296 	 -12.9514 	 90.3253
| 31> H 	 -11.274 	 -13.3723 	 91.7159
| 32> C 	 -11.8971 	 -15.0787 	 90.7749
| 33> H 	 -11.6556 	 -15.5335 	 89.771
| 34> H 	 -12.9903 	 -15.2298 	 90.7398
| 35> C 	 -11.2695 	 -15.9486 	 91.9176
| 36> H 	 -11.4718 	 -16.9868 	 91.8946
| 37> H 	 -11.6452 	 -15.7542 	 92.8572
| 38> H 	 -10.1778 	 -16.0454 	 91.8849
| 39> H 	 -12.5503 	 -14.1843 	 84.6357
| 40> H 	 -7.10522 	 -11.8258 	 90.1825
| 41> *
| 42>
| 43>                          ****END OF INPUT****

CARTESIAN COORDINATES (ANGSTROEM)
---------------------------------
  S    -10.815200  -14.363000   86.437200
  C    -12.219000  -13.734700   85.571100
  C    -12.765300  -12.649600   86.225700
  C    -12.004100  -12.303700   87.359800
  C    -10.921700  -13.147900   87.600900
  H    -12.169900  -11.421400   87.915500
  C    -13.963700  -11.808300   85.774100
  H    -13.555200  -10.982000   85.093600
  H    -14.226200  -11.250600   86.736500
  C    -15.139400  -12.554100   85.245800
  H    -14.903100  -13.010300   84.267800
  H    -15.353100  -13.396900   85.794800
  C    -16.281900  -11.572700   85.059200
  H    -15.938000  -10.851400   84.290000
  H    -17.183600  -12.121600   84.765100
  H    -16.311500  -11.106100   86.072500
  S     -8.387490  -12.374500   88.202600
  C     -7.930110  -12.449900   89.885400
  C     -8.889480  -12.902200   90.725200
  C    -10.115400  -13.278900   90.033100
  C     -9.946850  -13.000100   88.673800
  H     -8.691230  -12.766300   91.797100
  C    -11.421200  -13.620500   90.710600
  H    -12.229600  -12.951400   90.325300
  H    -11.274000  -13.372300   91.715900
  C    -11.897100  -15.078700   90.774900
  H    -11.655600  -15.533500   89.771000
  H    -12.990300  -15.229800   90.739800
  C    -11.269500  -15.948600   91.917600
  H    -11.471800  -16.986800   91.894600
  H    -11.645200  -15.754200   92.857200
  H    -10.177800  -16.045400   91.884900
  H    -12.550300  -14.184300   84.635700
  H     -7.105220  -11.825800   90.182500

 Total Charge           Charge          ....    0
 Multiplicity           Mult            ....    1
 Number of Electrons    NEL             ....  134
 Basis Dimension        Dim             ....  322

ORBITAL ENERGIES
----------------

  NO   OCC          E(Eh)            E(eV)
   0   2.0000     -88.964642     -2420.8510
   1   2.0000     -88.964384     -2420.8440
   2   2.0000     -10.323624      -280.9201
   3   2.0000     -10.320695      -280.8404
   4   2.0000     -10.310966      -280.5757
   5   2.0000     -10.309465      -280.5348
   6   2.0000     -10.307790      -280.4892
   7   2.0000     -10.301211      -280.3102
   8   2.0000     -10.297156      -280.1999
   9   2.0000     -10.295952      -280.1671
  10   2.0000     -10.290854      -280.0284
  11   2.0000     -10.289673      -279.9962
  12   2.0000     -10.285496      -279.8826
  13   2.0000     -10.283395      -279.8254
  14   2.0000     -10.277773      -279.6724
  15   2.0000     -10.268383      -279.4169
  16   2.0000      -8.080229      -219.8742
  17   2.0000      -8.079763      -219.8615
  18   2.0000      -6.038524      -164.3166
  19   2.0000      -6.038090      -164.3048
  20   2.0000      -6.034448      -164.2057
  21   2.0000      -6.034351      -164.2030
  22   2.0000      -6.031337      -164.1210
  23   2.0000      -6.030512      -164.0986
  24   2.0000      -1.009743       -27.4765
  25   2.0000      -0.985352       -26.8128
  26   2.0000      -0.920852       -25.0577
  27   2.0000      -0.903817       -24.5941
  28   2.0000      -0.870798       -23.6956
  29   2.0000      -0.850729       -23.1495
  30   2.0000      -0.847482       -23.0612
  31   2.0000      -0.810482       -22.0543
  32   2.0000      -0.785809       -21.3830
  33   2.0000      -0.770208       -20.9584
  34   2.0000      -0.711549       -19.3622
  35   2.0000      -0.705971       -19.2104
  36   2.0000      -0.686092       -18.6695
  37   2.0000      -0.658476       -17.9180
  38   2.0000      -0.643481       -17.5100
  39   2.0000      -0.616148       -16.7662
  40   2.0000      -0.592224       -16.1152
  41   2.0000      -0.572756       -15.5855
  42   2.0000      -0.565189       -15.3796
  43   2.0000      -0.550363       -14.9761
  44   2.0000      -0.541932       -14.7467
  45   2.0000      -0.529950       -14.4207
  46   2.0000      -0.514203       -13.9922
  47   2.0000      -0.510680       -13.8963
  48   2.0000      -0.500124       -13.6091
  49   2.0000      -0.489730       -13.3262
  50   2.0000      -0.486407       -13.2358
  51   2.0000      -0.475345       -12.9348
  52   2.0000      -0.468904       -12.7595
  53   2.0000      -0.465931       -12.6786
  54   2.0000      -0.459383       -12.5004
  55   2.0000      -0.451929       -12.2976
  56   2.0000      -0.446792       -12.1578
  57   2.0000      -0.439781       -11.9671
  58   2.0000      -0.433857       -11.8058
  59   2.0000      -0.423691       -11.5292
  60   2.0000      -0.421732       -11.4759
  61   2.0000      -0.413607       -11.2548
  62   2.0000      -0.408108       -11.1052
  63   2.0000      -0.338469        -9.2102
  64   2.0000      -0.330107        -8.9827
  65   2.0000      -0.324955        -8.8425
  66   2.0000      -0.301822        -8.2130
  67   0.0000       0.044835         1.2200
  68   0.0000       0.058921         1.6033
  69   0.0000       0.112957         3.0737
  70   0.0000       0.122732         3.3397
  71   0.0000       0.127898         3.4803

MULLIKEN ATOMIC CHARGES
-----------------------
   0 S :    0.127490
   1 C :   -0.159216
   2 C :   -0.058968
   3 C :    0.048780
   4 C :   -0.167730
   5 H :   -0.005801
   6 C :    0.003261
   7 H :    0.058991
   8 H :    0.024742
   9 C :   -0.048596
  10 H :    0.019498
  11 H :    0.011862
  12 C :   -0.032571
  13 H :    0.039190
  14 H :    0.043247
  15 H :    0.033292
  16 S :    0.114722
  17 C :   -0.092998
  18 C :   -0.041701
  19 C :   -0.015807
  20 C :   -0.205354
  21 H :    0.032746
  22 C :    0.115572
  23 H :    0.042356
  24 H :   -0.003330
  25 C :   -0.079206
  26 H :    0.028984
  27 H :    0.030776
  28 C :   -0.024725
  29 H :    0.007998
  30 H :    0.013158
  31 H :    0.034055
  32 H :    0.048815
  33 H :    0.056468
Sum of atomic charges:    0.0000000

LOEWDIN ATOMIC CHARGES
----------------------
   0 S :    0.434371
   1 C :   -0.202184
   2 C :   -0.065626
   3 C :   -0.065330
   4 C :   -0.221177
   5 H :    0.023019
   6 C :   -0.037271
   7 H :    0.043652
   8 H :    0.032476
   9 C :   -0.046346
  10 H :    0.024032
  11 H :    0.014291
  12 C :   -0.059609
  13 H :    0.030989
  14 H :    0.027622
  15 H :    0.029605
  16 S :    0.407070
  17 C :   -0.187463
  18 C :   -0.069853
  19 C :   -0.048090
  20 C :   -0.199292
  21 H :    0.038819
  22 C :   -0.032803
  23 H :    0.042852
  24 H :    0.022674
  25 C :   -0.043399
  26 H :    0.028567
  27 H :    0.028827
  28 C :   -0.071946
  29 H :    0.026331
  30 H :    0.014095
  31 H :    0.031591
  32 H :    0.025390
  33 H :    0.024116

  Mayer bond orders larger than 0.100000
B(  0-S ,  1-C ) :   1.1436 B(  0-S ,  4-C ) :   1.1911 B(  1-C ,  2-C ) :   1.5799
B(  1-C , 32-H ) :   0.9750 B(  2-C ,  3-C ) :   1.2811 B(  2-C ,  6-C ) :   1.0000
B(  3-C ,  4-C ) :   1.5476 B(  3-C ,  5-H ) :   0.9976 B(  4-C , 20-C ) :   0.9995
B(  6-C ,  7-H ) :   0.9317 B(  6-C ,  8-H ) :   0.9448 B(  6-C ,  9-C ) :   1.0713
B(  9-C , 10-H ) :   0.9386 B(  9-C , 11-H ) :   0.9585 B(  9-C , 12-C ) :   1.0760
B( 12-C , 13-H ) :   0.9737 B( 12-C , 14-H ) :   0.9724 B( 12-C , 15-H ) :   0.9778
B( 16-S , 17-C ) :   1.1372 B( 16-S , 20-C ) :   1.1657 B( 17-C , 18-C ) :   1.6659
B( 17-C , 33-H ) :   0.9613 B( 18-C , 19-C ) :   1.2016 B( 18-C , 21-H ) :   0.9796
B( 19-C , 20-C ) :   1.6174 B( 19-C , 22-C ) :   1.0463 B( 22-C , 23-H ) :   0.9316
B( 22-C , 24-H ) :   0.9279 B( 22-C , 25-C ) :   1.0508 B( 25-C , 26-H ) :   0.9606
B( 25-C , 27-H ) :   0.9574 B( 25-C , 28-C ) :   1.0740 B( 28-C , 29-H ) :   0.9666
B( 28-C , 30-H ) :   0.9736 B( 28-C , 31-H ) :   0.9753

Dispersion correction           -0.014046985
FINAL SINGLE POINT ENERGY     -1339.863366914489

DIPOLE MOMENT
-------------
                                X             Y             Z
Electronic contribution:     24.28740       1.15038      -5.75818
Nuclear contribution   :    -24.77794      -0.90444       5.96524
                        -----------------------------------------
Total Dipole Moment    :     -0.49054       0.24594       0.20706
                        -----------------------------------------
Magnitude (a.u.)       :      0.58650
Magnitude (Debye)      :      1.49078

Rotational constants in cm-1:     0.020242     0.007629     0.006514
Rotational constants in MHz :   606.845597   228.715297   195.277900

                             ****ORCA TERMINATED NORMALLY****
TOTAL RUN TIME: 0 days 0 hours 0 minutes 32 seconds 464 msec
