                         Program Version 4.2.1 -  RELEASE  -
|  1> ! wB97X-D3 SP def2-SVP
|  2> %pal
|  3> nprocs 16
|  4> end
|  5>
|  6> * xyz 0 1
|  7> S 	 -45.7494 	 35.432 	 80.7559
|  8> C 	 -44.9451 	 36.9584 	 80.3605
|  9> C 	 -43.538 	 36.8316 	 80.6295
| 10> C 	 -43.1943 	 35.4765 	 80.8526
| 11> C 	 -44.1915 	 34.5722 	 80.9293
| 12> H 	 -42.1248 	 35.1501 	 80.9018
| 13> C 	 -42.44 	 37.8886 	 80.3199
| 14> H 	 -42.9065 	 38.8633 	 80.2425
| 15> H 	 -42.0082 	 37.606 	 79.3066
| 16> C 	 -41.4134 	 37.9932 	 81.3661
| 17> H 	 -41.8188 	 38.453 	 82.2879
| 18> H 	 -40.981 	 36.9791 	 81.5696
| 19> C 	 -40.2565 	 38.7922 	 80.8686
| 20> H 	 -39.5118 	 38.813 	 81.6725
| 21> H 	 -39.865 	 38.407 	 79.9337
| 22> H 	 -40.6946 	 39.7906 	 80.7741
| 23> S 	 -45.3516 	 32.2893 	 80.109
| 24> C 	 -44.5939 	 30.7167 	 80.4727
| 25> C 	 -43.4963 	 30.8827 	 81.2975
| 26> C 	 -43.1444 	 32.2342 	 81.5105
| 27> C 	 -44.082 	 33.0801 	 80.9755
| 28> H 	 -43.1271 	 29.9425 	 81.6707
| 29> C 	 -41.849 	 32.5255 	 82.2178
| 30> H 	 -41.7714 	 31.8854 	 83.1086
| 31> H 	 -41.761 	 33.5226 	 82.5778
| 32> C 	 -40.5077 	 32.1506 	 81.5577
| 33> H 	 -40.6627 	 32.1182 	 80.505
| 34> H 	 -40.2395 	 31.0983 	 81.7847
| 35> C 	 -39.2937 	 33.0143 	 81.9649
| 36> H 	 -39.0643 	 32.9791 	 83.0301
| 37> H 	 -39.517 	 34.0159 	 81.6032
| 38> H 	 -38.3562 	 32.697 	 81.4339
| 39> H 	 -45.4862 	 37.8429 	 79.9693
| 40> H 	 -44.9794 	 29.6961 	 80.2173
| 41> *
| 42>
| 43>                          ****END OF INPUT****

CARTESIAN COORDINATES (ANGSTROEM)
---------------------------------
  S    -45.749400   35.432000   80.755900
  C    -44.945100   36.958400   80.360500
  C    -43.538000   36.831600   80.629500
  C    -43.194300   35.476500   80.852600
  C    -44.191500   34.572200   80.929300
  H    -42.124800   35.150100   80.901800
  C    -42.440000   37.888600   80.319900
  H    -42.906500   38.863300   80.242500
  H    -42.008200   37.606000   79.306600
  C    -41.413400   37.993200   81.366100
  H    -41.818800   38.453000   82.287900
  H    -40.981000   36.979100   81.569600
  C    -40.256500   38.792200   80.868600
  H    -39.511800   38.813000   81.672500
  H    -39.865000   38.407000   79.933700
  H    -40.694600   39.790600   80.774100
  S    -45.351600   32.289300   80.109000
  C    -44.593900   30.716700   80.472700
  C    -43.496300   30.882700   81.297500
  C    -43.144400   32.234200   81.510500
  C    -44.082000   33.080100   80.975500
  H    -43.127100   29.942500   81.670700
  C    -41.849000   32.525500   82.217800
  H    -41.771400   31.885400   83.108600
  H    -41.761000   33.522600   82.577800
  C    -40.507700   32.150600   81.557700
  H    -40.662700   32.118200   80.505000
  H    -40.239500   31.098300   81.784700
  C    -39.293700   33.014300   81.964900
  H    -39.064300   32.979100   83.030100
  H    -39.517000   34.015900   81.603200
  H    -38.356200   32.697000   81.433900
  H    -45.486200   37.842900   79.969300
  H    -44.979400   29.696100   80.217300

 Total Charge           Charge          ....    0
 Multiplicity           Mult            ....    1
 Number of Electrons    NEL             ....  134
 Basis Dimension        Dim             ....  322

ORBITAL ENERGIES
----------------

  NO   OCC          E(Eh)            E(eV)
   0   2.0000     -88.967711     -2420.9345
   1   2.0000     -88.966424     -2420.8995
   2   2.0000     -10.331813      -281.1429
   3   2.0000     -10.331284      -281.1285
   4   2.0000     -10.324812      -280.9524
   5   2.0000     -10.320219      -280.8274
   6   2.0000     -10.307354      -280.4774
   7   2.0000     -10.305220      -280.4193
   8   2.0000     -10.295732      -280.1611
   9   2.0000     -10.292798      -280.0813
  10   2.0000     -10.292035      -280.0605
  11   2.0000     -10.289477      -279.9909
  12   2.0000     -10.286744      -279.9165
  13   2.0000     -10.286450      -279.9085
  14   2.0000     -10.283551      -279.8297
  15   2.0000     -10.276445      -279.6363
  16   2.0000      -8.082191      -219.9276
  17   2.0000      -8.080088      -219.8704
  18   2.0000      -6.040752      -164.3772
  19   2.0000      -6.038754      -164.3228
  20   2.0000      -6.036776      -164.2690
  21   2.0000      -6.034751      -164.2139
  22   2.0000      -6.032849      -164.1622
  23   2.0000      -6.030742      -164.1048
  24   2.0000      -1.006923       -27.3998
  25   2.0000      -0.981524       -26.7086
  26   2.0000      -0.924569       -25.1588
  27   2.0000      -0.910442       -24.7744
  28   2.0000      -0.867919       -23.6173
  29   2.0000      -0.854033       -23.2394
  30   2.0000      -0.845534       -23.0081
  31   2.0000      -0.815845       -22.2003
  32   2.0000      -0.782115       -21.2824
  33   2.0000      -0.770814       -20.9749
  34   2.0000      -0.704097       -19.1595
  35   2.0000      -0.694629       -18.9018
  36   2.0000      -0.685280       -18.6474
  37   2.0000      -0.660853       -17.9827
  38   2.0000      -0.640576       -17.4309
  39   2.0000      -0.624292       -16.9878
  40   2.0000      -0.599662       -16.3176
  41   2.0000      -0.580221       -15.7886
  42   2.0000      -0.568097       -15.4587
  43   2.0000      -0.562458       -15.3053
  44   2.0000      -0.531873       -14.4730
  45   2.0000      -0.523626       -14.2486
  46   2.0000      -0.513774       -13.9805
  47   2.0000      -0.510386       -13.8883
  48   2.0000      -0.503124       -13.6907
  49   2.0000      -0.499292       -13.5864
  50   2.0000      -0.491632       -13.3780
  51   2.0000      -0.483391       -13.1537
  52   2.0000      -0.474553       -12.9133
  53   2.0000      -0.462768       -12.5926
  54   2.0000      -0.461627       -12.5615
  55   2.0000      -0.448205       -12.1963
  56   2.0000      -0.443748       -12.0750
  57   2.0000      -0.441527       -12.0146
  58   2.0000      -0.434707       -11.8290
  59   2.0000      -0.429603       -11.6901
  60   2.0000      -0.418007       -11.3745
  61   2.0000      -0.410316       -11.1653
  62   2.0000      -0.406704       -11.0670
  63   2.0000      -0.354772        -9.6538
  64   2.0000      -0.334583        -9.1045
  65   2.0000      -0.327654        -8.9159
  66   2.0000      -0.286399        -7.7933
  67   0.0000       0.023630         0.6430
  68   0.0000       0.074235         2.0200
  69   0.0000       0.102762         2.7963
  70   0.0000       0.111105         3.0233
  71   0.0000       0.122466         3.3325

MULLIKEN ATOMIC CHARGES
-----------------------
   0 S :    0.094234
   1 C :   -0.153647
   2 C :   -0.061223
   3 C :   -0.021681
   4 C :   -0.098676
   5 H :    0.022925
   6 C :    0.045204
   7 H :    0.013189
   8 H :    0.051275
   9 C :   -0.115061
  10 H :    0.039682
  11 H :    0.025910
  12 C :   -0.015217
  13 H :    0.034866
  14 H :    0.032029
  15 H :    0.021498
  16 S :    0.104736
  17 C :   -0.119045
  18 C :   -0.038885
  19 C :   -0.015554
  20 C :   -0.133189
  21 H :    0.017712
  22 C :    0.074864
  23 H :    0.027673
  24 H :    0.008990
  25 C :   -0.081784
  26 H :    0.024000
  27 H :    0.023431
  28 C :   -0.063547
  29 H :    0.042687
  30 H :    0.030553
  31 H :    0.041944
  32 H :    0.071186
  33 H :    0.068921
Sum of atomic charges:   -0.0000000

LOEWDIN ATOMIC CHARGES
----------------------
   0 S :    0.375090
   1 C :   -0.197422
   2 C :   -0.061469
   3 C :   -0.076396
   4 C :   -0.178945
   5 H :    0.035217
   6 C :   -0.033037
   7 H :    0.026637
   8 H :    0.040471
   9 C :   -0.051440
  10 H :    0.031502
  11 H :    0.020839
  12 C :   -0.057566
  13 H :    0.027099
  14 H :    0.023072
  15 H :    0.024592
  16 S :    0.403153
  17 C :   -0.185820
  18 C :   -0.065354
  19 C :   -0.062012
  20 C :   -0.188532
  21 H :    0.033911
  22 C :   -0.035018
  23 H :    0.039903
  24 H :    0.020938
  25 C :   -0.042468
  26 H :    0.017978
  27 H :    0.022147
  28 C :   -0.064907
  29 H :    0.026294
  30 H :    0.021472
  31 H :    0.034745
  32 H :    0.036453
  33 H :    0.038872

  Mayer bond orders larger than 0.100000
B(  0-S ,  1-C ) :   1.1419 B(  0-S ,  4-C ) :   1.1270 B(  1-C ,  2-C ) :   1.5751
B(  1-C ,  4-C ) :   0.1009 B(  1-C , 32-H ) :   0.9684 B(  2-C ,  3-C ) :   1.2488
B(  2-C ,  6-C ) :   1.0232 B(  3-C ,  4-C ) :   1.6126 B(  3-C ,  5-H ) :   0.9771
B(  4-C , 20-C ) :   1.0248 B(  6-C ,  7-H ) :   0.9366 B(  6-C ,  8-H ) :   0.9465
B(  6-C ,  9-C ) :   1.0729 B(  9-C , 10-H ) :   0.9494 B(  9-C , 11-H ) :   0.9526
B(  9-C , 12-C ) :   1.0871 B( 12-C , 13-H ) :   0.9723 B( 12-C , 14-H ) :   0.9745
B( 12-C , 15-H ) :   0.9708 B( 16-S , 17-C ) :   1.1336 B( 16-S , 20-C ) :   1.1448
B( 17-C , 18-C ) :   1.6468 B( 17-C , 33-H ) :   0.9602 B( 18-C , 19-C ) :   1.1997
B( 18-C , 21-H ) :   0.9936 B( 19-C , 20-C ) :   1.6125 B( 19-C , 22-C ) :   1.0681
B( 22-C , 23-H ) :   0.9258 B( 22-C , 24-H ) :   0.9402 B( 22-C , 25-C ) :   1.0372
B( 25-C , 26-H ) :   0.9606 B( 25-C , 27-H ) :   0.9554 B( 25-C , 28-C ) :   1.0861
B( 28-C , 29-H ) :   0.9756 B( 28-C , 30-H ) :   0.9767 B( 28-C , 31-H ) :   0.9718

Dispersion correction           -0.013709639
FINAL SINGLE POINT ENERGY     -1339.866639747528

DIPOLE MOMENT
-------------
                                X             Y             Z
Electronic contribution:    -31.67882     -10.38957      -5.35807
Nuclear contribution   :     32.40943      10.40994       5.40521
                        -----------------------------------------
Total Dipole Moment    :      0.73061       0.02037       0.04714
                        -----------------------------------------
Magnitude (a.u.)       :      0.73242
Magnitude (Debye)      :      1.86165

Rotational constants in cm-1:     0.016172     0.009905     0.006365
Rotational constants in MHz :   484.824024   296.937115   190.808204

                             ****ORCA TERMINATED NORMALLY****
TOTAL RUN TIME: 0 days 0 hours 0 minutes 28 seconds 740 msec
