                         Program Version 4.2.1 -  RELEASE  -
|  1> ! wB97X-D3 SP def2-SVP
|  2> %pal
|  3> nprocs 16
|  4> end
|  5>
|  6> * xyz 0 1
|  7> S 	 -0.966124 	 -3.21533 	 78.762
|  8> C 	 -0.796097 	 -1.51248 	 78.4621
|  9> C 	 -0.134289 	 -0.812677 	 79.4628
| 10> C 	 0.174665 	 -1.71304 	 80.5154
| 11> C 	 -0.333758 	 -2.98812 	 80.3963
| 12> H 	 0.666621 	 -1.4676 	 81.4665
| 13> C 	 0.253224 	 0.66838 	 79.5638
| 14> H 	 0.201007 	 0.99132 	 78.5438
| 15> H 	 1.24408 	 0.772429 	 79.8925
| 16> C 	 -0.678452 	 1.64128 	 80.455
| 17> H 	 -0.329872 	 2.67542 	 80.4988
| 18> H 	 -1.59076 	 1.78601 	 80.0003
| 19> C 	 -0.889843 	 1.14515 	 81.9072
| 20> H 	 -1.35577 	 0.181887 	 82.0068
| 21> H 	 0.140298 	 1.09431 	 82.2951
| 22> H 	 -1.56141 	 1.87362 	 82.4727
| 23> S 	 1.43079 	 -5.13306 	 80.6787
| 24> C 	 1.4138 	 -5.97804 	 82.1924
| 25> C 	 0.330031 	 -5.61428 	 83.0251
| 26> C 	 -0.455981 	 -4.6237 	 82.3892
| 27> C 	 0.0252989 	 -4.16925 	 81.18
| 28> H 	 0.131802 	 -6.13582 	 83.9676
| 29> C 	 -1.64901 	 -3.98249 	 83.1005
| 30> H 	 -2.24243 	 -4.77265 	 83.5583
| 31> H 	 -2.3949 	 -3.67892 	 82.3448
| 32> C 	 -1.42857 	 -2.84475 	 84.0661
| 33> H 	 -2.43773 	 -2.49725 	 84.4402
| 34> H 	 -0.991397 	 -2.00564 	 83.6004
| 35> C 	 -0.488091 	 -3.14502 	 85.1807
| 36> H 	 -0.743063 	 -3.92085 	 85.8538
| 37> H 	 -0.459473 	 -2.2496 	 85.8264
| 38> H 	 0.474471 	 -3.36828 	 84.724
| 39> H 	 -1.06053 	 -0.997327 	 77.538
| 40> H 	 2.14326 	 -6.72153 	 82.437
| 41> *
| 42>
| 43>                          ****END OF INPUT****

CARTESIAN COORDINATES (ANGSTROEM)
---------------------------------
  S     -0.966124   -3.215330   78.762000
  C     -0.796097   -1.512480   78.462100
  C     -0.134289   -0.812677   79.462800
  C      0.174665   -1.713040   80.515400
  C     -0.333758   -2.988120   80.396300
  H      0.666621   -1.467600   81.466500
  C      0.253224    0.668380   79.563800
  H      0.201007    0.991320   78.543800
  H      1.244080    0.772429   79.892500
  C     -0.678452    1.641280   80.455000
  H     -0.329872    2.675420   80.498800
  H     -1.590760    1.786010   80.000300
  C     -0.889843    1.145150   81.907200
  H     -1.355770    0.181887   82.006800
  H      0.140298    1.094310   82.295100
  H     -1.561410    1.873620   82.472700
  S      1.430790   -5.133060   80.678700
  C      1.413800   -5.978040   82.192400
  C      0.330031   -5.614280   83.025100
  C     -0.455981   -4.623700   82.389200
  C      0.025299   -4.169250   81.180000
  H      0.131802   -6.135820   83.967600
  C     -1.649010   -3.982490   83.100500
  H     -2.242430   -4.772650   83.558300
  H     -2.394900   -3.678920   82.344800
  C     -1.428570   -2.844750   84.066100
  H     -2.437730   -2.497250   84.440200
  H     -0.991397   -2.005640   83.600400
  C     -0.488091   -3.145020   85.180700
  H     -0.743063   -3.920850   85.853800
  H     -0.459473   -2.249600   85.826400
  H      0.474471   -3.368280   84.724000
  H     -1.060530   -0.997327   77.538000
  H      2.143260   -6.721530   82.437000

 Total Charge           Charge          ....    0
 Multiplicity           Mult            ....    1
 Number of Electrons    NEL             ....  134
 Basis Dimension        Dim             ....  322

ORBITAL ENERGIES
----------------

  NO   OCC          E(Eh)            E(eV)
   0   2.0000     -88.967753     -2420.9356
   1   2.0000     -88.966297     -2420.8960
   2   2.0000     -10.326148      -280.9888
   3   2.0000     -10.323699      -280.9221
   4   2.0000     -10.319917      -280.8192
   5   2.0000     -10.317932      -280.7652
   6   2.0000     -10.303185      -280.3639
   7   2.0000     -10.301416      -280.3158
   8   2.0000     -10.297411      -280.2068
   9   2.0000     -10.296502      -280.1821
  10   2.0000     -10.294362      -280.1238
  11   2.0000     -10.287327      -279.9324
  12   2.0000     -10.284994      -279.8689
  13   2.0000     -10.282738      -279.8075
  14   2.0000     -10.279514      -279.7198
  15   2.0000     -10.267512      -279.3932
  16   2.0000      -8.082419      -219.9338
  17   2.0000      -8.080987      -219.8948
  18   2.0000      -6.040857      -164.3801
  19   2.0000      -6.039320      -164.3382
  20   2.0000      -6.037002      -164.2752
  21   2.0000      -6.035504      -164.2344
  22   2.0000      -6.033191      -164.1715
  23   2.0000      -6.031928      -164.1371
  24   2.0000      -1.005479       -27.3605
  25   2.0000      -0.983505       -26.7625
  26   2.0000      -0.911861       -24.8130
  27   2.0000      -0.903530       -24.5863
  28   2.0000      -0.865897       -23.5623
  29   2.0000      -0.851484       -23.1700
  30   2.0000      -0.846630       -23.0380
  31   2.0000      -0.812412       -22.1069
  32   2.0000      -0.786391       -21.3988
  33   2.0000      -0.772897       -21.0316
  34   2.0000      -0.707408       -19.2495
  35   2.0000      -0.702900       -19.1269
  36   2.0000      -0.687411       -18.7054
  37   2.0000      -0.662417       -18.0253
  38   2.0000      -0.642946       -17.4955
  39   2.0000      -0.612492       -16.6667
  40   2.0000      -0.595414       -16.2020
  41   2.0000      -0.573136       -15.5958
  42   2.0000      -0.552040       -15.0218
  43   2.0000      -0.550395       -14.9770
  44   2.0000      -0.543163       -14.7802
  45   2.0000      -0.537567       -14.6279
  46   2.0000      -0.517634       -14.0855
  47   2.0000      -0.510257       -13.8848
  48   2.0000      -0.500219       -13.6116
  49   2.0000      -0.492819       -13.4103
  50   2.0000      -0.488315       -13.2877
  51   2.0000      -0.477253       -12.9867
  52   2.0000      -0.470689       -12.8081
  53   2.0000      -0.464957       -12.6521
  54   2.0000      -0.463092       -12.6014
  55   2.0000      -0.443191       -12.0598
  56   2.0000      -0.440784       -11.9943
  57   2.0000      -0.436998       -11.8913
  58   2.0000      -0.431818       -11.7504
  59   2.0000      -0.426232       -11.5984
  60   2.0000      -0.423265       -11.5176
  61   2.0000      -0.415873       -11.3165
  62   2.0000      -0.410191       -11.1619
  63   2.0000      -0.340912        -9.2767
  64   2.0000      -0.331383        -9.0174
  65   2.0000      -0.322710        -8.7814
  66   2.0000      -0.305089        -8.3019
  67   0.0000       0.040081         1.0906
  68   0.0000       0.049189         1.3385
  69   0.0000       0.112661         3.0657
  70   0.0000       0.120278         3.2729
  71   0.0000       0.127799         3.4776

MULLIKEN ATOMIC CHARGES
-----------------------
   0 S :    0.112378
   1 C :   -0.111932
   2 C :   -0.100978
   3 C :    0.029718
   4 C :   -0.176631
   5 H :    0.022147
   6 C :    0.101125
   7 H :    0.012469
   8 H :    0.026268
   9 C :   -0.033712
  10 H :    0.028197
  11 H :    0.004241
  12 C :   -0.099208
  13 H :    0.055292
  14 H :    0.033506
  15 H :    0.045918
  16 S :    0.122143
  17 C :   -0.098565
  18 C :   -0.038665
  19 C :   -0.048341
  20 C :   -0.166542
  21 H :    0.031595
  22 C :    0.068630
  23 H :    0.014238
  24 H :    0.023763
  25 C :   -0.030000
  26 H :    0.027923
  27 H :    0.009367
  28 C :   -0.049599
  29 H :    0.014078
  30 H :    0.029774
  31 H :    0.042742
  32 H :    0.044459
  33 H :    0.054202
Sum of atomic charges:   -0.0000000

LOEWDIN ATOMIC CHARGES
----------------------
   0 S :    0.407401
   1 C :   -0.193277
   2 C :   -0.068712
   3 C :   -0.050892
   4 C :   -0.200676
   5 H :    0.033212
   6 C :   -0.018441
   7 H :    0.028388
   8 H :    0.025358
   9 C :   -0.031336
  10 H :    0.027557
  11 H :    0.009466
  12 C :   -0.071289
  13 H :    0.021400
  14 H :    0.024854
  15 H :    0.035226
  16 S :    0.408200
  17 C :   -0.180494
  18 C :   -0.076229
  19 C :   -0.055875
  20 C :   -0.204546
  21 H :    0.037448
  22 C :   -0.038570
  23 H :    0.029224
  24 H :    0.034899
  25 C :   -0.039042
  26 H :    0.029747
  27 H :    0.017639
  28 C :   -0.064491
  29 H :    0.013923
  30 H :    0.030459
  31 H :    0.028009
  32 H :    0.028472
  33 H :    0.022986

  Mayer bond orders larger than 0.100000
B(  0-S ,  1-C ) :   1.1608 B(  0-S ,  4-C ) :   1.1358 B(  1-C ,  2-C ) :   1.6157
B(  1-C , 32-H ) :   0.9588 B(  2-C ,  3-C ) :   1.2403 B(  2-C ,  6-C ) :   1.0160
B(  3-C ,  4-C ) :   1.6039 B(  3-C ,  5-H ) :   0.9846 B(  4-C , 20-C ) :   1.0115
B(  6-C ,  7-H ) :   0.9358 B(  6-C ,  8-H ) :   0.9470 B(  6-C ,  9-C ) :   1.0588
B(  9-C , 10-H ) :   0.9575 B(  9-C , 11-H ) :   0.9554 B(  9-C , 12-C ) :   1.0794
B( 12-C , 13-H ) :   0.9718 B( 12-C , 14-H ) :   0.9781 B( 12-C , 15-H ) :   0.9711
B( 16-S , 17-C ) :   1.1844 B( 16-S , 20-C ) :   1.1335 B( 17-C , 18-C ) :   1.5743
B( 17-C , 20-C ) :   0.1011 B( 17-C , 33-H ) :   0.9690 B( 18-C , 19-C ) :   1.2539
B( 18-C , 21-H ) :   0.9912 B( 19-C , 20-C ) :   1.6131 B( 19-C , 22-C ) :   1.0416
B( 22-C , 23-H ) :   0.9321 B( 22-C , 24-H ) :   0.9246 B( 22-C , 25-C ) :   1.0850
B( 25-C , 26-H ) :   0.9482 B( 25-C , 27-H ) :   0.9477 B( 25-C , 28-C ) :   1.0882
B( 28-C , 29-H ) :   0.9747 B( 28-C , 30-H ) :   0.9706 B( 28-C , 31-H ) :   0.9684

Dispersion correction           -0.015749920
FINAL SINGLE POINT ENERGY     -1339.875885844328

DIPOLE MOMENT
-------------
                                X             Y             Z
Electronic contribution:      6.10060     -20.40981     -19.30155
Nuclear contribution   :     -6.10410      20.86082      19.64069
                        -----------------------------------------
Total Dipole Moment    :     -0.00349       0.45101       0.33914
                        -----------------------------------------
Magnitude (a.u.)       :      0.56430
Magnitude (Debye)      :      1.43434

Rotational constants in cm-1:     0.017920     0.010182     0.007486
Rotational constants in MHz :   537.228955   305.255610   224.418918

                             ****ORCA TERMINATED NORMALLY****
TOTAL RUN TIME: 0 days 0 hours 0 minutes 36 seconds 942 msec
