                         Program Version 4.2.1 -  RELEASE  -
|  1> ! wB97X-D3 SP def2-SVP
|  2> %pal
|  3> nprocs 16
|  4> end
|  5>
|  6> * xyz 0 1
|  7> S 	 9.53774 	 -10.1813 	 95.5697
|  8> C 	 10.836 	 -10.1588 	 96.652
|  9> C 	 10.4896 	 -9.6609 	 97.9088
| 10> C 	 9.16459 	 -9.19612 	 97.9316
| 11> C 	 8.44147 	 -9.45776 	 96.7215
| 12> H 	 8.67806 	 -8.68674 	 98.7285
| 13> C 	 11.4095 	 -9.46436 	 99.0688
| 14> H 	 11.109 	 -8.54027 	 99.5404
| 15> H 	 12.4767 	 -9.35542 	 98.7262
| 16> C 	 11.2436 	 -10.561 	 100.227
| 17> H 	 11.7679 	 -10.1977 	 101.103
| 18> H 	 10.2061 	 -10.6638 	 100.608
| 19> C 	 11.8887 	 -11.9732 	 99.899
| 20> H 	 12.9 	 -11.9445 	 99.3497
| 21> H 	 11.9332 	 -12.5492 	 100.79
| 22> H 	 11.217 	 -12.5248 	 99.2899
| 23> S 	 6.64952 	 -8.20511 	 94.9122
| 24> C 	 4.9788 	 -8.6538 	 95.1483
| 25> C 	 4.72853 	 -9.4559 	 96.2148
| 26> C 	 5.90494 	 -9.83025 	 96.8828
| 27> C 	 7.05935 	 -9.27068 	 96.3317
| 28> H 	 3.72223 	 -9.78618 	 96.3846
| 29> C 	 5.74545 	 -10.7223 	 98.1038
| 30> H 	 6.75443 	 -11.2159 	 98.064
| 31> H 	 4.98924 	 -11.4578 	 97.8931
| 32> C 	 5.43683 	 -10.0379 	 99.443
| 33> H 	 4.44855 	 -9.74268 	 99.5699
| 34> H 	 6.1282 	 -9.2103 	 99.3033
| 35> C 	 5.84234 	 -10.9013 	 100.672
| 36> H 	 6.89075 	 -10.9275 	 100.713
| 37> H 	 5.54655 	 -11.9201 	 100.687
| 38> H 	 5.50213 	 -10.562 	 101.674
| 39> H 	 11.8014 	 -10.595 	 96.516
| 40> H 	 4.23106 	 -8.4686 	 94.346
| 41> *
| 42>
| 43>                          ****END OF INPUT****

CARTESIAN COORDINATES (ANGSTROEM)
---------------------------------
  S      9.537740  -10.181300   95.569700
  C     10.836000  -10.158800   96.652000
  C     10.489600   -9.660900   97.908800
  C      9.164590   -9.196120   97.931600
  C      8.441470   -9.457760   96.721500
  H      8.678060   -8.686740   98.728500
  C     11.409500   -9.464360   99.068800
  H     11.109000   -8.540270   99.540400
  H     12.476700   -9.355420   98.726200
  C     11.243600  -10.561000  100.227000
  H     11.767900  -10.197700  101.103000
  H     10.206100  -10.663800  100.608000
  C     11.888700  -11.973200   99.899000
  H     12.900000  -11.944500   99.349700
  H     11.933200  -12.549200  100.790000
  H     11.217000  -12.524800   99.289900
  S      6.649520   -8.205110   94.912200
  C      4.978800   -8.653800   95.148300
  C      4.728530   -9.455900   96.214800
  C      5.904940   -9.830250   96.882800
  C      7.059350   -9.270680   96.331700
  H      3.722230   -9.786180   96.384600
  C      5.745450  -10.722300   98.103800
  H      6.754430  -11.215900   98.064000
  H      4.989240  -11.457800   97.893100
  C      5.436830  -10.037900   99.443000
  H      4.448550   -9.742680   99.569900
  H      6.128200   -9.210300   99.303300
  C      5.842340  -10.901300  100.672000
  H      6.890750  -10.927500  100.713000
  H      5.546550  -11.920100  100.687000
  H      5.502130  -10.562000  101.674000
  H     11.801400  -10.595000   96.516000
  H      4.231060   -8.468600   94.346000

 Total Charge           Charge          ....    0
 Multiplicity           Mult            ....    1
 Number of Electrons    NEL             ....  134
 Basis Dimension        Dim             ....  322

ORBITAL ENERGIES
----------------

  NO   OCC          E(Eh)            E(eV)
   0   2.0000     -88.967954     -2420.9411
   1   2.0000     -88.966515     -2420.9019
   2   2.0000     -10.330799      -281.1153
   3   2.0000     -10.330516      -281.1076
   4   2.0000     -10.316424      -280.7242
   5   2.0000     -10.308810      -280.5170
   6   2.0000     -10.302352      -280.3412
   7   2.0000     -10.298981      -280.2495
   8   2.0000     -10.297209      -280.2013
   9   2.0000     -10.296666      -280.1865
  10   2.0000     -10.296517      -280.1825
  11   2.0000     -10.290520      -280.0193
  12   2.0000     -10.286089      -279.8987
  13   2.0000     -10.285090      -279.8715
  14   2.0000     -10.280201      -279.7385
  15   2.0000     -10.273863      -279.5660
  16   2.0000      -8.083474      -219.9625
  17   2.0000      -8.080491      -219.8813
  18   2.0000      -6.041726      -164.4037
  19   2.0000      -6.038983      -164.3291
  20   2.0000      -6.037588      -164.2911
  21   2.0000      -6.035283      -164.2284
  22   2.0000      -6.034751      -164.2139
  23   2.0000      -6.031149      -164.1159
  24   2.0000      -1.005941       -27.3730
  25   2.0000      -0.985302       -26.8114
  26   2.0000      -0.908668       -24.7261
  27   2.0000      -0.903978       -24.5985
  28   2.0000      -0.865592       -23.5539
  29   2.0000      -0.852405       -23.1951
  30   2.0000      -0.847983       -23.0748
  31   2.0000      -0.810713       -22.0606
  32   2.0000      -0.785329       -21.3699
  33   2.0000      -0.771721       -20.9996
  34   2.0000      -0.714000       -19.4289
  35   2.0000      -0.702052       -19.1038
  36   2.0000      -0.693579       -18.8732
  37   2.0000      -0.659889       -17.9565
  38   2.0000      -0.642812       -17.4918
  39   2.0000      -0.617721       -16.8091
  40   2.0000      -0.589163       -16.0319
  41   2.0000      -0.577555       -15.7161
  42   2.0000      -0.566243       -15.4083
  43   2.0000      -0.542245       -14.7553
  44   2.0000      -0.536760       -14.6060
  45   2.0000      -0.521184       -14.1821
  46   2.0000      -0.516061       -14.0427
  47   2.0000      -0.511063       -13.9067
  48   2.0000      -0.506033       -13.7698
  49   2.0000      -0.495751       -13.4901
  50   2.0000      -0.485318       -13.2062
  51   2.0000      -0.480938       -13.0870
  52   2.0000      -0.472490       -12.8571
  53   2.0000      -0.466802       -12.7023
  54   2.0000      -0.459632       -12.5072
  55   2.0000      -0.453392       -12.3374
  56   2.0000      -0.445492       -12.1225
  57   2.0000      -0.438331       -11.9276
  58   2.0000      -0.436499       -11.8777
  59   2.0000      -0.426855       -11.6153
  60   2.0000      -0.417283       -11.3548
  61   2.0000      -0.416556       -11.3351
  62   2.0000      -0.412763       -11.2319
  63   2.0000      -0.339587        -9.2406
  64   2.0000      -0.332841        -9.0571
  65   2.0000      -0.330146        -8.9837
  66   2.0000      -0.293677        -7.9913
  67   0.0000       0.028254         0.7688
  68   0.0000       0.062616         1.7039
  69   0.0000       0.111010         3.0207
  70   0.0000       0.120295         3.2734
  71   0.0000       0.123664         3.3651

MULLIKEN ATOMIC CHARGES
-----------------------
   0 S :    0.137479
   1 C :   -0.094566
   2 C :   -0.086788
   3 C :    0.046228
   4 C :   -0.201243
   5 H :    0.002197
   6 C :    0.050694
   7 H :    0.024106
   8 H :    0.039194
   9 C :   -0.090251
  10 H :    0.026885
  11 H :    0.036612
  12 C :   -0.055786
  13 H :    0.044768
  14 H :    0.028448
  15 H :    0.027395
  16 S :    0.104602
  17 C :   -0.103114
  18 C :   -0.018696
  19 C :   -0.024671
  20 C :   -0.179251
  21 H :    0.012645
  22 C :    0.044902
  23 H :    0.040541
  24 H :    0.018951
  25 C :   -0.008931
  26 H :    0.021192
  27 H :    0.025847
  28 C :   -0.036738
  29 H :    0.013992
  30 H :    0.019931
  31 H :    0.029301
  32 H :    0.035132
  33 H :    0.068992
Sum of atomic charges:   -0.0000000

LOEWDIN ATOMIC CHARGES
----------------------
   0 S :    0.449589
   1 C :   -0.215502
   2 C :   -0.072273
   3 C :   -0.053544
   4 C :   -0.206005
   5 H :    0.024986
   6 C :   -0.030421
   7 H :    0.031338
   8 H :    0.036805
   9 C :   -0.037923
  10 H :    0.019642
  11 H :    0.027853
  12 C :   -0.070924
  13 H :    0.034447
  14 H :    0.021990
  15 H :    0.019237
  16 S :    0.375598
  17 C :   -0.179842
  18 C :   -0.075205
  19 C :   -0.048617
  20 C :   -0.195473
  21 H :    0.032429
  22 C :   -0.030082
  23 H :    0.039542
  24 H :    0.023884
  25 C :   -0.026613
  26 H :    0.015686
  27 H :    0.027011
  28 C :   -0.064074
  29 H :    0.017949
  30 H :    0.020406
  31 H :    0.029136
  32 H :    0.024679
  33 H :    0.034293

  Mayer bond orders larger than 0.100000
B(  0-S ,  1-C ) :   1.1760 B(  0-S ,  4-C ) :   1.1855 B(  1-C ,  2-C ) :   1.5565
B(  1-C ,  4-C ) :   0.1080 B(  1-C , 32-H ) :   0.9666 B(  2-C ,  3-C ) :   1.2883
B(  2-C ,  6-C ) :   1.0285 B(  3-C ,  4-C ) :   1.5103 B(  3-C ,  5-H ) :   1.0018
B(  4-C , 20-C ) :   1.0559 B(  6-C ,  7-H ) :   0.9378 B(  6-C ,  8-H ) :   0.9497
B(  6-C ,  9-C ) :   1.0619 B(  9-C , 10-H ) :   0.9623 B(  9-C , 11-H ) :   0.9577
B(  9-C , 12-C ) :   1.0628 B( 12-C , 13-H ) :   0.9771 B( 12-C , 14-H ) :   0.9753
B( 12-C , 15-H ) :   0.9780 B( 16-S , 17-C ) :   1.1525 B( 16-S , 20-C ) :   1.1182
B( 17-C , 18-C ) :   1.6315 B( 17-C , 33-H ) :   0.9543 B( 18-C , 19-C ) :   1.2257
B( 18-C , 21-H ) :   0.9944 B( 19-C , 20-C ) :   1.5945 B( 19-C , 22-C ) :   1.0440
B( 22-C , 23-H ) :   0.9340 B( 22-C , 24-H ) :   0.9298 B( 22-C , 25-C ) :   1.0503
B( 25-C , 26-H ) :   0.9576 B( 25-C , 27-H ) :   0.9594 B( 25-C , 28-C ) :   1.0757
B( 28-C , 29-H ) :   0.9768 B( 28-C , 30-H ) :   0.9753 B( 28-C , 31-H ) :   0.9756

Dispersion correction           -0.014702936
FINAL SINGLE POINT ENERGY     -1339.867453205411

DIPOLE MOMENT
-------------
                                X             Y             Z
Electronic contribution:     -4.22804      11.04796     -28.89967
Nuclear contribution   :      4.13284     -11.31944      29.47831
                        -----------------------------------------
Total Dipole Moment    :     -0.09520      -0.27148       0.57864
                        -----------------------------------------
Magnitude (a.u.)       :      0.64621
Magnitude (Debye)      :      1.64253

Rotational constants in cm-1:     0.018348     0.009332     0.006726
Rotational constants in MHz :   550.069988   279.771070   201.636222

                             ****ORCA TERMINATED NORMALLY****
TOTAL RUN TIME: 0 days 0 hours 0 minutes 34 seconds 611 msec
