                         Program Version 4.2.1 -  RELEASE  -
|  1> ! wB97X-D3 SP def2-SVP
|  2> %pal
|  3> nprocs 16
|  4> end
|  5>
|  6> * xyz 0 1
|  7> S 	 -48.0401 	 33.314 	 98.4232
|  8> C 	 -47.6881 	 34.4127 	 97.0522
|  9> C 	 -47.0832 	 35.621 	 97.4116
| 10> C 	 -46.8019 	 35.6529 	 98.8024
| 11> C 	 -47.2147 	 34.4853 	 99.5037
| 12> H 	 -46.3 	 36.4302 	 99.3045
| 13> C 	 -46.6713 	 36.718 	 96.498
| 14> H 	 -45.8629 	 36.3951 	 95.9033
| 15> H 	 -46.2711 	 37.5399 	 97.0487
| 16> C 	 -47.8597 	 37.0649 	 95.5678
| 17> H 	 -47.6083 	 37.77 	 94.8254
| 18> H 	 -48.3624 	 36.1679 	 95.178
| 19> C 	 -48.9419 	 37.7618 	 96.3607
| 20> H 	 -48.6198 	 38.7433 	 96.727
| 21> H 	 -49.8325 	 37.8968 	 95.7438
| 22> H 	 -49.0739 	 37.2938 	 97.3132
| 23> S 	 -48.9152 	 34.2543 	 101.503
| 24> C 	 -48.2608 	 33.8265 	 103.054
| 25> C 	 -46.9324 	 34.1007 	 103.179
| 26> C 	 -46.3427 	 34.4241 	 101.926
| 27> C 	 -47.2755 	 34.2718 	 100.906
| 28> H 	 -46.4497 	 34.0368 	 104.163
| 29> C 	 -44.8702 	 34.7388 	 101.813
| 30> H 	 -44.713 	 35.5913 	 102.425
| 31> H 	 -44.6523 	 35.104 	 100.832
| 32> C 	 -43.9085 	 33.6026 	 102.276
| 33> H 	 -44.2999 	 33.3562 	 103.284
| 34> H 	 -42.8965 	 34.0188 	 102.326
| 35> C 	 -44.0907 	 32.3625 	 101.298
| 36> H 	 -43.9418 	 31.3516 	 101.772
| 37> H 	 -43.5398 	 32.4786 	 100.37
| 38> H 	 -45.1092 	 32.2393 	 101.012
| 39> H 	 -47.7633 	 34.0879 	 96.1074
| 40> H 	 -48.8324 	 33.5383 	 103.913
| 41> *
| 42>
| 43>                          ****END OF INPUT****

CARTESIAN COORDINATES (ANGSTROEM)
---------------------------------
  S    -48.040100   33.314000   98.423200
  C    -47.688100   34.412700   97.052200
  C    -47.083200   35.621000   97.411600
  C    -46.801900   35.652900   98.802400
  C    -47.214700   34.485300   99.503700
  H    -46.300000   36.430200   99.304500
  C    -46.671300   36.718000   96.498000
  H    -45.862900   36.395100   95.903300
  H    -46.271100   37.539900   97.048700
  C    -47.859700   37.064900   95.567800
  H    -47.608300   37.770000   94.825400
  H    -48.362400   36.167900   95.178000
  C    -48.941900   37.761800   96.360700
  H    -48.619800   38.743300   96.727000
  H    -49.832500   37.896800   95.743800
  H    -49.073900   37.293800   97.313200
  S    -48.915200   34.254300  101.503000
  C    -48.260800   33.826500  103.054000
  C    -46.932400   34.100700  103.179000
  C    -46.342700   34.424100  101.926000
  C    -47.275500   34.271800  100.906000
  H    -46.449700   34.036800  104.163000
  C    -44.870200   34.738800  101.813000
  H    -44.713000   35.591300  102.425000
  H    -44.652300   35.104000  100.832000
  C    -43.908500   33.602600  102.276000
  H    -44.299900   33.356200  103.284000
  H    -42.896500   34.018800  102.326000
  C    -44.090700   32.362500  101.298000
  H    -43.941800   31.351600  101.772000
  H    -43.539800   32.478600  100.370000
  H    -45.109200   32.239300  101.012000
  H    -47.763300   34.087900   96.107400
  H    -48.832400   33.538300  103.913000

 Total Charge           Charge          ....    0
 Multiplicity           Mult            ....    1
 Number of Electrons    NEL             ....  134
 Basis Dimension        Dim             ....  322

ORBITAL ENERGIES
----------------

  NO   OCC          E(Eh)            E(eV)
   0   2.0000     -88.969372     -2420.9797
   1   2.0000     -88.962855     -2420.8024
   2   2.0000     -10.330802      -281.1154
   3   2.0000     -10.318558      -280.7822
   4   2.0000     -10.309369      -280.5322
   5   2.0000     -10.308469      -280.5077
   6   2.0000     -10.302238      -280.3381
   7   2.0000     -10.301358      -280.3142
   8   2.0000     -10.295476      -280.1541
   9   2.0000     -10.295067      -280.1430
  10   2.0000     -10.290021      -280.0057
  11   2.0000     -10.287494      -279.9370
  12   2.0000     -10.285454      -279.8814
  13   2.0000     -10.282045      -279.7887
  14   2.0000     -10.274419      -279.5812
  15   2.0000     -10.266667      -279.3702
  16   2.0000      -8.082562      -219.9377
  17   2.0000      -8.078253      -219.8204
  18   2.0000      -6.041036      -164.3849
  19   2.0000      -6.037316      -164.2837
  20   2.0000      -6.036669      -164.2661
  21   2.0000      -6.033425      -164.1778
  22   2.0000      -6.033078      -164.1684
  23   2.0000      -6.028636      -164.0475
  24   2.0000      -1.008060       -27.4307
  25   2.0000      -0.978822       -26.6351
  26   2.0000      -0.919311       -25.0157
  27   2.0000      -0.905530       -24.6407
  28   2.0000      -0.869646       -23.6643
  29   2.0000      -0.849540       -23.1172
  30   2.0000      -0.840169       -22.8622
  31   2.0000      -0.809381       -22.0244
  32   2.0000      -0.785033       -21.3618
  33   2.0000      -0.773039       -21.0355
  34   2.0000      -0.713066       -19.4035
  35   2.0000      -0.704105       -19.1597
  36   2.0000      -0.694212       -18.8905
  37   2.0000      -0.659515       -17.9463
  38   2.0000      -0.645723       -17.5710
  39   2.0000      -0.614883       -16.7318
  40   2.0000      -0.598595       -16.2886
  41   2.0000      -0.579505       -15.7691
  42   2.0000      -0.559075       -15.2132
  43   2.0000      -0.547570       -14.9001
  44   2.0000      -0.541976       -14.7479
  45   2.0000      -0.534341       -14.5402
  46   2.0000      -0.520826       -14.1724
  47   2.0000      -0.509854       -13.8738
  48   2.0000      -0.500401       -13.6166
  49   2.0000      -0.490223       -13.3396
  50   2.0000      -0.486414       -13.2360
  51   2.0000      -0.480912       -13.0863
  52   2.0000      -0.464344       -12.6354
  53   2.0000      -0.461495       -12.5579
  54   2.0000      -0.457308       -12.4440
  55   2.0000      -0.452715       -12.3190
  56   2.0000      -0.441275       -12.0077
  57   2.0000      -0.433953       -11.8085
  58   2.0000      -0.430321       -11.7096
  59   2.0000      -0.425408       -11.5759
  60   2.0000      -0.422416       -11.4945
  61   2.0000      -0.421057       -11.4575
  62   2.0000      -0.419413       -11.4128
  63   2.0000      -0.342551        -9.3213
  64   2.0000      -0.330230        -8.9860
  65   2.0000      -0.326008        -8.8711
  66   2.0000      -0.286439        -7.7944
  67   0.0000       0.023363         0.6357
  68   0.0000       0.060563         1.6480
  69   0.0000       0.101740         2.7685
  70   0.0000       0.109216         2.9719
  71   0.0000       0.131704         3.5839

MULLIKEN ATOMIC CHARGES
-----------------------
   0 S :    0.108654
   1 C :   -0.081524
   2 C :   -0.111703
   3 C :    0.065224
   4 C :   -0.190540
   5 H :   -0.004617
   6 C :    0.124908
   7 H :    0.029185
   8 H :    0.008188
   9 C :   -0.068070
  10 H :    0.021586
  11 H :    0.037238
  12 C :   -0.042708
  13 H :    0.005956
  14 H :    0.039999
  15 H :    0.026423
  16 S :    0.114475
  17 C :   -0.067678
  18 C :   -0.061559
  19 C :   -0.037723
  20 C :   -0.163070
  21 H :    0.028588
  22 C :    0.097949
  23 H :    0.017880
  24 H :    0.002559
  25 C :   -0.064307
  26 H :    0.029491
  27 H :    0.042576
  28 C :   -0.051145
  29 H :    0.035358
  30 H :    0.037484
  31 H :    0.024444
  32 H :    0.006578
  33 H :    0.039903
Sum of atomic charges:   -0.0000000

LOEWDIN ATOMIC CHARGES
----------------------
   0 S :    0.382629
   1 C :   -0.168060
   2 C :   -0.052768
   3 C :   -0.051379
   4 C :   -0.184699
   5 H :    0.022313
   6 C :   -0.023185
   7 H :    0.030921
   8 H :    0.026845
   9 C :   -0.032288
  10 H :    0.017569
  11 H :    0.028406
  12 C :   -0.064318
  13 H :    0.019839
  14 H :    0.026616
  15 H :    0.021802
  16 S :    0.411097
  17 C :   -0.182480
  18 C :   -0.073658
  19 C :   -0.051661
  20 C :   -0.207716
  21 H :    0.035846
  22 C :   -0.029823
  23 H :    0.028557
  24 H :    0.020718
  25 C :   -0.031046
  26 H :    0.024257
  27 H :    0.026497
  28 C :   -0.071877
  29 H :    0.031922
  30 H :    0.026448
  31 H :    0.022994
  32 H :   -0.002692
  33 H :    0.022375

  Mayer bond orders larger than 0.100000
B(  0-S ,  1-C ) :   1.1353 B(  0-S ,  4-C ) :   1.1504 B(  1-C ,  2-C ) :   1.5894
B(  1-C ,  4-C ) :   0.1111 B(  1-C , 32-H ) :   0.9785 B(  2-C ,  3-C ) :   1.2510
B(  2-C ,  6-C ) :   1.0194 B(  3-C ,  4-C ) :   1.5449 B(  3-C ,  5-H ) :   0.9956
B(  4-C , 20-C ) :   1.0586 B(  6-C ,  7-H ) :   0.9267 B(  6-C ,  8-H ) :   0.9428
B(  6-C ,  9-C ) :   1.0701 B(  9-C , 10-H ) :   0.9565 B(  9-C , 11-H ) :   0.9586
B(  9-C , 12-C ) :   1.0748 B( 12-C , 13-H ) :   0.9693 B( 12-C , 14-H ) :   0.9737
B( 12-C , 15-H ) :   0.9738 B( 16-S , 17-C ) :   1.1374 B( 16-S , 20-C ) :   1.1503
B( 17-C , 18-C ) :   1.6434 B( 17-C , 33-H ) :   0.9680 B( 18-C , 19-C ) :   1.2038
B( 18-C , 21-H ) :   0.9878 B( 19-C , 20-C ) :   1.5894 B( 19-C , 22-C ) :   1.0545
B( 22-C , 23-H ) :   0.9248 B( 22-C , 24-H ) :   0.9299 B( 22-C , 25-C ) :   1.0669
B( 25-C , 26-H ) :   0.9582 B( 25-C , 27-H ) :   0.9598 B( 25-C , 28-C ) :   1.0565
B( 28-C , 29-H ) :   0.9760 B( 28-C , 30-H ) :   0.9774 B( 28-C , 31-H ) :   0.9756

Dispersion correction           -0.014925967
FINAL SINGLE POINT ENERGY     -1339.853245621826

DIPOLE MOMENT
-------------
                                X             Y             Z
Electronic contribution:    -13.06744      -9.14761       6.53308
Nuclear contribution   :     13.51017       9.59808      -6.55534
                        -----------------------------------------
Total Dipole Moment    :      0.44273       0.45047      -0.02226
                        -----------------------------------------
Magnitude (a.u.)       :      0.63200
Magnitude (Debye)      :      1.60642

Rotational constants in cm-1:     0.022451     0.008134     0.007258
Rotational constants in MHz :   673.073324   243.850280   217.598246

                             ****ORCA TERMINATED NORMALLY****
TOTAL RUN TIME: 0 days 0 hours 0 minutes 31 seconds 410 msec
