                         Program Version 4.2.1 -  RELEASE  -
|  1> ! wB97X-D3 SP def2-SVP
|  2> %pal
|  3> nprocs 16
|  4> end
|  5>
|  6> * xyz 0 1
|  7> S 	 -76.5175 	 49.8105 	 137.38
|  8> C 	 -77.6692 	 48.9197 	 138.362
|  9> C 	 -78.6607 	 49.7911 	 138.796
| 10> C 	 -78.6388 	 51.0605 	 138.158
| 11> C 	 -77.569 	 51.1906 	 137.318
| 12> H 	 -79.4203 	 51.8154 	 138.306
| 13> C 	 -79.8562 	 49.2669 	 139.629
| 14> H 	 -80.1882 	 50.0737 	 140.282
| 15> H 	 -79.577 	 48.4648 	 140.277
| 16> C 	 -81.0354 	 48.806 	 138.79
| 17> H 	 -81.2863 	 49.5184 	 138.032
| 18> H 	 -80.7897 	 47.9843 	 138.088
| 19> C 	 -82.2858 	 48.3534 	 139.638
| 20> H 	 -81.9266 	 47.6455 	 140.334
| 21> H 	 -82.7548 	 49.2005 	 140.171
| 22> H 	 -83.0169 	 47.8305 	 139.005
| 23> S 	 -77.2286 	 51.9785 	 134.693
| 24> C 	 -77.1768 	 53.6824 	 134.34
| 25> C 	 -76.914 	 54.4637 	 135.491
| 26> C 	 -77.098 	 53.691 	 136.711
| 27> C 	 -77.215 	 52.3135 	 136.455
| 28> H 	 -76.6714 	 55.4728 	 135.372
| 29> C 	 -76.983 	 54.3882 	 138.082
| 30> H 	 -75.9281 	 54.6222 	 138.259
| 31> H 	 -77.3902 	 53.6677 	 138.86
| 32> C 	 -77.853 	 55.618 	 138.266
| 33> H 	 -77.8166 	 56.2258 	 137.291
| 34> H 	 -77.4188 	 56.2579 	 139.094
| 35> C 	 -79.3357 	 55.3148 	 138.507
| 36> H 	 -79.7895 	 56.0826 	 139.107
| 37> H 	 -79.27 	 54.4497 	 139.134
| 38> H 	 -79.8359 	 55.0725 	 137.576
| 39> H 	 -77.727 	 47.8245 	 138.469
| 40> H 	 -77.1893 	 54.0863 	 133.379
| 41> *
| 42>
| 43>                          ****END OF INPUT****

CARTESIAN COORDINATES (ANGSTROEM)
---------------------------------
  S    -76.517500   49.810500  137.380000
  C    -77.669200   48.919700  138.362000
  C    -78.660700   49.791100  138.796000
  C    -78.638800   51.060500  138.158000
  C    -77.569000   51.190600  137.318000
  H    -79.420300   51.815400  138.306000
  C    -79.856200   49.266900  139.629000
  H    -80.188200   50.073700  140.282000
  H    -79.577000   48.464800  140.277000
  C    -81.035400   48.806000  138.790000
  H    -81.286300   49.518400  138.032000
  H    -80.789700   47.984300  138.088000
  C    -82.285800   48.353400  139.638000
  H    -81.926600   47.645500  140.334000
  H    -82.754800   49.200500  140.171000
  H    -83.016900   47.830500  139.005000
  S    -77.228600   51.978500  134.693000
  C    -77.176800   53.682400  134.340000
  C    -76.914000   54.463700  135.491000
  C    -77.098000   53.691000  136.711000
  C    -77.215000   52.313500  136.455000
  H    -76.671400   55.472800  135.372000
  C    -76.983000   54.388200  138.082000
  H    -75.928100   54.622200  138.259000
  H    -77.390200   53.667700  138.860000
  C    -77.853000   55.618000  138.266000
  H    -77.816600   56.225800  137.291000
  H    -77.418800   56.257900  139.094000
  C    -79.335700   55.314800  138.507000
  H    -79.789500   56.082600  139.107000
  H    -79.270000   54.449700  139.134000
  H    -79.835900   55.072500  137.576000
  H    -77.727000   47.824500  138.469000
  H    -77.189300   54.086300  133.379000

 Total Charge           Charge          ....    0
 Multiplicity           Mult            ....    1
 Number of Electrons    NEL             ....  134
 Basis Dimension        Dim             ....  322

ORBITAL ENERGIES
----------------

  NO   OCC          E(Eh)            E(eV)
   0   2.0000     -88.968145     -2420.9463
   1   2.0000     -88.963610     -2420.8229
   2   2.0000     -10.330722      -281.1132
   3   2.0000     -10.327572      -281.0275
   4   2.0000     -10.320082      -280.8237
   5   2.0000     -10.314024      -280.6589
   6   2.0000     -10.313613      -280.6477
   7   2.0000     -10.300926      -280.3025
   8   2.0000     -10.297739      -280.2157
   9   2.0000     -10.297680      -280.2141
  10   2.0000     -10.294389      -280.1246
  11   2.0000     -10.293394      -280.0975
  12   2.0000     -10.290010      -280.0054
  13   2.0000     -10.283998      -279.8418
  14   2.0000     -10.280010      -279.7333
  15   2.0000     -10.273889      -279.5667
  16   2.0000      -8.082317      -219.9310
  17   2.0000      -8.078619      -219.8304
  18   2.0000      -6.040820      -164.3791
  19   2.0000      -6.037103      -164.2779
  20   2.0000      -6.036927      -164.2731
  21   2.0000      -6.033076      -164.1683
  22   2.0000      -6.033075      -164.1683
  23   2.0000      -6.029409      -164.0686
  24   2.0000      -1.004692       -27.3391
  25   2.0000      -0.979419       -26.6513
  26   2.0000      -0.911105       -24.7924
  27   2.0000      -0.907069       -24.6826
  28   2.0000      -0.865097       -23.5405
  29   2.0000      -0.849063       -23.1042
  30   2.0000      -0.843449       -22.9514
  31   2.0000      -0.812690       -22.1144
  32   2.0000      -0.783830       -21.3291
  33   2.0000      -0.770833       -20.9754
  34   2.0000      -0.705592       -19.2001
  35   2.0000      -0.698183       -18.9985
  36   2.0000      -0.690840       -18.7987
  37   2.0000      -0.656971       -17.8771
  38   2.0000      -0.640418       -17.4267
  39   2.0000      -0.622653       -16.9432
  40   2.0000      -0.598195       -16.2777
  41   2.0000      -0.566619       -15.4185
  42   2.0000      -0.561928       -15.2908
  43   2.0000      -0.554654       -15.0929
  44   2.0000      -0.543589       -14.7918
  45   2.0000      -0.526196       -14.3185
  46   2.0000      -0.515238       -14.0203
  47   2.0000      -0.508504       -13.8371
  48   2.0000      -0.506388       -13.7795
  49   2.0000      -0.500444       -13.6178
  50   2.0000      -0.492042       -13.3892
  51   2.0000      -0.471629       -12.8337
  52   2.0000      -0.467823       -12.7301
  53   2.0000      -0.463909       -12.6236
  54   2.0000      -0.455895       -12.4055
  55   2.0000      -0.449776       -12.2390
  56   2.0000      -0.446753       -12.1568
  57   2.0000      -0.444561       -12.0971
  58   2.0000      -0.440729       -11.9929
  59   2.0000      -0.420339       -11.4380
  60   2.0000      -0.419361       -11.4114
  61   2.0000      -0.409505       -11.1432
  62   2.0000      -0.408839       -11.1251
  63   2.0000      -0.338754        -9.2180
  64   2.0000      -0.331264        -9.0142
  65   2.0000      -0.329218        -8.9585
  66   2.0000      -0.295996        -8.0545
  67   0.0000       0.030396         0.8271
  68   0.0000       0.060387         1.6432
  69   0.0000       0.110775         3.0143
  70   0.0000       0.116528         3.1709
  71   0.0000       0.124953         3.4001

MULLIKEN ATOMIC CHARGES
-----------------------
   0 S :    0.109269
   1 C :   -0.133937
   2 C :   -0.095200
   3 C :    0.034015
   4 C :   -0.153157
   5 H :    0.019510
   6 C :    0.074797
   7 H :    0.020260
   8 H :    0.014805
   9 C :   -0.081281
  10 H :    0.014405
  11 H :    0.016930
  12 C :   -0.037738
  13 H :    0.020721
  14 H :    0.040806
  15 H :    0.038975
  16 S :    0.114091
  17 C :   -0.077482
  18 C :   -0.026228
  19 C :   -0.032069
  20 C :   -0.152806
  21 H :    0.011019
  22 C :    0.054201
  23 H :    0.052953
  24 H :    0.034979
  25 C :   -0.146069
  26 H :    0.033409
  27 H :    0.042098
  28 C :   -0.008112
  29 H :    0.036301
  30 H :    0.005571
  31 H :    0.049477
  32 H :    0.064672
  33 H :    0.040812
Sum of atomic charges:   -0.0000000

LOEWDIN ATOMIC CHARGES
----------------------
   0 S :    0.405678
   1 C :   -0.203710
   2 C :   -0.059202
   3 C :   -0.068149
   4 C :   -0.195586
   5 H :    0.036313
   6 C :   -0.029134
   7 H :    0.029478
   8 H :    0.024370
   9 C :   -0.046360
  10 H :    0.017976
  11 H :    0.025236
  12 C :   -0.061734
  13 H :    0.017673
  14 H :    0.027376
  15 H :    0.029962
  16 S :    0.400995
  17 C :   -0.170361
  18 C :   -0.064454
  19 C :   -0.045361
  20 C :   -0.199052
  21 H :    0.021509
  22 C :   -0.036425
  23 H :    0.038665
  24 H :    0.034902
  25 C :   -0.053324
  26 H :    0.025188
  27 H :    0.030454
  28 C :   -0.060749
  29 H :    0.028021
  30 H :    0.017014
  31 H :    0.030326
  32 H :    0.036107
  33 H :    0.016359

  Mayer bond orders larger than 0.100000
B(  0-S ,  1-C ) :   1.1298 B(  0-S ,  4-C ) :   1.1666 B(  1-C ,  2-C ) :   1.6068
B(  1-C , 32-H ) :   0.9672 B(  2-C ,  3-C ) :   1.2429 B(  2-C ,  6-C ) :   1.0358
B(  3-C ,  4-C ) :   1.5728 B(  3-C ,  5-H ) :   0.9965 B(  4-C , 20-C ) :   1.0077
B(  6-C ,  7-H ) :   0.9381 B(  6-C ,  8-H ) :   0.9424 B(  6-C ,  9-C ) :   1.0608
B(  9-C , 10-H ) :   0.9554 B(  9-C , 11-H ) :   0.9522 B(  9-C , 12-C ) :   1.0708
B( 12-C , 13-H ) :   0.9762 B( 12-C , 14-H ) :   0.9778 B( 12-C , 15-H ) :   0.9755
B( 16-S , 17-C ) :   1.1738 B( 16-S , 20-C ) :   1.1268 B( 17-C , 18-C ) :   1.6018
B( 17-C , 20-C ) :   0.1008 B( 17-C , 33-H ) :   0.9741 B( 18-C , 19-C ) :   1.2138
B( 18-C , 21-H ) :   0.9939 B( 19-C , 20-C ) :   1.6056 B( 19-C , 22-C ) :   1.0319
B( 22-C , 23-H ) :   0.9387 B( 22-C , 24-H ) :   0.9394 B( 22-C , 25-C ) :   1.0660
B( 25-C , 26-H ) :   0.9556 B( 25-C , 27-H ) :   0.9562 B( 25-C , 28-C ) :   1.0648
B( 28-C , 29-H ) :   0.9727 B( 28-C , 30-H ) :   0.9726 B( 28-C , 31-H ) :   0.9762

Dispersion correction           -0.014312087
FINAL SINGLE POINT ENERGY     -1339.874213045665

DIPOLE MOMENT
-------------
                                X             Y             Z
Electronic contribution:     20.33812      -5.65684     -17.27972
Nuclear contribution   :    -20.73117       6.00502      17.48959
                        -----------------------------------------
Total Dipole Moment    :     -0.39306       0.34818       0.20986
                        -----------------------------------------
Magnitude (a.u.)       :      0.56548
Magnitude (Debye)      :      1.43733

Rotational constants in cm-1:     0.018357     0.008224     0.006763
Rotational constants in MHz :   550.339323   246.549756   202.752888

                             ****ORCA TERMINATED NORMALLY****
TOTAL RUN TIME: 0 days 0 hours 0 minutes 34 seconds 586 msec
