                         Program Version 4.2.1 -  RELEASE  -
|  1> ! wB97X-D3 SP def2-SVP
|  2> %pal
|  3> nprocs 16
|  4> end
|  5>
|  6> * xyz 0 1
|  7> S 	 10.7325 	 -9.91579 	 87.3437
|  8> C 	 11.7459 	 -9.25443 	 88.5729
|  9> C 	 10.9553 	 -8.67129 	 89.5772
| 10> C 	 9.5413 	 -8.90529 	 89.3912
| 11> C 	 9.30459 	 -9.60876 	 88.2416
| 12> H 	 8.81289 	 -8.66566 	 90.1196
| 13> C 	 11.5364 	 -7.93492 	 90.751
| 14> H 	 11.4992 	 -6.83639 	 90.5592
| 15> H 	 12.5562 	 -8.18822 	 90.8364
| 16> C 	 10.935 	 -8.44343 	 92.1156
| 17> H 	 9.95916 	 -8.04783 	 92.104
| 18> H 	 10.8468 	 -9.53781 	 92.2225
| 19> C 	 11.6789 	 -7.98118 	 93.4499
| 20> H 	 11.5138 	 -8.61214 	 94.3235
| 21> H 	 12.7795 	 -8.02748 	 93.3357
| 22> H 	 11.3433 	 -6.98007 	 93.6768
| 23> S 	 7.75372 	 -11.6162 	 87.1106
| 24> C 	 6.03083 	 -11.2358 	 86.9269
| 25> C 	 5.68201 	 -9.92896 	 87.4014
| 26> C 	 6.78823 	 -9.21109 	 87.9227
| 27> C 	 7.97865 	 -9.96042 	 87.7664
| 28> H 	 4.62935 	 -9.69041 	 87.3118
| 29> C 	 6.6089 	 -7.75004 	 88.515
| 30> H 	 5.98799 	 -7.19599 	 87.8349
| 31> H 	 7.63975 	 -7.31518 	 88.5435
| 32> C 	 5.88139 	 -7.64172 	 89.8141
| 33> H 	 6.41989 	 -8.12915 	 90.5615
| 34> H 	 4.94945 	 -8.11398 	 89.891
| 35> C 	 5.62274 	 -6.19244 	 90.2154
| 36> H 	 6.55206 	 -5.59842 	 90.3422
| 37> H 	 5.10198 	 -6.00064 	 91.1978
| 38> H 	 5.07135 	 -5.70212 	 89.434
| 39> H 	 12.8207 	 -9.10083 	 88.6219
| 40> H 	 5.15696 	 -11.7913 	 86.5554
| 41> *
| 42>
| 43>                          ****END OF INPUT****

CARTESIAN COORDINATES (ANGSTROEM)
---------------------------------
  S     10.732500   -9.915790   87.343700
  C     11.745900   -9.254430   88.572900
  C     10.955300   -8.671290   89.577200
  C      9.541300   -8.905290   89.391200
  C      9.304590   -9.608760   88.241600
  H      8.812890   -8.665660   90.119600
  C     11.536400   -7.934920   90.751000
  H     11.499200   -6.836390   90.559200
  H     12.556200   -8.188220   90.836400
  C     10.935000   -8.443430   92.115600
  H      9.959160   -8.047830   92.104000
  H     10.846800   -9.537810   92.222500
  C     11.678900   -7.981180   93.449900
  H     11.513800   -8.612140   94.323500
  H     12.779500   -8.027480   93.335700
  H     11.343300   -6.980070   93.676800
  S      7.753720  -11.616200   87.110600
  C      6.030830  -11.235800   86.926900
  C      5.682010   -9.928960   87.401400
  C      6.788230   -9.211090   87.922700
  C      7.978650   -9.960420   87.766400
  H      4.629350   -9.690410   87.311800
  C      6.608900   -7.750040   88.515000
  H      5.987990   -7.195990   87.834900
  H      7.639750   -7.315180   88.543500
  C      5.881390   -7.641720   89.814100
  H      6.419890   -8.129150   90.561500
  H      4.949450   -8.113980   89.891000
  C      5.622740   -6.192440   90.215400
  H      6.552060   -5.598420   90.342200
  H      5.101980   -6.000640   91.197800
  H      5.071350   -5.702120   89.434000
  H     12.820700   -9.100830   88.621900
  H      5.156960  -11.791300   86.555400

 Total Charge           Charge          ....    0
 Multiplicity           Mult            ....    1
 Number of Electrons    NEL             ....  134
 Basis Dimension        Dim             ....  322

ORBITAL ENERGIES
----------------

  NO   OCC          E(Eh)            E(eV)
   0   2.0000     -88.976234     -2421.1664
   1   2.0000     -88.968387     -2420.9529
   2   2.0000     -10.332789      -281.1695
   3   2.0000     -10.324530      -280.9447
   4   2.0000     -10.323192      -280.9083
   5   2.0000     -10.312613      -280.6205
   6   2.0000     -10.310875      -280.5732
   7   2.0000     -10.300040      -280.2783
   8   2.0000     -10.298985      -280.2496
   9   2.0000     -10.297599      -280.2119
  10   2.0000     -10.292657      -280.0774
  11   2.0000     -10.290434      -280.0170
  12   2.0000     -10.288750      -279.9711
  13   2.0000     -10.282962      -279.8136
  14   2.0000     -10.282806      -279.8094
  15   2.0000     -10.277513      -279.6654
  16   2.0000      -8.089099      -220.1156
  17   2.0000      -8.083758      -219.9702
  18   2.0000      -6.047629      -164.5644
  19   2.0000      -6.044018      -164.4661
  20   2.0000      -6.042297      -164.4193
  21   2.0000      -6.039791      -164.3511
  22   2.0000      -6.038126      -164.3058
  23   2.0000      -6.034508      -164.2073
  24   2.0000      -1.007435       -27.4137
  25   2.0000      -0.976590       -26.5744
  26   2.0000      -0.915623       -24.9154
  27   2.0000      -0.905816       -24.6485
  28   2.0000      -0.865396       -23.5486
  29   2.0000      -0.853897       -23.2357
  30   2.0000      -0.843538       -22.9538
  31   2.0000      -0.810417       -22.0526
  32   2.0000      -0.783448       -21.3187
  33   2.0000      -0.769326       -20.9344
  34   2.0000      -0.713820       -19.4240
  35   2.0000      -0.704928       -19.1821
  36   2.0000      -0.691472       -18.8159
  37   2.0000      -0.658113       -17.9082
  38   2.0000      -0.636681       -17.3250
  39   2.0000      -0.625221       -17.0131
  40   2.0000      -0.589150       -16.0316
  41   2.0000      -0.574426       -15.6309
  42   2.0000      -0.567719       -15.4484
  43   2.0000      -0.559568       -15.2266
  44   2.0000      -0.525274       -14.2934
  45   2.0000      -0.521727       -14.1969
  46   2.0000      -0.511109       -13.9080
  47   2.0000      -0.507583       -13.8120
  48   2.0000      -0.503717       -13.7068
  49   2.0000      -0.497389       -13.5347
  50   2.0000      -0.496234       -13.5032
  51   2.0000      -0.480897       -13.0859
  52   2.0000      -0.470770       -12.8103
  53   2.0000      -0.466243       -12.6871
  54   2.0000      -0.460599       -12.5335
  55   2.0000      -0.452713       -12.3190
  56   2.0000      -0.444235       -12.0882
  57   2.0000      -0.440934       -11.9984
  58   2.0000      -0.436001       -11.8642
  59   2.0000      -0.428073       -11.6485
  60   2.0000      -0.421796       -11.4777
  61   2.0000      -0.418953       -11.4003
  62   2.0000      -0.409781       -11.1507
  63   2.0000      -0.348878        -9.4935
  64   2.0000      -0.337968        -9.1966
  65   2.0000      -0.328575        -8.9410
  66   2.0000      -0.284056        -7.7296
  67   0.0000       0.024490         0.6664
  68   0.0000       0.074739         2.0338
  69   0.0000       0.103049         2.8041
  70   0.0000       0.119369         3.2482
  71   0.0000       0.126281         3.4363

MULLIKEN ATOMIC CHARGES
-----------------------
   0 S :    0.125216
   1 C :   -0.104266
   2 C :   -0.131945
   3 C :    0.015315
   4 C :   -0.120059
   5 H :   -0.005569
   6 C :    0.094241
   7 H :    0.055445
   8 H :   -0.001718
   9 C :   -0.117625
  10 H :    0.026045
  11 H :    0.047230
  12 C :   -0.056120
  13 H :    0.036164
  14 H :    0.032570
  15 H :    0.033249
  16 S :    0.128082
  17 C :   -0.101031
  18 C :   -0.066719
  19 C :   -0.004046
  20 C :   -0.161049
  21 H :    0.020618
  22 C :    0.055434
  23 H :    0.017580
  24 H :    0.045377
  25 C :   -0.001408
  26 H :    0.002676
  27 H :    0.014037
  28 C :   -0.076732
  29 H :    0.025009
  30 H :    0.044233
  31 H :    0.025173
  32 H :    0.045408
  33 H :    0.059184
Sum of atomic charges:   -0.0000000

LOEWDIN ATOMIC CHARGES
----------------------
   0 S :    0.432017
   1 C :   -0.219935
   2 C :   -0.055960
   3 C :   -0.065522
   4 C :   -0.202976
   5 H :    0.024746
   6 C :   -0.032218
   7 H :    0.040483
   8 H :    0.019774
   9 C :   -0.037133
  10 H :    0.012964
  11 H :    0.031451
  12 C :   -0.069024
  13 H :    0.027287
  14 H :    0.026216
  15 H :    0.022624
  16 S :    0.392606
  17 C :   -0.194837
  18 C :   -0.069954
  19 C :   -0.047698
  20 C :   -0.185564
  21 H :    0.031553
  22 C :   -0.021851
  23 H :    0.027899
  24 H :    0.037921
  25 C :   -0.039860
  26 H :    0.013798
  27 H :    0.021992
  28 C :   -0.068244
  29 H :    0.024892
  30 H :    0.033657
  31 H :    0.020075
  32 H :    0.032611
  33 H :    0.036212

  Mayer bond orders larger than 0.100000
B(  0-S ,  1-C ) :   1.1281 B(  0-S ,  4-C ) :   1.1680 B(  1-C ,  2-C ) :   1.6160
B(  1-C , 32-H ) :   0.9644 B(  2-C ,  3-C ) :   1.2379 B(  2-C ,  6-C ) :   1.0375
B(  3-C ,  4-C ) :   1.5461 B(  3-C ,  5-H ) :   1.0042 B(  4-C , 20-C ) :   1.0488
B(  6-C ,  7-H ) :   0.9353 B(  6-C ,  8-H ) :   0.9368 B(  6-C ,  9-C ) :   1.0421
B(  9-C , 10-H ) :   0.9595 B(  9-C , 11-H ) :   0.9672 B(  9-C , 12-C ) :   1.0734
B( 12-C , 13-H ) :   0.9795 B( 12-C , 14-H ) :   0.9774 B( 12-C , 15-H ) :   0.9793
B( 16-S , 17-C ) :   1.1391 B( 16-S , 20-C ) :   1.1337 B( 17-C , 18-C ) :   1.6317
B( 17-C , 20-C ) :   0.1105 B( 17-C , 33-H ) :   0.9607 B( 18-C , 19-C ) :   1.2353
B( 18-C , 21-H ) :   0.9866 B( 19-C , 20-C ) :   1.5872 B( 19-C , 22-C ) :   1.0237
B( 22-C , 23-H ) :   0.9368 B( 22-C , 24-H ) :   0.9326 B( 22-C , 25-C ) :   1.0709
B( 25-C , 26-H ) :   0.9432 B( 25-C , 27-H ) :   0.9461 B( 25-C , 28-C ) :   1.0823
B( 28-C , 29-H ) :   0.9741 B( 28-C , 30-H ) :   0.9740 B( 28-C , 31-H ) :   0.9746

Dispersion correction           -0.013897616
FINAL SINGLE POINT ENERGY     -1339.862382187446

DIPOLE MOMENT
-------------
                                X             Y             Z
Electronic contribution:      3.45890     -20.67551     -25.61525
Nuclear contribution   :     -3.72924      21.13819      26.15101
                        -----------------------------------------
Total Dipole Moment    :     -0.27034       0.46268       0.53575
                        -----------------------------------------
Magnitude (a.u.)       :      0.75775
Magnitude (Debye)      :      1.92605

Rotational constants in cm-1:     0.015802     0.009494     0.006616
Rotational constants in MHz :   473.722140   284.619219   198.345373

                             ****ORCA TERMINATED NORMALLY****
TOTAL RUN TIME: 0 days 0 hours 0 minutes 31 seconds 772 msec
