                         Program Version 4.2.1 -  RELEASE  -
|  1> ! wB97X-D3 SP def2-SVP
|  2> %pal
|  3> nprocs 16
|  4> end
|  5>
|  6> * xyz 0 1
|  7> S 	 -15.7966 	 55.7192 	 64.7885
|  8> C 	 -15.5525 	 54.0199 	 64.4607
|  9> C 	 -16.7551 	 53.3425 	 64.6309
| 10> C 	 -17.8213 	 54.2753 	 64.8684
| 11> C 	 -17.4895 	 55.5973 	 64.9653
| 12> H 	 -18.8804 	 53.9741 	 64.8404
| 13> C 	 -16.9539 	 51.8754 	 64.6817
| 14> H 	 -17.888 	 51.6639 	 65.2236
| 15> H 	 -16.1585 	 51.4522 	 65.3161
| 16> C 	 -16.6953 	 51.2262 	 63.2506
| 17> H 	 -15.6963 	 51.5026 	 62.9878
| 18> H 	 -16.5499 	 50.1104 	 63.2961
| 19> C 	 -17.7515 	 51.4587 	 62.1065
| 20> H 	 -17.5354 	 50.7343 	 61.3049
| 21> H 	 -18.8261 	 51.2773 	 62.4227
| 22> H 	 -17.7516 	 52.4379 	 61.5995
| 23> S 	 -18.7874 	 57.7583 	 63.6579
| 24> C 	 -19.4134 	 58.9822 	 64.6714
| 25> C 	 -19.478 	 58.6587 	 66.0199
| 26> C 	 -18.8077 	 57.4228 	 66.2638
| 27> C 	 -18.2896 	 56.842 	 65.1257
| 28> H 	 -19.9746 	 59.2846 	 66.6891
| 29> C 	 -18.6993 	 56.717 	 67.6553
| 30> H 	 -18.5169 	 57.5524 	 68.3192
| 31> H 	 -17.7827 	 56.0871 	 67.7046
| 32> C 	 -20.0425 	 56.0109 	 68.1289
| 33> H 	 -20.1412 	 55.2054 	 67.458
| 34> H 	 -20.8454 	 56.6857 	 67.8859
| 35> C 	 -20.0924 	 55.7045 	 69.6143
| 36> H 	 -20.2097 	 56.6313 	 70.2578
| 37> H 	 -19.1956 	 55.0782 	 69.804
| 38> H 	 -21.0582 	 55.0588 	 69.8919
| 39> H 	 -14.6595 	 53.4571 	 64.3364
| 40> H 	 -19.9923 	 59.7277 	 64.2048
| 41> *
| 42>
| 43>                          ****END OF INPUT****

CARTESIAN COORDINATES (ANGSTROEM)
---------------------------------
  S    -15.796600   55.719200   64.788500
  C    -15.552500   54.019900   64.460700
  C    -16.755100   53.342500   64.630900
  C    -17.821300   54.275300   64.868400
  C    -17.489500   55.597300   64.965300
  H    -18.880400   53.974100   64.840400
  C    -16.953900   51.875400   64.681700
  H    -17.888000   51.663900   65.223600
  H    -16.158500   51.452200   65.316100
  C    -16.695300   51.226200   63.250600
  H    -15.696300   51.502600   62.987800
  H    -16.549900   50.110400   63.296100
  C    -17.751500   51.458700   62.106500
  H    -17.535400   50.734300   61.304900
  H    -18.826100   51.277300   62.422700
  H    -17.751600   52.437900   61.599500
  S    -18.787400   57.758300   63.657900
  C    -19.413400   58.982200   64.671400
  C    -19.478000   58.658700   66.019900
  C    -18.807700   57.422800   66.263800
  C    -18.289600   56.842000   65.125700
  H    -19.974600   59.284600   66.689100
  C    -18.699300   56.717000   67.655300
  H    -18.516900   57.552400   68.319200
  H    -17.782700   56.087100   67.704600
  C    -20.042500   56.010900   68.128900
  H    -20.141200   55.205400   67.458000
  H    -20.845400   56.685700   67.885900
  C    -20.092400   55.704500   69.614300
  H    -20.209700   56.631300   70.257800
  H    -19.195600   55.078200   69.804000
  H    -21.058200   55.058800   69.891900
  H    -14.659500   53.457100   64.336400
  H    -19.992300   59.727700   64.204800

 Total Charge           Charge          ....    0
 Multiplicity           Mult            ....    1
 Number of Electrons    NEL             ....  134
 Basis Dimension        Dim             ....  322

ORBITAL ENERGIES
----------------

  NO   OCC          E(Eh)            E(eV)
   0   2.0000     -88.965198     -2420.8661
   1   2.0000     -88.962286     -2420.7869
   2   2.0000     -10.328030      -281.0400
   3   2.0000     -10.324877      -280.9542
   4   2.0000     -10.313943      -280.6567
   5   2.0000     -10.310503      -280.5631
   6   2.0000     -10.307773      -280.4888
   7   2.0000     -10.298471      -280.2357
   8   2.0000     -10.297611      -280.2122
   9   2.0000     -10.297021      -280.1962
  10   2.0000     -10.295874      -280.1650
  11   2.0000     -10.295502      -280.1549
  12   2.0000     -10.293478      -280.0998
  13   2.0000     -10.291065      -280.0341
  14   2.0000     -10.286578      -279.9120
  15   2.0000     -10.283977      -279.8412
  16   2.0000      -8.080236      -219.8744
  17   2.0000      -8.077651      -219.8041
  18   2.0000      -6.038531      -164.3168
  19   2.0000      -6.036152      -164.2521
  20   2.0000      -6.034853      -164.2167
  21   2.0000      -6.031862      -164.1353
  22   2.0000      -6.031057      -164.1134
  23   2.0000      -6.028554      -164.0453
  24   2.0000      -1.007075       -27.4039
  25   2.0000      -0.987005       -26.8578
  26   2.0000      -0.907300       -24.6889
  27   2.0000      -0.901370       -24.5275
  28   2.0000      -0.861586       -23.4449
  29   2.0000      -0.850984       -23.1564
  30   2.0000      -0.840091       -22.8600
  31   2.0000      -0.813848       -22.1459
  32   2.0000      -0.781654       -21.2699
  33   2.0000      -0.769076       -20.9276
  34   2.0000      -0.707461       -19.2510
  35   2.0000      -0.699746       -19.0410
  36   2.0000      -0.693694       -18.8764
  37   2.0000      -0.663552       -18.0562
  38   2.0000      -0.637925       -17.3588
  39   2.0000      -0.614011       -16.7081
  40   2.0000      -0.594745       -16.1838
  41   2.0000      -0.574459       -15.6318
  42   2.0000      -0.562830       -15.3154
  43   2.0000      -0.540524       -14.7084
  44   2.0000      -0.538028       -14.6405
  45   2.0000      -0.522911       -14.2291
  46   2.0000      -0.512347       -13.9417
  47   2.0000      -0.506049       -13.7703
  48   2.0000      -0.503713       -13.7067
  49   2.0000      -0.493940       -13.4408
  50   2.0000      -0.487815       -13.2741
  51   2.0000      -0.474249       -12.9050
  52   2.0000      -0.467868       -12.7313
  53   2.0000      -0.464969       -12.6525
  54   2.0000      -0.462353       -12.5813
  55   2.0000      -0.458178       -12.4677
  56   2.0000      -0.435477       -11.8499
  57   2.0000      -0.434253       -11.8166
  58   2.0000      -0.426979       -11.6187
  59   2.0000      -0.425600       -11.5812
  60   2.0000      -0.423139       -11.5142
  61   2.0000      -0.415288       -11.3006
  62   2.0000      -0.414032       -11.2664
  63   2.0000      -0.334776        -9.1097
  64   2.0000      -0.327355        -8.9078
  65   2.0000      -0.318455        -8.6656
  66   2.0000      -0.314086        -8.5467
  67   0.0000       0.045259         1.2316
  68   0.0000       0.053099         1.4449
  69   0.0000       0.109182         2.9710
  70   0.0000       0.119077         3.2403
  71   0.0000       0.133303         3.6274

MULLIKEN ATOMIC CHARGES
-----------------------
   0 S :    0.121585
   1 C :   -0.097614
   2 C :   -0.112689
   3 C :    0.031269
   4 C :   -0.178844
   5 H :    0.013318
   6 C :    0.065329
   7 H :    0.031004
   8 H :    0.032944
   9 C :   -0.073880
  10 H :    0.015161
  11 H :    0.030386
  12 C :   -0.075912
  13 H :    0.034890
  14 H :    0.040637
  15 H :    0.047958
  16 S :    0.114920
  17 C :   -0.072472
  18 C :   -0.020196
  19 C :   -0.013668
  20 C :   -0.185011
  21 H :   -0.001627
  22 C :    0.053081
  23 H :    0.011887
  24 H :    0.045459
  25 C :   -0.028084
  26 H :    0.019185
  27 H :    0.016896
  28 C :   -0.096672
  29 H :    0.052707
  30 H :    0.048675
  31 H :    0.050342
  32 H :    0.032493
  33 H :    0.046546
Sum of atomic charges:    0.0000000

LOEWDIN ATOMIC CHARGES
----------------------
   0 S :    0.433300
   1 C :   -0.198561
   2 C :   -0.068018
   3 C :   -0.072322
   4 C :   -0.215636
   5 H :    0.031356
   6 C :   -0.035040
   7 H :    0.032404
   8 H :    0.037948
   9 C :   -0.038966
  10 H :    0.018819
  11 H :    0.027786
  12 C :   -0.077944
  13 H :    0.029008
  14 H :    0.031544
  15 H :    0.027978
  16 S :    0.406069
  17 C :   -0.178564
  18 C :   -0.066725
  19 C :   -0.043331
  20 C :   -0.198541
  21 H :    0.023327
  22 C :   -0.027674
  23 H :    0.023607
  24 H :    0.033576
  25 C :   -0.038511
  26 H :    0.017986
  27 H :    0.021130
  28 C :   -0.079550
  29 H :    0.033659
  30 H :    0.030022
  31 H :    0.039656
  32 H :    0.023229
  33 H :    0.016980

  Mayer bond orders larger than 0.100000
B(  0-S ,  1-C ) :   1.1513 B(  0-S ,  4-C ) :   1.1726 B(  1-C ,  2-C ) :   1.5912
B(  1-C , 32-H ) :   0.9681 B(  2-C ,  3-C ) :   1.2552 B(  2-C ,  6-C ) :   1.0230
B(  3-C ,  4-C ) :   1.5867 B(  3-C ,  5-H ) :   0.9932 B(  4-C , 20-C ) :   0.9862
B(  6-C ,  7-H ) :   0.9522 B(  6-C ,  8-H ) :   0.9359 B(  6-C ,  9-C ) :   1.0567
B(  9-C , 10-H ) :   0.9568 B(  9-C , 11-H ) :   0.9614 B(  9-C , 12-C ) :   1.0590
B( 12-C , 13-H ) :   0.9762 B( 12-C , 14-H ) :   0.9778 B( 12-C , 15-H ) :   0.9780
B( 16-S , 17-C ) :   1.1842 B( 16-S , 20-C ) :   1.1358 B( 17-C , 18-C ) :   1.5936
B( 17-C , 33-H ) :   0.9670 B( 18-C , 19-C ) :   1.2328 B( 18-C , 21-H ) :   1.0051
B( 19-C , 20-C ) :   1.6245 B( 19-C , 22-C ) :   1.0347 B( 22-C , 23-H ) :   0.9356
B( 22-C , 24-H ) :   0.9341 B( 22-C , 25-C ) :   1.0484 B( 25-C , 26-H ) :   0.9551
B( 25-C , 27-H ) :   0.9567 B( 25-C , 28-C ) :   1.0770 B( 28-C , 29-H ) :   0.9724
B( 28-C , 30-H ) :   0.9744 B( 28-C , 31-H ) :   0.9714

Dispersion correction           -0.014206490
FINAL SINGLE POINT ENERGY     -1339.868999556999

DIPOLE MOMENT
-------------
                                X             Y             Z
Electronic contribution:      7.92934      19.43870      -9.70385
Nuclear contribution   :     -8.27455     -19.82928       9.97936
                        -----------------------------------------
Total Dipole Moment    :     -0.34521      -0.39058       0.27552
                        -----------------------------------------
Magnitude (a.u.)       :      0.58960
Magnitude (Debye)      :      1.49866

Rotational constants in cm-1:     0.018118     0.008166     0.006806
Rotational constants in MHz :   543.175158   244.806632   204.052400

                             ****ORCA TERMINATED NORMALLY****
TOTAL RUN TIME: 0 days 0 hours 0 minutes 32 seconds 954 msec
