                         Program Version 4.2.1 -  RELEASE  -
|  1> ! wB97X-D3 SP def2-SVP
|  2> %pal
|  3> nprocs 16
|  4> end
|  5>
|  6> * xyz 0 1
|  7> S 	 -47.419 	 31.4258 	 93.1963
|  8> C 	 -48.1378 	 29.84 	 93.0238
|  9> C 	 -48.7633 	 29.7839 	 91.7901
| 10> C 	 -48.5851 	 30.9461 	 90.9752
| 11> C 	 -48.0253 	 32.0039 	 91.6471
| 12> H 	 -48.8599 	 31.074 	 89.9656
| 13> C 	 -49.2552 	 28.5324 	 91.145
| 14> H 	 -49.2762 	 27.8247 	 91.9353
| 15> H 	 -48.5329 	 28.2794 	 90.4343
| 16> C 	 -50.678 	 28.6425 	 90.466
| 17> H 	 -51.3117 	 29.3179 	 91.0615
| 18> H 	 -50.5111 	 28.9608 	 89.4308
| 19> C 	 -51.4946 	 27.3588 	 90.418
| 20> H 	 -51.7096 	 26.9656 	 91.3742
| 21> H 	 -52.4564 	 27.4898 	 89.8533
| 22> H 	 -50.8823 	 26.6614 	 89.8335
| 23> S 	 -46.6612 	 34.3809 	 91.939
| 24> C 	 -47.2074 	 35.7913 	 91.0611
| 25> C 	 -48.1859 	 35.5375 	 90.1801
| 26> C 	 -48.5629 	 34.1536 	 90.187
| 27> C 	 -47.8885 	 33.3757 	 91.1624
| 28> H 	 -48.601 	 36.2899 	 89.4858
| 29> C 	 -49.5802 	 33.7677 	 89.1581
| 30> H 	 -49.1581 	 33.0653 	 88.4508
| 31> H 	 -49.6367 	 34.5957 	 88.4784
| 32> C 	 -50.9292 	 33.3047 	 89.6365
| 33> H 	 -51.5138 	 33.982 	 90.2597
| 34> H 	 -50.7088 	 32.3738 	 90.2359
| 35> C 	 -51.7555 	 32.7788 	 88.515
| 36> H 	 -51.1493 	 32.2684 	 87.7705
| 37> H 	 -52.2552 	 33.596 	 88.0779
| 38> H 	 -52.547 	 32.1616 	 88.9939
| 39> H 	 -47.9506 	 28.8397 	 93.4993
| 40> H 	 -46.7545 	 36.7692 	 91.3145
| 41> *
| 42>
| 43>                          ****END OF INPUT****

CARTESIAN COORDINATES (ANGSTROEM)
---------------------------------
  S    -47.419000   31.425800   93.196300
  C    -48.137800   29.840000   93.023800
  C    -48.763300   29.783900   91.790100
  C    -48.585100   30.946100   90.975200
  C    -48.025300   32.003900   91.647100
  H    -48.859900   31.074000   89.965600
  C    -49.255200   28.532400   91.145000
  H    -49.276200   27.824700   91.935300
  H    -48.532900   28.279400   90.434300
  C    -50.678000   28.642500   90.466000
  H    -51.311700   29.317900   91.061500
  H    -50.511100   28.960800   89.430800
  C    -51.494600   27.358800   90.418000
  H    -51.709600   26.965600   91.374200
  H    -52.456400   27.489800   89.853300
  H    -50.882300   26.661400   89.833500
  S    -46.661200   34.380900   91.939000
  C    -47.207400   35.791300   91.061100
  C    -48.185900   35.537500   90.180100
  C    -48.562900   34.153600   90.187000
  C    -47.888500   33.375700   91.162400
  H    -48.601000   36.289900   89.485800
  C    -49.580200   33.767700   89.158100
  H    -49.158100   33.065300   88.450800
  H    -49.636700   34.595700   88.478400
  C    -50.929200   33.304700   89.636500
  H    -51.513800   33.982000   90.259700
  H    -50.708800   32.373800   90.235900
  C    -51.755500   32.778800   88.515000
  H    -51.149300   32.268400   87.770500
  H    -52.255200   33.596000   88.077900
  H    -52.547000   32.161600   88.993900
  H    -47.950600   28.839700   93.499300
  H    -46.754500   36.769200   91.314500

 Total Charge           Charge          ....    0
 Multiplicity           Mult            ....    1
 Number of Electrons    NEL             ....  134
 Basis Dimension        Dim             ....  322

ORBITAL ENERGIES
----------------

  NO   OCC          E(Eh)            E(eV)
   0   2.0000     -88.966746     -2420.9082
   1   2.0000     -88.964843     -2420.8564
   2   2.0000     -10.334426      -281.2140
   3   2.0000     -10.332646      -281.1656
   4   2.0000     -10.318454      -280.7794
   5   2.0000     -10.316088      -280.7150
   6   2.0000     -10.307677      -280.4861
   7   2.0000     -10.296646      -280.1860
   8   2.0000     -10.294649      -280.1316
   9   2.0000     -10.289901      -280.0024
  10   2.0000     -10.286655      -279.9141
  11   2.0000     -10.286530      -279.9107
  12   2.0000     -10.284156      -279.8461
  13   2.0000     -10.281163      -279.7647
  14   2.0000     -10.278439      -279.6906
  15   2.0000     -10.271922      -279.5132
  16   2.0000      -8.080863      -219.8915
  17   2.0000      -8.079785      -219.8621
  18   2.0000      -6.039671      -164.3478
  19   2.0000      -6.038336      -164.3115
  20   2.0000      -6.035422      -164.2322
  21   2.0000      -6.034273      -164.2009
  22   2.0000      -6.031353      -164.1215
  23   2.0000      -6.030496      -164.0981
  24   2.0000      -1.007169       -27.4065
  25   2.0000      -0.986482       -26.8435
  26   2.0000      -0.920078       -25.0366
  27   2.0000      -0.911655       -24.8074
  28   2.0000      -0.873330       -23.7645
  29   2.0000      -0.858139       -23.3511
  30   2.0000      -0.848849       -23.0984
  31   2.0000      -0.820581       -22.3291
  32   2.0000      -0.782072       -21.2813
  33   2.0000      -0.770534       -20.9673
  34   2.0000      -0.709887       -19.3170
  35   2.0000      -0.697666       -18.9845
  36   2.0000      -0.687319       -18.7029
  37   2.0000      -0.663679       -18.0596
  38   2.0000      -0.635138       -17.2830
  39   2.0000      -0.623322       -16.9615
  40   2.0000      -0.603102       -16.4112
  41   2.0000      -0.582184       -15.8420
  42   2.0000      -0.567800       -15.4506
  43   2.0000      -0.559528       -15.2255
  44   2.0000      -0.535223       -14.5642
  45   2.0000      -0.524769       -14.2797
  46   2.0000      -0.519486       -14.1359
  47   2.0000      -0.513016       -13.9599
  48   2.0000      -0.510010       -13.8781
  49   2.0000      -0.501677       -13.6513
  50   2.0000      -0.496075       -13.4989
  51   2.0000      -0.483681       -13.1616
  52   2.0000      -0.473166       -12.8755
  53   2.0000      -0.468021       -12.7355
  54   2.0000      -0.459681       -12.5086
  55   2.0000      -0.450870       -12.2688
  56   2.0000      -0.447745       -12.1838
  57   2.0000      -0.438227       -11.9248
  58   2.0000      -0.434070       -11.8116
  59   2.0000      -0.421739       -11.4761
  60   2.0000      -0.415712       -11.3121
  61   2.0000      -0.413197       -11.2437
  62   2.0000      -0.403188       -10.9713
  63   2.0000      -0.360392        -9.8068
  64   2.0000      -0.335091        -9.1183
  65   2.0000      -0.324573        -8.8321
  66   2.0000      -0.284150        -7.7321
  67   0.0000       0.016228         0.4416
  68   0.0000       0.086693         2.3590
  69   0.0000       0.099093         2.6964
  70   0.0000       0.121957         3.3186
  71   0.0000       0.126724         3.4483

MULLIKEN ATOMIC CHARGES
-----------------------
   0 S :    0.102060
   1 C :   -0.108326
   2 C :   -0.138696
   3 C :    0.011857
   4 C :   -0.092377
   5 H :   -0.006653
   6 C :    0.111093
   7 H :   -0.006271
   8 H :    0.031611
   9 C :   -0.105086
  10 H :    0.042049
  11 H :    0.035801
  12 C :   -0.050158
  13 H :    0.029738
  14 H :    0.042661
  15 H :    0.024214
  16 S :    0.087723
  17 C :   -0.093813
  18 C :   -0.026467
  19 C :   -0.052654
  20 C :   -0.127942
  21 H :    0.035138
  22 C :    0.056179
  23 H :    0.020704
  24 H :   -0.009660
  25 C :   -0.080040
  26 H :    0.033265
  27 H :    0.031083
  28 C :   -0.012753
  29 H :    0.024966
  30 H :    0.016185
  31 H :    0.037267
  32 H :    0.068877
  33 H :    0.068426
Sum of atomic charges:   -0.0000000

LOEWDIN ATOMIC CHARGES
----------------------
   0 S :    0.396998
   1 C :   -0.220746
   2 C :   -0.062449
   3 C :   -0.065385
   4 C :   -0.179127
   5 H :    0.022113
   6 C :   -0.024286
   7 H :    0.019767
   8 H :    0.028534
   9 C :   -0.040678
  10 H :    0.026487
  11 H :    0.024161
  12 C :   -0.063923
  13 H :    0.016626
  14 H :    0.033535
  15 H :    0.023123
  16 S :    0.394717
  17 C :   -0.177524
  18 C :   -0.077599
  19 C :   -0.047323
  20 C :   -0.189564
  21 H :    0.041723
  22 C :   -0.041180
  23 H :    0.030247
  24 H :    0.023966
  25 C :   -0.044965
  26 H :    0.026741
  27 H :    0.029827
  28 C :   -0.058637
  29 H :    0.022401
  30 H :    0.016110
  31 H :    0.033452
  32 H :    0.048958
  33 H :    0.033900

  Mayer bond orders larger than 0.100000
B(  0-S ,  1-C ) :   1.1168 B(  0-S ,  4-C ) :   1.1376 B(  1-C ,  2-C ) :   1.6249
B(  1-C , 32-H ) :   0.9531 B(  2-C ,  3-C ) :   1.2295 B(  2-C ,  6-C ) :   1.0442
B(  3-C ,  4-C ) :   1.5667 B(  3-C ,  5-H ) :   0.9974 B(  4-C , 20-C ) :   1.0925
B(  6-C ,  7-H ) :   0.9352 B(  6-C ,  8-H ) :   0.9371 B(  6-C ,  9-C ) :   1.0460
B(  9-C , 10-H ) :   0.9645 B(  9-C , 11-H ) :   0.9532 B(  9-C , 12-C ) :   1.0962
B( 12-C , 13-H ) :   0.9763 B( 12-C , 14-H ) :   0.9735 B( 12-C , 15-H ) :   0.9737
B( 16-S , 17-C ) :   1.1578 B( 16-S , 20-C ) :   1.1276 B( 17-C , 18-C ) :   1.6066
B( 17-C , 33-H ) :   0.9616 B( 18-C , 19-C ) :   1.2584 B( 18-C , 21-H ) :   0.9848
B( 19-C , 20-C ) :   1.5640 B( 19-C , 22-C ) :   1.0431 B( 22-C , 23-H ) :   0.9217
B( 22-C , 24-H ) :   0.9214 B( 22-C , 25-C ) :   1.0696 B( 25-C , 26-H ) :   0.9527
B( 25-C , 27-H ) :   0.9510 B( 25-C , 28-C ) :   1.0835 B( 28-C , 29-H ) :   0.9705
B( 28-C , 30-H ) :   0.9736 B( 28-C , 31-H ) :   0.9727

Dispersion correction           -0.014442078
FINAL SINGLE POINT ENERGY     -1339.864342032871

DIPOLE MOMENT
-------------
                                X             Y             Z
Electronic contribution:     24.68805      15.53498      17.71134
Nuclear contribution   :    -25.08656     -15.66130     -18.37659
                        -----------------------------------------
Total Dipole Moment    :     -0.39851      -0.12631      -0.66525
                        -----------------------------------------
Magnitude (a.u.)       :      0.78570
Magnitude (Debye)      :      1.99708

Rotational constants in cm-1:     0.018469     0.009642     0.006536
Rotational constants in MHz :   553.672018   289.054287   195.938059

                             ****ORCA TERMINATED NORMALLY****
TOTAL RUN TIME: 0 days 0 hours 0 minutes 31 seconds 86 msec
