                         Program Version 4.2.1 -  RELEASE  -
|  1> ! wB97X-D3 SP def2-SVP
|  2> %pal
|  3> nprocs 16
|  4> end
|  5>
|  6> * xyz 0 1
|  7> S 	 -31.7801 	 61.9712 	 109.537
|  8> C 	 -31.4862 	 60.305 	 109.073
|  9> C 	 -30.8255 	 59.5699 	 110.047
| 10> C 	 -30.4652 	 60.4286 	 111.182
| 11> C 	 -30.9155 	 61.7322 	 111.058
| 12> H 	 -29.944 	 60.0666 	 112.047
| 13> C 	 -30.258 	 58.1169 	 110
| 14> H 	 -31.0867 	 57.3285 	 110.012
| 15> H 	 -29.8023 	 57.9008 	 110.957
| 16> C 	 -29.2607 	 57.8105 	 108.885
| 17> H 	 -29.7714 	 58.0537 	 107.941
| 18> H 	 -28.4147 	 58.5154 	 109.039
| 19> C 	 -28.8147 	 56.3417 	 108.704
| 20> H 	 -28.1935 	 56.084 	 109.664
| 21> H 	 -29.6738 	 55.799 	 108.58
| 22> H 	 -28.1426 	 56.277 	 107.878
| 23> S 	 -32.1521 	 63.9976 	 111.952
| 24> C 	 -31.583 	 64.8711 	 113.364
| 25> C 	 -30.3064 	 64.4239 	 113.679
| 26> C 	 -29.9327 	 63.1766 	 113.056
| 27> C 	 -30.8201 	 62.8191 	 112.016
| 28> H 	 -29.6135 	 64.8777 	 114.424
| 29> C 	 -28.6153 	 62.4817 	 113.37
| 30> H 	 -28.8573 	 61.3688 	 113.488
| 31> H 	 -28.3267 	 62.8303 	 114.362
| 32> C 	 -27.4708 	 62.8366 	 112.406
| 33> H 	 -27.3435 	 63.8946 	 112.233
| 34> H 	 -27.6982 	 62.5682 	 111.353
| 35> C 	 -26.1443 	 62.2389 	 112.907
| 36> H 	 -25.4367 	 62.1732 	 112.111
| 37> H 	 -26.2908 	 61.229 	 113.351
| 38> H 	 -25.6428 	 62.8322 	 113.679
| 39> H 	 -31.7187 	 60.0084 	 108.067
| 40> H 	 -32.0352 	 65.7305 	 113.663
| 41> *
| 42>
| 43>                          ****END OF INPUT****

CARTESIAN COORDINATES (ANGSTROEM)
---------------------------------
  S    -31.780100   61.971200  109.537000
  C    -31.486200   60.305000  109.073000
  C    -30.825500   59.569900  110.047000
  C    -30.465200   60.428600  111.182000
  C    -30.915500   61.732200  111.058000
  H    -29.944000   60.066600  112.047000
  C    -30.258000   58.116900  110.000000
  H    -31.086700   57.328500  110.012000
  H    -29.802300   57.900800  110.957000
  C    -29.260700   57.810500  108.885000
  H    -29.771400   58.053700  107.941000
  H    -28.414700   58.515400  109.039000
  C    -28.814700   56.341700  108.704000
  H    -28.193500   56.084000  109.664000
  H    -29.673800   55.799000  108.580000
  H    -28.142600   56.277000  107.878000
  S    -32.152100   63.997600  111.952000
  C    -31.583000   64.871100  113.364000
  C    -30.306400   64.423900  113.679000
  C    -29.932700   63.176600  113.056000
  C    -30.820100   62.819100  112.016000
  H    -29.613500   64.877700  114.424000
  C    -28.615300   62.481700  113.370000
  H    -28.857300   61.368800  113.488000
  H    -28.326700   62.830300  114.362000
  C    -27.470800   62.836600  112.406000
  H    -27.343500   63.894600  112.233000
  H    -27.698200   62.568200  111.353000
  C    -26.144300   62.238900  112.907000
  H    -25.436700   62.173200  112.111000
  H    -26.290800   61.229000  113.351000
  H    -25.642800   62.832200  113.679000
  H    -31.718700   60.008400  108.067000
  H    -32.035200   65.730500  113.663000

 Total Charge           Charge          ....    0
 Multiplicity           Mult            ....    1
 Number of Electrons    NEL             ....  134
 Basis Dimension        Dim             ....  322

ORBITAL ENERGIES
----------------

  NO   OCC          E(Eh)            E(eV)
   0   2.0000     -88.967940     -2420.9407
   1   2.0000     -88.962934     -2420.8045
   2   2.0000     -10.333924      -281.2004
   3   2.0000     -10.332470      -281.1608
   4   2.0000     -10.318059      -280.7687
   5   2.0000     -10.314829      -280.6808
   6   2.0000     -10.311466      -280.5893
   7   2.0000     -10.306718      -280.4601
   8   2.0000     -10.301531      -280.3189
   9   2.0000     -10.301394      -280.3152
  10   2.0000     -10.300694      -280.2961
  11   2.0000     -10.297570      -280.2111
  12   2.0000     -10.289436      -279.9898
  13   2.0000     -10.288500      -279.9643
  14   2.0000     -10.282277      -279.7950
  15   2.0000     -10.278962      -279.7048
  16   2.0000      -8.082516      -219.9364
  17   2.0000      -8.077399      -219.7972
  18   2.0000      -6.041175      -164.3887
  19   2.0000      -6.037096      -164.2777
  20   2.0000      -6.036017      -164.2484
  21   2.0000      -6.033088      -164.1687
  22   2.0000      -6.031889      -164.1360
  23   2.0000      -6.028125      -164.0336
  24   2.0000      -1.002382       -27.2762
  25   2.0000      -0.977949       -26.6113
  26   2.0000      -0.908607       -24.7244
  27   2.0000      -0.906818       -24.6758
  28   2.0000      -0.869353       -23.6563
  29   2.0000      -0.852352       -23.1937
  30   2.0000      -0.843851       -22.9624
  31   2.0000      -0.811389       -22.0790
  32   2.0000      -0.781074       -21.2541
  33   2.0000      -0.772026       -21.0079
  34   2.0000      -0.709100       -19.2956
  35   2.0000      -0.700544       -19.0628
  36   2.0000      -0.691826       -18.8255
  37   2.0000      -0.668834       -18.1999
  38   2.0000      -0.642930       -17.4950
  39   2.0000      -0.616975       -16.7887
  40   2.0000      -0.598299       -16.2805
  41   2.0000      -0.570252       -15.5173
  42   2.0000      -0.558324       -15.1928
  43   2.0000      -0.554474       -15.0880
  44   2.0000      -0.531886       -14.4734
  45   2.0000      -0.524727       -14.2785
  46   2.0000      -0.515421       -14.0253
  47   2.0000      -0.510107       -13.8807
  48   2.0000      -0.508585       -13.8393
  49   2.0000      -0.499138       -13.5822
  50   2.0000      -0.489631       -13.3235
  51   2.0000      -0.482523       -13.1301
  52   2.0000      -0.476964       -12.9789
  53   2.0000      -0.464937       -12.6516
  54   2.0000      -0.454802       -12.3758
  55   2.0000      -0.452333       -12.3086
  56   2.0000      -0.446948       -12.1621
  57   2.0000      -0.442843       -12.0504
  58   2.0000      -0.433117       -11.7857
  59   2.0000      -0.423108       -11.5133
  60   2.0000      -0.415972       -11.3192
  61   2.0000      -0.410520       -11.1708
  62   2.0000      -0.409724       -11.1492
  63   2.0000      -0.360217        -9.8020
  64   2.0000      -0.334247        -9.0953
  65   2.0000      -0.325796        -8.8654
  66   2.0000      -0.282618        -7.6904
  67   0.0000       0.019575         0.5327
  68   0.0000       0.069838         1.9004
  69   0.0000       0.100270         2.7285
  70   0.0000       0.116944         3.1822
  71   0.0000       0.132904         3.6165

MULLIKEN ATOMIC CHARGES
-----------------------
   0 S :    0.098777
   1 C :   -0.131561
   2 C :   -0.049403
   3 C :   -0.009710
   4 C :   -0.096919
   5 H :    0.003011
   6 C :    0.054490
   7 H :    0.034221
   8 H :    0.006500
   9 C :   -0.112234
  10 H :    0.025343
  11 H :    0.038709
  12 C :   -0.019493
  13 H :    0.041218
  14 H :    0.024226
  15 H :    0.038111
  16 S :    0.073230
  17 C :   -0.042025
  18 C :   -0.032013
  19 C :   -0.087570
  20 C :   -0.121554
  21 H :    0.032183
  22 C :    0.037460
  23 H :    0.047762
  24 H :    0.012352
  25 C :   -0.048661
  26 H :    0.021635
  27 H :    0.034056
  28 C :   -0.044451
  29 H :    0.027262
  30 H :    0.032501
  31 H :    0.033670
  32 H :    0.049687
  33 H :    0.029191
Sum of atomic charges:    0.0000000

LOEWDIN ATOMIC CHARGES
----------------------
   0 S :    0.393778
   1 C :   -0.187500
   2 C :   -0.054965
   3 C :   -0.062779
   4 C :   -0.184043
   5 H :    0.025551
   6 C :   -0.037887
   7 H :    0.034846
   8 H :    0.022451
   9 C :   -0.046701
  10 H :    0.021173
  11 H :    0.027070
  12 C :   -0.053943
  13 H :    0.036378
  14 H :    0.012926
  15 H :    0.025599
  16 S :    0.387226
  17 C :   -0.168225
  18 C :   -0.068034
  19 C :   -0.062296
  20 C :   -0.182897
  21 H :    0.036200
  22 C :   -0.034819
  23 H :    0.038598
  24 H :    0.027825
  25 C :   -0.043533
  26 H :    0.026264
  27 H :    0.030096
  28 C :   -0.066854
  29 H :    0.022782
  30 H :    0.027904
  31 H :    0.025830
  32 H :    0.023284
  33 H :    0.008694

  Mayer bond orders larger than 0.100000
B(  0-S ,  1-C ) :   1.1324 B(  0-S ,  4-C ) :   1.1356 B(  1-C ,  2-C ) :   1.6218
B(  1-C , 32-H ) :   0.9731 B(  2-C ,  3-C ) :   1.2290 B(  2-C ,  6-C ) :   1.0155
B(  3-C ,  4-C ) :   1.5813 B(  3-C ,  5-H ) :   0.9924 B(  4-C , 20-C ) :   1.0760
B(  6-C ,  7-H ) :   0.9368 B(  6-C ,  8-H ) :   0.9425 B(  6-C ,  9-C ) :   1.0590
B(  9-C , 10-H ) :   0.9574 B(  9-C , 11-H ) :   0.9570 B(  9-C , 12-C ) :   1.0771
B( 12-C , 13-H ) :   0.9764 B( 12-C , 14-H ) :   0.9751 B( 12-C , 15-H ) :   0.9744
B( 16-S , 17-C ) :   1.1518 B( 16-S , 20-C ) :   1.1362 B( 17-C , 18-C ) :   1.5817
B( 17-C , 20-C ) :   0.1065 B( 17-C , 33-H ) :   0.9829 B( 18-C , 19-C ) :   1.2676
B( 18-C , 21-H ) :   0.9756 B( 19-C , 20-C ) :   1.5656 B( 19-C , 22-C ) :   1.0474
B( 22-C , 23-H ) :   0.9343 B( 22-C , 24-H ) :   0.9301 B( 22-C , 25-C ) :   1.0572
B( 25-C , 26-H ) :   0.9515 B( 25-C , 27-H ) :   0.9565 B( 25-C , 28-C ) :   1.0725
B( 28-C , 29-H ) :   0.9737 B( 28-C , 30-H ) :   0.9758 B( 28-C , 31-H ) :   0.9762

Dispersion correction           -0.013612118
FINAL SINGLE POINT ENERGY     -1339.874404621152

DIPOLE MOMENT
-------------
                                X             Y             Z
Electronic contribution:    -24.59623      20.03370      -0.60344
Nuclear contribution   :     25.23865     -20.31742       0.69756
                        -----------------------------------------
Total Dipole Moment    :      0.64242      -0.28372       0.09413
                        -----------------------------------------
Magnitude (a.u.)       :      0.70856
Magnitude (Debye)      :      1.80103

Rotational constants in cm-1:     0.018570     0.008313     0.006119
Rotational constants in MHz :   556.710395   249.211301   183.439938

                             ****ORCA TERMINATED NORMALLY****
TOTAL RUN TIME: 0 days 0 hours 0 minutes 29 seconds 116 msec
