                         Program Version 4.2.1 -  RELEASE  -
|  1> ! wB97X-D3 SP def2-SVP
|  2> %pal
|  3> nprocs 16
|  4> end
|  5>
|  6> * xyz 0 1
|  7> S 	 -39.4235 	 15.2062 	 79.6925
|  8> C 	 -37.8965 	 15.1361 	 78.7954
|  9> C 	 -38.1203 	 14.6775 	 77.4931
| 10> C 	 -39.4881 	 14.3522 	 77.2548
| 11> C 	 -40.3106 	 14.4392 	 78.3806
| 12> H 	 -39.8434 	 14.0394 	 76.2634
| 13> C 	 -37.033 	 14.5746 	 76.4287
| 14> H 	 -37.5074 	 14.3617 	 75.4246
| 15> H 	 -36.4176 	 13.7016 	 76.6854
| 16> C 	 -36.0029 	 15.7325 	 76.3524
| 17> H 	 -35.6082 	 15.9492 	 77.336
| 18> H 	 -35.136 	 15.4587 	 75.8502
| 19> C 	 -36.4157 	 17.1482 	 75.8006
| 20> H 	 -37.4279 	 17.2547 	 76.1847
| 21> H 	 -35.7548 	 17.8515 	 76.3295
| 22> H 	 -36.289 	 17.113 	 74.7207
| 23> S 	 -42.5172 	 15.566 	 79.3437
| 24> C 	 -44.0356 	 15.0005 	 78.8364
| 25> C 	 -44.017 	 13.7687 	 78.256
| 26> C 	 -42.6848 	 13.3431 	 78.0643
| 27> C 	 -41.7369 	 14.3183 	 78.4805
| 28> H 	 -44.9712 	 13.3764 	 78.096
| 29> C 	 -42.321 	 12.025 	 77.4633
| 30> H 	 -41.4906 	 12.2366 	 76.8221
| 31> H 	 -43.1549 	 11.6263 	 76.8567
| 32> C 	 -41.8891 	 10.9123 	 78.478
| 33> H 	 -41.004 	 11.2597 	 79.0214
| 34> H 	 -41.5252 	 10.0119 	 77.8354
| 35> C 	 -43.0028 	 10.389 	 79.3605
| 36> H 	 -43.4481 	 11.249 	 80.0427
| 37> H 	 -42.6453 	 9.62137 	 80.0536
| 38> H 	 -43.832 	 9.93132 	 78.7379
| 39> H 	 -37.007 	 15.6118 	 79.0118
| 40> H 	 -44.921 	 15.5914 	 79.0392
| 41> *
| 42>
| 43>                          ****END OF INPUT****

CARTESIAN COORDINATES (ANGSTROEM)
---------------------------------
  S    -39.423500   15.206200   79.692500
  C    -37.896500   15.136100   78.795400
  C    -38.120300   14.677500   77.493100
  C    -39.488100   14.352200   77.254800
  C    -40.310600   14.439200   78.380600
  H    -39.843400   14.039400   76.263400
  C    -37.033000   14.574600   76.428700
  H    -37.507400   14.361700   75.424600
  H    -36.417600   13.701600   76.685400
  C    -36.002900   15.732500   76.352400
  H    -35.608200   15.949200   77.336000
  H    -35.136000   15.458700   75.850200
  C    -36.415700   17.148200   75.800600
  H    -37.427900   17.254700   76.184700
  H    -35.754800   17.851500   76.329500
  H    -36.289000   17.113000   74.720700
  S    -42.517200   15.566000   79.343700
  C    -44.035600   15.000500   78.836400
  C    -44.017000   13.768700   78.256000
  C    -42.684800   13.343100   78.064300
  C    -41.736900   14.318300   78.480500
  H    -44.971200   13.376400   78.096000
  C    -42.321000   12.025000   77.463300
  H    -41.490600   12.236600   76.822100
  H    -43.154900   11.626300   76.856700
  C    -41.889100   10.912300   78.478000
  H    -41.004000   11.259700   79.021400
  H    -41.525200   10.011900   77.835400
  C    -43.002800   10.389000   79.360500
  H    -43.448100   11.249000   80.042700
  H    -42.645300    9.621370   80.053600
  H    -43.832000    9.931320   78.737900
  H    -37.007000   15.611800   79.011800
  H    -44.921000   15.591400   79.039200

 Total Charge           Charge          ....    0
 Multiplicity           Mult            ....    1
 Number of Electrons    NEL             ....  134
 Basis Dimension        Dim             ....  322

ORBITAL ENERGIES
----------------

  NO   OCC          E(Eh)            E(eV)
   0   2.0000     -88.968000     -2420.9424
   1   2.0000     -88.964647     -2420.8511
   2   2.0000     -10.333106      -281.1781
   3   2.0000     -10.323248      -280.9099
   4   2.0000     -10.309722      -280.5418
   5   2.0000     -10.309503      -280.5358
   6   2.0000     -10.305977      -280.4399
   7   2.0000     -10.303346      -280.3683
   8   2.0000     -10.301005      -280.3046
   9   2.0000     -10.296963      -280.1946
  10   2.0000     -10.291966      -280.0586
  11   2.0000     -10.288265      -279.9579
  12   2.0000     -10.287975      -279.9500
  13   2.0000     -10.287630      -279.9406
  14   2.0000     -10.281919      -279.7852
  15   2.0000     -10.278564      -279.6940
  16   2.0000      -8.082061      -219.9241
  17   2.0000      -8.081530      -219.9096
  18   2.0000      -6.040737      -164.3768
  19   2.0000      -6.039687      -164.3483
  20   2.0000      -6.036681      -164.2665
  21   2.0000      -6.035779      -164.2419
  22   2.0000      -6.032669      -164.1573
  23   2.0000      -6.032481      -164.1521
  24   2.0000      -1.016389       -27.6574
  25   2.0000      -0.985175       -26.8080
  26   2.0000      -0.909170       -24.7398
  27   2.0000      -0.906222       -24.6596
  28   2.0000      -0.873186       -23.7606
  29   2.0000      -0.850334       -23.1388
  30   2.0000      -0.844940       -22.9920
  31   2.0000      -0.815875       -22.2011
  32   2.0000      -0.783974       -21.3330
  33   2.0000      -0.770207       -20.9584
  34   2.0000      -0.711323       -19.3561
  35   2.0000      -0.701929       -19.1004
  36   2.0000      -0.682984       -18.5849
  37   2.0000      -0.665301       -18.1038
  38   2.0000      -0.633472       -17.2377
  39   2.0000      -0.616591       -16.7783
  40   2.0000      -0.592378       -16.1194
  41   2.0000      -0.577603       -15.7174
  42   2.0000      -0.557087       -15.1591
  43   2.0000      -0.548412       -14.9231
  44   2.0000      -0.541277       -14.7289
  45   2.0000      -0.537953       -14.6384
  46   2.0000      -0.517390       -14.0789
  47   2.0000      -0.512990       -13.9592
  48   2.0000      -0.505815       -13.7639
  49   2.0000      -0.497090       -13.5265
  50   2.0000      -0.484494       -13.1837
  51   2.0000      -0.476201       -12.9581
  52   2.0000      -0.473943       -12.8966
  53   2.0000      -0.467412       -12.7189
  54   2.0000      -0.460303       -12.5255
  55   2.0000      -0.451976       -12.2989
  56   2.0000      -0.442213       -12.0332
  57   2.0000      -0.437541       -11.9061
  58   2.0000      -0.429521       -11.6879
  59   2.0000      -0.425096       -11.5675
  60   2.0000      -0.417606       -11.3636
  61   2.0000      -0.413514       -11.2523
  62   2.0000      -0.407091       -11.0775
  63   2.0000      -0.353376        -9.6158
  64   2.0000      -0.335527        -9.1302
  65   2.0000      -0.326843        -8.8938
  66   2.0000      -0.281158        -7.6507
  67   0.0000       0.020922         0.5693
  68   0.0000       0.067972         1.8496
  69   0.0000       0.102553         2.7906
  70   0.0000       0.121280         3.3002
  71   0.0000       0.139923         3.8075

MULLIKEN ATOMIC CHARGES
-----------------------
   0 S :    0.090637
   1 C :   -0.081317
   2 C :   -0.107752
   3 C :    0.013917
   4 C :   -0.128123
   5 H :    0.021818
   6 C :    0.069948
   7 H :    0.030842
   8 H :    0.047935
   9 C :   -0.097001
  10 H :    0.008526
  11 H :    0.007050
  12 C :   -0.039913
  13 H :    0.041052
  14 H :    0.036508
  15 H :    0.045109
  16 S :    0.116214
  17 C :   -0.101128
  18 C :   -0.013945
  19 C :   -0.029649
  20 C :   -0.157948
  21 H :   -0.003821
  22 C :    0.096069
  23 H :    0.012628
  24 H :    0.021089
  25 C :   -0.091432
  26 H :    0.041829
  27 H :    0.037784
  28 C :   -0.092042
  29 H :    0.053672
  30 H :    0.042752
  31 H :    0.037997
  32 H :    0.017649
  33 H :    0.053044
Sum of atomic charges:   -0.0000000

LOEWDIN ATOMIC CHARGES
----------------------
   0 S :    0.392294
   1 C :   -0.191028
   2 C :   -0.059886
   3 C :   -0.070758
   4 C :   -0.186683
   5 H :    0.032065
   6 C :   -0.034499
   7 H :    0.033584
   8 H :    0.042823
   9 C :   -0.043265
  10 H :    0.018220
  11 H :    0.013229
  12 C :   -0.060652
  13 H :    0.028138
  14 H :    0.030082
  15 H :    0.025470
  16 S :    0.446692
  17 C :   -0.191707
  18 C :   -0.068814
  19 C :   -0.050214
  20 C :   -0.218100
  21 H :    0.028514
  22 C :   -0.034084
  23 H :    0.028451
  24 H :    0.030568
  25 C :   -0.044890
  26 H :    0.025895
  27 H :    0.032147
  28 C :   -0.082674
  29 H :    0.037178
  30 H :    0.026801
  31 H :    0.029071
  32 H :    0.010577
  33 H :    0.025454

  Mayer bond orders larger than 0.100000
B(  0-S ,  1-C ) :   1.1259 B(  0-S ,  4-C ) :   1.1454 B(  1-C ,  2-C ) :   1.5969
B(  1-C ,  4-C ) :   0.1021 B(  1-C , 32-H ) :   0.9738 B(  2-C ,  3-C ) :   1.2707
B(  2-C ,  6-C ) :   1.0114 B(  3-C ,  4-C ) :   1.5467 B(  3-C ,  5-H ) :   0.9841
B(  4-C , 20-C ) :   1.0773 B(  6-C ,  7-H ) :   0.9506 B(  6-C ,  8-H ) :   0.9304
B(  6-C ,  9-C ) :   1.0734 B(  9-C , 10-H ) :   0.9582 B(  9-C , 11-H ) :   0.9534
B(  9-C , 12-C ) :   1.0627 B( 12-C , 13-H ) :   0.9796 B( 12-C , 14-H ) :   0.9782
B( 12-C , 15-H ) :   0.9806 B( 16-S , 17-C ) :   1.1889 B( 16-S , 20-C ) :   1.1649
B( 17-C , 18-C ) :   1.5780 B( 17-C , 20-C ) :   0.1003 B( 17-C , 33-H ) :   0.9672
B( 18-C , 19-C ) :   1.2369 B( 18-C , 21-H ) :   1.0180 B( 19-C , 20-C ) :   1.5264
B( 19-C , 22-C ) :   1.0505 B( 22-C , 23-H ) :   0.9227 B( 22-C , 24-H ) :   0.9371
B( 22-C , 25-C ) :   1.0710 B( 25-C , 26-H ) :   0.9563 B( 25-C , 27-H ) :   0.9531
B( 25-C , 28-C ) :   1.0763 B( 28-C , 29-H ) :   0.9706 B( 28-C , 30-H ) :   0.9726
B( 28-C , 31-H ) :   0.9718

Dispersion correction           -0.014285368
FINAL SINGLE POINT ENERGY     -1339.865691828685

DIPOLE MOMENT
-------------
                                X             Y             Z
Electronic contribution:     -9.94725      10.69800      12.56782
Nuclear contribution   :      9.99182     -10.91447     -13.00031
                        -----------------------------------------
Total Dipole Moment    :      0.04457      -0.21647      -0.43248
                        -----------------------------------------
Magnitude (a.u.)       :      0.48569
Magnitude (Debye)      :      1.23451

Rotational constants in cm-1:     0.023421     0.007519     0.006620
Rotational constants in MHz :   702.151286   225.425139   198.465478

                             ****ORCA TERMINATED NORMALLY****
TOTAL RUN TIME: 0 days 0 hours 0 minutes 30 seconds 424 msec
