                         Program Version 4.2.1 -  RELEASE  -
|  1> ! wB97X-D3 SP def2-SVP
|  2> %pal
|  3> nprocs 16
|  4> end
|  5>
|  6> * xyz 0 1
|  7> S 	 0.17491 	 78.7256 	 47.7789
|  8> C 	 0.645621 	 80.1328 	 48.6798
|  9> C 	 1.05766 	 79.9229 	 49.9519
| 10> C 	 1.08631 	 78.4545 	 50.1531
| 11> C 	 0.746178 	 77.6984 	 49.0353
| 12> H 	 1.41317 	 77.957 	 51.0967
| 13> C 	 1.4674 	 80.8355 	 51.0533
| 14> H 	 1.02877 	 80.3904 	 51.9419
| 15> H 	 1.02863 	 81.8512 	 50.9357
| 16> C 	 2.93452 	 81.1637 	 51.1089
| 17> H 	 3.47694 	 80.2444 	 51.0739
| 18> H 	 3.2584 	 81.8113 	 50.1962
| 19> C 	 3.23152 	 81.9424 	 52.3749
| 20> H 	 3.31517 	 81.2545 	 53.1971
| 21> H 	 4.10622 	 82.5522 	 52.1673
| 22> H 	 2.41269 	 82.6696 	 52.43
| 23> S 	 2.31499 	 75.3986 	 48.999
| 24> C 	 1.57574 	 73.8163 	 49.0299
| 25> C 	 0.229791 	 73.9042 	 49.2488
| 26> C 	 -0.22348 	 75.3206 	 49.3412
| 27> C 	 0.796353 	 76.242 	 49.106
| 28> H 	 -0.409068 	 73.0146 	 49.3661
| 29> C 	 -1.67998 	 75.6924 	 49.5013
| 30> H 	 -2.23663 	 74.7929 	 49.2391
| 31> H 	 -1.90606 	 76.4312 	 48.8653
| 32> C 	 -2.02842 	 76.1877 	 50.8847
| 33> H 	 -1.29928 	 76.9311 	 51.207
| 34> H 	 -2.00467 	 75.3239 	 51.589
| 35> C 	 -3.49708 	 76.6935 	 50.8314
| 36> H 	 -3.44517 	 77.4636 	 50.0481
| 37> H 	 -3.80282 	 77.156 	 51.7534
| 38> H 	 -4.26299 	 76.0104 	 50.5636
| 39> H 	 0.700672 	 81.1286 	 48.1631
| 40> H 	 2.11513 	 72.9005 	 49.168
| 41> *
| 42>
| 43>                          ****END OF INPUT****

CARTESIAN COORDINATES (ANGSTROEM)
---------------------------------
  S      0.174910   78.725600   47.778900
  C      0.645621   80.132800   48.679800
  C      1.057660   79.922900   49.951900
  C      1.086310   78.454500   50.153100
  C      0.746178   77.698400   49.035300
  H      1.413170   77.957000   51.096700
  C      1.467400   80.835500   51.053300
  H      1.028770   80.390400   51.941900
  H      1.028630   81.851200   50.935700
  C      2.934520   81.163700   51.108900
  H      3.476940   80.244400   51.073900
  H      3.258400   81.811300   50.196200
  C      3.231520   81.942400   52.374900
  H      3.315170   81.254500   53.197100
  H      4.106220   82.552200   52.167300
  H      2.412690   82.669600   52.430000
  S      2.314990   75.398600   48.999000
  C      1.575740   73.816300   49.029900
  C      0.229791   73.904200   49.248800
  C     -0.223480   75.320600   49.341200
  C      0.796353   76.242000   49.106000
  H     -0.409068   73.014600   49.366100
  C     -1.679980   75.692400   49.501300
  H     -2.236630   74.792900   49.239100
  H     -1.906060   76.431200   48.865300
  C     -2.028420   76.187700   50.884700
  H     -1.299280   76.931100   51.207000
  H     -2.004670   75.323900   51.589000
  C     -3.497080   76.693500   50.831400
  H     -3.445170   77.463600   50.048100
  H     -3.802820   77.156000   51.753400
  H     -4.262990   76.010400   50.563600
  H      0.700672   81.128600   48.163100
  H      2.115130   72.900500   49.168000

 Total Charge           Charge          ....    0
 Multiplicity           Mult            ....    1
 Number of Electrons    NEL             ....  134
 Basis Dimension        Dim             ....  322

ORBITAL ENERGIES
----------------

  NO   OCC          E(Eh)            E(eV)
   0   2.0000     -88.970089     -2420.9992
   1   2.0000     -88.960637     -2420.7420
   2   2.0000     -10.327972      -281.0384
   3   2.0000     -10.323749      -280.9235
   4   2.0000     -10.316431      -280.7244
   5   2.0000     -10.313732      -280.6509
   6   2.0000     -10.302905      -280.3563
   7   2.0000     -10.302816      -280.3539
   8   2.0000     -10.300570      -280.2928
   9   2.0000     -10.297903      -280.2202
  10   2.0000     -10.293902      -280.1113
  11   2.0000     -10.288363      -279.9606
  12   2.0000     -10.282778      -279.8086
  13   2.0000     -10.277962      -279.6776
  14   2.0000     -10.274306      -279.5781
  15   2.0000     -10.271064      -279.4898
  16   2.0000      -8.085295      -220.0120
  17   2.0000      -8.075740      -219.7521
  18   2.0000      -6.043879      -164.4623
  19   2.0000      -6.039799      -164.3513
  20   2.0000      -6.035880      -164.2446
  21   2.0000      -6.034408      -164.2046
  22   2.0000      -6.030123      -164.0880
  23   2.0000      -6.026370      -163.9859
  24   2.0000      -1.007249       -27.4086
  25   2.0000      -0.983893       -26.7731
  26   2.0000      -0.924115       -25.1464
  27   2.0000      -0.912135       -24.8205
  28   2.0000      -0.873279       -23.7631
  29   2.0000      -0.853509       -23.2252
  30   2.0000      -0.840829       -22.8801
  31   2.0000      -0.811593       -22.0846
  32   2.0000      -0.783808       -21.3285
  33   2.0000      -0.769239       -20.9321
  34   2.0000      -0.702713       -19.1218
  35   2.0000      -0.697151       -18.9704
  36   2.0000      -0.691115       -18.8062
  37   2.0000      -0.658168       -17.9096
  38   2.0000      -0.642479       -17.4828
  39   2.0000      -0.620357       -16.8808
  40   2.0000      -0.596725       -16.2377
  41   2.0000      -0.575579       -15.6623
  42   2.0000      -0.570388       -15.5210
  43   2.0000      -0.566310       -15.4101
  44   2.0000      -0.528979       -14.3943
  45   2.0000      -0.522052       -14.2058
  46   2.0000      -0.515677       -14.0323
  47   2.0000      -0.511956       -13.9310
  48   2.0000      -0.506165       -13.7734
  49   2.0000      -0.504929       -13.7398
  50   2.0000      -0.491462       -13.3734
  51   2.0000      -0.478907       -13.0317
  52   2.0000      -0.467861       -12.7312
  53   2.0000      -0.461965       -12.5707
  54   2.0000      -0.458827       -12.4853
  55   2.0000      -0.448239       -12.1972
  56   2.0000      -0.446191       -12.1415
  57   2.0000      -0.437839       -11.9142
  58   2.0000      -0.434510       -11.8236
  59   2.0000      -0.428127       -11.6499
  60   2.0000      -0.418459       -11.3868
  61   2.0000      -0.416553       -11.3350
  62   2.0000      -0.408503       -11.1159
  63   2.0000      -0.332601        -9.0505
  64   2.0000      -0.330097        -8.9824
  65   2.0000      -0.324089        -8.8189
  66   2.0000      -0.308509        -8.3950
  67   0.0000       0.047147         1.2829
  68   0.0000       0.058115         1.5814
  69   0.0000       0.105795         2.8788
  70   0.0000       0.125811         3.4235
  71   0.0000       0.126719         3.4482

MULLIKEN ATOMIC CHARGES
-----------------------
   0 S :    0.132586
   1 C :   -0.159385
   2 C :   -0.042534
   3 C :   -0.004464
   4 C :   -0.164764
   5 H :    0.033407
   6 C :    0.046550
   7 H :    0.034186
   8 H :    0.022840
   9 C :   -0.110015
  10 H :    0.023426
  11 H :    0.041647
  12 C :    0.001577
  13 H :    0.043125
  14 H :    0.032409
  15 H :    0.018709
  16 S :    0.101599
  17 C :   -0.082006
  18 C :   -0.038017
  19 C :   -0.069093
  20 C :   -0.172553
  21 H :    0.031627
  22 C :    0.141260
  23 H :    0.013849
  24 H :   -0.021560
  25 C :   -0.090752
  26 H :    0.038151
  27 H :    0.024761
  28 C :   -0.022593
  29 H :    0.023208
  30 H :    0.027282
  31 H :    0.026123
  32 H :    0.062467
  33 H :    0.056947
Sum of atomic charges:    0.0000000

LOEWDIN ATOMIC CHARGES
----------------------
   0 S :    0.422233
   1 C :   -0.202278
   2 C :   -0.064367
   3 C :   -0.057930
   4 C :   -0.217732
   5 H :    0.034155
   6 C :   -0.039906
   7 H :    0.034802
   8 H :    0.033819
   9 C :   -0.042071
  10 H :    0.016032
  11 H :    0.034154
  12 C :   -0.058479
  13 H :    0.026255
  14 H :    0.028511
  15 H :    0.024904
  16 S :    0.406664
  17 C :   -0.187257
  18 C :   -0.074847
  19 C :   -0.047139
  20 C :   -0.207951
  21 H :    0.035562
  22 C :   -0.024802
  23 H :    0.031340
  24 H :    0.007461
  25 C :   -0.032749
  26 H :    0.025816
  27 H :    0.022643
  28 C :   -0.061265
  29 H :    0.026323
  30 H :    0.021856
  31 H :    0.020630
  32 H :    0.036321
  33 H :    0.029291

  Mayer bond orders larger than 0.100000
B(  0-S ,  1-C ) :   1.1398 B(  0-S ,  4-C ) :   1.1383 B(  1-C ,  2-C ) :   1.6462
B(  1-C , 32-H ) :   0.9553 B(  2-C ,  3-C ) :   1.2091 B(  2-C ,  6-C ) :   1.0254
B(  3-C ,  4-C ) :   1.6035 B(  3-C ,  5-H ) :   0.9788 B(  4-C , 20-C ) :   1.0292
B(  6-C ,  7-H ) :   0.9402 B(  6-C ,  8-H ) :   0.9295 B(  6-C ,  9-C ) :   1.0658
B(  9-C , 10-H ) :   0.9573 B(  9-C , 11-H ) :   0.9547 B(  9-C , 12-C ) :   1.0760
B( 12-C , 13-H ) :   0.9770 B( 12-C , 14-H ) :   0.9735 B( 12-C , 15-H ) :   0.9686
B( 16-S , 17-C ) :   1.1526 B( 16-S , 20-C ) :   1.1328 B( 17-C , 18-C ) :   1.6266
B( 17-C , 33-H ) :   0.9644 B( 18-C , 19-C ) :   1.2306 B( 18-C , 21-H ) :   0.9831
B( 19-C , 20-C ) :   1.6087 B( 19-C , 22-C ) :   1.0463 B( 22-C , 23-H ) :   0.9293
B( 22-C , 24-H ) :   0.9249 B( 22-C , 25-C ) :   1.0662 B( 25-C , 26-H ) :   0.9576
B( 25-C , 27-H ) :   0.9521 B( 25-C , 28-C ) :   1.0746 B( 28-C , 29-H ) :   0.9764
B( 28-C , 30-H ) :   0.9742 B( 28-C , 31-H ) :   0.9749

Dispersion correction           -0.014400956
FINAL SINGLE POINT ENERGY     -1339.870313852505

DIPOLE MOMENT
-------------
                                X             Y             Z
Electronic contribution:      7.39265     -12.22570     -17.63202
Nuclear contribution   :     -7.51909      12.44020      18.10995
                        -----------------------------------------
Total Dipole Moment    :     -0.12644       0.21450       0.47793
                        -----------------------------------------
Magnitude (a.u.)       :      0.53890
Magnitude (Debye)      :      1.36977

Rotational constants in cm-1:     0.018163     0.008193     0.007087
Rotational constants in MHz :   544.517077   245.616011   212.460990

                             ****ORCA TERMINATED NORMALLY****
TOTAL RUN TIME: 0 days 0 hours 0 minutes 33 seconds 484 msec
