                         Program Version 4.2.1 -  RELEASE  -
|  1> ! wB97X-D3 SP def2-SVP
|  2> %pal
|  3> nprocs 16
|  4> end
|  5>
|  6> * xyz 0 1
|  7> S 	 -45.3919 	 16.6917 	 81.6183
|  8> C 	 -43.9306 	 15.7421 	 81.6487
|  9> C 	 -43.0304 	 16.2808 	 82.5669
| 10> C 	 -43.4592 	 17.5342 	 83.0886
| 11> C 	 -44.721 	 17.9139 	 82.7359
| 12> H 	 -42.8294 	 17.9787 	 83.825
| 13> C 	 -41.7317 	 15.5999 	 82.884
| 14> H 	 -42.0244 	 14.6293 	 83.2809
| 15> H 	 -41.419 	 16.152 	 83.7946
| 16> C 	 -40.5919 	 15.6255 	 81.7856
| 17> H 	 -40.8752 	 14.9349 	 80.9459
| 18> H 	 -40.3667 	 16.537 	 81.3042
| 19> C 	 -39.2246 	 15.2396 	 82.4005
| 20> H 	 -38.4196 	 15.0942 	 81.569
| 21> H 	 -39.0223 	 16.0307 	 83.1258
| 22> H 	 -39.2901 	 14.3081 	 82.9974
| 23> S 	 -46.957 	 19.3056 	 82.2288
| 24> C 	 -47.5403 	 20.6212 	 83.2651
| 25> C 	 -46.6244 	 20.7855 	 84.2957
| 26> C 	 -45.5131 	 19.8999 	 84.3243
| 27> C 	 -45.5561 	 18.9843 	 83.2776
| 28> H 	 -46.7658 	 21.5959 	 85.0494
| 29> C 	 -44.4198 	 20.0479 	 85.3693
| 30> H 	 -44.2333 	 19.0671 	 85.7667
| 31> H 	 -44.9421 	 20.6349 	 86.1391
| 32> C 	 -43.162 	 20.7582 	 84.8954
| 33> H 	 -43.3806 	 21.6625 	 84.5039
| 34> H 	 -42.66 	 20.148 	 84.0551
| 35> C 	 -42.1108 	 20.8435 	 86.0785
| 36> H 	 -41.0845 	 21.0077 	 85.7168
| 37> H 	 -42.0676 	 19.9124 	 86.5498
| 38> H 	 -42.4274 	 21.4603 	 86.9009
| 39> H 	 -43.8299 	 14.8184 	 81.2683
| 40> H 	 -48.3422 	 21.2811 	 83.1664
| 41> *
| 42>
| 43>                          ****END OF INPUT****

CARTESIAN COORDINATES (ANGSTROEM)
---------------------------------
  S    -45.391900   16.691700   81.618300
  C    -43.930600   15.742100   81.648700
  C    -43.030400   16.280800   82.566900
  C    -43.459200   17.534200   83.088600
  C    -44.721000   17.913900   82.735900
  H    -42.829400   17.978700   83.825000
  C    -41.731700   15.599900   82.884000
  H    -42.024400   14.629300   83.280900
  H    -41.419000   16.152000   83.794600
  C    -40.591900   15.625500   81.785600
  H    -40.875200   14.934900   80.945900
  H    -40.366700   16.537000   81.304200
  C    -39.224600   15.239600   82.400500
  H    -38.419600   15.094200   81.569000
  H    -39.022300   16.030700   83.125800
  H    -39.290100   14.308100   82.997400
  S    -46.957000   19.305600   82.228800
  C    -47.540300   20.621200   83.265100
  C    -46.624400   20.785500   84.295700
  C    -45.513100   19.899900   84.324300
  C    -45.556100   18.984300   83.277600
  H    -46.765800   21.595900   85.049400
  C    -44.419800   20.047900   85.369300
  H    -44.233300   19.067100   85.766700
  H    -44.942100   20.634900   86.139100
  C    -43.162000   20.758200   84.895400
  H    -43.380600   21.662500   84.503900
  H    -42.660000   20.148000   84.055100
  C    -42.110800   20.843500   86.078500
  H    -41.084500   21.007700   85.716800
  H    -42.067600   19.912400   86.549800
  H    -42.427400   21.460300   86.900900
  H    -43.829900   14.818400   81.268300
  H    -48.342200   21.281100   83.166400

 Total Charge           Charge          ....    0
 Multiplicity           Mult            ....    1
 Number of Electrons    NEL             ....  134
 Basis Dimension        Dim             ....  322

ORBITAL ENERGIES
----------------

  NO   OCC          E(Eh)            E(eV)
   0   2.0000     -88.966743     -2420.9081
   1   2.0000     -88.965474     -2420.8736
   2   2.0000     -10.335784      -281.2510
   3   2.0000     -10.333631      -281.1924
   4   2.0000     -10.316953      -280.7386
   5   2.0000     -10.305418      -280.4247
   6   2.0000     -10.304983      -280.4129
   7   2.0000     -10.299046      -280.2513
   8   2.0000     -10.297888      -280.2198
   9   2.0000     -10.297040      -280.1967
  10   2.0000     -10.294308      -280.1224
  11   2.0000     -10.293874      -280.1106
  12   2.0000     -10.291758      -280.0530
  13   2.0000     -10.290053      -280.0066
  14   2.0000     -10.289731      -279.9978
  15   2.0000     -10.277627      -279.6684
  16   2.0000      -8.080891      -219.8922
  17   2.0000      -8.079385      -219.8512
  18   2.0000      -6.039570      -164.3451
  19   2.0000      -6.038112      -164.3054
  20   2.0000      -6.035439      -164.2326
  21   2.0000      -6.033919      -164.1913
  22   2.0000      -6.031529      -164.1262
  23   2.0000      -6.030038      -164.0857
  24   2.0000      -1.005715       -27.3669
  25   2.0000      -0.982140       -26.7254
  26   2.0000      -0.911967       -24.8159
  27   2.0000      -0.906905       -24.6782
  28   2.0000      -0.870145       -23.6778
  29   2.0000      -0.853977       -23.2379
  30   2.0000      -0.846223       -23.0269
  31   2.0000      -0.819428       -22.2978
  32   2.0000      -0.780674       -21.2432
  33   2.0000      -0.768060       -20.9000
  34   2.0000      -0.717149       -19.5146
  35   2.0000      -0.705977       -19.2106
  36   2.0000      -0.702086       -19.1047
  37   2.0000      -0.668341       -18.1865
  38   2.0000      -0.643952       -17.5228
  39   2.0000      -0.627552       -17.0766
  40   2.0000      -0.594161       -16.1679
  41   2.0000      -0.566782       -15.4229
  42   2.0000      -0.560729       -15.2582
  43   2.0000      -0.556282       -15.1372
  44   2.0000      -0.530461       -14.4346
  45   2.0000      -0.528079       -14.3697
  46   2.0000      -0.519296       -14.1308
  47   2.0000      -0.512219       -13.9382
  48   2.0000      -0.507829       -13.8187
  49   2.0000      -0.505369       -13.7518
  50   2.0000      -0.500198       -13.6111
  51   2.0000      -0.480608       -13.0780
  52   2.0000      -0.469907       -12.7868
  53   2.0000      -0.459090       -12.4925
  54   2.0000      -0.456852       -12.4316
  55   2.0000      -0.448804       -12.2126
  56   2.0000      -0.447029       -12.1643
  57   2.0000      -0.442709       -12.0467
  58   2.0000      -0.436644       -11.8817
  59   2.0000      -0.431148       -11.7321
  60   2.0000      -0.421365       -11.4659
  61   2.0000      -0.417410       -11.3583
  62   2.0000      -0.405274       -11.0281
  63   2.0000      -0.362709        -9.8698
  64   2.0000      -0.336224        -9.1491
  65   2.0000      -0.327617        -8.9149
  66   2.0000      -0.281800        -7.6682
  67   0.0000       0.015420         0.4196
  68   0.0000       0.081071         2.2061
  69   0.0000       0.091681         2.4948
  70   0.0000       0.121179         3.2974
  71   0.0000       0.130240         3.5440

MULLIKEN ATOMIC CHARGES
-----------------------
   0 S :    0.097158
   1 C :   -0.049818
   2 C :   -0.148306
   3 C :   -0.000824
   4 C :   -0.056241
   5 H :   -0.009604
   6 C :    0.057054
   7 H :    0.038497
   8 H :    0.006862
   9 C :   -0.038765
  10 H :    0.034900
  11 H :    0.029670
  12 C :   -0.097148
  13 H :    0.058273
  14 H :    0.036626
  15 H :    0.034051
  16 S :    0.076579
  17 C :   -0.042533
  18 C :   -0.068735
  19 C :   -0.069799
  20 C :   -0.120922
  21 H :    0.028524
  22 C :    0.061809
  23 H :    0.027828
  24 H :    0.016316
  25 C :   -0.041081
  26 H :    0.004942
  27 H :    0.039714
  28 C :   -0.011434
  29 H :    0.041032
  30 H :   -0.000236
  31 H :    0.028040
  32 H :    0.003791
  33 H :    0.033779
Sum of atomic charges:    0.0000000

LOEWDIN ATOMIC CHARGES
----------------------
   0 S :    0.394364
   1 C :   -0.179164
   2 C :   -0.061995
   3 C :   -0.070915
   4 C :   -0.177044
   5 H :    0.023800
   6 C :   -0.035584
   7 H :    0.036478
   8 H :    0.028823
   9 C :   -0.037049
  10 H :    0.026741
  11 H :    0.022333
  12 C :   -0.074892
  13 H :    0.039138
  14 H :    0.024280
  15 H :    0.023033
  16 S :    0.386662
  17 C :   -0.173833
  18 C :   -0.075505
  19 C :   -0.062902
  20 C :   -0.173281
  21 H :    0.035018
  22 C :   -0.029367
  23 H :    0.028140
  24 H :    0.032226
  25 C :   -0.026055
  26 H :    0.008053
  27 H :    0.033778
  28 C :   -0.063079
  29 H :    0.030623
  30 H :    0.015784
  31 H :    0.024555
  32 H :    0.004262
  33 H :    0.022571

  Mayer bond orders larger than 0.100000
B(  0-S ,  1-C ) :   1.1353 B(  0-S ,  4-C ) :   1.1396 B(  1-C ,  2-C ) :   1.5937
B(  1-C , 32-H ) :   0.9820 B(  2-C ,  3-C ) :   1.2782 B(  2-C ,  6-C ) :   1.0221
B(  3-C ,  4-C ) :   1.5508 B(  3-C ,  5-H ) :   0.9921 B(  4-C , 20-C ) :   1.0686
B(  6-C ,  7-H ) :   0.9341 B(  6-C ,  8-H ) :   0.9425 B(  6-C ,  9-C ) :   1.0431
B(  9-C , 10-H ) :   0.9562 B(  9-C , 11-H ) :   0.9634 B(  9-C , 12-C ) :   1.0682
B( 12-C , 13-H ) :   0.9732 B( 12-C , 14-H ) :   0.9779 B( 12-C , 15-H ) :   0.9768
B( 16-S , 17-C ) :   1.1374 B( 16-S , 20-C ) :   1.1330 B( 17-C , 18-C ) :   1.6132
B( 17-C , 20-C ) :   0.1035 B( 17-C , 33-H ) :   0.9741 B( 18-C , 19-C ) :   1.2653
B( 18-C , 21-H ) :   0.9732 B( 19-C , 20-C ) :   1.5774 B( 19-C , 22-C ) :   1.0337
B( 22-C , 23-H ) :   0.9301 B( 22-C , 24-H ) :   0.9293 B( 22-C , 25-C ) :   1.0698
B( 25-C , 26-H ) :   0.9521 B( 25-C , 27-H ) :   0.9544 B( 25-C , 28-C ) :   1.0687
B( 28-C , 29-H ) :   0.9760 B( 28-C , 30-H ) :   0.9699 B( 28-C , 31-H ) :   0.9750

Dispersion correction           -0.013732778
FINAL SINGLE POINT ENERGY     -1339.859486817755

DIPOLE MOMENT
-------------
                                X             Y             Z
Electronic contribution:    -29.79324       0.35785     -12.73370
Nuclear contribution   :     30.34661      -0.29150      13.25187
                        -----------------------------------------
Total Dipole Moment    :      0.55337       0.06634       0.51817
                        -----------------------------------------
Magnitude (a.u.)       :      0.76100
Magnitude (Debye)      :      1.93430

Rotational constants in cm-1:     0.018202     0.008652     0.006058
Rotational constants in MHz :   545.674006   259.370760   181.619120

                             ****ORCA TERMINATED NORMALLY****
TOTAL RUN TIME: 0 days 0 hours 0 minutes 28 seconds 25 msec
