                         Program Version 4.2.1 -  RELEASE  -
|  1> ! wB97X-D3 SP def2-SVP
|  2> %pal
|  3> nprocs 16
|  4> end
|  5>
|  6> * xyz 0 1
|  7> S 	 14.9377 	 33.8897 	 62.3603
|  8> C 	 16.6256 	 33.9118 	 61.9608
|  9> C 	 17.0834 	 35.2068 	 61.8741
| 10> C 	 15.9845 	 36.1509 	 61.8944
| 11> C 	 14.727 	 35.6078 	 62.0247
| 12> H 	 16.1037 	 37.2302 	 61.613
| 13> C 	 18.5619 	 35.5331 	 61.687
| 14> H 	 19.1356 	 34.6971 	 62.0843
| 15> H 	 18.7431 	 36.4522 	 62.2811
| 16> C 	 19.0417 	 35.744 	 60.2396
| 17> H 	 18.5119 	 36.6661 	 59.8725
| 18> H 	 20.1039 	 35.994 	 60.233
| 19> C 	 18.7687 	 34.553 	 59.2931
| 20> H 	 17.7852 	 34.3465 	 59.1699
| 21> H 	 19.2199 	 34.6741 	 58.3091
| 22> H 	 19.2563 	 33.7198 	 59.7403
| 23> S 	 12.248 	 35.8257 	 63.1163
| 24> C 	 11.2226 	 37.1308 	 62.7666
| 25> C 	 11.6882 	 37.8206 	 61.6426
| 26> C 	 13.0645 	 37.4499 	 61.3123
| 27> C 	 13.474 	 36.3337 	 61.9962
| 28> H 	 11.1095 	 38.6395 	 61.1885
| 29> C 	 13.8134 	 38.2501 	 60.3124
| 30> H 	 14.8754 	 37.9472 	 60.2352
| 31> H 	 13.96 	 39.3087 	 60.6252
| 32> C 	 13.1716 	 38.206 	 58.9871
| 33> H 	 13.4772 	 39.1081 	 58.5443
| 34> H 	 12.1192 	 38.1988 	 59.0762
| 35> C 	 13.7069 	 36.9514 	 58.2194
| 36> H 	 14.8017 	 36.7249 	 58.3204
| 37> H 	 13.4135 	 37.0655 	 57.2091
| 38> H 	 13.1584 	 36.0326 	 58.4295
| 39> H 	 17.3245 	 33.0894 	 61.8754
| 40> H 	 10.2217 	 37.4708 	 63.1444
| 41> *
| 42>
| 43>                          ****END OF INPUT****

CARTESIAN COORDINATES (ANGSTROEM)
---------------------------------
  S     14.937700   33.889700   62.360300
  C     16.625600   33.911800   61.960800
  C     17.083400   35.206800   61.874100
  C     15.984500   36.150900   61.894400
  C     14.727000   35.607800   62.024700
  H     16.103700   37.230200   61.613000
  C     18.561900   35.533100   61.687000
  H     19.135600   34.697100   62.084300
  H     18.743100   36.452200   62.281100
  C     19.041700   35.744000   60.239600
  H     18.511900   36.666100   59.872500
  H     20.103900   35.994000   60.233000
  C     18.768700   34.553000   59.293100
  H     17.785200   34.346500   59.169900
  H     19.219900   34.674100   58.309100
  H     19.256300   33.719800   59.740300
  S     12.248000   35.825700   63.116300
  C     11.222600   37.130800   62.766600
  C     11.688200   37.820600   61.642600
  C     13.064500   37.449900   61.312300
  C     13.474000   36.333700   61.996200
  H     11.109500   38.639500   61.188500
  C     13.813400   38.250100   60.312400
  H     14.875400   37.947200   60.235200
  H     13.960000   39.308700   60.625200
  C     13.171600   38.206000   58.987100
  H     13.477200   39.108100   58.544300
  H     12.119200   38.198800   59.076200
  C     13.706900   36.951400   58.219400
  H     14.801700   36.724900   58.320400
  H     13.413500   37.065500   57.209100
  H     13.158400   36.032600   58.429500
  H     17.324500   33.089400   61.875400
  H     10.221700   37.470800   63.144400

 Total Charge           Charge          ....    0
 Multiplicity           Mult            ....    1
 Number of Electrons    NEL             ....  134
 Basis Dimension        Dim             ....  322

ORBITAL ENERGIES
----------------

  NO   OCC          E(Eh)            E(eV)
   0   2.0000     -88.966062     -2420.8896
   1   2.0000     -88.965821     -2420.8831
   2   2.0000     -10.331979      -281.1474
   3   2.0000     -10.326109      -280.9877
   4   2.0000     -10.320439      -280.8334
   5   2.0000     -10.312231      -280.6101
   6   2.0000     -10.303230      -280.3651
   7   2.0000     -10.301003      -280.3046
   8   2.0000     -10.297841      -280.2185
   9   2.0000     -10.296998      -280.1956
  10   2.0000     -10.295814      -280.1633
  11   2.0000     -10.291180      -280.0372
  12   2.0000     -10.286260      -279.9034
  13   2.0000     -10.276901      -279.6487
  14   2.0000     -10.274271      -279.5771
  15   2.0000     -10.267542      -279.3940
  16   2.0000      -8.081963      -219.9214
  17   2.0000      -8.080513      -219.8819
  18   2.0000      -6.040538      -164.3714
  19   2.0000      -6.039203      -164.3351
  20   2.0000      -6.036296      -164.2560
  21   2.0000      -6.035112      -164.2237
  22   2.0000      -6.032569      -164.1545
  23   2.0000      -6.030980      -164.1113
  24   2.0000      -1.012342       -27.5472
  25   2.0000      -0.988565       -26.9002
  26   2.0000      -0.923215       -25.1219
  27   2.0000      -0.910802       -24.7842
  28   2.0000      -0.872488       -23.7416
  29   2.0000      -0.848451       -23.0875
  30   2.0000      -0.840174       -22.8623
  31   2.0000      -0.814720       -22.1697
  32   2.0000      -0.785039       -21.3620
  33   2.0000      -0.778784       -21.1918
  34   2.0000      -0.714572       -19.4445
  35   2.0000      -0.700134       -19.0516
  36   2.0000      -0.694766       -18.9055
  37   2.0000      -0.656978       -17.8773
  38   2.0000      -0.634429       -17.2637
  39   2.0000      -0.623472       -16.9655
  40   2.0000      -0.605315       -16.4714
  41   2.0000      -0.569136       -15.4870
  42   2.0000      -0.556368       -15.1395
  43   2.0000      -0.551371       -15.0036
  44   2.0000      -0.546253       -14.8643
  45   2.0000      -0.531517       -14.4633
  46   2.0000      -0.517400       -14.0792
  47   2.0000      -0.513647       -13.9770
  48   2.0000      -0.509111       -13.8536
  49   2.0000      -0.499173       -13.5832
  50   2.0000      -0.492523       -13.4022
  51   2.0000      -0.476309       -12.9610
  52   2.0000      -0.472168       -12.8484
  53   2.0000      -0.467596       -12.7239
  54   2.0000      -0.461924       -12.5696
  55   2.0000      -0.451709       -12.2916
  56   2.0000      -0.443095       -12.0572
  57   2.0000      -0.439396       -11.9566
  58   2.0000      -0.438041       -11.9197
  59   2.0000      -0.420114       -11.4319
  60   2.0000      -0.418407       -11.3854
  61   2.0000      -0.414944       -11.2912
  62   2.0000      -0.408163       -11.1067
  63   2.0000      -0.360950        -9.8219
  64   2.0000      -0.328792        -8.9469
  65   2.0000      -0.324433        -8.8283
  66   2.0000      -0.287473        -7.8225
  67   0.0000       0.029819         0.8114
  68   0.0000       0.073482         1.9995
  69   0.0000       0.107585         2.9275
  70   0.0000       0.115889         3.1535
  71   0.0000       0.128771         3.5040

MULLIKEN ATOMIC CHARGES
-----------------------
   0 S :    0.111790
   1 C :   -0.109813
   2 C :   -0.113289
   3 C :   -0.007363
   4 C :   -0.124557
   5 H :    0.031833
   6 C :    0.053374
   7 H :    0.021761
   8 H :    0.040318
   9 C :   -0.081496
  10 H :    0.023122
  11 H :    0.034516
  12 C :   -0.005603
  13 H :    0.025277
  14 H :    0.032772
  15 H :    0.008781
  16 S :    0.116151
  17 C :   -0.089929
  18 C :   -0.069334
  19 C :   -0.060697
  20 C :   -0.120265
  21 H :    0.032521
  22 C :    0.032744
  23 H :    0.004749
  24 H :    0.031831
  25 C :   -0.013762
  26 H :    0.010314
  27 H :    0.021671
  28 C :   -0.053728
  29 H :    0.047921
  30 H :    0.017091
  31 H :    0.033927
  32 H :    0.043909
  33 H :    0.073464
Sum of atomic charges:    0.0000000

LOEWDIN ATOMIC CHARGES
----------------------
   0 S :    0.399003
   1 C :   -0.200391
   2 C :   -0.066295
   3 C :   -0.074735
   4 C :   -0.186502
   5 H :    0.034464
   6 C :   -0.033146
   7 H :    0.027293
   8 H :    0.038143
   9 C :   -0.039330
  10 H :    0.022100
  11 H :    0.024339
  12 C :   -0.053949
  13 H :    0.011662
  14 H :    0.030399
  15 H :    0.019787
  16 S :    0.430877
  17 C :   -0.213174
  18 C :   -0.076467
  19 C :   -0.052835
  20 C :   -0.200313
  21 H :    0.032296
  22 C :   -0.040004
  23 H :    0.026313
  24 H :    0.033517
  25 C :   -0.027255
  26 H :    0.018515
  27 H :    0.020757
  28 C :   -0.065802
  29 H :    0.032497
  30 H :    0.019335
  31 H :    0.030419
  32 H :    0.030559
  33 H :    0.047922

  Mayer bond orders larger than 0.100000
B(  0-S ,  1-C ) :   1.1306 B(  0-S ,  4-C ) :   1.1313 B(  1-C ,  2-C ) :   1.6212
B(  1-C , 32-H ) :   0.9668 B(  2-C ,  3-C ) :   1.2315 B(  2-C ,  6-C ) :   1.0274
B(  3-C ,  4-C ) :   1.5850 B(  3-C ,  5-H ) :   0.9788 B(  4-C , 20-C ) :   1.0652
B(  6-C ,  7-H ) :   0.9410 B(  6-C ,  8-H ) :   0.9392 B(  6-C ,  9-C ) :   1.0728
B(  9-C , 10-H ) :   0.9558 B(  9-C , 11-H ) :   0.9573 B(  9-C , 12-C ) :   1.0731
B( 12-C , 13-H ) :   0.9751 B( 12-C , 14-H ) :   0.9724 B( 12-C , 15-H ) :   0.9729
B( 16-S , 17-C ) :   1.1660 B( 16-S , 20-C ) :   1.1221 B( 17-C , 18-C ) :   1.6213
B( 17-C , 33-H ) :   0.9588 B( 18-C , 19-C ) :   1.2261 B( 18-C , 21-H ) :   0.9780
B( 19-C , 20-C ) :   1.6119 B( 19-C , 22-C ) :   1.0549 B( 22-C , 23-H ) :   0.9299
B( 22-C , 24-H ) :   0.9303 B( 22-C , 25-C ) :   1.0804 B( 25-C , 26-H ) :   0.9482
B( 25-C , 27-H ) :   0.9564 B( 25-C , 28-C ) :   1.0736 B( 28-C , 29-H ) :   0.9759
B( 28-C , 30-H ) :   0.9719 B( 28-C , 31-H ) :   0.9735

Dispersion correction           -0.015003752
FINAL SINGLE POINT ENERGY     -1339.866556585406

DIPOLE MOMENT
-------------
                                X             Y             Z
Electronic contribution:    -16.70002      -8.70205      21.26342
Nuclear contribution   :     16.98599       9.22573     -21.73027
                        -----------------------------------------
Total Dipole Moment    :      0.28597       0.52368      -0.46685
                        -----------------------------------------
Magnitude (a.u.)       :      0.75761
Magnitude (Debye)      :      1.92568

Rotational constants in cm-1:     0.020499     0.009249     0.007162
Rotational constants in MHz :   614.536964   277.281620   214.713274

                             ****ORCA TERMINATED NORMALLY****
TOTAL RUN TIME: 0 days 0 hours 0 minutes 36 seconds 626 msec
