                         Program Version 4.2.1 -  RELEASE  -
|  1> ! wB97X-D3 SP def2-SVP
|  2> %pal
|  3> nprocs 16
|  4> end
|  5>
|  6> * xyz 0 1
|  7> S 	 3.80161 	 -15.8155 	 88.7294
|  8> C 	 3.61394 	 -15.9224 	 86.9792
|  9> C 	 4.78717 	 -16.3983 	 86.4679
| 10> C 	 5.82664 	 -16.4894 	 87.385
| 11> C 	 5.48964 	 -15.9708 	 88.608
| 12> H 	 6.88146 	 -16.7803 	 87.0697
| 13> C 	 4.94037 	 -16.7052 	 84.9897
| 14> H 	 5.83145 	 -16.1967 	 84.6224
| 15> H 	 4.12792 	 -16.2493 	 84.4902
| 16> C 	 5.08519 	 -18.2006 	 84.5775
| 17> H 	 5.88033 	 -18.3239 	 83.8678
| 18> H 	 5.43258 	 -18.8234 	 85.4809
| 19> C 	 3.85278 	 -18.923 	 84.0643
| 20> H 	 3.06809 	 -18.9541 	 84.8104
| 21> H 	 3.35203 	 -18.3383 	 83.2453
| 22> H 	 4.0449 	 -19.8588 	 83.5957
| 23> S 	 5.75786 	 -16.6643 	 91.3288
| 24> C 	 7.15114 	 -16.1366 	 92.1842
| 25> C 	 8.00467 	 -15.4745 	 91.3364
| 26> C 	 7.58547 	 -15.3932 	 89.9321
| 27> C 	 6.28916 	 -15.9263 	 89.8115
| 28> H 	 8.93436 	 -15.1478 	 91.8108
| 29> C 	 8.35008 	 -14.7303 	 88.8073
| 30> H 	 8.28519 	 -13.649 	 88.9609
| 31> H 	 7.86634 	 -14.867 	 87.8337
| 32> C 	 9.80286 	 -15.0738 	 88.7256
| 33> H 	 9.92223 	 -16.1234 	 88.48
| 34> H 	 10.2783 	 -14.8802 	 89.7148
| 35> C 	 10.5329 	 -14.2378 	 87.5907
| 36> H 	 11.6135 	 -14.5955 	 87.4753
| 37> H 	 10.6167 	 -13.1871 	 87.957
| 38> H 	 9.99688 	 -14.238 	 86.6504
| 39> H 	 2.65873 	 -16.022 	 86.4643
| 40> H 	 7.3686 	 -16.3056 	 93.1747
| 41> *
| 42>
| 43>                          ****END OF INPUT****

CARTESIAN COORDINATES (ANGSTROEM)
---------------------------------
  S      3.801610  -15.815500   88.729400
  C      3.613940  -15.922400   86.979200
  C      4.787170  -16.398300   86.467900
  C      5.826640  -16.489400   87.385000
  C      5.489640  -15.970800   88.608000
  H      6.881460  -16.780300   87.069700
  C      4.940370  -16.705200   84.989700
  H      5.831450  -16.196700   84.622400
  H      4.127920  -16.249300   84.490200
  C      5.085190  -18.200600   84.577500
  H      5.880330  -18.323900   83.867800
  H      5.432580  -18.823400   85.480900
  C      3.852780  -18.923000   84.064300
  H      3.068090  -18.954100   84.810400
  H      3.352030  -18.338300   83.245300
  H      4.044900  -19.858800   83.595700
  S      5.757860  -16.664300   91.328800
  C      7.151140  -16.136600   92.184200
  C      8.004670  -15.474500   91.336400
  C      7.585470  -15.393200   89.932100
  C      6.289160  -15.926300   89.811500
  H      8.934360  -15.147800   91.810800
  C      8.350080  -14.730300   88.807300
  H      8.285190  -13.649000   88.960900
  H      7.866340  -14.867000   87.833700
  C      9.802860  -15.073800   88.725600
  H      9.922230  -16.123400   88.480000
  H     10.278300  -14.880200   89.714800
  C     10.532900  -14.237800   87.590700
  H     11.613500  -14.595500   87.475300
  H     10.616700  -13.187100   87.957000
  H      9.996880  -14.238000   86.650400
  H      2.658730  -16.022000   86.464300
  H      7.368600  -16.305600   93.174700

 Total Charge           Charge          ....    0
 Multiplicity           Mult            ....    1
 Number of Electrons    NEL             ....  134
 Basis Dimension        Dim             ....  322

ORBITAL ENERGIES
----------------

  NO   OCC          E(Eh)            E(eV)
   0   2.0000     -88.965849     -2420.8838
   1   2.0000     -88.963513     -2420.8203
   2   2.0000     -10.328112      -281.0422
   3   2.0000     -10.326274      -280.9922
   4   2.0000     -10.310721      -280.5690
   5   2.0000     -10.310498      -280.5629
   6   2.0000     -10.310236      -280.5558
   7   2.0000     -10.297260      -280.2027
   8   2.0000     -10.295326      -280.1501
   9   2.0000     -10.294274      -280.1214
  10   2.0000     -10.291085      -280.0347
  11   2.0000     -10.290169      -280.0097
  12   2.0000     -10.290040      -280.0062
  13   2.0000     -10.289877      -280.0018
  14   2.0000     -10.289739      -279.9980
  15   2.0000     -10.277083      -279.6536
  16   2.0000      -8.080762      -219.8887
  17   2.0000      -8.079319      -219.8495
  18   2.0000      -6.039409      -164.3407
  19   2.0000      -6.037700      -164.2942
  20   2.0000      -6.035147      -164.2247
  21   2.0000      -6.033836      -164.1890
  22   2.0000      -6.031458      -164.1243
  23   2.0000      -6.029967      -164.0837
  24   2.0000      -1.016082       -27.6490
  25   2.0000      -0.987945       -26.8834
  26   2.0000      -0.912693       -24.8356
  27   2.0000      -0.911389       -24.8001
  28   2.0000      -0.873175       -23.7603
  29   2.0000      -0.852061       -23.1858
  30   2.0000      -0.840216       -22.8634
  31   2.0000      -0.818082       -22.2611
  32   2.0000      -0.785816       -21.3831
  33   2.0000      -0.773609       -21.0510
  34   2.0000      -0.711647       -19.3649
  35   2.0000      -0.701079       -19.0773
  36   2.0000      -0.694385       -18.8952
  37   2.0000      -0.651762       -17.7353
  38   2.0000      -0.638004       -17.3610
  39   2.0000      -0.625184       -17.0121
  40   2.0000      -0.601072       -16.3560
  41   2.0000      -0.570912       -15.5353
  42   2.0000      -0.567571       -15.4444
  43   2.0000      -0.555921       -15.1274
  44   2.0000      -0.529693       -14.4137
  45   2.0000      -0.525758       -14.3066
  46   2.0000      -0.519352       -14.1323
  47   2.0000      -0.512899       -13.9567
  48   2.0000      -0.509489       -13.8639
  49   2.0000      -0.495512       -13.4836
  50   2.0000      -0.490687       -13.3523
  51   2.0000      -0.485074       -13.1995
  52   2.0000      -0.472490       -12.8571
  53   2.0000      -0.466688       -12.6992
  54   2.0000      -0.461824       -12.5669
  55   2.0000      -0.453515       -12.3408
  56   2.0000      -0.443614       -12.0713
  57   2.0000      -0.438561       -11.9339
  58   2.0000      -0.433471       -11.7953
  59   2.0000      -0.427635       -11.6365
  60   2.0000      -0.420523       -11.4430
  61   2.0000      -0.414947       -11.2913
  62   2.0000      -0.407288       -11.0829
  63   2.0000      -0.351318        -9.5598
  64   2.0000      -0.331609        -9.0235
  65   2.0000      -0.328083        -8.9276
  66   2.0000      -0.291646        -7.9361
  67   0.0000       0.026120         0.7108
  68   0.0000       0.073178         1.9913
  69   0.0000       0.113181         3.0798
  70   0.0000       0.121200         3.2980
  71   0.0000       0.123654         3.3648

MULLIKEN ATOMIC CHARGES
-----------------------
   0 S :    0.099453
   1 C :   -0.112245
   2 C :   -0.117946
   3 C :    0.026782
   4 C :   -0.167442
   5 H :    0.036765
   6 C :    0.097367
   7 H :    0.027016
   8 H :    0.004701
   9 C :   -0.087033
  10 H :    0.020865
  11 H :    0.041776
  12 C :   -0.043991
  13 H :    0.029853
  14 H :    0.017272
  15 H :    0.035080
  16 S :    0.113195
  17 C :   -0.061119
  18 C :   -0.051676
  19 C :   -0.012564
  20 C :   -0.137168
  21 H :    0.021714
  22 C :    0.069056
  23 H :    0.032362
  24 H :    0.016358
  25 C :   -0.097864
  26 H :    0.031298
  27 H :    0.038199
  28 C :   -0.077085
  29 H :    0.049682
  30 H :    0.036130
  31 H :    0.038372
  32 H :    0.055481
  33 H :    0.027355
Sum of atomic charges:   -0.0000000

LOEWDIN ATOMIC CHARGES
----------------------
   0 S :    0.423191
   1 C :   -0.201965
   2 C :   -0.067371
   3 C :   -0.073311
   4 C :   -0.198799
   5 H :    0.041944
   6 C :   -0.024856
   7 H :    0.034012
   8 H :    0.023140
   9 C :   -0.045926
  10 H :    0.019164
  11 H :    0.034394
  12 C :   -0.067668
  13 H :    0.023215
  14 H :    0.024665
  15 H :    0.024176
  16 S :    0.406018
  17 C :   -0.183599
  18 C :   -0.073503
  19 C :   -0.046600
  20 C :   -0.196730
  21 H :    0.030895
  22 C :   -0.040010
  23 H :    0.036180
  24 H :    0.029087
  25 C :   -0.040293
  26 H :    0.021122
  27 H :    0.026811
  28 C :   -0.070944
  29 H :    0.035047
  30 H :    0.027619
  31 H :    0.022193
  32 H :    0.031680
  33 H :    0.017023

  Mayer bond orders larger than 0.100000
B(  0-S ,  1-C ) :   1.1289 B(  0-S ,  4-C ) :   1.1802 B(  1-C ,  2-C ) :   1.6002
B(  1-C ,  4-C ) :   0.1014 B(  1-C , 32-H ) :   0.9650 B(  2-C ,  3-C ) :   1.2838
B(  2-C ,  6-C ) :   1.0295 B(  3-C ,  4-C ) :   1.5210 B(  3-C ,  5-H ) :   0.9801
B(  4-C , 20-C ) :   1.0622 B(  6-C ,  7-H ) :   0.9428 B(  6-C ,  8-H ) :   0.9463
B(  6-C ,  9-C ) :   1.0365 B(  9-C , 10-H ) :   0.9591 B(  9-C , 11-H ) :   0.9605
B(  9-C , 12-C ) :   1.0880 B( 12-C , 13-H ) :   0.9760 B( 12-C , 14-H ) :   0.9725
B( 12-C , 15-H ) :   0.9735 B( 16-S , 17-C ) :   1.1441 B( 16-S , 20-C ) :   1.1390
B( 17-C , 18-C ) :   1.6386 B( 17-C , 33-H ) :   0.9764 B( 18-C , 19-C ) :   1.2082
B( 18-C , 21-H ) :   0.9854 B( 19-C , 20-C ) :   1.5910 B( 19-C , 22-C ) :   1.0478
B( 22-C , 23-H ) :   0.9282 B( 22-C , 24-H ) :   0.9287 B( 22-C , 25-C ) :   1.0617
B( 25-C , 26-H ) :   0.9587 B( 25-C , 27-H ) :   0.9539 B( 25-C , 28-C ) :   1.0735
B( 28-C , 29-H ) :   0.9759 B( 28-C , 30-H ) :   0.9760 B( 28-C , 31-H ) :   0.9761

Dispersion correction           -0.013649939
FINAL SINGLE POINT ENERGY     -1339.876666254621

DIPOLE MOMENT
-------------
                                X             Y             Z
Electronic contribution:    -14.72308       1.57154      23.91487
Nuclear contribution   :     15.23348      -1.62731     -24.35004
                        -----------------------------------------
Total Dipole Moment    :      0.51039      -0.05578      -0.43517
                        -----------------------------------------
Magnitude (a.u.)       :      0.67304
Magnitude (Debye)      :      1.71074

Rotational constants in cm-1:     0.017598     0.008493     0.006378
Rotational constants in MHz :   527.573741   254.624973   191.193326

                             ****ORCA TERMINATED NORMALLY****
TOTAL RUN TIME: 0 days 0 hours 0 minutes 32 seconds 848 msec
