                         Program Version 4.2.1 -  RELEASE  -
|  1> ! wB97X-D3 SP def2-SVP
|  2> %pal
|  3> nprocs 16
|  4> end
|  5>
|  6> * xyz 0 1
|  7> S 	 -88.6583 	 48.7337 	 130.82
|  8> C 	 -90.2324 	 49.3866 	 131.12
|  9> C 	 -90.5104 	 50.5752 	 130.487
| 10> C 	 -89.4077 	 50.9601 	 129.662
| 11> C 	 -88.3712 	 50.089 	 129.748
| 12> H 	 -89.2711 	 51.8279 	 129.034
| 13> C 	 -91.6344 	 51.559 	 130.677
| 14> H 	 -92.5894 	 50.9698 	 130.548
| 15> H 	 -91.669 	 52.2042 	 129.791
| 16> C 	 -91.5329 	 52.4516 	 131.92
| 17> H 	 -92.4258 	 53.0785 	 132.003
| 18> H 	 -91.644 	 51.8421 	 132.839
| 19> C 	 -90.2105 	 53.215 	 131.893
| 20> H 	 -90.0749 	 53.6475 	 130.922
| 21> H 	 -90.168 	 54.0693 	 132.643
| 22> H 	 -89.3228 	 52.6196 	 132.02
| 23> S 	 -86.7176 	 48.8179 	 127.868
| 24> C 	 -85.1301 	 49.4354 	 127.543
| 25> C 	 -85.0158 	 50.7113 	 128.1
| 26> C 	 -86.1306 	 51.1452 	 128.882
| 27> C 	 -87.0818 	 50.1402 	 129.001
| 28> H 	 -84.2037 	 51.3902 	 127.88
| 29> C 	 -86.0443 	 52.5047 	 129.504
| 30> H 	 -86.9538 	 52.8196 	 130.019
| 31> H 	 -85.904 	 53.1734 	 128.669
| 32> C 	 -85.0515 	 52.7805 	 130.689
| 33> H 	 -85.1024 	 53.947 	 131.038
| 34> H 	 -84.0679 	 52.5179 	 130.346
| 35> C 	 -85.3265 	 51.9721 	 131.988
| 36> H 	 -85.2482 	 50.8906 	 131.702
| 37> H 	 -86.2994 	 52.2153 	 132.353
| 38> H 	 -84.6308 	 52.1842 	 132.808
| 39> H 	 -90.885 	 49.1494 	 131.983
| 40> H 	 -84.3884 	 48.9866 	 126.929
| 41> *
| 42>
| 43>                          ****END OF INPUT****

CARTESIAN COORDINATES (ANGSTROEM)
---------------------------------
  S    -88.658300   48.733700  130.820000
  C    -90.232400   49.386600  131.120000
  C    -90.510400   50.575200  130.487000
  C    -89.407700   50.960100  129.662000
  C    -88.371200   50.089000  129.748000
  H    -89.271100   51.827900  129.034000
  C    -91.634400   51.559000  130.677000
  H    -92.589400   50.969800  130.548000
  H    -91.669000   52.204200  129.791000
  C    -91.532900   52.451600  131.920000
  H    -92.425800   53.078500  132.003000
  H    -91.644000   51.842100  132.839000
  C    -90.210500   53.215000  131.893000
  H    -90.074900   53.647500  130.922000
  H    -90.168000   54.069300  132.643000
  H    -89.322800   52.619600  132.020000
  S    -86.717600   48.817900  127.868000
  C    -85.130100   49.435400  127.543000
  C    -85.015800   50.711300  128.100000
  C    -86.130600   51.145200  128.882000
  C    -87.081800   50.140200  129.001000
  H    -84.203700   51.390200  127.880000
  C    -86.044300   52.504700  129.504000
  H    -86.953800   52.819600  130.019000
  H    -85.904000   53.173400  128.669000
  C    -85.051500   52.780500  130.689000
  H    -85.102400   53.947000  131.038000
  H    -84.067900   52.517900  130.346000
  C    -85.326500   51.972100  131.988000
  H    -85.248200   50.890600  131.702000
  H    -86.299400   52.215300  132.353000
  H    -84.630800   52.184200  132.808000
  H    -90.885000   49.149400  131.983000
  H    -84.388400   48.986600  126.929000

 Total Charge           Charge          ....    0
 Multiplicity           Mult            ....    1
 Number of Electrons    NEL             ....  134
 Basis Dimension        Dim             ....  322

ORBITAL ENERGIES
----------------

  NO   OCC          E(Eh)            E(eV)
   0   2.0000     -88.970110     -2420.9998
   1   2.0000     -88.965568     -2420.8762
   2   2.0000     -10.330406      -281.1046
   3   2.0000     -10.326744      -281.0050
   4   2.0000     -10.317298      -280.7480
   5   2.0000     -10.312421      -280.6152
   6   2.0000     -10.303386      -280.3694
   7   2.0000     -10.300372      -280.2874
   8   2.0000     -10.298995      -280.2499
   9   2.0000     -10.296914      -280.1933
  10   2.0000     -10.293483      -280.0999
  11   2.0000     -10.293259      -280.0938
  12   2.0000     -10.292817      -280.0818
  13   2.0000     -10.290421      -280.0166
  14   2.0000     -10.280661      -279.7510
  15   2.0000     -10.277156      -279.6556
  16   2.0000      -8.085004      -220.0041
  17   2.0000      -8.080062      -219.8697
  18   2.0000      -6.043408      -164.4495
  19   2.0000      -6.039649      -164.3472
  20   2.0000      -6.038578      -164.3181
  21   2.0000      -6.035696      -164.2397
  22   2.0000      -6.034606      -164.2100
  23   2.0000      -6.030820      -164.1070
  24   2.0000      -1.007611       -27.4185
  25   2.0000      -0.986031       -26.8313
  26   2.0000      -0.915216       -24.9043
  27   2.0000      -0.904745       -24.6194
  28   2.0000      -0.864160       -23.5150
  29   2.0000      -0.851974       -23.1834
  30   2.0000      -0.845606       -23.0101
  31   2.0000      -0.811497       -22.0820
  32   2.0000      -0.783863       -21.3300
  33   2.0000      -0.774275       -21.0691
  34   2.0000      -0.711031       -19.3481
  35   2.0000      -0.698591       -19.0096
  36   2.0000      -0.687845       -18.7172
  37   2.0000      -0.660892       -17.9838
  38   2.0000      -0.640278       -17.4228
  39   2.0000      -0.611822       -16.6485
  40   2.0000      -0.599675       -16.3180
  41   2.0000      -0.572686       -15.5836
  42   2.0000      -0.554522       -15.0893
  43   2.0000      -0.550287       -14.9741
  44   2.0000      -0.544733       -14.8229
  45   2.0000      -0.535159       -14.5624
  46   2.0000      -0.511065       -13.9068
  47   2.0000      -0.505285       -13.7495
  48   2.0000      -0.499557       -13.5936
  49   2.0000      -0.493083       -13.4175
  50   2.0000      -0.486060       -13.2264
  51   2.0000      -0.477693       -12.9987
  52   2.0000      -0.472844       -12.8667
  53   2.0000      -0.465183       -12.6583
  54   2.0000      -0.461376       -12.5547
  55   2.0000      -0.448491       -12.2041
  56   2.0000      -0.447009       -12.1637
  57   2.0000      -0.439992       -11.9728
  58   2.0000      -0.434925       -11.8349
  59   2.0000      -0.426910       -11.6168
  60   2.0000      -0.417763       -11.3679
  61   2.0000      -0.413648       -11.2559
  62   2.0000      -0.407562       -11.0903
  63   2.0000      -0.344796        -9.3824
  64   2.0000      -0.334318        -9.0972
  65   2.0000      -0.326888        -8.8951
  66   2.0000      -0.297385        -8.0923
  67   0.0000       0.034432         0.9369
  68   0.0000       0.063652         1.7321
  69   0.0000       0.108003         2.9389
  70   0.0000       0.112467         3.0604
  71   0.0000       0.130264         3.5447

MULLIKEN ATOMIC CHARGES
-----------------------
   0 S :    0.130864
   1 C :   -0.108911
   2 C :   -0.109487
   3 C :    0.034077
   4 C :   -0.179343
   5 H :    0.012205
   6 C :    0.028555
   7 H :    0.039329
   8 H :    0.024062
   9 C :   -0.029201
  10 H :    0.031651
  11 H :    0.025364
  12 C :   -0.064688
  13 H :    0.014964
  14 H :    0.043200
  15 H :    0.053398
  16 S :    0.109530
  17 C :   -0.074208
  18 C :   -0.045743
  19 C :   -0.019543
  20 C :   -0.172375
  21 H :    0.017729
  22 C :    0.072773
  23 H :    0.009190
  24 H :    0.036177
  25 C :   -0.111560
  26 H :    0.048520
  27 H :    0.022772
  28 C :   -0.059602
  29 H :    0.050378
  30 H :    0.024454
  31 H :    0.041277
  32 H :    0.052987
  33 H :    0.051208
Sum of atomic charges:   -0.0000000

LOEWDIN ATOMIC CHARGES
----------------------
   0 S :    0.418158
   1 C :   -0.209513
   2 C :   -0.066170
   3 C :   -0.058545
   4 C :   -0.192463
   5 H :    0.032944
   6 C :   -0.039419
   7 H :    0.037918
   8 H :    0.029930
   9 C :   -0.039375
  10 H :    0.026931
  11 H :    0.024674
  12 C :   -0.067386
  13 H :    0.018994
  14 H :    0.033979
  15 H :    0.026706
  16 S :    0.403033
  17 C :   -0.186093
  18 C :   -0.070469
  19 C :   -0.063706
  20 C :   -0.192750
  21 H :    0.028024
  22 C :   -0.038177
  23 H :    0.027833
  24 H :    0.035330
  25 C :   -0.040912
  26 H :    0.037987
  27 H :    0.011065
  28 C :   -0.068554
  29 H :    0.033579
  30 H :    0.017230
  31 H :    0.028893
  32 H :    0.034341
  33 H :    0.025983

  Mayer bond orders larger than 0.100000
B(  0-S ,  1-C ) :   1.1361 B(  0-S ,  4-C ) :   1.1536 B(  1-C ,  2-C ) :   1.6545
B(  1-C , 32-H ) :   0.9535 B(  2-C ,  3-C ) :   1.2053 B(  2-C ,  6-C ) :   1.0190
B(  3-C ,  4-C ) :   1.6239 B(  3-C ,  5-H ) :   0.9940 B(  4-C , 20-C ) :   0.9958
B(  6-C ,  7-H ) :   0.9369 B(  6-C ,  8-H ) :   0.9437 B(  6-C ,  9-C ) :   1.0672
B(  9-C , 10-H ) :   0.9564 B(  9-C , 11-H ) :   0.9552 B(  9-C , 12-C ) :   1.0666
B( 12-C , 13-H ) :   0.9729 B( 12-C , 14-H ) :   0.9720 B( 12-C , 15-H ) :   0.9701
B( 16-S , 17-C ) :   1.1537 B( 16-S , 20-C ) :   1.1548 B( 17-C , 18-C ) :   1.5851
B( 17-C , 20-C ) :   0.1007 B( 17-C , 33-H ) :   0.9750 B( 18-C , 19-C ) :   1.2495
B( 18-C , 21-H ) :   0.9865 B( 19-C , 20-C ) :   1.5837 B( 19-C , 22-C ) :   1.0509
B( 22-C , 23-H ) :   0.9362 B( 22-C , 24-H ) :   0.9292 B( 22-C , 25-C ) :   1.0547
B( 25-C , 26-H ) :   0.9564 B( 25-C , 27-H ) :   0.9590 B( 25-C , 28-C ) :   1.0680
B( 28-C , 29-H ) :   0.9747 B( 28-C , 30-H ) :   0.9763 B( 28-C , 31-H ) :   0.9739

Dispersion correction           -0.015996284
FINAL SINGLE POINT ENERGY     -1339.876638106777

DIPOLE MOMENT
-------------
                                X             Y             Z
Electronic contribution:      2.30470     -23.67018     -13.50643
Nuclear contribution   :     -2.35962      24.35373      13.65922
                        -----------------------------------------
Total Dipole Moment    :     -0.05491       0.68355       0.15279
                        -----------------------------------------
Magnitude (a.u.)       :      0.70257
Magnitude (Debye)      :      1.78578

Rotational constants in cm-1:     0.019186     0.009882     0.007702
Rotational constants in MHz :   575.192657   296.253278   230.901832

                             ****ORCA TERMINATED NORMALLY****
TOTAL RUN TIME: 0 days 0 hours 0 minutes 36 seconds 618 msec
