                         Program Version 4.2.1 -  RELEASE  -
|  1> ! wB97X-D3 SP def2-SVP
|  2> %pal
|  3> nprocs 16
|  4> end
|  5>
|  6> * xyz 0 1
|  7> S 	 3.26317 	 -14.9535 	 88.135
|  8> C 	 3.211 	 -13.8535 	 86.7587
|  9> C 	 4.51481 	 -13.6222 	 86.3264
| 10> C 	 5.4205 	 -14.6569 	 86.7337
| 11> C 	 4.8979 	 -15.4756 	 87.714
| 12> H 	 6.34721 	 -14.759 	 86.311
| 13> C 	 4.93164 	 -12.673 	 85.2023
| 14> H 	 5.79586 	 -12.1884 	 85.5671
| 15> H 	 4.21445 	 -11.7638 	 85.1849
| 16> C 	 5.10916 	 -13.4097 	 83.8338
| 17> H 	 5.60188 	 -12.8481 	 83.0756
| 18> H 	 5.82681 	 -14.2148 	 83.8822
| 19> C 	 3.72272 	 -13.9358 	 83.3956
| 20> H 	 3.73488 	 -14.4644 	 82.3864
| 21> H 	 3.38271 	 -14.6074 	 84.1537
| 22> H 	 2.98368 	 -13.137 	 83.4313
| 23> S 	 4.4786 	 -17.8605 	 89.0403
| 24> C 	 5.89545 	 -18.9692 	 89.4188
| 25> C 	 7.12256 	 -18.3006 	 89.1583
| 26> C 	 6.87562 	 -16.9866 	 88.6021
| 27> C 	 5.54593 	 -16.6354 	 88.3057
| 28> H 	 8.11848 	 -18.634 	 89.4166
| 29> C 	 8.12497 	 -16.1113 	 88.3163
| 30> H 	 8.94244 	 -16.2917 	 89.0855
| 31> H 	 7.84747 	 -15.0412 	 88.2647
| 32> C 	 8.83227 	 -16.445 	 86.9726
| 33> H 	 8.31958 	 -15.9555 	 86.154
| 34> H 	 8.68595 	 -17.5088 	 86.7373
| 35> C 	 10.3044 	 -16.0136 	 86.8641
| 36> H 	 10.6009 	 -16.0481 	 85.8064
| 37> H 	 11.0733 	 -16.6039 	 87.4272
| 38> H 	 10.3742 	 -14.9937 	 87.1033
| 39> H 	 2.38958 	 -13.2655 	 86.3015
| 40> H 	 5.7557 	 -19.9137 	 89.9294
| 41> *
| 42>
| 43>                          ****END OF INPUT****

CARTESIAN COORDINATES (ANGSTROEM)
---------------------------------
  S      3.263170  -14.953500   88.135000
  C      3.211000  -13.853500   86.758700
  C      4.514810  -13.622200   86.326400
  C      5.420500  -14.656900   86.733700
  C      4.897900  -15.475600   87.714000
  H      6.347210  -14.759000   86.311000
  C      4.931640  -12.673000   85.202300
  H      5.795860  -12.188400   85.567100
  H      4.214450  -11.763800   85.184900
  C      5.109160  -13.409700   83.833800
  H      5.601880  -12.848100   83.075600
  H      5.826810  -14.214800   83.882200
  C      3.722720  -13.935800   83.395600
  H      3.734880  -14.464400   82.386400
  H      3.382710  -14.607400   84.153700
  H      2.983680  -13.137000   83.431300
  S      4.478600  -17.860500   89.040300
  C      5.895450  -18.969200   89.418800
  C      7.122560  -18.300600   89.158300
  C      6.875620  -16.986600   88.602100
  C      5.545930  -16.635400   88.305700
  H      8.118480  -18.634000   89.416600
  C      8.124970  -16.111300   88.316300
  H      8.942440  -16.291700   89.085500
  H      7.847470  -15.041200   88.264700
  C      8.832270  -16.445000   86.972600
  H      8.319580  -15.955500   86.154000
  H      8.685950  -17.508800   86.737300
  C     10.304400  -16.013600   86.864100
  H     10.600900  -16.048100   85.806400
  H     11.073300  -16.603900   87.427200
  H     10.374200  -14.993700   87.103300
  H      2.389580  -13.265500   86.301500
  H      5.755700  -19.913700   89.929400

 Total Charge           Charge          ....    0
 Multiplicity           Mult            ....    1
 Number of Electrons    NEL             ....  134
 Basis Dimension        Dim             ....  322

ORBITAL ENERGIES
----------------

  NO   OCC          E(Eh)            E(eV)
   0   2.0000     -88.970383     -2421.0072
   1   2.0000     -88.966310     -2420.8964
   2   2.0000     -10.336544      -281.2717
   3   2.0000     -10.335828      -281.2522
   4   2.0000     -10.334366      -281.2124
   5   2.0000     -10.320579      -280.8372
   6   2.0000     -10.313126      -280.6344
   7   2.0000     -10.308112      -280.4980
   8   2.0000     -10.303048      -280.3602
   9   2.0000     -10.301157      -280.3087
  10   2.0000     -10.300599      -280.2936
  11   2.0000     -10.290769      -280.0261
  12   2.0000     -10.289763      -279.9987
  13   2.0000     -10.287956      -279.9495
  14   2.0000     -10.280967      -279.7593
  15   2.0000     -10.278100      -279.6813
  16   2.0000      -8.084328      -219.9857
  17   2.0000      -8.079329      -219.8497
  18   2.0000      -6.043104      -164.4412
  19   2.0000      -6.039053      -164.3310
  20   2.0000      -6.038067      -164.3042
  21   2.0000      -6.034727      -164.2133
  22   2.0000      -6.034141      -164.1973
  23   2.0000      -6.029866      -164.0810
  24   2.0000      -1.002855       -27.2891
  25   2.0000      -0.974341       -26.5132
  26   2.0000      -0.910453       -24.7747
  27   2.0000      -0.902194       -24.5499
  28   2.0000      -0.867191       -23.5975
  29   2.0000      -0.849950       -23.1283
  30   2.0000      -0.841188       -22.8899
  31   2.0000      -0.812720       -22.1152
  32   2.0000      -0.778623       -21.1874
  33   2.0000      -0.770688       -20.9715
  34   2.0000      -0.713771       -19.4227
  35   2.0000      -0.702699       -19.1214
  36   2.0000      -0.692371       -18.8404
  37   2.0000      -0.670284       -18.2394
  38   2.0000      -0.638718       -17.3804
  39   2.0000      -0.625221       -17.0131
  40   2.0000      -0.593257       -16.1434
  41   2.0000      -0.567985       -15.4556
  42   2.0000      -0.561964       -15.2918
  43   2.0000      -0.552174       -15.0254
  44   2.0000      -0.536073       -14.5873
  45   2.0000      -0.522662       -14.2224
  46   2.0000      -0.516151       -14.0452
  47   2.0000      -0.514137       -13.9904
  48   2.0000      -0.505175       -13.7465
  49   2.0000      -0.498241       -13.5578
  50   2.0000      -0.487632       -13.2691
  51   2.0000      -0.477332       -12.9889
  52   2.0000      -0.468646       -12.7525
  53   2.0000      -0.464203       -12.6316
  54   2.0000      -0.455035       -12.3821
  55   2.0000      -0.453273       -12.3342
  56   2.0000      -0.446899       -12.1607
  57   2.0000      -0.440253       -11.9799
  58   2.0000      -0.428740       -11.6666
  59   2.0000      -0.426782       -11.6133
  60   2.0000      -0.420457       -11.4412
  61   2.0000      -0.415786       -11.3141
  62   2.0000      -0.412460       -11.2236
  63   2.0000      -0.356814        -9.7094
  64   2.0000      -0.333362        -9.0712
  65   2.0000      -0.326820        -8.8932
  66   2.0000      -0.284128        -7.7315
  67   0.0000       0.011522         0.3135
  68   0.0000       0.071354         1.9416
  69   0.0000       0.087912         2.3922
  70   0.0000       0.116614         3.1732
  71   0.0000       0.124701         3.3933

MULLIKEN ATOMIC CHARGES
-----------------------
   0 S :    0.113926
   1 C :   -0.124787
   2 C :   -0.105810
   3 C :    0.033242
   4 C :   -0.082332
   5 H :   -0.046182
   6 C :    0.025785
   7 H :    0.020009
   8 H :    0.036671
   9 C :   -0.025090
  10 H :    0.019926
  11 H :    0.018059
  12 C :   -0.064072
  13 H :    0.050152
  14 H :    0.041643
  15 H :    0.020361
  16 S :    0.072572
  17 C :   -0.096945
  18 C :    0.001771
  19 C :   -0.063525
  20 C :   -0.117554
  21 H :    0.027251
  22 C :    0.012740
  23 H :    0.037698
  24 H :    0.039373
  25 C :   -0.081045
  26 H :    0.022286
  27 H :    0.029877
  28 C :   -0.044157
  29 H :    0.030132
  30 H :    0.044564
  31 H :    0.019855
  32 H :    0.063141
  33 H :    0.070466
Sum of atomic charges:   -0.0000000

LOEWDIN ATOMIC CHARGES
----------------------
   0 S :    0.389999
   1 C :   -0.200708
   2 C :   -0.059778
   3 C :   -0.050917
   4 C :   -0.178106
   5 H :    0.012374
   6 C :   -0.035737
   7 H :    0.024089
   8 H :    0.037952
   9 C :   -0.036517
  10 H :    0.019357
  11 H :    0.022383
  12 C :   -0.066331
  13 H :    0.034527
  14 H :    0.023534
  15 H :    0.020522
  16 S :    0.357486
  17 C :   -0.152829
  18 C :   -0.061215
  19 C :   -0.053366
  20 C :   -0.185297
  21 H :    0.034309
  22 C :   -0.038294
  23 H :    0.036411
  24 H :    0.030255
  25 C :   -0.046479
  26 H :    0.018586
  27 H :    0.024015
  28 C :   -0.067782
  29 H :    0.030839
  30 H :    0.029334
  31 H :    0.018042
  32 H :    0.040148
  33 H :    0.029195

  Mayer bond orders larger than 0.100000
B(  0-S ,  1-C ) :   1.1230 B(  0-S ,  4-C ) :   1.1238 B(  1-C ,  2-C ) :   1.6114
B(  1-C , 32-H ) :   0.9621 B(  2-C ,  3-C ) :   1.2185 B(  2-C ,  6-C ) :   1.0383
B(  3-C ,  4-C ) :   1.5619 B(  3-C ,  5-H ) :   1.0120 B(  4-C , 20-C ) :   1.1012
B(  6-C ,  7-H ) :   0.9351 B(  6-C ,  8-H ) :   0.9490 B(  6-C ,  9-C ) :   1.0535
B(  9-C , 10-H ) :   0.9571 B(  9-C , 11-H ) :   0.9549 B(  9-C , 12-C ) :   1.0615
B( 12-C , 13-H ) :   0.9726 B( 12-C , 14-H ) :   0.9742 B( 12-C , 15-H ) :   0.9764
B( 16-S , 17-C ) :   1.1438 B( 16-S , 20-C ) :   1.1092 B( 17-C , 18-C ) :   1.5826
B( 17-C , 20-C ) :   0.1027 B( 17-C , 33-H ) :   0.9702 B( 18-C , 19-C ) :   1.2463
B( 18-C , 21-H ) :   0.9863 B( 19-C , 20-C ) :   1.5743 B( 19-C , 22-C ) :   1.0523
B( 22-C , 23-H ) :   0.9455 B( 22-C , 24-H ) :   0.9336 B( 22-C , 25-C ) :   1.0493
B( 25-C , 26-H ) :   0.9510 B( 25-C , 27-H ) :   0.9560 B( 25-C , 28-C ) :   1.0833
B( 28-C , 29-H ) :   0.9725 B( 28-C , 30-H ) :   0.9748 B( 28-C , 31-H ) :   0.9727

Dispersion correction           -0.014630236
FINAL SINGLE POINT ENERGY     -1339.857493439935

DIPOLE MOMENT
-------------
                                X             Y             Z
Electronic contribution:    -18.65168      -9.71765      19.96358
Nuclear contribution   :     19.32811       9.91729     -20.34953
                        -----------------------------------------
Total Dipole Moment    :      0.67642       0.19964      -0.38595
                        -----------------------------------------
Magnitude (a.u.)       :      0.80397
Magnitude (Debye)      :      2.04352

Rotational constants in cm-1:     0.016753     0.009716     0.006800
Rotational constants in MHz :   502.246961   291.271214   203.845923

                             ****ORCA TERMINATED NORMALLY****
TOTAL RUN TIME: 0 days 0 hours 0 minutes 34 seconds 517 msec
