                         Program Version 4.2.1 -  RELEASE  -
|  1> ! wB97X-D3 SP def2-SVP
|  2> %pal
|  3> nprocs 16
|  4> end
|  5>
|  6> * xyz 0 1
|  7> S 	 50.3979 	 3.98664 	 89.6223
|  8> C 	 50.4372 	 5.72085 	 89.4335
|  9> C 	 50.5768 	 6.39331 	 90.6096
| 10> C 	 50.5134 	 5.44947 	 91.7491
| 11> C 	 50.4921 	 4.13007 	 91.3898
| 12> H 	 50.6111 	 5.79035 	 92.8021
| 13> C 	 50.8455 	 7.8933 	 90.7139
| 14> H 	 50.7753 	 8.13863 	 91.754
| 15> H 	 50.0467 	 8.48747 	 90.1435
| 16> C 	 52.2077 	 8.34655 	 90.1351
| 17> H 	 52.9372 	 7.74356 	 90.6516
| 18> H 	 52.3971 	 7.98486 	 89.1349
| 19> C 	 52.4819 	 9.85686 	 90.3322
| 20> H 	 53.4057 	 9.80134 	 90.9629
| 21> H 	 52.6511 	 10.5054 	 89.4532
| 22> H 	 51.5748 	 10.1947 	 90.8991
| 23> S 	 48.6683 	 2.0916 	 91.9367
| 24> C 	 49.0493 	 1.00916 	 93.1956
| 25> C 	 50.1387 	 1.28795 	 93.9547
| 26> C 	 50.769 	 2.45979 	 93.3742
| 27> C 	 50.1355 	 2.96592 	 92.26
| 28> H 	 50.4206 	 0.688434 	 94.8685
| 29> C 	 52.0262 	 3.06124 	 93.8904
| 30> H 	 51.8281 	 4.03364 	 94.3856
| 31> H 	 52.7287 	 3.39796 	 93.1247
| 32> C 	 52.8774 	 2.06797 	 94.8513
| 33> H 	 52.3475 	 1.79308 	 95.7595
| 34> H 	 53.8059 	 2.67508 	 95.0257
| 35> C 	 53.3997 	 0.937895 	 94.032
| 36> H 	 52.678 	 0.479031 	 93.3975
| 37> H 	 53.6672 	 0.0479392 	 94.6205
| 38> H 	 54.2205 	 1.26777 	 93.3244
| 39> H 	 50.4367 	 6.14511 	 88.4883
| 40> H 	 48.3961 	 0.2327 	 93.5777
| 41> *
| 42>
| 43>                          ****END OF INPUT****

CARTESIAN COORDINATES (ANGSTROEM)
---------------------------------
  S     50.397900    3.986640   89.622300
  C     50.437200    5.720850   89.433500
  C     50.576800    6.393310   90.609600
  C     50.513400    5.449470   91.749100
  C     50.492100    4.130070   91.389800
  H     50.611100    5.790350   92.802100
  C     50.845500    7.893300   90.713900
  H     50.775300    8.138630   91.754000
  H     50.046700    8.487470   90.143500
  C     52.207700    8.346550   90.135100
  H     52.937200    7.743560   90.651600
  H     52.397100    7.984860   89.134900
  C     52.481900    9.856860   90.332200
  H     53.405700    9.801340   90.962900
  H     52.651100   10.505400   89.453200
  H     51.574800   10.194700   90.899100
  S     48.668300    2.091600   91.936700
  C     49.049300    1.009160   93.195600
  C     50.138700    1.287950   93.954700
  C     50.769000    2.459790   93.374200
  C     50.135500    2.965920   92.260000
  H     50.420600    0.688434   94.868500
  C     52.026200    3.061240   93.890400
  H     51.828100    4.033640   94.385600
  H     52.728700    3.397960   93.124700
  C     52.877400    2.067970   94.851300
  H     52.347500    1.793080   95.759500
  H     53.805900    2.675080   95.025700
  C     53.399700    0.937895   94.032000
  H     52.678000    0.479031   93.397500
  H     53.667200    0.047939   94.620500
  H     54.220500    1.267770   93.324400
  H     50.436700    6.145110   88.488300
  H     48.396100    0.232700   93.577700

 Total Charge           Charge          ....    0
 Multiplicity           Mult            ....    1
 Number of Electrons    NEL             ....  134
 Basis Dimension        Dim             ....  322

ORBITAL ENERGIES
----------------

  NO   OCC          E(Eh)            E(eV)
   0   2.0000     -88.965542     -2420.8755
   1   2.0000     -88.964048     -2420.8348
   2   2.0000     -10.332737      -281.1681
   3   2.0000     -10.321969      -280.8750
   4   2.0000     -10.309674      -280.5405
   5   2.0000     -10.309251      -280.5290
   6   2.0000     -10.304271      -280.3935
   7   2.0000     -10.302842      -280.3546
   8   2.0000     -10.300323      -280.2860
   9   2.0000     -10.300181      -280.2822
  10   2.0000     -10.297354      -280.2053
  11   2.0000     -10.291453      -280.0447
  12   2.0000     -10.291067      -280.0342
  13   2.0000     -10.288313      -279.9592
  14   2.0000     -10.284810      -279.8639
  15   2.0000     -10.272605      -279.5318
  16   2.0000      -8.081289      -219.9030
  17   2.0000      -8.078760      -219.8342
  18   2.0000      -6.039658      -164.3474
  19   2.0000      -6.037361      -164.2850
  20   2.0000      -6.035803      -164.2425
  21   2.0000      -6.033304      -164.1745
  22   2.0000      -6.031981      -164.1385
  23   2.0000      -6.029397      -164.0682
  24   2.0000      -1.008045       -27.4303
  25   2.0000      -0.985786       -26.8246
  26   2.0000      -0.909658       -24.7530
  27   2.0000      -0.906388       -24.6641
  28   2.0000      -0.869298       -23.6548
  29   2.0000      -0.850082       -23.1319
  30   2.0000      -0.842750       -22.9324
  31   2.0000      -0.819501       -22.2998
  32   2.0000      -0.778088       -21.1728
  33   2.0000      -0.766902       -20.8685
  34   2.0000      -0.703874       -19.1534
  35   2.0000      -0.699794       -19.0424
  36   2.0000      -0.691921       -18.8281
  37   2.0000      -0.653198       -17.7744
  38   2.0000      -0.644979       -17.5508
  39   2.0000      -0.617594       -16.8056
  40   2.0000      -0.601443       -16.3661
  41   2.0000      -0.572530       -15.5793
  42   2.0000      -0.559024       -15.2118
  43   2.0000      -0.551909       -15.0182
  44   2.0000      -0.532638       -14.4938
  45   2.0000      -0.522089       -14.2068
  46   2.0000      -0.520057       -14.1515
  47   2.0000      -0.507499       -13.8098
  48   2.0000      -0.503352       -13.6969
  49   2.0000      -0.495161       -13.4740
  50   2.0000      -0.486753       -13.2452
  51   2.0000      -0.475571       -12.9409
  52   2.0000      -0.467234       -12.7141
  53   2.0000      -0.465973       -12.6798
  54   2.0000      -0.459694       -12.5089
  55   2.0000      -0.451409       -12.2835
  56   2.0000      -0.442668       -12.0456
  57   2.0000      -0.439316       -11.9544
  58   2.0000      -0.437459       -11.9039
  59   2.0000      -0.426761       -11.6127
  60   2.0000      -0.423653       -11.5282
  61   2.0000      -0.408350       -11.1118
  62   2.0000      -0.397940       -10.8285
  63   2.0000      -0.348792        -9.4911
  64   2.0000      -0.329567        -8.9680
  65   2.0000      -0.325279        -8.8513
  66   2.0000      -0.298931        -8.1343
  67   0.0000       0.037227         1.0130
  68   0.0000       0.070534         1.9193
  69   0.0000       0.114504         3.1158
  70   0.0000       0.120543         3.2801
  71   0.0000       0.130190         3.5427

MULLIKEN ATOMIC CHARGES
-----------------------
   0 S :    0.095822
   1 C :   -0.102438
   2 C :   -0.093200
   3 C :    0.032053
   4 C :   -0.156396
   5 H :    0.028448
   6 C :    0.048648
   7 H :    0.016306
   8 H :    0.047777
   9 C :   -0.077845
  10 H :    0.018997
  11 H :    0.019597
  12 C :   -0.069428
  13 H :    0.048296
  14 H :    0.053972
  15 H :    0.042746
  16 S :    0.130426
  17 C :   -0.073319
  18 C :   -0.062536
  19 C :   -0.050198
  20 C :   -0.143810
  21 H :    0.047387
  22 C :    0.023320
  23 H :    0.036473
  24 H :    0.028943
  25 C :   -0.082415
  26 H :    0.041863
  27 H :    0.039820
  28 C :   -0.056507
  29 H :    0.024391
  30 H :    0.029245
  31 H :    0.039631
  32 H :    0.026617
  33 H :    0.047313
Sum of atomic charges:   -0.0000000

LOEWDIN ATOMIC CHARGES
----------------------
   0 S :    0.389430
   1 C :   -0.174568
   2 C :   -0.065358
   3 C :   -0.058117
   4 C :   -0.189152
   5 H :    0.036086
   6 C :   -0.035282
   7 H :    0.023529
   8 H :    0.038661
   9 C :   -0.047036
  10 H :    0.020668
  11 H :    0.019438
  12 C :   -0.075046
  13 H :    0.038399
  14 H :    0.030527
  15 H :    0.032479
  16 S :    0.429472
  17 C :   -0.196547
  18 C :   -0.081142
  19 C :   -0.057878
  20 C :   -0.209766
  21 H :    0.047431
  22 C :   -0.038978
  23 H :    0.031759
  24 H :    0.032380
  25 C :   -0.043583
  26 H :    0.020648
  27 H :    0.035597
  28 C :   -0.077727
  29 H :    0.018028
  30 H :    0.028405
  31 H :    0.035011
  32 H :    0.013421
  33 H :    0.028813

  Mayer bond orders larger than 0.100000
B(  0-S ,  1-C ) :   1.1399 B(  0-S ,  4-C ) :   1.1333 B(  1-C ,  2-C ) :   1.6300
B(  1-C , 32-H ) :   0.9780 B(  2-C ,  3-C ) :   1.2217 B(  2-C ,  6-C ) :   1.0242
B(  3-C ,  4-C ) :   1.6122 B(  3-C ,  5-H ) :   0.9813 B(  4-C , 20-C ) :   1.0053
B(  6-C ,  7-H ) :   0.9380 B(  6-C ,  8-H ) :   0.9386 B(  6-C ,  9-C ) :   1.0673
B(  9-C , 10-H ) :   0.9636 B(  9-C , 11-H ) :   0.9569 B(  9-C , 12-C ) :   1.0404
B( 12-C , 13-H ) :   0.9805 B( 12-C , 14-H ) :   0.9778 B( 12-C , 15-H ) :   0.9795
B( 16-S , 17-C ) :   1.1701 B( 16-S , 20-C ) :   1.1317 B( 17-C , 18-C ) :   1.6356
B( 17-C , 33-H ) :   0.9521 B( 18-C , 19-C ) :   1.2245 B( 18-C , 21-H ) :   0.9791
B( 19-C , 20-C ) :   1.6379 B( 19-C , 22-C ) :   1.0495 B( 22-C , 23-H ) :   0.9261
B( 22-C , 24-H ) :   0.9329 B( 22-C , 25-C ) :   1.0745 B( 25-C , 26-H ) :   0.9561
B( 25-C , 27-H ) :   0.9583 B( 25-C , 28-C ) :   1.0699 B( 28-C , 29-H ) :   0.9735
B( 28-C , 30-H ) :   0.9700 B( 28-C , 31-H ) :   0.9718

Dispersion correction           -0.013881863
FINAL SINGLE POINT ENERGY     -1339.864339677310

DIPOLE MOMENT
-------------
                                X             Y             Z
Electronic contribution:    -19.26266     -14.47939      -8.98464
Nuclear contribution   :     19.56666      14.84349       9.32694
                        -----------------------------------------
Total Dipole Moment    :      0.30400       0.36410       0.34231
                        -----------------------------------------
Magnitude (a.u.)       :      0.58494
Magnitude (Debye)      :      1.48681

Rotational constants in cm-1:     0.021690     0.007279     0.006030
Rotational constants in MHz :   650.254896   218.211772   180.765647

                             ****ORCA TERMINATED NORMALLY****
TOTAL RUN TIME: 0 days 0 hours 0 minutes 29 seconds 409 msec
