                         Program Version 4.2.1 -  RELEASE  -
|  1> ! wB97X-D3 SP def2-SVP
|  2> %pal
|  3> nprocs 16
|  4> end
|  5>
|  6> * xyz 0 1
|  7> S 	 -113.832 	 54.6068 	 109.287
|  8> C 	 -112.832 	 53.1406 	 109.476
|  9> C 	 -112.33 	 53.0459 	 110.754
| 10> C 	 -112.712 	 54.1921 	 111.537
| 11> C 	 -113.431 	 55.185 	 110.913
| 12> H 	 -112.374 	 54.4035 	 112.499
| 13> C 	 -111.459 	 51.9843 	 111.338
| 14> H 	 -112.108 	 51.4726 	 112.055
| 15> H 	 -110.64 	 52.4942 	 111.928
| 16> C 	 -110.852 	 50.9357 	 110.407
| 17> H 	 -110.307 	 50.1076 	 110.918
| 18> H 	 -111.632 	 50.3522 	 109.875
| 19> C 	 -109.947 	 51.5925 	 109.368
| 20> H 	 -110.471 	 52.0724 	 108.613
| 21> H 	 -109.038 	 52.0065 	 109.816
| 22> H 	 -109.521 	 50.7226 	 108.916
| 23> S 	 -112.691 	 57.8484 	 110.845
| 24> C 	 -113.822 	 58.9754 	 111.573
| 25> C 	 -114.951 	 58.3466 	 112.021
| 26> C 	 -114.941 	 56.972 	 111.948
| 27> C 	 -113.765 	 56.5218 	 111.337
| 28> H 	 -115.786 	 58.9449 	 112.28
| 29> C 	 -116.175 	 56.1739 	 112.286
| 30> H 	 -116.121 	 55.2363 	 111.637
| 31> H 	 -117.057 	 56.7499 	 111.998
| 32> C 	 -116.311 	 55.6271 	 113.724
| 33> H 	 -115.384 	 55.1969 	 114.056
| 34> H 	 -116.994 	 54.8657 	 113.81
| 35> C 	 -116.524 	 56.6162 	 114.826
| 36> H 	 -115.616 	 57.1829 	 114.87
| 37> H 	 -116.678 	 56.1226 	 115.827
| 38> H 	 -117.37 	 57.251 	 114.511
| 39> H 	 -112.607 	 52.3901 	 108.745
| 40> H 	 -113.705 	 60.0869 	 111.64
| 41> *
| 42>
| 43>                          ****END OF INPUT****

CARTESIAN COORDINATES (ANGSTROEM)
---------------------------------
  S    -113.832000   54.606800  109.287000
  C    -112.832000   53.140600  109.476000
  C    -112.330000   53.045900  110.754000
  C    -112.712000   54.192100  111.537000
  C    -113.431000   55.185000  110.913000
  H    -112.374000   54.403500  112.499000
  C    -111.459000   51.984300  111.338000
  H    -112.108000   51.472600  112.055000
  H    -110.640000   52.494200  111.928000
  C    -110.852000   50.935700  110.407000
  H    -110.307000   50.107600  110.918000
  H    -111.632000   50.352200  109.875000
  C    -109.947000   51.592500  109.368000
  H    -110.471000   52.072400  108.613000
  H    -109.038000   52.006500  109.816000
  H    -109.521000   50.722600  108.916000
  S    -112.691000   57.848400  110.845000
  C    -113.822000   58.975400  111.573000
  C    -114.951000   58.346600  112.021000
  C    -114.941000   56.972000  111.948000
  C    -113.765000   56.521800  111.337000
  H    -115.786000   58.944900  112.280000
  C    -116.175000   56.173900  112.286000
  H    -116.121000   55.236300  111.637000
  H    -117.057000   56.749900  111.998000
  C    -116.311000   55.627100  113.724000
  H    -115.384000   55.196900  114.056000
  H    -116.994000   54.865700  113.810000
  C    -116.524000   56.616200  114.826000
  H    -115.616000   57.182900  114.870000
  H    -116.678000   56.122600  115.827000
  H    -117.370000   57.251000  114.511000
  H    -112.607000   52.390100  108.745000
  H    -113.705000   60.086900  111.640000

 Total Charge           Charge          ....    0
 Multiplicity           Mult            ....    1
 Number of Electrons    NEL             ....  134
 Basis Dimension        Dim             ....  322

ORBITAL ENERGIES
----------------

  NO   OCC          E(Eh)            E(eV)
   0   2.0000     -88.970858     -2421.0201
   1   2.0000     -88.960439     -2420.7366
   2   2.0000     -10.326990      -281.0117
   3   2.0000     -10.325890      -280.9817
   4   2.0000     -10.319718      -280.8138
   5   2.0000     -10.313258      -280.6380
   6   2.0000     -10.300907      -280.3019
   7   2.0000     -10.299829      -280.2726
   8   2.0000     -10.296850      -280.1915
   9   2.0000     -10.295265      -280.1484
  10   2.0000     -10.292651      -280.0773
  11   2.0000     -10.287731      -279.9434
  12   2.0000     -10.283759      -279.8353
  13   2.0000     -10.273286      -279.5503
  14   2.0000     -10.271189      -279.4933
  15   2.0000     -10.269122      -279.4370
  16   2.0000      -8.084893      -220.0011
  17   2.0000      -8.074320      -219.7134
  18   2.0000      -6.043368      -164.4484
  19   2.0000      -6.039521      -164.3437
  20   2.0000      -6.035702      -164.2398
  21   2.0000      -6.033036      -164.1673
  22   2.0000      -6.028885      -164.0543
  23   2.0000      -6.024957      -163.9474
  24   2.0000      -1.005362       -27.3573
  25   2.0000      -0.982013       -26.7219
  26   2.0000      -0.915385       -24.9089
  27   2.0000      -0.911655       -24.8074
  28   2.0000      -0.869301       -23.6549
  29   2.0000      -0.857824       -23.3426
  30   2.0000      -0.846347       -23.0303
  31   2.0000      -0.813209       -22.1285
  32   2.0000      -0.786384       -21.3986
  33   2.0000      -0.773755       -21.0549
  34   2.0000      -0.709891       -19.3171
  35   2.0000      -0.703414       -19.1409
  36   2.0000      -0.688490       -18.7348
  37   2.0000      -0.660625       -17.9765
  38   2.0000      -0.640086       -17.4176
  39   2.0000      -0.609260       -16.5788
  40   2.0000      -0.593775       -16.1574
  41   2.0000      -0.580431       -15.7943
  42   2.0000      -0.557161       -15.1611
  43   2.0000      -0.555937       -15.1278
  44   2.0000      -0.548429       -14.9235
  45   2.0000      -0.541420       -14.7328
  46   2.0000      -0.521555       -14.1922
  47   2.0000      -0.514755       -14.0072
  48   2.0000      -0.502164       -13.6646
  49   2.0000      -0.494598       -13.4587
  50   2.0000      -0.488531       -13.2936
  51   2.0000      -0.479115       -13.0374
  52   2.0000      -0.475017       -12.9259
  53   2.0000      -0.466340       -12.6898
  54   2.0000      -0.459510       -12.5039
  55   2.0000      -0.445382       -12.1194
  56   2.0000      -0.440021       -11.9736
  57   2.0000      -0.436115       -11.8673
  58   2.0000      -0.430380       -11.7112
  59   2.0000      -0.421349       -11.4655
  60   2.0000      -0.420247       -11.4355
  61   2.0000      -0.411841       -11.2068
  62   2.0000      -0.411079       -11.1860
  63   2.0000      -0.339917        -9.2496
  64   2.0000      -0.325370        -8.8538
  65   2.0000      -0.316775        -8.6199
  66   2.0000      -0.310956        -8.4616
  67   0.0000       0.039948         1.0871
  68   0.0000       0.051288         1.3956
  69   0.0000       0.110093         2.9958
  70   0.0000       0.119975         3.2647
  71   0.0000       0.126416         3.4400

MULLIKEN ATOMIC CHARGES
-----------------------
   0 S :    0.099762
   1 C :   -0.122867
   2 C :   -0.088903
   3 C :    0.068986
   4 C :   -0.185277
   5 H :   -0.020410
   6 C :    0.073671
   7 H :    0.041575
   8 H :    0.043189
   9 C :   -0.122516
  10 H :    0.033575
  11 H :    0.025792
  12 C :    0.001840
  13 H :    0.027442
  14 H :    0.034923
  15 H :    0.008067
  16 S :    0.133338
  17 C :   -0.107061
  18 C :   -0.035774
  19 C :    0.020538
  20 C :   -0.197261
  21 H :    0.004059
  22 C :    0.047490
  23 H :    0.042211
  24 H :    0.032805
  25 C :   -0.020326
  26 H :    0.008174
  27 H :    0.009100
  28 C :   -0.063882
  29 H :    0.030397
  30 H :    0.044876
  31 H :    0.023618
  32 H :    0.038692
  33 H :    0.070158
Sum of atomic charges:   -0.0000000

LOEWDIN ATOMIC CHARGES
----------------------
   0 S :    0.374717
   1 C :   -0.187185
   2 C :   -0.063210
   3 C :   -0.048797
   4 C :   -0.191731
   5 H :    0.018762
   6 C :   -0.039594
   7 H :    0.037445
   8 H :    0.039589
   9 C :   -0.048677
  10 H :    0.030981
  11 H :    0.024407
  12 C :   -0.060982
  13 H :    0.015155
  14 H :    0.031870
  15 H :    0.026704
  16 S :    0.409672
  17 C :   -0.186847
  18 C :   -0.075158
  19 C :   -0.050975
  20 C :   -0.201083
  21 H :    0.027176
  22 C :   -0.026930
  23 H :    0.043715
  24 H :    0.031136
  25 C :   -0.038878
  26 H :    0.024305
  27 H :    0.011129
  28 C :   -0.065553
  29 H :    0.021150
  30 H :    0.033993
  31 H :    0.020001
  32 H :    0.023370
  33 H :    0.040324

  Mayer bond orders larger than 0.100000
B(  0-S ,  1-C ) :   1.1207 B(  0-S ,  4-C ) :   1.1193 B(  1-C ,  2-C ) :   1.6430
B(  1-C , 32-H ) :   0.9589 B(  2-C ,  3-C ) :   1.2157 B(  2-C ,  6-C ) :   1.0024
B(  3-C ,  4-C ) :   1.6276 B(  3-C ,  5-H ) :   1.0014 B(  4-C , 20-C ) :   1.0333
B(  6-C ,  7-H ) :   0.9301 B(  6-C ,  8-H ) :   0.9440 B(  6-C ,  9-C ) :   1.0822
B(  9-C , 10-H ) :   0.9560 B(  9-C , 11-H ) :   0.9479 B(  9-C , 12-C ) :   1.0844
B( 12-C , 13-H ) :   0.9746 B( 12-C , 14-H ) :   0.9713 B( 12-C , 15-H ) :   0.9652
B( 16-S , 17-C ) :   1.1564 B( 16-S , 20-C ) :   1.1550 B( 17-C , 18-C ) :   1.6049
B( 17-C , 20-C ) :   0.1089 B( 17-C , 33-H ) :   0.9582 B( 18-C , 19-C ) :   1.2625
B( 18-C , 21-H ) :   0.9917 B( 19-C , 20-C ) :   1.5707 B( 19-C , 22-C ) :   1.0341
B( 22-C , 23-H ) :   0.9201 B( 22-C , 24-H ) :   0.9458 B( 22-C , 25-C ) :   1.0741
B( 25-C , 26-H ) :   0.9509 B( 25-C , 27-H ) :   0.9566 B( 25-C , 28-C ) :   1.0764
B( 28-C , 29-H ) :   0.9783 B( 28-C , 30-H ) :   0.9716 B( 28-C , 31-H ) :   0.9750

Dispersion correction           -0.014398579
FINAL SINGLE POINT ENERGY     -1339.863818799343

DIPOLE MOMENT
-------------
                                X             Y             Z
Electronic contribution:      0.59118      15.22923     -11.59974
Nuclear contribution   :     -0.54838     -15.54552      11.94013
                        -----------------------------------------
Total Dipole Moment    :      0.04280      -0.31629       0.34040
                        -----------------------------------------
Magnitude (a.u.)       :      0.46663
Magnitude (Debye)      :      1.18608

Rotational constants in cm-1:     0.023029     0.007461     0.006471
Rotational constants in MHz :   690.406057   223.665443   193.988249

                             ****ORCA TERMINATED NORMALLY****
TOTAL RUN TIME: 0 days 0 hours 0 minutes 48 seconds 895 msec
