                         Program Version 4.2.1 -  RELEASE  -
|  1> ! wB97X-D3 SP def2-SVP
|  2> %pal
|  3> nprocs 16
|  4> end
|  5>
|  6> * xyz 0 1
|  7> S 	 -42.0129 	 26.1716 	 88.1936
|  8> C 	 -42.0548 	 27.7726 	 88.8795
|  9> C 	 -42.9629 	 28.615 	 88.2161
| 10> C 	 -43.5678 	 27.932 	 87.105
| 11> C 	 -43.249 	 26.5865 	 87.0269
| 12> H 	 -44.1302 	 28.4759 	 86.3769
| 13> C 	 -43.1459 	 30.0941 	 88.3247
| 14> H 	 -42.9445 	 30.5636 	 87.3499
| 15> H 	 -42.3851 	 30.5237 	 88.9893
| 16> C 	 -44.5649 	 30.5465 	 88.8341
| 17> H 	 -45.3252 	 30.4417 	 88.0309
| 18> H 	 -44.9511 	 29.8875 	 89.6361
| 19> C 	 -44.5569 	 31.9466 	 89.461
| 20> H 	 -44.1439 	 32.5555 	 88.6949
| 21> H 	 -45.5702 	 32.1468 	 89.7976
| 22> H 	 -43.8604 	 31.9107 	 90.2788
| 23> S 	 -45.1787 	 24.7733 	 86.2693
| 24> C 	 -45.0976 	 24.3436 	 84.5834
| 25> C 	 -43.9563 	 24.7535 	 83.9947
| 26> C 	 -43.0915 	 25.5008 	 84.8071
| 27> C 	 -43.6479 	 25.6522 	 86.0283
| 28> H 	 -43.8092 	 24.4771 	 83.0035
| 29> C 	 -41.7556 	 26.082 	 84.4209
| 30> H 	 -41.2415 	 25.4951 	 83.7267
| 31> H 	 -41.0824 	 26.1128 	 85.3169
| 32> C 	 -41.7906 	 27.3549 	 83.6231
| 33> H 	 -40.7316 	 27.5707 	 83.5087
| 34> H 	 -42.2588 	 28.1588 	 84.2004
| 35> C 	 -42.2873 	 27.3257 	 82.1904
| 36> H 	 -41.6792 	 26.7379 	 81.4367
| 37> H 	 -42.3432 	 28.4131 	 81.9218
| 38> H 	 -43.3102 	 26.9177 	 82.1645
| 39> H 	 -41.4153 	 28.0469 	 89.6823
| 40> H 	 -45.8897 	 23.7371 	 84.1535
| 41> *
| 42>
| 43>                          ****END OF INPUT****

CARTESIAN COORDINATES (ANGSTROEM)
---------------------------------
  S    -42.012900   26.171600   88.193600
  C    -42.054800   27.772600   88.879500
  C    -42.962900   28.615000   88.216100
  C    -43.567800   27.932000   87.105000
  C    -43.249000   26.586500   87.026900
  H    -44.130200   28.475900   86.376900
  C    -43.145900   30.094100   88.324700
  H    -42.944500   30.563600   87.349900
  H    -42.385100   30.523700   88.989300
  C    -44.564900   30.546500   88.834100
  H    -45.325200   30.441700   88.030900
  H    -44.951100   29.887500   89.636100
  C    -44.556900   31.946600   89.461000
  H    -44.143900   32.555500   88.694900
  H    -45.570200   32.146800   89.797600
  H    -43.860400   31.910700   90.278800
  S    -45.178700   24.773300   86.269300
  C    -45.097600   24.343600   84.583400
  C    -43.956300   24.753500   83.994700
  C    -43.091500   25.500800   84.807100
  C    -43.647900   25.652200   86.028300
  H    -43.809200   24.477100   83.003500
  C    -41.755600   26.082000   84.420900
  H    -41.241500   25.495100   83.726700
  H    -41.082400   26.112800   85.316900
  C    -41.790600   27.354900   83.623100
  H    -40.731600   27.570700   83.508700
  H    -42.258800   28.158800   84.200400
  C    -42.287300   27.325700   82.190400
  H    -41.679200   26.737900   81.436700
  H    -42.343200   28.413100   81.921800
  H    -43.310200   26.917700   82.164500
  H    -41.415300   28.046900   89.682300
  H    -45.889700   23.737100   84.153500

 Total Charge           Charge          ....    0
 Multiplicity           Mult            ....    1
 Number of Electrons    NEL             ....  134
 Basis Dimension        Dim             ....  322

ORBITAL ENERGIES
----------------

  NO   OCC          E(Eh)            E(eV)
   0   2.0000     -88.964869     -2420.8572
   1   2.0000     -88.961157     -2420.7562
   2   2.0000     -10.321764      -280.8695
   3   2.0000     -10.314616      -280.6750
   4   2.0000     -10.313299      -280.6391
   5   2.0000     -10.311922      -280.6017
   6   2.0000     -10.300594      -280.2934
   7   2.0000     -10.295654      -280.1590
   8   2.0000     -10.295255      -280.1481
   9   2.0000     -10.290562      -280.0204
  10   2.0000     -10.288358      -279.9605
  11   2.0000     -10.285734      -279.8890
  12   2.0000     -10.284907      -279.8666
  13   2.0000     -10.282333      -279.7965
  14   2.0000     -10.281075      -279.7623
  15   2.0000     -10.274241      -279.5763
  16   2.0000      -8.079563      -219.8561
  17   2.0000      -8.076170      -219.7638
  18   2.0000      -6.037923      -164.3002
  19   2.0000      -6.034483      -164.2066
  20   2.0000      -6.034085      -164.1958
  21   2.0000      -6.030894      -164.1090
  22   2.0000      -6.030484      -164.0978
  23   2.0000      -6.026875      -163.9996
  24   2.0000      -1.009431       -27.4680
  25   2.0000      -0.983743       -26.7690
  26   2.0000      -0.916376       -24.9359
  27   2.0000      -0.909020       -24.7357
  28   2.0000      -0.871587       -23.7171
  29   2.0000      -0.851962       -23.1831
  30   2.0000      -0.851025       -23.1576
  31   2.0000      -0.812248       -22.1024
  32   2.0000      -0.787461       -21.4279
  33   2.0000      -0.771177       -20.9848
  34   2.0000      -0.705870       -19.2077
  35   2.0000      -0.693588       -18.8735
  36   2.0000      -0.685727       -18.6596
  37   2.0000      -0.664290       -18.0762
  38   2.0000      -0.645299       -17.5595
  39   2.0000      -0.621758       -16.9189
  40   2.0000      -0.605121       -16.4662
  41   2.0000      -0.569609       -15.4998
  42   2.0000      -0.559123       -15.2145
  43   2.0000      -0.551374       -15.0037
  44   2.0000      -0.547807       -14.9066
  45   2.0000      -0.534037       -14.5319
  46   2.0000      -0.517012       -14.0686
  47   2.0000      -0.508982       -13.8501
  48   2.0000      -0.505743       -13.7620
  49   2.0000      -0.496316       -13.5054
  50   2.0000      -0.489522       -13.3206
  51   2.0000      -0.485206       -13.2031
  52   2.0000      -0.469901       -12.7867
  53   2.0000      -0.462347       -12.5811
  54   2.0000      -0.461888       -12.5686
  55   2.0000      -0.443569       -12.0701
  56   2.0000      -0.442470       -12.0402
  57   2.0000      -0.437215       -11.8972
  58   2.0000      -0.434604       -11.8262
  59   2.0000      -0.427308       -11.6276
  60   2.0000      -0.421294       -11.4640
  61   2.0000      -0.413267       -11.2456
  62   2.0000      -0.408684       -11.1209
  63   2.0000      -0.337372        -9.1804
  64   2.0000      -0.327195        -8.9034
  65   2.0000      -0.315461        -8.5841
  66   2.0000      -0.309578        -8.4241
  67   0.0000       0.047612         1.2956
  68   0.0000       0.055413         1.5079
  69   0.0000       0.106969         2.9108
  70   0.0000       0.114309         3.1105
  71   0.0000       0.132091         3.5944

MULLIKEN ATOMIC CHARGES
-----------------------
   0 S :    0.109697
   1 C :   -0.118748
   2 C :   -0.068118
   3 C :    0.053615
   4 C :   -0.177839
   5 H :    0.008491
   6 C :    0.042085
   7 H :    0.038568
   8 H :    0.012205
   9 C :   -0.122557
  10 H :    0.032609
  11 H :    0.033644
  12 C :   -0.011967
  13 H :    0.025148
  14 H :    0.043834
  15 H :    0.027121
  16 S :    0.109439
  17 C :   -0.096721
  18 C :   -0.013611
  19 C :    0.020360
  20 C :   -0.205346
  21 H :   -0.013181
  22 C :    0.133762
  23 H :   -0.010294
  24 H :    0.032307
  25 C :   -0.072956
  26 H :    0.024771
  27 H :    0.027011
  28 C :   -0.082012
  29 H :    0.043875
  30 H :    0.046341
  31 H :    0.035365
  32 H :    0.037437
  33 H :    0.055668
Sum of atomic charges:   -0.0000000

LOEWDIN ATOMIC CHARGES
----------------------
   0 S :    0.413533
   1 C :   -0.196082
   2 C :   -0.062467
   3 C :   -0.049728
   4 C :   -0.197941
   5 H :    0.026939
   6 C :   -0.036281
   7 H :    0.035301
   8 H :    0.027478
   9 C :   -0.044244
  10 H :    0.021251
  11 H :    0.024903
  12 C :   -0.055594
  13 H :    0.020041
  14 H :    0.030059
  15 H :    0.022181
  16 S :    0.389925
  17 C :   -0.175621
  18 C :   -0.069588
  19 C :   -0.047385
  20 C :   -0.196436
  21 H :    0.020381
  22 C :   -0.031334
  23 H :    0.023819
  24 H :    0.036269
  25 C :   -0.042048
  26 H :    0.027826
  27 H :    0.021628
  28 C :   -0.074432
  29 H :    0.030071
  30 H :    0.037644
  31 H :    0.022875
  32 H :    0.019046
  33 H :    0.028010

  Mayer bond orders larger than 0.100000
B(  0-S ,  1-C ) :   1.1504 B(  0-S ,  4-C ) :   1.1545 B(  1-C ,  2-C ) :   1.5906
B(  1-C , 32-H ) :   0.9739 B(  2-C ,  3-C ) :   1.2428 B(  2-C ,  6-C ) :   1.0422
B(  3-C ,  4-C ) :   1.5856 B(  3-C ,  5-H ) :   0.9974 B(  4-C , 20-C ) :   1.0067
B(  6-C ,  7-H ) :   0.9384 B(  6-C ,  8-H ) :   0.9461 B(  6-C ,  9-C ) :   1.0388
B(  9-C , 10-H ) :   0.9560 B(  9-C , 11-H ) :   0.9632 B(  9-C , 12-C ) :   1.0802
B( 12-C , 13-H ) :   0.9755 B( 12-C , 14-H ) :   0.9743 B( 12-C , 15-H ) :   0.9768
B( 16-S , 17-C ) :   1.1474 B( 16-S , 20-C ) :   1.1367 B( 17-C , 18-C ) :   1.6275
B( 17-C , 33-H ) :   0.9676 B( 18-C , 19-C ) :   1.2072 B( 18-C , 21-H ) :   1.0022
B( 19-C , 20-C ) :   1.6354 B( 19-C , 22-C ) :   1.0503 B( 22-C , 23-H ) :   0.9191
B( 22-C , 24-H ) :   0.9208 B( 22-C , 25-C ) :   1.0758 B( 25-C , 26-H ) :   0.9503
B( 25-C , 27-H ) :   0.9514 B( 25-C , 28-C ) :   1.0826 B( 28-C , 29-H ) :   0.9711
B( 28-C , 30-H ) :   0.9707 B( 28-C , 31-H ) :   0.9716

Dispersion correction           -0.014737325
FINAL SINGLE POINT ENERGY     -1339.876700620914

DIPOLE MOMENT
-------------
                                X             Y             Z
Electronic contribution:     -2.77703     -23.71189       7.56859
Nuclear contribution   :      2.93822      24.20082      -7.96464
                        -----------------------------------------
Total Dipole Moment    :      0.16119       0.48892      -0.39606
                        -----------------------------------------
Magnitude (a.u.)       :      0.64953
Magnitude (Debye)      :      1.65097

Rotational constants in cm-1:     0.018872     0.008015     0.007301
Rotational constants in MHz :   565.758266   240.278486   218.892362

                             ****ORCA TERMINATED NORMALLY****
TOTAL RUN TIME: 0 days 0 hours 0 minutes 28 seconds 657 msec
