                         Program Version 4.2.1 -  RELEASE  -
|  1> ! wB97X-D3 SP def2-SVP
|  2> %pal
|  3> nprocs 16
|  4> end
|  5>
|  6> * xyz 0 1
|  7> S 	 -37.6079 	 72.515 	 152.884
|  8> C 	 -37.0513 	 74.0993 	 152.275
|  9> C 	 -35.8128 	 74.4632 	 152.696
| 10> C 	 -35.1724 	 73.3809 	 153.469
| 11> C 	 -35.9933 	 72.2559 	 153.58
| 12> H 	 -34.1059 	 73.3431 	 153.774
| 13> C 	 -35.1694 	 75.7989 	 152.409
| 14> H 	 -34.2307 	 75.9189 	 152.938
| 15> H 	 -35.7147 	 76.6252 	 152.912
| 16> C 	 -34.8892 	 76.0785 	 150.963
| 17> H 	 -34.2731 	 75.2501 	 150.563
| 18> H 	 -35.8406 	 76.0716 	 150.35
| 19> C 	 -34.0296 	 77.3352 	 150.831
| 20> H 	 -32.9426 	 77.2111 	 151.075
| 21> H 	 -34.0337 	 77.6984 	 149.804
| 22> H 	 -34.4861 	 78.1209 	 151.39
| 23> S 	 -34.5247 	 70.0704 	 152.813
| 24> C 	 -34.2505 	 68.7521 	 153.902
| 25> C 	 -35.0675 	 68.9123 	 155.003
| 26> C 	 -35.8006 	 70.1071 	 155.091
| 27> C 	 -35.5465 	 70.8977 	 153.94
| 28> H 	 -35.0371 	 68.209 	 155.802
| 29> C 	 -36.5419 	 70.5403 	 156.298
| 30> H 	 -36.5587 	 69.7784 	 157.121
| 31> H 	 -37.6147 	 70.7633 	 156.201
| 32> C 	 -35.9489 	 71.7208 	 157.031
| 33> H 	 -35.5787 	 72.5677 	 156.391
| 34> H 	 -34.9939 	 71.3249 	 157.435
| 35> C 	 -36.844 	 72.3216 	 158.132
| 36> H 	 -36.2629 	 73.0926 	 158.665
| 37> H 	 -37.2846 	 71.602 	 158.901
| 38> H 	 -37.7525 	 72.7521 	 157.709
| 39> H 	 -37.6806 	 74.7128 	 151.619
| 40> H 	 -33.6954 	 67.8684 	 153.752
| 41> *
| 42>
| 43>                          ****END OF INPUT****

CARTESIAN COORDINATES (ANGSTROEM)
---------------------------------
  S    -37.607900   72.515000  152.884000
  C    -37.051300   74.099300  152.275000
  C    -35.812800   74.463200  152.696000
  C    -35.172400   73.380900  153.469000
  C    -35.993300   72.255900  153.580000
  H    -34.105900   73.343100  153.774000
  C    -35.169400   75.798900  152.409000
  H    -34.230700   75.918900  152.938000
  H    -35.714700   76.625200  152.912000
  C    -34.889200   76.078500  150.963000
  H    -34.273100   75.250100  150.563000
  H    -35.840600   76.071600  150.350000
  C    -34.029600   77.335200  150.831000
  H    -32.942600   77.211100  151.075000
  H    -34.033700   77.698400  149.804000
  H    -34.486100   78.120900  151.390000
  S    -34.524700   70.070400  152.813000
  C    -34.250500   68.752100  153.902000
  C    -35.067500   68.912300  155.003000
  C    -35.800600   70.107100  155.091000
  C    -35.546500   70.897700  153.940000
  H    -35.037100   68.209000  155.802000
  C    -36.541900   70.540300  156.298000
  H    -36.558700   69.778400  157.121000
  H    -37.614700   70.763300  156.201000
  C    -35.948900   71.720800  157.031000
  H    -35.578700   72.567700  156.391000
  H    -34.993900   71.324900  157.435000
  C    -36.844000   72.321600  158.132000
  H    -36.262900   73.092600  158.665000
  H    -37.284600   71.602000  158.901000
  H    -37.752500   72.752100  157.709000
  H    -37.680600   74.712800  151.619000
  H    -33.695400   67.868400  153.752000

 Total Charge           Charge          ....    0
 Multiplicity           Mult            ....    1
 Number of Electrons    NEL             ....  134
 Basis Dimension        Dim             ....  322

ORBITAL ENERGIES
----------------

  NO   OCC          E(Eh)            E(eV)
   0   2.0000     -88.968338     -2420.9516
   1   2.0000     -88.966334     -2420.8970
   2   2.0000     -10.332830      -281.1706
   3   2.0000     -10.326655      -281.0026
   4   2.0000     -10.316544      -280.7274
   5   2.0000     -10.311515      -280.5906
   6   2.0000     -10.304791      -280.4076
   7   2.0000     -10.304290      -280.3940
   8   2.0000     -10.301631      -280.3216
   9   2.0000     -10.291137      -280.0361
  10   2.0000     -10.291008      -280.0326
  11   2.0000     -10.289983      -280.0047
  12   2.0000     -10.287083      -279.9258
  13   2.0000     -10.283548      -279.8296
  14   2.0000     -10.281912      -279.7850
  15   2.0000     -10.279965      -279.7321
  16   2.0000      -8.083224      -219.9557
  17   2.0000      -8.080211      -219.8737
  18   2.0000      -6.041574      -164.3996
  19   2.0000      -6.038790      -164.3238
  20   2.0000      -6.037515      -164.2891
  21   2.0000      -6.034989      -164.2204
  22   2.0000      -6.034331      -164.2025
  23   2.0000      -6.030788      -164.1061
  24   2.0000      -1.004689       -27.3390
  25   2.0000      -0.980132       -26.6707
  26   2.0000      -0.916524       -24.9399
  27   2.0000      -0.910490       -24.7757
  28   2.0000      -0.867665       -23.6104
  29   2.0000      -0.849341       -23.1117
  30   2.0000      -0.843111       -22.9422
  31   2.0000      -0.811146       -22.0724
  32   2.0000      -0.781879       -21.2760
  33   2.0000      -0.770250       -20.9596
  34   2.0000      -0.704659       -19.1747
  35   2.0000      -0.700018       -19.0484
  36   2.0000      -0.685325       -18.6486
  37   2.0000      -0.661387       -17.9973
  38   2.0000      -0.639749       -17.4085
  39   2.0000      -0.615121       -16.7383
  40   2.0000      -0.603280       -16.4161
  41   2.0000      -0.573553       -15.6072
  42   2.0000      -0.561414       -15.2769
  43   2.0000      -0.554410       -15.0863
  44   2.0000      -0.524768       -14.2797
  45   2.0000      -0.520001       -14.1500
  46   2.0000      -0.516434       -14.0529
  47   2.0000      -0.512963       -13.9584
  48   2.0000      -0.503506       -13.7011
  49   2.0000      -0.498576       -13.5669
  50   2.0000      -0.488724       -13.2989
  51   2.0000      -0.477787       -13.0012
  52   2.0000      -0.465396       -12.6641
  53   2.0000      -0.462084       -12.5740
  54   2.0000      -0.458863       -12.4863
  55   2.0000      -0.447321       -12.1722
  56   2.0000      -0.441641       -12.0177
  57   2.0000      -0.435497       -11.8505
  58   2.0000      -0.433926       -11.8077
  59   2.0000      -0.429294       -11.6817
  60   2.0000      -0.427158       -11.6236
  61   2.0000      -0.411255       -11.1908
  62   2.0000      -0.401626       -10.9288
  63   2.0000      -0.337367        -9.1802
  64   2.0000      -0.328657        -8.9432
  65   2.0000      -0.325033        -8.8446
  66   2.0000      -0.303479        -8.2581
  67   0.0000       0.037421         1.0183
  68   0.0000       0.053519         1.4563
  69   0.0000       0.105249         2.8640
  70   0.0000       0.119964         3.2644
  71   0.0000       0.129641         3.5277

MULLIKEN ATOMIC CHARGES
-----------------------
   0 S :    0.108820
   1 C :   -0.137731
   2 C :   -0.070490
   3 C :    0.036961
   4 C :   -0.167060
   5 H :    0.036965
   6 C :    0.063004
   7 H :    0.003465
   8 H :    0.037248
   9 C :   -0.096396
  10 H :    0.035697
  11 H :    0.039419
  12 C :   -0.045095
  13 H :    0.049321
  14 H :    0.028336
  15 H :    0.021297
  16 S :    0.139255
  17 C :   -0.077491
  18 C :   -0.036658
  19 C :    0.038670
  20 C :   -0.200720
  21 H :    0.001232
  22 C :    0.048458
  23 H :    0.020618
  24 H :    0.026997
  25 C :   -0.105053
  26 H :    0.043450
  27 H :    0.020025
  28 C :   -0.066286
  29 H :    0.042798
  30 H :    0.032133
  31 H :    0.034436
  32 H :    0.052330
  33 H :    0.042047
Sum of atomic charges:   -0.0000000

LOEWDIN ATOMIC CHARGES
----------------------
   0 S :    0.376952
   1 C :   -0.178801
   2 C :   -0.062642
   3 C :   -0.057460
   4 C :   -0.191478
   5 H :    0.039840
   6 C :   -0.042302
   7 H :    0.028389
   8 H :    0.035327
   9 C :   -0.045129
  10 H :    0.030033
  11 H :    0.027598
  12 C :   -0.068524
  13 H :    0.034247
  14 H :    0.027504
  15 H :    0.019274
  16 S :    0.441222
  17 C :   -0.195145
  18 C :   -0.066121
  19 C :   -0.056763
  20 C :   -0.208999
  21 H :    0.023810
  22 C :   -0.043466
  23 H :    0.036272
  24 H :    0.030479
  25 C :   -0.048660
  26 H :    0.028992
  27 H :    0.021910
  28 C :   -0.073675
  29 H :    0.030984
  30 H :    0.028297
  31 H :    0.024672
  32 H :    0.028324
  33 H :    0.025039

  Mayer bond orders larger than 0.100000
B(  0-S ,  1-C ) :   1.1198 B(  0-S ,  4-C ) :   1.1366 B(  1-C ,  2-C ) :   1.6630
B(  1-C , 32-H ) :   0.9662 B(  2-C ,  3-C ) :   1.1948 B(  2-C ,  6-C ) :   1.0189
B(  3-C ,  4-C ) :   1.6122 B(  3-C ,  5-H ) :   0.9847 B(  4-C , 20-C ) :   1.0159
B(  6-C ,  7-H ) :   0.9381 B(  6-C ,  8-H ) :   0.9326 B(  6-C ,  9-C ) :   1.0638
B(  9-C , 10-H ) :   0.9543 B(  9-C , 11-H ) :   0.9552 B(  9-C , 12-C ) :   1.0840
B( 12-C , 13-H ) :   0.9732 B( 12-C , 14-H ) :   0.9713 B( 12-C , 15-H ) :   0.9729
B( 16-S , 17-C ) :   1.1651 B( 16-S , 20-C ) :   1.1838 B( 17-C , 18-C ) :   1.5720
B( 17-C , 20-C ) :   0.1076 B( 17-C , 33-H ) :   0.9730 B( 18-C , 19-C ) :   1.3031
B( 18-C , 21-H ) :   0.9870 B( 19-C , 20-C ) :   1.5190 B( 19-C , 22-C ) :   1.0527
B( 22-C , 23-H ) :   0.9371 B( 22-C , 24-H ) :   0.9320 B( 22-C , 25-C ) :   1.0456
B( 25-C , 26-H ) :   0.9551 B( 25-C , 27-H ) :   0.9540 B( 25-C , 28-C ) :   1.0774
B( 28-C , 29-H ) :   0.9736 B( 28-C , 30-H ) :   0.9735 B( 28-C , 31-H ) :   0.9726

Dispersion correction           -0.014167642
FINAL SINGLE POINT ENERGY     -1339.882897570943

DIPOLE MOMENT
-------------
                                X             Y             Z
Electronic contribution:     -3.89672     -19.17457      -9.05464
Nuclear contribution   :      4.17058      19.51926       9.16706
                        -----------------------------------------
Total Dipole Moment    :      0.27386       0.34468       0.11242
                        -----------------------------------------
Magnitude (a.u.)       :      0.45436
Magnitude (Debye)      :      1.15489

Rotational constants in cm-1:     0.019684     0.007763     0.006640
Rotational constants in MHz :   590.126387   232.736239   199.047876

                             ****ORCA TERMINATED NORMALLY****
TOTAL RUN TIME: 0 days 0 hours 0 minutes 33 seconds 767 msec
