                         Program Version 4.2.1 -  RELEASE  -
|  1> ! wB97X-D3 SP def2-SVP
|  2> %pal
|  3> nprocs 16
|  4> end
|  5>
|  6> * xyz 0 1
|  7> S 	 1.62676 	 -30.6165 	 64.1212
|  8> C 	 -0.076381 	 -30.4417 	 64.4442
|  9> C 	 -0.701723 	 -29.5095 	 63.6254
| 10> C 	 0.187325 	 -29.0606 	 62.5897
| 11> C 	 1.46541 	 -29.5377 	 62.7398
| 12> H 	 -0.0493237 	 -28.3934 	 61.7935
| 13> C 	 -2.14614 	 -29.0112 	 63.7786
| 14> H 	 -2.52755 	 -29.4372 	 64.703
| 15> H 	 -2.70228 	 -29.5804 	 63.0486
| 16> C 	 -2.40581 	 -27.5609 	 63.5028
| 17> H 	 -2.30084 	 -27.3734 	 62.4591
| 18> H 	 -3.42596 	 -27.3146 	 63.7546
| 19> C 	 -1.52767 	 -26.5395 	 64.3164
| 20> H 	 -1.97461 	 -26.1415 	 65.2034
| 21> H 	 -0.553681 	 -26.9026 	 64.6037
| 22> H 	 -1.45323 	 -25.6668 	 63.6837
| 23> S 	 3.58032 	 -30.8035 	 61.6576
| 24> C 	 4.81249 	 -29.846 	 60.8766
| 25> C 	 4.49839 	 -28.4605 	 60.8093
| 26> C 	 3.26837 	 -28.1664 	 61.4278
| 27> C 	 2.69149 	 -29.2982 	 62.0088
| 28> H 	 5.21548 	 -27.8401 	 60.3057
| 29> C 	 2.81795 	 -26.7726 	 61.4475
| 30> H 	 1.84162 	 -26.725 	 62.0296
| 31> H 	 2.6352 	 -26.4232 	 60.4307
| 32> C 	 3.85118 	 -25.8884 	 62.0655
| 33> H 	 3.55232 	 -24.8979 	 61.7759
| 34> H 	 4.83468 	 -25.9904 	 61.575
| 35> C 	 3.80581 	 -25.9283 	 63.57
| 36> H 	 4.07393 	 -24.8933 	 63.9345
| 37> H 	 4.49128 	 -26.6581 	 63.9007
| 38> H 	 2.87584 	 -26.2171 	 64.1251
| 39> H 	 -0.569719 	 -30.9699 	 65.1731
| 40> H 	 5.72418 	 -30.2884 	 60.5098
| 41> *
| 42>
| 43>                          ****END OF INPUT****

CARTESIAN COORDINATES (ANGSTROEM)
---------------------------------
  S      1.626760  -30.616500   64.121200
  C     -0.076381  -30.441700   64.444200
  C     -0.701723  -29.509500   63.625400
  C      0.187325  -29.060600   62.589700
  C      1.465410  -29.537700   62.739800
  H     -0.049324  -28.393400   61.793500
  C     -2.146140  -29.011200   63.778600
  H     -2.527550  -29.437200   64.703000
  H     -2.702280  -29.580400   63.048600
  C     -2.405810  -27.560900   63.502800
  H     -2.300840  -27.373400   62.459100
  H     -3.425960  -27.314600   63.754600
  C     -1.527670  -26.539500   64.316400
  H     -1.974610  -26.141500   65.203400
  H     -0.553681  -26.902600   64.603700
  H     -1.453230  -25.666800   63.683700
  S      3.580320  -30.803500   61.657600
  C      4.812490  -29.846000   60.876600
  C      4.498390  -28.460500   60.809300
  C      3.268370  -28.166400   61.427800
  C      2.691490  -29.298200   62.008800
  H      5.215480  -27.840100   60.305700
  C      2.817950  -26.772600   61.447500
  H      1.841620  -26.725000   62.029600
  H      2.635200  -26.423200   60.430700
  C      3.851180  -25.888400   62.065500
  H      3.552320  -24.897900   61.775900
  H      4.834680  -25.990400   61.575000
  C      3.805810  -25.928300   63.570000
  H      4.073930  -24.893300   63.934500
  H      4.491280  -26.658100   63.900700
  H      2.875840  -26.217100   64.125100
  H     -0.569719  -30.969900   65.173100
  H      5.724180  -30.288400   60.509800

 Total Charge           Charge          ....    0
 Multiplicity           Mult            ....    1
 Number of Electrons    NEL             ....  134
 Basis Dimension        Dim             ....  322

ORBITAL ENERGIES
----------------

  NO   OCC          E(Eh)            E(eV)
   0   2.0000     -88.966231     -2420.8942
   1   2.0000     -88.962738     -2420.7992
   2   2.0000     -10.325582      -280.9734
   3   2.0000     -10.324870      -280.9540
   4   2.0000     -10.318021      -280.7676
   5   2.0000     -10.304298      -280.3942
   6   2.0000     -10.301569      -280.3199
   7   2.0000     -10.300305      -280.2856
   8   2.0000     -10.293912      -280.1116
   9   2.0000     -10.290482      -280.0182
  10   2.0000     -10.289855      -280.0012
  11   2.0000     -10.288018      -279.9512
  12   2.0000     -10.287077      -279.9256
  13   2.0000     -10.280314      -279.7416
  14   2.0000     -10.273938      -279.5681
  15   2.0000     -10.271636      -279.5054
  16   2.0000      -8.080479      -219.8810
  17   2.0000      -8.077641      -219.8038
  18   2.0000      -6.038836      -164.3251
  19   2.0000      -6.036088      -164.2503
  20   2.0000      -6.035105      -164.2236
  21   2.0000      -6.032209      -164.1448
  22   2.0000      -6.031376      -164.1221
  23   2.0000      -6.028363      -164.0401
  24   2.0000      -1.005067       -27.3493
  25   2.0000      -0.980182       -26.6721
  26   2.0000      -0.922450       -25.1011
  27   2.0000      -0.911309       -24.7980
  28   2.0000      -0.865368       -23.5479
  29   2.0000      -0.852983       -23.2108
  30   2.0000      -0.841816       -22.9070
  31   2.0000      -0.812382       -22.1060
  32   2.0000      -0.786341       -21.3974
  33   2.0000      -0.774332       -21.0706
  34   2.0000      -0.712887       -19.3986
  35   2.0000      -0.699202       -19.0263
  36   2.0000      -0.693204       -18.8630
  37   2.0000      -0.659200       -17.9377
  38   2.0000      -0.643794       -17.5185
  39   2.0000      -0.623407       -16.9638
  40   2.0000      -0.600361       -16.3366
  41   2.0000      -0.561157       -15.2699
  42   2.0000      -0.557283       -15.1644
  43   2.0000      -0.553238       -15.0544
  44   2.0000      -0.545486       -14.8434
  45   2.0000      -0.537775       -14.6336
  46   2.0000      -0.521885       -14.2012
  47   2.0000      -0.507094       -13.7987
  48   2.0000      -0.501395       -13.6436
  49   2.0000      -0.496402       -13.5078
  50   2.0000      -0.490873       -13.3573
  51   2.0000      -0.479687       -13.0529
  52   2.0000      -0.468904       -12.7595
  53   2.0000      -0.460313       -12.5258
  54   2.0000      -0.457687       -12.4543
  55   2.0000      -0.451673       -12.2907
  56   2.0000      -0.447643       -12.1810
  57   2.0000      -0.436656       -11.8820
  58   2.0000      -0.432391       -11.7660
  59   2.0000      -0.426788       -11.6135
  60   2.0000      -0.420568       -11.4442
  61   2.0000      -0.413925       -11.2635
  62   2.0000      -0.409745       -11.1497
  63   2.0000      -0.344296        -9.3688
  64   2.0000      -0.332178        -9.0390
  65   2.0000      -0.325942        -8.8693
  66   2.0000      -0.283627        -7.7179
  67   0.0000       0.028660         0.7799
  68   0.0000       0.072456         1.9716
  69   0.0000       0.104776         2.8511
  70   0.0000       0.113382         3.0853
  71   0.0000       0.132169         3.5965

MULLIKEN ATOMIC CHARGES
-----------------------
   0 S :    0.102418
   1 C :   -0.087502
   2 C :   -0.127679
   3 C :    0.035726
   4 C :   -0.150577
   5 H :    0.001051
   6 C :    0.121571
   7 H :    0.008690
   8 H :    0.029118
   9 C :   -0.066689
  10 H :    0.027139
  11 H :    0.028718
  12 C :   -0.044255
  13 H :    0.022205
  14 H :    0.044746
  15 H :    0.020641
  16 S :    0.107526
  17 C :   -0.094255
  18 C :   -0.060964
  19 C :    0.006055
  20 C :   -0.159949
  21 H :    0.019311
  22 C :    0.053571
  23 H :    0.028764
  24 H :    0.031323
  25 C :   -0.061548
  26 H :    0.009171
  27 H :    0.035116
  28 C :   -0.054789
  29 H :    0.038363
  30 H :    0.031707
  31 H :    0.044736
  32 H :    0.008265
  33 H :    0.052278
Sum of atomic charges:   -0.0000000

LOEWDIN ATOMIC CHARGES
----------------------
   0 S :    0.399277
   1 C :   -0.191884
   2 C :   -0.054472
   3 C :   -0.066371
   4 C :   -0.184718
   5 H :    0.026767
   6 C :   -0.032685
   7 H :    0.027922
   8 H :    0.035938
   9 C :   -0.036550
  10 H :    0.020850
  11 H :    0.030155
  12 C :   -0.064408
  13 H :    0.021878
  14 H :    0.024317
  15 H :    0.025715
  16 S :    0.398866
  17 C :   -0.181478
  18 C :   -0.068314
  19 C :   -0.055573
  20 C :   -0.195859
  21 H :    0.029771
  22 C :   -0.034642
  23 H :    0.035911
  24 H :    0.033507
  25 C :   -0.042822
  26 H :    0.019182
  27 H :    0.028593
  28 C :   -0.068562
  29 H :    0.032912
  30 H :    0.022341
  31 H :    0.034996
  32 H :    0.007123
  33 H :    0.022319

  Mayer bond orders larger than 0.100000
B(  0-S ,  1-C ) :   1.1291 B(  0-S ,  4-C ) :   1.1480 B(  1-C ,  2-C ) :   1.6290
B(  1-C , 32-H ) :   0.9767 B(  2-C ,  3-C ) :   1.2064 B(  2-C ,  6-C ) :   1.0102
B(  3-C ,  4-C ) :   1.6017 B(  3-C ,  5-H ) :   0.9986 B(  4-C , 20-C ) :   1.0328
B(  6-C ,  7-H ) :   0.9396 B(  6-C ,  8-H ) :   0.9276 B(  6-C ,  9-C ) :   1.0832
B(  9-C , 10-H ) :   0.9559 B(  9-C , 11-H ) :   0.9524 B(  9-C , 12-C ) :   1.0663
B( 12-C , 13-H ) :   0.9780 B( 12-C , 14-H ) :   0.9791 B( 12-C , 15-H ) :   0.9766
B( 16-S , 17-C ) :   1.1638 B( 16-S , 20-C ) :   1.1390 B( 17-C , 18-C ) :   1.5975
B( 17-C , 20-C ) :   0.1097 B( 17-C , 33-H ) :   0.9689 B( 18-C , 19-C ) :   1.2189
B( 18-C , 21-H ) :   0.9937 B( 19-C , 20-C ) :   1.5800 B( 19-C , 22-C ) :   1.0582
B( 22-C , 23-H ) :   0.9334 B( 22-C , 24-H ) :   0.9207 B( 22-C , 25-C ) :   1.0932
B( 25-C , 26-H ) :   0.9535 B( 25-C , 27-H ) :   0.9503 B( 25-C , 28-C ) :   1.0546
B( 28-C , 29-H ) :   0.9779 B( 28-C , 30-H ) :   0.9752 B( 28-C , 31-H ) :   0.9758

Dispersion correction           -0.015082729
FINAL SINGLE POINT ENERGY     -1339.871349464481

DIPOLE MOMENT
-------------
                                X             Y             Z
Electronic contribution:     10.55096     -25.17609      -3.66973
Nuclear contribution   :    -10.81367      25.77565       3.49361
                        -----------------------------------------
Total Dipole Moment    :     -0.26271       0.59957      -0.17612
                        -----------------------------------------
Magnitude (a.u.)       :      0.67788
Magnitude (Debye)      :      1.72303

Rotational constants in cm-1:     0.018996     0.009967     0.007465
Rotational constants in MHz :   569.488513   298.812769   223.796493

                             ****ORCA TERMINATED NORMALLY****
TOTAL RUN TIME: 0 days 0 hours 0 minutes 36 seconds 586 msec
