                         Program Version 4.2.1 -  RELEASE  -
|  1> ! wB97X-D3 SP def2-SVP
|  2> %pal
|  3> nprocs 16
|  4> end
|  5>
|  6> * xyz 0 1
|  7> S 	 -70.8991 	 40.0022 	 120.951
|  8> C 	 -70.2096 	 40.6226 	 122.462
|  9> C 	 -68.9046 	 40.2059 	 122.68
| 10> C 	 -68.4626 	 39.4226 	 121.576
| 11> C 	 -69.4111 	 39.0871 	 120.664
| 12> H 	 -67.5199 	 38.9345 	 121.465
| 13> C 	 -68.0508 	 40.6123 	 123.751
| 14> H 	 -67.1235 	 40.0524 	 123.823
| 15> H 	 -68.6197 	 40.4147 	 124.723
| 16> C 	 -67.6822 	 42.0753 	 123.614
| 17> H 	 -67.1039 	 42.2717 	 122.756
| 18> H 	 -68.5302 	 42.7499 	 123.47
| 19> C 	 -66.8594 	 42.4846 	 124.875
| 20> H 	 -66.918 	 43.5435 	 124.884
| 21> H 	 -67.3502 	 42.1374 	 125.804
| 22> H 	 -65.8064 	 42.1937 	 124.916
| 23> S 	 -69.2337 	 39.2326 	 117.918
| 24> C 	 -68.268 	 38.0165 	 117.109
| 25> C 	 -67.9985 	 36.9335 	 117.886
| 26> C 	 -68.5403 	 37.13 	 119.223
| 27> C 	 -69.1207 	 38.4196 	 119.403
| 28> H 	 -67.5039 	 36.0702 	 117.453
| 29> C 	 -68.3685 	 36.1391 	 120.425
| 30> H 	 -69.0807 	 35.3218 	 120.259
| 31> H 	 -68.4029 	 36.4659 	 121.411
| 32> C 	 -67.0014 	 35.4107 	 120.52
| 33> H 	 -66.8641 	 34.8829 	 119.615
| 34> H 	 -66.8837 	 34.7411 	 121.292
| 35> C 	 -65.7766 	 36.2639 	 120.656
| 36> H 	 -65.7772 	 36.8562 	 121.557
| 37> H 	 -65.5818 	 36.9207 	 119.826
| 38> H 	 -64.8565 	 35.6293 	 120.673
| 39> H 	 -70.7515 	 41.2272 	 123.215
| 40> H 	 -68.1992 	 37.9522 	 116.027
| 41> *
| 42>
| 43>                          ****END OF INPUT****

CARTESIAN COORDINATES (ANGSTROEM)
---------------------------------
  S    -70.899100   40.002200  120.951000
  C    -70.209600   40.622600  122.462000
  C    -68.904600   40.205900  122.680000
  C    -68.462600   39.422600  121.576000
  C    -69.411100   39.087100  120.664000
  H    -67.519900   38.934500  121.465000
  C    -68.050800   40.612300  123.751000
  H    -67.123500   40.052400  123.823000
  H    -68.619700   40.414700  124.723000
  C    -67.682200   42.075300  123.614000
  H    -67.103900   42.271700  122.756000
  H    -68.530200   42.749900  123.470000
  C    -66.859400   42.484600  124.875000
  H    -66.918000   43.543500  124.884000
  H    -67.350200   42.137400  125.804000
  H    -65.806400   42.193700  124.916000
  S    -69.233700   39.232600  117.918000
  C    -68.268000   38.016500  117.109000
  C    -67.998500   36.933500  117.886000
  C    -68.540300   37.130000  119.223000
  C    -69.120700   38.419600  119.403000
  H    -67.503900   36.070200  117.453000
  C    -68.368500   36.139100  120.425000
  H    -69.080700   35.321800  120.259000
  H    -68.402900   36.465900  121.411000
  C    -67.001400   35.410700  120.520000
  H    -66.864100   34.882900  119.615000
  H    -66.883700   34.741100  121.292000
  C    -65.776600   36.263900  120.656000
  H    -65.777200   36.856200  121.557000
  H    -65.581800   36.920700  119.826000
  H    -64.856500   35.629300  120.673000
  H    -70.751500   41.227200  123.215000
  H    -68.199200   37.952200  116.027000

 Total Charge           Charge          ....    0
 Multiplicity           Mult            ....    1
 Number of Electrons    NEL             ....  134
 Basis Dimension        Dim             ....  322

ORBITAL ENERGIES
----------------

  NO   OCC          E(Eh)            E(eV)
   0   2.0000     -88.966531     -2420.9024
   1   2.0000     -88.965117     -2420.8639
   2   2.0000     -10.325135      -280.9612
   3   2.0000     -10.324785      -280.9517
   4   2.0000     -10.316561      -280.7279
   5   2.0000     -10.314749      -280.6786
   6   2.0000     -10.312988      -280.6307
   7   2.0000     -10.299335      -280.2591
   8   2.0000     -10.295166      -280.1457
   9   2.0000     -10.290361      -280.0150
  10   2.0000     -10.288008      -279.9509
  11   2.0000     -10.287263      -279.9307
  12   2.0000     -10.284121      -279.8451
  13   2.0000     -10.276762      -279.6449
  14   2.0000     -10.271097      -279.4907
  15   2.0000     -10.270228      -279.4671
  16   2.0000      -8.080891      -219.8922
  17   2.0000      -8.080512      -219.8819
  18   2.0000      -6.039316      -164.3381
  19   2.0000      -6.039068      -164.3314
  20   2.0000      -6.035249      -164.2275
  21   2.0000      -6.035214      -164.2265
  22   2.0000      -6.031672      -164.1301
  23   2.0000      -6.031191      -164.1171
  24   2.0000      -1.008286       -27.4369
  25   2.0000      -0.985639       -26.8206
  26   2.0000      -0.922025       -25.0896
  27   2.0000      -0.909666       -24.7533
  28   2.0000      -0.871189       -23.7063
  29   2.0000      -0.850713       -23.1491
  30   2.0000      -0.846062       -23.0225
  31   2.0000      -0.818167       -22.2635
  32   2.0000      -0.783419       -21.3179
  33   2.0000      -0.769973       -20.9520
  34   2.0000      -0.709679       -19.3114
  35   2.0000      -0.703577       -19.1453
  36   2.0000      -0.692572       -18.8458
  37   2.0000      -0.655014       -17.8238
  38   2.0000      -0.640974       -17.4418
  39   2.0000      -0.621095       -16.9008
  40   2.0000      -0.602956       -16.4073
  41   2.0000      -0.580599       -15.7989
  42   2.0000      -0.558386       -15.1945
  43   2.0000      -0.554324       -15.0839
  44   2.0000      -0.545410       -14.8414
  45   2.0000      -0.528620       -14.3845
  46   2.0000      -0.518485       -14.1087
  47   2.0000      -0.509808       -13.8726
  48   2.0000      -0.503344       -13.6967
  49   2.0000      -0.500681       -13.6242
  50   2.0000      -0.486959       -13.2508
  51   2.0000      -0.478906       -13.0317
  52   2.0000      -0.472013       -12.8441
  53   2.0000      -0.466599       -12.6968
  54   2.0000      -0.454917       -12.3789
  55   2.0000      -0.452563       -12.3149
  56   2.0000      -0.446616       -12.1530
  57   2.0000      -0.442550       -12.0424
  58   2.0000      -0.434669       -11.8280
  59   2.0000      -0.427781       -11.6405
  60   2.0000      -0.416946       -11.3457
  61   2.0000      -0.414431       -11.2773
  62   2.0000      -0.406672       -11.0661
  63   2.0000      -0.348356        -9.4792
  64   2.0000      -0.330980        -9.0064
  65   2.0000      -0.323014        -8.7897
  66   2.0000      -0.294374        -8.0103
  67   0.0000       0.033313         0.9065
  68   0.0000       0.066251         1.8028
  69   0.0000       0.108911         2.9636
  70   0.0000       0.122855         3.3431
  71   0.0000       0.126800         3.4504

MULLIKEN ATOMIC CHARGES
-----------------------
   0 S :    0.101011
   1 C :   -0.133646
   2 C :   -0.056302
   3 C :    0.041448
   4 C :   -0.154702
   5 H :   -0.002044
   6 C :    0.055349
   7 H :    0.019809
   8 H :    0.041572
   9 C :   -0.074934
  10 H :    0.019876
  11 H :    0.027629
  12 C :   -0.033212
  13 H :    0.021615
  14 H :    0.024755
  15 H :    0.041296
  16 S :    0.120087
  17 C :   -0.096978
  18 C :   -0.037986
  19 C :   -0.061192
  20 C :   -0.142585
  21 H :    0.030704
  22 C :    0.105087
  23 H :    0.039401
  24 H :    0.020281
  25 C :   -0.057081
  26 H :    0.004545
  27 H :    0.012402
  28 C :   -0.070350
  29 H :    0.023814
  30 H :    0.028001
  31 H :    0.028896
  32 H :    0.054220
  33 H :    0.059216
Sum of atomic charges:    0.0000000

LOEWDIN ATOMIC CHARGES
----------------------
   0 S :    0.383708
   1 C :   -0.191280
   2 C :   -0.065587
   3 C :   -0.050724
   4 C :   -0.187829
   5 H :    0.027720
   6 C :   -0.040289
   7 H :    0.031943
   8 H :    0.042057
   9 C :   -0.029073
  10 H :    0.021786
  11 H :    0.024764
  12 C :   -0.065157
  13 H :    0.021093
  14 H :    0.025062
  15 H :    0.026327
  16 S :    0.428495
  17 C :   -0.188611
  18 C :   -0.071441
  19 C :   -0.050694
  20 C :   -0.218407
  21 H :    0.036789
  22 C :   -0.023834
  23 H :    0.037974
  24 H :    0.020858
  25 C :   -0.037487
  26 H :    0.013181
  27 H :    0.016754
  28 C :   -0.067277
  29 H :    0.016048
  30 H :    0.019988
  31 H :    0.031324
  32 H :    0.032090
  33 H :    0.029730

  Mayer bond orders larger than 0.100000
B(  0-S ,  1-C ) :   1.1338 B(  0-S ,  4-C ) :   1.1292 B(  1-C ,  2-C ) :   1.6033
B(  1-C , 32-H ) :   0.9604 B(  2-C ,  3-C ) :   1.2334 B(  2-C ,  6-C ) :   1.0473
B(  3-C ,  4-C ) :   1.6020 B(  3-C ,  5-H ) :   0.9903 B(  4-C , 20-C ) :   1.0282
B(  6-C ,  7-H ) :   0.9370 B(  6-C ,  8-H ) :   0.9284 B(  6-C ,  9-C ) :   1.0651
B(  9-C , 10-H ) :   0.9500 B(  9-C , 11-H ) :   0.9608 B(  9-C , 12-C ) :   1.0744
B( 12-C , 13-H ) :   0.9741 B( 12-C , 14-H ) :   0.9752 B( 12-C , 15-H ) :   0.9760
B( 16-S , 17-C ) :   1.1588 B( 16-S , 20-C ) :   1.1598 B( 17-C , 18-C ) :   1.6204
B( 17-C , 33-H ) :   0.9593 B( 18-C , 19-C ) :   1.2434 B( 18-C , 21-H ) :   0.9893
B( 19-C , 20-C ) :   1.5708 B( 19-C , 22-C ) :   1.0266 B( 22-C , 23-H ) :   0.9325
B( 22-C , 24-H ) :   0.9504 B( 22-C , 25-C ) :   1.0667 B( 25-C , 26-H ) :   0.9478
B( 25-C , 27-H ) :   0.9578 B( 25-C , 28-C ) :   1.0902 B( 28-C , 29-H ) :   0.9713
B( 28-C , 30-H ) :   0.9716 B( 28-C , 31-H ) :   0.9709

Dispersion correction           -0.014577043
FINAL SINGLE POINT ENERGY     -1339.859273193684

DIPOLE MOMENT
-------------
                                X             Y             Z
Electronic contribution:    -20.32508       3.11645     -19.02670
Nuclear contribution   :     20.85171      -3.29610      19.35898
                        -----------------------------------------
Total Dipole Moment    :      0.52662      -0.17965       0.33228
                        -----------------------------------------
Magnitude (a.u.)       :      0.64809
Magnitude (Debye)      :      1.64730

Rotational constants in cm-1:     0.018904     0.008505     0.006858
Rotational constants in MHz :   566.727292   254.978261   205.586849

                             ****ORCA TERMINATED NORMALLY****
TOTAL RUN TIME: 0 days 0 hours 0 minutes 33 seconds 985 msec
