                         Program Version 4.2.1 -  RELEASE  -
|  1> ! wB97X-D3 SP def2-SVP
|  2> %pal
|  3> nprocs 16
|  4> end
|  5>
|  6> * xyz 0 1
|  7> S 	 55.9243 	 4.38635 	 83.8009
|  8> C 	 56.7837 	 3.13851 	 82.9683
|  9> C 	 56.0739 	 1.88532 	 83.0248
| 10> C 	 54.8904 	 2.07362 	 83.8081
| 11> C 	 54.6813 	 3.29003 	 84.3166
| 12> H 	 54.124 	 1.31818 	 83.9806
| 13> C 	 56.3899 	 0.590045 	 82.3087
| 14> H 	 55.4633 	 0.297616 	 81.7435
| 15> H 	 56.7304 	 -0.235753 	 83.0104
| 16> C 	 57.5021 	 0.73377 	 81.1493
| 17> H 	 57.048 	 1.45463 	 80.416
| 18> H 	 58.4229 	 1.17443 	 81.5336
| 19> C 	 57.893 	 -0.494336 	 80.3709
| 20> H 	 57.0865 	 -0.782121 	 79.7265
| 21> H 	 58.6942 	 -0.300512 	 79.7485
| 22> H 	 58.1924 	 -1.37724 	 80.9542
| 23> S 	 52.6869 	 5.23922 	 84.4757
| 24> C 	 52.0115 	 5.5567 	 86.0464
| 25> C 	 52.2877 	 4.50818 	 86.8935
| 26> C 	 53.2587 	 3.59449 	 86.4353
| 27> C 	 53.6381 	 3.90721 	 85.1137
| 28> H 	 51.6645 	 4.56835 	 87.7857
| 29> C 	 53.8278 	 2.55107 	 87.4054
| 30> H 	 54.8635 	 2.40927 	 87.1112
| 31> H 	 53.3398 	 1.61817 	 87.2582
| 32> C 	 53.865 	 2.96373 	 88.8917
| 33> H 	 52.9153 	 3.04579 	 89.3655
| 34> H 	 54.2549 	 3.93912 	 89.0797
| 35> C 	 54.5767 	 1.85383 	 89.7108
| 36> H 	 54.0554 	 0.888366 	 89.6425
| 37> H 	 54.5858 	 2.12469 	 90.8004
| 38> H 	 55.5985 	 1.6927 	 89.3054
| 39> H 	 57.7788 	 3.30487 	 82.5405
| 40> H 	 51.1579 	 6.2356 	 86.2582
| 41> *
| 42>
| 43>                          ****END OF INPUT****

CARTESIAN COORDINATES (ANGSTROEM)
---------------------------------
  S     55.924300    4.386350   83.800900
  C     56.783700    3.138510   82.968300
  C     56.073900    1.885320   83.024800
  C     54.890400    2.073620   83.808100
  C     54.681300    3.290030   84.316600
  H     54.124000    1.318180   83.980600
  C     56.389900    0.590045   82.308700
  H     55.463300    0.297616   81.743500
  H     56.730400   -0.235753   83.010400
  C     57.502100    0.733770   81.149300
  H     57.048000    1.454630   80.416000
  H     58.422900    1.174430   81.533600
  C     57.893000   -0.494336   80.370900
  H     57.086500   -0.782121   79.726500
  H     58.694200   -0.300512   79.748500
  H     58.192400   -1.377240   80.954200
  S     52.686900    5.239220   84.475700
  C     52.011500    5.556700   86.046400
  C     52.287700    4.508180   86.893500
  C     53.258700    3.594490   86.435300
  C     53.638100    3.907210   85.113700
  H     51.664500    4.568350   87.785700
  C     53.827800    2.551070   87.405400
  H     54.863500    2.409270   87.111200
  H     53.339800    1.618170   87.258200
  C     53.865000    2.963730   88.891700
  H     52.915300    3.045790   89.365500
  H     54.254900    3.939120   89.079700
  C     54.576700    1.853830   89.710800
  H     54.055400    0.888366   89.642500
  H     54.585800    2.124690   90.800400
  H     55.598500    1.692700   89.305400
  H     57.778800    3.304870   82.540500
  H     51.157900    6.235600   86.258200

 Total Charge           Charge          ....    0
 Multiplicity           Mult            ....    1
 Number of Electrons    NEL             ....  134
 Basis Dimension        Dim             ....  322

ORBITAL ENERGIES
----------------

  NO   OCC          E(Eh)            E(eV)
   0   2.0000     -88.966493     -2420.9013
   1   2.0000     -88.961488     -2420.7651
   2   2.0000     -10.327833      -281.0346
   3   2.0000     -10.320541      -280.8362
   4   2.0000     -10.318728      -280.7869
   5   2.0000     -10.313339      -280.6402
   6   2.0000     -10.308780      -280.5162
   7   2.0000     -10.307315      -280.4763
   8   2.0000     -10.304908      -280.4108
   9   2.0000     -10.292677      -280.0780
  10   2.0000     -10.291097      -280.0350
  11   2.0000     -10.290589      -280.0212
  12   2.0000     -10.288256      -279.9577
  13   2.0000     -10.283801      -279.8364
  14   2.0000     -10.282195      -279.7928
  15   2.0000     -10.270794      -279.4825
  16   2.0000      -8.081024      -219.8959
  17   2.0000      -8.077084      -219.7886
  18   2.0000      -6.039468      -164.3423
  19   2.0000      -6.035598      -164.2370
  20   2.0000      -6.035458      -164.2331
  21   2.0000      -6.031828      -164.1344
  22   2.0000      -6.031347      -164.1213
  23   2.0000      -6.028035      -164.0312
  24   2.0000      -1.008933       -27.4545
  25   2.0000      -0.984432       -26.7878
  26   2.0000      -0.907500       -24.6943
  27   2.0000      -0.903849       -24.5950
  28   2.0000      -0.867861       -23.6157
  29   2.0000      -0.853600       -23.2276
  30   2.0000      -0.846699       -23.0398
  31   2.0000      -0.816623       -22.2214
  32   2.0000      -0.781398       -21.2629
  33   2.0000      -0.765469       -20.8295
  34   2.0000      -0.706816       -19.2334
  35   2.0000      -0.703856       -19.1529
  36   2.0000      -0.692162       -18.8347
  37   2.0000      -0.650048       -17.6887
  38   2.0000      -0.640107       -17.4182
  39   2.0000      -0.614413       -16.7190
  40   2.0000      -0.594556       -16.1787
  41   2.0000      -0.570646       -15.5281
  42   2.0000      -0.566665       -15.4197
  43   2.0000      -0.563368       -15.3300
  44   2.0000      -0.527323       -14.3492
  45   2.0000      -0.522639       -14.2217
  46   2.0000      -0.515133       -14.0175
  47   2.0000      -0.511762       -13.9257
  48   2.0000      -0.502158       -13.6644
  49   2.0000      -0.496987       -13.5237
  50   2.0000      -0.493899       -13.4397
  51   2.0000      -0.473513       -12.8849
  52   2.0000      -0.470011       -12.7896
  53   2.0000      -0.462178       -12.5765
  54   2.0000      -0.457899       -12.4601
  55   2.0000      -0.451510       -12.2862
  56   2.0000      -0.442932       -12.0528
  57   2.0000      -0.439202       -11.9513
  58   2.0000      -0.429865       -11.6972
  59   2.0000      -0.425664       -11.5829
  60   2.0000      -0.422275       -11.4907
  61   2.0000      -0.416588       -11.3359
  62   2.0000      -0.410976       -11.1832
  63   2.0000      -0.343080        -9.3357
  64   2.0000      -0.331753        -9.0275
  65   2.0000      -0.325549        -8.8586
  66   2.0000      -0.294381        -8.0105
  67   0.0000       0.036255         0.9866
  68   0.0000       0.063568         1.7298
  69   0.0000       0.118043         3.2121
  70   0.0000       0.126765         3.4495
  71   0.0000       0.129087         3.5126

MULLIKEN ATOMIC CHARGES
-----------------------
   0 S :    0.115877
   1 C :   -0.134551
   2 C :   -0.088445
   3 C :    0.034196
   4 C :   -0.171711
   5 H :    0.007733
   6 C :    0.027290
   7 H :    0.048363
   8 H :    0.056547
   9 C :   -0.143928
  10 H :    0.042283
  11 H :    0.033065
  12 C :    0.007416
  13 H :    0.020977
  14 H :    0.015372
  15 H :    0.028473
  16 S :    0.121423
  17 C :   -0.112947
  18 C :   -0.068800
  19 C :    0.006966
  20 C :   -0.174758
  21 H :    0.023037
  22 C :    0.101955
  23 H :    0.028010
  24 H :    0.028955
  25 C :   -0.065316
  26 H :    0.016936
  27 H :    0.028612
  28 C :   -0.076060
  29 H :    0.032205
  30 H :    0.043762
  31 H :    0.036228
  32 H :    0.061240
  33 H :    0.069593
Sum of atomic charges:    0.0000000

LOEWDIN ATOMIC CHARGES
----------------------
   0 S :    0.425696
   1 C :   -0.207026
   2 C :   -0.067297
   3 C :   -0.065042
   4 C :   -0.201642
   5 H :    0.034410
   6 C :   -0.038369
   7 H :    0.040404
   8 H :    0.039032
   9 C :   -0.046084
  10 H :    0.031655
  11 H :    0.018383
  12 C :   -0.062358
  13 H :    0.023220
  14 H :    0.020149
  15 H :    0.026948
  16 S :    0.410044
  17 C :   -0.202527
  18 C :   -0.077752
  19 C :   -0.051741
  20 C :   -0.208078
  21 H :    0.034486
  22 C :   -0.023660
  23 H :    0.034441
  24 H :    0.029827
  25 C :   -0.039429
  26 H :    0.017974
  27 H :    0.023512
  28 C :   -0.067758
  29 H :    0.024881
  30 H :    0.031463
  31 H :    0.025217
  32 H :    0.029107
  33 H :    0.037913

  Mayer bond orders larger than 0.100000
B(  0-S ,  1-C ) :   1.1665 B(  0-S ,  4-C ) :   1.1509 B(  1-C ,  2-C ) :   1.5744
B(  1-C ,  4-C ) :   0.1002 B(  1-C , 32-H ) :   0.9656 B(  2-C ,  3-C ) :   1.2423
B(  2-C ,  6-C ) :   1.0193 B(  3-C ,  4-C ) :   1.6190 B(  3-C ,  5-H ) :   0.9983
B(  4-C , 20-C ) :   1.0153 B(  6-C ,  7-H ) :   0.9483 B(  6-C ,  8-H ) :   0.9364
B(  6-C ,  9-C ) :   1.0655 B(  9-C , 10-H ) :   0.9578 B(  9-C , 11-H ) :   0.9563
B(  9-C , 12-C ) :   1.0942 B( 12-C , 13-H ) :   0.9723 B( 12-C , 14-H ) :   0.9676
B( 12-C , 15-H ) :   0.9714 B( 16-S , 17-C ) :   1.1484 B( 16-S , 20-C ) :   1.1635
B( 17-C , 18-C ) :   1.6228 B( 17-C , 20-C ) :   0.1039 B( 17-C , 33-H ) :   0.9566
B( 18-C , 19-C ) :   1.2442 B( 18-C , 21-H ) :   0.9847 B( 19-C , 20-C ) :   1.5654
B( 19-C , 22-C ) :   1.0289 B( 22-C , 23-H ) :   0.9344 B( 22-C , 24-H ) :   0.9278
B( 22-C , 25-C ) :   1.0750 B( 25-C , 26-H ) :   0.9431 B( 25-C , 27-H ) :   0.9582
B( 25-C , 28-C ) :   1.0816 B( 28-C , 29-H ) :   0.9746 B( 28-C , 30-H ) :   0.9739
B( 28-C , 31-H ) :   0.9769

Dispersion correction           -0.013210224
FINAL SINGLE POINT ENERGY     -1339.874625055524

DIPOLE MOMENT
-------------
                                X             Y             Z
Electronic contribution:    -10.13776      22.33042      -5.07629
Nuclear contribution   :     10.10715     -22.88877       5.24634
                        -----------------------------------------
Total Dipole Moment    :     -0.03061      -0.55835       0.17004
                        -----------------------------------------
Magnitude (a.u.)       :      0.58447
Magnitude (Debye)      :      1.48561

Rotational constants in cm-1:     0.020707     0.006939     0.005695
Rotational constants in MHz :   620.786413   208.020326   170.728579

                             ****ORCA TERMINATED NORMALLY****
TOTAL RUN TIME: 0 days 0 hours 0 minutes 26 seconds 654 msec
