                         Program Version 4.2.1 -  RELEASE  -
|  1> ! wB97X-D3 SP def2-SVP
|  2> %pal
|  3> nprocs 16
|  4> end
|  5>
|  6> * xyz 0 1
|  7> S 	 -89.6905 	 45.767 	 129.046
|  8> C 	 -90.7388 	 46.8204 	 128.132
|  9> C 	 -90.0968 	 47.8456 	 127.519
| 10> C 	 -88.7082 	 47.8612 	 127.873
| 11> C 	 -88.306 	 46.7712 	 128.588
| 12> H 	 -88.0819 	 48.6736 	 127.63
| 13> C 	 -90.7729 	 49.0451 	 126.79
| 14> H 	 -90.6275 	 49.9862 	 127.46
| 15> H 	 -91.9092 	 48.8323 	 126.718
| 16> C 	 -90.3374 	 49.1858 	 125.342
| 17> H 	 -90.532 	 50.1979 	 124.937
| 18> H 	 -89.2524 	 49.067 	 125.297
| 19> C 	 -91.0692 	 48.2799 	 124.335
| 20> H 	 -92.1398 	 48.3585 	 124.271
| 21> H 	 -90.6829 	 48.422 	 123.336
| 22> H 	 -90.7957 	 47.2113 	 124.662
| 23> S 	 -86.6273 	 44.635 	 129.231
| 24> C 	 -85.0826 	 44.9469 	 129.882
| 25> C 	 -84.7441 	 46.2521 	 129.586
| 26> C 	 -85.7783 	 47.1342 	 129.214
| 27> C 	 -86.9689 	 46.4105 	 129.097
| 28> H 	 -83.6423 	 46.3784 	 129.702
| 29> C 	 -85.4367 	 48.5829 	 128.864
| 30> H 	 -84.7889 	 49.0741 	 129.483
| 31> H 	 -86.3238 	 49.1713 	 128.945
| 32> C 	 -84.8663 	 48.7151 	 127.445
| 33> H 	 -85.5847 	 48.2613 	 126.79
| 34> H 	 -83.9896 	 48.0415 	 127.415
| 35> C 	 -84.6727 	 50.272 	 127.217
| 36> H 	 -84.8006 	 50.421 	 126.17
| 37> H 	 -83.6161 	 50.6226 	 127.47
| 38> H 	 -85.3905 	 50.9876 	 127.73
| 39> H 	 -91.8242 	 46.8383 	 128.302
| 40> H 	 -84.4307 	 44.0977 	 130.012
| 41> *
| 42>
| 43>                          ****END OF INPUT****

CARTESIAN COORDINATES (ANGSTROEM)
---------------------------------
  S    -89.690500   45.767000  129.046000
  C    -90.738800   46.820400  128.132000
  C    -90.096800   47.845600  127.519000
  C    -88.708200   47.861200  127.873000
  C    -88.306000   46.771200  128.588000
  H    -88.081900   48.673600  127.630000
  C    -90.772900   49.045100  126.790000
  H    -90.627500   49.986200  127.460000
  H    -91.909200   48.832300  126.718000
  C    -90.337400   49.185800  125.342000
  H    -90.532000   50.197900  124.937000
  H    -89.252400   49.067000  125.297000
  C    -91.069200   48.279900  124.335000
  H    -92.139800   48.358500  124.271000
  H    -90.682900   48.422000  123.336000
  H    -90.795700   47.211300  124.662000
  S    -86.627300   44.635000  129.231000
  C    -85.082600   44.946900  129.882000
  C    -84.744100   46.252100  129.586000
  C    -85.778300   47.134200  129.214000
  C    -86.968900   46.410500  129.097000
  H    -83.642300   46.378400  129.702000
  C    -85.436700   48.582900  128.864000
  H    -84.788900   49.074100  129.483000
  H    -86.323800   49.171300  128.945000
  C    -84.866300   48.715100  127.445000
  H    -85.584700   48.261300  126.790000
  H    -83.989600   48.041500  127.415000
  C    -84.672700   50.272000  127.217000
  H    -84.800600   50.421000  126.170000
  H    -83.616100   50.622600  127.470000
  H    -85.390500   50.987600  127.730000
  H    -91.824200   46.838300  128.302000
  H    -84.430700   44.097700  130.012000

 Total Charge           Charge          ....    0
 Multiplicity           Mult            ....    1
 Number of Electrons    NEL             ....  134
 Basis Dimension        Dim             ....  322

ORBITAL ENERGIES
----------------

  NO   OCC          E(Eh)            E(eV)
   0   2.0000     -88.964902     -2420.8580
   1   2.0000     -88.962012     -2420.7794
   2   2.0000     -10.335575      -281.2453
   3   2.0000     -10.332432      -281.1598
   4   2.0000     -10.312036      -280.6048
   5   2.0000     -10.311119      -280.5798
   6   2.0000     -10.310452      -280.5616
   7   2.0000     -10.307952      -280.4936
   8   2.0000     -10.301129      -280.3080
   9   2.0000     -10.294152      -280.1181
  10   2.0000     -10.294109      -280.1169
  11   2.0000     -10.293626      -280.1038
  12   2.0000     -10.291538      -280.0470
  13   2.0000     -10.289693      -279.9968
  14   2.0000     -10.285337      -279.8783
  15   2.0000     -10.280851      -279.7562
  16   2.0000      -8.079653      -219.8585
  17   2.0000      -8.077029      -219.7871
  18   2.0000      -6.038265      -164.3095
  19   2.0000      -6.035444      -164.2328
  20   2.0000      -6.034242      -164.2001
  21   2.0000      -6.031695      -164.1308
  22   2.0000      -6.030199      -164.0901
  23   2.0000      -6.027665      -164.0211
  24   2.0000      -1.007237       -27.4083
  25   2.0000      -0.987257       -26.8646
  26   2.0000      -0.914740       -24.8913
  27   2.0000      -0.908469       -24.7207
  28   2.0000      -0.867745       -23.6125
  29   2.0000      -0.851759       -23.1775
  30   2.0000      -0.842852       -22.9352
  31   2.0000      -0.810204       -22.0468
  32   2.0000      -0.783838       -21.3293
  33   2.0000      -0.773436       -21.0463
  34   2.0000      -0.710959       -19.3462
  35   2.0000      -0.702171       -19.1071
  36   2.0000      -0.688720       -18.7410
  37   2.0000      -0.659680       -17.9508
  38   2.0000      -0.634896       -17.2764
  39   2.0000      -0.629708       -17.1352
  40   2.0000      -0.604485       -16.4489
  41   2.0000      -0.569269       -15.4906
  42   2.0000      -0.561073       -15.2676
  43   2.0000      -0.552199       -15.0261
  44   2.0000      -0.536312       -14.5938
  45   2.0000      -0.519155       -14.1269
  46   2.0000      -0.514475       -13.9996
  47   2.0000      -0.511308       -13.9134
  48   2.0000      -0.500627       -13.6228
  49   2.0000      -0.492152       -13.3921
  50   2.0000      -0.490539       -13.3482
  51   2.0000      -0.482554       -13.1310
  52   2.0000      -0.473649       -12.8886
  53   2.0000      -0.471536       -12.8311
  54   2.0000      -0.454362       -12.3638
  55   2.0000      -0.451944       -12.2980
  56   2.0000      -0.449030       -12.2187
  57   2.0000      -0.436682       -11.8827
  58   2.0000      -0.432588       -11.7713
  59   2.0000      -0.426502       -11.6057
  60   2.0000      -0.424557       -11.5528
  61   2.0000      -0.414203       -11.2710
  62   2.0000      -0.403959       -10.9923
  63   2.0000      -0.360126        -9.7995
  64   2.0000      -0.333705        -9.0806
  65   2.0000      -0.327966        -8.9244
  66   2.0000      -0.284366        -7.7380
  67   0.0000       0.019695         0.5359
  68   0.0000       0.075482         2.0540
  69   0.0000       0.096735         2.6323
  70   0.0000       0.110665         3.0113
  71   0.0000       0.131906         3.5893

MULLIKEN ATOMIC CHARGES
-----------------------
   0 S :    0.101621
   1 C :   -0.123128
   2 C :   -0.080851
   3 C :    0.003163
   4 C :   -0.104996
   5 H :   -0.012025
   6 C :    0.001469
   7 H :    0.065910
   8 H :    0.032616
   9 C :   -0.069710
  10 H :    0.027895
  11 H :    0.028845
  12 C :   -0.068143
  13 H :    0.035347
  14 H :    0.034888
  15 H :    0.042293
  16 S :    0.080086
  17 C :   -0.088420
  18 C :   -0.080203
  19 C :   -0.019898
  20 C :   -0.120977
  21 H :    0.033402
  22 C :    0.093513
  23 H :    0.001340
  24 H :    0.006114
  25 C :   -0.065747
  26 H :    0.026284
  27 H :    0.036601
  28 C :   -0.070482
  29 H :    0.032673
  30 H :    0.050890
  31 H :    0.048006
  32 H :    0.059454
  33 H :    0.062172
Sum of atomic charges:   -0.0000000

LOEWDIN ATOMIC CHARGES
----------------------
   0 S :    0.393694
   1 C :   -0.197414
   2 C :   -0.068648
   3 C :   -0.063392
   4 C :   -0.176881
   5 H :    0.021243
   6 C :   -0.039825
   7 H :    0.045010
   8 H :    0.036189
   9 C :   -0.051481
  10 H :    0.025109
  11 H :    0.022788
  12 C :   -0.067503
  13 H :    0.021242
  14 H :    0.025572
  15 H :    0.034409
  16 S :    0.393187
  17 C :   -0.202497
  18 C :   -0.077905
  19 C :   -0.056046
  20 C :   -0.170959
  21 H :    0.037270
  22 C :   -0.021806
  23 H :    0.017707
  24 H :    0.021443
  25 C :   -0.030507
  26 H :    0.019533
  27 H :    0.030178
  28 C :   -0.073141
  29 H :    0.022115
  30 H :    0.036226
  31 H :    0.034590
  32 H :    0.033249
  33 H :    0.027251

  Mayer bond orders larger than 0.100000
B(  0-S ,  1-C ) :   1.1281 B(  0-S ,  4-C ) :   1.1377 B(  1-C ,  2-C ) :   1.6591
B(  1-C , 32-H ) :   0.9561 B(  2-C ,  3-C ) :   1.2211 B(  2-C ,  6-C ) :   1.0107
B(  3-C ,  4-C ) :   1.5982 B(  3-C ,  5-H ) :   0.9964 B(  4-C , 20-C ) :   1.0507
B(  6-C ,  7-H ) :   0.9474 B(  6-C ,  8-H ) :   0.9482 B(  6-C ,  9-C ) :   1.0480
B(  9-C , 10-H ) :   0.9550 B(  9-C , 11-H ) :   0.9592 B(  9-C , 12-C ) :   1.0798
B( 12-C , 13-H ) :   0.9744 B( 12-C , 14-H ) :   0.9740 B( 12-C , 15-H ) :   0.9762
B( 16-S , 17-C ) :   1.1543 B( 16-S , 20-C ) :   1.1583 B( 17-C , 18-C ) :   1.6026
B( 17-C , 20-C ) :   0.1077 B( 17-C , 33-H ) :   0.9668 B( 18-C , 19-C ) :   1.2344
B( 18-C , 21-H ) :   0.9825 B( 19-C , 20-C ) :   1.5768 B( 19-C , 22-C ) :   1.0412
B( 22-C , 23-H ) :   0.9335 B( 22-C , 24-H ) :   0.9311 B( 22-C , 25-C ) :   1.0585
B( 25-C , 26-H ) :   0.9606 B( 25-C , 27-H ) :   0.9574 B( 25-C , 28-C ) :   1.0479
B( 28-C , 29-H ) :   0.9776 B( 28-C , 30-H ) :   0.9759 B( 28-C , 31-H ) :   0.9760

Dispersion correction           -0.014102204
FINAL SINGLE POINT ENERGY     -1339.853279766171

DIPOLE MOMENT
-------------
                                X             Y             Z
Electronic contribution:     -1.71525     -23.91547      18.26406
Nuclear contribution   :      1.98852      24.61668     -18.64445
                        -----------------------------------------
Total Dipole Moment    :      0.27327       0.70121      -0.38039
                        -----------------------------------------
Magnitude (a.u.)       :      0.84325
Magnitude (Debye)      :      2.14338

Rotational constants in cm-1:     0.017059     0.009457     0.006640
Rotational constants in MHz :   511.422664   283.508558   199.047976

                             ****ORCA TERMINATED NORMALLY****
TOTAL RUN TIME: 0 days 0 hours 0 minutes 34 seconds 74 msec
