                         Program Version 4.2.1 -  RELEASE  -
|  1> ! wB97X-D3 SP def2-SVP
|  2> %pal
|  3> nprocs 16
|  4> end
|  5>
|  6> * xyz 0 1
|  7> S 	 10.8255 	 -11.5704 	 80.0901
|  8> C 	 11.9424 	 -12.7994 	 80.6541
|  9> C 	 11.4619 	 -14.0681 	 80.2158
| 10> C 	 10.4028 	 -13.9952 	 79.3057
| 11> C 	 10.0389 	 -12.6874 	 79.0014
| 12> H 	 9.91033 	 -14.7871 	 78.7444
| 13> C 	 12.1143 	 -15.4146 	 80.5724
| 14> H 	 11.5191 	 -15.7972 	 81.4115
| 15> H 	 13.1093 	 -15.0592 	 80.9203
| 16> C 	 12.3105 	 -16.4836 	 79.4942
| 17> H 	 11.4763 	 -16.8965 	 79.0132
| 18> H 	 12.8199 	 -16.0008 	 78.6621
| 19> C 	 13.2989 	 -17.5482 	 79.8389
| 20> H 	 12.8421 	 -18.4502 	 80.1852
| 21> H 	 13.8372 	 -17.8688 	 78.9385
| 22> H 	 14.1087 	 -17.2411 	 80.5177
| 23> S 	 9.50402 	 -11.1048 	 76.8803
| 24> C 	 7.96697 	 -11.1309 	 76.1065
| 25> C 	 7.15574 	 -12.095 	 76.6528
| 26> C 	 7.75093 	 -12.7693 	 77.7886
| 27> C 	 8.98672 	 -12.24 	 78.1209
| 28> H 	 6.09967 	 -12.2031 	 76.2877
| 29> C 	 6.9357 	 -13.7561 	 78.5177
| 30> H 	 7.62752 	 -14.5861 	 78.5544
| 31> H 	 6.1133 	 -14.1255 	 77.8876
| 32> C 	 6.28767 	 -13.4811 	 79.8162
| 33> H 	 5.42004 	 -12.8243 	 79.5174
| 34> H 	 6.94949 	 -12.933 	 80.3852
| 35> C 	 5.72914 	 -14.7052 	 80.4887
| 36> H 	 4.79935 	 -15.2009 	 80.0741
| 37> H 	 5.34543 	 -14.474 	 81.5269
| 38> H 	 6.56581 	 -15.4477 	 80.6033
| 39> H 	 12.6409 	 -12.6314 	 81.4711
| 40> H 	 7.79457 	 -10.6806 	 75.189
| 41> *
| 42>
| 43>                          ****END OF INPUT****

CARTESIAN COORDINATES (ANGSTROEM)
---------------------------------
  S     10.825500  -11.570400   80.090100
  C     11.942400  -12.799400   80.654100
  C     11.461900  -14.068100   80.215800
  C     10.402800  -13.995200   79.305700
  C     10.038900  -12.687400   79.001400
  H      9.910330  -14.787100   78.744400
  C     12.114300  -15.414600   80.572400
  H     11.519100  -15.797200   81.411500
  H     13.109300  -15.059200   80.920300
  C     12.310500  -16.483600   79.494200
  H     11.476300  -16.896500   79.013200
  H     12.819900  -16.000800   78.662100
  C     13.298900  -17.548200   79.838900
  H     12.842100  -18.450200   80.185200
  H     13.837200  -17.868800   78.938500
  H     14.108700  -17.241100   80.517700
  S      9.504020  -11.104800   76.880300
  C      7.966970  -11.130900   76.106500
  C      7.155740  -12.095000   76.652800
  C      7.750930  -12.769300   77.788600
  C      8.986720  -12.240000   78.120900
  H      6.099670  -12.203100   76.287700
  C      6.935700  -13.756100   78.517700
  H      7.627520  -14.586100   78.554400
  H      6.113300  -14.125500   77.887600
  C      6.287670  -13.481100   79.816200
  H      5.420040  -12.824300   79.517400
  H      6.949490  -12.933000   80.385200
  C      5.729140  -14.705200   80.488700
  H      4.799350  -15.200900   80.074100
  H      5.345430  -14.474000   81.526900
  H      6.565810  -15.447700   80.603300
  H     12.640900  -12.631400   81.471100
  H      7.794570  -10.680600   75.189000

 Total Charge           Charge          ....    0
 Multiplicity           Mult            ....    1
 Number of Electrons    NEL             ....  134
 Basis Dimension        Dim             ....  322

ORBITAL ENERGIES
----------------

  NO   OCC          E(Eh)            E(eV)
   0   2.0000     -88.966948     -2420.9137
   1   2.0000     -88.962674     -2420.7974
   2   2.0000     -10.328561      -281.0544
   3   2.0000     -10.325562      -280.9728
   4   2.0000     -10.317149      -280.7439
   5   2.0000     -10.310087      -280.5517
   6   2.0000     -10.305226      -280.4195
   7   2.0000     -10.304598      -280.4024
   8   2.0000     -10.296575      -280.1840
   9   2.0000     -10.296360      -280.1782
  10   2.0000     -10.292193      -280.0648
  11   2.0000     -10.289204      -279.9835
  12   2.0000     -10.281971      -279.7867
  13   2.0000     -10.279789      -279.7273
  14   2.0000     -10.279595      -279.7220
  15   2.0000     -10.273821      -279.5649
  16   2.0000      -8.081422      -219.9067
  17   2.0000      -8.078149      -219.8176
  18   2.0000      -6.039733      -164.3495
  19   2.0000      -6.036544      -164.2627
  20   2.0000      -6.035954      -164.2467
  21   2.0000      -6.032519      -164.1532
  22   2.0000      -6.032417      -164.1504
  23   2.0000      -6.028993      -164.0572
  24   2.0000      -1.009315       -27.4648
  25   2.0000      -0.985028       -26.8040
  26   2.0000      -0.922754       -25.1094
  27   2.0000      -0.913327       -24.8529
  28   2.0000      -0.872975       -23.7549
  29   2.0000      -0.856536       -23.3075
  30   2.0000      -0.849348       -23.1119
  31   2.0000      -0.815182       -22.1822
  32   2.0000      -0.781986       -21.2789
  33   2.0000      -0.770216       -20.9587
  34   2.0000      -0.713172       -19.4064
  35   2.0000      -0.701225       -19.0813
  36   2.0000      -0.692227       -18.8364
  37   2.0000      -0.664683       -18.0869
  38   2.0000      -0.642050       -17.4711
  39   2.0000      -0.619143       -16.8477
  40   2.0000      -0.597880       -16.2691
  41   2.0000      -0.576576       -15.6894
  42   2.0000      -0.572454       -15.5773
  43   2.0000      -0.563225       -15.3261
  44   2.0000      -0.529107       -14.3977
  45   2.0000      -0.523344       -14.2409
  46   2.0000      -0.521601       -14.1935
  47   2.0000      -0.511345       -13.9144
  48   2.0000      -0.505342       -13.7510
  49   2.0000      -0.500347       -13.6151
  50   2.0000      -0.498693       -13.5701
  51   2.0000      -0.478640       -13.0245
  52   2.0000      -0.477423       -12.9913
  53   2.0000      -0.468043       -12.7361
  54   2.0000      -0.454696       -12.3729
  55   2.0000      -0.452248       -12.3063
  56   2.0000      -0.444140       -12.0857
  57   2.0000      -0.436176       -11.8689
  58   2.0000      -0.429537       -11.6883
  59   2.0000      -0.423541       -11.5251
  60   2.0000      -0.420365       -11.4387
  61   2.0000      -0.406234       -11.0542
  62   2.0000      -0.405925       -11.0458
  63   2.0000      -0.347629        -9.4595
  64   2.0000      -0.332251        -9.0410
  65   2.0000      -0.327784        -8.9195
  66   2.0000      -0.290372        -7.9014
  67   0.0000       0.024453         0.6654
  68   0.0000       0.067209         1.8288
  69   0.0000       0.111861         3.0439
  70   0.0000       0.117344         3.1931
  71   0.0000       0.139696         3.8013

MULLIKEN ATOMIC CHARGES
-----------------------
   0 S :    0.112897
   1 C :   -0.120825
   2 C :   -0.117837
   3 C :    0.019627
   4 C :   -0.155769
   5 H :    0.023687
   6 C :    0.074170
   7 H :    0.046937
   8 H :    0.021258
   9 C :   -0.053801
  10 H :    0.017906
  11 H :    0.022022
  12 C :   -0.044014
  13 H :    0.024477
  14 H :    0.023502
  15 H :    0.029796
  16 S :    0.101995
  17 C :   -0.054667
  18 C :   -0.060444
  19 C :   -0.052407
  20 C :   -0.140504
  21 H :    0.038733
  22 C :    0.057125
  23 H :   -0.004140
  24 H :    0.008385
  25 C :    0.015581
  26 H :    0.026365
  27 H :    0.014412
  28 C :   -0.094700
  29 H :    0.044547
  30 H :    0.038994
  31 H :    0.038911
  32 H :    0.060062
  33 H :    0.037716
Sum of atomic charges:   -0.0000000

LOEWDIN ATOMIC CHARGES
----------------------
   0 S :    0.415509
   1 C :   -0.213516
   2 C :   -0.058885
   3 C :   -0.070611
   4 C :   -0.196087
   5 H :    0.033354
   6 C :   -0.030536
   7 H :    0.034576
   8 H :    0.034811
   9 C :   -0.048747
  10 H :    0.018118
  11 H :    0.031026
  12 C :   -0.062796
  13 H :    0.018751
  14 H :    0.029271
  15 H :    0.028040
  16 S :    0.419766
  17 C :   -0.182651
  18 C :   -0.075808
  19 C :   -0.051873
  20 C :   -0.204205
  21 H :    0.040198
  22 C :   -0.042260
  23 H :    0.023604
  24 H :    0.031919
  25 C :   -0.036040
  26 H :    0.033316
  27 H :    0.016056
  28 C :   -0.076094
  29 H :    0.032701
  30 H :    0.033454
  31 H :    0.028801
  32 H :    0.029994
  33 H :    0.016844

  Mayer bond orders larger than 0.100000
B(  0-S ,  1-C ) :   1.1445 B(  0-S ,  4-C ) :   1.1797 B(  1-C ,  2-C ) :   1.5649
B(  1-C ,  4-C ) :   0.1158 B(  1-C , 32-H ) :   0.9682 B(  2-C ,  3-C ) :   1.2784
B(  2-C ,  6-C ) :   1.0142 B(  3-C ,  4-C ) :   1.5426 B(  3-C ,  5-H ) :   0.9916
B(  4-C , 20-C ) :   1.0256 B(  6-C ,  7-H ) :   0.9301 B(  6-C ,  8-H ) :   0.9442
B(  6-C ,  9-C ) :   1.0731 B(  9-C , 10-H ) :   0.9485 B(  9-C , 11-H ) :   0.9588
B(  9-C , 12-C ) :   1.0913 B( 12-C , 13-H ) :   0.9751 B( 12-C , 14-H ) :   0.9760
B( 12-C , 15-H ) :   0.9722 B( 16-S , 17-C ) :   1.1685 B( 16-S , 20-C ) :   1.1411
B( 17-C , 18-C ) :   1.6024 B( 17-C , 33-H ) :   0.9725 B( 18-C , 19-C ) :   1.2451
B( 18-C , 21-H ) :   0.9822 B( 19-C , 20-C ) :   1.5852 B( 19-C , 22-C ) :   1.0520
B( 22-C , 23-H ) :   0.9143 B( 22-C , 24-H ) :   0.9273 B( 22-C , 25-C ) :   1.0743
B( 25-C , 26-H ) :   0.9467 B( 25-C , 27-H ) :   0.9510 B( 25-C , 28-C ) :   1.0824
B( 28-C , 29-H ) :   0.9732 B( 28-C , 30-H ) :   0.9707 B( 28-C , 31-H ) :   0.9733

Dispersion correction           -0.013786458
FINAL SINGLE POINT ENERGY     -1339.858925069432

DIPOLE MOMENT
-------------
                                X             Y             Z
Electronic contribution:      3.88832      26.49677      -8.64947
Nuclear contribution   :     -4.16380     -27.14506       8.65229
                        -----------------------------------------
Total Dipole Moment    :     -0.27548      -0.64829       0.00283
                        -----------------------------------------
Magnitude (a.u.)       :      0.70440
Magnitude (Debye)      :      1.79045

Rotational constants in cm-1:     0.016771     0.008467     0.007054
Rotational constants in MHz :   502.781710   253.824866   211.471552

                             ****ORCA TERMINATED NORMALLY****
TOTAL RUN TIME: 0 days 0 hours 0 minutes 28 seconds 244 msec
