                         Program Version 4.2.1 -  RELEASE  -
|  1> ! wB97X-D3 SP def2-SVP
|  2> %pal
|  3> nprocs 16
|  4> end
|  5>
|  6> * xyz 0 1
|  7> S 	 -38.9275 	 25.8694 	 75.8567
|  8> C 	 -37.8916 	 26.5095 	 74.6253
|  9> C 	 -36.8665 	 27.3209 	 75.0944
| 10> C 	 -36.9614 	 27.4337 	 76.4915
| 11> C 	 -37.9966 	 26.7169 	 77.0662
| 12> H 	 -36.3901 	 27.8994 	 77.2227
| 13> C 	 -35.7934 	 27.9644 	 74.2831
| 14> H 	 -35.9562 	 27.7562 	 73.2266
| 15> H 	 -34.8578 	 27.548 	 74.6409
| 16> C 	 -35.4568 	 29.4936 	 74.4844
| 17> H 	 -36.361 	 30.0673 	 74.336
| 18> H 	 -34.9205 	 29.6009 	 75.4471
| 19> C 	 -34.4311 	 29.9429 	 73.4836
| 20> H 	 -33.6138 	 29.253 	 73.4726
| 21> H 	 -34.918 	 30.0036 	 72.4908
| 22> H 	 -34.0464 	 30.9831 	 73.6009
| 23> S 	 -39.4333 	 25.411 	 79.0192
| 24> C 	 -39.3693 	 25.8767 	 80.6553
| 25> C 	 -38.9967 	 27.1409 	 80.6766
| 26> C 	 -38.3321 	 27.6266 	 79.5212
| 27> C 	 -38.3391 	 26.7506 	 78.5093
| 28> H 	 -39.0613 	 27.6947 	 81.5546
| 29> C 	 -37.8385 	 29.068 	 79.5383
| 30> H 	 -38.6544 	 29.7221 	 79.9521
| 31> H 	 -37.6266 	 29.4421 	 78.5646
| 32> C 	 -36.6593 	 29.4597 	 80.3596
| 33> H 	 -36.833 	 29.2361 	 81.4151
| 34> H 	 -36.4929 	 30.5686 	 80.3531
| 35> C 	 -35.356 	 28.7845 	 80.0127
| 36> H 	 -35.3036 	 28.9355 	 78.9596
| 37> H 	 -35.2626 	 27.6451 	 80.119
| 38> H 	 -34.5487 	 29.2474 	 80.6163
| 39> H 	 -37.9309 	 26.3055 	 73.5898
| 40> H 	 -40.0301 	 25.4331 	 81.3707
| 41> *
| 42>
| 43>                          ****END OF INPUT****

CARTESIAN COORDINATES (ANGSTROEM)
---------------------------------
  S    -38.927500   25.869400   75.856700
  C    -37.891600   26.509500   74.625300
  C    -36.866500   27.320900   75.094400
  C    -36.961400   27.433700   76.491500
  C    -37.996600   26.716900   77.066200
  H    -36.390100   27.899400   77.222700
  C    -35.793400   27.964400   74.283100
  H    -35.956200   27.756200   73.226600
  H    -34.857800   27.548000   74.640900
  C    -35.456800   29.493600   74.484400
  H    -36.361000   30.067300   74.336000
  H    -34.920500   29.600900   75.447100
  C    -34.431100   29.942900   73.483600
  H    -33.613800   29.253000   73.472600
  H    -34.918000   30.003600   72.490800
  H    -34.046400   30.983100   73.600900
  S    -39.433300   25.411000   79.019200
  C    -39.369300   25.876700   80.655300
  C    -38.996700   27.140900   80.676600
  C    -38.332100   27.626600   79.521200
  C    -38.339100   26.750600   78.509300
  H    -39.061300   27.694700   81.554600
  C    -37.838500   29.068000   79.538300
  H    -38.654400   29.722100   79.952100
  H    -37.626600   29.442100   78.564600
  C    -36.659300   29.459700   80.359600
  H    -36.833000   29.236100   81.415100
  H    -36.492900   30.568600   80.353100
  C    -35.356000   28.784500   80.012700
  H    -35.303600   28.935500   78.959600
  H    -35.262600   27.645100   80.119000
  H    -34.548700   29.247400   80.616300
  H    -37.930900   26.305500   73.589800
  H    -40.030100   25.433100   81.370700

 Total Charge           Charge          ....    0
 Multiplicity           Mult            ....    1
 Number of Electrons    NEL             ....  134
 Basis Dimension        Dim             ....  322

ORBITAL ENERGIES
----------------

  NO   OCC          E(Eh)            E(eV)
   0   2.0000     -88.971943     -2421.0496
   1   2.0000     -88.952777     -2420.5281
   2   2.0000     -10.331213      -281.1266
   3   2.0000     -10.330688      -281.1123
   4   2.0000     -10.310372      -280.5595
   5   2.0000     -10.306746      -280.4608
   6   2.0000     -10.301153      -280.3086
   7   2.0000     -10.300980      -280.3039
   8   2.0000     -10.294505      -280.1277
   9   2.0000     -10.291799      -280.0541
  10   2.0000     -10.290869      -280.0288
  11   2.0000     -10.286043      -279.8975
  12   2.0000     -10.285554      -279.8841
  13   2.0000     -10.281464      -279.7729
  14   2.0000     -10.279964      -279.7320
  15   2.0000     -10.279927      -279.7310
  16   2.0000      -8.086559      -220.0465
  17   2.0000      -8.068978      -219.5681
  18   2.0000      -6.045148      -164.4968
  19   2.0000      -6.041112      -164.3870
  20   2.0000      -6.037230      -164.2814
  21   2.0000      -6.027603      -164.0194
  22   2.0000      -6.023610      -163.9108
  23   2.0000      -6.019178      -163.7902
  24   2.0000      -1.016187       -27.6518
  25   2.0000      -0.995065       -27.0771
  26   2.0000      -0.919147       -25.0113
  27   2.0000      -0.916381       -24.9360
  28   2.0000      -0.876880       -23.8611
  29   2.0000      -0.860440       -23.4138
  30   2.0000      -0.847873       -23.0718
  31   2.0000      -0.821573       -22.3561
  32   2.0000      -0.786294       -21.3962
  33   2.0000      -0.777355       -21.1529
  34   2.0000      -0.709333       -19.3019
  35   2.0000      -0.695145       -18.9159
  36   2.0000      -0.692773       -18.8513
  37   2.0000      -0.665475       -18.1085
  38   2.0000      -0.648031       -17.6338
  39   2.0000      -0.622458       -16.9380
  40   2.0000      -0.607470       -16.5301
  41   2.0000      -0.588488       -16.0136
  42   2.0000      -0.566598       -15.4179
  43   2.0000      -0.556733       -15.1495
  44   2.0000      -0.546330       -14.8664
  45   2.0000      -0.522767       -14.2252
  46   2.0000      -0.521305       -14.1854
  47   2.0000      -0.516255       -14.0480
  48   2.0000      -0.507218       -13.8021
  49   2.0000      -0.504496       -13.7280
  50   2.0000      -0.495501       -13.4833
  51   2.0000      -0.480324       -13.0703
  52   2.0000      -0.471370       -12.8266
  53   2.0000      -0.470723       -12.8090
  54   2.0000      -0.464208       -12.6318
  55   2.0000      -0.449985       -12.2447
  56   2.0000      -0.443442       -12.0667
  57   2.0000      -0.439406       -11.9569
  58   2.0000      -0.436275       -11.8716
  59   2.0000      -0.433651       -11.8002
  60   2.0000      -0.417627       -11.3642
  61   2.0000      -0.407531       -11.0895
  62   2.0000      -0.404281       -11.0010
  63   2.0000      -0.364828        -9.9275
  64   2.0000      -0.335093        -9.1183
  65   2.0000      -0.323070        -8.7912
  66   2.0000      -0.288384        -7.8473
  67   0.0000       0.024244         0.6597
  68   0.0000       0.074658         2.0316
  69   0.0000       0.103071         2.8047
  70   0.0000       0.115949         3.1551
  71   0.0000       0.130336         3.5466

MULLIKEN ATOMIC CHARGES
-----------------------
   0 S :    0.129352
   1 C :   -0.100550
   2 C :   -0.033817
   3 C :    0.037320
   4 C :   -0.114857
   5 H :   -0.063570
   6 C :    0.059155
   7 H :    0.016193
   8 H :    0.030270
   9 C :   -0.077270
  10 H :    0.038161
  11 H :    0.037560
  12 C :   -0.055190
  13 H :    0.023687
  14 H :    0.025930
  15 H :    0.041368
  16 S :    0.039242
  17 C :   -0.040098
  18 C :   -0.020797
  19 C :   -0.030332
  20 C :   -0.138891
  21 H :   -0.006301
  22 C :    0.054627
  23 H :    0.038577
  24 H :    0.011239
  25 C :   -0.082130
  26 H :    0.016528
  27 H :    0.038501
  28 C :   -0.075572
  29 H :    0.022223
  30 H :    0.054132
  31 H :    0.044093
  32 H :    0.022751
  33 H :    0.058465
Sum of atomic charges:    0.0000000

LOEWDIN ATOMIC CHARGES
----------------------
   0 S :    0.419203
   1 C :   -0.197031
   2 C :   -0.060387
   3 C :   -0.059095
   4 C :   -0.187292
   5 H :    0.014793
   6 C :   -0.030837
   7 H :    0.027345
   8 H :    0.035795
   9 C :   -0.037517
  10 H :    0.023094
  11 H :    0.027582
  12 C :   -0.067744
  13 H :    0.019045
  14 H :    0.025466
  15 H :    0.031397
  16 S :    0.373672
  17 C :   -0.181592
  18 C :   -0.063599
  19 C :   -0.064527
  20 C :   -0.158786
  21 H :    0.019253
  22 C :   -0.033142
  23 H :    0.044830
  24 H :    0.021813
  25 C :   -0.049652
  26 H :    0.016679
  27 H :    0.033091
  28 C :   -0.074536
  29 H :    0.013427
  30 H :    0.036380
  31 H :    0.032532
  32 H :    0.019657
  33 H :    0.030683

  Mayer bond orders larger than 0.100000
B(  0-S ,  1-C ) :   1.1395 B(  0-S ,  4-C ) :   1.1419 B(  1-C ,  2-C ) :   1.6065
B(  1-C , 32-H ) :   0.9653 B(  2-C ,  3-C ) :   1.2115 B(  2-C ,  6-C ) :   1.0426
B(  3-C ,  4-C ) :   1.5918 B(  3-C ,  5-H ) :   1.0103 B(  4-C , 20-C ) :   1.0513
B(  6-C ,  7-H ) :   0.9440 B(  6-C ,  8-H ) :   0.9261 B(  6-C ,  9-C ) :   1.0596
B(  9-C , 10-H ) :   0.9602 B(  9-C , 11-H ) :   0.9506 B(  9-C , 12-C ) :   1.0910
B( 12-C , 13-H ) :   0.9710 B( 12-C , 14-H ) :   0.9737 B( 12-C , 15-H ) :   0.9725
B( 16-S , 17-C ) :   1.1422 B( 16-S , 20-C ) :   1.1146 B( 17-C , 18-C ) :   1.6387
B( 17-C , 33-H ) :   0.9643 B( 18-C , 19-C ) :   1.2192 B( 18-C , 21-H ) :   0.9958
B( 19-C , 20-C ) :   1.6277 B( 19-C , 22-C ) :   1.0336 B( 22-C , 23-H ) :   0.9299
B( 22-C , 24-H ) :   0.9356 B( 22-C , 25-C ) :   1.0916 B( 25-C , 26-H ) :   0.9476
B( 25-C , 27-H ) :   0.9503 B( 25-C , 28-C ) :   1.0739 B( 28-C , 29-H ) :   0.9696
B( 28-C , 30-H ) :   0.9736 B( 28-C , 31-H ) :   0.9689

Dispersion correction           -0.014063418
FINAL SINGLE POINT ENERGY     -1339.852355600341

DIPOLE MOMENT
-------------
                                X             Y             Z
Electronic contribution:    -22.52607     -22.74856       3.17976
Nuclear contribution   :     22.85199      23.46111      -3.10929
                        -----------------------------------------
Total Dipole Moment    :      0.32592       0.71255       0.07047
                        -----------------------------------------
Magnitude (a.u.)       :      0.78671
Magnitude (Debye)      :      1.99967

Rotational constants in cm-1:     0.018665     0.009184     0.006425
Rotational constants in MHz :   559.560982   275.340886   192.609296

                             ****ORCA TERMINATED NORMALLY****
TOTAL RUN TIME: 0 days 0 hours 0 minutes 30 seconds 584 msec
