                         Program Version 4.2.1 -  RELEASE  -
|  1> ! wB97X-D3 SP def2-SVP
|  2> %pal
|  3> nprocs 16
|  4> end
|  5>
|  6> * xyz 0 1
|  7> S 	 -77.9751 	 48.0097 	 137.769
|  8> C 	 -79.5701 	 47.9033 	 138.38
|  9> C 	 -80.2058 	 49.0537 	 138.551
| 10> C 	 -79.4383 	 50.1064 	 138.044
| 11> C 	 -78.1392 	 49.7351 	 137.67
| 12> H 	 -79.7517 	 51.1392 	 138.002
| 13> C 	 -81.4834 	 49.3245 	 139.364
| 14> H 	 -81.8753 	 48.2601 	 139.584
| 15> H 	 -82.3402 	 49.5348 	 138.785
| 16> C 	 -81.2458 	 50.1475 	 140.652
| 17> H 	 -80.3484 	 49.8909 	 141.222
| 18> H 	 -81.083 	 51.1721 	 140.33
| 19> C 	 -82.3305 	 50.1757 	 141.694
| 20> H 	 -82.0925 	 50.7226 	 142.581
| 21> H 	 -83.3036 	 50.4585 	 141.311
| 22> H 	 -82.3699 	 49.1779 	 142.048
| 23> S 	 -76.7176 	 50.3177 	 135.356
| 24> C 	 -76.0917 	 51.9376 	 135.148
| 25> C 	 -76.2839 	 52.7469 	 136.242
| 26> C 	 -76.9146 	 52.0274 	 137.31
| 27> C 	 -77.1794 	 50.7073 	 137.029
| 28> H 	 -75.8829 	 53.6741 	 136.208
| 29> C 	 -77.2454 	 52.7661 	 138.573
| 30> H 	 -76.2469 	 53.0168 	 139.022
| 31> H 	 -77.685 	 52.0935 	 139.345
| 32> C 	 -78.0519 	 54.1338 	 138.436
| 33> H 	 -77.3775 	 54.7636 	 137.889
| 34> H 	 -78.316 	 54.463 	 139.426
| 35> C 	 -79.4572 	 54.0444 	 137.854
| 36> H 	 -79.9157 	 55.0349 	 137.85
| 37> H 	 -80.059 	 53.2558 	 138.442
| 38> H 	 -79.4694 	 53.793 	 136.789
| 39> H 	 -79.9023 	 46.9977 	 138.844
| 40> H 	 -75.4486 	 52.2421 	 134.276
| 41> *
| 42>
| 43>                          ****END OF INPUT****

CARTESIAN COORDINATES (ANGSTROEM)
---------------------------------
  S    -77.975100   48.009700  137.769000
  C    -79.570100   47.903300  138.380000
  C    -80.205800   49.053700  138.551000
  C    -79.438300   50.106400  138.044000
  C    -78.139200   49.735100  137.670000
  H    -79.751700   51.139200  138.002000
  C    -81.483400   49.324500  139.364000
  H    -81.875300   48.260100  139.584000
  H    -82.340200   49.534800  138.785000
  C    -81.245800   50.147500  140.652000
  H    -80.348400   49.890900  141.222000
  H    -81.083000   51.172100  140.330000
  C    -82.330500   50.175700  141.694000
  H    -82.092500   50.722600  142.581000
  H    -83.303600   50.458500  141.311000
  H    -82.369900   49.177900  142.048000
  S    -76.717600   50.317700  135.356000
  C    -76.091700   51.937600  135.148000
  C    -76.283900   52.746900  136.242000
  C    -76.914600   52.027400  137.310000
  C    -77.179400   50.707300  137.029000
  H    -75.882900   53.674100  136.208000
  C    -77.245400   52.766100  138.573000
  H    -76.246900   53.016800  139.022000
  H    -77.685000   52.093500  139.345000
  C    -78.051900   54.133800  138.436000
  H    -77.377500   54.763600  137.889000
  H    -78.316000   54.463000  139.426000
  C    -79.457200   54.044400  137.854000
  H    -79.915700   55.034900  137.850000
  H    -80.059000   53.255800  138.442000
  H    -79.469400   53.793000  136.789000
  H    -79.902300   46.997700  138.844000
  H    -75.448600   52.242100  134.276000

 Total Charge           Charge          ....    0
 Multiplicity           Mult            ....    1
 Number of Electrons    NEL             ....  134
 Basis Dimension        Dim             ....  322

ORBITAL ENERGIES
----------------

  NO   OCC          E(Eh)            E(eV)
   0   2.0000     -88.968126     -2420.9458
   1   2.0000     -88.961398     -2420.7627
   2   2.0000     -10.329813      -281.0885
   3   2.0000     -10.327813      -281.0341
   4   2.0000     -10.319680      -280.8128
   5   2.0000     -10.303097      -280.3615
   6   2.0000     -10.302904      -280.3563
   7   2.0000     -10.300644      -280.2948
   8   2.0000     -10.295833      -280.1639
   9   2.0000     -10.292406      -280.0706
  10   2.0000     -10.290015      -280.0055
  11   2.0000     -10.289669      -279.9961
  12   2.0000     -10.287287      -279.9313
  13   2.0000     -10.286371      -279.9064
  14   2.0000     -10.285125      -279.8725
  15   2.0000     -10.272346      -279.5247
  16   2.0000      -8.083719      -219.9692
  17   2.0000      -8.076041      -219.7603
  18   2.0000      -6.042088      -164.4136
  19   2.0000      -6.038212      -164.3081
  20   2.0000      -6.034586      -164.2094
  21   2.0000      -6.034482      -164.2066
  22   2.0000      -6.030634      -164.1019
  23   2.0000      -6.026691      -163.9946
  24   2.0000      -1.010291       -27.4914
  25   2.0000      -0.987764       -26.8784
  26   2.0000      -0.911880       -24.8135
  27   2.0000      -0.903620       -24.5888
  28   2.0000      -0.870038       -23.6749
  29   2.0000      -0.855623       -23.2827
  30   2.0000      -0.849569       -23.1180
  31   2.0000      -0.815037       -22.1783
  32   2.0000      -0.786815       -21.4103
  33   2.0000      -0.772700       -21.0262
  34   2.0000      -0.709469       -19.3056
  35   2.0000      -0.698773       -19.0146
  36   2.0000      -0.687421       -18.7057
  37   2.0000      -0.661714       -18.0062
  38   2.0000      -0.641774       -17.4636
  39   2.0000      -0.622875       -16.9493
  40   2.0000      -0.592828       -16.1317
  41   2.0000      -0.577282       -15.7087
  42   2.0000      -0.560950       -15.2642
  43   2.0000      -0.555677       -15.1207
  44   2.0000      -0.542390       -14.7592
  45   2.0000      -0.536664       -14.6034
  46   2.0000      -0.524125       -14.2622
  47   2.0000      -0.508878       -13.8473
  48   2.0000      -0.502529       -13.6745
  49   2.0000      -0.495257       -13.4766
  50   2.0000      -0.484402       -13.1812
  51   2.0000      -0.476662       -12.9706
  52   2.0000      -0.467636       -12.7250
  53   2.0000      -0.463772       -12.6199
  54   2.0000      -0.460768       -12.5381
  55   2.0000      -0.446058       -12.1378
  56   2.0000      -0.442126       -12.0309
  57   2.0000      -0.439952       -11.9717
  58   2.0000      -0.435514       -11.8509
  59   2.0000      -0.432389       -11.7659
  60   2.0000      -0.424558       -11.5528
  61   2.0000      -0.410793       -11.1782
  62   2.0000      -0.405063       -11.0223
  63   2.0000      -0.346267        -9.4224
  64   2.0000      -0.336067        -9.1448
  65   2.0000      -0.327091        -8.9006
  66   2.0000      -0.294956        -8.0262
  67   0.0000       0.036068         0.9815
  68   0.0000       0.074267         2.0209
  69   0.0000       0.113844         3.0979
  70   0.0000       0.121399         3.3034
  71   0.0000       0.123871         3.3707

MULLIKEN ATOMIC CHARGES
-----------------------
   0 S :    0.119521
   1 C :   -0.112006
   2 C :   -0.064791
   3 C :    0.040816
   4 C :   -0.165808
   5 H :   -0.027229
   6 C :    0.078870
   7 H :    0.001108
   8 H :    0.023858
   9 C :   -0.068881
  10 H :    0.035560
  11 H :    0.023548
  12 C :   -0.014354
  13 H :    0.028977
  14 H :    0.028374
  15 H :    0.013611
  16 S :    0.089073
  17 C :   -0.113646
  18 C :    0.002222
  19 C :   -0.032327
  20 C :   -0.112936
  21 H :   -0.020458
  22 C :    0.004618
  23 H :    0.042978
  24 H :    0.027518
  25 C :   -0.048249
  26 H :    0.030912
  27 H :    0.031970
  28 C :   -0.084713
  29 H :    0.038142
  30 H :    0.055615
  31 H :    0.038744
  32 H :    0.034965
  33 H :    0.074396
Sum of atomic charges:   -0.0000000

LOEWDIN ATOMIC CHARGES
----------------------
   0 S :    0.425948
   1 C :   -0.198091
   2 C :   -0.071584
   3 C :   -0.052290
   4 C :   -0.203024
   5 H :    0.024786
   6 C :   -0.032059
   7 H :    0.033264
   8 H :    0.027648
   9 C :   -0.040620
  10 H :    0.031934
  11 H :    0.019324
  12 C :   -0.058731
  13 H :    0.026952
  14 H :    0.022443
  15 H :    0.021155
  16 S :    0.386410
  17 C :   -0.180168
  18 C :   -0.064696
  19 C :   -0.057835
  20 C :   -0.188928
  21 H :    0.014766
  22 C :   -0.041449
  23 H :    0.039989
  24 H :    0.029023
  25 C :   -0.033770
  26 H :    0.019086
  27 H :    0.027960
  28 C :   -0.074065
  29 H :    0.029088
  30 H :    0.032482
  31 H :    0.024155
  32 H :    0.021630
  33 H :    0.039263

  Mayer bond orders larger than 0.100000
B(  0-S ,  1-C ) :   1.1492 B(  0-S ,  4-C ) :   1.1619 B(  1-C ,  2-C ) :   1.6448
B(  1-C , 32-H ) :   0.9515 B(  2-C ,  3-C ) :   1.2540 B(  2-C ,  6-C ) :   1.0177
B(  3-C ,  4-C ) :   1.5573 B(  3-C ,  5-H ) :   0.9943 B(  4-C , 20-C ) :   1.0001
B(  6-C ,  7-H ) :   0.9351 B(  6-C ,  8-H ) :   0.9342 B(  6-C ,  9-C ) :   1.0396
B(  9-C , 10-H ) :   0.9585 B(  9-C , 11-H ) :   0.9510 B(  9-C , 12-C ) :   1.0970
B( 12-C , 13-H ) :   0.9717 B( 12-C , 14-H ) :   0.9740 B( 12-C , 15-H ) :   0.9729
B( 16-S , 17-C ) :   1.1607 B( 16-S , 20-C ) :   1.1193 B( 17-C , 18-C ) :   1.6303
B( 17-C , 33-H ) :   0.9554 B( 18-C , 19-C ) :   1.1985 B( 18-C , 21-H ) :   1.0111
B( 19-C , 20-C ) :   1.6435 B( 19-C , 22-C ) :   1.0403 B( 22-C , 23-H ) :   0.9355
B( 22-C , 24-H ) :   0.9403 B( 22-C , 25-C ) :   1.0668 B( 25-C , 26-H ) :   0.9541
B( 25-C , 27-H ) :   0.9566 B( 25-C , 28-C ) :   1.0801 B( 28-C , 29-H ) :   0.9690
B( 28-C , 30-H ) :   0.9618 B( 28-C , 31-H ) :   0.9716

Dispersion correction           -0.015129430
FINAL SINGLE POINT ENERGY     -1339.861060706117

DIPOLE MOMENT
-------------
                                X             Y             Z
Electronic contribution:     18.78564     -16.96827     -19.06920
Nuclear contribution   :    -19.11089      17.54155      19.52662
                        -----------------------------------------
Total Dipole Moment    :     -0.32526       0.57328       0.45742
                        -----------------------------------------
Magnitude (a.u.)       :      0.80229
Magnitude (Debye)      :      2.03927

Rotational constants in cm-1:     0.018207     0.009760     0.006841
Rotational constants in MHz :   545.831092   292.591515   205.089506

                             ****ORCA TERMINATED NORMALLY****
TOTAL RUN TIME: 0 days 0 hours 0 minutes 36 seconds 939 msec
