                         Program Version 4.2.1 -  RELEASE  -
|  1> ! wB97X-D3 SP def2-SVP
|  2> %pal
|  3> nprocs 16
|  4> end
|  5>
|  6> * xyz 0 1
|  7> S 	 66.217 	 18.0676 	 75.4473
|  8> C 	 67.5809 	 18.2666 	 76.4366
|  9> C 	 68.4181 	 19.303 	 76.0304
| 10> C 	 67.8654 	 20.0363 	 74.969
| 11> C 	 66.6204 	 19.5162 	 74.5361
| 12> H 	 68.2142 	 20.8848 	 74.3448
| 13> C 	 69.7609 	 19.6541 	 76.5279
| 14> H 	 69.4869 	 20.2265 	 77.3788
| 15> H 	 70.189 	 20.3129 	 75.795
| 16> C 	 70.6902 	 18.3958 	 76.7251
| 17> H 	 70.3156 	 17.5747 	 77.3136
| 18> H 	 70.7972 	 17.9271 	 75.7444
| 19> C 	 72.0613 	 18.7486 	 77.406
| 20> H 	 72.3563 	 19.6277 	 76.9359
| 21> H 	 71.8709 	 18.8845 	 78.4896
| 22> H 	 72.6719 	 17.8785 	 77.2252
| 23> S 	 65.7567 	 18.8289 	 72.0505
| 24> C 	 64.6256 	 19.7734 	 71.1974
| 25> C 	 64.2645 	 20.8621 	 71.994
| 26> C 	 64.9637 	 20.966 	 73.2502
| 27> C 	 65.8015 	 19.8876 	 73.4082
| 28> H 	 63.4258 	 21.4882 	 71.7188
| 29> C 	 64.7872 	 22.1408 	 74.18
| 30> H 	 64.4967 	 23.0364 	 73.6967
| 31> H 	 65.7939 	 22.3687 	 74.5115
| 32> C 	 63.8056 	 21.8947 	 75.28
| 33> H 	 64.2014 	 22.608 	 76.0356
| 34> H 	 63.8489 	 20.8921 	 75.6103
| 35> C 	 62.3228 	 22.1114 	 74.9675
| 36> H 	 61.6324 	 21.883 	 75.8036
| 37> H 	 62.0566 	 21.447 	 74.134
| 38> H 	 62.0903 	 23.1001 	 74.5135
| 39> H 	 67.8757 	 17.4972 	 77.162
| 40> H 	 64.2162 	 19.5486 	 70.2556
| 41> *
| 42>
| 43>                          ****END OF INPUT****

CARTESIAN COORDINATES (ANGSTROEM)
---------------------------------
  S     66.217000   18.067600   75.447300
  C     67.580900   18.266600   76.436600
  C     68.418100   19.303000   76.030400
  C     67.865400   20.036300   74.969000
  C     66.620400   19.516200   74.536100
  H     68.214200   20.884800   74.344800
  C     69.760900   19.654100   76.527900
  H     69.486900   20.226500   77.378800
  H     70.189000   20.312900   75.795000
  C     70.690200   18.395800   76.725100
  H     70.315600   17.574700   77.313600
  H     70.797200   17.927100   75.744400
  C     72.061300   18.748600   77.406000
  H     72.356300   19.627700   76.935900
  H     71.870900   18.884500   78.489600
  H     72.671900   17.878500   77.225200
  S     65.756700   18.828900   72.050500
  C     64.625600   19.773400   71.197400
  C     64.264500   20.862100   71.994000
  C     64.963700   20.966000   73.250200
  C     65.801500   19.887600   73.408200
  H     63.425800   21.488200   71.718800
  C     64.787200   22.140800   74.180000
  H     64.496700   23.036400   73.696700
  H     65.793900   22.368700   74.511500
  C     63.805600   21.894700   75.280000
  H     64.201400   22.608000   76.035600
  H     63.848900   20.892100   75.610300
  C     62.322800   22.111400   74.967500
  H     61.632400   21.883000   75.803600
  H     62.056600   21.447000   74.134000
  H     62.090300   23.100100   74.513500
  H     67.875700   17.497200   77.162000
  H     64.216200   19.548600   70.255600

 Total Charge           Charge          ....    0
 Multiplicity           Mult            ....    1
 Number of Electrons    NEL             ....  134
 Basis Dimension        Dim             ....  322

ORBITAL ENERGIES
----------------

  NO   OCC          E(Eh)            E(eV)
   0   2.0000     -88.966248     -2420.8947
   1   2.0000     -88.962584     -2420.7950
   2   2.0000     -10.324949      -280.9562
   3   2.0000     -10.317644      -280.7574
   4   2.0000     -10.311167      -280.5811
   5   2.0000     -10.308520      -280.5091
   6   2.0000     -10.298067      -280.2246
   7   2.0000     -10.296489      -280.1817
   8   2.0000     -10.295883      -280.1652
   9   2.0000     -10.290767      -280.0260
  10   2.0000     -10.289030      -279.9788
  11   2.0000     -10.287805      -279.9454
  12   2.0000     -10.282778      -279.8086
  13   2.0000     -10.279497      -279.7193
  14   2.0000     -10.277736      -279.6714
  15   2.0000     -10.276237      -279.6306
  16   2.0000      -8.081530      -219.9096
  17   2.0000      -8.078644      -219.8311
  18   2.0000      -6.039699      -164.3486
  19   2.0000      -6.037013      -164.2755
  20   2.0000      -6.035893      -164.2450
  21   2.0000      -6.032749      -164.1594
  22   2.0000      -6.032701      -164.1581
  23   2.0000      -6.029692      -164.0763
  24   2.0000      -1.011130       -27.5142
  25   2.0000      -0.988876       -26.9087
  26   2.0000      -0.916009       -24.9259
  27   2.0000      -0.911972       -24.8160
  28   2.0000      -0.867518       -23.6064
  29   2.0000      -0.856040       -23.2940
  30   2.0000      -0.845819       -23.0159
  31   2.0000      -0.810946       -22.0670
  32   2.0000      -0.786478       -21.4011
  33   2.0000      -0.770708       -20.9720
  34   2.0000      -0.710707       -19.3393
  35   2.0000      -0.700974       -19.0745
  36   2.0000      -0.688194       -18.7267
  37   2.0000      -0.664124       -18.0717
  38   2.0000      -0.644215       -17.5300
  39   2.0000      -0.611056       -16.6277
  40   2.0000      -0.600850       -16.3499
  41   2.0000      -0.576374       -15.6839
  42   2.0000      -0.557027       -15.1575
  43   2.0000      -0.550711       -14.9856
  44   2.0000      -0.539296       -14.6750
  45   2.0000      -0.530563       -14.4374
  46   2.0000      -0.522741       -14.2245
  47   2.0000      -0.514112       -13.9897
  48   2.0000      -0.507737       -13.8162
  49   2.0000      -0.501438       -13.6448
  50   2.0000      -0.486386       -13.2352
  51   2.0000      -0.485826       -13.2200
  52   2.0000      -0.471044       -12.8178
  53   2.0000      -0.469751       -12.7826
  54   2.0000      -0.460803       -12.5391
  55   2.0000      -0.449023       -12.2186
  56   2.0000      -0.445168       -12.1136
  57   2.0000      -0.434604       -11.8262
  58   2.0000      -0.431320       -11.7368
  59   2.0000      -0.425983       -11.5916
  60   2.0000      -0.420563       -11.4441
  61   2.0000      -0.415571       -11.3083
  62   2.0000      -0.401926       -10.9370
  63   2.0000      -0.338363        -9.2073
  64   2.0000      -0.328290        -8.9332
  65   2.0000      -0.324512        -8.8304
  66   2.0000      -0.296191        -8.0598
  67   0.0000       0.040042         1.0896
  68   0.0000       0.061784         1.6812
  69   0.0000       0.124128         3.3777
  70   0.0000       0.125781         3.4227
  71   0.0000       0.135180         3.6784

MULLIKEN ATOMIC CHARGES
-----------------------
   0 S :    0.130463
   1 C :   -0.134154
   2 C :   -0.104765
   3 C :    0.030867
   4 C :   -0.208122
   5 H :    0.028424
   6 C :    0.124171
   7 H :    0.037024
   8 H :    0.020597
   9 C :   -0.136434
  10 H :    0.025257
  11 H :    0.034446
  12 C :   -0.010626
  13 H :    0.021530
  14 H :    0.041915
  15 H :    0.038375
  16 S :    0.126904
  17 C :   -0.076745
  18 C :   -0.046137
  19 C :   -0.042128
  20 C :   -0.199383
  21 H :    0.015644
  22 C :    0.123914
  23 H :    0.002068
  24 H :    0.014285
  25 C :   -0.038383
  26 H :    0.032448
  27 H :    0.023936
  28 C :   -0.066296
  29 H :    0.050856
  30 H :    0.022328
  31 H :    0.022167
  32 H :    0.054398
  33 H :    0.041153
Sum of atomic charges:   -0.0000000

LOEWDIN ATOMIC CHARGES
----------------------
   0 S :    0.435319
   1 C :   -0.225001
   2 C :   -0.067202
   3 C :   -0.065614
   4 C :   -0.200344
   5 H :    0.040595
   6 C :   -0.027914
   7 H :    0.034610
   8 H :    0.030516
   9 C :   -0.037445
  10 H :    0.017551
  11 H :    0.025813
  12 C :   -0.053941
  13 H :    0.013617
  14 H :    0.030825
  15 H :    0.027552
  16 S :    0.440769
  17 C :   -0.197728
  18 C :   -0.074503
  19 C :   -0.052265
  20 C :   -0.225924
  21 H :    0.026003
  22 C :   -0.027410
  23 H :    0.025648
  24 H :    0.032507
  25 C :   -0.036583
  26 H :    0.030404
  27 H :    0.021291
  28 C :   -0.072379
  29 H :    0.032801
  30 H :    0.025302
  31 H :    0.022378
  32 H :    0.028813
  33 H :    0.021936

  Mayer bond orders larger than 0.100000
B(  0-S ,  1-C ) :   1.1681 B(  0-S ,  4-C ) :   1.1775 B(  1-C ,  2-C ) :   1.5676
B(  1-C ,  4-C ) :   0.1093 B(  1-C , 32-H ) :   0.9652 B(  2-C ,  3-C ) :   1.2725
B(  2-C ,  6-C ) :   1.0060 B(  3-C ,  4-C ) :   1.5576 B(  3-C ,  5-H ) :   0.9843
B(  4-C , 20-C ) :   1.0214 B(  6-C ,  7-H ) :   0.9291 B(  6-C ,  8-H ) :   0.9398
B(  6-C ,  9-C ) :   1.0506 B(  9-C , 10-H ) :   0.9629 B(  9-C , 11-H ) :   0.9609
B(  9-C , 12-C ) :   1.0715 B( 12-C , 13-H ) :   0.9780 B( 12-C , 14-H ) :   0.9793
B( 12-C , 15-H ) :   0.9757 B( 16-S , 17-C ) :   1.1712 B( 16-S , 20-C ) :   1.1687
B( 17-C , 18-C ) :   1.5736 B( 17-C , 33-H ) :   0.9775 B( 18-C , 19-C ) :   1.2632
B( 18-C , 21-H ) :   0.9867 B( 19-C , 20-C ) :   1.5822 B( 19-C , 22-C ) :   1.0439
B( 22-C , 23-H ) :   0.9269 B( 22-C , 24-H ) :   0.9258 B( 22-C , 25-C ) :   1.0621
B( 25-C , 26-H ) :   0.9537 B( 25-C , 27-H ) :   0.9563 B( 25-C , 28-C ) :   1.0792
B( 28-C , 29-H ) :   0.9742 B( 28-C , 30-H ) :   0.9706 B( 28-C , 31-H ) :   0.9736

Dispersion correction           -0.014329141
FINAL SINGLE POINT ENERGY     -1339.870948062571

DIPOLE MOMENT
-------------
                                X             Y             Z
Electronic contribution:     -7.39190     -11.49336     -13.64296
Nuclear contribution   :      7.60142      11.77505      13.76400
                        -----------------------------------------
Total Dipole Moment    :      0.20951       0.28169       0.12105
                        -----------------------------------------
Magnitude (a.u.)       :      0.37134
Magnitude (Debye)      :      0.94388

Rotational constants in cm-1:     0.023864     0.007147     0.006363
Rotational constants in MHz :   715.410063   214.252841   190.745703

                             ****ORCA TERMINATED NORMALLY****
TOTAL RUN TIME: 0 days 0 hours 0 minutes 29 seconds 613 msec
