                         Program Version 4.2.1 -  RELEASE  -
|  1> ! wB97X-D3 SP def2-SVP
|  2> %pal
|  3> nprocs 16
|  4> end
|  5>
|  6> * xyz 0 1
|  7> S 	 11.1364 	 -7.53965 	 72.4006
|  8> C 	 11.1544 	 -7.12141 	 74.0696
|  9> C 	 10.3253 	 -6.03777 	 74.3131
| 10> C 	 9.35148 	 -5.84363 	 73.2122
| 11> C 	 9.59302 	 -6.68635 	 72.1468
| 12> H 	 8.48905 	 -5.17275 	 73.2659
| 13> C 	 10.0917 	 -5.37072 	 75.725
| 14> H 	 10.9756 	 -5.64436 	 76.2874
| 15> H 	 9.14166 	 -5.7635 	 76.2505
| 16> C 	 10.0242 	 -3.85767 	 75.5988
| 17> H 	 9.19144 	 -3.60273 	 74.9285
| 18> H 	 9.82425 	 -3.41709 	 76.6299
| 19> C 	 11.4122 	 -3.41633 	 75.0214
| 20> H 	 11.4083 	 -2.32985 	 75.033
| 21> H 	 12.2482 	 -3.87894 	 75.5743
| 22> H 	 11.5644 	 -3.76939 	 74.0377
| 23> S 	 9.52509 	 -7.71434 	 69.5849
| 24> C 	 7.88978 	 -8.00416 	 68.9058
| 25> C 	 6.91239 	 -7.4395 	 69.6573
| 26> C 	 7.36822 	 -6.87007 	 70.8767
| 27> C 	 8.79039 	 -6.95555 	 70.9537
| 28> H 	 5.87725 	 -7.48772 	 69.3392
| 29> C 	 6.4632 	 -6.33308 	 71.9399
| 30> H 	 6.84261 	 -5.31215 	 71.9438
| 31> H 	 6.75704 	 -6.81272 	 72.8763
| 32> C 	 4.93445 	 -6.5547 	 71.6281
| 33> H 	 4.65918 	 -7.58496 	 71.4347
| 34> H 	 4.64067 	 -5.88397 	 70.811
| 35> C 	 4.11452 	 -6.08743 	 72.816
| 36> H 	 4.30439 	 -5.12916 	 73.3008
| 37> H 	 4.12059 	 -6.84404 	 73.6468
| 38> H 	 3.12689 	 -6.09253 	 72.3804
| 39> H 	 11.8873 	 -7.48656 	 74.8319
| 40> H 	 7.73504 	 -8.50288 	 67.9708
| 41> *
| 42>
| 43>                          ****END OF INPUT****

CARTESIAN COORDINATES (ANGSTROEM)
---------------------------------
  S     11.136400   -7.539650   72.400600
  C     11.154400   -7.121410   74.069600
  C     10.325300   -6.037770   74.313100
  C      9.351480   -5.843630   73.212200
  C      9.593020   -6.686350   72.146800
  H      8.489050   -5.172750   73.265900
  C     10.091700   -5.370720   75.725000
  H     10.975600   -5.644360   76.287400
  H      9.141660   -5.763500   76.250500
  C     10.024200   -3.857670   75.598800
  H      9.191440   -3.602730   74.928500
  H      9.824250   -3.417090   76.629900
  C     11.412200   -3.416330   75.021400
  H     11.408300   -2.329850   75.033000
  H     12.248200   -3.878940   75.574300
  H     11.564400   -3.769390   74.037700
  S      9.525090   -7.714340   69.584900
  C      7.889780   -8.004160   68.905800
  C      6.912390   -7.439500   69.657300
  C      7.368220   -6.870070   70.876700
  C      8.790390   -6.955550   70.953700
  H      5.877250   -7.487720   69.339200
  C      6.463200   -6.333080   71.939900
  H      6.842610   -5.312150   71.943800
  H      6.757040   -6.812720   72.876300
  C      4.934450   -6.554700   71.628100
  H      4.659180   -7.584960   71.434700
  H      4.640670   -5.883970   70.811000
  C      4.114520   -6.087430   72.816000
  H      4.304390   -5.129160   73.300800
  H      4.120590   -6.844040   73.646800
  H      3.126890   -6.092530   72.380400
  H     11.887300   -7.486560   74.831900
  H      7.735040   -8.502880   67.970800

 Total Charge           Charge          ....    0
 Multiplicity           Mult            ....    1
 Number of Electrons    NEL             ....  134
 Basis Dimension        Dim             ....  322

ORBITAL ENERGIES
----------------

  NO   OCC          E(Eh)            E(eV)
   0   2.0000     -88.966966     -2420.9142
   1   2.0000     -88.960781     -2420.7459
   2   2.0000     -10.332347      -281.1575
   3   2.0000     -10.325973      -280.9840
   4   2.0000     -10.315996      -280.7125
   5   2.0000     -10.315647      -280.7030
   6   2.0000     -10.306137      -280.4442
   7   2.0000     -10.303055      -280.3604
   8   2.0000     -10.299112      -280.2531
   9   2.0000     -10.298203      -280.2284
  10   2.0000     -10.296939      -280.1939
  11   2.0000     -10.295950      -280.1671
  12   2.0000     -10.292602      -280.0759
  13   2.0000     -10.291575      -280.0480
  14   2.0000     -10.281148      -279.7643
  15   2.0000     -10.273029      -279.5433
  16   2.0000      -8.081376      -219.9054
  17   2.0000      -8.076007      -219.7593
  18   2.0000      -6.039876      -164.3534
  19   2.0000      -6.036113      -164.2510
  20   2.0000      -6.034704      -164.2126
  21   2.0000      -6.032007      -164.1392
  22   2.0000      -6.030705      -164.1038
  23   2.0000      -6.026268      -163.9831
  24   2.0000      -1.003888       -27.3172
  25   2.0000      -0.980249       -26.6739
  26   2.0000      -0.913888       -24.8682
  27   2.0000      -0.907633       -24.6980
  28   2.0000      -0.869172       -23.6514
  29   2.0000      -0.858350       -23.3569
  30   2.0000      -0.833640       -22.6845
  31   2.0000      -0.814409       -22.1612
  32   2.0000      -0.778037       -21.1715
  33   2.0000      -0.766486       -20.8571
  34   2.0000      -0.711176       -19.3521
  35   2.0000      -0.702493       -19.1158
  36   2.0000      -0.685812       -18.6619
  37   2.0000      -0.649865       -17.6837
  38   2.0000      -0.632514       -17.2116
  39   2.0000      -0.621849       -16.9214
  40   2.0000      -0.595584       -16.2067
  41   2.0000      -0.578510       -15.7421
  42   2.0000      -0.559450       -15.2234
  43   2.0000      -0.548345       -14.9212
  44   2.0000      -0.538298       -14.6478
  45   2.0000      -0.536175       -14.5901
  46   2.0000      -0.516940       -14.0667
  47   2.0000      -0.510040       -13.8789
  48   2.0000      -0.498134       -13.5549
  49   2.0000      -0.492152       -13.3921
  50   2.0000      -0.489658       -13.3243
  51   2.0000      -0.480619       -13.0783
  52   2.0000      -0.480002       -13.0615
  53   2.0000      -0.461607       -12.5610
  54   2.0000      -0.456025       -12.4091
  55   2.0000      -0.450889       -12.2693
  56   2.0000      -0.445891       -12.1333
  57   2.0000      -0.436442       -11.8762
  58   2.0000      -0.434263       -11.8169
  59   2.0000      -0.427727       -11.6390
  60   2.0000      -0.419093       -11.4041
  61   2.0000      -0.413796       -11.2600
  62   2.0000      -0.406311       -11.0563
  63   2.0000      -0.360565        -9.8115
  64   2.0000      -0.335283        -9.1235
  65   2.0000      -0.321366        -8.7448
  66   2.0000      -0.277681        -7.5561
  67   0.0000       0.020907         0.5689
  68   0.0000       0.076225         2.0742
  69   0.0000       0.096416         2.6236
  70   0.0000       0.123367         3.3570
  71   0.0000       0.135633         3.6907

MULLIKEN ATOMIC CHARGES
-----------------------
   0 S :    0.094895
   1 C :   -0.126726
   2 C :   -0.113588
   3 C :   -0.021621
   4 C :   -0.117418
   5 H :    0.019127
   6 C :    0.030251
   7 H :    0.014283
   8 H :    0.057223
   9 C :   -0.097598
  10 H :    0.035721
  11 H :    0.044227
  12 C :   -0.043024
  13 H :    0.036305
  14 H :    0.028900
  15 H :    0.041550
  16 S :    0.097838
  17 C :   -0.082421
  18 C :   -0.021962
  19 C :   -0.094393
  20 C :   -0.118587
  21 H :    0.018969
  22 C :    0.033683
  23 H :    0.059046
  24 H :    0.048642
  25 C :   -0.076532
  26 H :    0.046493
  27 H :    0.039262
  28 C :   -0.045162
  29 H :    0.036876
  30 H :    0.034633
  31 H :    0.027323
  32 H :    0.066438
  33 H :    0.047349
Sum of atomic charges:   -0.0000000

LOEWDIN ATOMIC CHARGES
----------------------
   0 S :    0.383679
   1 C :   -0.210686
   2 C :   -0.066148
   3 C :   -0.074206
   4 C :   -0.169778
   5 H :    0.028912
   6 C :   -0.035478
   7 H :    0.021450
   8 H :    0.037024
   9 C :   -0.046698
  10 H :    0.022001
  11 H :    0.030782
  12 C :   -0.060035
  13 H :    0.024456
  14 H :    0.027952
  15 H :    0.023090
  16 S :    0.391676
  17 C :   -0.165512
  18 C :   -0.072847
  19 C :   -0.051718
  20 C :   -0.210305
  21 H :    0.034220
  22 C :   -0.037264
  23 H :    0.039462
  24 H :    0.037168
  25 C :   -0.035153
  26 H :    0.030753
  27 H :    0.028959
  28 C :   -0.068406
  29 H :    0.024870
  30 H :    0.027440
  31 H :    0.026080
  32 H :    0.039654
  33 H :    0.024606

  Mayer bond orders larger than 0.100000
B(  0-S ,  1-C ) :   1.1313 B(  0-S ,  4-C ) :   1.1176 B(  1-C ,  2-C ) :   1.6507
B(  1-C , 32-H ) :   0.9573 B(  2-C ,  3-C ) :   1.1723 B(  2-C ,  6-C ) :   1.0116
B(  3-C ,  4-C ) :   1.6047 B(  3-C ,  5-H ) :   0.9853 B(  4-C , 20-C ) :   1.0963
B(  6-C ,  7-H ) :   0.9457 B(  6-C ,  8-H ) :   0.9500 B(  6-C ,  9-C ) :   1.0657
B(  9-C , 10-H ) :   0.9548 B(  9-C , 11-H ) :   0.9577 B(  9-C , 12-C ) :   1.0641
B( 12-C , 13-H ) :   0.9752 B( 12-C , 14-H ) :   0.9760 B( 12-C , 15-H ) :   0.9699
B( 16-S , 17-C ) :   1.1366 B( 16-S , 20-C ) :   1.1387 B( 17-C , 18-C ) :   1.6072
B( 17-C , 33-H ) :   0.9661 B( 18-C , 19-C ) :   1.2699 B( 18-C , 21-H ) :   0.9836
B( 19-C , 20-C ) :   1.5565 B( 19-C , 22-C ) :   1.0134 B( 22-C , 23-H ) :   0.9233
B( 22-C , 24-H ) :   0.9267 B( 22-C , 25-C ) :   1.0847 B( 25-C , 26-H ) :   0.9499
B( 25-C , 27-H ) :   0.9487 B( 25-C , 28-C ) :   1.0849 B( 28-C , 29-H ) :   0.9753
B( 28-C , 30-H ) :   0.9746 B( 28-C , 31-H ) :   0.9743

Dispersion correction           -0.014044023
FINAL SINGLE POINT ENERGY     -1339.866164394577

DIPOLE MOMENT
-------------
                                X             Y             Z
Electronic contribution:     15.68853     -15.31298     -18.28392
Nuclear contribution   :    -16.41482      15.52730      18.60639
                        -----------------------------------------
Total Dipole Moment    :     -0.72629       0.21432       0.32247
                        -----------------------------------------
Magnitude (a.u.)       :      0.82305
Magnitude (Debye)      :      2.09204

Rotational constants in cm-1:     0.017222     0.009307     0.006559
Rotational constants in MHz :   516.297202   279.009542   196.628464

                             ****ORCA TERMINATED NORMALLY****
TOTAL RUN TIME: 0 days 0 hours 0 minutes 34 seconds 412 msec
