                         Program Version 4.2.1 -  RELEASE  -
|  1> ! wB97X-D3 SP def2-SVP
|  2> %pal
|  3> nprocs 16
|  4> end
|  5>
|  6> * xyz 0 1
|  7> S 	 -0.905856 	 -12.0661 	 77.4987
|  8> C 	 -2.499 	 -12.7156 	 77.1483
|  9> C 	 -3.43367 	 -11.8535 	 77.5982
| 10> C 	 -2.91821 	 -10.6284 	 78.1274
| 11> C 	 -1.56958 	 -10.5196 	 78.0655
| 12> H 	 -3.53711 	 -9.91442 	 78.6298
| 13> C 	 -4.94439 	 -12.129 	 77.5032
| 14> H 	 -5.56648 	 -11.6884 	 78.2633
| 15> H 	 -5.0772 	 -13.2201 	 77.5715
| 16> C 	 -5.58133 	 -11.6218 	 76.1749
| 17> H 	 -4.907 	 -11.9788 	 75.4102
| 18> H 	 -6.54654 	 -12.1643 	 76.0898
| 19> C 	 -5.70614 	 -10.0761 	 76.1015
| 20> H 	 -4.72928 	 -9.60183 	 75.9718
| 21> H 	 -6.39166 	 -9.6364 	 75.3754
| 22> H 	 -6.12947 	 -9.70402 	 77.0209
| 23> S 	 0.453292 	 -10.3224 	 79.8033
| 24> C 	 0.918689 	 -8.72469 	 80.4634
| 25> C 	 0.184139 	 -7.71804 	 79.8393
| 26> C 	 -0.773382 	 -8.19887 	 78.8733
| 27> C 	 -0.737537 	 -9.55364 	 78.7803
| 28> H 	 0.2948 	 -6.80837 	 80.3003
| 29> C 	 -1.83453 	 -7.30784 	 78.3052
| 30> H 	 -2.39337 	 -7.94452 	 77.6412
| 31> H 	 -1.41258 	 -6.58461 	 77.7048
| 32> C 	 -2.78528 	 -6.6888 	 79.4292
| 33> H 	 -2.20606 	 -6.26163 	 80.2827
| 34> H 	 -3.40048 	 -7.51595 	 79.8107
| 35> C 	 -3.75912 	 -5.58362 	 78.8668
| 36> H 	 -4.20151 	 -4.92061 	 79.6429
| 37> H 	 -4.61222 	 -6.05541 	 78.4272
| 38> H 	 -3.28818 	 -5.0876 	 77.9983
| 39> H 	 -2.69554 	 -13.6018 	 76.6697
| 40> H 	 1.66509 	 -8.45126 	 81.2156
| 41> *
| 42>
| 43>                          ****END OF INPUT****

CARTESIAN COORDINATES (ANGSTROEM)
---------------------------------
  S     -0.905856  -12.066100   77.498700
  C     -2.499000  -12.715600   77.148300
  C     -3.433670  -11.853500   77.598200
  C     -2.918210  -10.628400   78.127400
  C     -1.569580  -10.519600   78.065500
  H     -3.537110   -9.914420   78.629800
  C     -4.944390  -12.129000   77.503200
  H     -5.566480  -11.688400   78.263300
  H     -5.077200  -13.220100   77.571500
  C     -5.581330  -11.621800   76.174900
  H     -4.907000  -11.978800   75.410200
  H     -6.546540  -12.164300   76.089800
  C     -5.706140  -10.076100   76.101500
  H     -4.729280   -9.601830   75.971800
  H     -6.391660   -9.636400   75.375400
  H     -6.129470   -9.704020   77.020900
  S      0.453292  -10.322400   79.803300
  C      0.918689   -8.724690   80.463400
  C      0.184139   -7.718040   79.839300
  C     -0.773382   -8.198870   78.873300
  C     -0.737537   -9.553640   78.780300
  H      0.294800   -6.808370   80.300300
  C     -1.834530   -7.307840   78.305200
  H     -2.393370   -7.944520   77.641200
  H     -1.412580   -6.584610   77.704800
  C     -2.785280   -6.688800   79.429200
  H     -2.206060   -6.261630   80.282700
  H     -3.400480   -7.515950   79.810700
  C     -3.759120   -5.583620   78.866800
  H     -4.201510   -4.920610   79.642900
  H     -4.612220   -6.055410   78.427200
  H     -3.288180   -5.087600   77.998300
  H     -2.695540  -13.601800   76.669700
  H      1.665090   -8.451260   81.215600

 Total Charge           Charge          ....    0
 Multiplicity           Mult            ....    1
 Number of Electrons    NEL             ....  134
 Basis Dimension        Dim             ....  322

ORBITAL ENERGIES
----------------

  NO   OCC          E(Eh)            E(eV)
   0   2.0000     -88.965500     -2420.8743
   1   2.0000     -88.964988     -2420.8604
   2   2.0000     -10.331197      -281.1262
   3   2.0000     -10.325875      -280.9813
   4   2.0000     -10.319436      -280.8061
   5   2.0000     -10.309257      -280.5291
   6   2.0000     -10.301335      -280.3136
   7   2.0000     -10.299494      -280.2635
   8   2.0000     -10.299057      -280.2516
   9   2.0000     -10.293358      -280.0965
  10   2.0000     -10.292049      -280.0609
  11   2.0000     -10.290340      -280.0144
  12   2.0000     -10.288822      -279.9731
  13   2.0000     -10.288299      -279.9589
  14   2.0000     -10.283247      -279.8214
  15   2.0000     -10.279298      -279.7139
  16   2.0000      -8.079597      -219.8570
  17   2.0000      -8.079392      -219.8514
  18   2.0000      -6.038316      -164.3109
  19   2.0000      -6.038106      -164.3052
  20   2.0000      -6.034198      -164.1989
  21   2.0000      -6.033968      -164.1926
  22   2.0000      -6.030139      -164.0884
  23   2.0000      -6.029916      -164.0824
  24   2.0000      -1.010621       -27.5004
  25   2.0000      -0.984371       -26.7861
  26   2.0000      -0.908831       -24.7306
  27   2.0000      -0.902555       -24.5598
  28   2.0000      -0.872948       -23.7541
  29   2.0000      -0.849360       -23.1123
  30   2.0000      -0.840050       -22.8589
  31   2.0000      -0.822015       -22.3682
  32   2.0000      -0.783198       -21.3119
  33   2.0000      -0.774465       -21.0743
  34   2.0000      -0.709149       -19.2969
  35   2.0000      -0.703265       -19.1368
  36   2.0000      -0.699221       -19.0268
  37   2.0000      -0.666184       -18.1278
  38   2.0000      -0.647205       -17.6113
  39   2.0000      -0.622297       -16.9335
  40   2.0000      -0.591085       -16.0843
  41   2.0000      -0.579104       -15.7582
  42   2.0000      -0.563576       -15.3357
  43   2.0000      -0.546899       -14.8819
  44   2.0000      -0.541361       -14.7312
  45   2.0000      -0.527304       -14.3487
  46   2.0000      -0.518640       -14.1129
  47   2.0000      -0.513754       -13.9800
  48   2.0000      -0.506746       -13.7893
  49   2.0000      -0.497203       -13.5296
  50   2.0000      -0.490791       -13.3551
  51   2.0000      -0.485843       -13.2204
  52   2.0000      -0.466950       -12.7064
  53   2.0000      -0.461688       -12.5632
  54   2.0000      -0.461417       -12.5558
  55   2.0000      -0.446774       -12.1573
  56   2.0000      -0.444913       -12.1067
  57   2.0000      -0.437150       -11.8955
  58   2.0000      -0.436262       -11.8713
  59   2.0000      -0.425409       -11.5760
  60   2.0000      -0.424203       -11.5431
  61   2.0000      -0.418664       -11.3924
  62   2.0000      -0.414422       -11.2770
  63   2.0000      -0.356010        -9.6875
  64   2.0000      -0.330665        -8.9979
  65   2.0000      -0.328531        -8.9398
  66   2.0000      -0.294674        -8.0185
  67   0.0000       0.030342         0.8257
  68   0.0000       0.069616         1.8944
  69   0.0000       0.101414         2.7596
  70   0.0000       0.124252         3.3811
  71   0.0000       0.127052         3.4573

MULLIKEN ATOMIC CHARGES
-----------------------
   0 S :    0.085791
   1 C :   -0.081380
   2 C :   -0.082753
   3 C :    0.035162
   4 C :   -0.114950
   5 H :    0.004001
   6 C :    0.039111
   7 H :    0.020617
   8 H :    0.027108
   9 C :   -0.057369
  10 H :    0.021959
  11 H :    0.038041
  12 C :   -0.053803
  13 H :    0.046344
  14 H :    0.036730
  15 H :    0.009959
  16 S :    0.100744
  17 C :   -0.105071
  18 C :   -0.022228
  19 C :   -0.046000
  20 C :   -0.140184
  21 H :   -0.007386
  22 C :    0.128535
  23 H :    0.010317
  24 H :    0.008336
  25 C :   -0.113663
  26 H :    0.045878
  27 H :    0.036116
  28 C :   -0.048140
  29 H :    0.048866
  30 H :    0.018927
  31 H :    0.035756
  32 H :    0.014148
  33 H :    0.060479
Sum of atomic charges:    0.0000000

LOEWDIN ATOMIC CHARGES
----------------------
   0 S :    0.384891
   1 C :   -0.173632
   2 C :   -0.062264
   3 C :   -0.060499
   4 C :   -0.180234
   5 H :    0.027876
   6 C :   -0.029670
   7 H :    0.023861
   8 H :    0.031161
   9 C :   -0.036365
  10 H :    0.019687
  11 H :    0.027148
  12 C :   -0.071863
  13 H :    0.029332
  14 H :    0.029011
  15 H :    0.018506
  16 S :    0.387915
  17 C :   -0.176967
  18 C :   -0.058666
  19 C :   -0.059304
  20 C :   -0.186748
  21 H :    0.016939
  22 C :   -0.020468
  23 H :    0.027167
  24 H :    0.019252
  25 C :   -0.034918
  26 H :    0.026702
  27 H :    0.024368
  28 C :   -0.074248
  29 H :    0.033201
  30 H :    0.020554
  31 H :    0.028250
  32 H :    0.014751
  33 H :    0.035272

  Mayer bond orders larger than 0.100000
B(  0-S ,  1-C ) :   1.1191 B(  0-S ,  4-C ) :   1.1372 B(  1-C ,  2-C ) :   1.6314
B(  1-C , 32-H ) :   0.9814 B(  2-C ,  3-C ) :   1.2386 B(  2-C ,  6-C ) :   1.0255
B(  3-C ,  4-C ) :   1.5717 B(  3-C ,  5-H ) :   0.9955 B(  4-C , 20-C ) :   1.0232
B(  6-C ,  7-H ) :   0.9475 B(  6-C ,  8-H ) :   0.9431 B(  6-C ,  9-C ) :   1.0650
B(  9-C , 10-H ) :   0.9572 B(  9-C , 11-H ) :   0.9585 B(  9-C , 12-C ) :   1.0695
B( 12-C , 13-H ) :   0.9734 B( 12-C , 14-H ) :   0.9746 B( 12-C , 15-H ) :   0.9742
B( 16-S , 17-C ) :   1.1222 B( 16-S , 20-C ) :   1.1295 B( 17-C , 18-C ) :   1.6691
B( 17-C , 33-H ) :   0.9640 B( 18-C , 19-C ) :   1.1782 B( 18-C , 21-H ) :   0.9971
B( 19-C , 20-C ) :   1.6531 B( 19-C , 22-C ) :   1.0627 B( 22-C , 23-H ) :   0.9280
B( 22-C , 24-H ) :   0.9209 B( 22-C , 25-C ) :   1.0462 B( 25-C , 26-H ) :   0.9649
B( 25-C , 27-H ) :   0.9593 B( 25-C , 28-C ) :   1.0636 B( 28-C , 29-H ) :   0.9761
B( 28-C , 30-H ) :   0.9763 B( 28-C , 31-H ) :   0.9774

Dispersion correction           -0.014701174
FINAL SINGLE POINT ENERGY     -1339.870638360801

DIPOLE MOMENT
-------------
                                X             Y             Z
Electronic contribution:     26.39632     -15.88622       5.58335
Nuclear contribution   :    -27.10085      16.23926      -5.46502
                        -----------------------------------------
Total Dipole Moment    :     -0.70453       0.35303       0.11833
                        -----------------------------------------
Magnitude (a.u.)       :      0.79687
Magnitude (Debye)      :      2.02547

Rotational constants in cm-1:     0.016520     0.010486     0.006771
Rotational constants in MHz :   495.245294   314.349761   202.988197

                             ****ORCA TERMINATED NORMALLY****
TOTAL RUN TIME: 0 days 0 hours 0 minutes 32 seconds 518 msec
