                         Program Version 4.2.1 -  RELEASE  -
|  1> ! wB97X-D3 SP def2-SVP
|  2> %pal
|  3> nprocs 16
|  4> end
|  5>
|  6> * xyz 0 1
|  7> S 	 0.857396 	 -13.6384 	 58.2987
|  8> C 	 1.71252 	 -12.365 	 59.0932
|  9> C 	 2.70093 	 -12.8857 	 59.9693
| 10> C 	 2.92077 	 -14.2663 	 59.8064
| 11> C 	 2.10719 	 -14.8127 	 58.8218
| 12> H 	 3.69007 	 -14.8169 	 60.2791
| 13> C 	 3.48366 	 -12.0688 	 61.0037
| 14> H 	 3.29807 	 -10.9697 	 60.7268
| 15> H 	 4.59019 	 -12.2592 	 60.8224
| 16> C 	 2.94679 	 -12.3006 	 62.4628
| 17> H 	 1.90746 	 -11.8835 	 62.3903
| 18> H 	 2.68912 	 -13.3096 	 62.6369
| 19> C 	 3.66061 	 -11.7457 	 63.7426
| 20> H 	 3.45383 	 -10.6729 	 63.7832
| 21> H 	 3.24147 	 -12.2913 	 64.6096
| 22> H 	 4.76346 	 -11.909 	 63.7215
| 23> S 	 1.91375 	 -16.4463 	 56.6367
| 24> C 	 2.01328 	 -18.2028 	 56.8481
| 25> C 	 2.00261 	 -18.5265 	 58.1826
| 26> C 	 2.01874 	 -17.4111 	 59.0602
| 27> C 	 1.94838 	 -16.2145 	 58.3826
| 28> H 	 2.13728 	 -19.5682 	 58.4647
| 29> C 	 2.19447 	 -17.609 	 60.5339
| 30> H 	 3.1198 	 -17.2084 	 60.8359
| 31> H 	 2.45055 	 -18.6156 	 60.8673
| 32> C 	 1.12631 	 -16.9799 	 61.5693
| 33> H 	 0.109834 	 -17.4626 	 61.355
| 34> H 	 0.963881 	 -15.964 	 61.1904
| 35> C 	 1.58622 	 -17.1168 	 63.021
| 36> H 	 1.661 	 -18.1663 	 63.2265
| 37> H 	 0.872078 	 -16.6307 	 63.7154
| 38> H 	 2.61133 	 -16.6959 	 63.2621
| 39> H 	 1.54929 	 -11.2983 	 58.8998
| 40> H 	 2.04705 	 -18.9856 	 56.1038
| 41> *
| 42>
| 43>                          ****END OF INPUT****

CARTESIAN COORDINATES (ANGSTROEM)
---------------------------------
  S      0.857396  -13.638400   58.298700
  C      1.712520  -12.365000   59.093200
  C      2.700930  -12.885700   59.969300
  C      2.920770  -14.266300   59.806400
  C      2.107190  -14.812700   58.821800
  H      3.690070  -14.816900   60.279100
  C      3.483660  -12.068800   61.003700
  H      3.298070  -10.969700   60.726800
  H      4.590190  -12.259200   60.822400
  C      2.946790  -12.300600   62.462800
  H      1.907460  -11.883500   62.390300
  H      2.689120  -13.309600   62.636900
  C      3.660610  -11.745700   63.742600
  H      3.453830  -10.672900   63.783200
  H      3.241470  -12.291300   64.609600
  H      4.763460  -11.909000   63.721500
  S      1.913750  -16.446300   56.636700
  C      2.013280  -18.202800   56.848100
  C      2.002610  -18.526500   58.182600
  C      2.018740  -17.411100   59.060200
  C      1.948380  -16.214500   58.382600
  H      2.137280  -19.568200   58.464700
  C      2.194470  -17.609000   60.533900
  H      3.119800  -17.208400   60.835900
  H      2.450550  -18.615600   60.867300
  C      1.126310  -16.979900   61.569300
  H      0.109834  -17.462600   61.355000
  H      0.963881  -15.964000   61.190400
  C      1.586220  -17.116800   63.021000
  H      1.661000  -18.166300   63.226500
  H      0.872078  -16.630700   63.715400
  H      2.611330  -16.695900   63.262100
  H      1.549290  -11.298300   58.899800
  H      2.047050  -18.985600   56.103800

 Total Charge           Charge          ....    0
 Multiplicity           Mult            ....    1
 Number of Electrons    NEL             ....  134
 Basis Dimension        Dim             ....  322

ORBITAL ENERGIES
----------------

  NO   OCC          E(Eh)            E(eV)
   0   2.0000     -88.967483     -2420.9283
   1   2.0000     -88.967449     -2420.9274
   2   2.0000     -10.334149      -281.2065
   3   2.0000     -10.327468      -281.0247
   4   2.0000     -10.317942      -280.7655
   5   2.0000     -10.316697      -280.7316
   6   2.0000     -10.306635      -280.4578
   7   2.0000     -10.304428      -280.3977
   8   2.0000     -10.304121      -280.3894
   9   2.0000     -10.294515      -280.1280
  10   2.0000     -10.293817      -280.1090
  11   2.0000     -10.291927      -280.0576
  12   2.0000     -10.289813      -280.0000
  13   2.0000     -10.289597      -279.9942
  14   2.0000     -10.288225      -279.9568
  15   2.0000     -10.286537      -279.9109
  16   2.0000      -8.081831      -219.9178
  17   2.0000      -8.081498      -219.9087
  18   2.0000      -6.040266      -164.3640
  19   2.0000      -6.040104      -164.3596
  20   2.0000      -6.036501      -164.2615
  21   2.0000      -6.036085      -164.2502
  22   2.0000      -6.032583      -164.1549
  23   2.0000      -6.032197      -164.1444
  24   2.0000      -1.004532       -27.3347
  25   2.0000      -0.982484       -26.7348
  26   2.0000      -0.901022       -24.5181
  27   2.0000      -0.899449       -24.4753
  28   2.0000      -0.864716       -23.5301
  29   2.0000      -0.852677       -23.2025
  30   2.0000      -0.847598       -23.0643
  31   2.0000      -0.814819       -22.1723
  32   2.0000      -0.780249       -21.2317
  33   2.0000      -0.766378       -20.8542
  34   2.0000      -0.707143       -19.2423
  35   2.0000      -0.697464       -18.9790
  36   2.0000      -0.690607       -18.7924
  37   2.0000      -0.662512       -18.0279
  38   2.0000      -0.641377       -17.4528
  39   2.0000      -0.623200       -16.9581
  40   2.0000      -0.599085       -16.3019
  41   2.0000      -0.558805       -15.2059
  42   2.0000      -0.552860       -15.0441
  43   2.0000      -0.549562       -14.9543
  44   2.0000      -0.522872       -14.2281
  45   2.0000      -0.520294       -14.1579
  46   2.0000      -0.515536       -14.0284
  47   2.0000      -0.508107       -13.8263
  48   2.0000      -0.502419       -13.6715
  49   2.0000      -0.498024       -13.5519
  50   2.0000      -0.491643       -13.3783
  51   2.0000      -0.489414       -13.3176
  52   2.0000      -0.467750       -12.7281
  53   2.0000      -0.464178       -12.6309
  54   2.0000      -0.462324       -12.5805
  55   2.0000      -0.452428       -12.3112
  56   2.0000      -0.443685       -12.0733
  57   2.0000      -0.434637       -11.8271
  58   2.0000      -0.431731       -11.7480
  59   2.0000      -0.422975       -11.5097
  60   2.0000      -0.421166       -11.4605
  61   2.0000      -0.410686       -11.1753
  62   2.0000      -0.409574       -11.1451
  63   2.0000      -0.346031        -9.4160
  64   2.0000      -0.332052        -9.0356
  65   2.0000      -0.329522        -8.9668
  66   2.0000      -0.290353        -7.9009
  67   0.0000       0.023050         0.6272
  68   0.0000       0.067812         1.8453
  69   0.0000       0.104982         2.8567
  70   0.0000       0.112989         3.0746
  71   0.0000       0.128489         3.4964

MULLIKEN ATOMIC CHARGES
-----------------------
   0 S :    0.107812
   1 C :   -0.121057
   2 C :   -0.113615
   3 C :    0.043217
   4 C :   -0.137830
   5 H :    0.003289
   6 C :    0.032617
   7 H :    0.030663
   8 H :    0.045085
   9 C :   -0.093050
  10 H :    0.026393
  11 H :    0.015196
  12 C :   -0.040918
  13 H :    0.042414
  14 H :    0.043623
  15 H :    0.041643
  16 S :    0.109899
  17 C :   -0.082935
  18 C :   -0.047399
  19 C :    0.018225
  20 C :   -0.159083
  21 H :    0.019537
  22 C :    0.053409
  23 H :   -0.000524
  24 H :   -0.000870
  25 C :   -0.093081
  26 H :    0.042492
  27 H :    0.042703
  28 C :   -0.055142
  29 H :    0.030158
  30 H :    0.048215
  31 H :    0.036835
  32 H :    0.060144
  33 H :    0.051938
Sum of atomic charges:   -0.0000000

LOEWDIN ATOMIC CHARGES
----------------------
   0 S :    0.400565
   1 C :   -0.211425
   2 C :   -0.063372
   3 C :   -0.056530
   4 C :   -0.175917
   5 H :    0.028563
   6 C :   -0.039775
   7 H :    0.034073
   8 H :    0.032520
   9 C :   -0.052253
  10 H :    0.033131
  11 H :    0.014248
  12 C :   -0.066682
  13 H :    0.026982
  14 H :    0.033765
  15 H :    0.028891
  16 S :    0.399650
  17 C :   -0.177757
  18 C :   -0.069522
  19 C :   -0.054809
  20 C :   -0.200489
  21 H :    0.033213
  22 C :   -0.039504
  23 H :    0.022695
  24 H :    0.027449
  25 C :   -0.041454
  26 H :    0.032039
  27 H :    0.022751
  28 C :   -0.071335
  29 H :    0.023462
  30 H :    0.033322
  31 H :    0.030442
  32 H :    0.031925
  33 H :    0.031140

  Mayer bond orders larger than 0.100000
B(  0-S ,  1-C ) :   1.1484 B(  0-S ,  4-C ) :   1.1582 B(  1-C ,  2-C ) :   1.5779
B(  1-C ,  4-C ) :   0.1102 B(  1-C , 32-H ) :   0.9661 B(  2-C ,  3-C ) :   1.2596
B(  2-C ,  6-C ) :   1.0273 B(  3-C ,  4-C ) :   1.5546 B(  3-C ,  5-H ) :   1.0080
B(  4-C , 20-C ) :   1.0145 B(  6-C ,  7-H ) :   0.9475 B(  6-C ,  8-H ) :   0.9451
B(  6-C ,  9-C ) :   1.0341 B(  9-C , 10-H ) :   0.9502 B(  9-C , 11-H ) :   0.9679
B(  9-C , 12-C ) :   1.0684 B( 12-C , 13-H ) :   0.9789 B( 12-C , 14-H ) :   0.9743
B( 12-C , 15-H ) :   0.9772 B( 16-S , 17-C ) :   1.1436 B( 16-S , 20-C ) :   1.1379
B( 17-C , 18-C ) :   1.6271 B( 17-C , 33-H ) :   0.9656 B( 18-C , 19-C ) :   1.2397
B( 18-C , 21-H ) :   0.9878 B( 19-C , 20-C ) :   1.5946 B( 19-C , 22-C ) :   1.0427
B( 22-C , 23-H ) :   0.9263 B( 22-C , 24-H ) :   0.9321 B( 22-C , 25-C ) :   1.0386
B( 25-C , 26-H ) :   0.9553 B( 25-C , 27-H ) :   0.9591 B( 25-C , 28-C ) :   1.0697
B( 28-C , 29-H ) :   0.9746 B( 28-C , 30-H ) :   0.9731 B( 28-C , 31-H ) :   0.9734

Dispersion correction           -0.014730950
FINAL SINGLE POINT ENERGY     -1339.870911931397

DIPOLE MOMENT
-------------
                                X             Y             Z
Electronic contribution:     -6.76373      -3.50874     -31.82086
Nuclear contribution   :      7.08292       3.33216      32.44933
                        -----------------------------------------
Total Dipole Moment    :      0.31920      -0.17658       0.62847
                        -----------------------------------------
Magnitude (a.u.)       :      0.72667
Magnitude (Debye)      :      1.84705

Rotational constants in cm-1:     0.019001     0.009072     0.006759
Rotational constants in MHz :   569.637298   271.976293   202.627514

                             ****ORCA TERMINATED NORMALLY****
TOTAL RUN TIME: 0 days 0 hours 0 minutes 28 seconds 849 msec
