                         Program Version 4.2.1 -  RELEASE  -
|  1> ! wB97X-D3 SP def2-SVP
|  2> %pal
|  3> nprocs 16
|  4> end
|  5>
|  6> * xyz 0 1
|  7> S 	 -3.38794 	 20.2054 	 54.8053
|  8> C 	 -2.90011 	 19.3311 	 53.3596
|  9> C 	 -1.63632 	 19.5452 	 52.9373
| 10> C 	 -0.97389 	 20.4977 	 53.819
| 11> C 	 -1.8284 	 20.9944 	 54.8174
| 12> H 	 0.0192658 	 20.8372 	 53.7016
| 13> C 	 -0.951258 	 18.7845 	 51.8358
| 14> H 	 -1.8474 	 18.2274 	 51.384
| 15> H 	 -0.270734 	 18.0281 	 52.1799
| 16> C 	 -0.053431 	 19.523 	 50.8288
| 17> H 	 -0.435722 	 20.4956 	 50.5879
| 18> H 	 0.918714 	 19.7631 	 51.2929
| 19> C 	 0.213378 	 18.691 	 49.5688
| 20> H 	 0.44138 	 17.599 	 49.7426
| 21> H 	 -0.646967 	 18.7973 	 48.8629
| 22> H 	 1.01949 	 19.1813 	 49.1072
| 23> S 	 -1.76515 	 21.0659 	 57.4553
| 24> C 	 -0.730545 	 22.1503 	 58.292
| 25> C 	 -0.245839 	 23.0912 	 57.4579
| 26> C 	 -0.644577 	 22.9261 	 56.1052
| 27> C 	 -1.30627 	 21.7475 	 55.9633
| 28> H 	 0.304933 	 23.8725 	 57.8351
| 29> C 	 -0.356221 	 23.9026 	 54.9183
| 30> H 	 -1.009 	 24.7149 	 54.9229
| 31> H 	 -0.776889 	 23.3977 	 54.0177
| 32> C 	 1.1969 	 24.2247 	 54.5606
| 33> H 	 1.93435 	 23.7133 	 55.1666
| 34> H 	 1.29823 	 25.259 	 54.7135
| 35> C 	 1.63341 	 23.8066 	 53.1253
| 36> H 	 1.9733 	 22.733 	 53.1345
| 37> H 	 2.52145 	 24.4036 	 52.8398
| 38> H 	 0.920278 	 24.0649 	 52.3087
| 39> H 	 -3.61166 	 18.627 	 52.9095
| 40> H 	 -0.543897 	 22.2296 	 59.2834
| 41> *
| 42>
| 43>                          ****END OF INPUT****

CARTESIAN COORDINATES (ANGSTROEM)
---------------------------------
  S     -3.387940   20.205400   54.805300
  C     -2.900110   19.331100   53.359600
  C     -1.636320   19.545200   52.937300
  C     -0.973890   20.497700   53.819000
  C     -1.828400   20.994400   54.817400
  H      0.019266   20.837200   53.701600
  C     -0.951258   18.784500   51.835800
  H     -1.847400   18.227400   51.384000
  H     -0.270734   18.028100   52.179900
  C     -0.053431   19.523000   50.828800
  H     -0.435722   20.495600   50.587900
  H      0.918714   19.763100   51.292900
  C      0.213378   18.691000   49.568800
  H      0.441380   17.599000   49.742600
  H     -0.646967   18.797300   48.862900
  H      1.019490   19.181300   49.107200
  S     -1.765150   21.065900   57.455300
  C     -0.730545   22.150300   58.292000
  C     -0.245839   23.091200   57.457900
  C     -0.644577   22.926100   56.105200
  C     -1.306270   21.747500   55.963300
  H      0.304933   23.872500   57.835100
  C     -0.356221   23.902600   54.918300
  H     -1.009000   24.714900   54.922900
  H     -0.776889   23.397700   54.017700
  C      1.196900   24.224700   54.560600
  H      1.934350   23.713300   55.166600
  H      1.298230   25.259000   54.713500
  C      1.633410   23.806600   53.125300
  H      1.973300   22.733000   53.134500
  H      2.521450   24.403600   52.839800
  H      0.920278   24.064900   52.308700
  H     -3.611660   18.627000   52.909500
  H     -0.543897   22.229600   59.283400

 Total Charge           Charge          ....    0
 Multiplicity           Mult            ....    1
 Number of Electrons    NEL             ....  134
 Basis Dimension        Dim             ....  322

ORBITAL ENERGIES
----------------

  NO   OCC          E(Eh)            E(eV)
   0   2.0000     -88.967636     -2420.9324
   1   2.0000     -88.958731     -2420.6901
   2   2.0000     -10.328934      -281.0646
   3   2.0000     -10.316668      -280.7308
   4   2.0000     -10.311708      -280.5958
   5   2.0000     -10.299407      -280.2611
   6   2.0000     -10.298523      -280.2371
   7   2.0000     -10.297946      -280.2214
   8   2.0000     -10.295397      -280.1520
   9   2.0000     -10.293774      -280.1078
  10   2.0000     -10.292845      -280.0825
  11   2.0000     -10.289843      -280.0009
  12   2.0000     -10.288403      -279.9617
  13   2.0000     -10.288143      -279.9546
  14   2.0000     -10.282978      -279.8141
  15   2.0000     -10.278882      -279.7026
  16   2.0000      -8.082386      -219.9329
  17   2.0000      -8.075378      -219.7422
  18   2.0000      -6.040910      -164.3815
  19   2.0000      -6.037072      -164.2771
  20   2.0000      -6.033754      -164.1868
  21   2.0000      -6.032958      -164.1651
  22   2.0000      -6.029745      -164.0777
  23   2.0000      -6.026017      -163.9763
  24   2.0000      -1.014853       -27.6156
  25   2.0000      -0.986583       -26.8463
  26   2.0000      -0.912218       -24.8227
  27   2.0000      -0.893624       -24.3167
  28   2.0000      -0.874109       -23.7857
  29   2.0000      -0.851692       -23.1757
  30   2.0000      -0.846410       -23.0320
  31   2.0000      -0.816483       -22.2176
  32   2.0000      -0.780693       -21.2437
  33   2.0000      -0.773025       -21.0351
  34   2.0000      -0.710038       -19.3211
  35   2.0000      -0.702319       -19.1111
  36   2.0000      -0.691355       -18.8127
  37   2.0000      -0.663925       -18.0663
  38   2.0000      -0.640809       -17.4373
  39   2.0000      -0.619666       -16.8620
  40   2.0000      -0.598848       -16.2955
  41   2.0000      -0.579334       -15.7645
  42   2.0000      -0.555287       -15.1101
  43   2.0000      -0.554622       -15.0920
  44   2.0000      -0.530166       -14.4265
  45   2.0000      -0.520879       -14.1738
  46   2.0000      -0.519848       -14.1458
  47   2.0000      -0.511907       -13.9297
  48   2.0000      -0.501922       -13.6580
  49   2.0000      -0.494293       -13.4504
  50   2.0000      -0.483387       -13.1536
  51   2.0000      -0.478525       -13.0213
  52   2.0000      -0.469280       -12.7698
  53   2.0000      -0.468409       -12.7460
  54   2.0000      -0.466647       -12.6981
  55   2.0000      -0.449176       -12.2227
  56   2.0000      -0.443037       -12.0556
  57   2.0000      -0.438058       -11.9202
  58   2.0000      -0.434588       -11.8257
  59   2.0000      -0.426693       -11.6109
  60   2.0000      -0.423942       -11.5360
  61   2.0000      -0.414090       -11.2680
  62   2.0000      -0.410871       -11.1804
  63   2.0000      -0.349285        -9.5045
  64   2.0000      -0.330436        -8.9916
  65   2.0000      -0.327818        -8.9204
  66   2.0000      -0.290352        -7.9009
  67   0.0000       0.037839         1.0296
  68   0.0000       0.075490         2.0542
  69   0.0000       0.109221         2.9721
  70   0.0000       0.122924         3.3449
  71   0.0000       0.128254         3.4900

MULLIKEN ATOMIC CHARGES
-----------------------
   0 S :    0.105646
   1 C :   -0.152306
   2 C :   -0.035532
   3 C :    0.037511
   4 C :   -0.133379
   5 H :   -0.007021
   6 C :    0.047599
   7 H :    0.026138
   8 H :    0.038715
   9 C :   -0.090177
  10 H :    0.022641
  11 H :    0.028866
  12 C :   -0.047008
  13 H :    0.045722
  14 H :    0.040885
  15 H :    0.022973
  16 S :    0.105584
  17 C :   -0.027095
  18 C :   -0.014968
  19 C :   -0.038216
  20 C :   -0.164639
  21 H :   -0.021583
  22 C :    0.072521
  23 H :    0.024676
  24 H :    0.019300
  25 C :   -0.041395
  26 H :    0.035310
  27 H :    0.024906
  28 C :   -0.111473
  29 H :    0.051627
  30 H :    0.032618
  31 H :    0.045326
  32 H :    0.051683
  33 H :    0.004546
Sum of atomic charges:    0.0000000

LOEWDIN ATOMIC CHARGES
----------------------
   0 S :    0.394496
   1 C :   -0.191768
   2 C :   -0.065710
   3 C :   -0.048764
   4 C :   -0.194382
   5 H :    0.021427
   6 C :   -0.037636
   7 H :    0.037606
   8 H :    0.033134
   9 C :   -0.042103
  10 H :    0.019713
  11 H :    0.023744
  12 C :   -0.063193
  13 H :    0.032550
  14 H :    0.031139
  15 H :    0.020140
  16 S :    0.428559
  17 C :   -0.179699
  18 C :   -0.058709
  19 C :   -0.062382
  20 C :   -0.201893
  21 H :    0.016935
  22 C :   -0.028610
  23 H :    0.024492
  24 H :    0.035621
  25 C :   -0.034728
  26 H :    0.027818
  27 H :    0.016405
  28 C :   -0.077259
  29 H :    0.030382
  30 H :    0.028819
  31 H :    0.026951
  32 H :    0.027537
  33 H :    0.009368

  Mayer bond orders larger than 0.100000
B(  0-S ,  1-C ) :   1.1204 B(  0-S ,  4-C ) :   1.1456 B(  1-C ,  2-C ) :   1.6494
B(  1-C , 32-H ) :   0.9578 B(  2-C ,  3-C ) :   1.2080 B(  2-C ,  6-C ) :   1.0308
B(  3-C ,  4-C ) :   1.5767 B(  3-C ,  5-H ) :   1.0006 B(  4-C , 20-C ) :   1.0217
B(  6-C ,  7-H ) :   0.9464 B(  6-C ,  8-H ) :   0.9336 B(  6-C ,  9-C ) :   1.0486
B(  9-C , 10-H ) :   0.9603 B(  9-C , 11-H ) :   0.9524 B(  9-C , 12-C ) :   1.0842
B( 12-C , 13-H ) :   0.9736 B( 12-C , 14-H ) :   0.9758 B( 12-C , 15-H ) :   0.9737
B( 16-S , 17-C ) :   1.1401 B( 16-S , 20-C ) :   1.1559 B( 17-C , 18-C ) :   1.6301
B( 17-C , 33-H ) :   0.9788 B( 18-C , 19-C ) :   1.2243 B( 18-C , 21-H ) :   1.0067
B( 19-C , 20-C ) :   1.6198 B( 19-C , 22-C ) :   1.0291 B( 22-C , 23-H ) :   0.9393
B( 22-C , 24-H ) :   0.9404 B( 22-C , 25-C ) :   1.0184 B( 25-C , 26-H ) :   0.9681
B( 25-C , 27-H ) :   0.9626 B( 25-C , 28-C ) :   1.0856 B( 28-C , 29-H ) :   0.9769
B( 28-C , 30-H ) :   0.9725 B( 28-C , 31-H ) :   0.9755

Dispersion correction           -0.013977885
FINAL SINGLE POINT ENERGY     -1339.853880593126

DIPOLE MOMENT
-------------
                                X             Y             Z
Electronic contribution:    -19.57247      -4.10489      25.82518
Nuclear contribution   :     20.10314       4.29605     -26.26195
                        -----------------------------------------
Total Dipole Moment    :      0.53067       0.19116      -0.43676
                        -----------------------------------------
Magnitude (a.u.)       :      0.71339
Magnitude (Debye)      :      1.81328

Rotational constants in cm-1:     0.017252     0.009243     0.006512
Rotational constants in MHz :   517.199249   277.094506   195.221396

                             ****ORCA TERMINATED NORMALLY****
TOTAL RUN TIME: 0 days 0 hours 0 minutes 34 seconds 347 msec
