                         Program Version 4.2.1 -  RELEASE  -
|  1> ! wB97X-D3 SP def2-SVP
|  2> %pal
|  3> nprocs 16
|  4> end
|  5>
|  6> * xyz 0 1
|  7> S 	 11.1597 	 -15.4671 	 66.6252
|  8> C 	 10.2674 	 -14.785 	 65.3145
|  9> C 	 9.19584 	 -13.9743 	 65.7302
| 10> C 	 9.08034 	 -13.9656 	 67.1536
| 11> C 	 10.0992 	 -14.7365 	 67.7556
| 12> H 	 8.39862 	 -13.3551 	 67.6631
| 13> C 	 8.31637 	 -13.0245 	 64.8881
| 14> H 	 8.55721 	 -12.8825 	 63.8723
| 15> H 	 8.50097 	 -12.0293 	 65.1968
| 16> C 	 6.84731 	 -13.3418 	 64.9654
| 17> H 	 6.46596 	 -13.1837 	 65.984
| 18> H 	 6.2093 	 -12.7381 	 64.3797
| 19> C 	 6.42733 	 -14.7717 	 64.7011
| 20> H 	 5.36707 	 -14.9183 	 64.495
| 21> H 	 6.93969 	 -14.9922 	 63.745
| 22> H 	 6.79713 	 -15.5036 	 65.4209
| 23> S 	 11.9252 	 -14.9774 	 69.8419
| 24> C 	 11.399 	 -15.1108 	 71.4896
| 25> C 	 10.0334 	 -15.0368 	 71.5692
| 26> C 	 9.41053 	 -14.853 	 70.2969
| 27> C 	 10.3012 	 -14.7969 	 69.214
| 28> H 	 9.45865 	 -15.1308 	 72.5076
| 29> C 	 7.87659 	 -14.8302 	 70.1363
| 30> H 	 7.61755 	 -13.8903 	 69.5646
| 31> H 	 7.4668 	 -14.5521 	 71.083
| 32> C 	 7.09805 	 -16.111 	 69.6307
| 33> H 	 6.01474 	 -15.9651 	 69.7045
| 34> H 	 7.1232 	 -16.9129 	 70.3511
| 35> C 	 7.30425 	 -16.6171 	 68.2296
| 36> H 	 8.31409 	 -17.048 	 68.0631
| 37> H 	 7.22212 	 -15.7327 	 67.608
| 38> H 	 6.58017 	 -17.3997 	 67.9975
| 39> H 	 10.7233 	 -14.8029 	 64.3215
| 40> H 	 12.1089 	 -15.1282 	 72.3587
| 41> *
| 42>
| 43>                          ****END OF INPUT****

CARTESIAN COORDINATES (ANGSTROEM)
---------------------------------
  S     11.159700  -15.467100   66.625200
  C     10.267400  -14.785000   65.314500
  C      9.195840  -13.974300   65.730200
  C      9.080340  -13.965600   67.153600
  C     10.099200  -14.736500   67.755600
  H      8.398620  -13.355100   67.663100
  C      8.316370  -13.024500   64.888100
  H      8.557210  -12.882500   63.872300
  H      8.500970  -12.029300   65.196800
  C      6.847310  -13.341800   64.965400
  H      6.465960  -13.183700   65.984000
  H      6.209300  -12.738100   64.379700
  C      6.427330  -14.771700   64.701100
  H      5.367070  -14.918300   64.495000
  H      6.939690  -14.992200   63.745000
  H      6.797130  -15.503600   65.420900
  S     11.925200  -14.977400   69.841900
  C     11.399000  -15.110800   71.489600
  C     10.033400  -15.036800   71.569200
  C      9.410530  -14.853000   70.296900
  C     10.301200  -14.796900   69.214000
  H      9.458650  -15.130800   72.507600
  C      7.876590  -14.830200   70.136300
  H      7.617550  -13.890300   69.564600
  H      7.466800  -14.552100   71.083000
  C      7.098050  -16.111000   69.630700
  H      6.014740  -15.965100   69.704500
  H      7.123200  -16.912900   70.351100
  C      7.304250  -16.617100   68.229600
  H      8.314090  -17.048000   68.063100
  H      7.222120  -15.732700   67.608000
  H      6.580170  -17.399700   67.997500
  H     10.723300  -14.802900   64.321500
  H     12.108900  -15.128200   72.358700

 Total Charge           Charge          ....    0
 Multiplicity           Mult            ....    1
 Number of Electrons    NEL             ....  134
 Basis Dimension        Dim             ....  322

ORBITAL ENERGIES
----------------

  NO   OCC          E(Eh)            E(eV)
   0   2.0000     -88.973692     -2421.0973
   1   2.0000     -88.964839     -2420.8564
   2   2.0000     -10.333832      -281.1979
   3   2.0000     -10.329574      -281.0820
   4   2.0000     -10.320532      -280.8359
   5   2.0000     -10.315571      -280.7009
   6   2.0000     -10.309232      -280.5285
   7   2.0000     -10.304826      -280.4086
   8   2.0000     -10.297889      -280.2198
   9   2.0000     -10.296437      -280.1803
  10   2.0000     -10.293595      -280.1030
  11   2.0000     -10.289372      -279.9881
  12   2.0000     -10.283927      -279.8399
  13   2.0000     -10.279187      -279.7109
  14   2.0000     -10.270963      -279.4871
  15   2.0000     -10.268633      -279.4237
  16   2.0000      -8.089052      -220.1143
  17   2.0000      -8.079919      -219.8658
  18   2.0000      -6.047444      -164.5593
  19   2.0000      -6.043418      -164.4498
  20   2.0000      -6.039975      -164.3561
  21   2.0000      -6.038425      -164.3139
  22   2.0000      -6.034265      -164.2007
  23   2.0000      -6.030793      -164.1062
  24   2.0000      -1.009372       -27.4664
  25   2.0000      -0.986955       -26.8564
  26   2.0000      -0.918245       -24.9867
  27   2.0000      -0.899361       -24.4728
  28   2.0000      -0.867179       -23.5971
  29   2.0000      -0.854577       -23.2542
  30   2.0000      -0.847473       -23.0609
  31   2.0000      -0.812548       -22.1105
  32   2.0000      -0.787699       -21.4344
  33   2.0000      -0.773209       -21.0401
  34   2.0000      -0.703961       -19.1558
  35   2.0000      -0.695480       -18.9250
  36   2.0000      -0.689110       -18.7516
  37   2.0000      -0.661586       -18.0027
  38   2.0000      -0.641660       -17.4605
  39   2.0000      -0.630629       -17.1603
  40   2.0000      -0.590315       -16.0633
  41   2.0000      -0.567587       -15.4448
  42   2.0000      -0.555987       -15.1292
  43   2.0000      -0.549345       -14.9484
  44   2.0000      -0.548110       -14.9148
  45   2.0000      -0.537529       -14.6269
  46   2.0000      -0.511691       -13.9238
  47   2.0000      -0.506121       -13.7722
  48   2.0000      -0.500924       -13.6308
  49   2.0000      -0.494931       -13.4678
  50   2.0000      -0.492992       -13.4150
  51   2.0000      -0.479039       -13.0353
  52   2.0000      -0.470354       -12.7990
  53   2.0000      -0.464844       -12.6491
  54   2.0000      -0.458303       -12.4711
  55   2.0000      -0.450641       -12.2626
  56   2.0000      -0.450453       -12.2574
  57   2.0000      -0.438438       -11.9305
  58   2.0000      -0.437323       -11.9002
  59   2.0000      -0.427566       -11.6347
  60   2.0000      -0.415501       -11.3063
  61   2.0000      -0.401375       -10.9220
  62   2.0000      -0.398370       -10.8402
  63   2.0000      -0.356311        -9.6957
  64   2.0000      -0.336769        -9.1640
  65   2.0000      -0.331417        -9.0183
  66   2.0000      -0.283315        -7.7094
  67   0.0000       0.021585         0.5874
  68   0.0000       0.079634         2.1670
  69   0.0000       0.109170         2.9707
  70   0.0000       0.118349         3.2204
  71   0.0000       0.129977         3.5368

MULLIKEN ATOMIC CHARGES
-----------------------
   0 S :    0.131040
   1 C :   -0.140759
   2 C :   -0.075589
   3 C :    0.018988
   4 C :   -0.127423
   5 H :   -0.007352
   6 C :    0.135413
   7 H :    0.000162
   8 H :    0.021523
   9 C :   -0.076131
  10 H :    0.013167
  11 H :    0.014691
  12 C :   -0.063779
  13 H :    0.035935
  14 H :    0.011985
  15 H :    0.049679
  16 S :    0.090667
  17 C :   -0.109427
  18 C :   -0.025777
  19 C :   -0.071285
  20 C :   -0.132318
  21 H :    0.029450
  22 C :    0.068790
  23 H :    0.030085
  24 H :   -0.001984
  25 C :   -0.050919
  26 H :    0.015233
  27 H :    0.009578
  28 C :   -0.042755
  29 H :    0.043887
  30 H :    0.033855
  31 H :    0.034266
  32 H :    0.057843
  33 H :    0.079260
Sum of atomic charges:    0.0000000

LOEWDIN ATOMIC CHARGES
----------------------
   0 S :    0.441223
   1 C :   -0.215111
   2 C :   -0.048706
   3 C :   -0.052900
   4 C :   -0.198958
   5 H :    0.019423
   6 C :   -0.025670
   7 H :    0.024801
   8 H :    0.033394
   9 C :   -0.044754
  10 H :    0.018100
  11 H :    0.020259
  12 C :   -0.067766
  13 H :    0.027064
  14 H :    0.023572
  15 H :    0.025585
  16 S :    0.406951
  17 C :   -0.198047
  18 C :   -0.076940
  19 C :   -0.064388
  20 C :   -0.196323
  21 H :    0.038189
  22 C :   -0.034911
  23 H :    0.033930
  24 H :    0.025828
  25 C :   -0.042962
  26 H :    0.027270
  27 H :    0.019078
  28 C :   -0.066008
  29 H :    0.027907
  30 H :    0.022559
  31 H :    0.027471
  32 H :    0.028514
  33 H :    0.042327

  Mayer bond orders larger than 0.100000
B(  0-S ,  1-C ) :   1.1490 B(  0-S ,  4-C ) :   1.1819 B(  1-C ,  2-C ) :   1.5785
B(  1-C , 32-H ) :   0.9652 B(  2-C ,  3-C ) :   1.2790 B(  2-C ,  6-C ) :   1.0154
B(  3-C ,  4-C ) :   1.5072 B(  3-C ,  5-H ) :   1.0025 B(  4-C , 20-C ) :   1.0676
B(  6-C ,  7-H ) :   0.9376 B(  6-C ,  8-H ) :   0.9370 B(  6-C ,  9-C ) :   1.0729
B(  9-C , 10-H ) :   0.9537 B(  9-C , 11-H ) :   0.9521 B(  9-C , 12-C ) :   1.0806
B( 12-C , 13-H ) :   0.9727 B( 12-C , 14-H ) :   0.9716 B( 12-C , 15-H ) :   0.9650
B( 16-S , 17-C ) :   1.1654 B( 16-S , 20-C ) :   1.1428 B( 17-C , 18-C ) :   1.5756
B( 17-C , 33-H ) :   0.9610 B( 18-C , 19-C ) :   1.2885 B( 18-C , 21-H ) :   0.9853
B( 19-C , 20-C ) :   1.5599 B( 19-C , 22-C ) :   1.0286 B( 22-C , 23-H ) :   0.9404
B( 22-C , 24-H ) :   0.9215 B( 22-C , 25-C ) :   1.0663 B( 25-C , 26-H ) :   0.9480
B( 25-C , 27-H ) :   0.9505 B( 25-C , 28-C ) :   1.0914 B( 28-C , 29-H ) :   0.9695
B( 28-C , 30-H ) :   0.9601 B( 28-C , 31-H ) :   0.9684

Dispersion correction           -0.016781135
FINAL SINGLE POINT ENERGY     -1339.877825725330

DIPOLE MOMENT
-------------
                                X             Y             Z
Electronic contribution:     27.97442      -0.74345       8.72327
Nuclear contribution   :    -28.47828       1.04331      -8.70205
                        -----------------------------------------
Total Dipole Moment    :     -0.50386       0.29987       0.02122
                        -----------------------------------------
Magnitude (a.u.)       :      0.58672
Magnitude (Debye)      :      1.49133

Rotational constants in cm-1:     0.021698     0.009894     0.007759
Rotational constants in MHz :   650.494868   296.606461   232.607663

                             ****ORCA TERMINATED NORMALLY****
TOTAL RUN TIME: 0 days 0 hours 0 minutes 38 seconds 456 msec
