                         Program Version 4.2.1 -  RELEASE  -
|  1> ! wB97X-D3 SP def2-SVP
|  2> %pal
|  3> nprocs 16
|  4> end
|  5>
|  6> * xyz 0 1
|  7> S 	 -57.5272 	 35.2371 	 91.2277
|  8> C 	 -58.9519 	 34.354 	 91.7428
|  9> C 	 -60.127 	 34.95 	 91.3401
| 10> C 	 -59.8136 	 36.1645 	 90.6021
| 11> C 	 -58.4803 	 36.4424 	 90.3934
| 12> H 	 -60.5683 	 36.6835 	 90.0307
| 13> C 	 -61.5568 	 34.331 	 91.4311
| 14> H 	 -62.2825 	 35.0791 	 91.2399
| 15> H 	 -61.7522 	 34.0212 	 92.4823
| 16> C 	 -61.7544 	 33.0523 	 90.5967
| 17> H 	 -61.0785 	 32.2311 	 90.8905
| 18> H 	 -62.7971 	 32.7908 	 90.8353
| 19> C 	 -61.7803 	 33.2095 	 89.0761
| 20> H 	 -61.9354 	 32.3748 	 88.3797
| 21> H 	 -62.5497 	 33.9199 	 88.7619
| 22> H 	 -60.6995 	 33.4018 	 88.8024
| 23> S 	 -58.0757 	 39.1577 	 90.1053
| 24> C 	 -57.3743 	 39.7901 	 88.6739
| 25> C 	 -57.2238 	 38.8007 	 87.7431
| 26> C 	 -57.3011 	 37.4713 	 88.3183
| 27> C 	 -57.9566 	 37.5165 	 89.538
| 28> H 	 -56.8757 	 39.0699 	 86.7258
| 29> C 	 -56.9892 	 36.2205 	 87.4136
| 30> H 	 -57.2769 	 36.3635 	 86.4001
| 31> H 	 -57.5457 	 35.4406 	 87.7985
| 32> C 	 -55.5594 	 35.6857 	 87.634
| 33> H 	 -55.5291 	 34.765 	 87.0744
| 34> H 	 -55.4323 	 35.4046 	 88.6882
| 35> C 	 -54.4547 	 36.7393 	 87.2399
| 36> H 	 -54.6604 	 37.2798 	 86.3096
| 37> H 	 -53.474 	 36.2592 	 87.1496
| 38> H 	 -54.4855 	 37.5725 	 87.9146
| 39> H 	 -58.8243 	 33.442 	 92.3249
| 40> H 	 -57.2451 	 40.7684 	 88.3538
| 41> *
| 42>
| 43>                          ****END OF INPUT****

CARTESIAN COORDINATES (ANGSTROEM)
---------------------------------
  S    -57.527200   35.237100   91.227700
  C    -58.951900   34.354000   91.742800
  C    -60.127000   34.950000   91.340100
  C    -59.813600   36.164500   90.602100
  C    -58.480300   36.442400   90.393400
  H    -60.568300   36.683500   90.030700
  C    -61.556800   34.331000   91.431100
  H    -62.282500   35.079100   91.239900
  H    -61.752200   34.021200   92.482300
  C    -61.754400   33.052300   90.596700
  H    -61.078500   32.231100   90.890500
  H    -62.797100   32.790800   90.835300
  C    -61.780300   33.209500   89.076100
  H    -61.935400   32.374800   88.379700
  H    -62.549700   33.919900   88.761900
  H    -60.699500   33.401800   88.802400
  S    -58.075700   39.157700   90.105300
  C    -57.374300   39.790100   88.673900
  C    -57.223800   38.800700   87.743100
  C    -57.301100   37.471300   88.318300
  C    -57.956600   37.516500   89.538000
  H    -56.875700   39.069900   86.725800
  C    -56.989200   36.220500   87.413600
  H    -57.276900   36.363500   86.400100
  H    -57.545700   35.440600   87.798500
  C    -55.559400   35.685700   87.634000
  H    -55.529100   34.765000   87.074400
  H    -55.432300   35.404600   88.688200
  C    -54.454700   36.739300   87.239900
  H    -54.660400   37.279800   86.309600
  H    -53.474000   36.259200   87.149600
  H    -54.485500   37.572500   87.914600
  H    -58.824300   33.442000   92.324900
  H    -57.245100   40.768400   88.353800

 Total Charge           Charge          ....    0
 Multiplicity           Mult            ....    1
 Number of Electrons    NEL             ....  134
 Basis Dimension        Dim             ....  322

ORBITAL ENERGIES
----------------

  NO   OCC          E(Eh)            E(eV)
   0   2.0000     -88.966434     -2420.8997
   1   2.0000     -88.964681     -2420.8521
   2   2.0000     -10.329698      -281.0854
   3   2.0000     -10.327347      -281.0214
   4   2.0000     -10.316889      -280.7368
   5   2.0000     -10.307580      -280.4835
   6   2.0000     -10.306411      -280.4517
   7   2.0000     -10.306299      -280.4486
   8   2.0000     -10.300705      -280.2964
   9   2.0000     -10.294118      -280.1172
  10   2.0000     -10.293001      -280.0868
  11   2.0000     -10.292729      -280.0794
  12   2.0000     -10.285216      -279.8749
  13   2.0000     -10.284060      -279.8435
  14   2.0000     -10.280778      -279.7542
  15   2.0000     -10.273062      -279.5442
  16   2.0000      -8.080951      -219.8939
  17   2.0000      -8.080101      -219.8707
  18   2.0000      -6.039473      -164.3424
  19   2.0000      -6.038664      -164.3204
  20   2.0000      -6.035374      -164.2309
  21   2.0000      -6.034443      -164.2055
  22   2.0000      -6.031833      -164.1345
  23   2.0000      -6.030814      -164.1068
  24   2.0000      -1.007262       -27.4090
  25   2.0000      -0.985708       -26.8225
  26   2.0000      -0.909237       -24.7416
  27   2.0000      -0.902364       -24.5546
  28   2.0000      -0.869369       -23.6567
  29   2.0000      -0.843625       -22.9562
  30   2.0000      -0.837919       -22.8009
  31   2.0000      -0.814123       -22.1534
  32   2.0000      -0.786581       -21.4040
  33   2.0000      -0.778517       -21.1845
  34   2.0000      -0.705530       -19.1984
  35   2.0000      -0.698496       -19.0071
  36   2.0000      -0.689378       -18.7589
  37   2.0000      -0.658002       -17.9051
  38   2.0000      -0.642764       -17.4905
  39   2.0000      -0.611615       -16.6429
  40   2.0000      -0.591694       -16.1008
  41   2.0000      -0.579714       -15.7748
  42   2.0000      -0.550040       -14.9674
  43   2.0000      -0.549443       -14.9511
  44   2.0000      -0.541569       -14.7369
  45   2.0000      -0.536713       -14.6047
  46   2.0000      -0.516386       -14.0516
  47   2.0000      -0.511486       -13.9182
  48   2.0000      -0.505931       -13.7671
  49   2.0000      -0.489121       -13.3097
  50   2.0000      -0.487624       -13.2689
  51   2.0000      -0.478497       -13.0206
  52   2.0000      -0.474099       -12.9009
  53   2.0000      -0.466871       -12.7042
  54   2.0000      -0.463319       -12.6076
  55   2.0000      -0.444299       -12.0900
  56   2.0000      -0.442070       -12.0293
  57   2.0000      -0.437916       -11.9163
  58   2.0000      -0.431700       -11.7472
  59   2.0000      -0.424740       -11.5578
  60   2.0000      -0.418031       -11.3752
  61   2.0000      -0.412279       -11.2187
  62   2.0000      -0.396405       -10.7867
  63   2.0000      -0.338723        -9.2171
  64   2.0000      -0.332844        -9.0571
  65   2.0000      -0.325457        -8.8561
  66   2.0000      -0.304379        -8.2826
  67   0.0000       0.040499         1.1020
  68   0.0000       0.064372         1.7516
  69   0.0000       0.109159         2.9704
  70   0.0000       0.120453         3.2777
  71   0.0000       0.130168         3.5421

MULLIKEN ATOMIC CHARGES
-----------------------
   0 S :    0.112445
   1 C :   -0.154943
   2 C :   -0.076061
   3 C :    0.036665
   4 C :   -0.161766
   5 H :    0.012755
   6 C :    0.089159
   7 H :    0.014125
   8 H :    0.038167
   9 C :   -0.070649
  10 H :    0.039355
  11 H :    0.027242
  12 C :   -0.080082
  13 H :    0.031888
  14 H :    0.034850
  15 H :    0.040295
  16 S :    0.128672
  17 C :   -0.051255
  18 C :   -0.067832
  19 C :   -0.051284
  20 C :   -0.173231
  21 H :    0.031006
  22 C :    0.106308
  23 H :    0.028626
  24 H :    0.003456
  25 C :   -0.074633
  26 H :    0.027199
  27 H :    0.030740
  28 C :   -0.051188
  29 H :    0.015439
  30 H :    0.042839
  31 H :    0.036407
  32 H :    0.055976
  33 H :    0.029311
Sum of atomic charges:   -0.0000000

LOEWDIN ATOMIC CHARGES
----------------------
   0 S :    0.405518
   1 C :   -0.192960
   2 C :   -0.065554
   3 C :   -0.060031
   4 C :   -0.204056
   5 H :    0.028991
   6 C :   -0.023394
   7 H :    0.024739
   8 H :    0.040245
   9 C :   -0.041383
  10 H :    0.027208
  11 H :    0.025363
  12 C :   -0.083616
  13 H :    0.028176
  14 H :    0.025930
  15 H :    0.033403
  16 S :    0.429041
  17 C :   -0.191846
  18 C :   -0.074695
  19 C :   -0.048411
  20 C :   -0.206811
  21 H :    0.033293
  22 C :   -0.017736
  23 H :    0.026472
  24 H :    0.020815
  25 C :   -0.031743
  26 H :    0.020832
  27 H :    0.022862
  28 C :   -0.071605
  29 H :    0.021555
  30 H :    0.027511
  31 H :    0.024543
  32 H :    0.027490
  33 H :    0.019857

  Mayer bond orders larger than 0.100000
B(  0-S ,  1-C ) :   1.1516 B(  0-S ,  4-C ) :   1.1380 B(  1-C ,  2-C ) :   1.6043
B(  1-C , 32-H ) :   0.9694 B(  2-C ,  3-C ) :   1.2455 B(  2-C ,  6-C ) :   1.0153
B(  3-C ,  4-C ) :   1.6028 B(  3-C ,  5-H ) :   0.9869 B(  4-C , 20-C ) :   1.0123
B(  6-C ,  7-H ) :   0.9422 B(  6-C ,  8-H ) :   0.9386 B(  6-C ,  9-C ) :   1.0713
B(  9-C , 10-H ) :   0.9587 B(  9-C , 11-H ) :   0.9549 B(  9-C , 12-C ) :   1.0709
B( 12-C , 13-H ) :   0.9747 B( 12-C , 14-H ) :   0.9747 B( 12-C , 15-H ) :   0.9735
B( 16-S , 17-C ) :   1.1524 B( 16-S , 20-C ) :   1.1514 B( 17-C , 18-C ) :   1.6360
B( 17-C , 33-H ) :   0.9709 B( 18-C , 19-C ) :   1.2180 B( 18-C , 21-H ) :   0.9790
B( 19-C , 20-C ) :   1.6113 B( 19-C , 22-C ) :   1.0285 B( 22-C , 23-H ) :   0.9511
B( 22-C , 24-H ) :   0.9271 B( 22-C , 25-C ) :   1.0747 B( 25-C , 26-H ) :   0.9593
B( 25-C , 27-H ) :   0.9546 B( 25-C , 28-C ) :   1.0643 B( 28-C , 29-H ) :   0.9762
B( 28-C , 30-H ) :   0.9772 B( 28-C , 31-H ) :   0.9714

Dispersion correction           -0.015205866
FINAL SINGLE POINT ENERGY     -1339.866887182035

DIPOLE MOMENT
-------------
                                X             Y             Z
Electronic contribution:      4.16879      15.14407      13.08732
Nuclear contribution   :     -4.54105     -15.50654     -13.51321
                        -----------------------------------------
Total Dipole Moment    :     -0.37226      -0.36247      -0.42589
                        -----------------------------------------
Magnitude (a.u.)       :      0.67182
Magnitude (Debye)      :      1.70764

Rotational constants in cm-1:     0.020716     0.008103     0.007268
Rotational constants in MHz :   621.057316   242.929198   217.878357

                             ****ORCA TERMINATED NORMALLY****
TOTAL RUN TIME: 0 days 0 hours 0 minutes 30 seconds 181 msec
