                         Program Version 4.2.1 -  RELEASE  -
|  1> ! wB97X-D3 SP def2-SVP
|  2> %pal
|  3> nprocs 16
|  4> end
|  5>
|  6> * xyz 0 1
|  7> S 	 6.12795 	 -6.83505 	 84.5681
|  8> C 	 6.48305 	 -5.33539 	 83.8123
|  9> C 	 5.99564 	 -4.26666 	 84.5071
| 10> C 	 5.38137 	 -4.71286 	 85.738
| 11> C 	 5.33801 	 -6.08719 	 85.8863
| 12> H 	 5.03086 	 -4.10315 	 86.5692
| 13> C 	 6.17272 	 -2.81456 	 84.0589
| 14> H 	 5.17596 	 -2.35432 	 84.2651
| 15> H 	 6.35673 	 -2.68901 	 82.9288
| 16> C 	 7.31084 	 -2.09153 	 84.8483
| 17> H 	 7.23703 	 -0.990484 	 84.757
| 18> H 	 7.10838 	 -2.17694 	 85.896
| 19> C 	 8.6964 	 -2.61018 	 84.736
| 20> H 	 9.37396 	 -1.95324 	 85.2563
| 21> H 	 8.73219 	 -3.61095 	 85.0183
| 22> H 	 9.21244 	 -2.70255 	 83.7934
| 23> S 	 4.28453 	 -8.52388 	 86.7555
| 24> C 	 3.91987 	 -8.74335 	 88.4853
| 25> C 	 4.07882 	 -7.53167 	 89.1635
| 26> C 	 4.65094 	 -6.45964 	 88.4064
| 27> C 	 4.86263 	 -6.83338 	 87.0571
| 28> H 	 3.82065 	 -7.50533 	 90.1391
| 29> C 	 5.03768 	 -5.10011 	 89.1534
| 30> H 	 5.72626 	 -4.53888 	 88.6021
| 31> H 	 5.63156 	 -5.3687 	 89.9931
| 32> C 	 3.83154 	 -4.20563 	 89.6491
| 33> H 	 3.11269 	 -4.71748 	 90.2056
| 34> H 	 3.47455 	 -3.787 	 88.6653
| 35> C 	 4.29003 	 -3.04091 	 90.5388
| 36> H 	 3.44962 	 -2.51137 	 90.9689
| 37> H 	 4.99137 	 -2.34426 	 90.1333
| 38> H 	 4.73662 	 -3.44654 	 91.4867
| 39> H 	 6.8285 	 -5.41093 	 82.8247
| 40> H 	 3.49474 	 -9.63264 	 88.8243
| 41> *
| 42>
| 43>                          ****END OF INPUT****

CARTESIAN COORDINATES (ANGSTROEM)
---------------------------------
  S      6.127950   -6.835050   84.568100
  C      6.483050   -5.335390   83.812300
  C      5.995640   -4.266660   84.507100
  C      5.381370   -4.712860   85.738000
  C      5.338010   -6.087190   85.886300
  H      5.030860   -4.103150   86.569200
  C      6.172720   -2.814560   84.058900
  H      5.175960   -2.354320   84.265100
  H      6.356730   -2.689010   82.928800
  C      7.310840   -2.091530   84.848300
  H      7.237030   -0.990484   84.757000
  H      7.108380   -2.176940   85.896000
  C      8.696400   -2.610180   84.736000
  H      9.373960   -1.953240   85.256300
  H      8.732190   -3.610950   85.018300
  H      9.212440   -2.702550   83.793400
  S      4.284530   -8.523880   86.755500
  C      3.919870   -8.743350   88.485300
  C      4.078820   -7.531670   89.163500
  C      4.650940   -6.459640   88.406400
  C      4.862630   -6.833380   87.057100
  H      3.820650   -7.505330   90.139100
  C      5.037680   -5.100110   89.153400
  H      5.726260   -4.538880   88.602100
  H      5.631560   -5.368700   89.993100
  C      3.831540   -4.205630   89.649100
  H      3.112690   -4.717480   90.205600
  H      3.474550   -3.787000   88.665300
  C      4.290030   -3.040910   90.538800
  H      3.449620   -2.511370   90.968900
  H      4.991370   -2.344260   90.133300
  H      4.736620   -3.446540   91.486700
  H      6.828500   -5.410930   82.824700
  H      3.494740   -9.632640   88.824300

 Total Charge           Charge          ....    0
 Multiplicity           Mult            ....    1
 Number of Electrons    NEL             ....  134
 Basis Dimension        Dim             ....  322

ORBITAL ENERGIES
----------------

  NO   OCC          E(Eh)            E(eV)
   0   2.0000     -88.965685     -2420.8794
   1   2.0000     -88.962361     -2420.7889
   2   2.0000     -10.338967      -281.3376
   3   2.0000     -10.328106      -281.0421
   4   2.0000     -10.320222      -280.8275
   5   2.0000     -10.315844      -280.7084
   6   2.0000     -10.306746      -280.4608
   7   2.0000     -10.305802      -280.4351
   8   2.0000     -10.305395      -280.4240
   9   2.0000     -10.297288      -280.2034
  10   2.0000     -10.295980      -280.1679
  11   2.0000     -10.295389      -280.1518
  12   2.0000     -10.292437      -280.0715
  13   2.0000     -10.286280      -279.9039
  14   2.0000     -10.282132      -279.7910
  15   2.0000     -10.264404      -279.3086
  16   2.0000      -8.079167      -219.8453
  17   2.0000      -8.078837      -219.8363
  18   2.0000      -6.037731      -164.2950
  19   2.0000      -6.037209      -164.2808
  20   2.0000      -6.033923      -164.1914
  21   2.0000      -6.033024      -164.1669
  22   2.0000      -6.029880      -164.0814
  23   2.0000      -6.029724      -164.0771
  24   2.0000      -1.009222       -27.4623
  25   2.0000      -0.977566       -26.6009
  26   2.0000      -0.911403       -24.8005
  27   2.0000      -0.903601       -24.5882
  28   2.0000      -0.870919       -23.6989
  29   2.0000      -0.853529       -23.2257
  30   2.0000      -0.845171       -22.9983
  31   2.0000      -0.814582       -22.1659
  32   2.0000      -0.786935       -21.4136
  33   2.0000      -0.777988       -21.1701
  34   2.0000      -0.710114       -19.3232
  35   2.0000      -0.703241       -19.1362
  36   2.0000      -0.696976       -18.9657
  37   2.0000      -0.667486       -18.1632
  38   2.0000      -0.648634       -17.6502
  39   2.0000      -0.619877       -16.8677
  40   2.0000      -0.599549       -16.3146
  41   2.0000      -0.571828       -15.5602
  42   2.0000      -0.568139       -15.4599
  43   2.0000      -0.554909       -15.0998
  44   2.0000      -0.537380       -14.6229
  45   2.0000      -0.528896       -14.3920
  46   2.0000      -0.516119       -14.0443
  47   2.0000      -0.508702       -13.8425
  48   2.0000      -0.507131       -13.7997
  49   2.0000      -0.495868       -13.4932
  50   2.0000      -0.491530       -13.3752
  51   2.0000      -0.485333       -13.2066
  52   2.0000      -0.474503       -12.9119
  53   2.0000      -0.472371       -12.8539
  54   2.0000      -0.456162       -12.4128
  55   2.0000      -0.451024       -12.2730
  56   2.0000      -0.449777       -12.2390
  57   2.0000      -0.440782       -11.9943
  58   2.0000      -0.439369       -11.9558
  59   2.0000      -0.423395       -11.5212
  60   2.0000      -0.417366       -11.3571
  61   2.0000      -0.413791       -11.2598
  62   2.0000      -0.406518       -11.0619
  63   2.0000      -0.358428        -9.7533
  64   2.0000      -0.333403        -9.0724
  65   2.0000      -0.329418        -8.9639
  66   2.0000      -0.286411        -7.7936
  67   0.0000       0.020226         0.5504
  68   0.0000       0.083048         2.2598
  69   0.0000       0.099950         2.7198
  70   0.0000       0.116865         3.1801
  71   0.0000       0.125629         3.4185

MULLIKEN ATOMIC CHARGES
-----------------------
   0 S :    0.101750
   1 C :   -0.118166
   2 C :   -0.069719
   3 C :   -0.009062
   4 C :   -0.111631
   5 H :    0.000002
   6 C :    0.041772
   7 H :    0.037998
   8 H :    0.045683
   9 C :   -0.059192
  10 H :    0.027301
  11 H :    0.011837
  12 C :   -0.012119
  13 H :    0.026954
  14 H :    0.024940
  15 H :    0.007903
  16 S :    0.076797
  17 C :   -0.071021
  18 C :    0.009904
  19 C :   -0.024966
  20 C :   -0.134645
  21 H :   -0.022219
  22 C :    0.068716
  23 H :    0.004657
  24 H :    0.014911
  25 C :   -0.051032
  26 H :    0.026323
  27 H :    0.042617
  28 C :   -0.059018
  29 H :    0.032650
  30 H :    0.034232
  31 H :    0.023626
  32 H :    0.038698
  33 H :    0.043518
Sum of atomic charges:   -0.0000000

LOEWDIN ATOMIC CHARGES
----------------------
   0 S :    0.430009
   1 C :   -0.196599
   2 C :   -0.063738
   3 C :   -0.069296
   4 C :   -0.205190
   5 H :    0.028510
   6 C :   -0.033410
   7 H :    0.036631
   8 H :    0.038903
   9 C :   -0.045256
  10 H :    0.026104
  11 H :    0.022985
  12 C :   -0.066350
  13 H :    0.030235
  14 H :    0.021152
  15 H :    0.021406
  16 S :    0.363847
  17 C :   -0.158917
  18 C :   -0.053120
  19 C :   -0.050083
  20 C :   -0.171574
  21 H :    0.012182
  22 C :   -0.021742
  23 H :    0.017887
  24 H :    0.025340
  25 C :   -0.029069
  26 H :    0.017802
  27 H :    0.030834
  28 C :   -0.069464
  29 H :    0.027783
  30 H :    0.020407
  31 H :    0.028616
  32 H :    0.016622
  33 H :    0.016555

  Mayer bond orders larger than 0.100000
B(  0-S ,  1-C ) :   1.1532 B(  0-S ,  4-C ) :   1.1648 B(  1-C ,  2-C ) :   1.5900
B(  1-C , 32-H ) :   0.9779 B(  2-C ,  3-C ) :   1.2399 B(  2-C ,  6-C ) :   1.0167
B(  3-C ,  4-C ) :   1.5686 B(  3-C ,  5-H ) :   0.9923 B(  4-C , 20-C ) :   1.0529
B(  6-C ,  7-H ) :   0.9378 B(  6-C ,  8-H ) :   0.9520 B(  6-C ,  9-C ) :   1.0648
B(  9-C , 10-H ) :   0.9566 B(  9-C , 11-H ) :   0.9512 B(  9-C , 12-C ) :   1.0774
B( 12-C , 13-H ) :   0.9679 B( 12-C , 14-H ) :   0.9696 B( 12-C , 15-H ) :   0.9712
B( 16-S , 17-C ) :   1.1380 B( 16-S , 20-C ) :   1.1363 B( 17-C , 18-C ) :   1.6026
B( 17-C , 20-C ) :   0.1067 B( 17-C , 33-H ) :   0.9789 B( 18-C , 19-C ) :   1.2373
B( 18-C , 21-H ) :   1.0041 B( 19-C , 20-C ) :   1.5950 B( 19-C , 22-C ) :   1.0173
B( 22-C , 23-H ) :   0.9414 B( 22-C , 24-H ) :   0.9394 B( 22-C , 25-C ) :   1.0529
B( 25-C , 26-H ) :   0.9583 B( 25-C , 27-H ) :   0.9567 B( 25-C , 28-C ) :   1.0866
B( 28-C , 29-H ) :   0.9730 B( 28-C , 30-H ) :   0.9777 B( 28-C , 31-H ) :   0.9704

Dispersion correction           -0.014050474
FINAL SINGLE POINT ENERGY     -1339.862134896719

DIPOLE MOMENT
-------------
                                X             Y             Z
Electronic contribution:     -5.96749     -28.50874     -10.72631
Nuclear contribution   :      5.96190      29.11131      11.19225
                        -----------------------------------------
Total Dipole Moment    :     -0.00559       0.60258       0.46595
                        -----------------------------------------
Magnitude (a.u.)       :      0.76173
Magnitude (Debye)      :      1.93617

Rotational constants in cm-1:     0.016330     0.009581     0.006416
Rotational constants in MHz :   489.548651   287.232939   192.332270

                             ****ORCA TERMINATED NORMALLY****
TOTAL RUN TIME: 0 days 0 hours 0 minutes 33 seconds 807 msec
