                         Program Version 4.2.1 -  RELEASE  -
|  1> ! wB97X-D3 SP def2-SVP
|  2> %pal
|  3> nprocs 16
|  4> end
|  5>
|  6> * xyz 0 1
|  7> S 	 -14.6379 	 74.5752 	 57.6243
|  8> C 	 -15.8969 	 73.7052 	 56.7249
|  9> C 	 -15.2961 	 72.7759 	 55.8639
| 10> C 	 -13.8808 	 72.7077 	 56.0109
| 11> C 	 -13.3455 	 73.7621 	 56.7042
| 12> H 	 -13.2705 	 72.108 	 55.4733
| 13> C 	 -16.0178 	 71.9279 	 54.8634
| 14> H 	 -16.8837 	 71.5825 	 55.3508
| 15> H 	 -15.4804 	 71.0901 	 54.6723
| 16> C 	 -16.5905 	 72.6855 	 53.6036
| 17> H 	 -17.277 	 73.4901 	 53.9775
| 18> H 	 -15.773 	 73.1386 	 53.001
| 19> C 	 -17.4728 	 71.7801 	 52.7003
| 20> H 	 -17.9247 	 72.4897 	 52.028
| 21> H 	 -16.8147 	 71.0738 	 52.1506
| 22> H 	 -18.3276 	 71.3542 	 53.2174
| 23> S 	 -11.1805 	 73.7819 	 58.583
| 24> C 	 -9.61693 	 73.9133 	 57.8823
| 25> C 	 -9.65284 	 74.0506 	 56.5269
| 26> C 	 -10.9373 	 74.1123 	 55.961
| 27> C 	 -11.96 	 73.9272 	 56.9468
| 28> H 	 -8.82255 	 74.2835 	 55.9819
| 29> C 	 -11.1545 	 74.3312 	 54.4884
| 30> H 	 -11.7925 	 73.5405 	 54.099
| 31> H 	 -10.1964 	 74.1399 	 53.9444
| 32> C 	 -11.638 	 75.723 	 54.0453
| 33> H 	 -10.9377 	 76.4972 	 54.1465
| 34> H 	 -12.48 	 75.851 	 54.721
| 35> C 	 -12.2336 	 75.8401 	 52.6553
| 36> H 	 -11.5672 	 75.3911 	 51.8886
| 37> H 	 -12.2006 	 76.9089 	 52.4251
| 38> H 	 -13.1762 	 75.399 	 52.5381
| 39> H 	 -16.9692 	 73.8321 	 56.9936
| 40> H 	 -8.67467 	 73.9125 	 58.4198
| 41> *
| 42>
| 43>                          ****END OF INPUT****

CARTESIAN COORDINATES (ANGSTROEM)
---------------------------------
  S    -14.637900   74.575200   57.624300
  C    -15.896900   73.705200   56.724900
  C    -15.296100   72.775900   55.863900
  C    -13.880800   72.707700   56.010900
  C    -13.345500   73.762100   56.704200
  H    -13.270500   72.108000   55.473300
  C    -16.017800   71.927900   54.863400
  H    -16.883700   71.582500   55.350800
  H    -15.480400   71.090100   54.672300
  C    -16.590500   72.685500   53.603600
  H    -17.277000   73.490100   53.977500
  H    -15.773000   73.138600   53.001000
  C    -17.472800   71.780100   52.700300
  H    -17.924700   72.489700   52.028000
  H    -16.814700   71.073800   52.150600
  H    -18.327600   71.354200   53.217400
  S    -11.180500   73.781900   58.583000
  C     -9.616930   73.913300   57.882300
  C     -9.652840   74.050600   56.526900
  C    -10.937300   74.112300   55.961000
  C    -11.960000   73.927200   56.946800
  H     -8.822550   74.283500   55.981900
  C    -11.154500   74.331200   54.488400
  H    -11.792500   73.540500   54.099000
  H    -10.196400   74.139900   53.944400
  C    -11.638000   75.723000   54.045300
  H    -10.937700   76.497200   54.146500
  H    -12.480000   75.851000   54.721000
  C    -12.233600   75.840100   52.655300
  H    -11.567200   75.391100   51.888600
  H    -12.200600   76.908900   52.425100
  H    -13.176200   75.399000   52.538100
  H    -16.969200   73.832100   56.993600
  H     -8.674670   73.912500   58.419800

 Total Charge           Charge          ....    0
 Multiplicity           Mult            ....    1
 Number of Electrons    NEL             ....  134
 Basis Dimension        Dim             ....  322

ORBITAL ENERGIES
----------------

  NO   OCC          E(Eh)            E(eV)
   0   2.0000     -88.968419     -2420.9538
   1   2.0000     -88.963521     -2420.8205
   2   2.0000     -10.328577      -281.0549
   3   2.0000     -10.326354      -280.9944
   4   2.0000     -10.321110      -280.8517
   5   2.0000     -10.314121      -280.6615
   6   2.0000     -10.303247      -280.3656
   7   2.0000     -10.301912      -280.3293
   8   2.0000     -10.297011      -280.1959
   9   2.0000     -10.291280      -280.0400
  10   2.0000     -10.285469      -279.8818
  11   2.0000     -10.281991      -279.7872
  12   2.0000     -10.280128      -279.7365
  13   2.0000     -10.279729      -279.7256
  14   2.0000     -10.276471      -279.6370
  15   2.0000     -10.272185      -279.5204
  16   2.0000      -8.082423      -219.9339
  17   2.0000      -8.077534      -219.8009
  18   2.0000      -6.040941      -164.3824
  19   2.0000      -6.037013      -164.2755
  20   2.0000      -6.036143      -164.2518
  21   2.0000      -6.033235      -164.1727
  22   2.0000      -6.032107      -164.1420
  23   2.0000      -6.028283      -164.0379
  24   2.0000      -1.002208       -27.2715
  25   2.0000      -0.980319       -26.6758
  26   2.0000      -0.909901       -24.7597
  27   2.0000      -0.908494       -24.7214
  28   2.0000      -0.870641       -23.6914
  29   2.0000      -0.855838       -23.2885
  30   2.0000      -0.849116       -23.1056
  31   2.0000      -0.814574       -22.1657
  32   2.0000      -0.786206       -21.3937
  33   2.0000      -0.767656       -20.8890
  34   2.0000      -0.708877       -19.2895
  35   2.0000      -0.699141       -19.0246
  36   2.0000      -0.691143       -18.8070
  37   2.0000      -0.661707       -18.0060
  38   2.0000      -0.646901       -17.6031
  39   2.0000      -0.620558       -16.8862
  40   2.0000      -0.598156       -16.2767
  41   2.0000      -0.574106       -15.6222
  42   2.0000      -0.572362       -15.5748
  43   2.0000      -0.556883       -15.1535
  44   2.0000      -0.528490       -14.3809
  45   2.0000      -0.522779       -14.2255
  46   2.0000      -0.515634       -14.0311
  47   2.0000      -0.513833       -13.9821
  48   2.0000      -0.507016       -13.7966
  49   2.0000      -0.502838       -13.6829
  50   2.0000      -0.495683       -13.4882
  51   2.0000      -0.481542       -13.1034
  52   2.0000      -0.477717       -12.9993
  53   2.0000      -0.462051       -12.5731
  54   2.0000      -0.461161       -12.5488
  55   2.0000      -0.446445       -12.1484
  56   2.0000      -0.442134       -12.0311
  57   2.0000      -0.434487       -11.8230
  58   2.0000      -0.431651       -11.7458
  59   2.0000      -0.430776       -11.7220
  60   2.0000      -0.423629       -11.5275
  61   2.0000      -0.418237       -11.3808
  62   2.0000      -0.403423       -10.9777
  63   2.0000      -0.342448        -9.3185
  64   2.0000      -0.333746        -9.0817
  65   2.0000      -0.323197        -8.7946
  66   2.0000      -0.289598        -7.8804
  67   0.0000       0.022159         0.6030
  68   0.0000       0.061803         1.6817
  69   0.0000       0.113253         3.0818
  70   0.0000       0.120406         3.2764
  71   0.0000       0.127784         3.4772

MULLIKEN ATOMIC CHARGES
-----------------------
   0 S :    0.091584
   1 C :   -0.144558
   2 C :   -0.098177
   3 C :    0.085610
   4 C :   -0.175937
   5 H :   -0.026061
   6 C :    0.155508
   7 H :   -0.001619
   8 H :   -0.012123
   9 C :   -0.122134
  10 H :    0.034469
  11 H :    0.040642
  12 C :   -0.037141
  13 H :    0.028884
  14 H :    0.045841
  15 H :    0.033504
  16 S :    0.119514
  17 C :   -0.082051
  18 C :    0.004644
  19 C :   -0.044819
  20 C :   -0.155312
  21 H :   -0.021109
  22 C :    0.074435
  23 H :    0.016251
  24 H :    0.012592
  25 C :   -0.052199
  26 H :    0.020011
  27 H :    0.031963
  28 C :   -0.032165
  29 H :    0.018091
  30 H :    0.033013
  31 H :    0.029854
  32 H :    0.071322
  33 H :    0.057672
Sum of atomic charges:    0.0000000

LOEWDIN ATOMIC CHARGES
----------------------
   0 S :    0.378346
   1 C :   -0.194165
   2 C :   -0.057562
   3 C :   -0.040104
   4 C :   -0.185950
   5 H :    0.012514
   6 C :   -0.027236
   7 H :    0.026879
   8 H :    0.013724
   9 C :   -0.034528
  10 H :    0.027558
  11 H :    0.024678
  12 C :   -0.066855
  13 H :    0.026905
  14 H :    0.029535
  15 H :    0.024750
  16 S :    0.399560
  17 C :   -0.188204
  18 C :   -0.069429
  19 C :   -0.043750
  20 C :   -0.189865
  21 H :    0.015853
  22 C :   -0.036865
  23 H :    0.029450
  24 H :    0.029582
  25 C :   -0.034896
  26 H :    0.017784
  27 H :    0.029096
  28 C :   -0.059095
  29 H :    0.023184
  30 H :    0.031636
  31 H :    0.017011
  32 H :    0.037010
  33 H :    0.033450

  Mayer bond orders larger than 0.100000
B(  0-S ,  1-C ) :   1.1368 B(  0-S ,  4-C ) :   1.1250 B(  1-C ,  2-C ) :   1.5798
B(  1-C , 32-H ) :   0.9676 B(  2-C ,  3-C ) :   1.2507 B(  2-C ,  6-C ) :   1.0393
B(  3-C ,  4-C ) :   1.5669 B(  3-C ,  5-H ) :   0.9997 B(  4-C , 20-C ) :   1.0981
B(  6-C ,  7-H ) :   0.9233 B(  6-C ,  8-H ) :   0.9363 B(  6-C ,  9-C ) :   1.0494
B(  9-C , 10-H ) :   0.9579 B(  9-C , 11-H ) :   0.9590 B(  9-C , 12-C ) :   1.0815
B( 12-C , 13-H ) :   0.9742 B( 12-C , 14-H ) :   0.9764 B( 12-C , 15-H ) :   0.9738
B( 16-S , 17-C ) :   1.1664 B( 16-S , 20-C ) :   1.1253 B( 17-C , 18-C ) :   1.5883
B( 17-C , 20-C ) :   0.1010 B( 17-C , 33-H ) :   0.9618 B( 18-C , 19-C ) :   1.2915
B( 18-C , 21-H ) :   0.9962 B( 19-C , 20-C ) :   1.5397 B( 19-C , 22-C ) :   1.0499
B( 22-C , 23-H ) :   0.9263 B( 22-C , 24-H ) :   0.9253 B( 22-C , 25-C ) :   1.0581
B( 25-C , 26-H ) :   0.9602 B( 25-C , 27-H ) :   0.9578 B( 25-C , 28-C ) :   1.0898
B( 28-C , 29-H ) :   0.9717 B( 28-C , 30-H ) :   0.9742 B( 28-C , 31-H ) :   0.9761

Dispersion correction           -0.014291843
FINAL SINGLE POINT ENERGY     -1339.859290243345

DIPOLE MOMENT
-------------
                                X             Y             Z
Electronic contribution:     10.04171       1.89156      29.94060
Nuclear contribution   :    -10.09612      -2.08980     -30.60278
                        -----------------------------------------
Total Dipole Moment    :     -0.05441      -0.19824      -0.66218
                        -----------------------------------------
Magnitude (a.u.)       :      0.69335
Magnitude (Debye)      :      1.76237

Rotational constants in cm-1:     0.018861     0.008595     0.006795
Rotational constants in MHz :   565.432457   257.661651   203.714812

                             ****ORCA TERMINATED NORMALLY****
TOTAL RUN TIME: 0 days 0 hours 0 minutes 32 seconds 749 msec
