                         Program Version 4.2.1 -  RELEASE  -
|  1> ! wB97X-D3 SP def2-SVP
|  2> %pal
|  3> nprocs 16
|  4> end
|  5>
|  6> * xyz 0 1
|  7> S 	 -73.6126 	 50.7152 	 139.553
|  8> C 	 -72.4652 	 51.9468 	 139.21
|  9> C 	 -73.0376 	 53.1295 	 138.687
| 10> C 	 -74.4335 	 52.9973 	 138.507
| 11> C 	 -74.9009 	 51.8385 	 139.104
| 12> H 	 -75.0997 	 53.6718 	 138.024
| 13> C 	 -72.3048 	 54.371 	 138.266
| 14> H 	 -71.4117 	 54.481 	 138.963
| 15> H 	 -72.9036 	 55.2336 	 138.617
| 16> C 	 -71.7429 	 54.4592 	 136.873
| 17> H 	 -70.9421 	 53.7459 	 136.568
| 18> H 	 -72.505 	 54.3208 	 136.178
| 19> C 	 -71.0184 	 55.7877 	 136.608
| 20> H 	 -70.2184 	 55.8294 	 137.383
| 21> H 	 -70.4683 	 55.618 	 135.646
| 22> H 	 -71.6112 	 56.676 	 136.513
| 23> S 	 -76.8492 	 50.2847 	 137.85
| 24> C 	 -78.5142 	 50.6652 	 138.136
| 25> C 	 -78.6694 	 51.4399 	 139.28
| 26> C 	 -77.4471 	 51.9078 	 139.786
| 27> C 	 -76.3256 	 51.4458 	 139.066
| 28> H 	 -79.6574 	 51.6708 	 139.59
| 29> C 	 -77.4398 	 52.8556 	 141.01
| 30> H 	 -78.361 	 53.4121 	 140.98
| 31> H 	 -76.5317 	 53.4953 	 140.861
| 32> C 	 -77.3216 	 52.2697 	 142.484
| 33> H 	 -77.3993 	 53.0868 	 143.199
| 34> H 	 -76.3467 	 51.8016 	 142.598
| 35> C 	 -78.4045 	 51.2346 	 142.97
| 36> H 	 -78.4781 	 51.2211 	 144.086
| 37> H 	 -78.1782 	 50.2363 	 142.53
| 38> H 	 -79.4119 	 51.4694 	 142.564
| 39> H 	 -71.4098 	 51.7069 	 139.444
| 40> H 	 -79.3137 	 50.1443 	 137.61
| 41> *
| 42>
| 43>                          ****END OF INPUT****

CARTESIAN COORDINATES (ANGSTROEM)
---------------------------------
  S    -73.612600   50.715200  139.553000
  C    -72.465200   51.946800  139.210000
  C    -73.037600   53.129500  138.687000
  C    -74.433500   52.997300  138.507000
  C    -74.900900   51.838500  139.104000
  H    -75.099700   53.671800  138.024000
  C    -72.304800   54.371000  138.266000
  H    -71.411700   54.481000  138.963000
  H    -72.903600   55.233600  138.617000
  C    -71.742900   54.459200  136.873000
  H    -70.942100   53.745900  136.568000
  H    -72.505000   54.320800  136.178000
  C    -71.018400   55.787700  136.608000
  H    -70.218400   55.829400  137.383000
  H    -70.468300   55.618000  135.646000
  H    -71.611200   56.676000  136.513000
  S    -76.849200   50.284700  137.850000
  C    -78.514200   50.665200  138.136000
  C    -78.669400   51.439900  139.280000
  C    -77.447100   51.907800  139.786000
  C    -76.325600   51.445800  139.066000
  H    -79.657400   51.670800  139.590000
  C    -77.439800   52.855600  141.010000
  H    -78.361000   53.412100  140.980000
  H    -76.531700   53.495300  140.861000
  C    -77.321600   52.269700  142.484000
  H    -77.399300   53.086800  143.199000
  H    -76.346700   51.801600  142.598000
  C    -78.404500   51.234600  142.970000
  H    -78.478100   51.221100  144.086000
  H    -78.178200   50.236300  142.530000
  H    -79.411900   51.469400  142.564000
  H    -71.409800   51.706900  139.444000
  H    -79.313700   50.144300  137.610000

 Total Charge           Charge          ....    0
 Multiplicity           Mult            ....    1
 Number of Electrons    NEL             ....  134
 Basis Dimension        Dim             ....  322

ORBITAL ENERGIES
----------------

  NO   OCC          E(Eh)            E(eV)
   0   2.0000     -88.969324     -2420.9784
   1   2.0000     -88.963167     -2420.8108
   2   2.0000     -10.328396      -281.0499
   3   2.0000     -10.325729      -280.9774
   4   2.0000     -10.318270      -280.7744
   5   2.0000     -10.315526      -280.6997
   6   2.0000     -10.304161      -280.3905
   7   2.0000     -10.303003      -280.3590
   8   2.0000     -10.295771      -280.1622
   9   2.0000     -10.295088      -280.1436
  10   2.0000     -10.292966      -280.0858
  11   2.0000     -10.288842      -279.9736
  12   2.0000     -10.288099      -279.9534
  13   2.0000     -10.282949      -279.8133
  14   2.0000     -10.282943      -279.8131
  15   2.0000     -10.281660      -279.7782
  16   2.0000      -8.084417      -219.9882
  17   2.0000      -8.078239      -219.8200
  18   2.0000      -6.042694      -164.4301
  19   2.0000      -6.038957      -164.3284
  20   2.0000      -6.036607      -164.2644
  21   2.0000      -6.035328      -164.2296
  22   2.0000      -6.032650      -164.1567
  23   2.0000      -6.029189      -164.0626
  24   2.0000      -1.004361       -27.3300
  25   2.0000      -0.984367       -26.7860
  26   2.0000      -0.913612       -24.8606
  27   2.0000      -0.892336       -24.2817
  28   2.0000      -0.864844       -23.5336
  29   2.0000      -0.857952       -23.3461
  30   2.0000      -0.843331       -22.9482
  31   2.0000      -0.810313       -22.0497
  32   2.0000      -0.778305       -21.1787
  33   2.0000      -0.764588       -20.8055
  34   2.0000      -0.701530       -19.0896
  35   2.0000      -0.698095       -18.9961
  36   2.0000      -0.683801       -18.6072
  37   2.0000      -0.659645       -17.9498
  38   2.0000      -0.649148       -17.6642
  39   2.0000      -0.619899       -16.8683
  40   2.0000      -0.583823       -15.8866
  41   2.0000      -0.569688       -15.5020
  42   2.0000      -0.563840       -15.3429
  43   2.0000      -0.548639       -14.9292
  44   2.0000      -0.535450       -14.5703
  45   2.0000      -0.530457       -14.4345
  46   2.0000      -0.511551       -13.9200
  47   2.0000      -0.509089       -13.8530
  48   2.0000      -0.502700       -13.6792
  49   2.0000      -0.493037       -13.4162
  50   2.0000      -0.481218       -13.0946
  51   2.0000      -0.474924       -12.9233
  52   2.0000      -0.467767       -12.7286
  53   2.0000      -0.465086       -12.6556
  54   2.0000      -0.456750       -12.4288
  55   2.0000      -0.452507       -12.3133
  56   2.0000      -0.443307       -12.0630
  57   2.0000      -0.438020       -11.9191
  58   2.0000      -0.427004       -11.6194
  59   2.0000      -0.425149       -11.5689
  60   2.0000      -0.421053       -11.4574
  61   2.0000      -0.413090       -11.2408
  62   2.0000      -0.409820       -11.1518
  63   2.0000      -0.341978        -9.3057
  64   2.0000      -0.330183        -8.9847
  65   2.0000      -0.321225        -8.7410
  66   2.0000      -0.297330        -8.0908
  67   0.0000       0.039024         1.0619
  68   0.0000       0.051170         1.3924
  69   0.0000       0.116525         3.1708
  70   0.0000       0.121398         3.3034
  71   0.0000       0.127152         3.4600

MULLIKEN ATOMIC CHARGES
-----------------------
   0 S :    0.119987
   1 C :   -0.137419
   2 C :   -0.061101
   3 C :    0.051585
   4 C :   -0.179357
   5 H :    0.014352
   6 C :    0.037528
   7 H :    0.016796
   8 H :    0.033695
   9 C :   -0.036975
  10 H :    0.034201
  11 H :    0.009414
  12 C :   -0.067564
  13 H :    0.030492
  14 H :    0.034647
  15 H :    0.041264
  16 S :    0.112597
  17 C :   -0.109111
  18 C :   -0.029866
  19 C :   -0.022172
  20 C :   -0.182316
  21 H :    0.007388
  22 C :    0.070980
  23 H :    0.019622
  24 H :    0.040013
  25 C :   -0.063570
  26 H :    0.031264
  27 H :    0.033952
  28 C :   -0.093169
  29 H :    0.047263
  30 H :    0.047552
  31 H :    0.022853
  32 H :    0.062683
  33 H :    0.062493
Sum of atomic charges:    0.0000000

LOEWDIN ATOMIC CHARGES
----------------------
   0 S :    0.416992
   1 C :   -0.206031
   2 C :   -0.066127
   3 C :   -0.044984
   4 C :   -0.198383
   5 H :    0.032815
   6 C :   -0.045259
   7 H :    0.035175
   8 H :    0.036360
   9 C :   -0.040621
  10 H :    0.034736
  11 H :    0.012075
  12 C :   -0.064078
  13 H :    0.027088
  14 H :    0.031698
  15 H :    0.018920
  16 S :    0.411609
  17 C :   -0.189513
  18 C :   -0.073385
  19 C :   -0.057267
  20 C :   -0.207204
  21 H :    0.026422
  22 C :   -0.028522
  23 H :    0.024833
  24 H :    0.039002
  25 C :   -0.037254
  26 H :    0.023700
  27 H :    0.023832
  28 C :   -0.078010
  29 H :    0.031511
  30 H :    0.029707
  31 H :    0.020896
  32 H :    0.030176
  33 H :    0.029092

  Mayer bond orders larger than 0.100000
B(  0-S ,  1-C ) :   1.1625 B(  0-S ,  4-C ) :   1.1622 B(  1-C ,  2-C ) :   1.5691
B(  1-C ,  4-C ) :   0.1002 B(  1-C , 32-H ) :   0.9672 B(  2-C ,  3-C ) :   1.2555
B(  2-C ,  6-C ) :   1.0293 B(  3-C ,  4-C ) :   1.5663 B(  3-C ,  5-H ) :   0.9990
B(  4-C , 20-C ) :   1.0108 B(  6-C ,  7-H ) :   0.9314 B(  6-C ,  8-H ) :   0.9418
B(  6-C ,  9-C ) :   1.0643 B(  9-C , 10-H ) :   0.9574 B(  9-C , 11-H ) :   0.9528
B(  9-C , 12-C ) :   1.0758 B( 12-C , 13-H ) :   0.9745 B( 12-C , 14-H ) :   0.9770
B( 12-C , 15-H ) :   0.9778 B( 16-S , 17-C ) :   1.1801 B( 16-S , 20-C ) :   1.1557
B( 17-C , 18-C ) :   1.5769 B( 17-C , 20-C ) :   0.1096 B( 17-C , 33-H ) :   0.9647
B( 18-C , 19-C ) :   1.2629 B( 18-C , 21-H ) :   0.9995 B( 19-C , 20-C ) :   1.5739
B( 19-C , 22-C ) :   1.0344 B( 22-C , 23-H ) :   0.9381 B( 22-C , 24-H ) :   0.9329
B( 22-C , 25-C ) :   1.0733 B( 25-C , 26-H ) :   0.9601 B( 25-C , 27-H ) :   0.9593
B( 25-C , 28-C ) :   1.0646 B( 28-C , 29-H ) :   0.9767 B( 28-C , 30-H ) :   0.9765
B( 28-C , 31-H ) :   0.9772

Dispersion correction           -0.013858261
FINAL SINGLE POINT ENERGY     -1339.874094348948

DIPOLE MOMENT
-------------
                                X             Y             Z
Electronic contribution:     -4.03432     -18.36710      -6.22159
Nuclear contribution   :      4.04203      18.80569       6.22732
                        -----------------------------------------
Total Dipole Moment    :      0.00771       0.43859       0.00572
                        -----------------------------------------
Magnitude (a.u.)       :      0.43870
Magnitude (Debye)      :      1.11507

Rotational constants in cm-1:     0.021534     0.006948     0.006459
Rotational constants in MHz :   645.586023   208.280923   193.627585

                             ****ORCA TERMINATED NORMALLY****
TOTAL RUN TIME: 0 days 0 hours 0 minutes 33 seconds 376 msec
