                         Program Version 4.2.1 -  RELEASE  -
|  1> ! wB97X-D3 SP def2-SVP
|  2> %pal
|  3> nprocs 16
|  4> end
|  5>
|  6> * xyz 0 1
|  7> S 	 -6.34293 	 8.09764 	 83.9214
|  8> C 	 -6.81675 	 7.69749 	 85.5421
|  9> C 	 -7.47358 	 8.77747 	 86.137
| 10> C 	 -7.61788 	 9.84111 	 85.2547
| 11> C 	 -7.10525 	 9.68592 	 83.97
| 12> H 	 -8.20877 	 10.6738 	 85.6311
| 13> C 	 -7.70145 	 8.7853 	 87.6207
| 14> H 	 -8.37346 	 7.88183 	 87.7527
| 15> H 	 -8.36602 	 9.65091 	 87.717
| 16> C 	 -6.55224 	 8.74814 	 88.536
| 17> H 	 -6.13096 	 7.70806 	 88.5278
| 18> H 	 -5.73067 	 9.48495 	 88.215
| 19> C 	 -6.88082 	 9.02887 	 90.0246
| 20> H 	 -7.60688 	 8.23823 	 90.2725
| 21> H 	 -6.01113 	 8.90771 	 90.6071
| 22> H 	 -7.35624 	 9.96919 	 90.2538
| 23> S 	 -5.49123 	 10.9759 	 82.1891
| 24> C 	 -5.99025 	 12.4449 	 81.4283
| 25> C 	 -7.32937 	 12.5952 	 81.6839
| 26> C 	 -7.95512 	 11.6756 	 82.5643
| 27> C 	 -7.03105 	 10.7173 	 82.9408
| 28> H 	 -7.79714 	 13.4121 	 81.1734
| 29> C 	 -9.40061 	 11.8687 	 83.1104
| 30> H 	 -9.30878 	 12.669 	 83.9082
| 31> H 	 -9.69617 	 10.9754 	 83.6756
| 32> C 	 -10.5352 	 12.4171 	 82.2488
| 33> H 	 -10.2102 	 13.4258 	 81.9774
| 34> H 	 -11.3792 	 12.4658 	 82.8691
| 35> C 	 -10.8675 	 11.5276 	 81.1222
| 36> H 	 -9.96075 	 11.0613 	 80.6707
| 37> H 	 -11.471 	 12.1119 	 80.418
| 38> H 	 -11.5635 	 10.7554 	 81.4588
| 39> H 	 -6.59021 	 6.79342 	 86.1164
| 40> H 	 -5.47838 	 13.1207 	 80.7476
| 41> *
| 42>
| 43>                          ****END OF INPUT****

CARTESIAN COORDINATES (ANGSTROEM)
---------------------------------
  S     -6.342930    8.097640   83.921400
  C     -6.816750    7.697490   85.542100
  C     -7.473580    8.777470   86.137000
  C     -7.617880    9.841110   85.254700
  C     -7.105250    9.685920   83.970000
  H     -8.208770   10.673800   85.631100
  C     -7.701450    8.785300   87.620700
  H     -8.373460    7.881830   87.752700
  H     -8.366020    9.650910   87.717000
  C     -6.552240    8.748140   88.536000
  H     -6.130960    7.708060   88.527800
  H     -5.730670    9.484950   88.215000
  C     -6.880820    9.028870   90.024600
  H     -7.606880    8.238230   90.272500
  H     -6.011130    8.907710   90.607100
  H     -7.356240    9.969190   90.253800
  S     -5.491230   10.975900   82.189100
  C     -5.990250   12.444900   81.428300
  C     -7.329370   12.595200   81.683900
  C     -7.955120   11.675600   82.564300
  C     -7.031050   10.717300   82.940800
  H     -7.797140   13.412100   81.173400
  C     -9.400610   11.868700   83.110400
  H     -9.308780   12.669000   83.908200
  H     -9.696170   10.975400   83.675600
  C    -10.535200   12.417100   82.248800
  H    -10.210200   13.425800   81.977400
  H    -11.379200   12.465800   82.869100
  C    -10.867500   11.527600   81.122200
  H     -9.960750   11.061300   80.670700
  H    -11.471000   12.111900   80.418000
  H    -11.563500   10.755400   81.458800
  H     -6.590210    6.793420   86.116400
  H     -5.478380   13.120700   80.747600

 Total Charge           Charge          ....    0
 Multiplicity           Mult            ....    1
 Number of Electrons    NEL             ....  134
 Basis Dimension        Dim             ....  322

ORBITAL ENERGIES
----------------

  NO   OCC          E(Eh)            E(eV)
   0   2.0000     -88.969466     -2420.9822
   1   2.0000     -88.964774     -2420.8546
   2   2.0000     -10.332597      -281.1643
   3   2.0000     -10.328132      -281.0428
   4   2.0000     -10.314598      -280.6745
   5   2.0000     -10.312480      -280.6169
   6   2.0000     -10.306154      -280.4447
   7   2.0000     -10.297455      -280.2080
   8   2.0000     -10.295321      -280.1499
   9   2.0000     -10.292616      -280.0763
  10   2.0000     -10.291928      -280.0576
  11   2.0000     -10.290903      -280.0297
  12   2.0000     -10.288153      -279.9549
  13   2.0000     -10.279876      -279.7297
  14   2.0000     -10.276907      -279.6489
  15   2.0000     -10.272729      -279.5352
  16   2.0000      -8.083673      -219.9679
  17   2.0000      -8.080167      -219.8725
  18   2.0000      -6.042179      -164.4161
  19   2.0000      -6.038726      -164.3221
  20   2.0000      -6.038063      -164.3040
  21   2.0000      -6.034659      -164.2114
  22   2.0000      -6.034473      -164.2064
  23   2.0000      -6.030920      -164.1097
  24   2.0000      -1.011114       -27.5138
  25   2.0000      -0.989717       -26.9316
  26   2.0000      -0.918036       -24.9810
  27   2.0000      -0.915257       -24.9054
  28   2.0000      -0.871449       -23.7133
  29   2.0000      -0.856000       -23.2930
  30   2.0000      -0.847754       -23.0686
  31   2.0000      -0.816083       -22.2067
  32   2.0000      -0.784692       -21.3526
  33   2.0000      -0.774418       -21.0730
  34   2.0000      -0.708353       -19.2753
  35   2.0000      -0.700798       -19.0697
  36   2.0000      -0.692705       -18.8495
  37   2.0000      -0.655981       -17.8501
  38   2.0000      -0.630626       -17.1602
  39   2.0000      -0.625053       -17.0086
  40   2.0000      -0.596455       -16.2304
  41   2.0000      -0.570971       -15.5369
  42   2.0000      -0.564926       -15.3724
  43   2.0000      -0.554168       -15.0797
  44   2.0000      -0.550760       -14.9869
  45   2.0000      -0.529540       -14.4095
  46   2.0000      -0.521363       -14.1870
  47   2.0000      -0.519009       -14.1230
  48   2.0000      -0.510124       -13.8812
  49   2.0000      -0.500020       -13.6062
  50   2.0000      -0.491257       -13.3678
  51   2.0000      -0.478648       -13.0247
  52   2.0000      -0.470261       -12.7964
  53   2.0000      -0.461716       -12.5639
  54   2.0000      -0.457280       -12.4432
  55   2.0000      -0.456740       -12.4285
  56   2.0000      -0.440545       -11.9878
  57   2.0000      -0.439155       -11.9500
  58   2.0000      -0.431716       -11.7476
  59   2.0000      -0.422507       -11.4970
  60   2.0000      -0.413841       -11.2612
  61   2.0000      -0.411779       -11.2051
  62   2.0000      -0.409595       -11.1457
  63   2.0000      -0.353338        -9.6148
  64   2.0000      -0.333014        -9.0618
  65   2.0000      -0.328523        -8.9396
  66   2.0000      -0.286773        -7.8035
  67   0.0000       0.026900         0.7320
  68   0.0000       0.074631         2.0308
  69   0.0000       0.116535         3.1711
  70   0.0000       0.125696         3.4204
  71   0.0000       0.133727         3.6389

MULLIKEN ATOMIC CHARGES
-----------------------
   0 S :    0.120977
   1 C :   -0.132140
   2 C :   -0.117062
   3 C :    0.023235
   4 C :   -0.137838
   5 H :    0.006465
   6 C :    0.059963
   7 H :    0.037877
   8 H :    0.008072
   9 C :   -0.085106
  10 H :    0.030765
  11 H :    0.048915
  12 C :   -0.026291
  13 H :    0.022506
  14 H :    0.031986
  15 H :    0.033136
  16 S :    0.111518
  17 C :   -0.083894
  18 C :   -0.064123
  19 C :   -0.006394
  20 C :   -0.155059
  21 H :    0.006681
  22 C :    0.001670
  23 H :    0.045275
  24 H :    0.028758
  25 C :   -0.025616
  26 H :    0.026222
  27 H :    0.016555
  28 C :   -0.043313
  29 H :    0.052713
  30 H :    0.028245
  31 H :    0.026316
  32 H :    0.051994
  33 H :    0.056990
Sum of atomic charges:    0.0000000

LOEWDIN ATOMIC CHARGES
----------------------
   0 S :    0.418094
   1 C :   -0.203996
   2 C :   -0.074948
   3 C :   -0.067212
   4 C :   -0.196257
   5 H :    0.029824
   6 C :   -0.044044
   7 H :    0.040919
   8 H :    0.026613
   9 C :   -0.047454
  10 H :    0.029581
  11 H :    0.033684
  12 C :   -0.058628
  13 H :    0.026914
  14 H :    0.022030
  15 H :    0.022239
  16 S :    0.422945
  17 C :   -0.198426
  18 C :   -0.074766
  19 C :   -0.060466
  20 C :   -0.198099
  21 H :    0.024349
  22 C :   -0.034612
  23 H :    0.039747
  24 H :    0.027427
  25 C :   -0.041337
  26 H :    0.022031
  27 H :    0.024113
  28 C :   -0.067873
  29 H :    0.032553
  30 H :    0.027180
  31 H :    0.027771
  32 H :    0.032656
  33 H :    0.037450

  Mayer bond orders larger than 0.100000
B(  0-S ,  1-C ) :   1.1637 B(  0-S ,  4-C ) :   1.1598 B(  1-C ,  2-C ) :   1.5441
B(  1-C ,  4-C ) :   0.1076 B(  1-C , 32-H ) :   0.9684 B(  2-C ,  3-C ) :   1.3436
B(  2-C ,  6-C ) :   1.0138 B(  3-C ,  4-C ) :   1.4947 B(  3-C ,  5-H ) :   0.9832
B(  4-C , 20-C ) :   1.0486 B(  6-C ,  7-H ) :   0.9255 B(  6-C ,  8-H ) :   0.9391
B(  6-C ,  9-C ) :   1.0749 B(  9-C , 10-H ) :   0.9443 B(  9-C , 11-H ) :   0.9563
B(  9-C , 12-C ) :   1.0817 B( 12-C , 13-H ) :   0.9738 B( 12-C , 14-H ) :   0.9747
B( 12-C , 15-H ) :   0.9779 B( 16-S , 17-C ) :   1.1459 B( 16-S , 20-C ) :   1.1590
B( 17-C , 18-C ) :   1.6209 B( 17-C , 33-H ) :   0.9670 B( 18-C , 19-C ) :   1.2345
B( 18-C , 21-H ) :   0.9898 B( 19-C , 20-C ) :   1.5783 B( 19-C , 22-C ) :   1.0315
B( 22-C , 23-H ) :   0.9346 B( 22-C , 24-H ) :   0.9339 B( 22-C , 25-C ) :   1.0840
B( 25-C , 26-H ) :   0.9493 B( 25-C , 27-H ) :   0.9441 B( 25-C , 28-C ) :   1.0898
B( 28-C , 29-H ) :   0.9761 B( 28-C , 30-H ) :   0.9711 B( 28-C , 31-H ) :   0.9709

Dispersion correction           -0.013619796
FINAL SINGLE POINT ENERGY     -1339.872160239337

DIPOLE MOMENT
-------------
                                X             Y             Z
Electronic contribution:     17.16830      -5.08155     -16.07956
Nuclear contribution   :    -17.61181       5.43241      16.53614
                        -----------------------------------------
Total Dipole Moment    :     -0.44350       0.35085       0.45657
                        -----------------------------------------
Magnitude (a.u.)       :      0.72681
Magnitude (Debye)      :      1.84740

Rotational constants in cm-1:     0.020256     0.007314     0.006325
Rotational constants in MHz :   607.245615   219.269288   189.616432

                             ****ORCA TERMINATED NORMALLY****
TOTAL RUN TIME: 0 days 0 hours 0 minutes 33 seconds 879 msec
