                         Program Version 4.2.1 -  RELEASE  -
|  1> ! wB97X-D3 SP def2-SVP
|  2> %pal
|  3> nprocs 16
|  4> end
|  5>
|  6> * xyz 0 1
|  7> S 	 -30.8297 	 59.8539 	 107.918
|  8> C 	 -30.0301 	 60.4597 	 109.434
|  9> C 	 -29.6701 	 61.814 	 109.319
| 10> C 	 -30.2068 	 62.358 	 108.134
| 11> C 	 -30.8941 	 61.4636 	 107.338
| 12> H 	 -30.2133 	 63.3927 	 107.861
| 13> C 	 -28.9372 	 62.5147 	 110.486
| 14> H 	 -28.1692 	 61.8747 	 110.917
| 15> H 	 -29.7429 	 62.7966 	 111.108
| 16> C 	 -28.2581 	 63.7783 	 110.186
| 17> H 	 -28.9705 	 64.5921 	 110.005
| 18> H 	 -27.7939 	 64.055 	 111.157
| 19> C 	 -27.1154 	 63.6723 	 109.223
| 20> H 	 -27.3264 	 63.2811 	 108.282
| 21> H 	 -26.5417 	 64.5376 	 108.972
| 22> H 	 -26.3938 	 62.9168 	 109.635
| 23> S 	 -33.3791 	 61.8621 	 106.254
| 24> C 	 -33.4145 	 62.3251 	 104.52
| 25> C 	 -32.1987 	 62.3142 	 103.984
| 26> C 	 -31.1276 	 62.0982 	 104.884
| 27> C 	 -31.602 	 61.7821 	 106.157
| 28> H 	 -32.2087 	 62.6192 	 102.943
| 29> C 	 -29.6727 	 62.0797 	 104.504
| 30> H 	 -29.5192 	 62.0284 	 103.44
| 31> H 	 -29.2764 	 61.1686 	 104.951
| 32> C 	 -28.7916 	 63.3165 	 104.942
| 33> H 	 -28.696 	 63.452 	 106.032
| 34> H 	 -29.2104 	 64.2167 	 104.587
| 35> C 	 -27.2751 	 63.2642 	 104.543
| 36> H 	 -27.046 	 63.3028 	 103.473
| 37> H 	 -26.9323 	 62.2794 	 105.017
| 38> H 	 -26.7812 	 64.0669 	 105.107
| 39> H 	 -29.7669 	 59.7688 	 110.202
| 40> H 	 -34.2901 	 62.6221 	 103.967
| 41> *
| 42>
| 43>                          ****END OF INPUT****

CARTESIAN COORDINATES (ANGSTROEM)
---------------------------------
  S    -30.829700   59.853900  107.918000
  C    -30.030100   60.459700  109.434000
  C    -29.670100   61.814000  109.319000
  C    -30.206800   62.358000  108.134000
  C    -30.894100   61.463600  107.338000
  H    -30.213300   63.392700  107.861000
  C    -28.937200   62.514700  110.486000
  H    -28.169200   61.874700  110.917000
  H    -29.742900   62.796600  111.108000
  C    -28.258100   63.778300  110.186000
  H    -28.970500   64.592100  110.005000
  H    -27.793900   64.055000  111.157000
  C    -27.115400   63.672300  109.223000
  H    -27.326400   63.281100  108.282000
  H    -26.541700   64.537600  108.972000
  H    -26.393800   62.916800  109.635000
  S    -33.379100   61.862100  106.254000
  C    -33.414500   62.325100  104.520000
  C    -32.198700   62.314200  103.984000
  C    -31.127600   62.098200  104.884000
  C    -31.602000   61.782100  106.157000
  H    -32.208700   62.619200  102.943000
  C    -29.672700   62.079700  104.504000
  H    -29.519200   62.028400  103.440000
  H    -29.276400   61.168600  104.951000
  C    -28.791600   63.316500  104.942000
  H    -28.696000   63.452000  106.032000
  H    -29.210400   64.216700  104.587000
  C    -27.275100   63.264200  104.543000
  H    -27.046000   63.302800  103.473000
  H    -26.932300   62.279400  105.017000
  H    -26.781200   64.066900  105.107000
  H    -29.766900   59.768800  110.202000
  H    -34.290100   62.622100  103.967000

 Total Charge           Charge          ....    0
 Multiplicity           Mult            ....    1
 Number of Electrons    NEL             ....  134
 Basis Dimension        Dim             ....  322

ORBITAL ENERGIES
----------------

  NO   OCC          E(Eh)            E(eV)
   0   2.0000     -88.965927     -2420.8859
   1   2.0000     -88.961734     -2420.7719
   2   2.0000     -10.321681      -280.8672
   3   2.0000     -10.319799      -280.8160
   4   2.0000     -10.315093      -280.6879
   5   2.0000     -10.311842      -280.5995
   6   2.0000     -10.305286      -280.4211
   7   2.0000     -10.303380      -280.3692
   8   2.0000     -10.291613      -280.0490
   9   2.0000     -10.290865      -280.0287
  10   2.0000     -10.290568      -280.0206
  11   2.0000     -10.285991      -279.8961
  12   2.0000     -10.285639      -279.8865
  13   2.0000     -10.285597      -279.8853
  14   2.0000     -10.285126      -279.8725
  15   2.0000     -10.271976      -279.5147
  16   2.0000      -8.080314      -219.8765
  17   2.0000      -8.075597      -219.7482
  18   2.0000      -6.038645      -164.3199
  19   2.0000      -6.034942      -164.2191
  20   2.0000      -6.034158      -164.1978
  21   2.0000      -6.031213      -164.1176
  22   2.0000      -6.030388      -164.0952
  23   2.0000      -6.026198      -163.9812
  24   2.0000      -1.006110       -27.3777
  25   2.0000      -0.979697       -26.6589
  26   2.0000      -0.927073       -25.2269
  27   2.0000      -0.899027       -24.4638
  28   2.0000      -0.874484       -23.7959
  29   2.0000      -0.846229       -23.0271
  30   2.0000      -0.845515       -23.0076
  31   2.0000      -0.817884       -22.2558
  32   2.0000      -0.792536       -21.5660
  33   2.0000      -0.769355       -20.9352
  34   2.0000      -0.713412       -19.4129
  35   2.0000      -0.696044       -18.9403
  36   2.0000      -0.689983       -18.7754
  37   2.0000      -0.654952       -17.8222
  38   2.0000      -0.643278       -17.5045
  39   2.0000      -0.622198       -16.9309
  40   2.0000      -0.593380       -16.1467
  41   2.0000      -0.582872       -15.8608
  42   2.0000      -0.566235       -15.4080
  43   2.0000      -0.559953       -15.2371
  44   2.0000      -0.540512       -14.7081
  45   2.0000      -0.522928       -14.2296
  46   2.0000      -0.519613       -14.1394
  47   2.0000      -0.510769       -13.8987
  48   2.0000      -0.504394       -13.7252
  49   2.0000      -0.493473       -13.4281
  50   2.0000      -0.488567       -13.2946
  51   2.0000      -0.485076       -13.1996
  52   2.0000      -0.472965       -12.8700
  53   2.0000      -0.463491       -12.6122
  54   2.0000      -0.453863       -12.3502
  55   2.0000      -0.445921       -12.1341
  56   2.0000      -0.442601       -12.0438
  57   2.0000      -0.437034       -11.8923
  58   2.0000      -0.430265       -11.7081
  59   2.0000      -0.427853       -11.6425
  60   2.0000      -0.422526       -11.4975
  61   2.0000      -0.418169       -11.3790
  62   2.0000      -0.409190       -11.1346
  63   2.0000      -0.340547        -9.2668
  64   2.0000      -0.331065        -9.0087
  65   2.0000      -0.319439        -8.6924
  66   2.0000      -0.300778        -8.1846
  67   0.0000       0.037463         1.0194
  68   0.0000       0.055996         1.5237
  69   0.0000       0.110732         3.0132
  70   0.0000       0.115132         3.1329
  71   0.0000       0.128432         3.4948

MULLIKEN ATOMIC CHARGES
-----------------------
   0 S :    0.117809
   1 C :   -0.142892
   2 C :   -0.082025
   3 C :    0.047098
   4 C :   -0.185348
   5 H :    0.012231
   6 C :    0.105489
   7 H :    0.032387
   8 H :    0.040070
   9 C :   -0.081302
  10 H :    0.028030
  11 H :    0.029001
  12 C :   -0.024889
  13 H :    0.011155
  14 H :    0.028020
  15 H :    0.018670
  16 S :    0.099048
  17 C :   -0.092994
  18 C :   -0.032557
  19 C :    0.012489
  20 C :   -0.191670
  21 H :    0.016267
  22 C :    0.107713
  23 H :    0.014482
  24 H :    0.029045
  25 C :   -0.082611
  26 H :    0.022519
  27 H :    0.015224
  28 C :   -0.083808
  29 H :    0.045133
  30 H :    0.039041
  31 H :    0.039859
  32 H :    0.040460
  33 H :    0.048854
Sum of atomic charges:   -0.0000000

LOEWDIN ATOMIC CHARGES
----------------------
   0 S :    0.402035
   1 C :   -0.176242
   2 C :   -0.055466
   3 C :   -0.061084
   4 C :   -0.212112
   5 H :    0.028399
   6 C :   -0.023907
   7 H :    0.034370
   8 H :    0.038396
   9 C :   -0.049983
  10 H :    0.022717
  11 H :    0.034161
  12 C :   -0.066778
  13 H :    0.013301
  14 H :    0.024808
  15 H :    0.033078
  16 S :    0.369155
  17 C :   -0.164583
  18 C :   -0.077342
  19 C :   -0.049896
  20 C :   -0.191613
  21 H :    0.036116
  22 C :   -0.027345
  23 H :    0.028893
  24 H :    0.034153
  25 C :   -0.038304
  26 H :    0.023144
  27 H :    0.012672
  28 C :   -0.070424
  29 H :    0.021407
  30 H :    0.032957
  31 H :    0.028442
  32 H :    0.017528
  33 H :    0.029346

  Mayer bond orders larger than 0.100000
B(  0-S ,  1-C ) :   1.1357 B(  0-S ,  4-C ) :   1.1674 B(  1-C ,  2-C ) :   1.5926
B(  1-C ,  4-C ) :   0.1096 B(  1-C , 32-H ) :   0.9792 B(  2-C ,  3-C ) :   1.2479
B(  2-C ,  6-C ) :   0.9962 B(  3-C ,  4-C ) :   1.5717 B(  3-C ,  5-H ) :   0.9892
B(  4-C , 20-C ) :   1.0427 B(  6-C ,  7-H ) :   0.9440 B(  6-C ,  8-H ) :   0.9275
B(  6-C ,  9-C ) :   1.1105 B(  9-C , 10-H ) :   0.9433 B(  9-C , 11-H ) :   0.9485
B(  9-C , 12-C ) :   1.0743 B( 12-C , 13-H ) :   0.9754 B( 12-C , 14-H ) :   0.9735
B( 12-C , 15-H ) :   0.9643 B( 16-S , 17-C ) :   1.1220 B( 16-S , 20-C ) :   1.1319
B( 17-C , 18-C ) :   1.6767 B( 17-C , 33-H ) :   0.9635 B( 18-C , 19-C ) :   1.2004
B( 18-C , 21-H ) :   0.9853 B( 19-C , 20-C ) :   1.6118 B( 19-C , 22-C ) :   1.0544
B( 22-C , 23-H ) :   0.9370 B( 22-C , 24-H ) :   0.9214 B( 22-C , 25-C ) :   1.0576
B( 25-C , 26-H ) :   0.9536 B( 25-C , 27-H ) :   0.9542 B( 25-C , 28-C ) :   1.0784
B( 28-C , 29-H ) :   0.9771 B( 28-C , 30-H ) :   0.9757 B( 28-C , 31-H ) :   0.9760

Dispersion correction           -0.015492731
FINAL SINGLE POINT ENERGY     -1339.865746647926

DIPOLE MOMENT
-------------
                                X             Y             Z
Electronic contribution:    -26.44911     -15.05563      -1.32756
Nuclear contribution   :     26.92398      15.52957       1.34516
                        -----------------------------------------
Total Dipole Moment    :      0.47487       0.47394       0.01760
                        -----------------------------------------
Magnitude (a.u.)       :      0.67114
Magnitude (Debye)      :      1.70590

Rotational constants in cm-1:     0.017347     0.010220     0.007606
Rotational constants in MHz :   520.036907   306.387126   228.035554

                             ****ORCA TERMINATED NORMALLY****
TOTAL RUN TIME: 0 days 0 hours 0 minutes 27 seconds 812 msec
