                         Program Version 4.2.1 -  RELEASE  -
|  1> ! wB97X-D3 SP def2-SVP
|  2> %pal
|  3> nprocs 16
|  4> end
|  5>
|  6> * xyz 0 1
|  7> S 	 -47.3471 	 24.6907 	 81.1832
|  8> C 	 -47.8872 	 25.3621 	 82.7204
|  9> C 	 -48.2216 	 24.3415 	 83.6286
| 10> C 	 -48.3336 	 23.0706 	 83.0049
| 11> C 	 -47.9154 	 23.0886 	 81.6876
| 12> H 	 -48.6041 	 22.1116 	 83.4233
| 13> C 	 -48.1917 	 24.5217 	 85.1161
| 14> H 	 -47.1765 	 24.7521 	 85.2841
| 15> H 	 -48.317 	 23.5267 	 85.5936
| 16> C 	 -48.9476 	 25.756 	 85.6164
| 17> H 	 -48.5517 	 26.6648 	 85.1378
| 18> H 	 -50.0051 	 25.632 	 85.4916
| 19> C 	 -48.7802 	 25.8193 	 87.1082
| 20> H 	 -47.7583 	 25.8176 	 87.4559
| 21> H 	 -49.3275 	 26.7245 	 87.5321
| 22> H 	 -49.2323 	 24.9746 	 87.5535
| 23> S 	 -48.5213 	 21.8904 	 79.3243
| 24> C 	 -47.9388 	 20.2895 	 78.9523
| 25> C 	 -47.1699 	 19.8197 	 79.9715
| 26> C 	 -47.0616 	 20.7174 	 81.0723
| 27> C 	 -47.7393 	 21.8799 	 80.8766
| 28> H 	 -46.8352 	 18.762 	 79.8949
| 29> C 	 -46.3083 	 20.3181 	 82.3445
| 30> H 	 -46.3843 	 19.2061 	 82.4367
| 31> H 	 -46.9013 	 20.6463 	 83.2127
| 32> C 	 -44.8647 	 20.7707 	 82.4287
| 33> H 	 -44.8961 	 21.8901 	 82.3687
| 34> H 	 -44.3637 	 20.4172 	 81.5861
| 35> C 	 -44.1666 	 20.3595 	 83.7349
| 36> H 	 -43.1857 	 20.8574 	 83.6537
| 37> H 	 -44.0327 	 19.3388 	 84.0048
| 38> H 	 -44.5983 	 20.8315 	 84.6502
| 39> H 	 -47.5947 	 26.3598 	 83.108
| 40> H 	 -48.1437 	 19.7705 	 78.0373
| 41> *
| 42>
| 43>                          ****END OF INPUT****

CARTESIAN COORDINATES (ANGSTROEM)
---------------------------------
  S    -47.347100   24.690700   81.183200
  C    -47.887200   25.362100   82.720400
  C    -48.221600   24.341500   83.628600
  C    -48.333600   23.070600   83.004900
  C    -47.915400   23.088600   81.687600
  H    -48.604100   22.111600   83.423300
  C    -48.191700   24.521700   85.116100
  H    -47.176500   24.752100   85.284100
  H    -48.317000   23.526700   85.593600
  C    -48.947600   25.756000   85.616400
  H    -48.551700   26.664800   85.137800
  H    -50.005100   25.632000   85.491600
  C    -48.780200   25.819300   87.108200
  H    -47.758300   25.817600   87.455900
  H    -49.327500   26.724500   87.532100
  H    -49.232300   24.974600   87.553500
  S    -48.521300   21.890400   79.324300
  C    -47.938800   20.289500   78.952300
  C    -47.169900   19.819700   79.971500
  C    -47.061600   20.717400   81.072300
  C    -47.739300   21.879900   80.876600
  H    -46.835200   18.762000   79.894900
  C    -46.308300   20.318100   82.344500
  H    -46.384300   19.206100   82.436700
  H    -46.901300   20.646300   83.212700
  C    -44.864700   20.770700   82.428700
  H    -44.896100   21.890100   82.368700
  H    -44.363700   20.417200   81.586100
  C    -44.166600   20.359500   83.734900
  H    -43.185700   20.857400   83.653700
  H    -44.032700   19.338800   84.004800
  H    -44.598300   20.831500   84.650200
  H    -47.594700   26.359800   83.108000
  H    -48.143700   19.770500   78.037300

 Total Charge           Charge          ....    0
 Multiplicity           Mult            ....    1
 Number of Electrons    NEL             ....  134
 Basis Dimension        Dim             ....  322

ORBITAL ENERGIES
----------------

  NO   OCC          E(Eh)            E(eV)
   0   2.0000     -88.970066     -2420.9986
   1   2.0000     -88.959972     -2420.7239
   2   2.0000     -10.330239      -281.1001
   3   2.0000     -10.321939      -280.8742
   4   2.0000     -10.314911      -280.6830
   5   2.0000     -10.312588      -280.6198
   6   2.0000     -10.301516      -280.3185
   7   2.0000     -10.300293      -280.2852
   8   2.0000     -10.293316      -280.0954
   9   2.0000     -10.292492      -280.0729
  10   2.0000     -10.290984      -280.0319
  11   2.0000     -10.289984      -280.0047
  12   2.0000     -10.287715      -279.9430
  13   2.0000     -10.284258      -279.8489
  14   2.0000     -10.278831      -279.7012
  15   2.0000     -10.275902      -279.6215
  16   2.0000      -8.083751      -219.9701
  17   2.0000      -8.075515      -219.7459
  18   2.0000      -6.042314      -164.4197
  19   2.0000      -6.038480      -164.3154
  20   2.0000      -6.034442      -164.2055
  21   2.0000      -6.033947      -164.1921
  22   2.0000      -6.029853      -164.0806
  23   2.0000      -6.026352      -163.9854
  24   2.0000      -1.008256       -27.4360
  25   2.0000      -0.984406       -26.7870
  26   2.0000      -0.920578       -25.0502
  27   2.0000      -0.907842       -24.7036
  28   2.0000      -0.870109       -23.6769
  29   2.0000      -0.854790       -23.2600
  30   2.0000      -0.847517       -23.0621
  31   2.0000      -0.816423       -22.2160
  32   2.0000      -0.780506       -21.2387
  33   2.0000      -0.768546       -20.9132
  34   2.0000      -0.710247       -19.3268
  35   2.0000      -0.703318       -19.1383
  36   2.0000      -0.691783       -18.8244
  37   2.0000      -0.662448       -18.0261
  38   2.0000      -0.639168       -17.3927
  39   2.0000      -0.617495       -16.8029
  40   2.0000      -0.594441       -16.1756
  41   2.0000      -0.577486       -15.7142
  42   2.0000      -0.564437       -15.3591
  43   2.0000      -0.560109       -15.2413
  44   2.0000      -0.529954       -14.4208
  45   2.0000      -0.526549       -14.3281
  46   2.0000      -0.517644       -14.0858
  47   2.0000      -0.512445       -13.9443
  48   2.0000      -0.501884       -13.6570
  49   2.0000      -0.498988       -13.5781
  50   2.0000      -0.491295       -13.3688
  51   2.0000      -0.479653       -13.0520
  52   2.0000      -0.476908       -12.9773
  53   2.0000      -0.460420       -12.5287
  54   2.0000      -0.459158       -12.4943
  55   2.0000      -0.450594       -12.2613
  56   2.0000      -0.443686       -12.0733
  57   2.0000      -0.435163       -11.8414
  58   2.0000      -0.434096       -11.8124
  59   2.0000      -0.429906       -11.6983
  60   2.0000      -0.423835       -11.5331
  61   2.0000      -0.416320       -11.3286
  62   2.0000      -0.413597       -11.2545
  63   2.0000      -0.344264        -9.3679
  64   2.0000      -0.330507        -8.9936
  65   2.0000      -0.327472        -8.9110
  66   2.0000      -0.295091        -8.0298
  67   0.0000       0.032209         0.8765
  68   0.0000       0.064685         1.7602
  69   0.0000       0.104613         2.8467
  70   0.0000       0.120596         3.2816
  71   0.0000       0.138965         3.7814

MULLIKEN ATOMIC CHARGES
-----------------------
   0 S :    0.120664
   1 C :   -0.127650
   2 C :   -0.086731
   3 C :    0.027178
   4 C :   -0.134275
   5 H :    0.016693
   6 C :    0.048504
   7 H :    0.024456
   8 H :    0.025266
   9 C :   -0.058416
  10 H :    0.037559
  11 H :    0.034819
  12 C :   -0.039115
  13 H :    0.020508
  14 H :    0.039681
  15 H :    0.015998
  16 S :    0.100039
  17 C :   -0.087776
  18 C :   -0.053769
  19 C :   -0.018705
  20 C :   -0.192621
  21 H :    0.033175
  22 C :    0.055034
  23 H :    0.017323
  24 H :    0.005939
  25 C :   -0.037161
  26 H :    0.039951
  27 H :    0.016228
  28 C :   -0.047596
  29 H :    0.034064
  30 H :    0.032648
  31 H :    0.026520
  32 H :    0.060802
  33 H :    0.050766
Sum of atomic charges:   -0.0000000

LOEWDIN ATOMIC CHARGES
----------------------
   0 S :    0.399282
   1 C :   -0.215114
   2 C :   -0.055389
   3 C :   -0.062227
   4 C :   -0.186157
   5 H :    0.031912
   6 C :   -0.034364
   7 H :    0.031913
   8 H :    0.033949
   9 C :   -0.032263
  10 H :    0.027549
  11 H :    0.026518
  12 C :   -0.064504
  13 H :    0.018958
  14 H :    0.032471
  15 H :    0.018536
  16 S :    0.409156
  17 C :   -0.181160
  18 C :   -0.079915
  19 C :   -0.060981
  20 C :   -0.203220
  21 H :    0.039799
  22 C :   -0.035387
  23 H :    0.029598
  24 H :    0.024526
  25 C :   -0.033945
  26 H :    0.035333
  27 H :    0.016941
  28 C :   -0.070037
  29 H :    0.032680
  30 H :    0.019262
  31 H :    0.028509
  32 H :    0.030583
  33 H :    0.027186

  Mayer bond orders larger than 0.100000
B(  0-S ,  1-C ) :   1.1271 B(  0-S ,  4-C ) :   1.1597 B(  1-C ,  2-C ) :   1.6042
B(  1-C ,  4-C ) :   0.1017 B(  1-C , 32-H ) :   0.9593 B(  2-C ,  3-C ) :   1.2384
B(  2-C ,  6-C ) :   1.0150 B(  3-C ,  4-C ) :   1.5717 B(  3-C ,  5-H ) :   0.9954
B(  4-C , 20-C ) :   1.0179 B(  6-C ,  7-H ) :   0.9272 B(  6-C ,  8-H ) :   0.9510
B(  6-C ,  9-C ) :   1.0622 B(  9-C , 10-H ) :   0.9490 B(  9-C , 11-H ) :   0.9587
B(  9-C , 12-C ) :   1.0925 B( 12-C , 13-H ) :   0.9734 B( 12-C , 14-H ) :   0.9724
B( 12-C , 15-H ) :   0.9718 B( 16-S , 17-C ) :   1.1547 B( 16-S , 20-C ) :   1.1455
B( 17-C , 18-C ) :   1.6234 B( 17-C , 33-H ) :   0.9700 B( 18-C , 19-C ) :   1.2307
B( 18-C , 21-H ) :   0.9846 B( 19-C , 20-C ) :   1.6253 B( 19-C , 22-C ) :   1.0305
B( 22-C , 23-H ) :   0.9332 B( 22-C , 24-H ) :   0.9337 B( 22-C , 25-C ) :   1.0701
B( 25-C , 26-H ) :   0.9521 B( 25-C , 27-H ) :   0.9525 B( 25-C , 28-C ) :   1.0812
B( 28-C , 29-H ) :   0.9731 B( 28-C , 30-H ) :   0.9778 B( 28-C , 31-H ) :   0.9724

Dispersion correction           -0.013966594
FINAL SINGLE POINT ENERGY     -1339.877523048548

DIPOLE MOMENT
-------------
                                X             Y             Z
Electronic contribution:     -8.28978       1.15467     -28.62620
Nuclear contribution   :      8.62059      -1.49393      29.30643
                        -----------------------------------------
Total Dipole Moment    :      0.33081      -0.33926       0.68023
                        -----------------------------------------
Magnitude (a.u.)       :      0.82900
Magnitude (Debye)      :      2.10716

Rotational constants in cm-1:     0.019439     0.008094     0.006444
Rotational constants in MHz :   582.775640   242.661140   193.196450

                             ****ORCA TERMINATED NORMALLY****
TOTAL RUN TIME: 0 days 0 hours 0 minutes 29 seconds 886 msec
