                         Program Version 4.2.1 -  RELEASE  -
|  1> ! wB97X-D3 SP def2-SVP
|  2> %pal
|  3> nprocs 16
|  4> end
|  5>
|  6> * xyz 0 1
|  7> S 	 0.887322 	 -23.2869 	 63.5926
|  8> C 	 -0.615719 	 -23.1725 	 64.5411
|  9> C 	 -1.59323 	 -23.9633 	 63.9624
| 10> C 	 -1.12116 	 -24.644 	 62.7597
| 11> C 	 0.107056 	 -24.3441 	 62.3716
| 12> H 	 -1.58347 	 -25.326 	 62.1645
| 13> C 	 -3.01114 	 -24.1174 	 64.5334
| 14> H 	 -3.14835 	 -23.9352 	 65.6239
| 15> H 	 -3.35032 	 -25.0953 	 64.286
| 16> C 	 -4.06391 	 -23.3312 	 63.7721
| 17> H 	 -4.05963 	 -22.2306 	 63.9147
| 18> H 	 -4.05036 	 -23.4604 	 62.6832
| 19> C 	 -5.51394 	 -23.9051 	 64.1254
| 20> H 	 -6.26458 	 -23.1864 	 63.95
| 21> H 	 -5.77904 	 -24.8084 	 63.496
| 22> H 	 -5.58109 	 -24.1708 	 65.1678
| 23> S 	 2.3603 	 -25.5594 	 61.3113
| 24> C 	 2.65906 	 -25.3488 	 59.6311
| 25> C 	 1.58352 	 -24.9315 	 58.9844
| 26> C 	 0.468035 	 -24.604 	 59.8326
| 27> C 	 0.796406 	 -24.7772 	 61.174
| 28> H 	 1.57404 	 -24.9713 	 57.9059
| 29> C 	 -0.77972 	 -23.9793 	 59.2254
| 30> H 	 -1.68299 	 -24.2988 	 59.8401
| 31> H 	 -0.84854 	 -24.3602 	 58.223
| 32> C 	 -0.844394 	 -22.4617 	 59.0642
| 33> H 	 -1.70875 	 -22.2925 	 58.4552
| 34> H 	 0.0505777 	 -22.053 	 58.6197
| 35> C 	 -1.09162 	 -21.7024 	 60.3714
| 36> H 	 -0.322309 	 -21.8537 	 61.0975
| 37> H 	 -2.02199 	 -22.064 	 60.8841
| 38> H 	 -1.20773 	 -20.6711 	 60.2559
| 39> H 	 -0.764335 	 -22.6781 	 65.3741
| 40> H 	 3.5999 	 -25.7167 	 59.1383
| 41> *
| 42>
| 43>                          ****END OF INPUT****

CARTESIAN COORDINATES (ANGSTROEM)
---------------------------------
  S      0.887322  -23.286900   63.592600
  C     -0.615719  -23.172500   64.541100
  C     -1.593230  -23.963300   63.962400
  C     -1.121160  -24.644000   62.759700
  C      0.107056  -24.344100   62.371600
  H     -1.583470  -25.326000   62.164500
  C     -3.011140  -24.117400   64.533400
  H     -3.148350  -23.935200   65.623900
  H     -3.350320  -25.095300   64.286000
  C     -4.063910  -23.331200   63.772100
  H     -4.059630  -22.230600   63.914700
  H     -4.050360  -23.460400   62.683200
  C     -5.513940  -23.905100   64.125400
  H     -6.264580  -23.186400   63.950000
  H     -5.779040  -24.808400   63.496000
  H     -5.581090  -24.170800   65.167800
  S      2.360300  -25.559400   61.311300
  C      2.659060  -25.348800   59.631100
  C      1.583520  -24.931500   58.984400
  C      0.468035  -24.604000   59.832600
  C      0.796406  -24.777200   61.174000
  H      1.574040  -24.971300   57.905900
  C     -0.779720  -23.979300   59.225400
  H     -1.682990  -24.298800   59.840100
  H     -0.848540  -24.360200   58.223000
  C     -0.844394  -22.461700   59.064200
  H     -1.708750  -22.292500   58.455200
  H      0.050578  -22.053000   58.619700
  C     -1.091620  -21.702400   60.371400
  H     -0.322309  -21.853700   61.097500
  H     -2.021990  -22.064000   60.884100
  H     -1.207730  -20.671100   60.255900
  H     -0.764335  -22.678100   65.374100
  H      3.599900  -25.716700   59.138300

 Total Charge           Charge          ....    0
 Multiplicity           Mult            ....    1
 Number of Electrons    NEL             ....  134
 Basis Dimension        Dim             ....  322

ORBITAL ENERGIES
----------------

  NO   OCC          E(Eh)            E(eV)
   0   2.0000     -88.962697     -2420.7980
   1   2.0000     -88.961932     -2420.7772
   2   2.0000     -10.326924      -281.0099
   3   2.0000     -10.326498      -280.9983
   4   2.0000     -10.314173      -280.6629
   5   2.0000     -10.308381      -280.5053
   6   2.0000     -10.307553      -280.4828
   7   2.0000     -10.306396      -280.4513
   8   2.0000     -10.296232      -280.1747
   9   2.0000     -10.294537      -280.1286
  10   2.0000     -10.291528      -280.0467
  11   2.0000     -10.288028      -279.9515
  12   2.0000     -10.285601      -279.8854
  13   2.0000     -10.280302      -279.7412
  14   2.0000     -10.280086      -279.7354
  15   2.0000     -10.262134      -279.2469
  16   2.0000      -8.078434      -219.8254
  17   2.0000      -8.075413      -219.7432
  18   2.0000      -6.036916      -164.2728
  19   2.0000      -6.034206      -164.1991
  20   2.0000      -6.032873      -164.1628
  21   2.0000      -6.030099      -164.0873
  22   2.0000      -6.029075      -164.0595
  23   2.0000      -6.025910      -163.9733
  24   2.0000      -1.010248       -27.4903
  25   2.0000      -0.984977       -26.8026
  26   2.0000      -0.911061       -24.7912
  27   2.0000      -0.908923       -24.7331
  28   2.0000      -0.875883       -23.8340
  29   2.0000      -0.849271       -23.1098
  30   2.0000      -0.839799       -22.8521
  31   2.0000      -0.823177       -22.3998
  32   2.0000      -0.783200       -21.3120
  33   2.0000      -0.773318       -21.0431
  34   2.0000      -0.712055       -19.3760
  35   2.0000      -0.699274       -19.0282
  36   2.0000      -0.691481       -18.8162
  37   2.0000      -0.660863       -17.9830
  38   2.0000      -0.654654       -17.8140
  39   2.0000      -0.621775       -16.9194
  40   2.0000      -0.598086       -16.2747
  41   2.0000      -0.572779       -15.5861
  42   2.0000      -0.565650       -15.3921
  43   2.0000      -0.550367       -14.9762
  44   2.0000      -0.545409       -14.8413
  45   2.0000      -0.523870       -14.2552
  46   2.0000      -0.517171       -14.0729
  47   2.0000      -0.511177       -13.9098
  48   2.0000      -0.508783       -13.8447
  49   2.0000      -0.498764       -13.5721
  50   2.0000      -0.492261       -13.3951
  51   2.0000      -0.480673       -13.0798
  52   2.0000      -0.470002       -12.7894
  53   2.0000      -0.466503       -12.6942
  54   2.0000      -0.457765       -12.4564
  55   2.0000      -0.444839       -12.1047
  56   2.0000      -0.440278       -11.9806
  57   2.0000      -0.437582       -11.9072
  58   2.0000      -0.434535       -11.8243
  59   2.0000      -0.423732       -11.5303
  60   2.0000      -0.421152       -11.4601
  61   2.0000      -0.415568       -11.3082
  62   2.0000      -0.410165       -11.1611
  63   2.0000      -0.350030        -9.5248
  64   2.0000      -0.331966        -9.0333
  65   2.0000      -0.326237        -8.8774
  66   2.0000      -0.299819        -8.1585
  67   0.0000       0.032477         0.8837
  68   0.0000       0.070540         1.9195
  69   0.0000       0.111448         3.0326
  70   0.0000       0.121293         3.3006
  71   0.0000       0.130547         3.5524

MULLIKEN ATOMIC CHARGES
-----------------------
   0 S :    0.089438
   1 C :   -0.040608
   2 C :   -0.069316
   3 C :    0.074823
   4 C :   -0.141360
   5 H :   -0.031284
   6 C :    0.092719
   7 H :    0.042964
   8 H :    0.010760
   9 C :   -0.113736
  10 H :    0.036011
  11 H :    0.036622
  12 C :   -0.068649
  13 H :    0.024643
  14 H :    0.044125
  15 H :    0.025854
  16 S :    0.109331
  17 C :   -0.101929
  18 C :   -0.032037
  19 C :   -0.019309
  20 C :   -0.187963
  21 H :    0.015577
  22 C :    0.064175
  23 H :    0.026051
  24 H :    0.016072
  25 C :   -0.031356
  26 H :    0.024591
  27 H :    0.026027
  28 C :   -0.036019
  29 H :    0.027236
  30 H :    0.018009
  31 H :    0.018854
  32 H :   -0.024033
  33 H :    0.073716
Sum of atomic charges:   -0.0000000

LOEWDIN ATOMIC CHARGES
----------------------
   0 S :    0.364961
   1 C :   -0.155533
   2 C :   -0.048441
   3 C :   -0.052396
   4 C :   -0.169818
   5 H :    0.016385
   6 C :   -0.032464
   7 H :    0.037283
   8 H :    0.029476
   9 C :   -0.041983
  10 H :    0.022250
  11 H :    0.024242
  12 C :   -0.067678
  13 H :    0.018596
  14 H :    0.031465
  15 H :    0.018970
  16 S :    0.409402
  17 C :   -0.191809
  18 C :   -0.079036
  19 C :   -0.049248
  20 C :   -0.201025
  21 H :    0.032211
  22 C :   -0.032268
  23 H :    0.035389
  24 H :    0.029493
  25 C :   -0.031215
  26 H :    0.023498
  27 H :    0.023565
  28 C :   -0.063513
  29 H :    0.018241
  30 H :    0.026181
  31 H :    0.016260
  32 H :   -0.003492
  33 H :    0.042052

  Mayer bond orders larger than 0.100000
B(  0-S ,  1-C ) :   1.1101 B(  0-S ,  4-C ) :   1.1005 B(  1-C ,  2-C ) :   1.6524
B(  1-C , 32-H ) :   0.9906 B(  2-C ,  3-C ) :   1.1578 B(  2-C ,  6-C ) :   1.0309
B(  3-C ,  4-C ) :   1.6626 B(  3-C ,  5-H ) :   1.0101 B(  4-C , 20-C ) :   1.0382
B(  6-C ,  7-H ) :   0.9461 B(  6-C ,  8-H ) :   0.9353 B(  6-C ,  9-C ) :   1.0520
B(  9-C , 10-H ) :   0.9606 B(  9-C , 11-H ) :   0.9602 B(  9-C , 12-C ) :   1.0638
B( 12-C , 13-H ) :   0.9760 B( 12-C , 14-H ) :   0.9777 B( 12-C , 15-H ) :   0.9774
B( 16-S , 17-C ) :   1.1467 B( 16-S , 20-C ) :   1.1443 B( 17-C , 18-C ) :   1.6402
B( 17-C , 33-H ) :   0.9566 B( 18-C , 19-C ) :   1.2267 B( 18-C , 21-H ) :   0.9893
B( 19-C , 20-C ) :   1.5912 B( 19-C , 22-C ) :   1.0479 B( 22-C , 23-H ) :   0.9317
B( 22-C , 24-H ) :   0.9247 B( 22-C , 25-C ) :   1.0861 B( 25-C , 26-H ) :   0.9516
B( 25-C , 27-H ) :   0.9516 B( 25-C , 28-C ) :   1.0867 B( 28-C , 29-H ) :   0.9706
B( 28-C , 30-H ) :   0.9711 B( 28-C , 31-H ) :   0.9719

Dispersion correction           -0.015682623
FINAL SINGLE POINT ENERGY     -1339.865342516280

DIPOLE MOMENT
-------------
                                X             Y             Z
Electronic contribution:     28.30491      -8.96067       2.95561
Nuclear contribution   :    -28.91671       8.95252      -3.30908
                        -----------------------------------------
Total Dipole Moment    :     -0.61180      -0.00816      -0.35347
                        -----------------------------------------
Magnitude (a.u.)       :      0.70662
Magnitude (Debye)      :      1.79608

Rotational constants in cm-1:     0.021261     0.008703     0.007302
Rotational constants in MHz :   637.396645   260.908006   218.901475

                             ****ORCA TERMINATED NORMALLY****
TOTAL RUN TIME: 0 days 0 hours 0 minutes 35 seconds 217 msec
