                         Program Version 4.2.1 -  RELEASE  -
|  1> ! wB97X-D3 SP def2-SVP
|  2> %pal
|  3> nprocs 16
|  4> end
|  5>
|  6> * xyz 0 1
|  7> S 	 68.2695 	 23.5438 	 72.946
|  8> C 	 69.2815 	 22.0305 	 72.873
|  9> C 	 70.6287 	 22.4066 	 72.8893
| 10> C 	 70.8739 	 23.7801 	 73.2675
| 11> C 	 69.7212 	 24.4862 	 73.4432
| 12> H 	 71.7576 	 24.3086 	 73.3718
| 13> C 	 71.7615 	 21.521 	 72.6051
| 14> H 	 71.4755 	 20.5461 	 72.3858
| 15> H 	 72.2592 	 21.4064 	 73.5546
| 16> C 	 72.7524 	 21.9487 	 71.5838
| 17> H 	 72.9184 	 23.0071 	 71.7127
| 18> H 	 73.6961 	 21.5909 	 71.8409
| 19> C 	 72.3453 	 21.5068 	 70.1825
| 20> H 	 71.5415 	 22.1141 	 69.7209
| 21> H 	 73.1183 	 21.6445 	 69.4644
| 22> H 	 72.1392 	 20.3996 	 70.0757
| 23> S 	 68.6723 	 26.8478 	 72.7104
| 24> C 	 69.3282 	 28.304 	 73.3871
| 25> C 	 70.2351 	 28.1145 	 74.3681
| 26> C 	 70.3216 	 26.6812 	 74.6667
| 27> C 	 69.6587 	 25.8993 	 73.6975
| 28> H 	 70.6478 	 28.9931 	 74.9123
| 29> C 	 71.1599 	 26.1851 	 75.8619
| 30> H 	 71.2641 	 25.1102 	 75.9285
| 31> H 	 70.5641 	 26.4256 	 76.7929
| 32> C 	 72.5479 	 26.8729 	 75.995
| 33> H 	 72.3537 	 27.9304 	 76.0552
| 34> H 	 73.0997 	 27.024 	 75.0813
| 35> C 	 73.4471 	 26.4577 	 77.15
| 36> H 	 73.6796 	 25.3807 	 77.1268
| 37> H 	 72.8246 	 26.5973 	 78.0222
| 38> H 	 74.3532 	 27.0117 	 77.2893
| 39> H 	 68.9264 	 21.1037 	 72.5287
| 40> H 	 69.1515 	 29.2552 	 72.9984
| 41> *
| 42>
| 43>                          ****END OF INPUT****

CARTESIAN COORDINATES (ANGSTROEM)
---------------------------------
  S     68.269500   23.543800   72.946000
  C     69.281500   22.030500   72.873000
  C     70.628700   22.406600   72.889300
  C     70.873900   23.780100   73.267500
  C     69.721200   24.486200   73.443200
  H     71.757600   24.308600   73.371800
  C     71.761500   21.521000   72.605100
  H     71.475500   20.546100   72.385800
  H     72.259200   21.406400   73.554600
  C     72.752400   21.948700   71.583800
  H     72.918400   23.007100   71.712700
  H     73.696100   21.590900   71.840900
  C     72.345300   21.506800   70.182500
  H     71.541500   22.114100   69.720900
  H     73.118300   21.644500   69.464400
  H     72.139200   20.399600   70.075700
  S     68.672300   26.847800   72.710400
  C     69.328200   28.304000   73.387100
  C     70.235100   28.114500   74.368100
  C     70.321600   26.681200   74.666700
  C     69.658700   25.899300   73.697500
  H     70.647800   28.993100   74.912300
  C     71.159900   26.185100   75.861900
  H     71.264100   25.110200   75.928500
  H     70.564100   26.425600   76.792900
  C     72.547900   26.872900   75.995000
  H     72.353700   27.930400   76.055200
  H     73.099700   27.024000   75.081300
  C     73.447100   26.457700   77.150000
  H     73.679600   25.380700   77.126800
  H     72.824600   26.597300   78.022200
  H     74.353200   27.011700   77.289300
  H     68.926400   21.103700   72.528700
  H     69.151500   29.255200   72.998400

 Total Charge           Charge          ....    0
 Multiplicity           Mult            ....    1
 Number of Electrons    NEL             ....  134
 Basis Dimension        Dim             ....  322

ORBITAL ENERGIES
----------------

  NO   OCC          E(Eh)            E(eV)
   0   2.0000     -88.964801     -2420.8553
   1   2.0000     -88.961954     -2420.7778
   2   2.0000     -10.330309      -281.1020
   3   2.0000     -10.323796      -280.9248
   4   2.0000     -10.315779      -280.7066
   5   2.0000     -10.312056      -280.6053
   6   2.0000     -10.309369      -280.5322
   7   2.0000     -10.303669      -280.3771
   8   2.0000     -10.299407      -280.2611
   9   2.0000     -10.298366      -280.2328
  10   2.0000     -10.288577      -279.9664
  11   2.0000     -10.283109      -279.8176
  12   2.0000     -10.279090      -279.7082
  13   2.0000     -10.278599      -279.6949
  14   2.0000     -10.277873      -279.6752
  15   2.0000     -10.275235      -279.6034
  16   2.0000      -8.081394      -219.9059
  17   2.0000      -8.075112      -219.7350
  18   2.0000      -6.039789      -164.3510
  19   2.0000      -6.035707      -164.2400
  20   2.0000      -6.033942      -164.1919
  21   2.0000      -6.032088      -164.1415
  22   2.0000      -6.030153      -164.0888
  23   2.0000      -6.025329      -163.9575
  24   2.0000      -1.011585       -27.5266
  25   2.0000      -0.979812       -26.6620
  26   2.0000      -0.922405       -25.0999
  27   2.0000      -0.906226       -24.6597
  28   2.0000      -0.874902       -23.8073
  29   2.0000      -0.852173       -23.1888
  30   2.0000      -0.841842       -22.9077
  31   2.0000      -0.821803       -22.3624
  32   2.0000      -0.783312       -21.3150
  33   2.0000      -0.772481       -21.0203
  34   2.0000      -0.716941       -19.5090
  35   2.0000      -0.707651       -19.2562
  36   2.0000      -0.700361       -19.0578
  37   2.0000      -0.658574       -17.9207
  38   2.0000      -0.644938       -17.5497
  39   2.0000      -0.626623       -17.0513
  40   2.0000      -0.601983       -16.3808
  41   2.0000      -0.570015       -15.5109
  42   2.0000      -0.562500       -15.3064
  43   2.0000      -0.551254       -15.0004
  44   2.0000      -0.535343       -14.5674
  45   2.0000      -0.531157       -14.4535
  46   2.0000      -0.522658       -14.2222
  47   2.0000      -0.516130       -14.0446
  48   2.0000      -0.503994       -13.7144
  49   2.0000      -0.498419       -13.5627
  50   2.0000      -0.484347       -13.1798
  51   2.0000      -0.481462       -13.1013
  52   2.0000      -0.472961       -12.8699
  53   2.0000      -0.468285       -12.7427
  54   2.0000      -0.457882       -12.4596
  55   2.0000      -0.454186       -12.3590
  56   2.0000      -0.445153       -12.1132
  57   2.0000      -0.439583       -11.9617
  58   2.0000      -0.434561       -11.8250
  59   2.0000      -0.433600       -11.7989
  60   2.0000      -0.425613       -11.5815
  61   2.0000      -0.412966       -11.2374
  62   2.0000      -0.400205       -10.8901
  63   2.0000      -0.354603        -9.6492
  64   2.0000      -0.331466        -9.0197
  65   2.0000      -0.321411        -8.7460
  66   2.0000      -0.287990        -7.8366
  67   0.0000       0.027464         0.7473
  68   0.0000       0.070464         1.9174
  69   0.0000       0.098729         2.6866
  70   0.0000       0.119281         3.2458
  71   0.0000       0.130214         3.5433

MULLIKEN ATOMIC CHARGES
-----------------------
   0 S :    0.067405
   1 C :   -0.084450
   2 C :   -0.084498
   3 C :    0.037888
   4 C :   -0.119118
   5 H :   -0.005511
   6 C :    0.102978
   7 H :   -0.019161
   8 H :    0.023885
   9 C :   -0.012277
  10 H :    0.013279
  11 H :    0.001620
  12 C :   -0.058869
  13 H :    0.044810
  14 H :    0.016482
  15 H :    0.036447
  16 S :    0.115761
  17 C :   -0.058067
  18 C :   -0.056994
  19 C :   -0.049572
  20 C :   -0.150383
  21 H :    0.047167
  22 C :    0.066218
  23 H :    0.022798
  24 H :    0.042654
  25 C :   -0.094560
  26 H :    0.005590
  27 H :    0.012940
  28 C :   -0.014185
  29 H :    0.032251
  30 H :    0.018256
  31 H :    0.036198
  32 H :    0.033269
  33 H :    0.029751
Sum of atomic charges:    0.0000000

LOEWDIN ATOMIC CHARGES
----------------------
   0 S :    0.337754
   1 C :   -0.172458
   2 C :   -0.044717
   3 C :   -0.053733
   4 C :   -0.160685
   5 H :    0.022785
   6 C :   -0.032691
   7 H :    0.017852
   8 H :    0.036322
   9 C :   -0.034229
  10 H :    0.025023
  11 H :    0.019020
  12 C :   -0.070116
  13 H :    0.033341
  14 H :    0.020297
  15 H :    0.032505
  16 S :    0.433820
  17 C :   -0.177174
  18 C :   -0.074581
  19 C :   -0.050988
  20 C :   -0.219898
  21 H :    0.043846
  22 C :   -0.031725
  23 H :    0.024017
  24 H :    0.041264
  25 C :   -0.056119
  26 H :    0.019798
  27 H :    0.020609
  28 C :   -0.061371
  29 H :    0.026694
  30 H :    0.024552
  31 H :    0.026703
  32 H :    0.018021
  33 H :    0.016260

  Mayer bond orders larger than 0.100000
B(  0-S ,  1-C ) :   1.0891 B(  0-S ,  4-C ) :   1.1175 B(  1-C ,  2-C ) :   1.6433
B(  1-C , 32-H ) :   0.9738 B(  2-C ,  3-C ) :   1.1663 B(  2-C ,  6-C ) :   1.0477
B(  3-C ,  4-C ) :   1.6158 B(  3-C ,  5-H ) :   1.0034 B(  4-C , 20-C ) :   1.0612
B(  6-C ,  7-H ) :   0.9311 B(  6-C ,  8-H ) :   0.9243 B(  6-C ,  9-C ) :   1.0851
B(  9-C , 10-H ) :   0.9484 B(  9-C , 11-H ) :   0.9433 B(  9-C , 12-C ) :   1.0777
B( 12-C , 13-H ) :   0.9756 B( 12-C , 14-H ) :   0.9714 B( 12-C , 15-H ) :   0.9732
B( 16-S , 17-C ) :   1.1516 B( 16-S , 20-C ) :   1.1468 B( 17-C , 18-C ) :   1.6524
B( 17-C , 33-H ) :   0.9684 B( 18-C , 19-C ) :   1.2072 B( 18-C , 21-H ) :   0.9797
B( 19-C , 20-C ) :   1.5868 B( 19-C , 22-C ) :   1.0465 B( 22-C , 23-H ) :   0.9461
B( 22-C , 24-H ) :   0.9287 B( 22-C , 25-C ) :   1.0424 B( 25-C , 26-H ) :   0.9394
B( 25-C , 27-H ) :   0.9571 B( 25-C , 28-C ) :   1.0851 B( 28-C , 29-H ) :   0.9759
B( 28-C , 30-H ) :   0.9722 B( 28-C , 31-H ) :   0.9729

Dispersion correction           -0.013826479
FINAL SINGLE POINT ENERGY     -1339.852490087050

DIPOLE MOMENT
-------------
                                X             Y             Z
Electronic contribution:    -25.65433       6.70447      -5.55766
Nuclear contribution   :     26.46194      -6.61897       5.63869
                        -----------------------------------------
Total Dipole Moment    :      0.80762       0.08550       0.08103
                        -----------------------------------------
Magnitude (a.u.)       :      0.81616
Magnitude (Debye)      :      2.07452

Rotational constants in cm-1:     0.016537     0.008970     0.006863
Rotational constants in MHz :   495.753291   268.921662   205.760225

                             ****ORCA TERMINATED NORMALLY****
TOTAL RUN TIME: 0 days 0 hours 0 minutes 30 seconds 143 msec
