                         Program Version 4.2.1 -  RELEASE  -
|  1> ! wB97X-D3 SP def2-SVP
|  2> %pal
|  3> nprocs 16
|  4> end
|  5>
|  6> * xyz 0 1
|  7> S 	 -10.2295 	 65.3568 	 53.1887
|  8> C 	 -10.7838 	 63.703 	 52.7497
|  9> C 	 -9.69757 	 62.8492 	 52.7254
| 10> C 	 -8.41438 	 63.5182 	 52.7585
| 11> C 	 -8.54718 	 64.8993 	 52.9556
| 12> H 	 -7.45177 	 63.0625 	 52.6688
| 13> C 	 -9.7726 	 61.319 	 52.3893
| 14> H 	 -9.01742 	 61.0116 	 51.6512
| 15> H 	 -10.75 	 61.2572 	 51.7422
| 16> C 	 -9.74688 	 60.3352 	 53.6005
| 17> H 	 -8.72388 	 60.3908 	 53.9348
| 18> H 	 -10.3499 	 60.7093 	 54.4082
| 19> C 	 -10.0665 	 58.9372 	 53.1303
| 20> H 	 -9.66672 	 58.5912 	 52.1593
| 21> H 	 -9.71671 	 58.1155 	 53.7575
| 22> H 	 -11.1734 	 58.7628 	 53.113
| 23> S 	 -6.50788 	 66.6215 	 52.0442
| 24> C 	 -5.45433 	 67.3708 	 53.2298
| 25> C 	 -5.98286 	 67.2334 	 54.4661
| 26> C 	 -7.14496 	 66.4058 	 54.5077
| 27> C 	 -7.51657 	 65.885 	 53.2938
| 28> H 	 -5.4001 	 67.7371 	 55.2609
| 29> C 	 -7.89958 	 66.2053 	 55.8182
| 30> H 	 -8.89104 	 65.9378 	 55.6379
| 31> H 	 -8.09322 	 67.2065 	 56.3004
| 32> C 	 -7.28747 	 65.2525 	 56.887
| 33> H 	 -6.42093 	 65.6598 	 57.2148
| 34> H 	 -6.937 	 64.3245 	 56.3794
| 35> C 	 -8.29381 	 64.9139 	 57.9984
| 36> H 	 -8.41288 	 65.818 	 58.5893
| 37> H 	 -7.83066 	 64.0703 	 58.5438
| 38> H 	 -9.26269 	 64.5574 	 57.5687
| 39> H 	 -11.8303 	 63.3843 	 52.667
| 40> H 	 -4.61979 	 68.0996 	 53.0119
| 41> *
| 42>
| 43>                          ****END OF INPUT****

CARTESIAN COORDINATES (ANGSTROEM)
---------------------------------
  S    -10.229500   65.356800   53.188700
  C    -10.783800   63.703000   52.749700
  C     -9.697570   62.849200   52.725400
  C     -8.414380   63.518200   52.758500
  C     -8.547180   64.899300   52.955600
  H     -7.451770   63.062500   52.668800
  C     -9.772600   61.319000   52.389300
  H     -9.017420   61.011600   51.651200
  H    -10.750000   61.257200   51.742200
  C     -9.746880   60.335200   53.600500
  H     -8.723880   60.390800   53.934800
  H    -10.349900   60.709300   54.408200
  C    -10.066500   58.937200   53.130300
  H     -9.666720   58.591200   52.159300
  H     -9.716710   58.115500   53.757500
  H    -11.173400   58.762800   53.113000
  S     -6.507880   66.621500   52.044200
  C     -5.454330   67.370800   53.229800
  C     -5.982860   67.233400   54.466100
  C     -7.144960   66.405800   54.507700
  C     -7.516570   65.885000   53.293800
  H     -5.400100   67.737100   55.260900
  C     -7.899580   66.205300   55.818200
  H     -8.891040   65.937800   55.637900
  H     -8.093220   67.206500   56.300400
  C     -7.287470   65.252500   56.887000
  H     -6.420930   65.659800   57.214800
  H     -6.937000   64.324500   56.379400
  C     -8.293810   64.913900   57.998400
  H     -8.412880   65.818000   58.589300
  H     -7.830660   64.070300   58.543800
  H     -9.262690   64.557400   57.568700
  H    -11.830300   63.384300   52.667000
  H     -4.619790   68.099600   53.011900

 Total Charge           Charge          ....    0
 Multiplicity           Mult            ....    1
 Number of Electrons    NEL             ....  134
 Basis Dimension        Dim             ....  322

ORBITAL ENERGIES
----------------

  NO   OCC          E(Eh)            E(eV)
   0   2.0000     -88.968460     -2420.9549
   1   2.0000     -88.961066     -2420.7537
   2   2.0000     -10.334671      -281.2207
   3   2.0000     -10.326602      -281.0011
   4   2.0000     -10.322937      -280.9014
   5   2.0000     -10.317552      -280.7549
   6   2.0000     -10.308761      -280.5156
   7   2.0000     -10.304914      -280.4110
   8   2.0000     -10.302804      -280.3536
   9   2.0000     -10.300369      -280.2873
  10   2.0000     -10.291182      -280.0373
  11   2.0000     -10.289608      -279.9945
  12   2.0000     -10.283891      -279.8389
  13   2.0000     -10.283531      -279.8291
  14   2.0000     -10.281086      -279.7626
  15   2.0000     -10.276578      -279.6399
  16   2.0000      -8.081879      -219.9191
  17   2.0000      -8.075701      -219.7510
  18   2.0000      -6.040521      -164.3709
  19   2.0000      -6.036540      -164.2626
  20   2.0000      -6.034248      -164.2002
  21   2.0000      -6.032586      -164.1550
  22   2.0000      -6.030264      -164.0918
  23   2.0000      -6.026369      -163.9858
  24   2.0000      -1.003683       -27.3116
  25   2.0000      -0.980329       -26.6761
  26   2.0000      -0.906586       -24.6695
  27   2.0000      -0.902224       -24.5508
  28   2.0000      -0.870486       -23.6871
  29   2.0000      -0.846088       -23.0232
  30   2.0000      -0.843287       -22.9470
  31   2.0000      -0.815246       -22.1840
  32   2.0000      -0.777184       -21.1483
  33   2.0000      -0.767423       -20.8826
  34   2.0000      -0.707465       -19.2511
  35   2.0000      -0.703052       -19.1310
  36   2.0000      -0.695690       -18.9307
  37   2.0000      -0.653136       -17.7727
  38   2.0000      -0.640781       -17.4365
  39   2.0000      -0.615904       -16.7596
  40   2.0000      -0.593492       -16.1497
  41   2.0000      -0.572836       -15.5877
  42   2.0000      -0.560065       -15.2401
  43   2.0000      -0.554816       -15.0973
  44   2.0000      -0.523526       -14.2459
  45   2.0000      -0.516905       -14.0657
  46   2.0000      -0.515910       -14.0386
  47   2.0000      -0.512235       -13.9386
  48   2.0000      -0.506650       -13.7866
  49   2.0000      -0.502770       -13.6811
  50   2.0000      -0.485825       -13.2200
  51   2.0000      -0.477071       -12.9818
  52   2.0000      -0.470094       -12.7919
  53   2.0000      -0.463313       -12.6074
  54   2.0000      -0.459450       -12.5023
  55   2.0000      -0.448990       -12.2176
  56   2.0000      -0.442065       -12.0292
  57   2.0000      -0.434984       -11.8365
  58   2.0000      -0.431595       -11.7443
  59   2.0000      -0.420142       -11.4327
  60   2.0000      -0.416335       -11.3291
  61   2.0000      -0.413936       -11.2638
  62   2.0000      -0.409155       -11.1337
  63   2.0000      -0.335209        -9.1215
  64   2.0000      -0.332952        -9.0601
  65   2.0000      -0.326475        -8.8838
  66   2.0000      -0.306392        -8.3373
  67   0.0000       0.037077         1.0089
  68   0.0000       0.056770         1.5448
  69   0.0000       0.109076         2.9681
  70   0.0000       0.115717         3.1488
  71   0.0000       0.122445         3.3319

MULLIKEN ATOMIC CHARGES
-----------------------
   0 S :    0.100635
   1 C :   -0.119285
   2 C :   -0.071810
   3 C :    0.069710
   4 C :   -0.158831
   5 H :    0.012560
   6 C :   -0.041879
   7 H :    0.036026
   8 H :    0.035550
   9 C :   -0.005812
  10 H :    0.023346
  11 H :    0.033978
  12 C :   -0.067793
  13 H :    0.030746
  14 H :    0.027347
  15 H :    0.037145
  16 S :    0.096348
  17 C :   -0.117567
  18 C :   -0.044886
  19 C :   -0.000173
  20 C :   -0.174522
  21 H :    0.032442
  22 C :    0.074653
  23 H :   -0.020994
  24 H :    0.024719
  25 C :   -0.043622
  26 H :   -0.002551
  27 H :    0.024338
  28 C :   -0.054484
  29 H :    0.038498
  30 H :    0.042520
  31 H :    0.045208
  32 H :    0.060490
  33 H :    0.077949
Sum of atomic charges:   -0.0000000

LOEWDIN ATOMIC CHARGES
----------------------
   0 S :    0.394298
   1 C :   -0.184874
   2 C :   -0.065140
   3 C :   -0.049370
   4 C :   -0.186068
   5 H :    0.031543
   6 C :   -0.037413
   7 H :    0.028982
   8 H :    0.035121
   9 C :   -0.037960
  10 H :    0.024637
  11 H :    0.026267
  12 C :   -0.076488
  13 H :    0.028667
  14 H :    0.025795
  15 H :    0.031479
  16 S :    0.390231
  17 C :   -0.191588
  18 C :   -0.082008
  19 C :   -0.054350
  20 C :   -0.203024
  21 H :    0.039970
  22 C :   -0.034451
  23 H :    0.006068
  24 H :    0.035967
  25 C :   -0.032600
  26 H :    0.004583
  27 H :    0.026104
  28 C :   -0.062881
  29 H :    0.025348
  30 H :    0.031730
  31 H :    0.031462
  32 H :    0.034627
  33 H :    0.045334

  Mayer bond orders larger than 0.100000
B(  0-S ,  1-C ) :   1.1240 B(  0-S ,  4-C ) :   1.1535 B(  1-C ,  2-C ) :   1.6328
B(  1-C , 32-H ) :   0.9672 B(  2-C ,  3-C ) :   1.2200 B(  2-C ,  6-C ) :   1.0004
B(  3-C ,  4-C ) :   1.5957 B(  3-C ,  5-H ) :   0.9969 B(  4-C , 20-C ) :   1.0065
B(  6-C ,  7-H ) :   0.9527 B(  6-C ,  8-H ) :   0.9580 B(  6-C ,  9-C ) :   1.0424
B(  9-C , 10-H ) :   0.9529 B(  9-C , 11-H ) :   0.9602 B(  9-C , 12-C ) :   1.0752
B( 12-C , 13-H ) :   0.9736 B( 12-C , 14-H ) :   0.9735 B( 12-C , 15-H ) :   0.9760
B( 16-S , 17-C ) :   1.1484 B( 16-S , 20-C ) :   1.1290 B( 17-C , 18-C ) :   1.6427
B( 17-C , 33-H ) :   0.9555 B( 18-C , 19-C ) :   1.2170 B( 18-C , 21-H ) :   0.9875
B( 19-C , 20-C ) :   1.6193 B( 19-C , 22-C ) :   1.0455 B( 22-C , 23-H ) :   0.9269
B( 22-C , 24-H ) :   0.9341 B( 22-C , 25-C ) :   1.0514 B( 25-C , 26-H ) :   0.9545
B( 25-C , 27-H ) :   0.9559 B( 25-C , 28-C ) :   1.0802 B( 28-C , 29-H ) :   0.9761
B( 28-C , 30-H ) :   0.9752 B( 28-C , 31-H ) :   0.9758

Dispersion correction           -0.013918758
FINAL SINGLE POINT ENERGY     -1339.868328477778

DIPOLE MOMENT
-------------
                                X             Y             Z
Electronic contribution:      3.94492      22.11352     -16.17179
Nuclear contribution   :     -3.85165     -22.54942      16.60553
                        -----------------------------------------
Total Dipole Moment    :      0.09327      -0.43590       0.43374
                        -----------------------------------------
Magnitude (a.u.)       :      0.62196
Magnitude (Debye)      :      1.58091

Rotational constants in cm-1:     0.018177     0.007918     0.006708
Rotational constants in MHz :   544.931342   237.371903   201.089673

                             ****ORCA TERMINATED NORMALLY****
TOTAL RUN TIME: 0 days 0 hours 0 minutes 33 seconds 289 msec
