                         Program Version 4.2.1 -  RELEASE  -
|  1> ! wB97X-D3 SP def2-SVP
|  2> %pal
|  3> nprocs 16
|  4> end
|  5>
|  6> * xyz 0 1
|  7> S 	 7.40108 	 24.6846 	 42.6299
|  8> C 	 6.03761 	 24.8718 	 43.694
|  9> C 	 4.99477 	 25.5333 	 43.0707
| 10> C 	 5.29974 	 25.6819 	 41.6399
| 11> C 	 6.50776 	 25.1385 	 41.2643
| 12> H 	 4.7096 	 26.1428 	 40.8167
| 13> C 	 3.67595 	 26.0148 	 43.6917
| 14> H 	 3.44306 	 26.958 	 43.2211
| 15> H 	 3.83929 	 26.2638 	 44.7397
| 16> C 	 2.55878 	 25.063 	 43.4238
| 17> H 	 2.45413 	 25.0419 	 42.3164
| 18> H 	 2.92824 	 24.0639 	 43.7283
| 19> C 	 1.31646 	 25.4083 	 44.0498
| 20> H 	 1.2941 	 25.0214 	 45.0643
| 21> H 	 1.06994 	 26.4865 	 44.0676
| 22> H 	 0.443423 	 24.9942 	 43.4991
| 23> S 	 8.71375 	 26.1879 	 40.0759
| 24> C 	 8.72987 	 26.4056 	 38.3331
| 25> C 	 7.67223 	 25.7997 	 37.7119
| 26> C 	 6.79455 	 25.1323 	 38.6244
| 27> C 	 7.1563 	 25.3253 	 39.9431
| 28> H 	 7.57656 	 25.9327 	 36.6174
| 29> C 	 5.51065 	 24.4191 	 38.1969
| 30> H 	 5.03467 	 24.0157 	 39.1268
| 31> H 	 5.76384 	 23.5502 	 37.6233
| 32> C 	 4.50675 	 25.2507 	 37.4187
| 33> H 	 4.91578 	 25.3289 	 36.4196
| 34> H 	 4.3359 	 26.2847 	 37.7322
| 35> C 	 3.17887 	 24.5471 	 37.2399
| 36> H 	 3.3807 	 23.7773 	 36.5606
| 37> H 	 2.5511 	 25.2036 	 36.6484
| 38> H 	 2.64683 	 24.1303 	 38.1506
| 39> H 	 5.97221 	 24.5213 	 44.6802
| 40> H 	 9.43269 	 27.0776 	 37.9188
| 41> *
| 42>
| 43>                          ****END OF INPUT****

CARTESIAN COORDINATES (ANGSTROEM)
---------------------------------
  S      7.401080   24.684600   42.629900
  C      6.037610   24.871800   43.694000
  C      4.994770   25.533300   43.070700
  C      5.299740   25.681900   41.639900
  C      6.507760   25.138500   41.264300
  H      4.709600   26.142800   40.816700
  C      3.675950   26.014800   43.691700
  H      3.443060   26.958000   43.221100
  H      3.839290   26.263800   44.739700
  C      2.558780   25.063000   43.423800
  H      2.454130   25.041900   42.316400
  H      2.928240   24.063900   43.728300
  C      1.316460   25.408300   44.049800
  H      1.294100   25.021400   45.064300
  H      1.069940   26.486500   44.067600
  H      0.443423   24.994200   43.499100
  S      8.713750   26.187900   40.075900
  C      8.729870   26.405600   38.333100
  C      7.672230   25.799700   37.711900
  C      6.794550   25.132300   38.624400
  C      7.156300   25.325300   39.943100
  H      7.576560   25.932700   36.617400
  C      5.510650   24.419100   38.196900
  H      5.034670   24.015700   39.126800
  H      5.763840   23.550200   37.623300
  C      4.506750   25.250700   37.418700
  H      4.915780   25.328900   36.419600
  H      4.335900   26.284700   37.732200
  C      3.178870   24.547100   37.239900
  H      3.380700   23.777300   36.560600
  H      2.551100   25.203600   36.648400
  H      2.646830   24.130300   38.150600
  H      5.972210   24.521300   44.680200
  H      9.432690   27.077600   37.918800

 Total Charge           Charge          ....    0
 Multiplicity           Mult            ....    1
 Number of Electrons    NEL             ....  134
 Basis Dimension        Dim             ....  322

ORBITAL ENERGIES
----------------

  NO   OCC          E(Eh)            E(eV)
   0   2.0000     -88.963865     -2420.8298
   1   2.0000     -88.960210     -2420.7304
   2   2.0000     -10.329547      -281.0813
   3   2.0000     -10.325002      -280.9576
   4   2.0000     -10.313573      -280.6466
   5   2.0000     -10.309890      -280.5464
   6   2.0000     -10.306215      -280.4464
   7   2.0000     -10.305713      -280.4327
   8   2.0000     -10.296983      -280.1951
   9   2.0000     -10.296198      -280.1738
  10   2.0000     -10.291568      -280.0478
  11   2.0000     -10.289352      -279.9875
  12   2.0000     -10.284437      -279.8538
  13   2.0000     -10.280755      -279.7536
  14   2.0000     -10.276385      -279.6346
  15   2.0000     -10.275426      -279.6085
  16   2.0000      -8.079865      -219.8643
  17   2.0000      -8.074995      -219.7318
  18   2.0000      -6.038378      -164.3126
  19   2.0000      -6.034263      -164.2007
  20   2.0000      -6.033446      -164.1784
  21   2.0000      -6.030472      -164.0975
  22   2.0000      -6.029635      -164.0747
  23   2.0000      -6.025658      -163.9665
  24   2.0000      -1.009085       -27.4586
  25   2.0000      -0.983586       -26.7647
  26   2.0000      -0.926149       -25.2018
  27   2.0000      -0.913389       -24.8546
  28   2.0000      -0.872134       -23.7320
  29   2.0000      -0.854697       -23.2575
  30   2.0000      -0.845415       -23.0049
  31   2.0000      -0.814790       -22.1716
  32   2.0000      -0.784551       -21.3487
  33   2.0000      -0.775805       -21.1107
  34   2.0000      -0.701496       -19.0887
  35   2.0000      -0.695678       -18.9304
  36   2.0000      -0.694072       -18.8867
  37   2.0000      -0.660143       -17.9634
  38   2.0000      -0.644468       -17.5369
  39   2.0000      -0.614066       -16.7096
  40   2.0000      -0.598690       -16.2912
  41   2.0000      -0.577792       -15.7225
  42   2.0000      -0.571416       -15.5490
  43   2.0000      -0.563777       -15.3411
  44   2.0000      -0.532196       -14.4818
  45   2.0000      -0.526401       -14.3241
  46   2.0000      -0.522739       -14.2245
  47   2.0000      -0.511103       -13.9078
  48   2.0000      -0.507540       -13.8109
  49   2.0000      -0.500991       -13.6327
  50   2.0000      -0.494208       -13.4481
  51   2.0000      -0.484315       -13.1789
  52   2.0000      -0.469328       -12.7711
  53   2.0000      -0.466580       -12.6963
  54   2.0000      -0.462410       -12.5828
  55   2.0000      -0.446132       -12.1399
  56   2.0000      -0.442673       -12.0457
  57   2.0000      -0.438158       -11.9229
  58   2.0000      -0.428502       -11.6601
  59   2.0000      -0.423163       -11.5149
  60   2.0000      -0.420830       -11.4514
  61   2.0000      -0.414501       -11.2791
  62   2.0000      -0.411481       -11.1970
  63   2.0000      -0.349634        -9.5140
  64   2.0000      -0.331039        -9.0080
  65   2.0000      -0.326510        -8.8848
  66   2.0000      -0.291812        -7.9406
  67   0.0000       0.036866         1.0032
  68   0.0000       0.066931         1.8213
  69   0.0000       0.105939         2.8827
  70   0.0000       0.124973         3.4007
  71   0.0000       0.128708         3.5023

MULLIKEN ATOMIC CHARGES
-----------------------
   0 S :    0.106814
   1 C :   -0.096949
   2 C :   -0.102467
   3 C :    0.008508
   4 C :   -0.136949
   5 H :    0.026437
   6 C :    0.084525
   7 H :    0.016835
   8 H :    0.019941
   9 C :   -0.076467
  10 H :    0.025460
  11 H :    0.028535
  12 C :   -0.017195
  13 H :    0.032589
  14 H :    0.025302
  15 H :    0.031958
  16 S :    0.078873
  17 C :   -0.085264
  18 C :   -0.041725
  19 C :   -0.029440
  20 C :   -0.149304
  21 H :    0.034746
  22 C :    0.069100
  23 H :    0.027571
  24 H :    0.024703
  25 C :   -0.092007
  26 H :    0.019119
  27 H :    0.034861
  28 C :   -0.026054
  29 H :    0.008148
  30 H :    0.024228
  31 H :    0.050699
  32 H :    0.027114
  33 H :    0.047756
Sum of atomic charges:   -0.0000000

LOEWDIN ATOMIC CHARGES
----------------------
   0 S :    0.426237
   1 C :   -0.194859
   2 C :   -0.051844
   3 C :   -0.071478
   4 C :   -0.217011
   5 H :    0.036378
   6 C :   -0.028369
   7 H :    0.029337
   8 H :    0.027022
   9 C :   -0.052092
  10 H :    0.027907
  11 H :    0.028056
  12 C :   -0.070106
  13 H :    0.027778
  14 H :    0.027444
  15 H :    0.032333
  16 S :    0.376592
  17 C :   -0.169311
  18 C :   -0.075285
  19 C :   -0.058483
  20 C :   -0.176014
  21 H :    0.039495
  22 C :   -0.030505
  23 H :    0.032380
  24 H :    0.030492
  25 C :   -0.044532
  26 H :    0.024108
  27 H :    0.022109
  28 C :   -0.064039
  29 H :    0.017628
  30 H :    0.027213
  31 H :    0.032584
  32 H :    0.019216
  33 H :    0.019620

  Mayer bond orders larger than 0.100000
B(  0-S ,  1-C ) :   1.1366 B(  0-S ,  4-C ) :   1.1607 B(  1-C ,  2-C ) :   1.6195
B(  1-C , 32-H ) :   0.9784 B(  2-C ,  3-C ) :   1.2190 B(  2-C ,  6-C ) :   1.0257
B(  3-C ,  4-C ) :   1.5851 B(  3-C ,  5-H ) :   0.9858 B(  4-C , 20-C ) :   1.0048
B(  6-C ,  7-H ) :   0.9279 B(  6-C ,  8-H ) :   0.9431 B(  6-C ,  9-C ) :   1.0701
B(  9-C , 10-H ) :   0.9498 B(  9-C , 11-H ) :   0.9533 B(  9-C , 12-C ) :   1.0988
B( 12-C , 13-H ) :   0.9697 B( 12-C , 14-H ) :   0.9667 B( 12-C , 15-H ) :   0.9685
B( 16-S , 17-C ) :   1.1472 B( 16-S , 20-C ) :   1.1289 B( 17-C , 18-C ) :   1.6370
B( 17-C , 33-H ) :   0.9731 B( 18-C , 19-C ) :   1.1948 B( 18-C , 21-H ) :   0.9900
B( 19-C , 20-C ) :   1.6558 B( 19-C , 22-C ) :   1.0407 B( 22-C , 23-H ) :   0.9422
B( 22-C , 24-H ) :   0.9269 B( 22-C , 25-C ) :   1.0592 B( 25-C , 26-H ) :   0.9452
B( 25-C , 27-H ) :   0.9638 B( 25-C , 28-C ) :   1.0918 B( 28-C , 29-H ) :   0.9707
B( 28-C , 30-H ) :   0.9698 B( 28-C , 31-H ) :   0.9752

Dispersion correction           -0.013701294
FINAL SINGLE POINT ENERGY     -1339.875463133416

DIPOLE MOMENT
-------------
                                X             Y             Z
Electronic contribution:     31.66841       1.61733       4.55191
Nuclear contribution   :    -32.38133      -1.43774      -4.83577
                        -----------------------------------------
Total Dipole Moment    :     -0.71292       0.17960      -0.28386
                        -----------------------------------------
Magnitude (a.u.)       :      0.78809
Magnitude (Debye)      :      2.00317

Rotational constants in cm-1:     0.016878     0.009129     0.006334
Rotational constants in MHz :   505.980636   273.679257   189.900654

                             ****ORCA TERMINATED NORMALLY****
TOTAL RUN TIME: 0 days 0 hours 0 minutes 36 seconds 603 msec
