                         Program Version 4.2.1 -  RELEASE  -
|  1> ! wB97X-D3 SP def2-SVP
|  2> %pal
|  3> nprocs 16
|  4> end
|  5>
|  6> * xyz 0 1
|  7> S 	 -39.4729 	 36.8348 	 82.6228
|  8> C 	 -40.1584 	 36.0688 	 81.2255
|  9> C 	 -40.4605 	 34.7663 	 81.5596
| 10> C 	 -40.0535 	 34.411 	 82.858
| 11> C 	 -39.5714 	 35.4539 	 83.6157
| 12> H 	 -40.1355 	 33.4919 	 83.4463
| 13> C 	 -41.0753 	 33.68 	 80.6831
| 14> H 	 -41.816 	 34.1434 	 80.1389
| 15> H 	 -41.5534 	 33.0018 	 81.4065
| 16> C 	 -40.0232 	 33.0354 	 79.7507
| 17> H 	 -40.6932 	 32.4464 	 79.155
| 18> H 	 -39.6619 	 33.8755 	 79.1298
| 19> C 	 -38.9736 	 32.1581 	 80.4183
| 20> H 	 -38.4177 	 32.5942 	 81.2645
| 21> H 	 -39.3462 	 31.2323 	 80.8348
| 22> H 	 -38.1346 	 31.9391 	 79.73
| 23> S 	 -39.7566 	 36.855 	 85.9353
| 24> C 	 -38.958 	 36.2817 	 87.348
| 25> C 	 -38.3715 	 35.0497 	 87.1324
| 26> C 	 -38.7124 	 34.4594 	 85.8353
| 27> C 	 -39.2951 	 35.4033 	 85.0122
| 28> H 	 -37.9824 	 34.5929 	 88.0436
| 29> C 	 -38.3515 	 33.0179 	 85.4278
| 30> H 	 -37.7657 	 33.0549 	 84.5006
| 31> H 	 -39.2191 	 32.4718 	 85.1459
| 32> C 	 -37.7043 	 32.1449 	 86.5821
| 33> H 	 -38.3128 	 32.1726 	 87.476
| 34> H 	 -36.7376 	 32.5852 	 86.9084
| 35> C 	 -37.5159 	 30.7023 	 86.0788
| 36> H 	 -36.6902 	 30.648 	 85.334
| 37> H 	 -38.396 	 30.2431 	 85.608
| 38> H 	 -37.222 	 30.0992 	 86.9295
| 39> H 	 -40.1666 	 36.5368 	 80.3345
| 40> H 	 -39.1554 	 36.7508 	 88.3618
| 41> *
| 42>
| 43>                          ****END OF INPUT****

CARTESIAN COORDINATES (ANGSTROEM)
---------------------------------
  S    -39.472900   36.834800   82.622800
  C    -40.158400   36.068800   81.225500
  C    -40.460500   34.766300   81.559600
  C    -40.053500   34.411000   82.858000
  C    -39.571400   35.453900   83.615700
  H    -40.135500   33.491900   83.446300
  C    -41.075300   33.680000   80.683100
  H    -41.816000   34.143400   80.138900
  H    -41.553400   33.001800   81.406500
  C    -40.023200   33.035400   79.750700
  H    -40.693200   32.446400   79.155000
  H    -39.661900   33.875500   79.129800
  C    -38.973600   32.158100   80.418300
  H    -38.417700   32.594200   81.264500
  H    -39.346200   31.232300   80.834800
  H    -38.134600   31.939100   79.730000
  S    -39.756600   36.855000   85.935300
  C    -38.958000   36.281700   87.348000
  C    -38.371500   35.049700   87.132400
  C    -38.712400   34.459400   85.835300
  C    -39.295100   35.403300   85.012200
  H    -37.982400   34.592900   88.043600
  C    -38.351500   33.017900   85.427800
  H    -37.765700   33.054900   84.500600
  H    -39.219100   32.471800   85.145900
  C    -37.704300   32.144900   86.582100
  H    -38.312800   32.172600   87.476000
  H    -36.737600   32.585200   86.908400
  C    -37.515900   30.702300   86.078800
  H    -36.690200   30.648000   85.334000
  H    -38.396000   30.243100   85.608000
  H    -37.222000   30.099200   86.929500
  H    -40.166600   36.536800   80.334500
  H    -39.155400   36.750800   88.361800

 Total Charge           Charge          ....    0
 Multiplicity           Mult            ....    1
 Number of Electrons    NEL             ....  134
 Basis Dimension        Dim             ....  322

ORBITAL ENERGIES
----------------

  NO   OCC          E(Eh)            E(eV)
   0   2.0000     -88.961939     -2420.7774
   1   2.0000     -88.961382     -2420.7623
   2   2.0000     -10.326382      -280.9951
   3   2.0000     -10.320289      -280.8293
   4   2.0000     -10.319080      -280.7964
   5   2.0000     -10.311911      -280.6014
   6   2.0000     -10.304270      -280.3934
   7   2.0000     -10.298583      -280.2387
   8   2.0000     -10.297835      -280.2183
   9   2.0000     -10.296569      -280.1839
  10   2.0000     -10.295622      -280.1581
  11   2.0000     -10.289450      -279.9902
  12   2.0000     -10.284880      -279.8658
  13   2.0000     -10.284459      -279.8543
  14   2.0000     -10.284082      -279.8441
  15   2.0000     -10.279875      -279.7296
  16   2.0000      -8.077748      -219.8067
  17   2.0000      -8.076523      -219.7734
  18   2.0000      -6.036111      -164.2509
  19   2.0000      -6.035039      -164.2218
  20   2.0000      -6.031938      -164.1374
  21   2.0000      -6.030932      -164.1100
  22   2.0000      -6.028740      -164.0504
  23   2.0000      -6.027288      -164.0108
  24   2.0000      -1.013543       -27.5799
  25   2.0000      -0.986021       -26.8310
  26   2.0000      -0.913456       -24.8564
  27   2.0000      -0.905397       -24.6371
  28   2.0000      -0.874839       -23.8056
  29   2.0000      -0.851426       -23.1685
  30   2.0000      -0.841970       -22.9112
  31   2.0000      -0.814852       -22.1732
  32   2.0000      -0.786505       -21.4019
  33   2.0000      -0.775630       -21.1060
  34   2.0000      -0.710858       -19.3434
  35   2.0000      -0.708727       -19.2854
  36   2.0000      -0.699442       -19.0328
  37   2.0000      -0.658055       -17.9066
  38   2.0000      -0.641143       -17.4464
  39   2.0000      -0.614706       -16.7270
  40   2.0000      -0.594934       -16.1890
  41   2.0000      -0.573925       -15.6173
  42   2.0000      -0.565763       -15.3952
  43   2.0000      -0.555073       -15.1043
  44   2.0000      -0.533996       -14.5308
  45   2.0000      -0.527705       -14.3596
  46   2.0000      -0.519335       -14.1318
  47   2.0000      -0.513056       -13.9610
  48   2.0000      -0.509298       -13.8587
  49   2.0000      -0.502104       -13.6629
  50   2.0000      -0.487196       -13.2573
  51   2.0000      -0.482340       -13.1252
  52   2.0000      -0.477211       -12.9856
  53   2.0000      -0.465695       -12.6722
  54   2.0000      -0.458875       -12.4866
  55   2.0000      -0.454826       -12.3765
  56   2.0000      -0.443030       -12.0554
  57   2.0000      -0.437227       -11.8975
  58   2.0000      -0.433771       -11.8035
  59   2.0000      -0.428848       -11.6696
  60   2.0000      -0.425981       -11.5915
  61   2.0000      -0.409188       -11.1346
  62   2.0000      -0.405243       -11.0272
  63   2.0000      -0.356928        -9.7125
  64   2.0000      -0.330362        -8.9896
  65   2.0000      -0.327545        -8.9129
  66   2.0000      -0.283769        -7.7218
  67   0.0000       0.027839         0.7575
  68   0.0000       0.075434         2.0527
  69   0.0000       0.114306         3.1104
  70   0.0000       0.128451         3.4953
  71   0.0000       0.133519         3.6332

MULLIKEN ATOMIC CHARGES
-----------------------
   0 S :    0.110485
   1 C :   -0.094759
   2 C :   -0.071971
   3 C :   -0.012461
   4 C :   -0.137163
   5 H :   -0.003586
   6 C :    0.090349
   7 H :    0.002561
   8 H :    0.024281
   9 C :   -0.032076
  10 H :    0.025532
  11 H :    0.032356
  12 C :   -0.054029
  13 H :    0.033584
  14 H :    0.027771
  15 H :    0.037235
  16 S :    0.098076
  17 C :   -0.118147
  18 C :   -0.051287
  19 C :   -0.031887
  20 C :   -0.145603
  21 H :    0.027698
  22 C :    0.025393
  23 H :    0.044533
  24 H :    0.034873
  25 C :   -0.089950
  26 H :    0.033828
  27 H :    0.039093
  28 C :   -0.043270
  29 H :    0.037003
  30 H :    0.035676
  31 H :    0.034151
  32 H :    0.004736
  33 H :    0.086974
Sum of atomic charges:    0.0000000

LOEWDIN ATOMIC CHARGES
----------------------
   0 S :    0.433317
   1 C :   -0.190017
   2 C :   -0.057610
   3 C :   -0.079656
   4 C :   -0.211625
   5 H :    0.030696
   6 C :   -0.022295
   7 H :    0.017958
   8 H :    0.031204
   9 C :   -0.033375
  10 H :    0.023546
  11 H :    0.029293
  12 C :   -0.073545
  13 H :    0.027775
  14 H :    0.024861
  15 H :    0.032986
  16 S :    0.398585
  17 C :   -0.203655
  18 C :   -0.082448
  19 C :   -0.051197
  20 C :   -0.182838
  21 H :    0.033269
  22 C :   -0.032484
  23 H :    0.036234
  24 H :    0.024348
  25 C :   -0.037942
  26 H :    0.021959
  27 H :    0.027736
  28 C :   -0.066892
  29 H :    0.029758
  30 H :    0.025570
  31 H :    0.026707
  32 H :    0.004586
  33 H :    0.045191

  Mayer bond orders larger than 0.100000
B(  0-S ,  1-C ) :   1.1430 B(  0-S ,  4-C ) :   1.1723 B(  1-C ,  2-C ) :   1.5551
B(  1-C ,  4-C ) :   0.1009 B(  1-C , 32-H ) :   0.9991 B(  2-C ,  3-C ) :   1.2636
B(  2-C ,  6-C ) :   1.0090 B(  3-C ,  4-C ) :   1.5339 B(  3-C ,  5-H ) :   0.9930
B(  4-C , 20-C ) :   1.0850 B(  6-C ,  7-H ) :   0.9331 B(  6-C ,  8-H ) :   0.9433
B(  6-C ,  9-C ) :   1.0727 B(  9-C , 10-H ) :   0.9566 B(  9-C , 11-H ) :   0.9564
B(  9-C , 12-C ) :   1.0739 B( 12-C , 13-H ) :   0.9725 B( 12-C , 14-H ) :   0.9738
B( 12-C , 15-H ) :   0.9716 B( 16-S , 17-C ) :   1.1582 B( 16-S , 20-C ) :   1.1295
B( 17-C , 18-C ) :   1.6190 B( 17-C , 33-H ) :   0.9547 B( 18-C , 19-C ) :   1.2309
B( 18-C , 21-H ) :   0.9803 B( 19-C , 20-C ) :   1.6007 B( 19-C , 22-C ) :   1.0298
B( 22-C , 23-H ) :   0.9342 B( 22-C , 24-H ) :   0.9316 B( 22-C , 25-C ) :   1.0703
B( 25-C , 26-H ) :   0.9562 B( 25-C , 27-H ) :   0.9499 B( 25-C , 28-C ) :   1.0818
B( 28-C , 29-H ) :   0.9755 B( 28-C , 30-H ) :   0.9745 B( 28-C , 31-H ) :   0.9724

Dispersion correction           -0.014210432
FINAL SINGLE POINT ENERGY     -1339.869838944599

DIPOLE MOMENT
-------------
                                X             Y             Z
Electronic contribution:     -5.81929      29.67954       6.41565
Nuclear contribution   :      5.80432     -30.44780      -6.40557
                        -----------------------------------------
Total Dipole Moment    :     -0.01497      -0.76826       0.01008
                        -----------------------------------------
Magnitude (a.u.)       :      0.76847
Magnitude (Debye)      :      1.95330

Rotational constants in cm-1:     0.016349     0.010037     0.006520
Rotational constants in MHz :   490.135976   300.887097   195.452233

                             ****ORCA TERMINATED NORMALLY****
TOTAL RUN TIME: 0 days 0 hours 0 minutes 28 seconds 786 msec
