                         Program Version 4.2.1 -  RELEASE  -
|  1> ! wB97X-D3 SP def2-SVP
|  2> %pal
|  3> nprocs 16
|  4> end
|  5>
|  6> * xyz 0 1
|  7> S 	 1.68617 	 -17.5422 	 84.9253
|  8> C 	 0.0310155 	 -17.7867 	 84.5727
|  9> C 	 -0.695276 	 -16.5932 	 84.7558
| 10> C 	 0.142598 	 -15.4474 	 85.0441
| 11> C 	 1.51751 	 -15.7764 	 85.1433
| 12> H 	 -0.221797 	 -14.4959 	 85.2359
| 13> C 	 -2.14891 	 -16.3123 	 84.7199
| 14> H 	 -2.41327 	 -15.7278 	 85.663
| 15> H 	 -2.77321 	 -17.22 	 84.7357
| 16> C 	 -2.47935 	 -15.3903 	 83.4887
| 17> H 	 -3.58558 	 -15.2816 	 83.536
| 18> H 	 -2.04756 	 -14.3855 	 83.6069
| 19> C 	 -1.96215 	 -15.9576 	 82.1348
| 20> H 	 -0.925802 	 -15.7953 	 81.8706
| 21> H 	 -2.22082 	 -17.0173 	 82.0331
| 22> H 	 -2.57849 	 -15.4632 	 81.3197
| 23> S 	 3.68483 	 -14.8782 	 83.9101
| 24> C 	 4.57716 	 -13.5764 	 84.6245
| 25> C 	 4.00465 	 -13.101 	 85.7473
| 26> C 	 2.86612 	 -13.8382 	 86.1424
| 27> C 	 2.65879 	 -14.9097 	 85.2781
| 28> H 	 4.48453 	 -12.3151 	 86.3
| 29> C 	 2.11337 	 -13.3572 	 87.3328
| 30> H 	 1.27285 	 -13.9344 	 87.7042
| 31> H 	 1.77945 	 -12.2966 	 87.0403
| 32> C 	 3.05208 	 -13.1948 	 88.5811
| 33> H 	 3.82266 	 -12.4483 	 88.3467
| 34> H 	 3.57502 	 -14.1095 	 88.7954
| 35> C 	 2.19123 	 -12.8139 	 89.791
| 36> H 	 1.62396 	 -13.6367 	 90.2468
| 37> H 	 1.52351 	 -12.0724 	 89.5843
| 38> H 	 2.86747 	 -12.3437 	 90.5385
| 39> H 	 -0.451632 	 -18.7089 	 84.4842
| 40> H 	 5.48282 	 -13.0747 	 84.2036
| 41> *
| 42>
| 43>                          ****END OF INPUT****

CARTESIAN COORDINATES (ANGSTROEM)
---------------------------------
  S      1.686170  -17.542200   84.925300
  C      0.031016  -17.786700   84.572700
  C     -0.695276  -16.593200   84.755800
  C      0.142598  -15.447400   85.044100
  C      1.517510  -15.776400   85.143300
  H     -0.221797  -14.495900   85.235900
  C     -2.148910  -16.312300   84.719900
  H     -2.413270  -15.727800   85.663000
  H     -2.773210  -17.220000   84.735700
  C     -2.479350  -15.390300   83.488700
  H     -3.585580  -15.281600   83.536000
  H     -2.047560  -14.385500   83.606900
  C     -1.962150  -15.957600   82.134800
  H     -0.925802  -15.795300   81.870600
  H     -2.220820  -17.017300   82.033100
  H     -2.578490  -15.463200   81.319700
  S      3.684830  -14.878200   83.910100
  C      4.577160  -13.576400   84.624500
  C      4.004650  -13.101000   85.747300
  C      2.866120  -13.838200   86.142400
  C      2.658790  -14.909700   85.278100
  H      4.484530  -12.315100   86.300000
  C      2.113370  -13.357200   87.332800
  H      1.272850  -13.934400   87.704200
  H      1.779450  -12.296600   87.040300
  C      3.052080  -13.194800   88.581100
  H      3.822660  -12.448300   88.346700
  H      3.575020  -14.109500   88.795400
  C      2.191230  -12.813900   89.791000
  H      1.623960  -13.636700   90.246800
  H      1.523510  -12.072400   89.584300
  H      2.867470  -12.343700   90.538500
  H     -0.451632  -18.708900   84.484200
  H      5.482820  -13.074700   84.203600

 Total Charge           Charge          ....    0
 Multiplicity           Mult            ....    1
 Number of Electrons    NEL             ....  134
 Basis Dimension        Dim             ....  322

ORBITAL ENERGIES
----------------

  NO   OCC          E(Eh)            E(eV)
   0   2.0000     -88.964675     -2420.8519
   1   2.0000     -88.962614     -2420.7958
   2   2.0000     -10.330198      -281.0990
   3   2.0000     -10.319787      -280.8157
   4   2.0000     -10.313201      -280.6365
   5   2.0000     -10.308396      -280.5057
   6   2.0000     -10.300643      -280.2947
   7   2.0000     -10.298492      -280.2362
   8   2.0000     -10.297749      -280.2160
   9   2.0000     -10.295965      -280.1674
  10   2.0000     -10.293492      -280.1002
  11   2.0000     -10.290276      -280.0126
  12   2.0000     -10.287511      -279.9374
  13   2.0000     -10.285149      -279.8731
  14   2.0000     -10.278601      -279.6950
  15   2.0000     -10.273825      -279.5650
  16   2.0000      -8.080576      -219.8837
  17   2.0000      -8.077307      -219.7947
  18   2.0000      -6.038998      -164.3295
  19   2.0000      -6.035804      -164.2426
  20   2.0000      -6.034976      -164.2200
  21   2.0000      -6.031726      -164.1316
  22   2.0000      -6.031269      -164.1192
  23   2.0000      -6.028183      -164.0352
  24   2.0000      -1.012024       -27.5386
  25   2.0000      -0.982394       -26.7323
  26   2.0000      -0.913111       -24.8470
  27   2.0000      -0.906150       -24.6576
  28   2.0000      -0.871334       -23.7102
  29   2.0000      -0.854537       -23.2531
  30   2.0000      -0.838820       -22.8254
  31   2.0000      -0.811155       -22.0726
  32   2.0000      -0.778140       -21.1743
  33   2.0000      -0.768069       -20.9002
  34   2.0000      -0.710392       -19.3308
  35   2.0000      -0.698628       -19.0106
  36   2.0000      -0.692400       -18.8412
  37   2.0000      -0.660460       -17.9720
  38   2.0000      -0.639953       -17.4140
  39   2.0000      -0.623425       -16.9642
  40   2.0000      -0.601544       -16.3689
  41   2.0000      -0.566511       -15.4156
  42   2.0000      -0.563306       -15.3283
  43   2.0000      -0.542044       -14.7498
  44   2.0000      -0.534734       -14.5508
  45   2.0000      -0.523301       -14.2398
  46   2.0000      -0.517628       -14.0854
  47   2.0000      -0.509908       -13.8753
  48   2.0000      -0.503741       -13.7075
  49   2.0000      -0.497304       -13.5323
  50   2.0000      -0.489552       -13.3214
  51   2.0000      -0.479877       -13.0581
  52   2.0000      -0.472609       -12.8603
  53   2.0000      -0.460324       -12.5260
  54   2.0000      -0.458985       -12.4896
  55   2.0000      -0.451634       -12.2896
  56   2.0000      -0.444946       -12.1076
  57   2.0000      -0.435678       -11.8554
  58   2.0000      -0.433544       -11.7973
  59   2.0000      -0.428645       -11.6640
  60   2.0000      -0.419327       -11.4105
  61   2.0000      -0.416618       -11.3368
  62   2.0000      -0.411329       -11.1928
  63   2.0000      -0.348411        -9.4808
  64   2.0000      -0.326251        -8.8777
  65   2.0000      -0.319039        -8.6815
  66   2.0000      -0.290988        -7.9182
  67   0.0000       0.035048         0.9537
  68   0.0000       0.071853         1.9552
  69   0.0000       0.110432         3.0050
  70   0.0000       0.115479         3.1423
  71   0.0000       0.135144         3.6775

MULLIKEN ATOMIC CHARGES
-----------------------
   0 S :    0.107593
   1 C :   -0.082551
   2 C :   -0.101872
   3 C :    0.060019
   4 C :   -0.180581
   5 H :   -0.014413
   6 C :    0.031009
   7 H :    0.045049
   8 H :    0.024406
   9 C :   -0.101457
  10 H :    0.037871
  11 H :    0.038872
  12 C :   -0.055065
  13 H :    0.052908
  14 H :    0.025834
  15 H :    0.033499
  16 S :    0.125615
  17 C :   -0.092230
  18 C :   -0.052275
  19 C :    0.007578
  20 C :   -0.149074
  21 H :    0.013805
  22 C :    0.035824
  23 H :    0.028735
  24 H :    0.046608
  25 C :   -0.108377
  26 H :    0.031333
  27 H :    0.037446
  28 C :   -0.012691
  29 H :    0.043818
  30 H :    0.001905
  31 H :    0.030212
  32 H :    0.028274
  33 H :    0.062372
Sum of atomic charges:    0.0000000

LOEWDIN ATOMIC CHARGES
----------------------
   0 S :    0.407358
   1 C :   -0.211294
   2 C :   -0.062295
   3 C :   -0.048019
   4 C :   -0.187919
   5 H :    0.016812
   6 C :   -0.041984
   7 H :    0.040599
   8 H :    0.026655
   9 C :   -0.041596
  10 H :    0.026621
  11 H :    0.024074
  12 C :   -0.071790
  13 H :    0.028638
  14 H :    0.023283
  15 H :    0.033079
  16 S :    0.435284
  17 C :   -0.192358
  18 C :   -0.073737
  19 C :   -0.053673
  20 C :   -0.222780
  21 H :    0.029661
  22 C :   -0.033685
  23 H :    0.027666
  24 H :    0.043689
  25 C :   -0.034380
  26 H :    0.020659
  27 H :    0.024528
  28 C :   -0.063016
  29 H :    0.030685
  30 H :    0.009333
  31 H :    0.032827
  32 H :    0.018579
  33 H :    0.038497

  Mayer bond orders larger than 0.100000
B(  0-S ,  1-C ) :   1.1440 B(  0-S ,  4-C ) :   1.1581 B(  1-C ,  2-C ) :   1.5816
B(  1-C , 32-H ) :   0.9729 B(  2-C ,  3-C ) :   1.2402 B(  2-C ,  6-C ) :   1.0416
B(  3-C ,  4-C ) :   1.5498 B(  3-C ,  5-H ) :   1.0054 B(  4-C , 20-C ) :   1.0284
B(  6-C ,  7-H ) :   0.9421 B(  6-C ,  8-H ) :   0.9434 B(  6-C ,  9-C ) :   1.0601
B(  9-C , 10-H ) :   0.9599 B(  9-C , 11-H ) :   0.9557 B(  9-C , 12-C ) :   1.0662
B( 12-C , 13-H ) :   0.9737 B( 12-C , 14-H ) :   0.9780 B( 12-C , 15-H ) :   0.9730
B( 16-S , 17-C ) :   1.1531 B( 16-S , 20-C ) :   1.1554 B( 17-C , 18-C ) :   1.6341
B( 17-C , 33-H ) :   0.9582 B( 18-C , 19-C ) :   1.2239 B( 18-C , 21-H ) :   0.9925
B( 19-C , 20-C ) :   1.5864 B( 19-C , 22-C ) :   1.0509 B( 22-C , 23-H ) :   0.9473
B( 22-C , 24-H ) :   0.9267 B( 22-C , 25-C ) :   1.0533 B( 25-C , 26-H ) :   0.9546
B( 25-C , 27-H ) :   0.9591 B( 25-C , 28-C ) :   1.0906 B( 28-C , 29-H ) :   0.9736
B( 28-C , 30-H ) :   0.9688 B( 28-C , 31-H ) :   0.9708

Dispersion correction           -0.014120176
FINAL SINGLE POINT ENERGY     -1339.873592345396

DIPOLE MOMENT
-------------
                                X             Y             Z
Electronic contribution:     16.15500     -11.56505      -9.54769
Nuclear contribution   :    -16.51675      12.13490       9.87448
                        -----------------------------------------
Total Dipole Moment    :     -0.36175       0.56986       0.32679
                        -----------------------------------------
Magnitude (a.u.)       :      0.74993
Magnitude (Debye)      :      1.90617

Rotational constants in cm-1:     0.018727     0.008312     0.007103
Rotational constants in MHz :   561.423375   249.189609   212.939295

                             ****ORCA TERMINATED NORMALLY****
TOTAL RUN TIME: 0 days 0 hours 0 minutes 34 seconds 225 msec
