                         Program Version 4.2.1 -  RELEASE  -
|  1> ! wB97X-D3 SP def2-SVP
|  2> %pal
|  3> nprocs 16
|  4> end
|  5>
|  6> * xyz 0 1
|  7> S 	 -44.5103 	 53.7294 	 102.67
|  8> C 	 -45.2668 	 53.1694 	 104.122
|  9> C 	 -46.3146 	 52.2981 	 103.846
| 10> C 	 -46.6106 	 52.1372 	 102.462
| 11> C 	 -45.7518 	 52.9295 	 101.678
| 12> H 	 -47.407 	 51.5799 	 101.961
| 13> C 	 -47.1309 	 51.551 	 104.895
| 14> H 	 -48.2097 	 51.6078 	 104.698
| 15> H 	 -46.8253 	 51.9492 	 105.931
| 16> C 	 -46.7869 	 50.0721 	 105.058
| 17> H 	 -47.5025 	 49.633 	 105.76
| 18> H 	 -47.1051 	 49.4723 	 104.125
| 19> C 	 -45.2971 	 49.5945 	 105.181
| 20> H 	 -44.7076 	 49.8637 	 106.076
| 21> H 	 -45.1993 	 48.5052 	 105.05
| 22> H 	 -44.6958 	 49.9246 	 104.372
| 23> S 	 -45.4585 	 51.3839 	 99.3833
| 24> C 	 -45.2558 	 52.1473 	 97.8506
| 25> C 	 -45.8469 	 53.3823 	 97.891
| 26> C 	 -46.0336 	 53.8883 	 99.2516
| 27> C 	 -45.7468 	 52.8981 	 100.214
| 28> H 	 -46.0728 	 53.9945 	 97.0544
| 29> C 	 -46.6673 	 55.2328 	 99.5044
| 30> H 	 -46.997 	 55.1446 	 100.57
| 31> H 	 -47.4221 	 55.4508 	 98.7039
| 32> C 	 -45.5982 	 56.3017 	 99.2155
| 33> H 	 -45.3757 	 56.2206 	 98.2093
| 34> H 	 -44.7502 	 56.2226 	 99.9162
| 35> C 	 -46.2595 	 57.7723 	 99.1962
| 36> H 	 -46.9716 	 57.6623 	 100.046
| 37> H 	 -46.7805 	 57.9816 	 98.2813
| 38> H 	 -45.5577 	 58.5713 	 99.3732
| 39> H 	 -44.8589 	 53.3668 	 105.091
| 40> H 	 -45.0474 	 51.5727 	 96.9512
| 41> *
| 42>
| 43>                          ****END OF INPUT****

CARTESIAN COORDINATES (ANGSTROEM)
---------------------------------
  S    -44.510300   53.729400  102.670000
  C    -45.266800   53.169400  104.122000
  C    -46.314600   52.298100  103.846000
  C    -46.610600   52.137200  102.462000
  C    -45.751800   52.929500  101.678000
  H    -47.407000   51.579900  101.961000
  C    -47.130900   51.551000  104.895000
  H    -48.209700   51.607800  104.698000
  H    -46.825300   51.949200  105.931000
  C    -46.786900   50.072100  105.058000
  H    -47.502500   49.633000  105.760000
  H    -47.105100   49.472300  104.125000
  C    -45.297100   49.594500  105.181000
  H    -44.707600   49.863700  106.076000
  H    -45.199300   48.505200  105.050000
  H    -44.695800   49.924600  104.372000
  S    -45.458500   51.383900   99.383300
  C    -45.255800   52.147300   97.850600
  C    -45.846900   53.382300   97.891000
  C    -46.033600   53.888300   99.251600
  C    -45.746800   52.898100  100.214000
  H    -46.072800   53.994500   97.054400
  C    -46.667300   55.232800   99.504400
  H    -46.997000   55.144600  100.570000
  H    -47.422100   55.450800   98.703900
  C    -45.598200   56.301700   99.215500
  H    -45.375700   56.220600   98.209300
  H    -44.750200   56.222600   99.916200
  C    -46.259500   57.772300   99.196200
  H    -46.971600   57.662300  100.046000
  H    -46.780500   57.981600   98.281300
  H    -45.557700   58.571300   99.373200
  H    -44.858900   53.366800  105.091000
  H    -45.047400   51.572700   96.951200

 Total Charge           Charge          ....    0
 Multiplicity           Mult            ....    1
 Number of Electrons    NEL             ....  134
 Basis Dimension        Dim             ....  322

ORBITAL ENERGIES
----------------

  NO   OCC          E(Eh)            E(eV)
   0   2.0000     -88.971396     -2421.0348
   1   2.0000     -88.961106     -2420.7547
   2   2.0000     -10.334316      -281.2110
   3   2.0000     -10.326095      -280.9873
   4   2.0000     -10.317218      -280.7458
   5   2.0000     -10.315324      -280.6942
   6   2.0000     -10.304562      -280.4014
   7   2.0000     -10.304238      -280.3926
   8   2.0000     -10.300593      -280.2934
   9   2.0000     -10.299390      -280.2607
  10   2.0000     -10.296427      -280.1800
  11   2.0000     -10.295091      -280.1437
  12   2.0000     -10.293650      -280.1044
  13   2.0000     -10.282766      -279.8083
  14   2.0000     -10.277419      -279.6628
  15   2.0000     -10.276813      -279.6463
  16   2.0000      -8.085629      -220.0212
  17   2.0000      -8.076573      -219.7747
  18   2.0000      -6.044078      -164.4677
  19   2.0000      -6.040190      -164.3619
  20   2.0000      -6.036497      -164.2614
  21   2.0000      -6.035157      -164.2250
  22   2.0000      -6.031151      -164.1160
  23   2.0000      -6.027034      -164.0039
  24   2.0000      -1.004672       -27.3385
  25   2.0000      -0.984964       -26.8022
  26   2.0000      -0.909169       -24.7398
  27   2.0000      -0.904904       -24.6237
  28   2.0000      -0.869261       -23.6538
  29   2.0000      -0.845662       -23.0116
  30   2.0000      -0.840559       -22.8728
  31   2.0000      -0.811266       -22.0757
  32   2.0000      -0.783229       -21.3128
  33   2.0000      -0.768160       -20.9027
  34   2.0000      -0.703340       -19.1389
  35   2.0000      -0.694679       -18.9032
  36   2.0000      -0.691400       -18.8139
  37   2.0000      -0.663095       -18.0437
  38   2.0000      -0.643079       -17.4991
  39   2.0000      -0.610170       -16.6036
  40   2.0000      -0.593623       -16.1533
  41   2.0000      -0.575503       -15.6602
  42   2.0000      -0.565101       -15.3772
  43   2.0000      -0.550293       -14.9742
  44   2.0000      -0.532693       -14.4953
  45   2.0000      -0.523987       -14.2584
  46   2.0000      -0.516754       -14.0616
  47   2.0000      -0.513278       -13.9670
  48   2.0000      -0.501714       -13.6523
  49   2.0000      -0.498189       -13.5564
  50   2.0000      -0.487971       -13.2784
  51   2.0000      -0.477249       -12.9866
  52   2.0000      -0.470191       -12.7946
  53   2.0000      -0.463102       -12.6016
  54   2.0000      -0.455765       -12.4020
  55   2.0000      -0.451175       -12.2771
  56   2.0000      -0.448946       -12.2164
  57   2.0000      -0.440558       -11.9882
  58   2.0000      -0.429169       -11.6783
  59   2.0000      -0.427207       -11.6249
  60   2.0000      -0.422702       -11.5023
  61   2.0000      -0.401889       -10.9360
  62   2.0000      -0.398741       -10.8503
  63   2.0000      -0.341596        -9.2953
  64   2.0000      -0.332872        -9.0579
  65   2.0000      -0.318996        -8.6803
  66   2.0000      -0.297467        -8.0945
  67   0.0000       0.032961         0.8969
  68   0.0000       0.054357         1.4791
  69   0.0000       0.096432         2.6241
  70   0.0000       0.115481         3.1424
  71   0.0000       0.127381         3.4662

MULLIKEN ATOMIC CHARGES
-----------------------
   0 S :    0.122761
   1 C :   -0.112439
   2 C :   -0.068402
   3 C :    0.009090
   4 C :   -0.166255
   5 H :    0.030873
   6 C :    0.070845
   7 H :    0.041671
   8 H :    0.030736
   9 C :   -0.113290
  10 H :    0.033508
  11 H :    0.022964
  12 C :   -0.048460
  13 H :    0.031429
  14 H :    0.031317
  15 H :    0.031222
  16 S :    0.105344
  17 C :   -0.085678
  18 C :   -0.006295
  19 C :   -0.054032
  20 C :   -0.180842
  21 H :    0.007439
  22 C :    0.047693
  23 H :    0.052124
  24 H :    0.035756
  25 C :   -0.080442
  26 H :    0.013248
  27 H :    0.043732
  28 C :   -0.058441
  29 H :    0.034187
  30 H :    0.031881
  31 H :    0.037846
  32 H :    0.043331
  33 H :    0.065580
Sum of atomic charges:    0.0000000

LOEWDIN ATOMIC CHARGES
----------------------
   0 S :    0.410892
   1 C :   -0.200373
   2 C :   -0.064606
   3 C :   -0.060447
   4 C :   -0.190340
   5 H :    0.038119
   6 C :   -0.035638
   7 H :    0.036429
   8 H :    0.037174
   9 C :   -0.052980
  10 H :    0.024601
  11 H :    0.027570
  12 C :   -0.074635
  13 H :    0.022492
  14 H :    0.031993
  15 H :    0.024462
  16 S :    0.410944
  17 C :   -0.187504
  18 C :   -0.066318
  19 C :   -0.049140
  20 C :   -0.213646
  21 H :    0.021974
  22 C :   -0.037035
  23 H :    0.038685
  24 H :    0.040628
  25 C :   -0.029971
  26 H :    0.010801
  27 H :    0.026166
  28 C :   -0.067489
  29 H :    0.028081
  30 H :    0.019400
  31 H :    0.023154
  32 H :    0.024932
  33 H :    0.031626

  Mayer bond orders larger than 0.100000
B(  0-S ,  1-C ) :   1.1421 B(  0-S ,  4-C ) :   1.1579 B(  1-C ,  2-C ) :   1.5953
B(  1-C , 32-H ) :   0.9702 B(  2-C ,  3-C ) :   1.2318 B(  2-C ,  6-C ) :   1.0281
B(  3-C ,  4-C ) :   1.5543 B(  3-C ,  5-H ) :   0.9962 B(  4-C , 20-C ) :   1.0511
B(  6-C ,  7-H ) :   0.9411 B(  6-C ,  8-H ) :   0.9421 B(  6-C ,  9-C ) :   1.0720
B(  9-C , 10-H ) :   0.9593 B(  9-C , 11-H ) :   0.9516 B(  9-C , 12-C ) :   1.0611
B( 12-C , 13-H ) :   0.9778 B( 12-C , 14-H ) :   0.9746 B( 12-C , 15-H ) :   0.9696
B( 16-S , 17-C ) :   1.1639 B( 16-S , 20-C ) :   1.1344 B( 17-C , 18-C ) :   1.5884
B( 17-C , 33-H ) :   0.9684 B( 18-C , 19-C ) :   1.2420 B( 18-C , 21-H ) :   0.9887
B( 19-C , 20-C ) :   1.5716 B( 19-C , 22-C ) :   1.0529 B( 22-C , 23-H ) :   0.9268
B( 22-C , 24-H ) :   0.9409 B( 22-C , 25-C ) :   1.0579 B( 25-C , 26-H ) :   0.9656
B( 25-C , 27-H ) :   0.9579 B( 25-C , 28-C ) :   1.0600 B( 28-C , 29-H ) :   0.9790
B( 28-C , 30-H ) :   0.9797 B( 28-C , 31-H ) :   0.9778

Dispersion correction           -0.014366073
FINAL SINGLE POINT ENERGY     -1339.855114262462

DIPOLE MOMENT
-------------
                                X             Y             Z
Electronic contribution:      6.70485      -4.92520      -7.18123
Nuclear contribution   :     -7.01218       4.93806       7.07919
                        -----------------------------------------
Total Dipole Moment    :     -0.30734       0.01286      -0.10205
                        -----------------------------------------
Magnitude (a.u.)       :      0.32409
Magnitude (Debye)      :      0.82377

Rotational constants in cm-1:     0.021798     0.007902     0.006458
Rotational constants in MHz :   653.498251   236.897497   193.607419

                             ****ORCA TERMINATED NORMALLY****
TOTAL RUN TIME: 0 days 0 hours 0 minutes 29 seconds 249 msec
