                         Program Version 4.2.1 -  RELEASE  -
|  1> ! wB97X-D3 SP def2-SVP
|  2> %pal
|  3> nprocs 16
|  4> end
|  5>
|  6> * xyz 0 1
|  7> S 	 -51.1753 	 29.2217 	 90.6985
|  8> C 	 -50.8742 	 27.8001 	 91.6209
|  9> C 	 -52.0203 	 26.9583 	 91.5743
| 10> C 	 -53.0839 	 27.5234 	 90.7846
| 11> C 	 -52.7886 	 28.7019 	 90.2568
| 12> H 	 -54.0555 	 27.0615 	 90.6811
| 13> C 	 -52.1712 	 25.6298 	 92.2446
| 14> H 	 -51.3295 	 25.5796 	 92.9289
| 15> H 	 -52.0999 	 24.8228 	 91.5189
| 16> C 	 -53.3538 	 25.4245 	 93.1697
| 17> H 	 -54.2241 	 25.2454 	 92.5569
| 18> H 	 -53.2504 	 24.4605 	 93.7188
| 19> C 	 -53.5549 	 26.5426 	 94.284
| 20> H 	 -52.7806 	 26.4338 	 95.0612
| 21> H 	 -53.5359 	 27.6025 	 93.9966
| 22> H 	 -54.5074 	 26.4014 	 94.7756
| 23> S 	 -52.4647 	 30.0138 	 87.8206
| 24> C 	 -53.8817 	 30.4531 	 86.8964
| 25> C 	 -55.0473 	 30.3468 	 87.6651
| 26> C 	 -54.7898 	 29.7983 	 89.0173
| 27> C 	 -53.4676 	 29.4819 	 89.1831
| 28> H 	 -56.0316 	 30.6004 	 87.2937
| 29> C 	 -55.9523 	 29.3732 	 89.9038
| 30> H 	 -55.7337 	 28.4538 	 90.4298
| 31> H 	 -56.8303 	 29.162 	 89.2529
| 32> C 	 -56.399 	 30.3713 	 90.9617
| 33> H 	 -56.8148 	 31.2417 	 90.4983
| 34> H 	 -55.514 	 30.7915 	 91.517
| 35> C 	 -57.3338 	 29.8095 	 92.0254
| 36> H 	 -57.2594 	 28.7595 	 92.2256
| 37> H 	 -58.3498 	 29.921 	 91.7306
| 38> H 	 -57.2338 	 30.3472 	 92.9789
| 39> H 	 -49.967 	 27.6221 	 92.2393
| 40> H 	 -54.0589 	 30.75 	 85.8721
| 41> *
| 42>
| 43>                          ****END OF INPUT****

CARTESIAN COORDINATES (ANGSTROEM)
---------------------------------
  S    -51.175300   29.221700   90.698500
  C    -50.874200   27.800100   91.620900
  C    -52.020300   26.958300   91.574300
  C    -53.083900   27.523400   90.784600
  C    -52.788600   28.701900   90.256800
  H    -54.055500   27.061500   90.681100
  C    -52.171200   25.629800   92.244600
  H    -51.329500   25.579600   92.928900
  H    -52.099900   24.822800   91.518900
  C    -53.353800   25.424500   93.169700
  H    -54.224100   25.245400   92.556900
  H    -53.250400   24.460500   93.718800
  C    -53.554900   26.542600   94.284000
  H    -52.780600   26.433800   95.061200
  H    -53.535900   27.602500   93.996600
  H    -54.507400   26.401400   94.775600
  S    -52.464700   30.013800   87.820600
  C    -53.881700   30.453100   86.896400
  C    -55.047300   30.346800   87.665100
  C    -54.789800   29.798300   89.017300
  C    -53.467600   29.481900   89.183100
  H    -56.031600   30.600400   87.293700
  C    -55.952300   29.373200   89.903800
  H    -55.733700   28.453800   90.429800
  H    -56.830300   29.162000   89.252900
  C    -56.399000   30.371300   90.961700
  H    -56.814800   31.241700   90.498300
  H    -55.514000   30.791500   91.517000
  C    -57.333800   29.809500   92.025400
  H    -57.259400   28.759500   92.225600
  H    -58.349800   29.921000   91.730600
  H    -57.233800   30.347200   92.978900
  H    -49.967000   27.622100   92.239300
  H    -54.058900   30.750000   85.872100

 Total Charge           Charge          ....    0
 Multiplicity           Mult            ....    1
 Number of Electrons    NEL             ....  134
 Basis Dimension        Dim             ....  322

ORBITAL ENERGIES
----------------

  NO   OCC          E(Eh)            E(eV)
   0   2.0000     -88.969186     -2420.9746
   1   2.0000     -88.964099     -2420.8362
   2   2.0000     -10.330112      -281.0967
   3   2.0000     -10.327587      -281.0279
   4   2.0000     -10.319260      -280.8013
   5   2.0000     -10.318598      -280.7833
   6   2.0000     -10.305496      -280.4268
   7   2.0000     -10.303673      -280.3772
   8   2.0000     -10.298418      -280.2342
   9   2.0000     -10.294071      -280.1159
  10   2.0000     -10.292785      -280.0809
  11   2.0000     -10.289554      -279.9930
  12   2.0000     -10.287919      -279.9485
  13   2.0000     -10.282955      -279.8134
  14   2.0000     -10.281629      -279.7774
  15   2.0000     -10.272171      -279.5200
  16   2.0000      -8.083151      -219.9537
  17   2.0000      -8.079452      -219.8531
  18   2.0000      -6.041975      -164.4105
  19   2.0000      -6.037950      -164.3010
  20   2.0000      -6.037782      -164.2964
  21   2.0000      -6.033795      -164.1879
  22   2.0000      -6.033576      -164.1820
  23   2.0000      -6.030270      -164.0920
  24   2.0000      -1.007893       -27.4262
  25   2.0000      -0.981261       -26.7015
  26   2.0000      -0.911190       -24.7947
  27   2.0000      -0.909086       -24.7375
  28   2.0000      -0.865521       -23.5520
  29   2.0000      -0.850756       -23.1503
  30   2.0000      -0.842938       -22.9375
  31   2.0000      -0.816590       -22.2205
  32   2.0000      -0.783725       -21.3262
  33   2.0000      -0.773468       -21.0471
  34   2.0000      -0.709620       -19.3097
  35   2.0000      -0.697995       -18.9934
  36   2.0000      -0.689383       -18.7591
  37   2.0000      -0.659687       -17.9510
  38   2.0000      -0.640714       -17.4347
  39   2.0000      -0.627268       -17.0688
  40   2.0000      -0.593503       -16.1500
  41   2.0000      -0.563737       -15.3401
  42   2.0000      -0.561236       -15.2720
  43   2.0000      -0.555547       -15.1172
  44   2.0000      -0.536856       -14.6086
  45   2.0000      -0.523364       -14.2415
  46   2.0000      -0.517438       -14.0802
  47   2.0000      -0.505733       -13.7617
  48   2.0000      -0.502785       -13.6815
  49   2.0000      -0.499516       -13.5925
  50   2.0000      -0.494247       -13.4491
  51   2.0000      -0.484666       -13.1884
  52   2.0000      -0.468692       -12.7537
  53   2.0000      -0.464800       -12.6479
  54   2.0000      -0.458429       -12.4745
  55   2.0000      -0.451222       -12.2784
  56   2.0000      -0.443188       -12.0598
  57   2.0000      -0.439171       -11.9505
  58   2.0000      -0.434724       -11.8294
  59   2.0000      -0.426626       -11.6091
  60   2.0000      -0.420463       -11.4414
  61   2.0000      -0.409600       -11.1458
  62   2.0000      -0.407684       -11.0937
  63   2.0000      -0.355962        -9.6862
  64   2.0000      -0.329400        -8.9634
  65   2.0000      -0.327480        -8.9112
  66   2.0000      -0.291867        -7.9421
  67   0.0000       0.034261         0.9323
  68   0.0000       0.068904         1.8750
  69   0.0000       0.109508         2.9799
  70   0.0000       0.114409         3.1132
  71   0.0000       0.127361         3.4657

MULLIKEN ATOMIC CHARGES
-----------------------
   0 S :    0.096717
   1 C :   -0.128760
   2 C :   -0.132790
   3 C :    0.025465
   4 C :   -0.118305
   5 H :    0.016618
   6 C :    0.100004
   7 H :    0.003668
   8 H :    0.044222
   9 C :   -0.092890
  10 H :    0.021536
  11 H :    0.035515
  12 C :   -0.069745
  13 H :    0.031500
  14 H :    0.050551
  15 H :    0.031475
  16 S :    0.119214
  17 C :   -0.077304
  18 C :   -0.050882
  19 C :   -0.027731
  20 C :   -0.139492
  21 H :    0.018482
  22 C :    0.060016
  23 H :    0.004433
  24 H :    0.029022
  25 C :   -0.078297
  26 H :    0.019443
  27 H :    0.036897
  28 C :   -0.028018
  29 H :    0.020183
  30 H :    0.018173
  31 H :    0.037606
  32 H :    0.068224
  33 H :    0.055248
Sum of atomic charges:    0.0000000

LOEWDIN ATOMIC CHARGES
----------------------
   0 S :    0.409671
   1 C :   -0.215113
   2 C :   -0.060191
   3 C :   -0.066220
   4 C :   -0.182233
   5 H :    0.031947
   6 C :   -0.037594
   7 H :    0.028040
   8 H :    0.035426
   9 C :   -0.041686
  10 H :    0.014743
  11 H :    0.032423
  12 C :   -0.070397
  13 H :    0.026709
  14 H :    0.029239
  15 H :    0.025548
  16 S :    0.398640
  17 C :   -0.195002
  18 C :   -0.065201
  19 C :   -0.056321
  20 C :   -0.187184
  21 H :    0.027280
  22 C :   -0.031048
  23 H :    0.024020
  24 H :    0.034127
  25 C :   -0.043244
  26 H :    0.019583
  27 H :    0.030881
  28 C :   -0.066005
  29 H :    0.021110
  30 H :    0.020720
  31 H :    0.032527
  32 H :    0.038838
  33 H :    0.035967

  Mayer bond orders larger than 0.100000
B(  0-S ,  1-C ) :   1.1444 B(  0-S ,  4-C ) :   1.1466 B(  1-C ,  2-C ) :   1.5989
B(  1-C , 32-H ) :   0.9631 B(  2-C ,  3-C ) :   1.2312 B(  2-C ,  6-C ) :   1.0345
B(  3-C ,  4-C ) :   1.6112 B(  3-C ,  5-H ) :   0.9900 B(  4-C , 20-C ) :   0.9980
B(  6-C ,  7-H ) :   0.9354 B(  6-C ,  8-H ) :   0.9346 B(  6-C ,  9-C ) :   1.0764
B(  9-C , 10-H ) :   0.9566 B(  9-C , 11-H ) :   0.9558 B(  9-C , 12-C ) :   1.0598
B( 12-C , 13-H ) :   0.9772 B( 12-C , 14-H ) :   0.9776 B( 12-C , 15-H ) :   0.9762
B( 16-S , 17-C ) :   1.1312 B( 16-S , 20-C ) :   1.1177 B( 17-C , 18-C ) :   1.6518
B( 17-C , 33-H ) :   0.9647 B( 18-C , 19-C ) :   1.2056 B( 18-C , 21-H ) :   0.9833
B( 19-C , 20-C ) :   1.6526 B( 19-C , 22-C ) :   1.0431 B( 22-C , 23-H ) :   0.9380
B( 22-C , 24-H ) :   0.9368 B( 22-C , 25-C ) :   1.0635 B( 25-C , 26-H ) :   0.9538
B( 25-C , 27-H ) :   0.9624 B( 25-C , 28-C ) :   1.0743 B( 28-C , 29-H ) :   0.9750
B( 28-C , 30-H ) :   0.9740 B( 28-C , 31-H ) :   0.9764

Dispersion correction           -0.014336886
FINAL SINGLE POINT ENERGY     -1339.881209904349

DIPOLE MOMENT
-------------
                                X             Y             Z
Electronic contribution:     20.04488      10.57745     -20.70956
Nuclear contribution   :    -20.63137     -10.98743      20.97744
                        -----------------------------------------
Total Dipole Moment    :     -0.58649      -0.40998       0.26788
                        -----------------------------------------
Magnitude (a.u.)       :      0.76408
Magnitude (Debye)      :      1.94213

Rotational constants in cm-1:     0.016971     0.010054     0.007051
Rotational constants in MHz :   508.772140   301.415409   211.378166

                             ****ORCA TERMINATED NORMALLY****
TOTAL RUN TIME: 0 days 0 hours 0 minutes 28 seconds 938 msec
