                         Program Version 4.2.1 -  RELEASE  -
|  1> ! wB97X-D3 SP def2-SVP
|  2> %pal
|  3> nprocs 16
|  4> end
|  5>
|  6> * xyz 0 1
|  7> S 	 -64.0738 	 34.1626 	 116.278
|  8> C 	 -64.3068 	 33.8139 	 118.015
|  9> C 	 -64.6589 	 34.9495 	 118.707
| 10> C 	 -64.6241 	 36.1391 	 117.884
| 11> C 	 -64.2806 	 35.861 	 116.557
| 12> H 	 -64.8017 	 37.0685 	 118.199
| 13> C 	 -64.9828 	 35.0398 	 120.138
| 14> H 	 -64.0563 	 35.0063 	 120.727
| 15> H 	 -65.4462 	 34.1476 	 120.495
| 16> C 	 -65.8678 	 36.2372 	 120.595
| 17> H 	 -66.0496 	 36.1203 	 121.728
| 18> H 	 -65.4214 	 37.1478 	 120.46
| 19> C 	 -67.3203 	 36.2763 	 120.025
| 20> H 	 -67.5028 	 37.2761 	 119.69
| 21> H 	 -67.3662 	 35.5998 	 119.145
| 22> H 	 -68.0524 	 35.8194 	 120.667
| 23> S 	 -62.6884 	 37.527 	 115.016
| 24> C 	 -63.3549 	 38.7765 	 114.083
| 25> C 	 -64.6948 	 38.8395 	 114.344
| 26> C 	 -65.2051 	 37.7194 	 115.063
| 27> C 	 -64.2535 	 36.863 	 115.506
| 28> H 	 -65.2126 	 39.5756 	 113.859
| 29> C 	 -66.6541 	 37.749 	 115.524
| 30> H 	 -66.8142 	 36.9164 	 116.284
| 31> H 	 -67.341 	 37.5315 	 114.712
| 32> C 	 -67.1062 	 39.1191 	 116.181
| 33> H 	 -68.1499 	 39.0439 	 116.631
| 34> H 	 -67.0731 	 39.8376 	 115.363
| 35> C 	 -66.2251 	 39.5401 	 117.326
| 36> H 	 -65.1553 	 39.498 	 117.15
| 37> H 	 -66.2556 	 39.0004 	 118.307
| 38> H 	 -66.5849 	 40.538 	 117.538
| 39> H 	 -64.4991 	 32.866 	 118.456
| 40> H 	 -62.8451 	 39.6803 	 113.588
| 41> *
| 42>
| 43>                          ****END OF INPUT****

CARTESIAN COORDINATES (ANGSTROEM)
---------------------------------
  S    -64.073800   34.162600  116.278000
  C    -64.306800   33.813900  118.015000
  C    -64.658900   34.949500  118.707000
  C    -64.624100   36.139100  117.884000
  C    -64.280600   35.861000  116.557000
  H    -64.801700   37.068500  118.199000
  C    -64.982800   35.039800  120.138000
  H    -64.056300   35.006300  120.727000
  H    -65.446200   34.147600  120.495000
  C    -65.867800   36.237200  120.595000
  H    -66.049600   36.120300  121.728000
  H    -65.421400   37.147800  120.460000
  C    -67.320300   36.276300  120.025000
  H    -67.502800   37.276100  119.690000
  H    -67.366200   35.599800  119.145000
  H    -68.052400   35.819400  120.667000
  S    -62.688400   37.527000  115.016000
  C    -63.354900   38.776500  114.083000
  C    -64.694800   38.839500  114.344000
  C    -65.205100   37.719400  115.063000
  C    -64.253500   36.863000  115.506000
  H    -65.212600   39.575600  113.859000
  C    -66.654100   37.749000  115.524000
  H    -66.814200   36.916400  116.284000
  H    -67.341000   37.531500  114.712000
  C    -67.106200   39.119100  116.181000
  H    -68.149900   39.043900  116.631000
  H    -67.073100   39.837600  115.363000
  C    -66.225100   39.540100  117.326000
  H    -65.155300   39.498000  117.150000
  H    -66.255600   39.000400  118.307000
  H    -66.584900   40.538000  117.538000
  H    -64.499100   32.866000  118.456000
  H    -62.845100   39.680300  113.588000

 Total Charge           Charge          ....    0
 Multiplicity           Mult            ....    1
 Number of Electrons    NEL             ....  134
 Basis Dimension        Dim             ....  322

ORBITAL ENERGIES
----------------

  NO   OCC          E(Eh)            E(eV)
   0   2.0000     -88.968801     -2420.9642
   1   2.0000     -88.960473     -2420.7375
   2   2.0000     -10.330729      -281.1134
   3   2.0000     -10.323349      -280.9126
   4   2.0000     -10.318867      -280.7906
   5   2.0000     -10.312342      -280.6131
   6   2.0000     -10.300573      -280.2928
   7   2.0000     -10.300340      -280.2865
   8   2.0000     -10.296364      -280.1783
   9   2.0000     -10.292506      -280.0733
  10   2.0000     -10.291220      -280.0383
  11   2.0000     -10.290826      -280.0276
  12   2.0000     -10.288860      -279.9741
  13   2.0000     -10.282472      -279.8003
  14   2.0000     -10.277849      -279.6745
  15   2.0000     -10.277287      -279.6592
  16   2.0000      -8.082994      -219.9495
  17   2.0000      -8.076213      -219.7649
  18   2.0000      -6.041569      -164.3995
  19   2.0000      -6.037570      -164.2906
  20   2.0000      -6.034697      -164.2125
  21   2.0000      -6.033710      -164.1856
  22   2.0000      -6.030497      -164.0982
  23   2.0000      -6.026970      -164.0022
  24   2.0000      -1.011724       -27.5304
  25   2.0000      -0.987150       -26.8617
  26   2.0000      -0.914377       -24.8815
  27   2.0000      -0.906270       -24.6609
  28   2.0000      -0.873629       -23.7727
  29   2.0000      -0.849417       -23.1138
  30   2.0000      -0.844907       -22.9911
  31   2.0000      -0.819056       -22.2877
  32   2.0000      -0.786049       -21.3895
  33   2.0000      -0.775859       -21.1122
  34   2.0000      -0.715467       -19.4688
  35   2.0000      -0.698614       -19.0103
  36   2.0000      -0.691910       -18.8278
  37   2.0000      -0.656738       -17.8708
  38   2.0000      -0.645089       -17.5538
  39   2.0000      -0.630732       -17.1631
  40   2.0000      -0.593139       -16.1401
  41   2.0000      -0.575835       -15.6693
  42   2.0000      -0.557207       -15.1624
  43   2.0000      -0.551465       -15.0061
  44   2.0000      -0.545385       -14.8407
  45   2.0000      -0.535552       -14.5731
  46   2.0000      -0.521283       -14.1848
  47   2.0000      -0.515543       -14.0286
  48   2.0000      -0.508277       -13.8309
  49   2.0000      -0.500223       -13.6118
  50   2.0000      -0.497284       -13.5318
  51   2.0000      -0.484936       -13.1958
  52   2.0000      -0.471673       -12.8349
  53   2.0000      -0.465232       -12.6596
  54   2.0000      -0.455759       -12.4018
  55   2.0000      -0.443566       -12.0700
  56   2.0000      -0.439114       -11.9489
  57   2.0000      -0.437030       -11.8922
  58   2.0000      -0.435013       -11.8373
  59   2.0000      -0.432200       -11.7607
  60   2.0000      -0.413806       -11.2602
  61   2.0000      -0.411990       -11.2108
  62   2.0000      -0.407286       -11.0828
  63   2.0000      -0.334996        -9.1157
  64   2.0000      -0.331497        -9.0205
  65   2.0000      -0.325386        -8.8542
  66   2.0000      -0.308781        -8.4024
  67   0.0000       0.038236         1.0404
  68   0.0000       0.057101         1.5538
  69   0.0000       0.113101         3.0776
  70   0.0000       0.118448         3.2231
  71   0.0000       0.124667         3.3924

MULLIKEN ATOMIC CHARGES
-----------------------
   0 S :    0.120101
   1 C :   -0.102374
   2 C :   -0.093280
   3 C :    0.116763
   4 C :   -0.154825
   5 H :   -0.086400
   6 C :    0.088099
   7 H :    0.045435
   8 H :    0.005796
   9 C :   -0.110227
  10 H :    0.042262
  11 H :    0.021118
  12 C :   -0.046086
  13 H :    0.035381
  14 H :    0.033319
  15 H :    0.034424
  16 S :    0.101243
  17 C :   -0.102164
  18 C :   -0.039103
  19 C :   -0.023440
  20 C :   -0.152734
  21 H :   -0.011286
  22 C :    0.048095
  23 H :    0.037703
  24 H :    0.033583
  25 C :   -0.092435
  26 H :    0.048558
  27 H :    0.036688
  28 C :   -0.065840
  29 H :    0.046034
  30 H :    0.030242
  31 H :    0.030292
  32 H :    0.035616
  33 H :    0.089441
Sum of atomic charges:    0.0000000

LOEWDIN ATOMIC CHARGES
----------------------
   0 S :    0.409001
   1 C :   -0.190129
   2 C :   -0.057387
   3 C :   -0.036065
   4 C :   -0.195655
   5 H :    0.002555
   6 C :   -0.037298
   7 H :    0.042814
   8 H :    0.026385
   9 C :   -0.038240
  10 H :    0.038466
  11 H :    0.005885
  12 C :   -0.066739
  13 H :    0.022971
  14 H :    0.029656
  15 H :    0.025405
  16 S :    0.418297
  17 C :   -0.207536
  18 C :   -0.075946
  19 C :   -0.057214
  20 C :   -0.201159
  21 H :    0.013949
  22 C :   -0.037186
  23 H :    0.033686
  24 H :    0.028763
  25 C :   -0.038479
  26 H :    0.037643
  27 H :    0.021843
  28 C :   -0.076490
  29 H :    0.024621
  30 H :    0.025597
  31 H :    0.028671
  32 H :    0.023605
  33 H :    0.055710

  Mayer bond orders larger than 0.100000
B(  0-S ,  1-C ) :   1.1240 B(  0-S ,  4-C ) :   1.1650 B(  1-C ,  2-C ) :   1.6273
B(  1-C , 32-H ) :   0.9674 B(  2-C ,  3-C ) :   1.2276 B(  2-C ,  6-C ) :   1.0289
B(  3-C ,  4-C ) :   1.5569 B(  3-C ,  5-H ) :   1.0145 B(  4-C , 20-C ) :   1.0057
B(  6-C ,  7-H ) :   0.9254 B(  6-C ,  8-H ) :   0.9337 B(  6-C ,  9-C ) :   1.0823
B(  9-C , 10-H ) :   0.9589 B(  9-C , 11-H ) :   0.9613 B(  9-C , 12-C ) :   1.0577
B( 12-C , 13-H ) :   0.9767 B( 12-C , 14-H ) :   0.9793 B( 12-C , 15-H ) :   0.9766
B( 16-S , 17-C ) :   1.1749 B( 16-S , 20-C ) :   1.1378 B( 17-C , 18-C ) :   1.6119
B( 17-C , 33-H ) :   0.9521 B( 18-C , 19-C ) :   1.2330 B( 18-C , 21-H ) :   1.0015
B( 19-C , 20-C ) :   1.6149 B( 19-C , 22-C ) :   1.0424 B( 22-C , 23-H ) :   0.9401
B( 22-C , 24-H ) :   0.9343 B( 22-C , 25-C ) :   1.0683 B( 25-C , 26-H ) :   0.9551
B( 25-C , 27-H ) :   0.9519 B( 25-C , 28-C ) :   1.0758 B( 28-C , 29-H ) :   0.9680
B( 28-C , 30-H ) :   0.9679 B( 28-C , 31-H ) :   0.9678

Dispersion correction           -0.017083267
FINAL SINGLE POINT ENERGY     -1339.853191364296

DIPOLE MOMENT
-------------
                                X             Y             Z
Electronic contribution:     19.86973     -11.28347     -18.62523
Nuclear contribution   :    -20.43033      11.72270      19.13273
                        -----------------------------------------
Total Dipole Moment    :     -0.56060       0.43924       0.50751
                        -----------------------------------------
Magnitude (a.u.)       :      0.87451
Magnitude (Debye)      :      2.22282

Rotational constants in cm-1:     0.018318     0.011080     0.007966
Rotational constants in MHz :   549.156887   332.182851   238.809283

                             ****ORCA TERMINATED NORMALLY****
TOTAL RUN TIME: 0 days 0 hours 0 minutes 33 seconds 668 msec
