                         Program Version 4.2.1 -  RELEASE  -
|  1> ! wB97X-D3 SP def2-SVP
|  2> %pal
|  3> nprocs 16
|  4> end
|  5>
|  6> * xyz 0 1
|  7> S 	 -12.9364 	 -6.23481 	 79.41
|  8> C 	 -13.2741 	 -7.93912 	 79.3386
|  9> C 	 -12.8944 	 -8.53752 	 80.5058
| 10> C 	 -12.353 	 -7.6485 	 81.4513
| 11> C 	 -12.3941 	 -6.32074 	 81.0861
| 12> H 	 -12.0498 	 -7.88411 	 82.4708
| 13> C 	 -13.1722 	 -10.0208 	 80.8804
| 14> H 	 -13.7174 	 -10.0914 	 81.7879
| 15> H 	 -12.3156 	 -10.6985 	 80.9649
| 16> C 	 -13.9825 	 -10.7084 	 79.7643
| 17> H 	 -14.9321 	 -10.2234 	 79.4116
| 18> H 	 -13.2601 	 -10.5288 	 78.9114
| 19> C 	 -14.1032 	 -12.1758 	 80.0183
| 20> H 	 -14.464 	 -12.8028 	 79.0909
| 21> H 	 -13.1354 	 -12.7047 	 80.2465
| 22> H 	 -14.7307 	 -12.3713 	 80.9053
| 23> S 	 -12.994 	 -4.91085 	 83.3253
| 24> C 	 -12.3163 	 -3.30694 	 83.7211
| 25> C 	 -11.4853 	 -2.97545 	 82.6926
| 26> C 	 -11.3621 	 -3.95705 	 81.6492
| 27> C 	 -12.0289 	 -5.12963 	 81.8866
| 28> H 	 -10.8384 	 -2.1172 	 82.7502
| 29> C 	 -10.5481 	 -3.77436 	 80.3688
| 30> H 	 -10.689 	 -2.72013 	 80.1377
| 31> H 	 -10.8363 	 -4.5051 	 79.6141
| 32> C 	 -9.03818 	 -4.23728 	 80.5129
| 33> H 	 -8.63219 	 -3.86043 	 81.4517
| 34> H 	 -8.42921 	 -3.77971 	 79.6892
| 35> C 	 -8.74436 	 -5.75085 	 80.3937
| 36> H 	 -7.89627 	 -5.97461 	 80.9676
| 37> H 	 -8.53142 	 -5.98086 	 79.3444
| 38> H 	 -9.53479 	 -6.42671 	 80.7224
| 39> H 	 -13.7328 	 -8.49926 	 78.486
| 40> H 	 -12.522 	 -2.7212 	 84.6233
| 41> *
| 42>
| 43>                          ****END OF INPUT****

CARTESIAN COORDINATES (ANGSTROEM)
---------------------------------
  S    -12.936400   -6.234810   79.410000
  C    -13.274100   -7.939120   79.338600
  C    -12.894400   -8.537520   80.505800
  C    -12.353000   -7.648500   81.451300
  C    -12.394100   -6.320740   81.086100
  H    -12.049800   -7.884110   82.470800
  C    -13.172200  -10.020800   80.880400
  H    -13.717400  -10.091400   81.787900
  H    -12.315600  -10.698500   80.964900
  C    -13.982500  -10.708400   79.764300
  H    -14.932100  -10.223400   79.411600
  H    -13.260100  -10.528800   78.911400
  C    -14.103200  -12.175800   80.018300
  H    -14.464000  -12.802800   79.090900
  H    -13.135400  -12.704700   80.246500
  H    -14.730700  -12.371300   80.905300
  S    -12.994000   -4.910850   83.325300
  C    -12.316300   -3.306940   83.721100
  C    -11.485300   -2.975450   82.692600
  C    -11.362100   -3.957050   81.649200
  C    -12.028900   -5.129630   81.886600
  H    -10.838400   -2.117200   82.750200
  C    -10.548100   -3.774360   80.368800
  H    -10.689000   -2.720130   80.137700
  H    -10.836300   -4.505100   79.614100
  C     -9.038180   -4.237280   80.512900
  H     -8.632190   -3.860430   81.451700
  H     -8.429210   -3.779710   79.689200
  C     -8.744360   -5.750850   80.393700
  H     -7.896270   -5.974610   80.967600
  H     -8.531420   -5.980860   79.344400
  H     -9.534790   -6.426710   80.722400
  H    -13.732800   -8.499260   78.486000
  H    -12.522000   -2.721200   84.623300

 Total Charge           Charge          ....    0
 Multiplicity           Mult            ....    1
 Number of Electrons    NEL             ....  134
 Basis Dimension        Dim             ....  322

ORBITAL ENERGIES
----------------

  NO   OCC          E(Eh)            E(eV)
   0   2.0000     -88.968637     -2420.9597
   1   2.0000     -88.960153     -2420.7288
   2   2.0000     -10.335432      -281.2414
   3   2.0000     -10.327604      -281.0284
   4   2.0000     -10.323881      -280.9271
   5   2.0000     -10.318719      -280.7866
   6   2.0000     -10.302538      -280.3463
   7   2.0000     -10.302050      -280.3330
   8   2.0000     -10.295741      -280.1614
   9   2.0000     -10.294719      -280.1335
  10   2.0000     -10.294449      -280.1262
  11   2.0000     -10.293001      -280.0868
  12   2.0000     -10.291719      -280.0519
  13   2.0000     -10.291623      -280.0493
  14   2.0000     -10.287686      -279.9422
  15   2.0000     -10.267964      -279.4055
  16   2.0000      -8.082864      -219.9459
  17   2.0000      -8.074704      -219.7239
  18   2.0000      -6.041449      -164.3962
  19   2.0000      -6.037373      -164.2853
  20   2.0000      -6.033619      -164.1831
  21   2.0000      -6.033369      -164.1763
  22   2.0000      -6.029085      -164.0597
  23   2.0000      -6.025417      -163.9599
  24   2.0000      -1.009721       -27.4759
  25   2.0000      -0.988576       -26.9005
  26   2.0000      -0.916069       -24.9275
  27   2.0000      -0.898661       -24.4538
  28   2.0000      -0.872282       -23.7360
  29   2.0000      -0.850843       -23.1526
  30   2.0000      -0.841181       -22.8897
  31   2.0000      -0.818350       -22.2684
  32   2.0000      -0.778353       -21.1801
  33   2.0000      -0.769949       -20.9514
  34   2.0000      -0.712484       -19.3877
  35   2.0000      -0.691179       -18.8079
  36   2.0000      -0.689149       -18.7527
  37   2.0000      -0.663443       -18.0532
  38   2.0000      -0.639919       -17.4131
  39   2.0000      -0.614987       -16.7347
  40   2.0000      -0.594502       -16.1772
  41   2.0000      -0.577475       -15.7139
  42   2.0000      -0.573618       -15.6089
  43   2.0000      -0.554220       -15.0811
  44   2.0000      -0.540667       -14.7123
  45   2.0000      -0.520098       -14.1526
  46   2.0000      -0.517496       -14.0818
  47   2.0000      -0.510588       -13.8938
  48   2.0000      -0.503302       -13.6955
  49   2.0000      -0.499116       -13.5816
  50   2.0000      -0.484402       -13.1813
  51   2.0000      -0.482020       -13.1164
  52   2.0000      -0.474297       -12.9063
  53   2.0000      -0.470732       -12.8093
  54   2.0000      -0.458731       -12.4827
  55   2.0000      -0.453705       -12.3460
  56   2.0000      -0.440894       -11.9973
  57   2.0000      -0.429868       -11.6973
  58   2.0000      -0.428747       -11.6668
  59   2.0000      -0.419937       -11.4271
  60   2.0000      -0.413550       -11.2533
  61   2.0000      -0.409837       -11.1522
  62   2.0000      -0.401537       -10.9264
  63   2.0000      -0.351818        -9.5735
  64   2.0000      -0.335376        -9.1260
  65   2.0000      -0.324976        -8.8431
  66   2.0000      -0.300761        -8.1841
  67   0.0000       0.030955         0.8423
  68   0.0000       0.068506         1.8641
  69   0.0000       0.114821         3.1245
  70   0.0000       0.120328         3.2743
  71   0.0000       0.130235         3.5439

MULLIKEN ATOMIC CHARGES
-----------------------
   0 S :    0.120296
   1 C :   -0.145625
   2 C :   -0.070359
   3 C :    0.025563
   4 C :   -0.147850
   5 H :    0.015187
   6 C :    0.091502
   7 H :    0.027919
   8 H :    0.034037
   9 C :   -0.152746
  10 H :    0.051412
  11 H :    0.035016
  12 C :   -0.073123
  13 H :    0.050531
  14 H :    0.032250
  15 H :    0.038582
  16 S :    0.079396
  17 C :   -0.096332
  18 C :   -0.013565
  19 C :   -0.078334
  20 C :   -0.134105
  21 H :    0.017675
  22 C :    0.076533
  23 H :    0.032773
  24 H :    0.022531
  25 C :   -0.094453
  26 H :    0.020915
  27 H :    0.036814
  28 C :   -0.037207
  29 H :    0.022187
  30 H :    0.031960
  31 H :    0.039349
  32 H :    0.069801
  33 H :    0.071467
Sum of atomic charges:    0.0000000

LOEWDIN ATOMIC CHARGES
----------------------
   0 S :    0.415499
   1 C :   -0.205787
   2 C :   -0.069874
   3 C :   -0.063857
   4 C :   -0.188616
   5 H :    0.033865
   6 C :   -0.020969
   7 H :    0.023463
   8 H :    0.034720
   9 C :   -0.061173
  10 H :    0.028039
  11 H :    0.027695
  12 C :   -0.081090
  13 H :    0.038655
  14 H :    0.028197
  15 H :    0.026379
  16 S :    0.391633
  17 C :   -0.170958
  18 C :   -0.073463
  19 C :   -0.062929
  20 C :   -0.198950
  21 H :    0.029913
  22 C :   -0.031727
  23 H :    0.032062
  24 H :    0.022229
  25 C :   -0.039456
  26 H :    0.015431
  27 H :    0.028613
  28 C :   -0.065717
  29 H :    0.021889
  30 H :    0.026983
  31 H :    0.026747
  32 H :    0.043145
  33 H :    0.039409

  Mayer bond orders larger than 0.100000
B(  0-S ,  1-C ) :   1.1358 B(  0-S ,  4-C ) :   1.1436 B(  1-C ,  2-C ) :   1.6230
B(  1-C , 32-H ) :   0.9513 B(  2-C ,  3-C ) :   1.2529 B(  2-C ,  6-C ) :   0.9979
B(  3-C ,  4-C ) :   1.5701 B(  3-C ,  5-H ) :   0.9983 B(  4-C , 20-C ) :   1.0139
B(  6-C ,  7-H ) :   0.9471 B(  6-C ,  8-H ) :   0.9402 B(  6-C ,  9-C ) :   1.0604
B(  9-C , 10-H ) :   0.9520 B(  9-C , 11-H ) :   0.9485 B(  9-C , 12-C ) :   1.0850
B( 12-C , 13-H ) :   0.9703 B( 12-C , 14-H ) :   0.9691 B( 12-C , 15-H ) :   0.9718
B( 16-S , 17-C ) :   1.1449 B( 16-S , 20-C ) :   1.1360 B( 17-C , 18-C ) :   1.6055
B( 17-C , 33-H ) :   0.9693 B( 18-C , 19-C ) :   1.2390 B( 18-C , 21-H ) :   0.9879
B( 19-C , 20-C ) :   1.6129 B( 19-C , 22-C ) :   1.0475 B( 22-C , 23-H ) :   0.9344
B( 22-C , 24-H ) :   0.9367 B( 22-C , 25-C ) :   1.0514 B( 25-C , 26-H ) :   0.9653
B( 25-C , 27-H ) :   0.9609 B( 25-C , 28-C ) :   1.0703 B( 28-C , 29-H ) :   0.9731
B( 28-C , 30-H ) :   0.9767 B( 28-C , 31-H ) :   0.9762

Dispersion correction           -0.014518555
FINAL SINGLE POINT ENERGY     -1339.871236807308

DIPOLE MOMENT
-------------
                                X             Y             Z
Electronic contribution:     -8.73724      17.34735       7.43700
Nuclear contribution   :      8.97749     -17.55422      -7.41501
                        -----------------------------------------
Total Dipole Moment    :      0.24026      -0.20687       0.02199
                        -----------------------------------------
Magnitude (a.u.)       :      0.31781
Magnitude (Debye)      :      0.80780

Rotational constants in cm-1:     0.024019     0.007469     0.006511
Rotational constants in MHz :   720.084390   223.914877   195.192932

                             ****ORCA TERMINATED NORMALLY****
TOTAL RUN TIME: 0 days 0 hours 0 minutes 33 seconds 218 msec
