                         Program Version 4.2.1 -  RELEASE  -
|  1> ! wB97X-D3 SP def2-SVP
|  2> %pal
|  3> nprocs 16
|  4> end
|  5>
|  6> * xyz 0 1
|  7> S 	 8.85343 	 -7.5059 	 90.6313
|  8> C 	 9.44306 	 -6.06545 	 91.5625
|  9> C 	 9.13934 	 -4.87832 	 90.9397
| 10> C 	 8.36079 	 -5.11523 	 89.7656
| 11> C 	 8.10051 	 -6.46205 	 89.5151
| 12> H 	 8.06135 	 -4.39381 	 89.0689
| 13> C 	 9.5345 	 -3.51011 	 91.3396
| 14> H 	 10.3804 	 -3.75691 	 91.9465
| 15> H 	 8.85234 	 -3.02484 	 91.9652
| 16> C 	 10.0105 	 -2.56424 	 90.2375
| 17> H 	 10.6765 	 -1.8476 	 90.6416
| 18> H 	 10.4454 	 -3.16746 	 89.4334
| 19> C 	 8.92787 	 -1.74045 	 89.5674
| 20> H 	 9.43805 	 -1.242 	 88.703
| 21> H 	 8.07419 	 -2.37917 	 89.252
| 22> H 	 8.58863 	 -0.972137 	 90.2363
| 23> S 	 8.23701 	 -7.85097 	 87.124
| 24> C 	 6.79415 	 -7.9093 	 86.266
| 25> C 	 5.69057 	 -7.49083 	 86.9969
| 26> C 	 6.07779 	 -6.8808 	 88.1993
| 27> C 	 7.39725 	 -6.96131 	 88.4209
| 28> H 	 4.66878 	 -7.60181 	 86.6056
| 29> C 	 5.02471 	 -6.17126 	 89.1479
| 30> H 	 5.23557 	 -6.3243 	 90.1808
| 31> H 	 4.00678 	 -6.60602 	 89.0245
| 32> C 	 4.84528 	 -4.63803 	 88.9147
| 33> H 	 4.31021 	 -4.60264 	 87.963
| 34> H 	 5.73192 	 -4.21263 	 88.664
| 35> C 	 4.02086 	 -3.79128 	 89.9121
| 36> H 	 3.64278 	 -2.84013 	 89.5444
| 37> H 	 4.62351 	 -3.65856 	 90.8384
| 38> H 	 3.15214 	 -4.21928 	 90.2482
| 39> H 	 10.0251 	 -6.18573 	 92.4647
| 40> H 	 6.73149 	 -8.61189 	 85.449
| 41> *
| 42>
| 43>                          ****END OF INPUT****

CARTESIAN COORDINATES (ANGSTROEM)
---------------------------------
  S      8.853430   -7.505900   90.631300
  C      9.443060   -6.065450   91.562500
  C      9.139340   -4.878320   90.939700
  C      8.360790   -5.115230   89.765600
  C      8.100510   -6.462050   89.515100
  H      8.061350   -4.393810   89.068900
  C      9.534500   -3.510110   91.339600
  H     10.380400   -3.756910   91.946500
  H      8.852340   -3.024840   91.965200
  C     10.010500   -2.564240   90.237500
  H     10.676500   -1.847600   90.641600
  H     10.445400   -3.167460   89.433400
  C      8.927870   -1.740450   89.567400
  H      9.438050   -1.242000   88.703000
  H      8.074190   -2.379170   89.252000
  H      8.588630   -0.972137   90.236300
  S      8.237010   -7.850970   87.124000
  C      6.794150   -7.909300   86.266000
  C      5.690570   -7.490830   86.996900
  C      6.077790   -6.880800   88.199300
  C      7.397250   -6.961310   88.420900
  H      4.668780   -7.601810   86.605600
  C      5.024710   -6.171260   89.147900
  H      5.235570   -6.324300   90.180800
  H      4.006780   -6.606020   89.024500
  C      4.845280   -4.638030   88.914700
  H      4.310210   -4.602640   87.963000
  H      5.731920   -4.212630   88.664000
  C      4.020860   -3.791280   89.912100
  H      3.642780   -2.840130   89.544400
  H      4.623510   -3.658560   90.838400
  H      3.152140   -4.219280   90.248200
  H     10.025100   -6.185730   92.464700
  H      6.731490   -8.611890   85.449000

 Total Charge           Charge          ....    0
 Multiplicity           Mult            ....    1
 Number of Electrons    NEL             ....  134
 Basis Dimension        Dim             ....  322

ORBITAL ENERGIES
----------------

  NO   OCC          E(Eh)            E(eV)
   0   2.0000     -88.965824     -2420.8831
   1   2.0000     -88.964402     -2420.8444
   2   2.0000     -10.317956      -280.7658
   3   2.0000     -10.315416      -280.6967
   4   2.0000     -10.314424      -280.6698
   5   2.0000     -10.310550      -280.5643
   6   2.0000     -10.300516      -280.2913
   7   2.0000     -10.299344      -280.2594
   8   2.0000     -10.295516      -280.1552
   9   2.0000     -10.292536      -280.0741
  10   2.0000     -10.285799      -279.8908
  11   2.0000     -10.282064      -279.7892
  12   2.0000     -10.281870      -279.7839
  13   2.0000     -10.279977      -279.7324
  14   2.0000     -10.277890      -279.6756
  15   2.0000     -10.274326      -279.5786
  16   2.0000      -8.080548      -219.8829
  17   2.0000      -8.080482      -219.8811
  18   2.0000      -6.038953      -164.3283
  19   2.0000      -6.038720      -164.3219
  20   2.0000      -6.035121      -164.2240
  21   2.0000      -6.034953      -164.2194
  22   2.0000      -6.031357      -164.1216
  23   2.0000      -6.031292      -164.1198
  24   2.0000      -1.015172       -27.6242
  25   2.0000      -0.986742       -26.8506
  26   2.0000      -0.922328       -25.0978
  27   2.0000      -0.901805       -24.5394
  28   2.0000      -0.875937       -23.8354
  29   2.0000      -0.855642       -23.2832
  30   2.0000      -0.845235       -23.0000
  31   2.0000      -0.812290       -22.1035
  32   2.0000      -0.790208       -21.5026
  33   2.0000      -0.777275       -21.1507
  34   2.0000      -0.709786       -19.3143
  35   2.0000      -0.701642       -19.0926
  36   2.0000      -0.694753       -18.9052
  37   2.0000      -0.662835       -18.0366
  38   2.0000      -0.644985       -17.5509
  39   2.0000      -0.625531       -17.0216
  40   2.0000      -0.601054       -16.3555
  41   2.0000      -0.574331       -15.6283
  42   2.0000      -0.558284       -15.1917
  43   2.0000      -0.550275       -14.9738
  44   2.0000      -0.539306       -14.6753
  45   2.0000      -0.523933       -14.2569
  46   2.0000      -0.519187       -14.1278
  47   2.0000      -0.514154       -13.9908
  48   2.0000      -0.509069       -13.8525
  49   2.0000      -0.504190       -13.7197
  50   2.0000      -0.494992       -13.4694
  51   2.0000      -0.480250       -13.0683
  52   2.0000      -0.470721       -12.8090
  53   2.0000      -0.465891       -12.6775
  54   2.0000      -0.457951       -12.4615
  55   2.0000      -0.454828       -12.3765
  56   2.0000      -0.442686       -12.0461
  57   2.0000      -0.434253       -11.8166
  58   2.0000      -0.430799       -11.7226
  59   2.0000      -0.430193       -11.7061
  60   2.0000      -0.425998       -11.5920
  61   2.0000      -0.416697       -11.3389
  62   2.0000      -0.407651       -11.0927
  63   2.0000      -0.339974        -9.2512
  64   2.0000      -0.331452        -9.0193
  65   2.0000      -0.330101        -8.9825
  66   2.0000      -0.298743        -8.1292
  67   0.0000       0.037045         1.0080
  68   0.0000       0.060312         1.6412
  69   0.0000       0.111272         3.0279
  70   0.0000       0.124071         3.3761
  71   0.0000       0.124293         3.3822

MULLIKEN ATOMIC CHARGES
-----------------------
   0 S :    0.113093
   1 C :   -0.145164
   2 C :   -0.071769
   3 C :    0.046761
   4 C :   -0.172647
   5 H :   -0.017366
   6 C :    0.136275
   7 H :    0.006143
   8 H :    0.026262
   9 C :   -0.083518
  10 H :    0.025667
  11 H :    0.038173
  12 C :   -0.070327
  13 H :    0.044278
  14 H :    0.039970
  15 H :    0.026771
  16 S :    0.124114
  17 C :   -0.084170
  18 C :   -0.057885
  19 C :    0.005707
  20 C :   -0.202568
  21 H :    0.026892
  22 C :    0.080792
  23 H :    0.022217
  24 H :    0.021734
  25 C :   -0.031320
  26 H :    0.010764
  27 H :   -0.013078
  28 C :   -0.010737
  29 H :    0.031549
  30 H :    0.033082
  31 H :    0.000869
  32 H :    0.041541
  33 H :    0.057892
Sum of atomic charges:   -0.0000000

LOEWDIN ATOMIC CHARGES
----------------------
   0 S :    0.403749
   1 C :   -0.180211
   2 C :   -0.054708
   3 C :   -0.055721
   4 C :   -0.204784
   5 H :    0.016840
   6 C :   -0.029263
   7 H :    0.033277
   8 H :    0.025972
   9 C :   -0.037071
  10 H :    0.023494
  11 H :    0.028462
  12 C :   -0.065323
  13 H :    0.034630
  14 H :    0.023192
  15 H :    0.019088
  16 S :    0.421461
  17 C :   -0.204571
  18 C :   -0.073110
  19 C :   -0.048083
  20 C :   -0.201121
  21 H :    0.035868
  22 C :   -0.018823
  23 H :    0.022008
  24 H :    0.031563
  25 C :   -0.034750
  26 H :    0.024133
  27 H :    0.003175
  28 C :   -0.060460
  29 H :    0.030606
  30 H :    0.030399
  31 H :    0.012294
  32 H :    0.023128
  33 H :    0.024663

  Mayer bond orders larger than 0.100000
B(  0-S ,  1-C ) :   1.1211 B(  0-S ,  4-C ) :   1.1619 B(  1-C ,  2-C ) :   1.6279
B(  1-C , 32-H ) :   0.9691 B(  2-C ,  3-C ) :   1.2196 B(  2-C ,  6-C ) :   1.0154
B(  3-C ,  4-C ) :   1.5833 B(  3-C ,  5-H ) :   0.9930 B(  4-C , 20-C ) :   1.0569
B(  6-C ,  7-H ) :   0.9241 B(  6-C ,  8-H ) :   0.9295 B(  6-C ,  9-C ) :   1.0745
B(  9-C , 10-H ) :   0.9536 B(  9-C , 11-H ) :   0.9615 B(  9-C , 12-C ) :   1.0772
B( 12-C , 13-H ) :   0.9728 B( 12-C , 14-H ) :   0.9750 B( 12-C , 15-H ) :   0.9722
B( 16-S , 17-C ) :   1.1818 B( 16-S , 20-C ) :   1.1319 B( 17-C , 18-C ) :   1.5952
B( 17-C , 20-C ) :   0.1020 B( 17-C , 33-H ) :   0.9606 B( 18-C , 19-C ) :   1.2533
B( 18-C , 21-H ) :   0.9893 B( 19-C , 20-C ) :   1.6290 B( 19-C , 22-C ) :   1.0309
B( 22-C , 23-H ) :   0.9369 B( 22-C , 24-H ) :   0.9424 B( 22-C , 25-C ) :   1.0531
B( 25-C , 26-H ) :   0.9500 B( 25-C , 27-H ) :   0.9581 B( 25-C , 28-C ) :   1.0798
B( 28-C , 29-H ) :   0.9735 B( 28-C , 30-H ) :   0.9744 B( 28-C , 31-H ) :   0.9720

Dispersion correction           -0.015109358
FINAL SINGLE POINT ENERGY     -1339.858711552437

DIPOLE MOMENT
-------------
                                X             Y             Z
Electronic contribution:     10.30493     -27.07230      -5.43866
Nuclear contribution   :    -10.51889      27.56331       5.57582
                        -----------------------------------------
Total Dipole Moment    :     -0.21397       0.49101       0.13716
                        -----------------------------------------
Magnitude (a.u.)       :      0.55289
Magnitude (Debye)      :      1.40533

Rotational constants in cm-1:     0.016147     0.010373     0.008060
Rotational constants in MHz :   484.084155   310.984600   241.640954

                             ****ORCA TERMINATED NORMALLY****
TOTAL RUN TIME: 0 days 0 hours 0 minutes 35 seconds 491 msec
