                         Program Version 4.2.1 -  RELEASE  -
|  1> ! wB97X-D3 SP def2-SVP
|  2> %pal
|  3> nprocs 16
|  4> end
|  5>
|  6> * xyz 0 1
|  7> S 	 -15.9221 	 -8.70346 	 82.9382
|  8> C 	 -15.7744 	 -10.1825 	 81.9454
|  9> C 	 -14.7374 	 -10.9661 	 82.4804
| 10> C 	 -14.0241 	 -10.2681 	 83.5302
| 11> C 	 -14.4364 	 -9.03212 	 83.8246
| 12> H 	 -13.2652 	 -10.6508 	 84.0959
| 13> C 	 -14.3962 	 -12.3533 	 81.9359
| 14> H 	 -14.7955 	 -12.396 	 80.9154
| 15> H 	 -14.8711 	 -13.0717 	 82.5732
| 16> C 	 -12.8296 	 -12.5748 	 81.9641
| 17> H 	 -12.3528 	 -11.6285 	 81.6521
| 18> H 	 -12.6471 	 -12.7345 	 83.037
| 19> C 	 -12.3029 	 -13.8484 	 81.173
| 20> H 	 -12.9663 	 -14.7531 	 81.2377
| 21> H 	 -12.1221 	 -13.6038 	 80.1193
| 22> H 	 -11.3569 	 -14.0035 	 81.7193
| 23> S 	 -14.9219 	 -7.84338 	 86.1528
| 24> C 	 -13.7843 	 -6.80435 	 86.8217
| 25> C 	 -12.5972 	 -6.62876 	 86.0824
| 26> C 	 -12.7021 	 -7.42935 	 84.9029
| 27> C 	 -13.8525 	 -8.14614 	 84.8794
| 28> H 	 -11.8741 	 -5.91483 	 86.5053
| 29> C 	 -11.6128 	 -7.50219 	 83.8187
| 30> H 	 -11.301 	 -8.51856 	 83.6671
| 31> H 	 -10.7938 	 -6.98508 	 84.1803
| 32> C 	 -12.037 	 -6.89894 	 82.5081
| 33> H 	 -12.2099 	 -5.84458 	 82.6967
| 34> H 	 -13.0087 	 -7.23514 	 82.1622
| 35> C 	 -10.9874 	 -7.07598 	 81.4145
| 36> H 	 -10.0228 	 -6.60394 	 81.5952
| 37> H 	 -11.3531 	 -6.6639 	 80.4333
| 38> H 	 -10.8358 	 -8.09577 	 81.2594
| 39> H 	 -16.4812 	 -10.5217 	 81.1949
| 40> H 	 -13.8411 	 -6.25881 	 87.7644
| 41> *
| 42>
| 43>                          ****END OF INPUT****

CARTESIAN COORDINATES (ANGSTROEM)
---------------------------------
  S    -15.922100   -8.703460   82.938200
  C    -15.774400  -10.182500   81.945400
  C    -14.737400  -10.966100   82.480400
  C    -14.024100  -10.268100   83.530200
  C    -14.436400   -9.032120   83.824600
  H    -13.265200  -10.650800   84.095900
  C    -14.396200  -12.353300   81.935900
  H    -14.795500  -12.396000   80.915400
  H    -14.871100  -13.071700   82.573200
  C    -12.829600  -12.574800   81.964100
  H    -12.352800  -11.628500   81.652100
  H    -12.647100  -12.734500   83.037000
  C    -12.302900  -13.848400   81.173000
  H    -12.966300  -14.753100   81.237700
  H    -12.122100  -13.603800   80.119300
  H    -11.356900  -14.003500   81.719300
  S    -14.921900   -7.843380   86.152800
  C    -13.784300   -6.804350   86.821700
  C    -12.597200   -6.628760   86.082400
  C    -12.702100   -7.429350   84.902900
  C    -13.852500   -8.146140   84.879400
  H    -11.874100   -5.914830   86.505300
  C    -11.612800   -7.502190   83.818700
  H    -11.301000   -8.518560   83.667100
  H    -10.793800   -6.985080   84.180300
  C    -12.037000   -6.898940   82.508100
  H    -12.209900   -5.844580   82.696700
  H    -13.008700   -7.235140   82.162200
  C    -10.987400   -7.075980   81.414500
  H    -10.022800   -6.603940   81.595200
  H    -11.353100   -6.663900   80.433300
  H    -10.835800   -8.095770   81.259400
  H    -16.481200  -10.521700   81.194900
  H    -13.841100   -6.258810   87.764400

 Total Charge           Charge          ....    0
 Multiplicity           Mult            ....    1
 Number of Electrons    NEL             ....  134
 Basis Dimension        Dim             ....  322

ORBITAL ENERGIES
----------------

  NO   OCC          E(Eh)            E(eV)
   0   2.0000     -88.969528     -2420.9839
   1   2.0000     -88.962121     -2420.7824
   2   2.0000     -10.325751      -280.9780
   3   2.0000     -10.317622      -280.7568
   4   2.0000     -10.317458      -280.7523
   5   2.0000     -10.310738      -280.5694
   6   2.0000     -10.304289      -280.3940
   7   2.0000     -10.302246      -280.3384
   8   2.0000     -10.296642      -280.1859
   9   2.0000     -10.295589      -280.1572
  10   2.0000     -10.293167      -280.0913
  11   2.0000     -10.289583      -279.9938
  12   2.0000     -10.281982      -279.7869
  13   2.0000     -10.280064      -279.7348
  14   2.0000     -10.274522      -279.5840
  15   2.0000     -10.270965      -279.4872
  16   2.0000      -8.086473      -220.0441
  17   2.0000      -8.075923      -219.7570
  18   2.0000      -6.044566      -164.4810
  19   2.0000      -6.040698      -164.3758
  20   2.0000      -6.037505      -164.2889
  21   2.0000      -6.034567      -164.2089
  22   2.0000      -6.030579      -164.1004
  23   2.0000      -6.026567      -163.9912
  24   2.0000      -1.016908       -27.6715
  25   2.0000      -0.984513       -26.7900
  26   2.0000      -0.913481       -24.8571
  27   2.0000      -0.902107       -24.5476
  28   2.0000      -0.864795       -23.5323
  29   2.0000      -0.855466       -23.2784
  30   2.0000      -0.837928       -22.8012
  31   2.0000      -0.817729       -22.2515
  32   2.0000      -0.783276       -21.3140
  33   2.0000      -0.769275       -20.9330
  34   2.0000      -0.706996       -19.2383
  35   2.0000      -0.696785       -18.9605
  36   2.0000      -0.683674       -18.6037
  37   2.0000      -0.663254       -18.0481
  38   2.0000      -0.643763       -17.5177
  39   2.0000      -0.620553       -16.8861
  40   2.0000      -0.594775       -16.1846
  41   2.0000      -0.571448       -15.5499
  42   2.0000      -0.568245       -15.4627
  43   2.0000      -0.555043       -15.1035
  44   2.0000      -0.524608       -14.2753
  45   2.0000      -0.520495       -14.1634
  46   2.0000      -0.509821       -13.8729
  47   2.0000      -0.509687       -13.8693
  48   2.0000      -0.503362       -13.6972
  49   2.0000      -0.498490       -13.5646
  50   2.0000      -0.490993       -13.3606
  51   2.0000      -0.488849       -13.3023
  52   2.0000      -0.474013       -12.8985
  53   2.0000      -0.469125       -12.7655
  54   2.0000      -0.460799       -12.5390
  55   2.0000      -0.449673       -12.2362
  56   2.0000      -0.442060       -12.0291
  57   2.0000      -0.437619       -11.9082
  58   2.0000      -0.432067       -11.7571
  59   2.0000      -0.423785       -11.5318
  60   2.0000      -0.421577       -11.4717
  61   2.0000      -0.414792       -11.2871
  62   2.0000      -0.406037       -11.0488
  63   2.0000      -0.339546        -9.2395
  64   2.0000      -0.336037        -9.1440
  65   2.0000      -0.322992        -8.7891
  66   2.0000      -0.302116        -8.2210
  67   0.0000       0.044613         1.2140
  68   0.0000       0.062795         1.7087
  69   0.0000       0.118634         3.2282
  70   0.0000       0.125712         3.4208
  71   0.0000       0.132551         3.6069

MULLIKEN ATOMIC CHARGES
-----------------------
   0 S :    0.091303
   1 C :   -0.130231
   2 C :   -0.112233
   3 C :    0.067190
   4 C :   -0.138388
   5 H :   -0.028862
   6 C :    0.102792
   7 H :    0.024991
   8 H :    0.038348
   9 C :   -0.155410
  10 H :    0.048424
  11 H :    0.040909
  12 C :   -0.051282
  13 H :    0.046557
  14 H :    0.046881
  15 H :    0.042924
  16 S :    0.153082
  17 C :   -0.096418
  18 C :   -0.075605
  19 C :   -0.032440
  20 C :   -0.198312
  21 H :    0.031348
  22 C :    0.161645
  23 H :    0.013487
  24 H :   -0.013949
  25 C :   -0.082916
  26 H :    0.017325
  27 H :    0.034698
  28 C :   -0.022621
  29 H :    0.026352
  30 H :    0.033696
  31 H :    0.013879
  32 H :    0.055126
  33 H :    0.047709
Sum of atomic charges:    0.0000000

LOEWDIN ATOMIC CHARGES
----------------------
   0 S :    0.372799
   1 C :   -0.191157
   2 C :   -0.057540
   3 C :   -0.064353
   4 C :   -0.187434
   5 H :    0.015264
   6 C :   -0.029875
   7 H :    0.028691
   8 H :    0.029792
   9 C :   -0.043547
  10 H :    0.027649
  11 H :    0.023009
  12 C :   -0.071477
  13 H :    0.031796
  14 H :    0.027211
  15 H :    0.032948
  16 S :    0.472408
  17 C :   -0.211128
  18 C :   -0.078171
  19 C :   -0.048189
  20 C :   -0.221186
  21 H :    0.040050
  22 C :   -0.018020
  23 H :    0.026028
  24 H :    0.018758
  25 C :   -0.038747
  26 H :    0.022812
  27 H :    0.023880
  28 C :   -0.061482
  29 H :    0.023065
  30 H :    0.032841
  31 H :    0.014468
  32 H :    0.031104
  33 H :    0.027733

  Mayer bond orders larger than 0.100000
B(  0-S ,  1-C ) :   1.1231 B(  0-S ,  4-C ) :   1.1247 B(  1-C ,  2-C ) :   1.6277
B(  1-C , 32-H ) :   0.9701 B(  2-C ,  3-C ) :   1.2034 B(  2-C ,  6-C ) :   1.0193
B(  3-C ,  4-C ) :   1.6231 B(  3-C ,  5-H ) :   1.0080 B(  4-C , 20-C ) :   0.9848
B(  6-C ,  7-H ) :   0.9479 B(  6-C ,  8-H ) :   0.9306 B(  6-C ,  9-C ) :   1.0626
B(  9-C , 10-H ) :   0.9652 B(  9-C , 11-H ) :   0.9546 B(  9-C , 12-C ) :   1.0617
B( 12-C , 13-H ) :   0.9758 B( 12-C , 14-H ) :   0.9783 B( 12-C , 15-H ) :   0.9776
B( 16-S , 17-C ) :   1.1892 B( 16-S , 20-C ) :   1.1691 B( 17-C , 18-C ) :   1.6071
B( 17-C , 33-H ) :   0.9609 B( 18-C , 19-C ) :   1.2391 B( 18-C , 21-H ) :   0.9920
B( 19-C , 20-C ) :   1.6195 B( 19-C , 22-C ) :   1.0310 B( 22-C , 23-H ) :   0.9335
B( 22-C , 24-H ) :   0.9197 B( 22-C , 25-C ) :   1.0659 B( 25-C , 26-H ) :   0.9479
B( 25-C , 27-H ) :   0.9567 B( 25-C , 28-C ) :   1.0883 B( 28-C , 29-H ) :   0.9734
B( 28-C , 30-H ) :   0.9723 B( 28-C , 31-H ) :   0.9740

Dispersion correction           -0.014476363
FINAL SINGLE POINT ENERGY     -1339.870008619247

DIPOLE MOMENT
-------------
                                X             Y             Z
Electronic contribution:    -20.28669      11.59905      17.21486
Nuclear contribution   :     20.74353     -11.91461     -17.27190
                        -----------------------------------------
Total Dipole Moment    :      0.45684      -0.31556      -0.05704
                        -----------------------------------------
Magnitude (a.u.)       :      0.55815
Magnitude (Debye)      :      1.41871

Rotational constants in cm-1:     0.017842     0.008869     0.007402
Rotational constants in MHz :   534.889479   265.893107   221.892453

                             ****ORCA TERMINATED NORMALLY****
TOTAL RUN TIME: 0 days 0 hours 0 minutes 32 seconds 50 msec
