                         Program Version 4.2.1 -  RELEASE  -
|  1> ! wB97X-D3 SP def2-SVP
|  2> %pal
|  3> nprocs 16
|  4> end
|  5>
|  6> * xyz 0 1
|  7> S 	 -38.1797 	 52.3456 	 97.8068
|  8> C 	 -37.5048 	 51.193 	 98.8807
|  9> C 	 -37.5424 	 49.8962 	 98.4551
| 10> C 	 -38.0722 	 49.8437 	 97.1213
| 11> C 	 -38.486 	 51.0898 	 96.6649
| 12> H 	 -38.1009 	 48.9499 	 96.4946
| 13> C 	 -36.8539 	 48.7466 	 99.1775
| 14> H 	 -35.9638 	 49.2012 	 99.5842
| 15> H 	 -36.5245 	 48.022 	 98.4719
| 16> C 	 -37.6276 	 48.0305 	 100.303
| 17> H 	 -36.9364 	 47.3052 	 100.787
| 18> H 	 -37.7739 	 48.6637 	 101.161
| 19> C 	 -38.8846 	 47.2515 	 99.9133
| 20> H 	 -38.7138 	 46.3578 	 99.2445
| 21> H 	 -39.3418 	 46.8574 	 100.807
| 22> H 	 -39.6277 	 47.901 	 99.5431
| 23> S 	 -38.7748 	 51.3031 	 93.9389
| 24> C 	 -40.3302 	 51.4367 	 93.285
| 25> C 	 -41.3273 	 51.3785 	 94.2629
| 26> C 	 -40.7739 	 51.2221 	 95.5915
| 27> C 	 -39.3851 	 51.2386 	 95.5814
| 28> H 	 -42.3276 	 51.1802 	 93.9342
| 29> C 	 -41.6003 	 51.1866 	 96.8057
| 30> H 	 -42.5713 	 51.773 	 96.8368
| 31> H 	 -41.0595 	 51.7921 	 97.5135
| 32> C 	 -41.706 	 49.8136 	 97.4381
| 33> H 	 -41.6672 	 49.7482 	 98.5355
| 34> H 	 -40.7973 	 49.2624 	 97.1689
| 35> C 	 -42.9841 	 49.1116 	 97.0534
| 36> H 	 -43.892 	 49.4204 	 97.637
| 37> H 	 -42.916 	 48.0187 	 97.2386
| 38> H 	 -43.2217 	 49.2372 	 95.9782
| 39> H 	 -36.9762 	 51.5058 	 99.7209
| 40> H 	 -40.5299 	 51.3261 	 92.2411
| 41> *
| 42>
| 43>                          ****END OF INPUT****

CARTESIAN COORDINATES (ANGSTROEM)
---------------------------------
  S    -38.179700   52.345600   97.806800
  C    -37.504800   51.193000   98.880700
  C    -37.542400   49.896200   98.455100
  C    -38.072200   49.843700   97.121300
  C    -38.486000   51.089800   96.664900
  H    -38.100900   48.949900   96.494600
  C    -36.853900   48.746600   99.177500
  H    -35.963800   49.201200   99.584200
  H    -36.524500   48.022000   98.471900
  C    -37.627600   48.030500  100.303000
  H    -36.936400   47.305200  100.787000
  H    -37.773900   48.663700  101.161000
  C    -38.884600   47.251500   99.913300
  H    -38.713800   46.357800   99.244500
  H    -39.341800   46.857400  100.807000
  H    -39.627700   47.901000   99.543100
  S    -38.774800   51.303100   93.938900
  C    -40.330200   51.436700   93.285000
  C    -41.327300   51.378500   94.262900
  C    -40.773900   51.222100   95.591500
  C    -39.385100   51.238600   95.581400
  H    -42.327600   51.180200   93.934200
  C    -41.600300   51.186600   96.805700
  H    -42.571300   51.773000   96.836800
  H    -41.059500   51.792100   97.513500
  C    -41.706000   49.813600   97.438100
  H    -41.667200   49.748200   98.535500
  H    -40.797300   49.262400   97.168900
  C    -42.984100   49.111600   97.053400
  H    -43.892000   49.420400   97.637000
  H    -42.916000   48.018700   97.238600
  H    -43.221700   49.237200   95.978200
  H    -36.976200   51.505800   99.720900
  H    -40.529900   51.326100   92.241100

 Total Charge           Charge          ....    0
 Multiplicity           Mult            ....    1
 Number of Electrons    NEL             ....  134
 Basis Dimension        Dim             ....  322

ORBITAL ENERGIES
----------------

  NO   OCC          E(Eh)            E(eV)
   0   2.0000     -88.969838     -2420.9924
   1   2.0000     -88.962328     -2420.7880
   2   2.0000     -10.320644      -280.8390
   3   2.0000     -10.317113      -280.7429
   4   2.0000     -10.309557      -280.5373
   5   2.0000     -10.306695      -280.4594
   6   2.0000     -10.300721      -280.2969
   7   2.0000     -10.300258      -280.2843
   8   2.0000     -10.297677      -280.2140
   9   2.0000     -10.291841      -280.0552
  10   2.0000     -10.289770      -279.9989
  11   2.0000     -10.289272      -279.9853
  12   2.0000     -10.282592      -279.8035
  13   2.0000     -10.278651      -279.6963
  14   2.0000     -10.277569      -279.6669
  15   2.0000     -10.276624      -279.6412
  16   2.0000      -8.085356      -220.0137
  17   2.0000      -8.078110      -219.8165
  18   2.0000      -6.043600      -164.4547
  19   2.0000      -6.039744      -164.3498
  20   2.0000      -6.036454      -164.2603
  21   2.0000      -6.036358      -164.2577
  22   2.0000      -6.032373      -164.1492
  23   2.0000      -6.029098      -164.0601
  24   2.0000      -1.013786       -27.5865
  25   2.0000      -0.988350       -26.8944
  26   2.0000      -0.914077       -24.8733
  27   2.0000      -0.910897       -24.7868
  28   2.0000      -0.873274       -23.7630
  29   2.0000      -0.853663       -23.2294
  30   2.0000      -0.847458       -23.0605
  31   2.0000      -0.813208       -22.1285
  32   2.0000      -0.787726       -21.4351
  33   2.0000      -0.771573       -20.9956
  34   2.0000      -0.706382       -19.2216
  35   2.0000      -0.705554       -19.1991
  36   2.0000      -0.687855       -18.7175
  37   2.0000      -0.660231       -17.9658
  38   2.0000      -0.649701       -17.6793
  39   2.0000      -0.613750       -16.7010
  40   2.0000      -0.596756       -16.2385
  41   2.0000      -0.574672       -15.6376
  42   2.0000      -0.553234       -15.0543
  43   2.0000      -0.550656       -14.9841
  44   2.0000      -0.547532       -14.8991
  45   2.0000      -0.535337       -14.5673
  46   2.0000      -0.514945       -14.0124
  47   2.0000      -0.511787       -13.9264
  48   2.0000      -0.502327       -13.6690
  49   2.0000      -0.497724       -13.5438
  50   2.0000      -0.487425       -13.2635
  51   2.0000      -0.480538       -13.0761
  52   2.0000      -0.472423       -12.8553
  53   2.0000      -0.466277       -12.6880
  54   2.0000      -0.461650       -12.5621
  55   2.0000      -0.450667       -12.2633
  56   2.0000      -0.440247       -11.9797
  57   2.0000      -0.438862       -11.9420
  58   2.0000      -0.431975       -11.7546
  59   2.0000      -0.429582       -11.6895
  60   2.0000      -0.422196       -11.4885
  61   2.0000      -0.414638       -11.2829
  62   2.0000      -0.398665       -10.8482
  63   2.0000      -0.336930        -9.1683
  64   2.0000      -0.327136        -8.9018
  65   2.0000      -0.323246        -8.7960
  66   2.0000      -0.304909        -8.2970
  67   0.0000       0.043675         1.1885
  68   0.0000       0.056287         1.5317
  69   0.0000       0.112957         3.0737
  70   0.0000       0.120757         3.2860
  71   0.0000       0.130040         3.5386

MULLIKEN ATOMIC CHARGES
-----------------------
   0 S :    0.135415
   1 C :   -0.104408
   2 C :   -0.081134
   3 C :    0.041155
   4 C :   -0.185631
   5 H :    0.023541
   6 C :    0.097651
   7 H :    0.022092
   8 H :    0.013127
   9 C :   -0.073546
  10 H :    0.022677
  11 H :    0.016898
  12 C :   -0.036921
  13 H :    0.041707
  14 H :    0.022709
  15 H :    0.028922
  16 S :    0.119089
  17 C :   -0.093579
  18 C :   -0.031049
  19 C :   -0.020656
  20 C :   -0.178983
  21 H :    0.018388
  22 C :    0.073450
  23 H :    0.035994
  24 H :    0.002897
  25 C :   -0.063799
  26 H :    0.029704
  27 H :    0.031460
  28 C :   -0.076120
  29 H :    0.037429
  30 H :    0.029621
  31 H :    0.028041
  32 H :    0.020626
  33 H :    0.053232
Sum of atomic charges:    0.0000000

LOEWDIN ATOMIC CHARGES
----------------------
   0 S :    0.444163
   1 C :   -0.191747
   2 C :   -0.065417
   3 C :   -0.046466
   4 C :   -0.218104
   5 H :    0.034228
   6 C :   -0.025343
   7 H :    0.033863
   8 H :    0.026367
   9 C :   -0.043788
  10 H :    0.027987
  11 H :    0.021099
  12 C :   -0.066753
  13 H :    0.032816
  14 H :    0.027542
  15 H :    0.019258
  16 S :    0.431167
  17 C :   -0.201814
  18 C :   -0.074327
  19 C :   -0.047113
  20 C :   -0.211834
  21 H :    0.027961
  22 C :   -0.045810
  23 H :    0.039957
  24 H :    0.027430
  25 C :   -0.045591
  26 H :    0.025645
  27 H :    0.026838
  28 C :   -0.074455
  29 H :    0.027680
  30 H :    0.026101
  31 H :    0.022200
  32 H :    0.011758
  33 H :    0.024501

  Mayer bond orders larger than 0.100000
B(  0-S ,  1-C ) :   1.1639 B(  0-S ,  4-C ) :   1.1637 B(  1-C ,  2-C ) :   1.6017
B(  1-C , 32-H ) :   0.9722 B(  2-C ,  3-C ) :   1.2558 B(  2-C ,  6-C ) :   1.0071
B(  3-C ,  4-C ) :   1.5623 B(  3-C ,  5-H ) :   0.9884 B(  4-C , 20-C ) :   1.0156
B(  6-C ,  7-H ) :   0.9385 B(  6-C ,  8-H ) :   0.9438 B(  6-C ,  9-C ) :   1.0793
B(  9-C , 10-H ) :   0.9509 B(  9-C , 11-H ) :   0.9540 B(  9-C , 12-C ) :   1.0815
B( 12-C , 13-H ) :   0.9740 B( 12-C , 14-H ) :   0.9673 B( 12-C , 15-H ) :   0.9754
B( 16-S , 17-C ) :   1.1862 B( 16-S , 20-C ) :   1.1456 B( 17-C , 18-C ) :   1.5863
B( 17-C , 33-H ) :   0.9668 B( 18-C , 19-C ) :   1.2513 B( 18-C , 21-H ) :   0.9905
B( 19-C , 20-C ) :   1.5849 B( 19-C , 22-C ) :   1.0557 B( 22-C , 23-H ) :   0.9452
B( 22-C , 24-H ) :   0.9102 B( 22-C , 25-C ) :   1.0503 B( 25-C , 26-H ) :   0.9506
B( 25-C , 27-H ) :   0.9509 B( 25-C , 28-C ) :   1.0808 B( 28-C , 29-H ) :   0.9753
B( 28-C , 30-H ) :   0.9724 B( 28-C , 31-H ) :   0.9755

Dispersion correction           -0.016025181
FINAL SINGLE POINT ENERGY     -1339.878363874069

DIPOLE MOMENT
-------------
                                X             Y             Z
Electronic contribution:     11.29205      20.34230     -17.14035
Nuclear contribution   :    -11.31569     -20.86006      17.58566
                        -----------------------------------------
Total Dipole Moment    :     -0.02364      -0.51777       0.44531
                        -----------------------------------------
Magnitude (a.u.)       :      0.68333
Magnitude (Debye)      :      1.73690

Rotational constants in cm-1:     0.019044     0.009729     0.007819
Rotational constants in MHz :   570.914262   291.659802   234.416544

                             ****ORCA TERMINATED NORMALLY****
TOTAL RUN TIME: 0 days 0 hours 0 minutes 34 seconds 72 msec
