                         Program Version 4.2.1 -  RELEASE  -
|  1> ! wB97X-D3 SP def2-SVP
|  2> %pal
|  3> nprocs 16
|  4> end
|  5>
|  6> * xyz 0 1
|  7> S 	 38.6261 	 23.5215 	 97.6712
|  8> C 	 40.3065 	 23.8915 	 97.5806
|  9> C 	 41.0497 	 22.9998 	 96.8003
| 10> C 	 40.2168 	 21.8934 	 96.3459
| 11> C 	 38.8844 	 22.1087 	 96.648
| 12> H 	 40.4761 	 21.0503 	 95.8155
| 13> C 	 42.4833 	 23.1668 	 96.3405
| 14> H 	 42.8824 	 22.2622 	 96.7503
| 15> H 	 43.0736 	 23.9306 	 96.9587
| 16> C 	 42.8385 	 23.374 	 94.87
| 17> H 	 42.3534 	 24.2879 	 94.451
| 18> H 	 43.9045 	 23.6655 	 94.7649
| 19> C 	 42.3762 	 22.2233 	 93.9144
| 20> H 	 41.2869 	 22.0265 	 93.9642
| 21> H 	 42.6985 	 22.4508 	 92.8866
| 22> H 	 42.8816 	 21.3099 	 94.1545
| 23> S 	 36.4445 	 20.9739 	 97.4228
| 24> C 	 35.6211 	 19.7515 	 96.4838
| 25> C 	 36.2713 	 19.6579 	 95.3002
| 26> C 	 37.5614 	 20.294 	 95.2535
| 27> C 	 37.7812 	 21.1755 	 96.2565
| 28> H 	 35.7977 	 19.0738 	 94.5221
| 29> C 	 38.4598 	 20.078 	 94.0372
| 30> H 	 39.3767 	 20.6702 	 94.041
| 31> H 	 37.862 	 20.3579 	 93.2145
| 32> C 	 38.7422 	 18.5577 	 93.8849
| 33> H 	 39.5131 	 18.5194 	 93.0514
| 34> H 	 37.839 	 17.9652 	 93.6283
| 35> C 	 39.3266 	 18.0413 	 95.2012
| 36> H 	 39.7627 	 17.0835 	 95.0298
| 37> H 	 38.6332 	 17.9646 	 96.0432
| 38> H 	 40.1341 	 18.6298 	 95.6469
| 39> H 	 40.7907 	 24.6857 	 98.1286
| 40> H 	 34.6985 	 19.1932 	 96.6536
| 41> *
| 42>
| 43>                          ****END OF INPUT****

CARTESIAN COORDINATES (ANGSTROEM)
---------------------------------
  S     38.626100   23.521500   97.671200
  C     40.306500   23.891500   97.580600
  C     41.049700   22.999800   96.800300
  C     40.216800   21.893400   96.345900
  C     38.884400   22.108700   96.648000
  H     40.476100   21.050300   95.815500
  C     42.483300   23.166800   96.340500
  H     42.882400   22.262200   96.750300
  H     43.073600   23.930600   96.958700
  C     42.838500   23.374000   94.870000
  H     42.353400   24.287900   94.451000
  H     43.904500   23.665500   94.764900
  C     42.376200   22.223300   93.914400
  H     41.286900   22.026500   93.964200
  H     42.698500   22.450800   92.886600
  H     42.881600   21.309900   94.154500
  S     36.444500   20.973900   97.422800
  C     35.621100   19.751500   96.483800
  C     36.271300   19.657900   95.300200
  C     37.561400   20.294000   95.253500
  C     37.781200   21.175500   96.256500
  H     35.797700   19.073800   94.522100
  C     38.459800   20.078000   94.037200
  H     39.376700   20.670200   94.041000
  H     37.862000   20.357900   93.214500
  C     38.742200   18.557700   93.884900
  H     39.513100   18.519400   93.051400
  H     37.839000   17.965200   93.628300
  C     39.326600   18.041300   95.201200
  H     39.762700   17.083500   95.029800
  H     38.633200   17.964600   96.043200
  H     40.134100   18.629800   95.646900
  H     40.790700   24.685700   98.128600
  H     34.698500   19.193200   96.653600

 Total Charge           Charge          ....    0
 Multiplicity           Mult            ....    1
 Number of Electrons    NEL             ....  134
 Basis Dimension        Dim             ....  322

ORBITAL ENERGIES
----------------

  NO   OCC          E(Eh)            E(eV)
   0   2.0000     -88.971753     -2421.0445
   1   2.0000     -88.957627     -2420.6601
   2   2.0000     -10.335871      -281.2533
   3   2.0000     -10.329370      -281.0764
   4   2.0000     -10.316908      -280.7373
   5   2.0000     -10.313693      -280.6499
   6   2.0000     -10.307729      -280.4876
   7   2.0000     -10.301409      -280.3156
   8   2.0000     -10.297634      -280.2129
   9   2.0000     -10.297226      -280.2018
  10   2.0000     -10.296432      -280.1802
  11   2.0000     -10.293226      -280.0929
  12   2.0000     -10.290706      -280.0243
  13   2.0000     -10.289335      -279.9870
  14   2.0000     -10.283422      -279.8261
  15   2.0000     -10.271586      -279.5041
  16   2.0000      -8.086350      -220.0408
  17   2.0000      -8.072283      -219.6580
  18   2.0000      -6.044892      -164.4899
  19   2.0000      -6.040950      -164.3826
  20   2.0000      -6.037014      -164.2755
  21   2.0000      -6.031048      -164.1132
  22   2.0000      -6.026772      -163.9968
  23   2.0000      -6.022773      -163.8880
  24   2.0000      -1.006314       -27.3832
  25   2.0000      -0.986212       -26.8362
  26   2.0000      -0.911204       -24.7951
  27   2.0000      -0.908435       -24.7198
  28   2.0000      -0.870327       -23.6828
  29   2.0000      -0.849655       -23.1203
  30   2.0000      -0.837588       -22.7919
  31   2.0000      -0.820082       -22.3156
  32   2.0000      -0.784035       -21.3347
  33   2.0000      -0.777110       -21.1462
  34   2.0000      -0.707459       -19.2509
  35   2.0000      -0.702419       -19.1138
  36   2.0000      -0.693512       -18.8714
  37   2.0000      -0.661694       -18.0056
  38   2.0000      -0.644160       -17.5285
  39   2.0000      -0.618623       -16.8336
  40   2.0000      -0.596203       -16.2235
  41   2.0000      -0.568816       -15.4783
  42   2.0000      -0.556062       -15.1312
  43   2.0000      -0.547894       -14.9089
  44   2.0000      -0.543324       -14.7846
  45   2.0000      -0.532584       -14.4924
  46   2.0000      -0.520129       -14.1534
  47   2.0000      -0.517870       -14.0919
  48   2.0000      -0.501143       -13.6368
  49   2.0000      -0.497666       -13.5422
  50   2.0000      -0.491919       -13.3858
  51   2.0000      -0.486834       -13.2474
  52   2.0000      -0.472683       -12.8624
  53   2.0000      -0.471609       -12.8331
  54   2.0000      -0.457564       -12.4510
  55   2.0000      -0.450969       -12.2715
  56   2.0000      -0.444816       -12.1041
  57   2.0000      -0.439424       -11.9573
  58   2.0000      -0.430278       -11.7085
  59   2.0000      -0.425695       -11.5837
  60   2.0000      -0.424403       -11.5486
  61   2.0000      -0.409756       -11.1500
  62   2.0000      -0.401671       -10.9300
  63   2.0000      -0.358725        -9.7614
  64   2.0000      -0.330539        -8.9944
  65   2.0000      -0.322448        -8.7743
  66   2.0000      -0.289857        -7.8874
  67   0.0000       0.029117         0.7923
  68   0.0000       0.079669         2.1679
  69   0.0000       0.108112         2.9419
  70   0.0000       0.113804         3.0968
  71   0.0000       0.132811         3.6140

MULLIKEN ATOMIC CHARGES
-----------------------
   0 S :    0.127940
   1 C :   -0.109533
   2 C :   -0.082048
   3 C :    0.018252
   4 C :   -0.107193
   5 H :   -0.033028
   6 C :    0.053376
   7 H :    0.023864
   8 H :    0.026610
   9 C :   -0.060461
  10 H :    0.032426
  11 H :    0.036262
  12 C :   -0.075989
  13 H :    0.060386
  14 H :    0.036470
  15 H :    0.022892
  16 S :    0.064885
  17 C :   -0.077458
  18 C :   -0.047352
  19 C :   -0.100476
  20 C :   -0.106045
  21 H :    0.018262
  22 C :    0.105535
  23 H :    0.013369
  24 H :    0.022832
  25 C :   -0.105884
  26 H :    0.041667
  27 H :    0.045304
  28 C :   -0.043208
  29 H :    0.023251
  30 H :    0.046836
  31 H :    0.021236
  32 H :    0.044313
  33 H :    0.062708
Sum of atomic charges:    0.0000000

LOEWDIN ATOMIC CHARGES
----------------------
   0 S :    0.414106
   1 C :   -0.206199
   2 C :   -0.055542
   3 C :   -0.054044
   4 C :   -0.178351
   5 H :    0.011796
   6 C :   -0.045063
   7 H :    0.030393
   8 H :    0.038499
   9 C :   -0.042845
  10 H :    0.029723
  11 H :    0.031155
  12 C :   -0.069843
  13 H :    0.028414
  14 H :    0.030059
  15 H :    0.017940
  16 S :    0.371514
  17 C :   -0.182681
  18 C :   -0.075529
  19 C :   -0.063171
  20 C :   -0.179537
  21 H :    0.029254
  22 C :   -0.025306
  23 H :    0.025490
  24 H :    0.027320
  25 C :   -0.039579
  26 H :    0.031179
  27 H :    0.027587
  28 C :   -0.071622
  29 H :    0.020850
  30 H :    0.031530
  31 H :    0.023917
  32 H :    0.027835
  33 H :    0.040752

  Mayer bond orders larger than 0.100000
B(  0-S ,  1-C ) :   1.1352 B(  0-S ,  4-C ) :   1.1476 B(  1-C ,  2-C ) :   1.6312
B(  1-C , 32-H ) :   0.9650 B(  2-C ,  3-C ) :   1.2090 B(  2-C ,  6-C ) :   1.0123
B(  3-C ,  4-C ) :   1.5816 B(  3-C ,  5-H ) :   0.9998 B(  4-C , 20-C ) :   1.0304
B(  6-C ,  7-H ) :   0.9359 B(  6-C ,  8-H ) :   0.9411 B(  6-C ,  9-C ) :   1.0659
B(  9-C , 10-H ) :   0.9542 B(  9-C , 11-H ) :   0.9541 B(  9-C , 12-C ) :   1.0751
B( 12-C , 13-H ) :   0.9675 B( 12-C , 14-H ) :   0.9695 B( 12-C , 15-H ) :   0.9753
B( 16-S , 17-C ) :   1.1365 B( 16-S , 20-C ) :   1.1035 B( 17-C , 18-C ) :   1.6541
B( 17-C , 33-H ) :   0.9643 B( 18-C , 19-C ) :   1.1977 B( 18-C , 21-H ) :   0.9866
B( 19-C , 20-C ) :   1.6600 B( 19-C , 22-C ) :   1.0325 B( 22-C , 23-H ) :   0.9444
B( 22-C , 24-H ) :   0.9306 B( 22-C , 25-C ) :   1.0680 B( 25-C , 26-H ) :   0.9589
B( 25-C , 27-H ) :   0.9512 B( 25-C , 28-C ) :   1.0735 B( 28-C , 29-H ) :   0.9713
B( 28-C , 30-H ) :   0.9643 B( 28-C , 31-H ) :   0.9747

Dispersion correction           -0.015905538
FINAL SINGLE POINT ENERGY     -1339.870127953507

DIPOLE MOMENT
-------------
                                X             Y             Z
Electronic contribution:    -20.28222      10.25108      18.02213
Nuclear contribution   :     20.73747     -10.54339     -18.57738
                        -----------------------------------------
Total Dipole Moment    :      0.45525      -0.29231      -0.55525
                        -----------------------------------------
Magnitude (a.u.)       :      0.77524
Magnitude (Debye)      :      1.97050

Rotational constants in cm-1:     0.018796     0.010446     0.007216
Rotational constants in MHz :   563.502522   313.163161   216.336922

                             ****ORCA TERMINATED NORMALLY****
TOTAL RUN TIME: 0 days 0 hours 0 minutes 33 seconds 672 msec
