                         Program Version 4.2.1 -  RELEASE  -
|  1> ! wB97X-D3 SP def2-SVP
|  2> %pal
|  3> nprocs 16
|  4> end
|  5>
|  6> * xyz 0 1
|  7> S 	 -22.3683 	 31.938 	 42.1633
|  8> C 	 -20.8497 	 31.7083 	 43.0138
|  9> C 	 -19.7741 	 32.3873 	 42.3523
| 10> C 	 -20.2263 	 33.0696 	 41.1869
| 11> C 	 -21.5505 	 32.9264 	 40.978
| 12> H 	 -19.5519 	 33.5645 	 40.4426
| 13> C 	 -18.2942 	 32.2627 	 42.8552
| 14> H 	 -18.1108 	 33.055 	 43.5166
| 15> H 	 -17.5178 	 32.5341 	 42.0639
| 16> C 	 -17.8536 	 30.9567 	 43.4553
| 17> H 	 -18.1562 	 30.8394 	 44.501
| 18> H 	 -18.1765 	 30.1126 	 42.8127
| 19> C 	 -16.3304 	 30.9481 	 43.6226
| 20> H 	 -15.8746 	 31.8872 	 43.9865
| 21> H 	 -16.059 	 30.1138 	 44.2789
| 22> H 	 -15.9362 	 30.799 	 42.6109
| 23> S 	 -23.905 	 34.2912 	 40.3587
| 24> C 	 -24.2193 	 34.5552 	 38.6251
| 25> C 	 -23.2655 	 34.0256 	 37.771
| 26> C 	 -22.2792 	 33.3126 	 38.5487
| 27> C 	 -22.402 	 33.4656 	 39.9045
| 28> H 	 -23.4585 	 34.0338 	 36.6716
| 29> C 	 -21.2077 	 32.432 	 37.9027
| 30> H 	 -21.8749 	 31.9805 	 37.1434
| 31> H 	 -20.9232 	 31.6133 	 38.6409
| 32> C 	 -20.0466 	 33.2279 	 37.2329
| 33> H 	 -19.7165 	 34.0225 	 37.9057
| 34> H 	 -20.5351 	 33.6665 	 36.343
| 35> C 	 -18.8119 	 32.38 	 36.8678
| 36> H 	 -18.0293 	 33.0094 	 36.378
| 37> H 	 -19.1347 	 31.5398 	 36.2393
| 38> H 	 -18.3018 	 31.938 	 37.7877
| 39> H 	 -20.804 	 31.1903 	 43.8717
| 40> H 	 -25.187 	 34.9448 	 38.2602
| 41> *
| 42>
| 43>                          ****END OF INPUT****

CARTESIAN COORDINATES (ANGSTROEM)
---------------------------------
  S    -22.368300   31.938000   42.163300
  C    -20.849700   31.708300   43.013800
  C    -19.774100   32.387300   42.352300
  C    -20.226300   33.069600   41.186900
  C    -21.550500   32.926400   40.978000
  H    -19.551900   33.564500   40.442600
  C    -18.294200   32.262700   42.855200
  H    -18.110800   33.055000   43.516600
  H    -17.517800   32.534100   42.063900
  C    -17.853600   30.956700   43.455300
  H    -18.156200   30.839400   44.501000
  H    -18.176500   30.112600   42.812700
  C    -16.330400   30.948100   43.622600
  H    -15.874600   31.887200   43.986500
  H    -16.059000   30.113800   44.278900
  H    -15.936200   30.799000   42.610900
  S    -23.905000   34.291200   40.358700
  C    -24.219300   34.555200   38.625100
  C    -23.265500   34.025600   37.771000
  C    -22.279200   33.312600   38.548700
  C    -22.402000   33.465600   39.904500
  H    -23.458500   34.033800   36.671600
  C    -21.207700   32.432000   37.902700
  H    -21.874900   31.980500   37.143400
  H    -20.923200   31.613300   38.640900
  C    -20.046600   33.227900   37.232900
  H    -19.716500   34.022500   37.905700
  H    -20.535100   33.666500   36.343000
  C    -18.811900   32.380000   36.867800
  H    -18.029300   33.009400   36.378000
  H    -19.134700   31.539800   36.239300
  H    -18.301800   31.938000   37.787700
  H    -20.804000   31.190300   43.871700
  H    -25.187000   34.944800   38.260200

 Total Charge           Charge          ....    0
 Multiplicity           Mult            ....    1
 Number of Electrons    NEL             ....  134
 Basis Dimension        Dim             ....  322

ORBITAL ENERGIES
----------------

  NO   OCC          E(Eh)            E(eV)
   0   2.0000     -88.966345     -2420.8973
   1   2.0000     -88.964967     -2420.8598
   2   2.0000     -10.325341      -280.9668
   3   2.0000     -10.322412      -280.8871
   4   2.0000     -10.321989      -280.8756
   5   2.0000     -10.310529      -280.5638
   6   2.0000     -10.310180      -280.5543
   7   2.0000     -10.302303      -280.3399
   8   2.0000     -10.301370      -280.3145
   9   2.0000     -10.296751      -280.1888
  10   2.0000     -10.296286      -280.1762
  11   2.0000     -10.295391      -280.1518
  12   2.0000     -10.292645      -280.0771
  13   2.0000     -10.288626      -279.9677
  14   2.0000     -10.287890      -279.9477
  15   2.0000     -10.281459      -279.7727
  16   2.0000      -8.081068      -219.8970
  17   2.0000      -8.079008      -219.8410
  18   2.0000      -6.039447      -164.3417
  19   2.0000      -6.037536      -164.2897
  20   2.0000      -6.035560      -164.2359
  21   2.0000      -6.033828      -164.1888
  22   2.0000      -6.031998      -164.1390
  23   2.0000      -6.029573      -164.0730
  24   2.0000      -1.004036       -27.3212
  25   2.0000      -0.978496       -26.6262
  26   2.0000      -0.914028       -24.8720
  27   2.0000      -0.901635       -24.5347
  28   2.0000      -0.864827       -23.5331
  29   2.0000      -0.852445       -23.1962
  30   2.0000      -0.845268       -23.0009
  31   2.0000      -0.814297       -22.1581
  32   2.0000      -0.779215       -21.2035
  33   2.0000      -0.764840       -20.8124
  34   2.0000      -0.703765       -19.1504
  35   2.0000      -0.696236       -18.9456
  36   2.0000      -0.687044       -18.6954
  37   2.0000      -0.659364       -17.9422
  38   2.0000      -0.648102       -17.6357
  39   2.0000      -0.615675       -16.7534
  40   2.0000      -0.584241       -15.8980
  41   2.0000      -0.575708       -15.6658
  42   2.0000      -0.565664       -15.3925
  43   2.0000      -0.558483       -15.1971
  44   2.0000      -0.527781       -14.3616
  45   2.0000      -0.522886       -14.2285
  46   2.0000      -0.519400       -14.1336
  47   2.0000      -0.512587       -13.9482
  48   2.0000      -0.495983       -13.4964
  49   2.0000      -0.492565       -13.4034
  50   2.0000      -0.488947       -13.3049
  51   2.0000      -0.476433       -12.9644
  52   2.0000      -0.468976       -12.7615
  53   2.0000      -0.460015       -12.5176
  54   2.0000      -0.454000       -12.3540
  55   2.0000      -0.452779       -12.3207
  56   2.0000      -0.442498       -12.0410
  57   2.0000      -0.438501       -11.9322
  58   2.0000      -0.435212       -11.8427
  59   2.0000      -0.427844       -11.6422
  60   2.0000      -0.426578       -11.6078
  61   2.0000      -0.412074       -11.2131
  62   2.0000      -0.409042       -11.1306
  63   2.0000      -0.344413        -9.3719
  64   2.0000      -0.332260        -9.0413
  65   2.0000      -0.329112        -8.9556
  66   2.0000      -0.292496        -7.9592
  67   0.0000       0.033579         0.9137
  68   0.0000       0.066443         1.8080
  69   0.0000       0.104204         2.8355
  70   0.0000       0.118615         3.2277
  71   0.0000       0.129818         3.5325

MULLIKEN ATOMIC CHARGES
-----------------------
   0 S :    0.112389
   1 C :   -0.082842
   2 C :   -0.073023
   3 C :    0.018988
   4 C :   -0.156573
   5 H :    0.029662
   6 C :    0.052774
   7 H :    0.022129
   8 H :    0.019211
   9 C :   -0.081921
  10 H :    0.032317
  11 H :    0.046879
  12 C :   -0.072124
  13 H :    0.036037
  14 H :    0.040024
  15 H :    0.030373
  16 S :    0.098705
  17 C :   -0.107720
  18 C :   -0.038211
  19 C :   -0.054131
  20 C :   -0.149250
  21 H :    0.042736
  22 C :    0.024967
  23 H :    0.030051
  24 H :    0.052264
  25 C :   -0.069047
  26 H :    0.037540
  27 H :    0.033907
  28 C :   -0.068921
  29 H :    0.047032
  30 H :    0.038117
  31 H :    0.039814
  32 H :    0.002788
  33 H :    0.065057
Sum of atomic charges:   -0.0000000

LOEWDIN ATOMIC CHARGES
----------------------
   0 S :    0.408830
   1 C :   -0.178987
   2 C :   -0.050334
   3 C :   -0.070758
   4 C :   -0.189361
   5 H :    0.043486
   6 C :   -0.037931
   7 H :    0.025982
   8 H :    0.034455
   9 C :   -0.046547
  10 H :    0.024111
  11 H :    0.031594
  12 C :   -0.065572
  13 H :    0.026422
  14 H :    0.027779
  15 H :    0.023341
  16 S :    0.374298
  17 C :   -0.171807
  18 C :   -0.079254
  19 C :   -0.056328
  20 C :   -0.200393
  21 H :    0.043517
  22 C :   -0.039414
  23 H :    0.033796
  24 H :    0.037827
  25 C :   -0.043090
  26 H :    0.022022
  27 H :    0.028586
  28 C :   -0.073889
  29 H :    0.031014
  30 H :    0.025899
  31 H :    0.031151
  32 H :   -0.001780
  33 H :    0.031337

  Mayer bond orders larger than 0.100000
B(  0-S ,  1-C ) :   1.1446 B(  0-S ,  4-C ) :   1.1603 B(  1-C ,  2-C ) :   1.5858
B(  1-C ,  4-C ) :   0.1042 B(  1-C , 32-H ) :   0.9882 B(  2-C ,  3-C ) :   1.2511
B(  2-C ,  6-C ) :   0.9987 B(  3-C ,  4-C ) :   1.5956 B(  3-C ,  5-H ) :   0.9876
B(  4-C , 20-C ) :   1.0099 B(  6-C ,  7-H ) :   0.9247 B(  6-C ,  8-H ) :   0.9516
B(  6-C ,  9-C ) :   1.0778 B(  9-C , 10-H ) :   0.9478 B(  9-C , 11-H ) :   0.9601
B(  9-C , 12-C ) :   1.0764 B( 12-C , 13-H ) :   0.9746 B( 12-C , 14-H ) :   0.9754
B( 12-C , 15-H ) :   0.9753 B( 16-S , 17-C ) :   1.1440 B( 16-S , 20-C ) :   1.1116
B( 17-C , 18-C ) :   1.6493 B( 17-C , 33-H ) :   0.9600 B( 18-C , 19-C ) :   1.2037
B( 18-C , 21-H ) :   0.9801 B( 19-C , 20-C ) :   1.6472 B( 19-C , 22-C ) :   1.0289
B( 22-C , 23-H ) :   0.9346 B( 22-C , 24-H ) :   0.9402 B( 22-C , 25-C ) :   1.0422
B( 25-C , 26-H ) :   0.9615 B( 25-C , 27-H ) :   0.9517 B( 25-C , 28-C ) :   1.0846
B( 28-C , 29-H ) :   0.9741 B( 28-C , 30-H ) :   0.9736 B( 28-C , 31-H ) :   0.9744

Dispersion correction           -0.014025217
FINAL SINGLE POINT ENERGY     -1339.873448069539

DIPOLE MOMENT
-------------
                                X             Y             Z
Electronic contribution:    -29.93404       8.25175       5.69100
Nuclear contribution   :     30.45066      -8.44662      -5.98437
                        -----------------------------------------
Total Dipole Moment    :      0.51662      -0.19487      -0.29337
                        -----------------------------------------
Magnitude (a.u.)       :      0.62525
Magnitude (Debye)      :      1.58926

Rotational constants in cm-1:     0.019265     0.008301     0.006151
Rotational constants in MHz :   577.562672   248.855683   184.387420

                             ****ORCA TERMINATED NORMALLY****
TOTAL RUN TIME: 0 days 0 hours 0 minutes 33 seconds 201 msec
