                         Program Version 4.2.1 -  RELEASE  -
|  1> ! wB97X-D3 SP def2-SVP
|  2> %pal
|  3> nprocs 16
|  4> end
|  5>
|  6> * xyz 0 1
|  7> S 	 -3.81354 	 49.6789 	 49.4625
|  8> C 	 -3.09454 	 49.1672 	 51.0078
|  9> C 	 -3.67141 	 49.823 	 52.0559
| 10> C 	 -4.671 	 50.6678 	 51.584
| 11> C 	 -4.99313 	 50.659 	 50.2547
| 12> H 	 -5.42851 	 51.1949 	 52.1301
| 13> C 	 -3.4184 	 49.5992 	 53.5848
| 14> H 	 -2.73162 	 48.7089 	 53.652
| 15> H 	 -4.36054 	 49.2417 	 53.9972
| 16> C 	 -2.70728 	 50.7443 	 54.3517
| 17> H 	 -1.71531 	 50.9034 	 54
| 18> H 	 -3.34934 	 51.5734 	 54.1821
| 19> C 	 -2.62806 	 50.4333 	 55.8369
| 20> H 	 -1.94108 	 49.6829 	 56.1696
| 21> H 	 -2.25524 	 51.3722 	 56.3765
| 22> H 	 -3.57133 	 50.1087 	 56.1977
| 23> S 	 -5.23599 	 52.1695 	 47.9995
| 24> C 	 -6.66999 	 53.1374 	 47.6662
| 25> C 	 -7.6763 	 52.7945 	 48.5575
| 26> C 	 -7.22933 	 51.9213 	 49.6163
| 27> C 	 -5.9078 	 51.4788 	 49.4553
| 28> H 	 -8.72916 	 53.1574 	 48.3352
| 29> C 	 -8.25534 	 51.5665 	 50.7467
| 30> H 	 -7.95446 	 50.6458 	 51.3397
| 31> H 	 -9.13423 	 51.1807 	 50.3312
| 32> C 	 -8.75979 	 52.6847 	 51.6861
| 33> H 	 -9.50742 	 52.3249 	 52.3841
| 34> H 	 -9.23054 	 53.433 	 51.0416
| 35> C 	 -7.63643 	 53.2182 	 52.592
| 36> H 	 -7.95943 	 53.9837 	 53.3366
| 37> H 	 -6.88129 	 53.7056 	 51.9472
| 38> H 	 -7.07329 	 52.3993 	 53.0589
| 39> H 	 -2.15765 	 48.6419 	 51.024
| 40> H 	 -6.84653 	 53.7448 	 46.7679
| 41> *
| 42>
| 43>                          ****END OF INPUT****

CARTESIAN COORDINATES (ANGSTROEM)
---------------------------------
  S     -3.813540   49.678900   49.462500
  C     -3.094540   49.167200   51.007800
  C     -3.671410   49.823000   52.055900
  C     -4.671000   50.667800   51.584000
  C     -4.993130   50.659000   50.254700
  H     -5.428510   51.194900   52.130100
  C     -3.418400   49.599200   53.584800
  H     -2.731620   48.708900   53.652000
  H     -4.360540   49.241700   53.997200
  C     -2.707280   50.744300   54.351700
  H     -1.715310   50.903400   54.000000
  H     -3.349340   51.573400   54.182100
  C     -2.628060   50.433300   55.836900
  H     -1.941080   49.682900   56.169600
  H     -2.255240   51.372200   56.376500
  H     -3.571330   50.108700   56.197700
  S     -5.235990   52.169500   47.999500
  C     -6.669990   53.137400   47.666200
  C     -7.676300   52.794500   48.557500
  C     -7.229330   51.921300   49.616300
  C     -5.907800   51.478800   49.455300
  H     -8.729160   53.157400   48.335200
  C     -8.255340   51.566500   50.746700
  H     -7.954460   50.645800   51.339700
  H     -9.134230   51.180700   50.331200
  C     -8.759790   52.684700   51.686100
  H     -9.507420   52.324900   52.384100
  H     -9.230540   53.433000   51.041600
  C     -7.636430   53.218200   52.592000
  H     -7.959430   53.983700   53.336600
  H     -6.881290   53.705600   51.947200
  H     -7.073290   52.399300   53.058900
  H     -2.157650   48.641900   51.024000
  H     -6.846530   53.744800   46.767900

 Total Charge           Charge          ....    0
 Multiplicity           Mult            ....    1
 Number of Electrons    NEL             ....  134
 Basis Dimension        Dim             ....  322

ORBITAL ENERGIES
----------------

  NO   OCC          E(Eh)            E(eV)
   0   2.0000     -88.967711     -2420.9345
   1   2.0000     -88.962285     -2420.7868
   2   2.0000     -10.336385      -281.2673
   3   2.0000     -10.328458      -281.0516
   4   2.0000     -10.323000      -280.9031
   5   2.0000     -10.315530      -280.6999
   6   2.0000     -10.314564      -280.6736
   7   2.0000     -10.304240      -280.3926
   8   2.0000     -10.301942      -280.3301
   9   2.0000     -10.301165      -280.3089
  10   2.0000     -10.295583      -280.1571
  11   2.0000     -10.289319      -279.9866
  12   2.0000     -10.285762      -279.8898
  13   2.0000     -10.284949      -279.8677
  14   2.0000     -10.279845      -279.7288
  15   2.0000     -10.278504      -279.6923
  16   2.0000      -8.082331      -219.9314
  17   2.0000      -8.077409      -219.7975
  18   2.0000      -6.040955      -164.3828
  19   2.0000      -6.036757      -164.2685
  20   2.0000      -6.035861      -164.2441
  21   2.0000      -6.033027      -164.1670
  22   2.0000      -6.031798      -164.1336
  23   2.0000      -6.028266      -164.0375
  24   2.0000      -1.011309       -27.5191
  25   2.0000      -0.986211       -26.8362
  26   2.0000      -0.911336       -24.7987
  27   2.0000      -0.904718       -24.6186
  28   2.0000      -0.874862       -23.8062
  29   2.0000      -0.847442       -23.0601
  30   2.0000      -0.841779       -22.9060
  31   2.0000      -0.816597       -22.2207
  32   2.0000      -0.781908       -21.2768
  33   2.0000      -0.775954       -21.1148
  34   2.0000      -0.709492       -19.3063
  35   2.0000      -0.701360       -19.0850
  36   2.0000      -0.692350       -18.8398
  37   2.0000      -0.659209       -17.9380
  38   2.0000      -0.646670       -17.5968
  39   2.0000      -0.619165       -16.8483
  40   2.0000      -0.595404       -16.2018
  41   2.0000      -0.574324       -15.6281
  42   2.0000      -0.560312       -15.2469
  43   2.0000      -0.549051       -14.9404
  44   2.0000      -0.543856       -14.7991
  45   2.0000      -0.527701       -14.3595
  46   2.0000      -0.513243       -13.9660
  47   2.0000      -0.511798       -13.9267
  48   2.0000      -0.507331       -13.8052
  49   2.0000      -0.503953       -13.7133
  50   2.0000      -0.494856       -13.4657
  51   2.0000      -0.474815       -12.9204
  52   2.0000      -0.470454       -12.8017
  53   2.0000      -0.463663       -12.6169
  54   2.0000      -0.460149       -12.5213
  55   2.0000      -0.446756       -12.1569
  56   2.0000      -0.440260       -11.9801
  57   2.0000      -0.438948       -11.9444
  58   2.0000      -0.433834       -11.8052
  59   2.0000      -0.425962       -11.5910
  60   2.0000      -0.417884       -11.3712
  61   2.0000      -0.414918       -11.2905
  62   2.0000      -0.407397       -11.0858
  63   2.0000      -0.354021        -9.6334
  64   2.0000      -0.334665        -9.1067
  65   2.0000      -0.330499        -8.9933
  66   2.0000      -0.293737        -7.9930
  67   0.0000       0.025242         0.6869
  68   0.0000       0.071002         1.9320
  69   0.0000       0.105108         2.8601
  70   0.0000       0.121858         3.3159
  71   0.0000       0.129528         3.5246

MULLIKEN ATOMIC CHARGES
-----------------------
   0 S :    0.079108
   1 C :   -0.128949
   2 C :   -0.043289
   3 C :    0.052169
   4 C :   -0.151461
   5 H :   -0.040113
   6 C :    0.021261
   7 H :    0.018616
   8 H :    0.038805
   9 C :   -0.017821
  10 H :    0.030156
  11 H :    0.027485
  12 C :   -0.049316
  13 H :    0.025850
  14 H :    0.042621
  15 H :    0.017052
  16 S :    0.100110
  17 C :   -0.103718
  18 C :   -0.065792
  19 C :   -0.027622
  20 C :   -0.123671
  21 H :    0.051342
  22 C :    0.041252
  23 H :    0.028943
  24 H :    0.013575
  25 C :   -0.063523
  26 H :    0.031829
  27 H :    0.031660
  28 C :   -0.082360
  29 H :    0.045048
  30 H :    0.039407
  31 H :    0.040428
  32 H :    0.049910
  33 H :    0.071008
Sum of atomic charges:    0.0000000

LOEWDIN ATOMIC CHARGES
----------------------
   0 S :    0.396314
   1 C :   -0.179594
   2 C :   -0.066472
   3 C :   -0.071722
   4 C :   -0.195059
   5 H :    0.022401
   6 C :   -0.026759
   7 H :    0.030520
   8 H :    0.031125
   9 C :   -0.030249
  10 H :    0.025181
  11 H :    0.022102
  12 C :   -0.064868
  13 H :    0.021069
  14 H :    0.036919
  15 H :    0.017570
  16 S :    0.406885
  17 C :   -0.188827
  18 C :   -0.078833
  19 C :   -0.058140
  20 C :   -0.195485
  21 H :    0.044847
  22 C :   -0.036291
  23 H :    0.034285
  24 H :    0.024675
  25 C :   -0.038433
  26 H :    0.025613
  27 H :    0.023189
  28 C :   -0.075125
  29 H :    0.029924
  30 H :    0.028046
  31 H :    0.022127
  32 H :    0.025947
  33 H :    0.037120

  Mayer bond orders larger than 0.100000
B(  0-S ,  1-C ) :   1.1457 B(  0-S ,  4-C ) :   1.1449 B(  1-C ,  2-C ) :   1.6066
B(  1-C ,  4-C ) :   0.1023 B(  1-C , 32-H ) :   0.9669 B(  2-C ,  3-C ) :   1.2504
B(  2-C ,  6-C ) :   1.0015 B(  3-C ,  4-C ) :   1.5949 B(  3-C ,  5-H ) :   0.9880
B(  4-C , 20-C ) :   1.0276 B(  6-C ,  7-H ) :   0.9456 B(  6-C ,  8-H ) :   0.9477
B(  6-C ,  9-C ) :   1.0605 B(  9-C , 10-H ) :   0.9538 B(  9-C , 11-H ) :   0.9583
B(  9-C , 12-C ) :   1.0864 B( 12-C , 13-H ) :   0.9758 B( 12-C , 14-H ) :   0.9729
B( 12-C , 15-H ) :   0.9738 B( 16-S , 17-C ) :   1.1511 B( 16-S , 20-C ) :   1.1449
B( 17-C , 18-C ) :   1.6178 B( 17-C , 33-H ) :   0.9640 B( 18-C , 19-C ) :   1.2354
B( 18-C , 21-H ) :   0.9767 B( 19-C , 20-C ) :   1.5947 B( 19-C , 22-C ) :   1.0271
B( 22-C , 23-H ) :   0.9409 B( 22-C , 24-H ) :   0.9354 B( 22-C , 25-C ) :   1.0796
B( 25-C , 26-H ) :   0.9541 B( 25-C , 27-H ) :   0.9543 B( 25-C , 28-C ) :   1.0721
B( 28-C , 29-H ) :   0.9722 B( 28-C , 30-H ) :   0.9767 B( 28-C , 31-H ) :   0.9657

Dispersion correction           -0.014162814
FINAL SINGLE POINT ENERGY     -1339.869756804068

DIPOLE MOMENT
-------------
                                X             Y             Z
Electronic contribution:      5.25472      -4.02488     -29.97577
Nuclear contribution   :     -5.59184       4.15309      30.48477
                        -----------------------------------------
Total Dipole Moment    :     -0.33712       0.12821       0.50900
                        -----------------------------------------
Magnitude (a.u.)       :      0.62383
Magnitude (Debye)      :      1.58565

Rotational constants in cm-1:     0.018457     0.008702     0.006456
Rotational constants in MHz :   553.335113   260.872911   193.539276

                             ****ORCA TERMINATED NORMALLY****
TOTAL RUN TIME: 0 days 0 hours 0 minutes 33 seconds 393 msec
