                         Program Version 4.2.1 -  RELEASE  -
|  1> ! wB97X-D3 SP def2-SVP
|  2> %pal
|  3> nprocs 16
|  4> end
|  5>
|  6> * xyz 0 1
|  7> S 	 -0.872087 	 3.45484 	 83.6668
|  8> C 	 -1.19282 	 1.96753 	 82.6984
|  9> C 	 -0.138094 	 1.13568 	 82.6307
| 10> C 	 0.970778 	 1.73927 	 83.3309
| 11> C 	 0.755335 	 3.00772 	 83.8438
| 12> H 	 1.96147 	 1.34225 	 83.4882
| 13> C 	 -0.098651 	 -0.130895 	 81.8426
| 14> H 	 -0.849179 	 -0.131816 	 81.0755
| 15> H 	 -0.537544 	 -0.906585 	 82.4857
| 16> C 	 1.26027 	 -0.718336 	 81.3882
| 17> H 	 1.77492 	 0.0908861 	 80.8398
| 18> H 	 1.89689 	 -0.964304 	 82.2773
| 19> C 	 1.02255 	 -2.00467 	 80.5742
| 20> H 	 1.95538 	 -2.57282 	 80.4267
| 21> H 	 0.377774 	 -2.71368 	 81.0085
| 22> H 	 0.664995 	 -1.89417 	 79.5448
| 23> S 	 2.66811 	 5.09244 	 83.7699
| 24> C 	 3.37626 	 5.60281 	 85.307
| 25> C 	 3.20052 	 4.61758 	 86.2655
| 26> C 	 2.20032 	 3.64059 	 85.892
| 27> C 	 1.63228 	 3.89242 	 84.6438
| 28> H 	 3.77657 	 4.6829 	 87.233
| 29> C 	 1.97773 	 2.47131 	 86.8258
| 30> H 	 2.94453 	 2.00095 	 87.1684
| 31> H 	 1.63496 	 1.68143 	 86.2068
| 32> C 	 0.884176 	 2.56102 	 87.9268
| 33> H 	 1.22922 	 3.20735 	 88.6872
| 34> H 	 0.918127 	 1.57464 	 88.3423
| 35> C 	 -0.49524 	 2.89301 	 87.3938
| 36> H 	 -0.438206 	 3.86486 	 86.8899
| 37> H 	 -1.23953 	 2.89086 	 88.2857
| 38> H 	 -0.824396 	 2.17054 	 86.7553
| 39> H 	 -2.1846 	 1.76499 	 82.3311
| 40> H 	 4.14354 	 6.38665 	 85.5087
| 41> *
| 42>
| 43>                          ****END OF INPUT****

CARTESIAN COORDINATES (ANGSTROEM)
---------------------------------
  S     -0.872087    3.454840   83.666800
  C     -1.192820    1.967530   82.698400
  C     -0.138094    1.135680   82.630700
  C      0.970778    1.739270   83.330900
  C      0.755335    3.007720   83.843800
  H      1.961470    1.342250   83.488200
  C     -0.098651   -0.130895   81.842600
  H     -0.849179   -0.131816   81.075500
  H     -0.537544   -0.906585   82.485700
  C      1.260270   -0.718336   81.388200
  H      1.774920    0.090886   80.839800
  H      1.896890   -0.964304   82.277300
  C      1.022550   -2.004670   80.574200
  H      1.955380   -2.572820   80.426700
  H      0.377774   -2.713680   81.008500
  H      0.664995   -1.894170   79.544800
  S      2.668110    5.092440   83.769900
  C      3.376260    5.602810   85.307000
  C      3.200520    4.617580   86.265500
  C      2.200320    3.640590   85.892000
  C      1.632280    3.892420   84.643800
  H      3.776570    4.682900   87.233000
  C      1.977730    2.471310   86.825800
  H      2.944530    2.000950   87.168400
  H      1.634960    1.681430   86.206800
  C      0.884176    2.561020   87.926800
  H      1.229220    3.207350   88.687200
  H      0.918127    1.574640   88.342300
  C     -0.495240    2.893010   87.393800
  H     -0.438206    3.864860   86.889900
  H     -1.239530    2.890860   88.285700
  H     -0.824396    2.170540   86.755300
  H     -2.184600    1.764990   82.331100
  H      4.143540    6.386650   85.508700

 Total Charge           Charge          ....    0
 Multiplicity           Mult            ....    1
 Number of Electrons    NEL             ....  134
 Basis Dimension        Dim             ....  322

ORBITAL ENERGIES
----------------

  NO   OCC          E(Eh)            E(eV)
   0   2.0000     -88.965082     -2420.8630
   1   2.0000     -88.961359     -2420.7616
   2   2.0000     -10.331460      -281.1333
   3   2.0000     -10.325097      -280.9602
   4   2.0000     -10.322146      -280.8799
   5   2.0000     -10.311286      -280.5844
   6   2.0000     -10.308322      -280.5037
   7   2.0000     -10.302277      -280.3392
   8   2.0000     -10.299582      -280.2659
   9   2.0000     -10.297495      -280.2091
  10   2.0000     -10.294590      -280.1300
  11   2.0000     -10.293355      -280.0964
  12   2.0000     -10.288167      -279.9553
  13   2.0000     -10.280572      -279.7486
  14   2.0000     -10.277666      -279.6695
  15   2.0000     -10.270964      -279.4871
  16   2.0000      -8.078578      -219.8293
  17   2.0000      -8.076431      -219.7708
  18   2.0000      -6.037304      -164.2834
  19   2.0000      -6.034801      -164.2153
  20   2.0000      -6.033597      -164.1825
  21   2.0000      -6.030925      -164.1098
  22   2.0000      -6.028823      -164.0526
  23   2.0000      -6.027255      -164.0099
  24   2.0000      -1.003862       -27.3165
  25   2.0000      -0.979672       -26.6582
  26   2.0000      -0.914924       -24.8963
  27   2.0000      -0.906282       -24.6612
  28   2.0000      -0.870107       -23.6768
  29   2.0000      -0.844945       -22.9921
  30   2.0000      -0.840520       -22.8717
  31   2.0000      -0.811395       -22.0792
  32   2.0000      -0.787555       -21.4305
  33   2.0000      -0.773815       -21.0566
  34   2.0000      -0.716227       -19.4895
  35   2.0000      -0.700020       -19.0485
  36   2.0000      -0.686562       -18.6823
  37   2.0000      -0.650364       -17.6973
  38   2.0000      -0.646235       -17.5849
  39   2.0000      -0.616857       -16.7855
  40   2.0000      -0.594432       -16.1753
  41   2.0000      -0.569224       -15.4894
  42   2.0000      -0.563009       -15.3203
  43   2.0000      -0.543742       -14.7960
  44   2.0000      -0.540397       -14.7049
  45   2.0000      -0.523172       -14.2362
  46   2.0000      -0.513808       -13.9814
  47   2.0000      -0.509014       -13.8510
  48   2.0000      -0.504121       -13.7178
  49   2.0000      -0.493056       -13.4167
  50   2.0000      -0.489340       -13.3156
  51   2.0000      -0.476221       -12.9586
  52   2.0000      -0.471160       -12.8209
  53   2.0000      -0.464747       -12.6464
  54   2.0000      -0.458188       -12.4679
  55   2.0000      -0.453451       -12.3390
  56   2.0000      -0.442365       -12.0374
  57   2.0000      -0.434007       -11.8099
  58   2.0000      -0.427003       -11.6193
  59   2.0000      -0.423553       -11.5255
  60   2.0000      -0.422504       -11.4969
  61   2.0000      -0.419325       -11.4104
  62   2.0000      -0.413825       -11.2607
  63   2.0000      -0.330723        -8.9994
  64   2.0000      -0.326635        -8.8882
  65   2.0000      -0.318799        -8.6750
  66   2.0000      -0.312851        -8.5131
  67   0.0000       0.035857         0.9757
  68   0.0000       0.054744         1.4897
  69   0.0000       0.093385         2.5411
  70   0.0000       0.118468         3.2237
  71   0.0000       0.126127         3.4321

MULLIKEN ATOMIC CHARGES
-----------------------
   0 S :    0.106169
   1 C :   -0.148039
   2 C :   -0.025746
   3 C :    0.034286
   4 C :   -0.191841
   5 H :    0.003894
   6 C :    0.059444
   7 H :    0.014279
   8 H :    0.028332
   9 C :   -0.078942
  10 H :    0.045976
  11 H :    0.044858
  12 C :   -0.040873
  13 H :    0.029029
  14 H :    0.017828
  15 H :    0.034982
  16 S :    0.098815
  17 C :   -0.089337
  18 C :   -0.067046
  19 C :   -0.024174
  20 C :   -0.153911
  21 H :    0.044149
  22 C :    0.040593
  23 H :    0.036325
  24 H :   -0.006986
  25 C :   -0.019510
  26 H :    0.016320
  27 H :    0.016514
  28 C :   -0.039983
  29 H :    0.047058
  30 H :    0.042798
  31 H :    0.015780
  32 H :    0.038524
  33 H :    0.070436
Sum of atomic charges:    0.0000000

LOEWDIN ATOMIC CHARGES
----------------------
   0 S :    0.413792
   1 C :   -0.174519
   2 C :   -0.062142
   3 C :   -0.064946
   4 C :   -0.214084
   5 H :    0.027011
   6 C :   -0.038695
   7 H :    0.029433
   8 H :    0.038110
   9 C :   -0.038284
  10 H :    0.029113
  11 H :    0.031152
  12 C :   -0.068744
  13 H :    0.030723
  14 H :    0.018800
  15 H :    0.028986
  16 S :    0.375514
  17 C :   -0.184316
  18 C :   -0.079445
  19 C :   -0.046398
  20 C :   -0.197709
  21 H :    0.041445
  22 C :   -0.042196
  23 H :    0.040137
  24 H :    0.021322
  25 C :   -0.029941
  26 H :    0.013743
  27 H :    0.022380
  28 C :   -0.058591
  29 H :    0.027537
  30 H :    0.038665
  31 H :    0.009418
  32 H :    0.022057
  33 H :    0.040673

  Mayer bond orders larger than 0.100000
B(  0-S ,  1-C ) :   1.1311 B(  0-S ,  4-C ) :   1.1684 B(  1-C ,  2-C ) :   1.6342
B(  1-C , 32-H ) :   0.9744 B(  2-C ,  3-C ) :   1.2063 B(  2-C ,  6-C ) :   1.0165
B(  3-C ,  4-C ) :   1.6031 B(  3-C ,  5-H ) :   0.9972 B(  4-C , 20-C ) :   0.9976
B(  6-C ,  7-H ) :   0.9441 B(  6-C ,  8-H ) :   0.9182 B(  6-C ,  9-C ) :   1.0662
B(  9-C , 10-H ) :   0.9609 B(  9-C , 11-H ) :   0.9473 B(  9-C , 12-C ) :   1.0776
B( 12-C , 13-H ) :   0.9733 B( 12-C , 14-H ) :   0.9744 B( 12-C , 15-H ) :   0.9748
B( 16-S , 17-C ) :   1.1426 B( 16-S , 20-C ) :   1.1193 B( 17-C , 18-C ) :   1.6376
B( 17-C , 33-H ) :   0.9592 B( 18-C , 19-C ) :   1.2181 B( 18-C , 21-H ) :   0.9806
B( 19-C , 20-C ) :   1.6027 B( 19-C , 22-C ) :   1.0399 B( 22-C , 23-H ) :   0.9405
B( 22-C , 24-H ) :   0.9205 B( 22-C , 25-C ) :   1.0677 B( 25-C , 26-H ) :   0.9586
B( 25-C , 27-H ) :   0.9494 B( 25-C , 28-C ) :   1.0801 B( 28-C , 29-H ) :   0.9723
B( 28-C , 30-H ) :   0.9710 B( 28-C , 31-H ) :   0.9741

Dispersion correction           -0.015109734
FINAL SINGLE POINT ENERGY     -1339.858768479510

DIPOLE MOMENT
-------------
                                X             Y             Z
Electronic contribution:      1.57542      23.03106      -3.08296
Nuclear contribution   :     -1.34076     -23.86110       3.25195
                        -----------------------------------------
Total Dipole Moment    :      0.23466      -0.83004       0.16899
                        -----------------------------------------
Magnitude (a.u.)       :      0.87897
Magnitude (Debye)      :      2.23416

Rotational constants in cm-1:     0.019300     0.007936     0.007332
Rotational constants in MHz :   578.592672   237.904345   219.793241

                             ****ORCA TERMINATED NORMALLY****
TOTAL RUN TIME: 0 days 0 hours 0 minutes 34 seconds 611 msec
