                         Program Version 4.2.1 -  RELEASE  -
|  1> ! wB97X-D3 SP def2-SVP
|  2> %pal
|  3> nprocs 16
|  4> end
|  5>
|  6> * xyz 0 1
|  7> S 	 -40.6093 	 -7.98537 	 99.9049
|  8> C 	 -42.2845 	 -8.24881 	 99.4144
|  9> C 	 -43.087 	 -7.18694 	 99.758
| 10> C 	 -42.4066 	 -6.32259 	 100.713
| 11> C 	 -41.0726 	 -6.59297 	 100.878
| 12> H 	 -42.8949 	 -5.47952 	 101.184
| 13> C 	 -44.5164 	 -6.90277 	 99.2751
| 14> H 	 -44.7286 	 -7.01488 	 98.2595
| 15> H 	 -44.6144 	 -5.80338 	 99.5636
| 16> C 	 -45.5413 	 -7.71444 	 100.049
| 17> H 	 -45.5697 	 -8.67692 	 99.5026
| 18> H 	 -45.3217 	 -7.83649 	 101.083
| 19> C 	 -46.9714 	 -7.14805 	 99.8125
| 20> H 	 -47.2229 	 -7.25715 	 98.7995
| 21> H 	 -47.7004 	 -7.78921 	 100.381
| 22> H 	 -47.0129 	 -6.10926 	 100.128
| 23> S 	 -39.1137 	 -4.73015 	 100.962
| 24> C 	 -38.1075 	 -4.59849 	 102.348
| 25> C 	 -38.6369 	 -5.15096 	 103.463
| 26> C 	 -39.9107 	 -5.78415 	 103.15
| 27> C 	 -40.1689 	 -5.86836 	 101.778
| 28> H 	 -38.0685 	 -5.07159 	 104.385
| 29> C 	 -40.7042 	 -6.60236 	 104.165
| 30> H 	 -40.0019 	 -7.29176 	 104.569
| 31> H 	 -41.5363 	 -7.04678 	 103.572
| 32> C 	 -41.3353 	 -5.75373 	 105.235
| 33> H 	 -42.0626 	 -5.00315 	 104.814
| 34> H 	 -40.5746 	 -5.07355 	 105.625
| 35> C 	 -41.8847 	 -6.44918 	 106.407
| 36> H 	 -42.2919 	 -5.72065 	 107.044
| 37> H 	 -41.0931 	 -6.85825 	 107.047
| 38> H 	 -42.5787 	 -7.22824 	 106.084
| 39> H 	 -42.6721 	 -8.99092 	 98.7735
| 40> H 	 -37.1198 	 -4.0923 	 102.336
| 41> *
| 42>
| 43>                          ****END OF INPUT****

CARTESIAN COORDINATES (ANGSTROEM)
---------------------------------
  S    -40.609300   -7.985370   99.904900
  C    -42.284500   -8.248810   99.414400
  C    -43.087000   -7.186940   99.758000
  C    -42.406600   -6.322590  100.713000
  C    -41.072600   -6.592970  100.878000
  H    -42.894900   -5.479520  101.184000
  C    -44.516400   -6.902770   99.275100
  H    -44.728600   -7.014880   98.259500
  H    -44.614400   -5.803380   99.563600
  C    -45.541300   -7.714440  100.049000
  H    -45.569700   -8.676920   99.502600
  H    -45.321700   -7.836490  101.083000
  C    -46.971400   -7.148050   99.812500
  H    -47.222900   -7.257150   98.799500
  H    -47.700400   -7.789210  100.381000
  H    -47.012900   -6.109260  100.128000
  S    -39.113700   -4.730150  100.962000
  C    -38.107500   -4.598490  102.348000
  C    -38.636900   -5.150960  103.463000
  C    -39.910700   -5.784150  103.150000
  C    -40.168900   -5.868360  101.778000
  H    -38.068500   -5.071590  104.385000
  C    -40.704200   -6.602360  104.165000
  H    -40.001900   -7.291760  104.569000
  H    -41.536300   -7.046780  103.572000
  C    -41.335300   -5.753730  105.235000
  H    -42.062600   -5.003150  104.814000
  H    -40.574600   -5.073550  105.625000
  C    -41.884700   -6.449180  106.407000
  H    -42.291900   -5.720650  107.044000
  H    -41.093100   -6.858250  107.047000
  H    -42.578700   -7.228240  106.084000
  H    -42.672100   -8.990920   98.773500
  H    -37.119800   -4.092300  102.336000

 Total Charge           Charge          ....    0
 Multiplicity           Mult            ....    1
 Number of Electrons    NEL             ....  134
 Basis Dimension        Dim             ....  322

ORBITAL ENERGIES
----------------

  NO   OCC          E(Eh)            E(eV)
   0   2.0000     -88.967544     -2420.9299
   1   2.0000     -88.956278     -2420.6234
   2   2.0000     -10.330590      -281.1096
   3   2.0000     -10.325027      -280.9583
   4   2.0000     -10.312296      -280.6118
   5   2.0000     -10.312167      -280.6083
   6   2.0000     -10.307678      -280.4862
   7   2.0000     -10.302438      -280.3436
   8   2.0000     -10.295823      -280.1636
   9   2.0000     -10.294943      -280.1396
  10   2.0000     -10.292866      -280.0831
  11   2.0000     -10.285705      -279.8883
  12   2.0000     -10.284477      -279.8548
  13   2.0000     -10.279019      -279.7063
  14   2.0000     -10.278651      -279.6963
  15   2.0000     -10.269073      -279.4357
  16   2.0000      -8.081653      -219.9130
  17   2.0000      -8.072283      -219.6580
  18   2.0000      -6.040327      -164.3656
  19   2.0000      -6.036335      -164.2570
  20   2.0000      -6.032162      -164.1435
  21   2.0000      -6.030737      -164.1047
  22   2.0000      -6.026650      -163.9935
  23   2.0000      -6.022983      -163.8937
  24   2.0000      -1.005299       -27.3556
  25   2.0000      -0.984108       -26.7789
  26   2.0000      -0.915511       -24.9123
  27   2.0000      -0.914785       -24.8926
  28   2.0000      -0.870783       -23.6952
  29   2.0000      -0.851870       -23.1806
  30   2.0000      -0.845358       -23.0034
  31   2.0000      -0.816929       -22.2298
  32   2.0000      -0.782335       -21.2884
  33   2.0000      -0.771380       -20.9903
  34   2.0000      -0.704010       -19.1571
  35   2.0000      -0.698362       -19.0034
  36   2.0000      -0.688117       -18.7246
  37   2.0000      -0.652844       -17.7648
  38   2.0000      -0.642316       -17.4783
  39   2.0000      -0.624288       -16.9877
  40   2.0000      -0.594864       -16.1871
  41   2.0000      -0.576417       -15.6851
  42   2.0000      -0.569512       -15.4972
  43   2.0000      -0.563430       -15.3317
  44   2.0000      -0.530629       -14.4392
  45   2.0000      -0.525354       -14.2956
  46   2.0000      -0.517305       -14.0766
  47   2.0000      -0.515484       -14.0270
  48   2.0000      -0.506391       -13.7796
  49   2.0000      -0.500955       -13.6317
  50   2.0000      -0.499585       -13.5944
  51   2.0000      -0.475634       -12.9427
  52   2.0000      -0.466986       -12.7073
  53   2.0000      -0.464404       -12.6371
  54   2.0000      -0.462421       -12.5831
  55   2.0000      -0.451867       -12.2959
  56   2.0000      -0.447648       -12.1811
  57   2.0000      -0.440271       -11.9804
  58   2.0000      -0.429791       -11.6952
  59   2.0000      -0.427567       -11.6347
  60   2.0000      -0.414547       -11.2804
  61   2.0000      -0.409877       -11.1533
  62   2.0000      -0.404368       -11.0034
  63   2.0000      -0.333136        -9.0651
  64   2.0000      -0.325825        -8.8662
  65   2.0000      -0.325109        -8.8467
  66   2.0000      -0.306578        -8.3424
  67   0.0000       0.041347         1.1251
  68   0.0000       0.058426         1.5899
  69   0.0000       0.107814         2.9338
  70   0.0000       0.117886         3.2079
  71   0.0000       0.131803         3.5865

MULLIKEN ATOMIC CHARGES
-----------------------
   0 S :    0.125043
   1 C :   -0.096523
   2 C :   -0.098120
   3 C :    0.043824
   4 C :   -0.148559
   5 H :    0.013100
   6 C :    0.061552
   7 H :    0.020435
   8 H :    0.028166
   9 C :   -0.082018
  10 H :    0.027739
  11 H :    0.034922
  12 C :   -0.038328
  13 H :    0.018827
  14 H :    0.040171
  15 H :    0.034531
  16 S :    0.098662
  17 C :   -0.098113
  18 C :   -0.035594
  19 C :   -0.030568
  20 C :   -0.194467
  21 H :    0.025550
  22 C :    0.106308
  23 H :    0.024628
  24 H :    0.033522
  25 C :   -0.135932
  26 H :    0.027194
  27 H :    0.009786
  28 C :    0.017501
  29 H :    0.018599
  30 H :    0.021565
  31 H :    0.033304
  32 H :    0.028084
  33 H :    0.065209
Sum of atomic charges:    0.0000000

LOEWDIN ATOMIC CHARGES
----------------------
   0 S :    0.399861
   1 C :   -0.184458
   2 C :   -0.060240
   3 C :   -0.055935
   4 C :   -0.204093
   5 H :    0.030397
   6 C :   -0.027869
   7 H :    0.022234
   8 H :    0.035135
   9 C :   -0.035769
  10 H :    0.027401
  11 H :    0.019422
  12 C :   -0.060391
  13 H :    0.016051
  14 H :    0.032322
  15 H :    0.022008
  16 S :    0.404290
  17 C :   -0.190704
  18 C :   -0.081769
  19 C :   -0.044352
  20 C :   -0.201299
  21 H :    0.036585
  22 C :   -0.027932
  23 H :    0.028237
  24 H :    0.036199
  25 C :   -0.055135
  26 H :    0.028070
  27 H :    0.019387
  28 C :   -0.060522
  29 H :    0.023503
  30 H :    0.026961
  31 H :    0.025970
  32 H :    0.021103
  33 H :    0.035335

  Mayer bond orders larger than 0.100000
B(  0-S ,  1-C ) :   1.1313 B(  0-S ,  4-C ) :   1.1286 B(  1-C ,  2-C ) :   1.6419
B(  1-C , 32-H ) :   0.9702 B(  2-C ,  3-C ) :   1.2185 B(  2-C ,  6-C ) :   1.0101
B(  3-C ,  4-C ) :   1.6103 B(  3-C ,  5-H ) :   0.9906 B(  4-C , 20-C ) :   1.0174
B(  6-C ,  7-H ) :   0.9453 B(  6-C ,  8-H ) :   0.9462 B(  6-C ,  9-C ) :   1.0628
B(  9-C , 10-H ) :   0.9541 B(  9-C , 11-H ) :   0.9632 B(  9-C , 12-C ) :   1.0800
B( 12-C , 13-H ) :   0.9740 B( 12-C , 14-H ) :   0.9746 B( 12-C , 15-H ) :   0.9785
B( 16-S , 17-C ) :   1.1562 B( 16-S , 20-C ) :   1.1390 B( 17-C , 18-C ) :   1.6467
B( 17-C , 33-H ) :   0.9594 B( 18-C , 19-C ) :   1.1819 B( 18-C , 21-H ) :   0.9947
B( 19-C , 20-C ) :   1.6203 B( 19-C , 22-C ) :   1.0485 B( 22-C , 23-H ) :   0.9392
B( 22-C , 24-H ) :   0.9288 B( 22-C , 25-C ) :   1.0670 B( 25-C , 26-H ) :   0.9476
B( 25-C , 27-H ) :   0.9543 B( 25-C , 28-C ) :   1.1032 B( 28-C , 29-H ) :   0.9651
B( 28-C , 30-H ) :   0.9680 B( 28-C , 31-H ) :   0.9696

Dispersion correction           -0.013472259
FINAL SINGLE POINT ENERGY     -1339.862423020386

DIPOLE MOMENT
-------------
                                X             Y             Z
Electronic contribution:     24.85190       2.34440     -14.03319
Nuclear contribution   :    -25.30040      -2.33686      14.31982
                        -----------------------------------------
Total Dipole Moment    :     -0.44850       0.00754       0.28664
                        -----------------------------------------
Magnitude (a.u.)       :      0.53233
Magnitude (Debye)      :      1.35307

Rotational constants in cm-1:     0.017337     0.008053     0.006266
Rotational constants in MHz :   519.737588   241.430798   187.837910

                             ****ORCA TERMINATED NORMALLY****
TOTAL RUN TIME: 0 days 0 hours 0 minutes 28 seconds 896 msec
