                         Program Version 4.2.1 -  RELEASE  -
|  1> ! wB97X-D3 SP def2-SVP
|  2> %pal
|  3> nprocs 16
|  4> end
|  5>
|  6> * xyz 0 1
|  7> S 	 -14.6609 	 33.5263 	 36.7979
|  8> C 	 -14.8731 	 33.6119 	 38.5334
|  9> C 	 -13.8302 	 32.8328 	 39.0936
| 10> C 	 -12.8152 	 32.4018 	 38.1554
| 11> C 	 -13.1412 	 32.6745 	 36.8508
| 12> H 	 -11.9514 	 31.8665 	 38.4393
| 13> C 	 -13.5504 	 32.5663 	 40.5757
| 14> H 	 -12.9729 	 31.6502 	 40.7594
| 15> H 	 -14.568 	 32.5297 	 41.0958
| 16> C 	 -12.8522 	 33.7188 	 41.3751
| 17> H 	 -13.5366 	 34.6044 	 41.3953
| 18> H 	 -12.7773 	 33.4238 	 42.4316
| 19> C 	 -11.5343 	 34.3339 	 40.8656
| 20> H 	 -11.4569 	 35.3171 	 41.3151
| 21> H 	 -10.5972 	 33.7375 	 41.072
| 22> H 	 -11.6792 	 34.5145 	 39.7725
| 23> S 	 -13.1233 	 31.2696 	 34.5992
| 24> C 	 -11.73 	 31.2123 	 33.5675
| 25> C 	 -10.6424 	 31.8192 	 34.1568
| 26> C 	 -10.9859 	 32.4618 	 35.3632
| 27> C 	 -12.3342 	 32.2917 	 35.747
| 28> H 	 -9.64712 	 31.7129 	 33.712
| 29> C 	 -9.9483 	 33.0615 	 36.254
| 30> H 	 -10.4843 	 33.8011 	 36.8469
| 31> H 	 -9.20464 	 33.5318 	 35.6879
| 32> C 	 -9.19355 	 32.0361 	 37.1426
| 33> H 	 -8.41739 	 31.533 	 36.5563
| 34> H 	 -9.80283 	 31.1936 	 37.5824
| 35> C 	 -8.41773 	 32.7124 	 38.3404
| 36> H 	 -9.10358 	 32.9969 	 39.1319
| 37> H 	 -7.83212 	 33.528 	 38.0641
| 38> H 	 -7.81004 	 31.9492 	 38.7397
| 39> H 	 -15.6691 	 33.9921 	 39.0531
| 40> H 	 -11.6731 	 30.9154 	 32.5302
| 41> *
| 42>
| 43>                          ****END OF INPUT****

CARTESIAN COORDINATES (ANGSTROEM)
---------------------------------
  S    -14.660900   33.526300   36.797900
  C    -14.873100   33.611900   38.533400
  C    -13.830200   32.832800   39.093600
  C    -12.815200   32.401800   38.155400
  C    -13.141200   32.674500   36.850800
  H    -11.951400   31.866500   38.439300
  C    -13.550400   32.566300   40.575700
  H    -12.972900   31.650200   40.759400
  H    -14.568000   32.529700   41.095800
  C    -12.852200   33.718800   41.375100
  H    -13.536600   34.604400   41.395300
  H    -12.777300   33.423800   42.431600
  C    -11.534300   34.333900   40.865600
  H    -11.456900   35.317100   41.315100
  H    -10.597200   33.737500   41.072000
  H    -11.679200   34.514500   39.772500
  S    -13.123300   31.269600   34.599200
  C    -11.730000   31.212300   33.567500
  C    -10.642400   31.819200   34.156800
  C    -10.985900   32.461800   35.363200
  C    -12.334200   32.291700   35.747000
  H     -9.647120   31.712900   33.712000
  C     -9.948300   33.061500   36.254000
  H    -10.484300   33.801100   36.846900
  H     -9.204640   33.531800   35.687900
  C     -9.193550   32.036100   37.142600
  H     -8.417390   31.533000   36.556300
  H     -9.802830   31.193600   37.582400
  C     -8.417730   32.712400   38.340400
  H     -9.103580   32.996900   39.131900
  H     -7.832120   33.528000   38.064100
  H     -7.810040   31.949200   38.739700
  H    -15.669100   33.992100   39.053100
  H    -11.673100   30.915400   32.530200

 Total Charge           Charge          ....    0
 Multiplicity           Mult            ....    1
 Number of Electrons    NEL             ....  134
 Basis Dimension        Dim             ....  322

ORBITAL ENERGIES
----------------

  NO   OCC          E(Eh)            E(eV)
   0   2.0000     -88.969633     -2420.9868
   1   2.0000     -88.964620     -2420.8504
   2   2.0000     -10.328402      -281.0501
   3   2.0000     -10.323151      -280.9072
   4   2.0000     -10.318584      -280.7830
   5   2.0000     -10.312508      -280.6176
   6   2.0000     -10.308395      -280.5057
   7   2.0000     -10.301207      -280.3101
   8   2.0000     -10.300754      -280.2978
   9   2.0000     -10.293833      -280.1094
  10   2.0000     -10.291688      -280.0511
  11   2.0000     -10.291466      -280.0450
  12   2.0000     -10.290988      -280.0320
  13   2.0000     -10.284388      -279.8524
  14   2.0000     -10.281575      -279.7759
  15   2.0000     -10.270536      -279.4755
  16   2.0000      -8.084141      -219.9806
  17   2.0000      -8.079970      -219.8671
  18   2.0000      -6.042748      -164.4315
  19   2.0000      -6.038491      -164.3157
  20   2.0000      -6.038418      -164.3137
  21   2.0000      -6.034948      -164.2193
  22   2.0000      -6.034194      -164.1988
  23   2.0000      -6.030959      -164.1107
  24   2.0000      -1.011920       -27.5357
  25   2.0000      -0.986109       -26.8334
  26   2.0000      -0.907032       -24.6816
  27   2.0000      -0.903581       -24.5877
  28   2.0000      -0.875909       -23.8347
  29   2.0000      -0.850943       -23.1553
  30   2.0000      -0.843709       -22.9585
  31   2.0000      -0.817454       -22.2441
  32   2.0000      -0.781498       -21.2656
  33   2.0000      -0.772184       -21.0122
  34   2.0000      -0.711688       -19.3660
  35   2.0000      -0.697956       -18.9923
  36   2.0000      -0.691398       -18.8139
  37   2.0000      -0.663823       -18.0635
  38   2.0000      -0.646786       -17.6000
  39   2.0000      -0.615488       -16.7483
  40   2.0000      -0.591867       -16.1055
  41   2.0000      -0.573977       -15.6187
  42   2.0000      -0.563764       -15.3408
  43   2.0000      -0.547726       -14.9044
  44   2.0000      -0.539143       -14.6708
  45   2.0000      -0.526183       -14.3182
  46   2.0000      -0.523580       -14.2473
  47   2.0000      -0.516765       -14.0619
  48   2.0000      -0.512839       -13.9551
  49   2.0000      -0.503998       -13.7145
  50   2.0000      -0.490397       -13.3444
  51   2.0000      -0.484006       -13.1705
  52   2.0000      -0.475332       -12.9344
  53   2.0000      -0.462989       -12.5986
  54   2.0000      -0.460495       -12.5307
  55   2.0000      -0.443488       -12.0679
  56   2.0000      -0.442549       -12.0424
  57   2.0000      -0.435013       -11.8373
  58   2.0000      -0.430998       -11.7280
  59   2.0000      -0.421564       -11.4713
  60   2.0000      -0.418601       -11.3907
  61   2.0000      -0.412811       -11.2332
  62   2.0000      -0.412036       -11.2121
  63   2.0000      -0.345545        -9.4028
  64   2.0000      -0.329208        -8.9582
  65   2.0000      -0.326631        -8.8881
  66   2.0000      -0.294871        -8.0239
  67   0.0000       0.026601         0.7238
  68   0.0000       0.065756         1.7893
  69   0.0000       0.112399         3.0585
  70   0.0000       0.122943         3.3454
  71   0.0000       0.125432         3.4132

MULLIKEN ATOMIC CHARGES
-----------------------
   0 S :    0.124889
   1 C :   -0.079240
   2 C :   -0.094648
   3 C :    0.036385
   4 C :   -0.119014
   5 H :   -0.012238
   6 C :    0.045734
   7 H :    0.037864
   8 H :    0.035468
   9 C :   -0.106359
  10 H :    0.022877
  11 H :    0.033989
  12 C :   -0.079745
  13 H :    0.033245
  14 H :    0.053971
  15 H :    0.049441
  16 S :    0.114864
  17 C :   -0.089749
  18 C :   -0.058483
  19 C :   -0.025355
  20 C :   -0.179289
  21 H :    0.027461
  22 C :    0.114539
  23 H :    0.029000
  24 H :    0.005194
  25 C :   -0.123397
  26 H :    0.024709
  27 H :    0.041779
  28 C :   -0.011365
  29 H :    0.024007
  30 H :    0.023085
  31 H :    0.020515
  32 H :    0.022349
  33 H :    0.057518
Sum of atomic charges:    0.0000000

LOEWDIN ATOMIC CHARGES
----------------------
   0 S :    0.420850
   1 C :   -0.186839
   2 C :   -0.058884
   3 C :   -0.053577
   4 C :   -0.207059
   5 H :    0.023853
   6 C :   -0.040122
   7 H :    0.030562
   8 H :    0.040201
   9 C :   -0.049291
  10 H :    0.025209
  11 H :    0.023488
  12 C :   -0.078600
  13 H :    0.027533
  14 H :    0.026260
  15 H :    0.031911
  16 S :    0.430916
  17 C :   -0.194408
  18 C :   -0.075714
  19 C :   -0.054260
  20 C :   -0.207488
  21 H :    0.037073
  22 C :   -0.029518
  23 H :    0.031393
  24 H :    0.023698
  25 C :   -0.036663
  26 H :    0.021745
  27 H :    0.025824
  28 C :   -0.055230
  29 H :    0.023462
  30 H :    0.015893
  31 H :    0.021739
  32 H :    0.014549
  33 H :    0.031491

  Mayer bond orders larger than 0.100000
B(  0-S ,  1-C ) :   1.1412 B(  0-S ,  4-C ) :   1.1511 B(  1-C ,  2-C ) :   1.5685
B(  1-C , 32-H ) :   0.9862 B(  2-C ,  3-C ) :   1.2442 B(  2-C ,  6-C ) :   1.0347
B(  3-C ,  4-C ) :   1.5339 B(  3-C ,  5-H ) :   1.0065 B(  4-C , 20-C ) :   1.0617
B(  6-C ,  7-H ) :   0.9477 B(  6-C ,  8-H ) :   0.9379 B(  6-C ,  9-C ) :   1.0645
B(  9-C , 10-H ) :   0.9589 B(  9-C , 11-H ) :   0.9563 B(  9-C , 12-C ) :   1.0780
B( 12-C , 13-H ) :   0.9711 B( 12-C , 14-H ) :   0.9710 B( 12-C , 15-H ) :   0.9687
B( 16-S , 17-C ) :   1.1716 B( 16-S , 20-C ) :   1.1597 B( 17-C , 18-C ) :   1.5842
B( 17-C , 20-C ) :   0.1116 B( 17-C , 33-H ) :   0.9643 B( 18-C , 19-C ) :   1.2679
B( 18-C , 21-H ) :   0.9896 B( 19-C , 20-C ) :   1.5439 B( 19-C , 22-C ) :   1.0694
B( 22-C , 23-H ) :   0.9370 B( 22-C , 24-H ) :   0.9196 B( 22-C , 25-C ) :   1.0495
B( 25-C , 26-H ) :   0.9554 B( 25-C , 27-H ) :   0.9589 B( 25-C , 28-C ) :   1.0797
B( 28-C , 29-H ) :   0.9759 B( 28-C , 30-H ) :   0.9746 B( 28-C , 31-H ) :   0.9731

Dispersion correction           -0.015709170
FINAL SINGLE POINT ENERGY     -1339.871347337278

DIPOLE MOMENT
-------------
                                X             Y             Z
Electronic contribution:    -20.64856      -5.02414     -23.31149
Nuclear contribution   :     21.16385       5.02536      23.74254
                        -----------------------------------------
Total Dipole Moment    :      0.51530       0.00123       0.43105
                        -----------------------------------------
Magnitude (a.u.)       :      0.67181
Magnitude (Debye)      :      1.70761

Rotational constants in cm-1:     0.017831     0.010653     0.007206
Rotational constants in MHz :   534.567156   319.376138   216.023198

                             ****ORCA TERMINATED NORMALLY****
TOTAL RUN TIME: 0 days 0 hours 0 minutes 34 seconds 553 msec
