                         Program Version 4.2.1 -  RELEASE  -
|  1> ! wB97X-D3 SP def2-SVP
|  2> %pal
|  3> nprocs 16
|  4> end
|  5>
|  6> * xyz 0 1
|  7> S 	 -34.0037 	 60.4066 	 114.396
|  8> C 	 -35.1179 	 60.39 	 113.058
|  9> C 	 -36.3993 	 60.048 	 113.497
| 10> C 	 -36.4819 	 59.8534 	 114.918
| 11> C 	 -35.274 	 59.9178 	 115.549
| 12> H 	 -37.3082 	 59.5365 	 115.491
| 13> C 	 -37.5502 	 60.0221 	 112.52
| 14> H 	 -37.2881 	 59.6428 	 111.513
| 15> H 	 -37.8803 	 61.0095 	 112.406
| 16> C 	 -38.8285 	 59.1369 	 112.812
| 17> H 	 -38.5181 	 58.0836 	 112.756
| 18> H 	 -39.1952 	 59.3081 	 113.826
| 19> C 	 -39.9978 	 59.3522 	 111.925
| 20> H 	 -40.7246 	 58.5241 	 111.933
| 21> H 	 -40.511 	 60.2237 	 112.225
| 22> H 	 -39.7515 	 59.4364 	 110.936
| 23> S 	 -33.8686 	 58.2297 	 117.201
| 24> C 	 -33.8223 	 58.6862 	 118.824
| 25> C 	 -34.7166 	 59.6275 	 119.213
| 26> C 	 -35.4301 	 60.1921 	 118.115
| 27> C 	 -34.9572 	 59.5776 	 116.947
| 28> H 	 -34.7536 	 60.0188 	 120.268
| 29> C 	 -36.3907 	 61.2934 	 118.294
| 30> H 	 -36.7742 	 61.5409 	 117.352
| 31> H 	 -35.7463 	 62.0973 	 118.583
| 32> C 	 -37.553 	 61.1525 	 119.235
| 33> H 	 -37.0705 	 60.795 	 120.155
| 34> H 	 -38.2499 	 60.3628 	 118.881
| 35> C 	 -38.2631 	 62.4731 	 119.526
| 36> H 	 -38.7795 	 62.8951 	 118.695
| 37> H 	 -37.5865 	 63.1897 	 119.956
| 38> H 	 -39.0638 	 62.1571 	 120.245
| 39> H 	 -34.9117 	 60.6323 	 112.02
| 40> H 	 -33.1271 	 58.2148 	 119.452
| 41> *
| 42>
| 43>                          ****END OF INPUT****

CARTESIAN COORDINATES (ANGSTROEM)
---------------------------------
  S    -34.003700   60.406600  114.396000
  C    -35.117900   60.390000  113.058000
  C    -36.399300   60.048000  113.497000
  C    -36.481900   59.853400  114.918000
  C    -35.274000   59.917800  115.549000
  H    -37.308200   59.536500  115.491000
  C    -37.550200   60.022100  112.520000
  H    -37.288100   59.642800  111.513000
  H    -37.880300   61.009500  112.406000
  C    -38.828500   59.136900  112.812000
  H    -38.518100   58.083600  112.756000
  H    -39.195200   59.308100  113.826000
  C    -39.997800   59.352200  111.925000
  H    -40.724600   58.524100  111.933000
  H    -40.511000   60.223700  112.225000
  H    -39.751500   59.436400  110.936000
  S    -33.868600   58.229700  117.201000
  C    -33.822300   58.686200  118.824000
  C    -34.716600   59.627500  119.213000
  C    -35.430100   60.192100  118.115000
  C    -34.957200   59.577600  116.947000
  H    -34.753600   60.018800  120.268000
  C    -36.390700   61.293400  118.294000
  H    -36.774200   61.540900  117.352000
  H    -35.746300   62.097300  118.583000
  C    -37.553000   61.152500  119.235000
  H    -37.070500   60.795000  120.155000
  H    -38.249900   60.362800  118.881000
  C    -38.263100   62.473100  119.526000
  H    -38.779500   62.895100  118.695000
  H    -37.586500   63.189700  119.956000
  H    -39.063800   62.157100  120.245000
  H    -34.911700   60.632300  112.020000
  H    -33.127100   58.214800  119.452000

 Total Charge           Charge          ....    0
 Multiplicity           Mult            ....    1
 Number of Electrons    NEL             ....  134
 Basis Dimension        Dim             ....  322

ORBITAL ENERGIES
----------------

  NO   OCC          E(Eh)            E(eV)
   0   2.0000     -88.965625     -2420.8777
   1   2.0000     -88.961930     -2420.7772
   2   2.0000     -10.325076      -280.9596
   3   2.0000     -10.322589      -280.8919
   4   2.0000     -10.311578      -280.5923
   5   2.0000     -10.304625      -280.4031
   6   2.0000     -10.301543      -280.3192
   7   2.0000     -10.301471      -280.3173
   8   2.0000     -10.291026      -280.0331
   9   2.0000     -10.289592      -279.9940
  10   2.0000     -10.289205      -279.9835
  11   2.0000     -10.288881      -279.9747
  12   2.0000     -10.284074      -279.8439
  13   2.0000     -10.280359      -279.7428
  14   2.0000     -10.277997      -279.6785
  15   2.0000     -10.266108      -279.3550
  16   2.0000      -8.081881      -219.9192
  17   2.0000      -8.076218      -219.7651
  18   2.0000      -6.040012      -164.3571
  19   2.0000      -6.036499      -164.2615
  20   2.0000      -6.034771      -164.2145
  21   2.0000      -6.032616      -164.1558
  22   2.0000      -6.030712      -164.1040
  23   2.0000      -6.027039      -164.0041
  24   2.0000      -1.008806       -27.4510
  25   2.0000      -0.983748       -26.7691
  26   2.0000      -0.921986       -25.0885
  27   2.0000      -0.908581       -24.7238
  28   2.0000      -0.868925       -23.6447
  29   2.0000      -0.860060       -23.4034
  30   2.0000      -0.847712       -23.0674
  31   2.0000      -0.817072       -22.2337
  32   2.0000      -0.789546       -21.4846
  33   2.0000      -0.769131       -20.9291
  34   2.0000      -0.708095       -19.2683
  35   2.0000      -0.701324       -19.0840
  36   2.0000      -0.687708       -18.7135
  37   2.0000      -0.654614       -17.8129
  38   2.0000      -0.643381       -17.5073
  39   2.0000      -0.619406       -16.8549
  40   2.0000      -0.605407       -16.4740
  41   2.0000      -0.575332       -15.6556
  42   2.0000      -0.573991       -15.6191
  43   2.0000      -0.560144       -15.2423
  44   2.0000      -0.530082       -14.4243
  45   2.0000      -0.521933       -14.2025
  46   2.0000      -0.516705       -14.0603
  47   2.0000      -0.510553       -13.8928
  48   2.0000      -0.507279       -13.8038
  49   2.0000      -0.503161       -13.6917
  50   2.0000      -0.491734       -13.3808
  51   2.0000      -0.481395       -13.0994
  52   2.0000      -0.473584       -12.8869
  53   2.0000      -0.468474       -12.7478
  54   2.0000      -0.459194       -12.4953
  55   2.0000      -0.457050       -12.4370
  56   2.0000      -0.452281       -12.3072
  57   2.0000      -0.441789       -12.0217
  58   2.0000      -0.432188       -11.7604
  59   2.0000      -0.423079       -11.5126
  60   2.0000      -0.422289       -11.4911
  61   2.0000      -0.413042       -11.2395
  62   2.0000      -0.409696       -11.1484
  63   2.0000      -0.341100        -9.2818
  64   2.0000      -0.332182        -9.0391
  65   2.0000      -0.322295        -8.7701
  66   2.0000      -0.293255        -7.9799
  67   0.0000       0.037397         1.0176
  68   0.0000       0.069848         1.9007
  69   0.0000       0.113649         3.0925
  70   0.0000       0.126594         3.4448
  71   0.0000       0.131473         3.5776

MULLIKEN ATOMIC CHARGES
-----------------------
   0 S :    0.107275
   1 C :   -0.118445
   2 C :   -0.070109
   3 C :    0.068433
   4 C :   -0.178120
   5 H :   -0.003799
   6 C :    0.049009
   7 H :    0.028737
   8 H :    0.026772
   9 C :   -0.106519
  10 H :    0.033579
  11 H :    0.023919
  12 C :    0.003080
  13 H :    0.030827
  14 H :    0.019752
  15 H :    0.001585
  16 S :    0.137856
  17 C :   -0.071304
  18 C :   -0.057529
  19 C :   -0.014504
  20 C :   -0.208164
  21 H :    0.038075
  22 C :    0.126359
  23 H :   -0.008622
  24 H :    0.022784
  25 C :   -0.093560
  26 H :    0.019700
  27 H :    0.036833
  28 C :   -0.028040
  29 H :    0.030161
  30 H :    0.033462
  31 H :    0.041078
  32 H :    0.047667
  33 H :    0.031773
Sum of atomic charges:   -0.0000000

LOEWDIN ATOMIC CHARGES
----------------------
   0 S :    0.391780
   1 C :   -0.201499
   2 C :   -0.062318
   3 C :   -0.060915
   4 C :   -0.184012
   5 H :    0.025754
   6 C :   -0.031650
   7 H :    0.033656
   8 H :    0.023896
   9 C :   -0.042506
  10 H :    0.024383
  11 H :    0.018754
  12 C :   -0.056910
  13 H :    0.033953
  14 H :    0.021511
  15 H :    0.010895
  16 S :    0.433915
  17 C :   -0.190767
  18 C :   -0.080784
  19 C :   -0.042559
  20 C :   -0.208004
  21 H :    0.039991
  22 C :   -0.035484
  23 H :    0.020300
  24 H :    0.036229
  25 C :   -0.037870
  26 H :    0.022021
  27 H :    0.029001
  28 C :   -0.058341
  29 H :    0.020901
  30 H :    0.024570
  31 H :    0.036879
  32 H :    0.031143
  33 H :    0.014086

  Mayer bond orders larger than 0.100000
B(  0-S ,  1-C ) :   1.1355 B(  0-S ,  4-C ) :   1.1458 B(  1-C ,  2-C ) :   1.6124
B(  1-C , 32-H ) :   0.9725 B(  2-C ,  3-C ) :   1.2261 B(  2-C ,  6-C ) :   1.0165
B(  3-C ,  4-C ) :   1.5945 B(  3-C ,  5-H ) :   0.9978 B(  4-C , 20-C ) :   1.0209
B(  6-C ,  7-H ) :   0.9470 B(  6-C ,  8-H ) :   0.9421 B(  6-C ,  9-C ) :   1.0570
B(  9-C , 10-H ) :   0.9620 B(  9-C , 11-H ) :   0.9541 B(  9-C , 12-C ) :   1.0955
B( 12-C , 13-H ) :   0.9691 B( 12-C , 14-H ) :   0.9725 B( 12-C , 15-H ) :   0.9705
B( 16-S , 17-C ) :   1.1653 B( 16-S , 20-C ) :   1.1584 B( 17-C , 18-C ) :   1.6193
B( 17-C , 33-H ) :   0.9710 B( 18-C , 19-C ) :   1.2243 B( 18-C , 21-H ) :   0.9794
B( 19-C , 20-C ) :   1.5917 B( 19-C , 22-C ) :   1.0498 B( 22-C , 23-H ) :   0.9121
B( 22-C , 24-H ) :   0.9197 B( 22-C , 25-C ) :   1.0703 B( 25-C , 26-H ) :   0.9530
B( 25-C , 27-H ) :   0.9522 B( 25-C , 28-C ) :   1.0866 B( 28-C , 29-H ) :   0.9753
B( 28-C , 30-H ) :   0.9735 B( 28-C , 31-H ) :   0.9733

Dispersion correction           -0.013342196
FINAL SINGLE POINT ENERGY     -1339.871767962022

DIPOLE MOMENT
-------------
                                X             Y             Z
Electronic contribution:     28.41679      -8.06548       0.74681
Nuclear contribution   :    -28.98966       8.26197      -0.60721
                        -----------------------------------------
Total Dipole Moment    :     -0.57287       0.19649       0.13960
                        -----------------------------------------
Magnitude (a.u.)       :      0.62151
Magnitude (Debye)      :      1.57976

Rotational constants in cm-1:     0.016002     0.008392     0.006375
Rotational constants in MHz :   479.718683   251.591989   191.132181

                             ****ORCA TERMINATED NORMALLY****
TOTAL RUN TIME: 0 days 0 hours 0 minutes 28 seconds 779 msec
