                         Program Version 4.2.1 -  RELEASE  -
|  1> ! wB97X-D3 SP def2-SVP
|  2> %pal
|  3> nprocs 16
|  4> end
|  5>
|  6> * xyz 0 1
|  7> S 	 8.49659 	 -7.41412 	 64.2115
|  8> C 	 7.14503 	 -6.26477 	 64.4615
|  9> C 	 7.44138 	 -5.06999 	 63.7888
| 10> C 	 8.72199 	 -5.13276 	 63.1337
| 11> C 	 9.42833 	 -6.32604 	 63.2111
| 12> H 	 9.12301 	 -4.41844 	 62.5028
| 13> C 	 6.5744 	 -3.85743 	 63.687
| 14> H 	 5.49949 	 -4.20026 	 63.7607
| 15> H 	 6.64253 	 -3.41613 	 62.7286
| 16> C 	 6.75064 	 -2.79204 	 64.7539
| 17> H 	 5.91256 	 -2.05893 	 64.6347
| 18> H 	 6.62613 	 -3.3077 	 65.7187
| 19> C 	 8.06432 	 -2.06645 	 64.8333
| 20> H 	 8.84532 	 -2.79297 	 65.0152
| 21> H 	 8.31699 	 -1.42721 	 63.9987
| 22> H 	 8.02636 	 -1.39281 	 65.7551
| 23> S 	 11.1015 	 -6.43459 	 61.011
| 24> C 	 12.8519 	 -6.69804 	 61.2242
| 25> C 	 13.096 	 -6.75037 	 62.6083
| 26> C 	 11.9426 	 -6.69294 	 63.4267
| 27> C 	 10.7842 	 -6.56136 	 62.7112
| 28> H 	 14.142 	 -6.91334 	 62.92
| 29> C 	 12.1075 	 -6.77689 	 64.896
| 30> H 	 11.2181 	 -6.61533 	 65.5284
| 31> H 	 12.8405 	 -5.98654 	 65.1945
| 32> C 	 12.597 	 -8.1716 	 65.4442
| 33> H 	 13.4674 	 -8.52307 	 64.9307
| 34> H 	 11.7449 	 -8.92873 	 65.245
| 35> C 	 12.7738 	 -8.15247 	 66.8697
| 36> H 	 13.0035 	 -9.14748 	 67.2819
| 37> H 	 11.8789 	 -7.86532 	 67.4289
| 38> H 	 13.5743 	 -7.40967 	 67.1095
| 39> H 	 6.22846 	 -6.48208 	 65.053
| 40> H 	 13.6875 	 -6.67584 	 60.5022
| 41> *
| 42>
| 43>                          ****END OF INPUT****

CARTESIAN COORDINATES (ANGSTROEM)
---------------------------------
  S      8.496590   -7.414120   64.211500
  C      7.145030   -6.264770   64.461500
  C      7.441380   -5.069990   63.788800
  C      8.721990   -5.132760   63.133700
  C      9.428330   -6.326040   63.211100
  H      9.123010   -4.418440   62.502800
  C      6.574400   -3.857430   63.687000
  H      5.499490   -4.200260   63.760700
  H      6.642530   -3.416130   62.728600
  C      6.750640   -2.792040   64.753900
  H      5.912560   -2.058930   64.634700
  H      6.626130   -3.307700   65.718700
  C      8.064320   -2.066450   64.833300
  H      8.845320   -2.792970   65.015200
  H      8.316990   -1.427210   63.998700
  H      8.026360   -1.392810   65.755100
  S     11.101500   -6.434590   61.011000
  C     12.851900   -6.698040   61.224200
  C     13.096000   -6.750370   62.608300
  C     11.942600   -6.692940   63.426700
  C     10.784200   -6.561360   62.711200
  H     14.142000   -6.913340   62.920000
  C     12.107500   -6.776890   64.896000
  H     11.218100   -6.615330   65.528400
  H     12.840500   -5.986540   65.194500
  C     12.597000   -8.171600   65.444200
  H     13.467400   -8.523070   64.930700
  H     11.744900   -8.928730   65.245000
  C     12.773800   -8.152470   66.869700
  H     13.003500   -9.147480   67.281900
  H     11.878900   -7.865320   67.428900
  H     13.574300   -7.409670   67.109500
  H      6.228460   -6.482080   65.053000
  H     13.687500   -6.675840   60.502200

 Total Charge           Charge          ....    0
 Multiplicity           Mult            ....    1
 Number of Electrons    NEL             ....  134
 Basis Dimension        Dim             ....  322

ORBITAL ENERGIES
----------------

  NO   OCC          E(Eh)            E(eV)
   0   2.0000     -88.969458     -2420.9820
   1   2.0000     -88.967857     -2420.9385
   2   2.0000     -10.331941      -281.1464
   3   2.0000     -10.327612      -281.0286
   4   2.0000     -10.326103      -280.9875
   5   2.0000     -10.325671      -280.9758
   6   2.0000     -10.305990      -280.4402
   7   2.0000     -10.300455      -280.2896
   8   2.0000     -10.297757      -280.2162
   9   2.0000     -10.292348      -280.0690
  10   2.0000     -10.289737      -279.9980
  11   2.0000     -10.289414      -279.9892
  12   2.0000     -10.286745      -279.9166
  13   2.0000     -10.283806      -279.8366
  14   2.0000     -10.276761      -279.6449
  15   2.0000     -10.274176      -279.5745
  16   2.0000      -8.083540      -219.9643
  17   2.0000      -8.081428      -219.9068
  18   2.0000      -6.042197      -164.4165
  19   2.0000      -6.040020      -164.3573
  20   2.0000      -6.038026      -164.3031
  21   2.0000      -6.035886      -164.2448
  22   2.0000      -6.034266      -164.2007
  23   2.0000      -6.032363      -164.1490
  24   2.0000      -1.006724       -27.3944
  25   2.0000      -0.982194       -26.7269
  26   2.0000      -0.915335       -24.9075
  27   2.0000      -0.914599       -24.8875
  28   2.0000      -0.869055       -23.6482
  29   2.0000      -0.858967       -23.3737
  30   2.0000      -0.844398       -22.9772
  31   2.0000      -0.814727       -22.1699
  32   2.0000      -0.783842       -21.3294
  33   2.0000      -0.769660       -20.9435
  34   2.0000      -0.702159       -19.1067
  35   2.0000      -0.695455       -18.9243
  36   2.0000      -0.689286       -18.7564
  37   2.0000      -0.662673       -18.0323
  38   2.0000      -0.642238       -17.4762
  39   2.0000      -0.614444       -16.7199
  40   2.0000      -0.599659       -16.3176
  41   2.0000      -0.579620       -15.7723
  42   2.0000      -0.567260       -15.4359
  43   2.0000      -0.545902       -14.8548
  44   2.0000      -0.542539       -14.7632
  45   2.0000      -0.523835       -14.2543
  46   2.0000      -0.520750       -14.1703
  47   2.0000      -0.516406       -14.0521
  48   2.0000      -0.510454       -13.8902
  49   2.0000      -0.503123       -13.6907
  50   2.0000      -0.488587       -13.2951
  51   2.0000      -0.484689       -13.1891
  52   2.0000      -0.469488       -12.7754
  53   2.0000      -0.464761       -12.6468
  54   2.0000      -0.462364       -12.5816
  55   2.0000      -0.448607       -12.2072
  56   2.0000      -0.437744       -11.9116
  57   2.0000      -0.429321       -11.6824
  58   2.0000      -0.425105       -11.5677
  59   2.0000      -0.419637       -11.4189
  60   2.0000      -0.419384       -11.4120
  61   2.0000      -0.414533       -11.2800
  62   2.0000      -0.409061       -11.1311
  63   2.0000      -0.340187        -9.2569
  64   2.0000      -0.333112        -9.0644
  65   2.0000      -0.327146        -8.9021
  66   2.0000      -0.301668        -8.2088
  67   0.0000       0.033559         0.9132
  68   0.0000       0.060874         1.6565
  69   0.0000       0.109273         2.9735
  70   0.0000       0.116488         3.1698
  71   0.0000       0.129318         3.5189

MULLIKEN ATOMIC CHARGES
-----------------------
   0 S :    0.100478
   1 C :   -0.145967
   2 C :   -0.078591
   3 C :    0.058513
   4 C :   -0.162742
   5 H :   -0.019740
   6 C :    0.073626
   7 H :    0.027991
   8 H :    0.016580
   9 C :   -0.073316
  10 H :    0.034508
  11 H :    0.021359
  12 C :   -0.060715
  13 H :    0.039128
  14 H :    0.032195
  15 H :    0.039236
  16 S :    0.110524
  17 C :   -0.106343
  18 C :   -0.061406
  19 C :    0.037616
  20 C :   -0.161620
  21 H :    0.031217
  22 C :    0.018119
  23 H :    0.023060
  24 H :    0.034110
  25 C :   -0.083492
  26 H :    0.022921
  27 H :    0.034985
  28 C :   -0.031170
  29 H :    0.035719
  30 H :    0.026721
  31 H :    0.025544
  32 H :    0.070153
  33 H :    0.070800
Sum of atomic charges:   -0.0000000

LOEWDIN ATOMIC CHARGES
----------------------
   0 S :    0.396679
   1 C :   -0.192695
   2 C :   -0.062703
   3 C :   -0.056262
   4 C :   -0.193775
   5 H :    0.015756
   6 C :   -0.036647
   7 H :    0.039755
   8 H :    0.024231
   9 C :   -0.044532
  10 H :    0.027367
  11 H :    0.025697
  12 C :   -0.070745
  13 H :    0.025548
  14 H :    0.020771
  15 H :    0.036528
  16 S :    0.408911
  17 C :   -0.187297
  18 C :   -0.069233
  19 C :   -0.061242
  20 C :   -0.204702
  21 H :    0.034996
  22 C :   -0.036898
  23 H :    0.028095
  24 H :    0.035380
  25 C :   -0.044008
  26 H :    0.015957
  27 H :    0.032750
  28 C :   -0.070704
  29 H :    0.029878
  30 H :    0.025444
  31 H :    0.026675
  32 H :    0.040029
  33 H :    0.040996

  Mayer bond orders larger than 0.100000
B(  0-S ,  1-C ) :   1.1424 B(  0-S ,  4-C ) :   1.1440 B(  1-C ,  2-C ) :   1.5864
B(  1-C ,  4-C ) :   0.1002 B(  1-C , 32-H ) :   0.9660 B(  2-C ,  3-C ) :   1.2403
B(  2-C ,  6-C ) :   1.0280 B(  3-C ,  4-C ) :   1.5848 B(  3-C ,  5-H ) :   1.0001
B(  4-C , 20-C ) :   1.0069 B(  6-C ,  7-H ) :   0.9365 B(  6-C ,  8-H ) :   0.9395
B(  6-C ,  9-C ) :   1.0782 B(  9-C , 10-H ) :   0.9534 B(  9-C , 11-H ) :   0.9513
B(  9-C , 12-C ) :   1.0898 B( 12-C , 13-H ) :   0.9701 B( 12-C , 14-H ) :   0.9750
B( 12-C , 15-H ) :   0.9709 B( 16-S , 17-C ) :   1.1476 B( 16-S , 20-C ) :   1.1405
B( 17-C , 18-C ) :   1.6105 B( 17-C , 33-H ) :   0.9641 B( 18-C , 19-C ) :   1.2421
B( 18-C , 21-H ) :   0.9834 B( 19-C , 20-C ) :   1.5895 B( 19-C , 22-C ) :   1.0539
B( 22-C , 23-H ) :   0.9351 B( 22-C , 24-H ) :   0.9317 B( 22-C , 25-C ) :   1.0534
B( 25-C , 26-H ) :   0.9540 B( 25-C , 27-H ) :   0.9473 B( 25-C , 28-C ) :   1.1085
B( 28-C , 29-H ) :   0.9671 B( 28-C , 30-H ) :   0.9663 B( 28-C , 31-H ) :   0.9667

Dispersion correction           -0.014369830
FINAL SINGLE POINT ENERGY     -1339.882872453102

DIPOLE MOMENT
-------------
                                X             Y             Z
Electronic contribution:     -1.19526     -10.59377     -18.12256
Nuclear contribution   :      1.32946      10.95363      18.41618
                        -----------------------------------------
Total Dipole Moment    :      0.13420       0.35986       0.29362
                        -----------------------------------------
Magnitude (a.u.)       :      0.48345
Magnitude (Debye)      :      1.22883

Rotational constants in cm-1:     0.017944     0.008471     0.007232
Rotational constants in MHz :   537.946453   253.966766   216.805913

                             ****ORCA TERMINATED NORMALLY****
TOTAL RUN TIME: 0 days 0 hours 0 minutes 33 seconds 212 msec
