                         Program Version 4.2.1 -  RELEASE  -
|  1> ! wB97X-D3 SP def2-SVP
|  2> %pal
|  3> nprocs 16
|  4> end
|  5>
|  6> * xyz 0 1
|  7> S 	 35.7713 	 -5.89399 	 71.3413
|  8> C 	 35.9384 	 -5.27865 	 72.9992
|  9> C 	 34.8827 	 -4.44271 	 73.4222
| 10> C 	 33.9613 	 -4.23718 	 72.3283
| 11> C 	 34.4486 	 -4.8018 	 71.1057
| 12> H 	 33.0909 	 -3.65108 	 72.2205
| 13> C 	 34.7831 	 -3.70516 	 74.7824
| 14> H 	 35.8464 	 -3.6957 	 75.1828
| 15> H 	 34.4447 	 -4.42363 	 75.5613
| 16> C 	 34.2704 	 -2.26773 	 74.8101
| 17> H 	 34.5371 	 -1.71011 	 73.8946
| 18> H 	 33.1534 	 -2.37507 	 74.8713
| 19> C 	 34.8837 	 -1.52703 	 76.0202
| 20> H 	 35.9821 	 -1.37949 	 75.8739
| 21> H 	 34.5269 	 -0.531187 	 75.965
| 22> H 	 34.6522 	 -1.80286 	 77.0265
| 23> S 	 33.7212 	 -6.09609 	 68.7694
| 24> C 	 32.964 	 -5.20542 	 67.4629
| 25> C 	 33.0123 	 -3.89789 	 67.7597
| 26> C 	 33.4641 	 -3.57443 	 69.0722
| 27> C 	 33.8777 	 -4.70107 	 69.7644
| 28> H 	 32.7453 	 -3.18399 	 67.0005
| 29> C 	 33.3575 	 -2.16126 	 69.5955
| 30> H 	 34.1235 	 -1.77486 	 69.0002
| 31> H 	 33.6992 	 -2.01916 	 70.6667
| 32> C 	 32.0594 	 -1.38254 	 69.2844
| 33> H 	 31.3362 	 -1.8569 	 69.9303
| 34> H 	 31.6814 	 -1.55271 	 68.2592
| 35> C 	 32.1926 	 0.132945 	 69.4539
| 36> H 	 32.9515 	 0.490855 	 68.7329
| 37> H 	 32.4489 	 0.301676 	 70.5225
| 38> H 	 31.2873 	 0.635433 	 69.1895
| 39> H 	 36.7539 	 -5.6271 	 73.6546
| 40> H 	 32.6847 	 -5.6659 	 66.4987
| 41> *
| 42>
| 43>                          ****END OF INPUT****

CARTESIAN COORDINATES (ANGSTROEM)
---------------------------------
  S     35.771300   -5.893990   71.341300
  C     35.938400   -5.278650   72.999200
  C     34.882700   -4.442710   73.422200
  C     33.961300   -4.237180   72.328300
  C     34.448600   -4.801800   71.105700
  H     33.090900   -3.651080   72.220500
  C     34.783100   -3.705160   74.782400
  H     35.846400   -3.695700   75.182800
  H     34.444700   -4.423630   75.561300
  C     34.270400   -2.267730   74.810100
  H     34.537100   -1.710110   73.894600
  H     33.153400   -2.375070   74.871300
  C     34.883700   -1.527030   76.020200
  H     35.982100   -1.379490   75.873900
  H     34.526900   -0.531187   75.965000
  H     34.652200   -1.802860   77.026500
  S     33.721200   -6.096090   68.769400
  C     32.964000   -5.205420   67.462900
  C     33.012300   -3.897890   67.759700
  C     33.464100   -3.574430   69.072200
  C     33.877700   -4.701070   69.764400
  H     32.745300   -3.183990   67.000500
  C     33.357500   -2.161260   69.595500
  H     34.123500   -1.774860   69.000200
  H     33.699200   -2.019160   70.666700
  C     32.059400   -1.382540   69.284400
  H     31.336200   -1.856900   69.930300
  H     31.681400   -1.552710   68.259200
  C     32.192600    0.132945   69.453900
  H     32.951500    0.490855   68.732900
  H     32.448900    0.301676   70.522500
  H     31.287300    0.635433   69.189500
  H     36.753900   -5.627100   73.654600
  H     32.684700   -5.665900   66.498700

 Total Charge           Charge          ....    0
 Multiplicity           Mult            ....    1
 Number of Electrons    NEL             ....  134
 Basis Dimension        Dim             ....  322

ORBITAL ENERGIES
----------------

  NO   OCC          E(Eh)            E(eV)
   0   2.0000     -88.967804     -2420.9370
   1   2.0000     -88.959543     -2420.7122
   2   2.0000     -10.330363      -281.1035
   3   2.0000     -10.321365      -280.8586
   4   2.0000     -10.316736      -280.7327
   5   2.0000     -10.315518      -280.6995
   6   2.0000     -10.311641      -280.5940
   7   2.0000     -10.300536      -280.2918
   8   2.0000     -10.300333      -280.2863
   9   2.0000     -10.300267      -280.2845
  10   2.0000     -10.296495      -280.1819
  11   2.0000     -10.289308      -279.9863
  12   2.0000     -10.288284      -279.9584
  13   2.0000     -10.287664      -279.9416
  14   2.0000     -10.282766      -279.8083
  15   2.0000     -10.280378      -279.7433
  16   2.0000      -8.082346      -219.9318
  17   2.0000      -8.075131      -219.7355
  18   2.0000      -6.040675      -164.3751
  19   2.0000      -6.037035      -164.2761
  20   2.0000      -6.033702      -164.1854
  21   2.0000      -6.033168      -164.1709
  22   2.0000      -6.029523      -164.0717
  23   2.0000      -6.025772      -163.9696
  24   2.0000      -1.008434       -27.4409
  25   2.0000      -0.979642       -26.6574
  26   2.0000      -0.911278       -24.7971
  27   2.0000      -0.909002       -24.7352
  28   2.0000      -0.869620       -23.6636
  29   2.0000      -0.852904       -23.2087
  30   2.0000      -0.844073       -22.9684
  31   2.0000      -0.812102       -22.0984
  32   2.0000      -0.782911       -21.3041
  33   2.0000      -0.771377       -20.9902
  34   2.0000      -0.711352       -19.3569
  35   2.0000      -0.700635       -19.0653
  36   2.0000      -0.689010       -18.7489
  37   2.0000      -0.658488       -17.9184
  38   2.0000      -0.640015       -17.4157
  39   2.0000      -0.616516       -16.7763
  40   2.0000      -0.598825       -16.2948
  41   2.0000      -0.568408       -15.4672
  42   2.0000      -0.564236       -15.3536
  43   2.0000      -0.558129       -15.1875
  44   2.0000      -0.529602       -14.4112
  45   2.0000      -0.526047       -14.3145
  46   2.0000      -0.517707       -14.0875
  47   2.0000      -0.512453       -13.9446
  48   2.0000      -0.504759       -13.7352
  49   2.0000      -0.493076       -13.4173
  50   2.0000      -0.487671       -13.2702
  51   2.0000      -0.478331       -13.0160
  52   2.0000      -0.473690       -12.8898
  53   2.0000      -0.467343       -12.7170
  54   2.0000      -0.458716       -12.4823
  55   2.0000      -0.449965       -12.2442
  56   2.0000      -0.447870       -12.1872
  57   2.0000      -0.442834       -12.0501
  58   2.0000      -0.430557       -11.7160
  59   2.0000      -0.426507       -11.6059
  60   2.0000      -0.422803       -11.5051
  61   2.0000      -0.415657       -11.3106
  62   2.0000      -0.408772       -11.1233
  63   2.0000      -0.349013        -9.4971
  64   2.0000      -0.330916        -9.0047
  65   2.0000      -0.323153        -8.7935
  66   2.0000      -0.283192        -7.7061
  67   0.0000       0.028638         0.7793
  68   0.0000       0.073920         2.0115
  69   0.0000       0.105700         2.8762
  70   0.0000       0.123410         3.3582
  71   0.0000       0.128432         3.4948

MULLIKEN ATOMIC CHARGES
-----------------------
   0 S :    0.113103
   1 C :   -0.128755
   2 C :   -0.067069
   3 C :    0.039515
   4 C :   -0.178814
   5 H :    0.000310
   6 C :    0.029053
   7 H :    0.014484
   8 H :    0.044640
   9 C :   -0.072538
  10 H :    0.047411
  11 H :    0.048367
  12 C :   -0.047814
  13 H :    0.042907
  14 H :    0.015079
  15 H :    0.036670
  16 S :    0.086890
  17 C :   -0.098334
  18 C :   -0.036591
  19 C :   -0.028928
  20 C :   -0.151461
  21 H :    0.016104
  22 C :    0.068582
  23 H :    0.013224
  24 H :    0.034222
  25 C :   -0.089324
  26 H :    0.027988
  27 H :    0.026463
  28 C :   -0.035998
  29 H :    0.036216
  30 H :    0.039037
  31 H :    0.032906
  32 H :    0.053147
  33 H :    0.069310
Sum of atomic charges:    0.0000000

LOEWDIN ATOMIC CHARGES
----------------------
   0 S :    0.407175
   1 C :   -0.201707
   2 C :   -0.055176
   3 C :   -0.062833
   4 C :   -0.187935
   5 H :    0.022150
   6 C :   -0.050858
   7 H :    0.034816
   8 H :    0.040321
   9 C :   -0.041856
  10 H :    0.033522
  11 H :    0.031799
  12 C :   -0.066647
  13 H :    0.034156
  14 H :    0.022657
  15 H :    0.023649
  16 S :    0.400605
  17 C :   -0.183723
  18 C :   -0.073093
  19 C :   -0.056296
  20 C :   -0.216272
  21 H :    0.029622
  22 C :   -0.037455
  23 H :    0.027269
  24 H :    0.036172
  25 C :   -0.042197
  26 H :    0.021097
  27 H :    0.023289
  28 C :   -0.061233
  29 H :    0.029874
  30 H :    0.029339
  31 H :    0.023348
  32 H :    0.027869
  33 H :    0.038554

  Mayer bond orders larger than 0.100000
B(  0-S ,  1-C ) :   1.1341 B(  0-S ,  4-C ) :   1.1703 B(  1-C ,  2-C ) :   1.6133
B(  1-C ,  4-C ) :   0.1065 B(  1-C , 32-H ) :   0.9641 B(  2-C ,  3-C ) :   1.2274
B(  2-C ,  6-C ) :   1.0109 B(  3-C ,  4-C ) :   1.5489 B(  3-C ,  5-H ) :   0.9967
B(  4-C , 20-C ) :   1.0523 B(  6-C ,  7-H ) :   0.9448 B(  6-C ,  8-H ) :   0.9296
B(  6-C ,  9-C ) :   1.0469 B(  9-C , 10-H ) :   0.9580 B(  9-C , 11-H ) :   0.9497
B(  9-C , 12-C ) :   1.0896 B( 12-C , 13-H ) :   0.9712 B( 12-C , 14-H ) :   0.9705
B( 12-C , 15-H ) :   0.9772 B( 16-S , 17-C ) :   1.1412 B( 16-S , 20-C ) :   1.1381
B( 17-C , 18-C ) :   1.6181 B( 17-C , 33-H ) :   0.9662 B( 18-C , 19-C ) :   1.2386
B( 18-C , 21-H ) :   0.9895 B( 19-C , 20-C ) :   1.5905 B( 19-C , 22-C ) :   1.0252
B( 22-C , 23-H ) :   0.9185 B( 22-C , 24-H ) :   0.9366 B( 22-C , 25-C ) :   1.0546
B( 25-C , 26-H ) :   0.9582 B( 25-C , 27-H ) :   0.9513 B( 25-C , 28-C ) :   1.0813
B( 28-C , 29-H ) :   0.9748 B( 28-C , 30-H ) :   0.9760 B( 28-C , 31-H ) :   0.9740

Dispersion correction           -0.013630761
FINAL SINGLE POINT ENERGY     -1339.863304866384

DIPOLE MOMENT
-------------
                                X             Y             Z
Electronic contribution:      6.81085     -28.73083     -14.79393
Nuclear contribution   :     -6.99182      29.49702      14.98002
                        -----------------------------------------
Total Dipole Moment    :     -0.18097       0.76619       0.18609
                        -----------------------------------------
Magnitude (a.u.)       :      0.80896
Magnitude (Debye)      :      2.05622

Rotational constants in cm-1:     0.016220     0.009291     0.006136
Rotational constants in MHz :   486.255585   278.525535   183.954075

                             ****ORCA TERMINATED NORMALLY****
TOTAL RUN TIME: 0 days 0 hours 0 minutes 29 seconds 921 msec
