                         Program Version 4.2.1 -  RELEASE  -
|  1> ! wB97X-D3 SP def2-SVP
|  2> %pal
|  3> nprocs 16
|  4> end
|  5>
|  6> * xyz 0 1
|  7> S 	 -35.6126 	 -0.0838477 	 101.655
|  8> C 	 -36.6534 	 -1.31885 	 102.342
|  9> C 	 -36.6141 	 -2.43244 	 101.499
| 10> C 	 -35.7589 	 -2.33231 	 100.378
| 11> C 	 -35.1788 	 -1.06167 	 100.282
| 12> H 	 -35.6041 	 -3.05849 	 99.5855
| 13> C 	 -37.4148 	 -3.65024 	 101.84
| 14> H 	 -38.2515 	 -3.26524 	 102.486
| 15> H 	 -36.7724 	 -4.33437 	 102.455
| 16> C 	 -38.1876 	 -4.43404 	 100.722
| 17> H 	 -37.4744 	 -5.16018 	 100.33
| 18> H 	 -39.0397 	 -4.94865 	 101.235
| 19> C 	 -38.8159 	 -3.51658 	 99.6651
| 20> H 	 -38.3137 	 -2.67311 	 99.2108
| 21> H 	 -39.2278 	 -4.13529 	 98.9363
| 22> H 	 -39.614 	 -2.979 	 100.194
| 23> S 	 -32.9073 	 0.32342 	 99.4337
| 24> C 	 -32.9698 	 0.974468 	 97.8354
| 25> C 	 -33.9891 	 0.491297 	 97.0822
| 26> C 	 -34.7708 	 -0.46073 	 97.794
| 27> C 	 -34.4443 	 -0.50827 	 99.1758
| 28> H 	 -34.049 	 0.699765 	 95.9775
| 29> C 	 -35.9675 	 -1.11643 	 97.1178
| 30> H 	 -36.4356 	 -0.458866 	 96.337
| 31> H 	 -36.7273 	 -1.20676 	 97.8274
| 32> C 	 -35.7645 	 -2.48664 	 96.5822
| 33> H 	 -36.7554 	 -3.0331 	 96.7139
| 34> H 	 -34.9957 	 -3.06992 	 97.1125
| 35> C 	 -35.4409 	 -2.47485 	 95.0599
| 36> H 	 -34.5864 	 -1.82426 	 94.7946
| 37> H 	 -36.155 	 -2.09526 	 94.407
| 38> H 	 -35.1107 	 -3.50402 	 94.8032
| 39> H 	 -37.3122 	 -1.33398 	 103.181
| 40> H 	 -32.1948 	 1.51874 	 97.4545
| 41> *
| 42>
| 43>                          ****END OF INPUT****

CARTESIAN COORDINATES (ANGSTROEM)
---------------------------------
  S    -35.612600   -0.083848  101.655000
  C    -36.653400   -1.318850  102.342000
  C    -36.614100   -2.432440  101.499000
  C    -35.758900   -2.332310  100.378000
  C    -35.178800   -1.061670  100.282000
  H    -35.604100   -3.058490   99.585500
  C    -37.414800   -3.650240  101.840000
  H    -38.251500   -3.265240  102.486000
  H    -36.772400   -4.334370  102.455000
  C    -38.187600   -4.434040  100.722000
  H    -37.474400   -5.160180  100.330000
  H    -39.039700   -4.948650  101.235000
  C    -38.815900   -3.516580   99.665100
  H    -38.313700   -2.673110   99.210800
  H    -39.227800   -4.135290   98.936300
  H    -39.614000   -2.979000  100.194000
  S    -32.907300    0.323420   99.433700
  C    -32.969800    0.974468   97.835400
  C    -33.989100    0.491297   97.082200
  C    -34.770800   -0.460730   97.794000
  C    -34.444300   -0.508270   99.175800
  H    -34.049000    0.699765   95.977500
  C    -35.967500   -1.116430   97.117800
  H    -36.435600   -0.458866   96.337000
  H    -36.727300   -1.206760   97.827400
  C    -35.764500   -2.486640   96.582200
  H    -36.755400   -3.033100   96.713900
  H    -34.995700   -3.069920   97.112500
  C    -35.440900   -2.474850   95.059900
  H    -34.586400   -1.824260   94.794600
  H    -36.155000   -2.095260   94.407000
  H    -35.110700   -3.504020   94.803200
  H    -37.312200   -1.333980  103.181000
  H    -32.194800    1.518740   97.454500

 Total Charge           Charge          ....    0
 Multiplicity           Mult            ....    1
 Number of Electrons    NEL             ....  134
 Basis Dimension        Dim             ....  322

ORBITAL ENERGIES
----------------

  NO   OCC          E(Eh)            E(eV)
   0   2.0000     -88.968280     -2420.9500
   1   2.0000     -88.966776     -2420.9091
   2   2.0000     -10.329917      -281.0913
   3   2.0000     -10.329636      -281.0837
   4   2.0000     -10.312211      -280.6095
   5   2.0000     -10.308296      -280.5030
   6   2.0000     -10.307521      -280.4819
   7   2.0000     -10.298007      -280.2230
   8   2.0000     -10.294764      -280.1348
   9   2.0000     -10.294442      -280.1260
  10   2.0000     -10.294372      -280.1241
  11   2.0000     -10.294350      -280.1235
  12   2.0000     -10.291893      -280.0567
  13   2.0000     -10.284872      -279.8656
  14   2.0000     -10.276464      -279.6368
  15   2.0000     -10.272937      -279.5408
  16   2.0000      -8.082632      -219.9396
  17   2.0000      -8.081796      -219.9169
  18   2.0000      -6.041154      -164.3882
  19   2.0000      -6.040154      -164.3610
  20   2.0000      -6.037036      -164.2761
  21   2.0000      -6.036371      -164.2580
  22   2.0000      -6.033523      -164.1805
  23   2.0000      -6.032604      -164.1555
  24   2.0000      -1.007649       -27.4195
  25   2.0000      -0.985750       -26.8236
  26   2.0000      -0.914289       -24.8791
  27   2.0000      -0.909322       -24.7439
  28   2.0000      -0.871512       -23.7150
  29   2.0000      -0.849457       -23.1149
  30   2.0000      -0.844113       -22.9695
  31   2.0000      -0.817830       -22.2543
  32   2.0000      -0.788150       -21.4466
  33   2.0000      -0.773119       -21.0376
  34   2.0000      -0.715448       -19.4683
  35   2.0000      -0.696438       -18.9510
  36   2.0000      -0.692364       -18.8402
  37   2.0000      -0.658011       -17.9054
  38   2.0000      -0.635866       -17.3028
  39   2.0000      -0.619327       -16.8528
  40   2.0000      -0.603566       -16.4239
  41   2.0000      -0.565803       -15.3963
  42   2.0000      -0.560799       -15.2601
  43   2.0000      -0.549966       -14.9653
  44   2.0000      -0.541300       -14.7295
  45   2.0000      -0.538495       -14.6532
  46   2.0000      -0.523293       -14.2395
  47   2.0000      -0.510671       -13.8961
  48   2.0000      -0.505019       -13.7423
  49   2.0000      -0.500543       -13.6205
  50   2.0000      -0.496091       -13.4993
  51   2.0000      -0.480257       -13.0684
  52   2.0000      -0.473026       -12.8717
  53   2.0000      -0.472300       -12.8519
  54   2.0000      -0.453965       -12.3530
  55   2.0000      -0.450015       -12.2455
  56   2.0000      -0.448328       -12.1996
  57   2.0000      -0.440307       -11.9814
  58   2.0000      -0.428474       -11.6594
  59   2.0000      -0.419662       -11.4196
  60   2.0000      -0.416622       -11.3369
  61   2.0000      -0.408902       -11.1268
  62   2.0000      -0.408177       -11.1071
  63   2.0000      -0.345335        -9.3970
  64   2.0000      -0.334497        -9.1021
  65   2.0000      -0.330642        -8.9972
  66   2.0000      -0.288584        -7.8528
  67   0.0000       0.025666         0.6984
  68   0.0000       0.066573         1.8116
  69   0.0000       0.115628         3.1464
  70   0.0000       0.122143         3.3237
  71   0.0000       0.127210         3.4616

MULLIKEN ATOMIC CHARGES
-----------------------
   0 S :    0.126260
   1 C :   -0.092774
   2 C :   -0.117146
   3 C :    0.039573
   4 C :   -0.149070
   5 H :    0.011101
   6 C :    0.016038
   7 H :    0.018332
   8 H :    0.056844
   9 C :   -0.088153
  10 H :    0.035533
  11 H :    0.046335
  12 C :   -0.038179
  13 H :    0.041288
  14 H :    0.027426
  15 H :    0.019523
  16 S :    0.113817
  17 C :   -0.052071
  18 C :   -0.046546
  19 C :   -0.024068
  20 C :   -0.176869
  21 H :    0.041242
  22 C :    0.086725
  23 H :    0.029018
  24 H :    0.000292
  25 C :   -0.096414
  26 H :    0.037542
  27 H :    0.045526
  28 C :   -0.042746
  29 H :    0.019100
  30 H :    0.020547
  31 H :    0.034541
  32 H :    0.034818
  33 H :    0.022615
Sum of atomic charges:    0.0000000

LOEWDIN ATOMIC CHARGES
----------------------
   0 S :    0.421154
   1 C :   -0.203201
   2 C :   -0.068167
   3 C :   -0.066367
   4 C :   -0.195811
   5 H :    0.032842
   6 C :   -0.043894
   7 H :    0.030639
   8 H :    0.038651
   9 C :   -0.040501
  10 H :    0.018728
  11 H :    0.036215
  12 C :   -0.067587
  13 H :    0.024968
  14 H :    0.019180
  15 H :    0.030631
  16 S :    0.410422
  17 C :   -0.172958
  18 C :   -0.078442
  19 C :   -0.042279
  20 C :   -0.203172
  21 H :    0.043233
  22 C :   -0.037605
  23 H :    0.037636
  24 H :    0.021246
  25 C :   -0.042395
  26 H :    0.032311
  27 H :    0.026604
  28 C :   -0.067683
  29 H :    0.024851
  30 H :    0.013916
  31 H :    0.029679
  32 H :    0.027654
  33 H :    0.009503

  Mayer bond orders larger than 0.100000
B(  0-S ,  1-C ) :   1.1299 B(  0-S ,  4-C ) :   1.1745 B(  1-C ,  2-C ) :   1.5948
B(  1-C ,  4-C ) :   0.1034 B(  1-C , 32-H ) :   0.9702 B(  2-C ,  3-C ) :   1.2448
B(  2-C ,  6-C ) :   1.0293 B(  3-C ,  4-C ) :   1.5261 B(  3-C ,  5-H ) :   1.0022
B(  4-C , 20-C ) :   1.0643 B(  6-C ,  7-H ) :   0.9431 B(  6-C ,  8-H ) :   0.9409
B(  6-C ,  9-C ) :   1.0610 B(  9-C , 10-H ) :   0.9569 B(  9-C , 11-H ) :   0.9611
B(  9-C , 12-C ) :   1.0714 B( 12-C , 13-H ) :   0.9724 B( 12-C , 14-H ) :   0.9732
B( 12-C , 15-H ) :   0.9702 B( 16-S , 17-C ) :   1.1604 B( 16-S , 20-C ) :   1.1436
B( 17-C , 18-C ) :   1.5999 B( 17-C , 33-H ) :   0.9751 B( 18-C , 19-C ) :   1.2659
B( 18-C , 21-H ) :   0.9798 B( 19-C , 20-C ) :   1.5488 B( 19-C , 22-C ) :   1.0480
B( 22-C , 23-H ) :   0.9400 B( 22-C , 24-H ) :   0.9239 B( 22-C , 25-C ) :   1.0574
B( 25-C , 26-H ) :   0.9551 B( 25-C , 27-H ) :   0.9542 B( 25-C , 28-C ) :   1.0774
B( 28-C , 29-H ) :   0.9737 B( 28-C , 30-H ) :   0.9763 B( 28-C , 31-H ) :   0.9746

Dispersion correction           -0.015792889
FINAL SINGLE POINT ENERGY     -1339.865181171464

DIPOLE MOMENT
-------------
                                X             Y             Z
Electronic contribution:     18.06991      19.55200      15.21691
Nuclear contribution   :    -18.48095     -19.93563     -15.65254
                        -----------------------------------------
Total Dipole Moment    :     -0.41104      -0.38363      -0.43563
                        -----------------------------------------
Magnitude (a.u.)       :      0.71127
Magnitude (Debye)      :      1.80789

Rotational constants in cm-1:     0.017483     0.010721     0.007112
Rotational constants in MHz :   524.134241   321.409516   213.217544

                             ****ORCA TERMINATED NORMALLY****
TOTAL RUN TIME: 0 days 0 hours 0 minutes 32 seconds 60 msec
