                         Program Version 4.2.1 -  RELEASE  -
|  1> ! wB97X-D3 SP def2-SVP
|  2> %pal
|  3> nprocs 16
|  4> end
|  5>
|  6> * xyz 0 1
|  7> S 	 -62.5695 	 48.0771 	 124.002
|  8> C 	 -63.037 	 49.3821 	 125.03
|  9> C 	 -64.3674 	 49.8464 	 124.942
| 10> C 	 -65.0378 	 48.9953 	 124.052
| 11> C 	 -64.2814 	 47.959 	 123.569
| 12> H 	 -66.0701 	 48.9734 	 123.791
| 13> C 	 -64.9575 	 51.0909 	 125.516
| 14> H 	 -64.8476 	 50.9792 	 126.574
| 15> H 	 -66.0305 	 51.0521 	 125.31
| 16> C 	 -64.3082 	 52.3744 	 124.951
| 17> H 	 -63.1939 	 52.3117 	 125.127
| 18> H 	 -64.4682 	 52.3321 	 123.836
| 19> C 	 -64.9858 	 53.6341 	 125.491
| 20> H 	 -64.8284 	 53.8362 	 126.538
| 21> H 	 -64.7081 	 54.5015 	 124.949
| 22> H 	 -66.0549 	 53.6577 	 125.419
| 23> S 	 -63.5377 	 46.2183 	 121.592
| 24> C 	 -64.7198 	 45.2746 	 120.856
| 25> C 	 -65.8726 	 45.2282 	 121.557
| 26> C 	 -65.857 	 46.0505 	 122.734
| 27> C 	 -64.6968 	 46.7527 	 122.818
| 28> H 	 -66.6624 	 44.6189 	 121.23
| 29> C 	 -67.0623 	 46.1862 	 123.579
| 30> H 	 -66.8709 	 46.8812 	 124.422
| 31> H 	 -67.2391 	 45.2204 	 123.918
| 32> C 	 -68.3364 	 46.7734 	 122.803
| 33> H 	 -68.4965 	 46.0739 	 121.94
| 34> H 	 -68.1242 	 47.6688 	 122.269
| 35> C 	 -69.6004 	 46.9166 	 123.603
| 36> H 	 -70.2542 	 47.7495 	 123.27
| 37> H 	 -69.3884 	 47.1365 	 124.621
| 38> H 	 -70.1855 	 45.9588 	 123.642
| 39> H 	 -62.1821 	 49.986 	 125.395
| 40> H 	 -64.3602 	 44.7063 	 120.028
| 41> *
| 42>
| 43>                          ****END OF INPUT****

CARTESIAN COORDINATES (ANGSTROEM)
---------------------------------
  S    -62.569500   48.077100  124.002000
  C    -63.037000   49.382100  125.030000
  C    -64.367400   49.846400  124.942000
  C    -65.037800   48.995300  124.052000
  C    -64.281400   47.959000  123.569000
  H    -66.070100   48.973400  123.791000
  C    -64.957500   51.090900  125.516000
  H    -64.847600   50.979200  126.574000
  H    -66.030500   51.052100  125.310000
  C    -64.308200   52.374400  124.951000
  H    -63.193900   52.311700  125.127000
  H    -64.468200   52.332100  123.836000
  C    -64.985800   53.634100  125.491000
  H    -64.828400   53.836200  126.538000
  H    -64.708100   54.501500  124.949000
  H    -66.054900   53.657700  125.419000
  S    -63.537700   46.218300  121.592000
  C    -64.719800   45.274600  120.856000
  C    -65.872600   45.228200  121.557000
  C    -65.857000   46.050500  122.734000
  C    -64.696800   46.752700  122.818000
  H    -66.662400   44.618900  121.230000
  C    -67.062300   46.186200  123.579000
  H    -66.870900   46.881200  124.422000
  H    -67.239100   45.220400  123.918000
  C    -68.336400   46.773400  122.803000
  H    -68.496500   46.073900  121.940000
  H    -68.124200   47.668800  122.269000
  C    -69.600400   46.916600  123.603000
  H    -70.254200   47.749500  123.270000
  H    -69.388400   47.136500  124.621000
  H    -70.185500   45.958800  123.642000
  H    -62.182100   49.986000  125.395000
  H    -64.360200   44.706300  120.028000

 Total Charge           Charge          ....    0
 Multiplicity           Mult            ....    1
 Number of Electrons    NEL             ....  134
 Basis Dimension        Dim             ....  322

ORBITAL ENERGIES
----------------

  NO   OCC          E(Eh)            E(eV)
   0   2.0000     -88.965631     -2420.8779
   1   2.0000     -88.955836     -2420.6114
   2   2.0000     -10.325820      -280.9798
   3   2.0000     -10.321084      -280.8510
   4   2.0000     -10.312185      -280.6088
   5   2.0000     -10.308174      -280.4997
   6   2.0000     -10.301013      -280.3048
   7   2.0000     -10.298303      -280.2311
   8   2.0000     -10.297920      -280.2207
   9   2.0000     -10.291185      -280.0374
  10   2.0000     -10.290488      -280.0184
  11   2.0000     -10.290007      -280.0053
  12   2.0000     -10.287753      -279.9440
  13   2.0000     -10.286380      -279.9066
  14   2.0000     -10.280605      -279.7495
  15   2.0000     -10.273125      -279.5459
  16   2.0000      -8.080815      -219.8901
  17   2.0000      -8.072800      -219.6721
  18   2.0000      -6.038972      -164.3288
  19   2.0000      -6.035608      -164.2372
  20   2.0000      -6.031585      -164.1278
  21   2.0000      -6.031110      -164.1148
  22   2.0000      -6.027158      -164.0073
  23   2.0000      -6.023482      -163.9073
  24   2.0000      -1.011809       -27.5327
  25   2.0000      -0.989389       -26.9227
  26   2.0000      -0.913566       -24.8594
  27   2.0000      -0.910713       -24.7818
  28   2.0000      -0.865882       -23.5619
  29   2.0000      -0.860689       -23.4205
  30   2.0000      -0.851621       -23.1738
  31   2.0000      -0.816006       -22.2047
  32   2.0000      -0.787129       -21.4189
  33   2.0000      -0.771043       -20.9811
  34   2.0000      -0.708930       -19.2910
  35   2.0000      -0.706752       -19.2317
  36   2.0000      -0.688080       -18.7236
  37   2.0000      -0.669320       -18.2131
  38   2.0000      -0.640473       -17.4281
  39   2.0000      -0.620835       -16.8938
  40   2.0000      -0.603456       -16.4209
  41   2.0000      -0.569058       -15.4849
  42   2.0000      -0.564434       -15.3590
  43   2.0000      -0.554121       -15.0784
  44   2.0000      -0.529968       -14.4212
  45   2.0000      -0.526618       -14.3300
  46   2.0000      -0.519970       -14.1491
  47   2.0000      -0.514948       -14.0124
  48   2.0000      -0.508258       -13.8304
  49   2.0000      -0.498299       -13.5594
  50   2.0000      -0.486064       -13.2265
  51   2.0000      -0.480358       -13.0712
  52   2.0000      -0.469202       -12.7676
  53   2.0000      -0.464899       -12.6505
  54   2.0000      -0.461554       -12.5595
  55   2.0000      -0.453467       -12.3395
  56   2.0000      -0.447886       -12.1876
  57   2.0000      -0.438204       -11.9241
  58   2.0000      -0.437507       -11.9052
  59   2.0000      -0.434436       -11.8216
  60   2.0000      -0.424298       -11.5457
  61   2.0000      -0.418406       -11.3854
  62   2.0000      -0.409664       -11.1475
  63   2.0000      -0.351270        -9.5586
  64   2.0000      -0.337176        -9.1750
  65   2.0000      -0.328045        -8.9266
  66   2.0000      -0.281108        -7.6493
  67   0.0000       0.028258         0.7689
  68   0.0000       0.074606         2.0301
  69   0.0000       0.098630         2.6839
  70   0.0000       0.125235         3.4078
  71   0.0000       0.133493         3.6325

MULLIKEN ATOMIC CHARGES
-----------------------
   0 S :    0.105969
   1 C :   -0.135713
   2 C :   -0.091638
   3 C :    0.008207
   4 C :   -0.128673
   5 H :   -0.008015
   6 C :    0.097462
   7 H :    0.031866
   8 H :    0.017166
   9 C :   -0.106633
  10 H :    0.044273
  11 H :    0.042983
  12 C :   -0.000827
  13 H :    0.023923
  14 H :    0.023059
  15 H :    0.014639
  16 S :    0.073223
  17 C :   -0.067355
  18 C :   -0.025801
  19 C :   -0.055943
  20 C :   -0.120253
  21 H :    0.000928
  22 C :    0.090160
  23 H :    0.028948
  24 H :    0.017695
  25 C :   -0.102689
  26 H :    0.025154
  27 H :    0.024124
  28 C :   -0.031789
  29 H :    0.041700
  30 H :    0.016767
  31 H :    0.039859
  32 H :    0.055582
  33 H :    0.051640
Sum of atomic charges:   -0.0000000

LOEWDIN ATOMIC CHARGES
----------------------
   0 S :    0.403980
   1 C :   -0.208532
   2 C :   -0.059078
   3 C :   -0.066527
   4 C :   -0.176441
   5 H :    0.026989
   6 C :   -0.031732
   7 H :    0.031710
   8 H :    0.030511
   9 C :   -0.038621
  10 H :    0.030750
  11 H :    0.033804
  12 C :   -0.067387
  13 H :    0.024564
  14 H :    0.023488
  15 H :    0.024113
  16 S :    0.403284
  17 C :   -0.185338
  18 C :   -0.070574
  19 C :   -0.058591
  20 C :   -0.187649
  21 H :    0.022911
  22 C :   -0.022035
  23 H :    0.031056
  24 H :    0.025679
  25 C :   -0.043748
  26 H :    0.026227
  27 H :    0.019800
  28 C :   -0.072381
  29 H :    0.033733
  30 H :    0.019151
  31 H :    0.032959
  32 H :    0.021475
  33 H :    0.022448

  Mayer bond orders larger than 0.100000
B(  0-S ,  1-C ) :   1.1616 B(  0-S ,  4-C ) :   1.1492 B(  1-C ,  2-C ) :   1.5846
B(  1-C ,  4-C ) :   0.1074 B(  1-C , 32-H ) :   0.9597 B(  2-C ,  3-C ) :   1.2515
B(  2-C ,  6-C ) :   1.0182 B(  3-C ,  4-C ) :   1.5939 B(  3-C ,  5-H ) :   0.9954
B(  4-C , 20-C ) :   1.0060 B(  6-C ,  7-H ) :   0.9277 B(  6-C ,  8-H ) :   0.9397
B(  6-C ,  9-C ) :   1.0584 B(  9-C , 10-H ) :   0.9575 B(  9-C , 11-H ) :   0.9563
B(  9-C , 12-C ) :   1.0796 B( 12-C , 13-H ) :   0.9731 B( 12-C , 14-H ) :   0.9728
B( 12-C , 15-H ) :   0.9703 B( 16-S , 17-C ) :   1.1736 B( 16-S , 20-C ) :   1.1211
B( 17-C , 18-C ) :   1.6012 B( 17-C , 33-H ) :   0.9737 B( 18-C , 19-C ) :   1.1958
B( 18-C , 21-H ) :   1.0087 B( 19-C , 20-C ) :   1.6488 B( 19-C , 22-C ) :   1.0562
B( 22-C , 23-H ) :   0.9370 B( 22-C , 24-H ) :   0.9201 B( 22-C , 25-C ) :   1.0516
B( 25-C , 26-H ) :   0.9542 B( 25-C , 27-H ) :   0.9605 B( 25-C , 28-C ) :   1.0794
B( 28-C , 29-H ) :   0.9743 B( 28-C , 30-H ) :   0.9726 B( 28-C , 31-H ) :   0.9741

Dispersion correction           -0.013763628
FINAL SINGLE POINT ENERGY     -1339.872335612494

DIPOLE MOMENT
-------------
                                X             Y             Z
Electronic contribution:     22.98674     -16.93538      -9.07903
Nuclear contribution   :    -23.61262      17.21738       9.12801
                        -----------------------------------------
Total Dipole Moment    :     -0.62589       0.28201       0.04898
                        -----------------------------------------
Magnitude (a.u.)       :      0.68823
Magnitude (Debye)      :      1.74935

Rotational constants in cm-1:     0.017742     0.008466     0.006147
Rotational constants in MHz :   531.898418   253.802220   184.267855

                             ****ORCA TERMINATED NORMALLY****
TOTAL RUN TIME: 0 days 0 hours 0 minutes 33 seconds 298 msec
