                         Program Version 4.2.1 -  RELEASE  -
|  1> ! wB97X-D3 SP def2-SVP
|  2> %pal
|  3> nprocs 16
|  4> end
|  5>
|  6> * xyz 0 1
|  7> S 	 -75.6706 	 52.0563 	 138.618
|  8> C 	 -75.0511 	 53.6824 	 138.679
|  9> C 	 -74.4683 	 54.0622 	 137.462
| 10> C 	 -74.7154 	 53.0129 	 136.478
| 11> C 	 -75.342 	 51.8821 	 136.932
| 12> H 	 -74.4556 	 53.015 	 135.441
| 13> C 	 -73.7542 	 55.3946 	 137.18
| 14> H 	 -73.1183 	 55.3119 	 136.302
| 15> H 	 -72.919 	 55.6497 	 137.807
| 16> C 	 -74.5706 	 56.6222 	 137.239
| 17> H 	 -74.8744 	 56.9473 	 138.218
| 18> H 	 -74.0539 	 57.5407 	 136.875
| 19> C 	 -75.7976 	 56.4809 	 136.296
| 20> H 	 -76.2975 	 57.5209 	 136.119
| 21> H 	 -75.4297 	 56.0923 	 135.311
| 22> H 	 -76.5065 	 55.8148 	 136.712
| 23> S 	 -74.8548 	 50.0789 	 134.833
| 24> C 	 -76.096 	 49.1741 	 134.103
| 25> C 	 -77.2728 	 49.2981 	 134.853
| 26> C 	 -77.1634 	 50.2695 	 135.942
| 27> C 	 -75.8739 	 50.8757 	 136.063
| 28> H 	 -78.1534 	 48.6511 	 134.69
| 29> C 	 -78.4434 	 50.6045 	 136.796
| 30> H 	 -79.2207 	 50.3791 	 136.103
| 31> H 	 -78.3105 	 51.6842 	 137
| 32> C 	 -78.5574 	 49.705 	 138.118
| 33> H 	 -79.5528 	 50.0637 	 138.518
| 34> H 	 -77.8353 	 49.9763 	 138.781
| 35> C 	 -78.5919 	 48.1883 	 137.932
| 36> H 	 -78.8796 	 47.8333 	 138.976
| 37> H 	 -77.5791 	 47.7989 	 137.777
| 38> H 	 -79.1561 	 47.821 	 137.124
| 39> H 	 -75.1262 	 54.317 	 139.58
| 40> H 	 -75.9547 	 48.573 	 133.232
| 41> *
| 42>
| 43>                          ****END OF INPUT****

CARTESIAN COORDINATES (ANGSTROEM)
---------------------------------
  S    -75.670600   52.056300  138.618000
  C    -75.051100   53.682400  138.679000
  C    -74.468300   54.062200  137.462000
  C    -74.715400   53.012900  136.478000
  C    -75.342000   51.882100  136.932000
  H    -74.455600   53.015000  135.441000
  C    -73.754200   55.394600  137.180000
  H    -73.118300   55.311900  136.302000
  H    -72.919000   55.649700  137.807000
  C    -74.570600   56.622200  137.239000
  H    -74.874400   56.947300  138.218000
  H    -74.053900   57.540700  136.875000
  C    -75.797600   56.480900  136.296000
  H    -76.297500   57.520900  136.119000
  H    -75.429700   56.092300  135.311000
  H    -76.506500   55.814800  136.712000
  S    -74.854800   50.078900  134.833000
  C    -76.096000   49.174100  134.103000
  C    -77.272800   49.298100  134.853000
  C    -77.163400   50.269500  135.942000
  C    -75.873900   50.875700  136.063000
  H    -78.153400   48.651100  134.690000
  C    -78.443400   50.604500  136.796000
  H    -79.220700   50.379100  136.103000
  H    -78.310500   51.684200  137.000000
  C    -78.557400   49.705000  138.118000
  H    -79.552800   50.063700  138.518000
  H    -77.835300   49.976300  138.781000
  C    -78.591900   48.188300  137.932000
  H    -78.879600   47.833300  138.976000
  H    -77.579100   47.798900  137.777000
  H    -79.156100   47.821000  137.124000
  H    -75.126200   54.317000  139.580000
  H    -75.954700   48.573000  133.232000

 Total Charge           Charge          ....    0
 Multiplicity           Mult            ....    1
 Number of Electrons    NEL             ....  134
 Basis Dimension        Dim             ....  322

ORBITAL ENERGIES
----------------

  NO   OCC          E(Eh)            E(eV)
   0   2.0000     -88.971490     -2421.0373
   1   2.0000     -88.964081     -2420.8357
   2   2.0000     -10.331662      -281.1388
   3   2.0000     -10.327469      -281.0247
   4   2.0000     -10.323066      -280.9049
   5   2.0000     -10.317517      -280.7539
   6   2.0000     -10.314246      -280.6649
   7   2.0000     -10.309908      -280.5469
   8   2.0000     -10.299497      -280.2636
   9   2.0000     -10.295564      -280.1565
  10   2.0000     -10.293931      -280.1121
  11   2.0000     -10.291733      -280.0523
  12   2.0000     -10.284881      -279.8658
  13   2.0000     -10.284790      -279.8634
  14   2.0000     -10.278613      -279.6953
  15   2.0000     -10.278258      -279.6856
  16   2.0000      -8.086188      -220.0364
  17   2.0000      -8.078910      -219.8383
  18   2.0000      -6.044664      -164.4837
  19   2.0000      -6.040624      -164.3737
  20   2.0000      -6.037374      -164.2853
  21   2.0000      -6.037054      -164.2766
  22   2.0000      -6.033196      -164.1716
  23   2.0000      -6.029915      -164.0823
  24   2.0000      -1.007483       -27.4150
  25   2.0000      -0.982080       -26.7237
  26   2.0000      -0.918553       -24.9951
  27   2.0000      -0.897414       -24.4199
  28   2.0000      -0.872778       -23.7495
  29   2.0000      -0.846066       -23.0226
  30   2.0000      -0.840311       -22.8660
  31   2.0000      -0.808714       -22.0062
  32   2.0000      -0.784262       -21.3408
  33   2.0000      -0.773136       -21.0381
  34   2.0000      -0.706423       -19.2228
  35   2.0000      -0.701679       -19.0937
  36   2.0000      -0.690584       -18.7917
  37   2.0000      -0.663423       -18.0526
  38   2.0000      -0.642476       -17.4827
  39   2.0000      -0.610485       -16.6121
  40   2.0000      -0.585671       -15.9369
  41   2.0000      -0.576324       -15.6826
  42   2.0000      -0.556311       -15.1380
  43   2.0000      -0.550980       -14.9929
  44   2.0000      -0.548093       -14.9144
  45   2.0000      -0.532179       -14.4813
  46   2.0000      -0.523625       -14.2486
  47   2.0000      -0.511256       -13.9120
  48   2.0000      -0.507563       -13.8115
  49   2.0000      -0.497850       -13.5472
  50   2.0000      -0.485340       -13.2068
  51   2.0000      -0.479158       -13.0386
  52   2.0000      -0.468889       -12.7591
  53   2.0000      -0.466957       -12.7066
  54   2.0000      -0.462303       -12.5799
  55   2.0000      -0.444593       -12.0980
  56   2.0000      -0.441201       -12.0057
  57   2.0000      -0.437085       -11.8937
  58   2.0000      -0.430224       -11.7070
  59   2.0000      -0.424346       -11.5470
  60   2.0000      -0.417952       -11.3730
  61   2.0000      -0.407556       -11.0902
  62   2.0000      -0.396426       -10.7873
  63   2.0000      -0.350984        -9.5507
  64   2.0000      -0.332069        -9.0360
  65   2.0000      -0.323657        -8.8072
  66   2.0000      -0.292081        -7.9479
  67   0.0000       0.024584         0.6690
  68   0.0000       0.074322         2.0224
  69   0.0000       0.108121         2.9421
  70   0.0000       0.115150         3.1334
  71   0.0000       0.124516         3.3882

MULLIKEN ATOMIC CHARGES
-----------------------
   0 S :    0.115703
   1 C :   -0.139996
   2 C :   -0.065014
   3 C :    0.017008
   4 C :   -0.135573
   5 H :    0.005955
   6 C :    0.096123
   7 H :    0.016662
   8 H :    0.020138
   9 C :   -0.079403
  10 H :    0.021029
  11 H :    0.028498
  12 C :   -0.083701
  13 H :    0.041766
  14 H :    0.033345
  15 H :    0.042877
  16 S :    0.101726
  17 C :   -0.085673
  18 C :   -0.051965
  19 C :   -0.087831
  20 C :   -0.155556
  21 H :    0.032365
  22 C :    0.062397
  23 H :    0.018345
  24 H :    0.045979
  25 C :   -0.047039
  26 H :    0.035611
  27 H :    0.008425
  28 C :   -0.050934
  29 H :    0.045620
  30 H :    0.039208
  31 H :    0.027123
  32 H :    0.067432
  33 H :    0.059349
Sum of atomic charges:   -0.0000000

LOEWDIN ATOMIC CHARGES
----------------------
   0 S :    0.431290
   1 C :   -0.196844
   2 C :   -0.055656
   3 C :   -0.052554
   4 C :   -0.213210
   5 H :    0.024858
   6 C :   -0.043864
   7 H :    0.035180
   8 H :    0.035840
   9 C :   -0.046761
  10 H :    0.017707
  11 H :    0.031006
  12 C :   -0.068919
  13 H :    0.032174
  14 H :    0.026842
  15 H :    0.016788
  16 S :    0.416895
  17 C :   -0.197733
  18 C :   -0.086503
  19 C :   -0.053475
  20 C :   -0.200617
  21 H :    0.033587
  22 C :   -0.028642
  23 H :    0.023448
  24 H :    0.034231
  25 C :   -0.029778
  26 H :    0.028764
  27 H :    0.002145
  28 C :   -0.065807
  29 H :    0.040673
  30 H :    0.028994
  31 H :    0.015581
  32 H :    0.035555
  33 H :    0.028804

  Mayer bond orders larger than 0.100000
B(  0-S ,  1-C ) :   1.1614 B(  0-S ,  4-C ) :   1.1348 B(  1-C ,  2-C ) :   1.5813
B(  1-C , 32-H ) :   0.9675 B(  2-C ,  3-C ) :   1.2430 B(  2-C ,  6-C ) :   1.0136
B(  3-C ,  4-C ) :   1.5723 B(  3-C ,  5-H ) :   0.9932 B(  4-C , 20-C ) :   1.0624
B(  6-C ,  7-H ) :   0.9360 B(  6-C ,  8-H ) :   0.9314 B(  6-C ,  9-C ) :   1.0861
B(  9-C , 10-H ) :   0.9551 B(  9-C , 11-H ) :   0.9519 B(  9-C , 12-C ) :   1.0675
B( 12-C , 13-H ) :   0.9765 B( 12-C , 14-H ) :   0.9769 B( 12-C , 15-H ) :   0.9737
B( 16-S , 17-C ) :   1.1858 B( 16-S , 20-C ) :   1.1345 B( 17-C , 18-C ) :   1.5560
B( 17-C , 20-C ) :   0.1024 B( 17-C , 33-H ) :   0.9729 B( 18-C , 19-C ) :   1.2762
B( 18-C , 21-H ) :   0.9835 B( 19-C , 20-C ) :   1.5443 B( 19-C , 22-C ) :   1.0162
B( 22-C , 23-H ) :   0.9399 B( 22-C , 24-H ) :   0.9405 B( 22-C , 25-C ) :   1.0587
B( 25-C , 26-H ) :   0.9613 B( 25-C , 27-H ) :   0.9560 B( 25-C , 28-C ) :   1.0748
B( 28-C , 29-H ) :   0.9712 B( 28-C , 30-H ) :   0.9713 B( 28-C , 31-H ) :   0.9782

Dispersion correction           -0.015128322
FINAL SINGLE POINT ENERGY     -1339.859969561189

DIPOLE MOMENT
-------------
                                X             Y             Z
Electronic contribution:      9.90934     -10.59907      -3.08822
Nuclear contribution   :    -10.05158      10.88622       3.12042
                        -----------------------------------------
Total Dipole Moment    :     -0.14224       0.28715       0.03219
                        -----------------------------------------
Magnitude (a.u.)       :      0.32206
Magnitude (Debye)      :      0.81861

Rotational constants in cm-1:     0.022188     0.008113     0.006903
Rotational constants in MHz :   665.174198   243.229542   206.940000

                             ****ORCA TERMINATED NORMALLY****
TOTAL RUN TIME: 0 days 0 hours 0 minutes 33 seconds 734 msec
