                         Program Version 4.2.1 -  RELEASE  -
|  1> ! wB97X-D3 SP def2-SVP
|  2> %pal
|  3> nprocs 16
|  4> end
|  5>
|  6> * xyz 0 1
|  7> S 	 -30.8238 	 28.7506 	 41.0453
|  8> C 	 -30.2357 	 29.4858 	 39.5375
|  9> C 	 -29.761 	 30.7187 	 39.6739
| 10> C 	 -29.6281 	 31.0771 	 41.0449
| 11> C 	 -30.2837 	 30.211 	 41.9285
| 12> H 	 -29.1518 	 31.9978 	 41.3298
| 13> C 	 -29.1315 	 31.4421 	 38.5247
| 14> H 	 -28.8894 	 32.4276 	 38.934
| 15> H 	 -29.7637 	 31.5353 	 37.6638
| 16> C 	 -27.7291 	 30.9515 	 38.0689
| 17> H 	 -27.7384 	 29.942 	 37.7724
| 18> H 	 -27.3629 	 31.3751 	 37.1267
| 19> C 	 -26.5267 	 31.2175 	 39.0701
| 20> H 	 -26.5634 	 30.616 	 39.9324
| 21> H 	 -25.5993 	 30.9394 	 38.6155
| 22> H 	 -26.4674 	 32.2524 	 39.3635
| 23> S 	 -30.0145 	 28.6477 	 44.1331
| 24> C 	 -30.4182 	 29.2414 	 45.7138
| 25> C 	 -30.8094 	 30.5463 	 45.6212
| 26> C 	 -30.6737 	 31.1693 	 44.3463
| 27> C 	 -30.28 	 30.182 	 43.4089
| 28> H 	 -31.249 	 31.1012 	 46.3821
| 29> C 	 -31.1798 	 32.546 	 44.0773
| 30> H 	 -32.1869 	 32.755 	 44.5612
| 31> H 	 -31.2866 	 32.6024 	 42.9561
| 32> C 	 -30.2651 	 33.6791 	 44.5199
| 33> H 	 -30.1392 	 33.5754 	 45.6038
| 34> H 	 -30.7532 	 34.6399 	 44.2849
| 35> C 	 -28.89 	 33.7581 	 43.8941
| 36> H 	 -29.0246 	 34.0457 	 42.8683
| 37> H 	 -28.4393 	 32.6878 	 43.8782
| 38> H 	 -28.2379 	 34.449 	 44.4654
| 39> H 	 -30.3871 	 29.0259 	 38.5857
| 40> H 	 -30.5243 	 28.5945 	 46.5438
| 41> *
| 42>
| 43>                          ****END OF INPUT****

CARTESIAN COORDINATES (ANGSTROEM)
---------------------------------
  S    -30.823800   28.750600   41.045300
  C    -30.235700   29.485800   39.537500
  C    -29.761000   30.718700   39.673900
  C    -29.628100   31.077100   41.044900
  C    -30.283700   30.211000   41.928500
  H    -29.151800   31.997800   41.329800
  C    -29.131500   31.442100   38.524700
  H    -28.889400   32.427600   38.934000
  H    -29.763700   31.535300   37.663800
  C    -27.729100   30.951500   38.068900
  H    -27.738400   29.942000   37.772400
  H    -27.362900   31.375100   37.126700
  C    -26.526700   31.217500   39.070100
  H    -26.563400   30.616000   39.932400
  H    -25.599300   30.939400   38.615500
  H    -26.467400   32.252400   39.363500
  S    -30.014500   28.647700   44.133100
  C    -30.418200   29.241400   45.713800
  C    -30.809400   30.546300   45.621200
  C    -30.673700   31.169300   44.346300
  C    -30.280000   30.182000   43.408900
  H    -31.249000   31.101200   46.382100
  C    -31.179800   32.546000   44.077300
  H    -32.186900   32.755000   44.561200
  H    -31.286600   32.602400   42.956100
  C    -30.265100   33.679100   44.519900
  H    -30.139200   33.575400   45.603800
  H    -30.753200   34.639900   44.284900
  C    -28.890000   33.758100   43.894100
  H    -29.024600   34.045700   42.868300
  H    -28.439300   32.687800   43.878200
  H    -28.237900   34.449000   44.465400
  H    -30.387100   29.025900   38.585700
  H    -30.524300   28.594500   46.543800

 Total Charge           Charge          ....    0
 Multiplicity           Mult            ....    1
 Number of Electrons    NEL             ....  134
 Basis Dimension        Dim             ....  322

ORBITAL ENERGIES
----------------

  NO   OCC          E(Eh)            E(eV)
   0   2.0000     -88.966297     -2420.8960
   1   2.0000     -88.966156     -2420.8922
   2   2.0000     -10.336851      -281.2800
   3   2.0000     -10.329923      -281.0915
   4   2.0000     -10.312639      -280.6212
   5   2.0000     -10.308059      -280.4965
   6   2.0000     -10.302200      -280.3371
   7   2.0000     -10.297526      -280.2099
   8   2.0000     -10.297502      -280.2093
   9   2.0000     -10.293403      -280.0977
  10   2.0000     -10.293059      -280.0884
  11   2.0000     -10.287540      -279.9382
  12   2.0000     -10.286794      -279.9179
  13   2.0000     -10.284300      -279.8500
  14   2.0000     -10.281142      -279.7641
  15   2.0000     -10.271351      -279.4977
  16   2.0000      -8.081771      -219.9162
  17   2.0000      -8.080205      -219.8736
  18   2.0000      -6.040216      -164.3626
  19   2.0000      -6.038838      -164.3251
  20   2.0000      -6.036045      -164.2491
  21   2.0000      -6.034935      -164.2189
  22   2.0000      -6.032652      -164.1568
  23   2.0000      -6.030766      -164.1055
  24   2.0000      -1.008814       -27.4512
  25   2.0000      -0.986999       -26.8576
  26   2.0000      -0.914455       -24.8836
  27   2.0000      -0.908801       -24.7297
  28   2.0000      -0.867584       -23.6082
  29   2.0000      -0.852372       -23.1942
  30   2.0000      -0.843037       -22.9402
  31   2.0000      -0.816977       -22.2311
  32   2.0000      -0.785001       -21.3610
  33   2.0000      -0.774830       -21.0842
  34   2.0000      -0.710829       -19.3426
  35   2.0000      -0.704720       -19.1764
  36   2.0000      -0.691276       -18.8106
  37   2.0000      -0.662630       -18.0311
  38   2.0000      -0.638296       -17.3689
  39   2.0000      -0.620369       -16.8811
  40   2.0000      -0.601054       -16.3555
  41   2.0000      -0.569721       -15.5029
  42   2.0000      -0.554208       -15.0808
  43   2.0000      -0.552680       -15.0392
  44   2.0000      -0.548546       -14.9267
  45   2.0000      -0.535957       -14.5841
  46   2.0000      -0.523064       -14.2333
  47   2.0000      -0.511420       -13.9164
  48   2.0000      -0.499682       -13.5970
  49   2.0000      -0.496089       -13.4993
  50   2.0000      -0.492982       -13.4147
  51   2.0000      -0.473587       -12.8870
  52   2.0000      -0.471636       -12.8339
  53   2.0000      -0.465947       -12.6791
  54   2.0000      -0.458718       -12.4824
  55   2.0000      -0.447204       -12.1690
  56   2.0000      -0.441441       -12.0122
  57   2.0000      -0.438927       -11.9438
  58   2.0000      -0.437337       -11.9005
  59   2.0000      -0.429140       -11.6775
  60   2.0000      -0.416866       -11.3435
  61   2.0000      -0.414887       -11.2896
  62   2.0000      -0.411897       -11.2083
  63   2.0000      -0.351456        -9.5636
  64   2.0000      -0.334344        -9.0980
  65   2.0000      -0.331379        -9.0173
  66   2.0000      -0.289847        -7.8871
  67   0.0000       0.023793         0.6474
  68   0.0000       0.072844         1.9822
  69   0.0000       0.103563         2.8181
  70   0.0000       0.119180         3.2430
  71   0.0000       0.127791         3.4774

MULLIKEN ATOMIC CHARGES
-----------------------
   0 S :    0.089825
   1 C :   -0.117096
   2 C :   -0.064758
   3 C :    0.035563
   4 C :   -0.129204
   5 H :   -0.005795
   6 C :    0.082363
   7 H :    0.011193
   8 H :    0.034841
   9 C :   -0.059916
  10 H :    0.008062
  11 H :    0.021194
  12 C :   -0.044401
  13 H :    0.032307
  14 H :    0.022447
  15 H :    0.026812
  16 S :    0.106668
  17 C :   -0.069903
  18 C :    0.002082
  19 C :   -0.044768
  20 C :   -0.154485
  21 H :   -0.010805
  22 C :    0.030193
  23 H :    0.049140
  24 H :    0.029657
  25 C :   -0.077559
  26 H :    0.024745
  27 H :    0.032554
  28 C :   -0.080399
  29 H :    0.031739
  30 H :    0.054034
  31 H :    0.048204
  32 H :    0.037353
  33 H :    0.048114
Sum of atomic charges:   -0.0000000

LOEWDIN ATOMIC CHARGES
----------------------
   0 S :    0.371585
   1 C :   -0.168276
   2 C :   -0.073617
   3 C :   -0.055480
   4 C :   -0.174642
   5 H :    0.025691
   6 C :   -0.026747
   7 H :    0.029820
   8 H :    0.032194
   9 C :   -0.034619
  10 H :    0.013328
  11 H :    0.025917
  12 C :   -0.059407
  13 H :    0.019645
  14 H :    0.025141
  15 H :    0.021622
  16 S :    0.428773
  17 C :   -0.187308
  18 C :   -0.057387
  19 C :   -0.062390
  20 C :   -0.206263
  21 H :    0.018712
  22 C :   -0.039617
  23 H :    0.043352
  24 H :    0.034368
  25 C :   -0.047973
  26 H :    0.020507
  27 H :    0.026009
  28 C :   -0.072707
  29 H :    0.016898
  30 H :    0.035437
  31 H :    0.032142
  32 H :    0.022182
  33 H :    0.023110

  Mayer bond orders larger than 0.100000
B(  0-S ,  1-C ) :   1.1251 B(  0-S ,  4-C ) :   1.1339 B(  1-C ,  2-C ) :   1.6404
B(  1-C , 32-H ) :   0.9651 B(  2-C ,  3-C ) :   1.2306 B(  2-C ,  6-C ) :   1.0356
B(  3-C ,  4-C ) :   1.5788 B(  3-C ,  5-H ) :   0.9860 B(  4-C , 20-C ) :   1.0399
B(  6-C ,  7-H ) :   0.9384 B(  6-C ,  8-H ) :   0.9379 B(  6-C ,  9-C ) :   1.0662
B(  9-C , 10-H ) :   0.9550 B(  9-C , 11-H ) :   0.9571 B(  9-C , 12-C ) :   1.0751
B( 12-C , 13-H ) :   0.9784 B( 12-C , 14-H ) :   0.9737 B( 12-C , 15-H ) :   0.9770
B( 16-S , 17-C ) :   1.1448 B( 16-S , 20-C ) :   1.1792 B( 17-C , 18-C ) :   1.5740
B( 17-C , 33-H ) :   0.9780 B( 18-C , 19-C ) :   1.2783 B( 18-C , 21-H ) :   0.9949
B( 19-C , 20-C ) :   1.5294 B( 19-C , 22-C ) :   1.0492 B( 22-C , 23-H ) :   0.9388
B( 22-C , 24-H ) :   0.9299 B( 22-C , 25-C ) :   1.0678 B( 25-C , 26-H ) :   0.9559
B( 25-C , 27-H ) :   0.9542 B( 25-C , 28-C ) :   1.0821 B( 28-C , 29-H ) :   0.9696
B( 28-C , 30-H ) :   0.9699 B( 28-C , 31-H ) :   0.9698

Dispersion correction           -0.014939596
FINAL SINGLE POINT ENERGY     -1339.878044437530

DIPOLE MOMENT
-------------
                                X             Y             Z
Electronic contribution:    -12.52546     -22.21337       8.05198
Nuclear contribution   :     12.58194      22.66770      -8.19478
                        -----------------------------------------
Total Dipole Moment    :      0.05648       0.45433      -0.14281
                        -----------------------------------------
Magnitude (a.u.)       :      0.47959
Magnitude (Debye)      :      1.21901

Rotational constants in cm-1:     0.019097     0.009203     0.007202
Rotational constants in MHz :   572.500245   275.890512   215.910834

                             ****ORCA TERMINATED NORMALLY****
TOTAL RUN TIME: 0 days 0 hours 0 minutes 34 seconds 543 msec
