                         Program Version 4.2.1 -  RELEASE  -
|  1> ! wB97X-D3 SP def2-SVP
|  2> %pal
|  3> nprocs 16
|  4> end
|  5>
|  6> * xyz 0 1
|  7> S 	 1.83777 	 -12.2963 	 76.0864
|  8> C 	 3.2816 	 -11.4277 	 76.2519
|  9> C 	 3.33415 	 -10.9864 	 77.5632
| 10> C 	 2.12285 	 -11.2188 	 78.3683
| 11> C 	 1.18439 	 -11.9162 	 77.6252
| 12> H 	 1.92107 	 -10.8957 	 79.3894
| 13> C 	 4.61516 	 -10.4149 	 78.1936
| 14> H 	 5.31595 	 -11.232 	 78.3247
| 15> H 	 4.26917 	 -10.0491 	 79.2029
| 16> C 	 5.25058 	 -9.11193 	 77.6542
| 17> H 	 5.67813 	 -9.2667 	 76.6769
| 18> H 	 4.58184 	 -8.29211 	 77.6412
| 19> C 	 6.36416 	 -8.56875 	 78.6059
| 20> H 	 6.97912 	 -9.40145 	 78.9155
| 21> H 	 6.89623 	 -7.73388 	 78.19
| 22> H 	 5.93351 	 -8.1469 	 79.5519
| 23> S 	 -1.34492 	 -12.0884 	 76.5573
| 24> C 	 -2.73028 	 -12.5364 	 77.4226
| 25> C 	 -2.37347 	 -12.7815 	 78.7529
| 26> C 	 -0.960984 	 -12.7174 	 79.0094
| 27> C 	 -0.255562 	 -12.2053 	 77.9049
| 28> H 	 -3.08688 	 -13.0289 	 79.5016
| 29> C 	 -0.364067 	 -12.9731 	 80.3693
| 30> H 	 0.668641 	 -12.6763 	 80.4027
| 31> H 	 -0.423445 	 -13.9817 	 80.5795
| 32> C 	 -1.08299 	 -12.3538 	 81.5641
| 33> H 	 -2.06685 	 -12.8038 	 81.6594
| 34> H 	 -1.3282 	 -11.2837 	 81.4614
| 35> C 	 -0.463818 	 -12.5757 	 82.9288
| 36> H 	 -1.20136 	 -12.4623 	 83.7354
| 37> H 	 0.302994 	 -11.8162 	 83.1031
| 38> H 	 0.0383359 	 -13.5463 	 83.0368
| 39> H 	 4.14477 	 -11.3795 	 75.6554
| 40> H 	 -3.76349 	 -12.5811 	 77.033
| 41> *
| 42>
| 43>                          ****END OF INPUT****

CARTESIAN COORDINATES (ANGSTROEM)
---------------------------------
  S      1.837770  -12.296300   76.086400
  C      3.281600  -11.427700   76.251900
  C      3.334150  -10.986400   77.563200
  C      2.122850  -11.218800   78.368300
  C      1.184390  -11.916200   77.625200
  H      1.921070  -10.895700   79.389400
  C      4.615160  -10.414900   78.193600
  H      5.315950  -11.232000   78.324700
  H      4.269170  -10.049100   79.202900
  C      5.250580   -9.111930   77.654200
  H      5.678130   -9.266700   76.676900
  H      4.581840   -8.292110   77.641200
  C      6.364160   -8.568750   78.605900
  H      6.979120   -9.401450   78.915500
  H      6.896230   -7.733880   78.190000
  H      5.933510   -8.146900   79.551900
  S     -1.344920  -12.088400   76.557300
  C     -2.730280  -12.536400   77.422600
  C     -2.373470  -12.781500   78.752900
  C     -0.960984  -12.717400   79.009400
  C     -0.255562  -12.205300   77.904900
  H     -3.086880  -13.028900   79.501600
  C     -0.364067  -12.973100   80.369300
  H      0.668641  -12.676300   80.402700
  H     -0.423445  -13.981700   80.579500
  C     -1.082990  -12.353800   81.564100
  H     -2.066850  -12.803800   81.659400
  H     -1.328200  -11.283700   81.461400
  C     -0.463818  -12.575700   82.928800
  H     -1.201360  -12.462300   83.735400
  H      0.302994  -11.816200   83.103100
  H      0.038336  -13.546300   83.036800
  H      4.144770  -11.379500   75.655400
  H     -3.763490  -12.581100   77.033000

 Total Charge           Charge          ....    0
 Multiplicity           Mult            ....    1
 Number of Electrons    NEL             ....  134
 Basis Dimension        Dim             ....  322

ORBITAL ENERGIES
----------------

  NO   OCC          E(Eh)            E(eV)
   0   2.0000     -88.965634     -2420.8780
   1   2.0000     -88.964597     -2420.8497
   2   2.0000     -10.333512      -281.1892
   3   2.0000     -10.331674      -281.1391
   4   2.0000     -10.319095      -280.7968
   5   2.0000     -10.307185      -280.4728
   6   2.0000     -10.306745      -280.4608
   7   2.0000     -10.304407      -280.3972
   8   2.0000     -10.299680      -280.2685
   9   2.0000     -10.294949      -280.1398
  10   2.0000     -10.293524      -280.1010
  11   2.0000     -10.284996      -279.8690
  12   2.0000     -10.284821      -279.8642
  13   2.0000     -10.284493      -279.8553
  14   2.0000     -10.280260      -279.7401
  15   2.0000     -10.279265      -279.7130
  16   2.0000      -8.081354      -219.9048
  17   2.0000      -8.080740      -219.8881
  18   2.0000      -6.039735      -164.3495
  19   2.0000      -6.039264      -164.3367
  20   2.0000      -6.035444      -164.2328
  21   2.0000      -6.034768      -164.2144
  22   2.0000      -6.032433      -164.1508
  23   2.0000      -6.031641      -164.1293
  24   2.0000      -1.013405       -27.5762
  25   2.0000      -0.991922       -26.9916
  26   2.0000      -0.916309       -24.9340
  27   2.0000      -0.906355       -24.6632
  28   2.0000      -0.870283       -23.6816
  29   2.0000      -0.854979       -23.2651
  30   2.0000      -0.844452       -22.9787
  31   2.0000      -0.817675       -22.2501
  32   2.0000      -0.784313       -21.3422
  33   2.0000      -0.770139       -20.9566
  34   2.0000      -0.704046       -19.1581
  35   2.0000      -0.702350       -19.1119
  36   2.0000      -0.695518       -18.9260
  37   2.0000      -0.660581       -17.9753
  38   2.0000      -0.642043       -17.4709
  39   2.0000      -0.617814       -16.8116
  40   2.0000      -0.601111       -16.3571
  41   2.0000      -0.573531       -15.6066
  42   2.0000      -0.570754       -15.5310
  43   2.0000      -0.566134       -15.4053
  44   2.0000      -0.530541       -14.4368
  45   2.0000      -0.528118       -14.3708
  46   2.0000      -0.520110       -14.1529
  47   2.0000      -0.513209       -13.9651
  48   2.0000      -0.507426       -13.8078
  49   2.0000      -0.500734       -13.6257
  50   2.0000      -0.498882       -13.5753
  51   2.0000      -0.480319       -13.0701
  52   2.0000      -0.475948       -12.9512
  53   2.0000      -0.465450       -12.6655
  54   2.0000      -0.463489       -12.6122
  55   2.0000      -0.454088       -12.3564
  56   2.0000      -0.449136       -12.2216
  57   2.0000      -0.438490       -11.9319
  58   2.0000      -0.433079       -11.7847
  59   2.0000      -0.421407       -11.4671
  60   2.0000      -0.416188       -11.3251
  61   2.0000      -0.412370       -11.2212
  62   2.0000      -0.403155       -10.9704
  63   2.0000      -0.356813        -9.7094
  64   2.0000      -0.329363        -8.9624
  65   2.0000      -0.324512        -8.8304
  66   2.0000      -0.293334        -7.9820
  67   0.0000       0.030307         0.8247
  68   0.0000       0.078968         2.1488
  69   0.0000       0.111898         3.0449
  70   0.0000       0.126805         3.4505
  71   0.0000       0.134904         3.6709

MULLIKEN ATOMIC CHARGES
-----------------------
   0 S :    0.115336
   1 C :   -0.066442
   2 C :   -0.127022
   3 C :    0.025630
   4 C :   -0.131617
   5 H :    0.024051
   6 C :    0.010439
   7 H :    0.048236
   8 H :    0.019177
   9 C :   -0.039381
  10 H :    0.025698
  11 H :    0.025725
  12 C :   -0.072616
  13 H :    0.029449
  14 H :    0.037169
  15 H :    0.028820
  16 S :    0.115906
  17 C :   -0.092766
  18 C :   -0.040820
  19 C :   -0.040702
  20 C :   -0.154893
  21 H :    0.007979
  22 C :    0.150685
  23 H :    0.009827
  24 H :    0.008713
  25 C :   -0.120347
  26 H :    0.018550
  27 H :    0.032440
  28 C :   -0.050188
  29 H :    0.036801
  30 H :    0.029169
  31 H :    0.029822
  32 H :    0.032839
  33 H :    0.074336
Sum of atomic charges:    0.0000000

LOEWDIN ATOMIC CHARGES
----------------------
   0 S :    0.445997
   1 C :   -0.215396
   2 C :   -0.061953
   3 C :   -0.073390
   4 C :   -0.200492
   5 H :    0.032663
   6 C :   -0.038838
   7 H :    0.031089
   8 H :    0.033643
   9 C :   -0.033910
  10 H :    0.016282
  11 H :    0.022281
  12 C :   -0.064876
  13 H :    0.020680
  14 H :    0.024408
  15 H :    0.026758
  16 S :    0.443680
  17 C :   -0.209178
  18 C :   -0.072757
  19 C :   -0.051857
  20 C :   -0.206556
  21 H :    0.023364
  22 C :   -0.023922
  23 H :    0.026544
  24 H :    0.027071
  25 C :   -0.046488
  26 H :    0.019105
  27 H :    0.025414
  28 C :   -0.066145
  29 H :    0.030019
  30 H :    0.023669
  31 H :    0.025483
  32 H :    0.026248
  33 H :    0.041361

  Mayer bond orders larger than 0.100000
B(  0-S ,  1-C ) :   1.1377 B(  0-S ,  4-C ) :   1.1864 B(  1-C ,  2-C ) :   1.5911
B(  1-C , 32-H ) :   0.9799 B(  2-C ,  3-C ) :   1.2569 B(  2-C ,  6-C ) :   1.0140
B(  3-C ,  4-C ) :   1.5495 B(  3-C ,  5-H ) :   0.9882 B(  4-C , 20-C ) :   1.0195
B(  6-C ,  7-H ) :   0.9434 B(  6-C ,  8-H ) :   0.9500 B(  6-C ,  9-C ) :   1.0651
B(  9-C , 10-H ) :   0.9563 B(  9-C , 11-H ) :   0.9599 B(  9-C , 12-C ) :   1.0788
B( 12-C , 13-H ) :   0.9772 B( 12-C , 14-H ) :   0.9752 B( 12-C , 15-H ) :   0.9759
B( 16-S , 17-C ) :   1.1873 B( 16-S , 20-C ) :   1.1650 B( 17-C , 18-C ) :   1.5505
B( 17-C , 20-C ) :   0.1001 B( 17-C , 33-H ) :   0.9669 B( 18-C , 19-C ) :   1.2790
B( 18-C , 21-H ) :   0.9946 B( 19-C , 20-C ) :   1.5440 B( 19-C , 22-C ) :   1.0557
B( 22-C , 23-H ) :   0.9410 B( 22-C , 24-H ) :   0.9051 B( 22-C , 25-C ) :   1.0669
B( 25-C , 26-H ) :   0.9474 B( 25-C , 27-H ) :   0.9581 B( 25-C , 28-C ) :   1.0890
B( 28-C , 29-H ) :   0.9748 B( 28-C , 30-H ) :   0.9754 B( 28-C , 31-H ) :   0.9722

Dispersion correction           -0.012950041
FINAL SINGLE POINT ENERGY     -1339.874923212998

DIPOLE MOMENT
-------------
                                X             Y             Z
Electronic contribution:    -14.68245      -9.16238     -24.64957
Nuclear contribution   :     14.80043       9.24975      25.24959
                        -----------------------------------------
Total Dipole Moment    :      0.11798       0.08737       0.60003
                        -----------------------------------------
Magnitude (a.u.)       :      0.61772
Magnitude (Debye)      :      1.57013

Rotational constants in cm-1:     0.018183     0.007632     0.005687
Rotational constants in MHz :   545.104975   228.805848   170.496437

                             ****ORCA TERMINATED NORMALLY****
TOTAL RUN TIME: 0 days 0 hours 0 minutes 33 seconds 306 msec
