                         Program Version 4.2.1 -  RELEASE  -
|  1> ! wB97X-D3 SP def2-SVP
|  2> %pal
|  3> nprocs 16
|  4> end
|  5>
|  6> * xyz 0 1
|  7> S 	 1.66006 	 -8.12109 	 91.5305
|  8> C 	 0.0029094 	 -7.72811 	 91.9902
|  9> C 	 -0.84212 	 -7.90543 	 90.918
| 10> C 	 -0.118188 	 -8.21581 	 89.7392
| 11> C 	 1.27177 	 -8.30996 	 89.9371
| 12> H 	 -0.506806 	 -8.3367 	 88.7289
| 13> C 	 -2.35237 	 -7.62427 	 90.8902
| 14> H 	 -2.69812 	 -7.0957 	 89.9875
| 15> H 	 -2.45388 	 -7.12188 	 91.813
| 16> C 	 -3.26963 	 -8.90383 	 90.915
| 17> H 	 -3.19868 	 -9.35721 	 89.9235
| 18> H 	 -2.91352 	 -9.57906 	 91.7254
| 19> C 	 -4.71891 	 -8.59747 	 91.3546
| 20> H 	 -5.37034 	 -9.48274 	 91.408
| 21> H 	 -4.65245 	 -8.10362 	 92.3639
| 22> H 	 -5.19756 	 -7.90709 	 90.6166
| 23> S 	 3.36287 	 -7.65223 	 88.2198
| 24> C 	 4.18158 	 -8.91457 	 87.3251
| 25> C 	 3.67106 	 -10.1576 	 87.6559
| 26> C 	 2.62691 	 -10.08 	 88.7003
| 27> C 	 2.22139 	 -8.77936 	 88.9581
| 28> H 	 4.09905 	 -11.0241 	 87.2688
| 29> C 	 2.18765 	 -11.3201 	 89.4309
| 30> H 	 2.01625 	 -12.0224 	 88.6918
| 31> H 	 1.21151 	 -10.9923 	 89.8678
| 32> C 	 3.15791 	 -11.9066 	 90.4443
| 33> H 	 3.16883 	 -11.1918 	 91.27
| 34> H 	 4.19674 	 -11.7735 	 90.0362
| 35> C 	 2.84356 	 -13.3141 	 90.8138
| 36> H 	 3.1787 	 -14.0062 	 90.0994
| 37> H 	 1.77209 	 -13.4292 	 91.0175
| 38> H 	 3.34491 	 -13.555 	 91.7586
| 39> H 	 -0.307541 	 -7.29281 	 92.9745
| 40> H 	 4.95439 	 -8.76984 	 86.537
| 41> *
| 42>
| 43>                          ****END OF INPUT****

CARTESIAN COORDINATES (ANGSTROEM)
---------------------------------
  S      1.660060   -8.121090   91.530500
  C      0.002909   -7.728110   91.990200
  C     -0.842120   -7.905430   90.918000
  C     -0.118188   -8.215810   89.739200
  C      1.271770   -8.309960   89.937100
  H     -0.506806   -8.336700   88.728900
  C     -2.352370   -7.624270   90.890200
  H     -2.698120   -7.095700   89.987500
  H     -2.453880   -7.121880   91.813000
  C     -3.269630   -8.903830   90.915000
  H     -3.198680   -9.357210   89.923500
  H     -2.913520   -9.579060   91.725400
  C     -4.718910   -8.597470   91.354600
  H     -5.370340   -9.482740   91.408000
  H     -4.652450   -8.103620   92.363900
  H     -5.197560   -7.907090   90.616600
  S      3.362870   -7.652230   88.219800
  C      4.181580   -8.914570   87.325100
  C      3.671060  -10.157600   87.655900
  C      2.626910  -10.080000   88.700300
  C      2.221390   -8.779360   88.958100
  H      4.099050  -11.024100   87.268800
  C      2.187650  -11.320100   89.430900
  H      2.016250  -12.022400   88.691800
  H      1.211510  -10.992300   89.867800
  C      3.157910  -11.906600   90.444300
  H      3.168830  -11.191800   91.270000
  H      4.196740  -11.773500   90.036200
  C      2.843560  -13.314100   90.813800
  H      3.178700  -14.006200   90.099400
  H      1.772090  -13.429200   91.017500
  H      3.344910  -13.555000   91.758600
  H     -0.307541   -7.292810   92.974500
  H      4.954390   -8.769840   86.537000

 Total Charge           Charge          ....    0
 Multiplicity           Mult            ....    1
 Number of Electrons    NEL             ....  134
 Basis Dimension        Dim             ....  322

ORBITAL ENERGIES
----------------

  NO   OCC          E(Eh)            E(eV)
   0   2.0000     -88.968563     -2420.9577
   1   2.0000     -88.961590     -2420.7679
   2   2.0000     -10.322980      -280.9026
   3   2.0000     -10.321856      -280.8720
   4   2.0000     -10.321188      -280.8538
   5   2.0000     -10.318831      -280.7897
   6   2.0000     -10.304550      -280.4011
   7   2.0000     -10.302769      -280.3526
   8   2.0000     -10.294837      -280.1367
   9   2.0000     -10.292285      -280.0673
  10   2.0000     -10.291840      -280.0552
  11   2.0000     -10.291620      -280.0492
  12   2.0000     -10.287834      -279.9462
  13   2.0000     -10.282832      -279.8101
  14   2.0000     -10.280582      -279.7489
  15   2.0000     -10.272854      -279.5386
  16   2.0000      -8.084623      -219.9938
  17   2.0000      -8.076198      -219.7645
  18   2.0000      -6.042902      -164.4357
  19   2.0000      -6.038786      -164.3237
  20   2.0000      -6.035673      -164.2390
  21   2.0000      -6.034824      -164.2159
  22   2.0000      -6.030735      -164.1046
  23   2.0000      -6.026823      -163.9982
  24   2.0000      -1.013653       -27.5829
  25   2.0000      -0.982885       -26.7457
  26   2.0000      -0.912705       -24.8360
  27   2.0000      -0.910512       -24.7763
  28   2.0000      -0.870857       -23.6972
  29   2.0000      -0.850269       -23.1370
  30   2.0000      -0.846275       -23.0283
  31   2.0000      -0.812054       -22.0971
  32   2.0000      -0.783315       -21.3151
  33   2.0000      -0.771032       -20.9809
  34   2.0000      -0.705561       -19.1993
  35   2.0000      -0.694492       -18.8981
  36   2.0000      -0.689017       -18.7491
  37   2.0000      -0.660675       -17.9779
  38   2.0000      -0.642243       -17.4763
  39   2.0000      -0.615953       -16.7609
  40   2.0000      -0.589708       -16.0468
  41   2.0000      -0.580244       -15.7892
  42   2.0000      -0.569139       -15.4871
  43   2.0000      -0.560040       -15.2395
  44   2.0000      -0.524718       -14.2783
  45   2.0000      -0.522333       -14.2134
  46   2.0000      -0.520188       -14.1550
  47   2.0000      -0.514303       -13.9949
  48   2.0000      -0.507906       -13.8208
  49   2.0000      -0.504877       -13.7384
  50   2.0000      -0.492106       -13.3909
  51   2.0000      -0.476803       -12.9745
  52   2.0000      -0.473058       -12.8726
  53   2.0000      -0.464130       -12.6296
  54   2.0000      -0.459685       -12.5087
  55   2.0000      -0.448134       -12.1944
  56   2.0000      -0.443252       -12.0615
  57   2.0000      -0.433418       -11.7939
  58   2.0000      -0.430660       -11.7189
  59   2.0000      -0.427186       -11.6243
  60   2.0000      -0.420164       -11.4332
  61   2.0000      -0.415784       -11.3141
  62   2.0000      -0.408181       -11.1072
  63   2.0000      -0.336025        -9.1437
  64   2.0000      -0.326165        -8.8754
  65   2.0000      -0.317509        -8.6399
  66   2.0000      -0.313145        -8.5211
  67   0.0000       0.045799         1.2462
  68   0.0000       0.055647         1.5142
  69   0.0000       0.115216         3.1352
  70   0.0000       0.120149         3.2694
  71   0.0000       0.125694         3.4203

MULLIKEN ATOMIC CHARGES
-----------------------
   0 S :    0.141524
   1 C :   -0.162254
   2 C :   -0.062434
   3 C :    0.027162
   4 C :   -0.182086
   5 H :    0.012948
   6 C :    0.085650
   7 H :    0.042410
   8 H :   -0.000496
   9 C :   -0.099213
  10 H :    0.037314
  11 H :    0.036311
  12 C :   -0.073178
  13 H :    0.046571
  14 H :    0.040185
  15 H :    0.032685
  16 S :    0.097683
  17 C :   -0.102910
  18 C :   -0.002924
  19 C :   -0.072038
  20 C :   -0.169113
  21 H :   -0.003197
  22 C :    0.099642
  23 H :   -0.001995
  24 H :    0.035786
  25 C :   -0.075015
  26 H :    0.017003
  27 H :    0.027418
  28 C :   -0.004767
  29 H :    0.028217
  30 H :    0.033187
  31 H :    0.030186
  32 H :    0.065199
  33 H :    0.074539
Sum of atomic charges:    0.0000000

LOEWDIN ATOMIC CHARGES
----------------------
   0 S :    0.457547
   1 C :   -0.209969
   2 C :   -0.062389
   3 C :   -0.063186
   4 C :   -0.236686
   5 H :    0.032007
   6 C :   -0.023241
   7 H :    0.035820
   8 H :    0.021120
   9 C :   -0.042676
  10 H :    0.021708
  11 H :    0.027207
  12 C :   -0.073142
  13 H :    0.028401
  14 H :    0.030559
  15 H :    0.024477
  16 S :    0.392728
  17 C :   -0.185671
  18 C :   -0.068248
  19 C :   -0.041994
  20 C :   -0.210648
  21 H :    0.018931
  22 C :   -0.033474
  23 H :    0.017736
  24 H :    0.036547
  25 C :   -0.044357
  26 H :    0.021505
  27 H :    0.028036
  28 C :   -0.059586
  29 H :    0.020356
  30 H :    0.030120
  31 H :    0.031891
  32 H :    0.038070
  33 H :    0.040499

  Mayer bond orders larger than 0.100000
B(  0-S ,  1-C ) :   1.1499 B(  0-S ,  4-C ) :   1.2042 B(  1-C ,  2-C ) :   1.5849
B(  1-C , 32-H ) :   0.9610 B(  2-C ,  3-C ) :   1.2616 B(  2-C ,  6-C ) :   1.0210
B(  3-C ,  4-C ) :   1.5393 B(  3-C ,  5-H ) :   0.9997 B(  4-C , 20-C ) :   1.0040
B(  6-C ,  7-H ) :   0.9486 B(  6-C ,  8-H ) :   0.9349 B(  6-C ,  9-C ) :   1.0575
B(  9-C , 10-H ) :   0.9588 B(  9-C , 11-H ) :   0.9586 B(  9-C , 12-C ) :   1.0778
B( 12-C , 13-H ) :   0.9757 B( 12-C , 14-H ) :   0.9747 B( 12-C , 15-H ) :   0.9745
B( 16-S , 17-C ) :   1.1531 B( 16-S , 20-C ) :   1.1219 B( 17-C , 18-C ) :   1.6286
B( 17-C , 33-H ) :   0.9609 B( 18-C , 19-C ) :   1.2059 B( 18-C , 21-H ) :   0.9969
B( 19-C , 20-C ) :   1.6276 B( 19-C , 22-C ) :   1.0518 B( 22-C , 23-H ) :   0.9254
B( 22-C , 24-H ) :   0.9194 B( 22-C , 25-C ) :   1.0631 B( 25-C , 26-H ) :   0.9455
B( 25-C , 27-H ) :   0.9557 B( 25-C , 28-C ) :   1.0850 B( 28-C , 29-H ) :   0.9732
B( 28-C , 30-H ) :   0.9716 B( 28-C , 31-H ) :   0.9699

Dispersion correction           -0.014087874
FINAL SINGLE POINT ENERGY     -1339.875522066281

DIPOLE MOMENT
-------------
                                X             Y             Z
Electronic contribution:     18.87950      16.33900      -6.55994
Nuclear contribution   :    -19.17654     -16.78890       6.59329
                        -----------------------------------------
Total Dipole Moment    :     -0.29703      -0.44990       0.03335
                        -----------------------------------------
Magnitude (a.u.)       :      0.54014
Magnitude (Debye)      :      1.37293

Rotational constants in cm-1:     0.019147     0.007731     0.006586
Rotational constants in MHz :   573.999425   231.764708   197.432795

                             ****ORCA TERMINATED NORMALLY****
TOTAL RUN TIME: 0 days 0 hours 0 minutes 33 seconds 871 msec
