                         Program Version 4.2.1 -  RELEASE  -
|  1> ! wB97X-D3 SP def2-SVP
|  2> %pal
|  3> nprocs 16
|  4> end
|  5>
|  6> * xyz 0 1
|  7> S 	 -78.4111 	 43.4656 	 124.204
|  8> C 	 -79.3665 	 42.0046 	 124.113
|  9> C 	 -79.7268 	 41.7852 	 122.78
| 10> C 	 -79.1092 	 42.5977 	 121.855
| 11> C 	 -78.4644 	 43.6181 	 122.468
| 12> H 	 -79.2033 	 42.4164 	 120.787
| 13> C 	 -80.6388 	 40.6424 	 122.391
| 14> H 	 -81.3641 	 41.069 	 121.717
| 15> H 	 -81.0788 	 40.4084 	 123.337
| 16> C 	 -80.0412 	 39.3063 	 121.694
| 17> H 	 -80.8244 	 38.5886 	 121.603
| 18> H 	 -79.7818 	 39.483 	 120.692
| 19> C 	 -78.9766 	 38.6482 	 122.535
| 20> H 	 -79.3508 	 38.4489 	 123.613
| 21> H 	 -78.679 	 37.7332 	 122.048
| 22> H 	 -78.1621 	 39.3709 	 122.656
| 23> S 	 -78.268 	 45.6696 	 120.539
| 24> C 	 -76.7271 	 46.564 	 120.521
| 25> C 	 -75.7188 	 45.8957 	 121.21
| 26> C 	 -76.2047 	 44.6807 	 121.827
| 27> C 	 -77.6104 	 44.6137 	 121.813
| 28> H 	 -74.6992 	 46.2559 	 121.232
| 29> C 	 -75.2563 	 43.7073 	 122.63
| 30> H 	 -75.7287 	 43.3947 	 123.502
| 31> H 	 -74.3958 	 44.2369 	 122.998
| 32> C 	 -74.8619 	 42.4085 	 121.896
| 33> H 	 -75.641 	 41.7483 	 121.529
| 34> H 	 -74.4701 	 41.7809 	 122.674
| 35> C 	 -73.769 	 42.6651 	 120.82
| 36> H 	 -73.0111 	 43.3824 	 121.245
| 37> H 	 -74.187 	 43.2646 	 119.971
| 38> H 	 -73.1941 	 41.8222 	 120.466
| 39> H 	 -79.6332 	 41.3912 	 124.957
| 40> H 	 -76.6289 	 47.4481 	 119.907
| 41> *
| 42>
| 43>                          ****END OF INPUT****

CARTESIAN COORDINATES (ANGSTROEM)
---------------------------------
  S    -78.411100   43.465600  124.204000
  C    -79.366500   42.004600  124.113000
  C    -79.726800   41.785200  122.780000
  C    -79.109200   42.597700  121.855000
  C    -78.464400   43.618100  122.468000
  H    -79.203300   42.416400  120.787000
  C    -80.638800   40.642400  122.391000
  H    -81.364100   41.069000  121.717000
  H    -81.078800   40.408400  123.337000
  C    -80.041200   39.306300  121.694000
  H    -80.824400   38.588600  121.603000
  H    -79.781800   39.483000  120.692000
  C    -78.976600   38.648200  122.535000
  H    -79.350800   38.448900  123.613000
  H    -78.679000   37.733200  122.048000
  H    -78.162100   39.370900  122.656000
  S    -78.268000   45.669600  120.539000
  C    -76.727100   46.564000  120.521000
  C    -75.718800   45.895700  121.210000
  C    -76.204700   44.680700  121.827000
  C    -77.610400   44.613700  121.813000
  H    -74.699200   46.255900  121.232000
  C    -75.256300   43.707300  122.630000
  H    -75.728700   43.394700  123.502000
  H    -74.395800   44.236900  122.998000
  C    -74.861900   42.408500  121.896000
  H    -75.641000   41.748300  121.529000
  H    -74.470100   41.780900  122.674000
  C    -73.769000   42.665100  120.820000
  H    -73.011100   43.382400  121.245000
  H    -74.187000   43.264600  119.971000
  H    -73.194100   41.822200  120.466000
  H    -79.633200   41.391200  124.957000
  H    -76.628900   47.448100  119.907000

 Total Charge           Charge          ....    0
 Multiplicity           Mult            ....    1
 Number of Electrons    NEL             ....  134
 Basis Dimension        Dim             ....  322

ORBITAL ENERGIES
----------------

  NO   OCC          E(Eh)            E(eV)
   0   2.0000     -88.969694     -2420.9885
   1   2.0000     -88.964776     -2420.8546
   2   2.0000     -10.327259      -281.0190
   3   2.0000     -10.326069      -280.9866
   4   2.0000     -10.320519      -280.8356
   5   2.0000     -10.313603      -280.6474
   6   2.0000     -10.309216      -280.5280
   7   2.0000     -10.298716      -280.2423
   8   2.0000     -10.295020      -280.1417
   9   2.0000     -10.289223      -279.9840
  10   2.0000     -10.288101      -279.9535
  11   2.0000     -10.287763      -279.9443
  12   2.0000     -10.284210      -279.8476
  13   2.0000     -10.283965      -279.8409
  14   2.0000     -10.281046      -279.7615
  15   2.0000     -10.279178      -279.7106
  16   2.0000      -8.084053      -219.9783
  17   2.0000      -8.078648      -219.8312
  18   2.0000      -6.042456      -164.4236
  19   2.0000      -6.038583      -164.3182
  20   2.0000      -6.037149      -164.2792
  21   2.0000      -6.034971      -164.2199
  22   2.0000      -6.033542      -164.1810
  23   2.0000      -6.029223      -164.0635
  24   2.0000      -1.008810       -27.4511
  25   2.0000      -0.978608       -26.6293
  26   2.0000      -0.906319       -24.6622
  27   2.0000      -0.899975       -24.4896
  28   2.0000      -0.865485       -23.5510
  29   2.0000      -0.856824       -23.3154
  30   2.0000      -0.838840       -22.8260
  31   2.0000      -0.813712       -22.1422
  32   2.0000      -0.781149       -21.2561
  33   2.0000      -0.767190       -20.8763
  34   2.0000      -0.710476       -19.3330
  35   2.0000      -0.700783       -19.0693
  36   2.0000      -0.689791       -18.7702
  37   2.0000      -0.661201       -17.9922
  38   2.0000      -0.640191       -17.4205
  39   2.0000      -0.619311       -16.8523
  40   2.0000      -0.592337       -16.1183
  41   2.0000      -0.559538       -15.2258
  42   2.0000      -0.553826       -15.0704
  43   2.0000      -0.549034       -14.9400
  44   2.0000      -0.547713       -14.9040
  45   2.0000      -0.537352       -14.6221
  46   2.0000      -0.519819       -14.1450
  47   2.0000      -0.512557       -13.9474
  48   2.0000      -0.498197       -13.5566
  49   2.0000      -0.486821       -13.2471
  50   2.0000      -0.485446       -13.2096
  51   2.0000      -0.476146       -12.9566
  52   2.0000      -0.470286       -12.7971
  53   2.0000      -0.462720       -12.5913
  54   2.0000      -0.457376       -12.4458
  55   2.0000      -0.450242       -12.2517
  56   2.0000      -0.446090       -12.1387
  57   2.0000      -0.437290       -11.8993
  58   2.0000      -0.434355       -11.8194
  59   2.0000      -0.428625       -11.6635
  60   2.0000      -0.422435       -11.4950
  61   2.0000      -0.412171       -11.2157
  62   2.0000      -0.406873       -11.0716
  63   2.0000      -0.343347        -9.3430
  64   2.0000      -0.330882        -9.0038
  65   2.0000      -0.325678        -8.8622
  66   2.0000      -0.292990        -7.9727
  67   0.0000       0.028298         0.7700
  68   0.0000       0.061902         1.6844
  69   0.0000       0.102444         2.7876
  70   0.0000       0.118663         3.2290
  71   0.0000       0.128986         3.5099

MULLIKEN ATOMIC CHARGES
-----------------------
   0 S :    0.118982
   1 C :   -0.138451
   2 C :   -0.106798
   3 C :    0.034708
   4 C :   -0.142778
   5 H :    0.018861
   6 C :    0.073813
   7 H :    0.030013
   8 H :    0.006622
   9 C :   -0.035621
  10 H :    0.019414
  11 H :    0.014928
  12 C :   -0.067194
  13 H :    0.034617
  14 H :    0.038697
  15 H :    0.041790
  16 S :    0.093386
  17 C :   -0.096052
  18 C :   -0.016185
  19 C :   -0.031217
  20 C :   -0.164113
  21 H :    0.024452
  22 C :    0.100897
  23 H :   -0.002240
  24 H :    0.017571
  25 C :   -0.054870
  26 H :    0.033830
  27 H :    0.017289
  28 C :   -0.070480
  29 H :    0.016685
  30 H :    0.042554
  31 H :    0.039042
  32 H :    0.048217
  33 H :    0.059634
Sum of atomic charges:    0.0000000

LOEWDIN ATOMIC CHARGES
----------------------
   0 S :    0.428357
   1 C :   -0.205324
   2 C :   -0.066241
   3 C :   -0.063430
   4 C :   -0.187968
   5 H :    0.038236
   6 C :   -0.025029
   7 H :    0.029750
   8 H :    0.024335
   9 C :   -0.034191
  10 H :    0.021563
  11 H :    0.014666
  12 C :   -0.067429
  13 H :    0.032716
  14 H :    0.024687
  15 H :    0.024762
  16 S :    0.374463
  17 C :   -0.170490
  18 C :   -0.069086
  19 C :   -0.046796
  20 C :   -0.194357
  21 H :    0.032896
  22 C :   -0.021380
  23 H :    0.011440
  24 H :    0.028416
  25 C :   -0.037967
  26 H :    0.026657
  27 H :    0.022942
  28 C :   -0.075413
  29 H :    0.024713
  30 H :    0.030211
  31 H :    0.022311
  32 H :    0.026259
  33 H :    0.025722

  Mayer bond orders larger than 0.100000
B(  0-S ,  1-C ) :   1.1420 B(  0-S ,  4-C ) :   1.1753 B(  1-C ,  2-C ) :   1.5694
B(  1-C , 32-H ) :   0.9724 B(  2-C ,  3-C ) :   1.2695 B(  2-C ,  6-C ) :   1.0250
B(  3-C ,  4-C ) :   1.5556 B(  3-C ,  5-H ) :   0.9971 B(  4-C , 20-C ) :   1.0144
B(  6-C ,  7-H ) :   0.9396 B(  6-C ,  8-H ) :   0.9398 B(  6-C ,  9-C ) :   1.0618
B(  9-C , 10-H ) :   0.9547 B(  9-C , 11-H ) :   0.9560 B(  9-C , 12-C ) :   1.0766
B( 12-C , 13-H ) :   0.9735 B( 12-C , 14-H ) :   0.9721 B( 12-C , 15-H ) :   0.9760
B( 16-S , 17-C ) :   1.1442 B( 16-S , 20-C ) :   1.1292 B( 17-C , 18-C ) :   1.6103
B( 17-C , 20-C ) :   0.1041 B( 17-C , 33-H ) :   0.9707 B( 18-C , 19-C ) :   1.2210
B( 18-C , 21-H ) :   0.9921 B( 19-C , 20-C ) :   1.5970 B( 19-C , 22-C ) :   1.0269
B( 22-C , 23-H ) :   0.9275 B( 22-C , 24-H ) :   0.9417 B( 22-C , 25-C ) :   1.0761
B( 25-C , 26-H ) :   0.9570 B( 25-C , 27-H ) :   0.9528 B( 25-C , 28-C ) :   1.0653
B( 28-C , 29-H ) :   0.9743 B( 28-C , 30-H ) :   0.9769 B( 28-C , 31-H ) :   0.9772

Dispersion correction           -0.015364224
FINAL SINGLE POINT ENERGY     -1339.864260112042

DIPOLE MOMENT
-------------
                                X             Y             Z
Electronic contribution:     -8.95222      22.96314       2.89514
Nuclear contribution   :      9.17742     -23.47273      -2.99663
                        -----------------------------------------
Total Dipole Moment    :      0.22520      -0.50959      -0.10149
                        -----------------------------------------
Magnitude (a.u.)       :      0.56630
Magnitude (Debye)      :      1.43942

Rotational constants in cm-1:     0.019109     0.008880     0.007672
Rotational constants in MHz :   572.879439   266.228730   229.998779

                             ****ORCA TERMINATED NORMALLY****
TOTAL RUN TIME: 0 days 0 hours 0 minutes 33 seconds 150 msec
