                         Program Version 4.2.1 -  RELEASE  -
|  1> ! wB97X-D3 SP def2-SVP
|  2> %pal
|  3> nprocs 16
|  4> end
|  5>
|  6> * xyz 0 1
|  7> S 	 40.7988 	 11.1063 	 85.995
|  8> C 	 41.5044 	 9.54081 	 86.3853
|  9> C 	 42.8609 	 9.51379 	 86.3293
| 10> C 	 43.3723 	 10.8034 	 85.9147
| 11> C 	 42.3901 	 11.766 	 85.8556
| 12> H 	 44.4131 	 11.0258 	 85.7588
| 13> C 	 43.688 	 8.23793 	 86.5007
| 14> H 	 44.0675 	 7.89888 	 85.5365
| 15> H 	 42.9002 	 7.50963 	 86.7764
| 16> C 	 44.8384 	 8.32868 	 87.581
| 17> H 	 45.4154 	 7.42219 	 87.5425
| 18> H 	 45.6052 	 9.10537 	 87.3948
| 19> C 	 44.2733 	 8.61307 	 89.0285
| 20> H 	 43.6014 	 7.81228 	 89.2831
| 21> H 	 45.1306 	 8.65816 	 89.7623
| 22> H 	 43.7789 	 9.6015 	 89.0919
| 23> S 	 42.275 	 13.4416 	 83.6184
| 24> C 	 43.0505 	 15.0538 	 83.7612
| 25> C 	 43.8434 	 15.1046 	 84.886
| 26> C 	 43.6041 	 14.0244 	 85.7593
| 27> C 	 42.7081 	 13.0951 	 85.341
| 28> H 	 44.4741 	 15.9175 	 85.0671
| 29> C 	 44.3694 	 14.0021 	 87.0485
| 30> H 	 45.4349 	 14.2245 	 86.8618
| 31> H 	 44.2744 	 12.9554 	 87.4243
| 32> C 	 44.0097 	 15.0083 	 88.1191
| 33> H 	 43.9543 	 15.9739 	 87.7385
| 34> H 	 44.7692 	 15.0367 	 88.9529
| 35> C 	 42.6094 	 14.7282 	 88.6553
| 36> H 	 42.4832 	 13.6737 	 88.6854
| 37> H 	 41.8487 	 15.1727 	 87.9662
| 38> H 	 42.5222 	 15.1719 	 89.6003
| 39> H 	 40.9336 	 8.56472 	 86.5492
| 40> H 	 43.1485 	 15.5955 	 82.8359
| 41> *
| 42>
| 43>                          ****END OF INPUT****

CARTESIAN COORDINATES (ANGSTROEM)
---------------------------------
  S     40.798800   11.106300   85.995000
  C     41.504400    9.540810   86.385300
  C     42.860900    9.513790   86.329300
  C     43.372300   10.803400   85.914700
  C     42.390100   11.766000   85.855600
  H     44.413100   11.025800   85.758800
  C     43.688000    8.237930   86.500700
  H     44.067500    7.898880   85.536500
  H     42.900200    7.509630   86.776400
  C     44.838400    8.328680   87.581000
  H     45.415400    7.422190   87.542500
  H     45.605200    9.105370   87.394800
  C     44.273300    8.613070   89.028500
  H     43.601400    7.812280   89.283100
  H     45.130600    8.658160   89.762300
  H     43.778900    9.601500   89.091900
  S     42.275000   13.441600   83.618400
  C     43.050500   15.053800   83.761200
  C     43.843400   15.104600   84.886000
  C     43.604100   14.024400   85.759300
  C     42.708100   13.095100   85.341000
  H     44.474100   15.917500   85.067100
  C     44.369400   14.002100   87.048500
  H     45.434900   14.224500   86.861800
  H     44.274400   12.955400   87.424300
  C     44.009700   15.008300   88.119100
  H     43.954300   15.973900   87.738500
  H     44.769200   15.036700   88.952900
  C     42.609400   14.728200   88.655300
  H     42.483200   13.673700   88.685400
  H     41.848700   15.172700   87.966200
  H     42.522200   15.171900   89.600300
  H     40.933600    8.564720   86.549200
  H     43.148500   15.595500   82.835900

 Total Charge           Charge          ....    0
 Multiplicity           Mult            ....    1
 Number of Electrons    NEL             ....  134
 Basis Dimension        Dim             ....  322

ORBITAL ENERGIES
----------------

  NO   OCC          E(Eh)            E(eV)
   0   2.0000     -88.970666     -2421.0149
   1   2.0000     -88.958520     -2420.6844
   2   2.0000     -10.327175      -281.0167
   3   2.0000     -10.326440      -280.9967
   4   2.0000     -10.320060      -280.8231
   5   2.0000     -10.317890      -280.7641
   6   2.0000     -10.301775      -280.3255
   7   2.0000     -10.300252      -280.2841
   8   2.0000     -10.297229      -280.2018
   9   2.0000     -10.295576      -280.1569
  10   2.0000     -10.294727      -280.1338
  11   2.0000     -10.290773      -280.0262
  12   2.0000     -10.287514      -279.9375
  13   2.0000     -10.284014      -279.8422
  14   2.0000     -10.277828      -279.6739
  15   2.0000     -10.262609      -279.2598
  16   2.0000      -8.085419      -220.0154
  17   2.0000      -8.072443      -219.6623
  18   2.0000      -6.043942      -164.4640
  19   2.0000      -6.040088      -164.3591
  20   2.0000      -6.035988      -164.2476
  21   2.0000      -6.031003      -164.1119
  22   2.0000      -6.027358      -164.0127
  23   2.0000      -6.022888      -163.8911
  24   2.0000      -1.007780       -27.4231
  25   2.0000      -0.983743       -26.7690
  26   2.0000      -0.911005       -24.7897
  27   2.0000      -0.905043       -24.6275
  28   2.0000      -0.869039       -23.6478
  29   2.0000      -0.848448       -23.0874
  30   2.0000      -0.843383       -22.9496
  31   2.0000      -0.812492       -22.1090
  32   2.0000      -0.780386       -21.2354
  33   2.0000      -0.771660       -20.9979
  34   2.0000      -0.709777       -19.3140
  35   2.0000      -0.695423       -18.9234
  36   2.0000      -0.692252       -18.8371
  37   2.0000      -0.664384       -18.0788
  38   2.0000      -0.637117       -17.3368
  39   2.0000      -0.617452       -16.8017
  40   2.0000      -0.598468       -16.2851
  41   2.0000      -0.566782       -15.4229
  42   2.0000      -0.555425       -15.1139
  43   2.0000      -0.549279       -14.9466
  44   2.0000      -0.542608       -14.7651
  45   2.0000      -0.535873       -14.5819
  46   2.0000      -0.521906       -14.2018
  47   2.0000      -0.509498       -13.8641
  48   2.0000      -0.500019       -13.6062
  49   2.0000      -0.491396       -13.3716
  50   2.0000      -0.487267       -13.2592
  51   2.0000      -0.477048       -12.9811
  52   2.0000      -0.467037       -12.7087
  53   2.0000      -0.457864       -12.4591
  54   2.0000      -0.453805       -12.3487
  55   2.0000      -0.452051       -12.3009
  56   2.0000      -0.441448       -12.0124
  57   2.0000      -0.438214       -11.9244
  58   2.0000      -0.434876       -11.8336
  59   2.0000      -0.429504       -11.6874
  60   2.0000      -0.419282       -11.4092
  61   2.0000      -0.414555       -11.2806
  62   2.0000      -0.410302       -11.1649
  63   2.0000      -0.341246        -9.2858
  64   2.0000      -0.332669        -9.0524
  65   2.0000      -0.326239        -8.8774
  66   2.0000      -0.302812        -8.2399
  67   0.0000       0.032379         0.8811
  68   0.0000       0.061893         1.6842
  69   0.0000       0.102231         2.7819
  70   0.0000       0.116917         3.1815
  71   0.0000       0.127735         3.4759

MULLIKEN ATOMIC CHARGES
-----------------------
   0 S :    0.126648
   1 C :   -0.146114
   2 C :   -0.103213
   3 C :    0.041518
   4 C :   -0.181345
   5 H :    0.019080
   6 C :    0.075102
   7 H :    0.043928
   8 H :    0.013644
   9 C :   -0.079972
  10 H :    0.028296
  11 H :    0.034252
  12 C :   -0.080053
  13 H :    0.034607
  14 H :    0.040705
  15 H :    0.055152
  16 S :    0.064290
  17 C :   -0.086060
  18 C :   -0.006035
  19 C :   -0.034597
  20 C :   -0.126366
  21 H :    0.004614
  22 C :    0.037159
  23 H :    0.026413
  24 H :    0.029309
  25 C :   -0.063309
  26 H :    0.008300
  27 H :    0.034690
  28 C :   -0.027078
  29 H :    0.020025
  30 H :    0.044378
  31 H :    0.020215
  32 H :    0.068077
  33 H :    0.063739
Sum of atomic charges:   -0.0000000

LOEWDIN ATOMIC CHARGES
----------------------
   0 S :    0.413397
   1 C :   -0.204702
   2 C :   -0.069934
   3 C :   -0.047460
   4 C :   -0.209805
   5 H :    0.030282
   6 C :   -0.028126
   7 H :    0.033429
   8 H :    0.031099
   9 C :   -0.042045
  10 H :    0.021385
  11 H :    0.025107
  12 C :   -0.067581
  13 H :    0.020650
  14 H :    0.030953
  15 H :    0.031000
  16 S :    0.351594
  17 C :   -0.156909
  18 C :   -0.058330
  19 C :   -0.061219
  20 C :   -0.174956
  21 H :    0.024540
  22 C :   -0.036645
  23 H :    0.033555
  24 H :    0.029540
  25 C :   -0.039315
  26 H :    0.012324
  27 H :    0.028459
  28 C :   -0.056168
  29 H :    0.017823
  30 H :    0.033637
  31 H :    0.017268
  32 H :    0.042593
  33 H :    0.024560

  Mayer bond orders larger than 0.100000
B(  0-S ,  1-C ) :   1.1276 B(  0-S ,  4-C ) :   1.1455 B(  1-C ,  2-C ) :   1.6566
B(  1-C , 32-H ) :   0.9462 B(  2-C ,  3-C ) :   1.2160 B(  2-C ,  6-C ) :   1.0138
B(  3-C ,  4-C ) :   1.5820 B(  3-C ,  5-H ) :   0.9957 B(  4-C , 20-C ) :   1.0233
B(  6-C ,  7-H ) :   0.9426 B(  6-C ,  8-H ) :   0.9415 B(  6-C ,  9-C ) :   1.0561
B(  9-C , 10-H ) :   0.9593 B(  9-C , 11-H ) :   0.9613 B(  9-C , 12-C ) :   1.0638
B( 12-C , 13-H ) :   0.9796 B( 12-C , 14-H ) :   0.9759 B( 12-C , 15-H ) :   0.9752
B( 16-S , 17-C ) :   1.1441 B( 16-S , 20-C ) :   1.1181 B( 17-C , 18-C ) :   1.6106
B( 17-C , 33-H ) :   0.9670 B( 18-C , 19-C ) :   1.2206 B( 18-C , 21-H ) :   1.0032
B( 19-C , 20-C ) :   1.6389 B( 19-C , 22-C ) :   1.0443 B( 22-C , 23-H ) :   0.9307
B( 22-C , 24-H ) :   0.9345 B( 22-C , 25-C ) :   1.0846 B( 25-C , 26-H ) :   0.9529
B( 25-C , 27-H ) :   0.9560 B( 25-C , 28-C ) :   1.0708 B( 28-C , 29-H ) :   0.9811
B( 28-C , 30-H ) :   0.9743 B( 28-C , 31-H ) :   0.9732

Dispersion correction           -0.015172657
FINAL SINGLE POINT ENERGY     -1339.873843730961

DIPOLE MOMENT
-------------
                                X             Y             Z
Electronic contribution:    -14.39610       4.93113     -20.85147
Nuclear contribution   :     15.09860      -5.12455      21.03831
                        -----------------------------------------
Total Dipole Moment    :      0.70250      -0.19342       0.18683
                        -----------------------------------------
Magnitude (a.u.)       :      0.75221
Magnitude (Debye)      :      1.91197

Rotational constants in cm-1:     0.018804     0.009199     0.007627
Rotational constants in MHz :   563.738836   275.769520   228.644937

                             ****ORCA TERMINATED NORMALLY****
TOTAL RUN TIME: 0 days 0 hours 0 minutes 31 seconds 850 msec
