                         Program Version 4.2.1 -  RELEASE  -
|  1> ! wB97X-D3 SP def2-SVP
|  2> %pal
|  3> nprocs 16
|  4> end
|  5>
|  6> * xyz 0 1
|  7> S 	 -17.4211 	 32.3816 	 37.8695
|  8> C 	 -18.6186 	 32.0731 	 36.6472
|  9> C 	 -18.9718 	 33.1948 	 35.9801
| 10> C 	 -18.1888 	 34.335 	 36.3327
| 11> C 	 -17.2137 	 34.0512 	 37.2544
| 12> H 	 -18.368 	 35.3585 	 35.9689
| 13> C 	 -19.904 	 33.2494 	 34.8305
| 14> H 	 -19.7419 	 32.3147 	 34.2104
| 15> H 	 -19.5848 	 34.0066 	 34.1155
| 16> C 	 -21.421 	 33.3778 	 35.0785
| 17> H 	 -21.7762 	 34.2604 	 35.7143
| 18> H 	 -21.9532 	 33.353 	 34.0957
| 19> C 	 -21.886 	 32.0409 	 35.7429
| 20> H 	 -21.3484 	 31.7287 	 36.6434
| 21> H 	 -22.9906 	 32.1221 	 35.9683
| 22> H 	 -21.7598 	 31.2035 	 35.0322
| 23> S 	 -14.5846 	 34.7425 	 37.3394
| 24> C 	 -14.0769 	 35.9759 	 38.4417
| 25> C 	 -15.0985 	 36.5459 	 39.1694
| 26> C 	 -16.3569 	 35.9349 	 38.8397
| 27> C 	 -16.2308 	 34.916 	 37.8807
| 28> H 	 -14.8041 	 37.2596 	 39.8829
| 29> C 	 -17.7029 	 36.4507 	 39.4227
| 30> H 	 -17.512 	 37.0408 	 40.2572
| 31> H 	 -18.2506 	 35.5695 	 39.8294
| 32> C 	 -18.5793 	 37.3522 	 38.4986
| 33> H 	 -19.3885 	 37.7558 	 39.1427
| 34> H 	 -18.943 	 36.7448 	 37.6909
| 35> C 	 -17.9288 	 38.5757 	 37.9818
| 36> H 	 -17.2359 	 38.2992 	 37.1901
| 37> H 	 -17.3796 	 39.0815 	 38.8347
| 38> H 	 -18.6346 	 39.3452 	 37.5541
| 39> H 	 -18.9704 	 31.0961 	 36.4011
| 40> H 	 -13.0248 	 36.2788 	 38.5564
| 41> *
| 42>
| 43>                          ****END OF INPUT****

CARTESIAN COORDINATES (ANGSTROEM)
---------------------------------
  S    -17.421100   32.381600   37.869500
  C    -18.618600   32.073100   36.647200
  C    -18.971800   33.194800   35.980100
  C    -18.188800   34.335000   36.332700
  C    -17.213700   34.051200   37.254400
  H    -18.368000   35.358500   35.968900
  C    -19.904000   33.249400   34.830500
  H    -19.741900   32.314700   34.210400
  H    -19.584800   34.006600   34.115500
  C    -21.421000   33.377800   35.078500
  H    -21.776200   34.260400   35.714300
  H    -21.953200   33.353000   34.095700
  C    -21.886000   32.040900   35.742900
  H    -21.348400   31.728700   36.643400
  H    -22.990600   32.122100   35.968300
  H    -21.759800   31.203500   35.032200
  S    -14.584600   34.742500   37.339400
  C    -14.076900   35.975900   38.441700
  C    -15.098500   36.545900   39.169400
  C    -16.356900   35.934900   38.839700
  C    -16.230800   34.916000   37.880700
  H    -14.804100   37.259600   39.882900
  C    -17.702900   36.450700   39.422700
  H    -17.512000   37.040800   40.257200
  H    -18.250600   35.569500   39.829400
  C    -18.579300   37.352200   38.498600
  H    -19.388500   37.755800   39.142700
  H    -18.943000   36.744800   37.690900
  C    -17.928800   38.575700   37.981800
  H    -17.235900   38.299200   37.190100
  H    -17.379600   39.081500   38.834700
  H    -18.634600   39.345200   37.554100
  H    -18.970400   31.096100   36.401100
  H    -13.024800   36.278800   38.556400

 Total Charge           Charge          ....    0
 Multiplicity           Mult            ....    1
 Number of Electrons    NEL             ....  134
 Basis Dimension        Dim             ....  322

ORBITAL ENERGIES
----------------

  NO   OCC          E(Eh)            E(eV)
   0   2.0000     -88.966221     -2420.8939
   1   2.0000     -88.962777     -2420.8002
   2   2.0000     -10.329325      -281.0752
   3   2.0000     -10.323599      -280.9194
   4   2.0000     -10.315967      -280.7117
   5   2.0000     -10.310018      -280.5499
   6   2.0000     -10.310003      -280.5494
   7   2.0000     -10.298943      -280.2485
   8   2.0000     -10.296828      -280.1909
   9   2.0000     -10.294883      -280.1380
  10   2.0000     -10.292972      -280.0860
  11   2.0000     -10.291748      -280.0527
  12   2.0000     -10.290284      -280.0129
  13   2.0000     -10.282834      -279.8101
  14   2.0000     -10.281250      -279.7670
  15   2.0000     -10.279232      -279.7121
  16   2.0000      -8.081503      -219.9089
  17   2.0000      -8.077483      -219.7995
  18   2.0000      -6.039866      -164.3531
  19   2.0000      -6.035997      -164.2478
  20   2.0000      -6.035878      -164.2446
  21   2.0000      -6.032447      -164.1512
  22   2.0000      -6.032112      -164.1421
  23   2.0000      -6.028114      -164.0333
  24   2.0000      -1.006654       -27.3924
  25   2.0000      -0.986170       -26.8351
  26   2.0000      -0.909695       -24.7541
  27   2.0000      -0.908285       -24.7157
  28   2.0000      -0.869083       -23.6490
  29   2.0000      -0.849751       -23.1229
  30   2.0000      -0.846471       -23.0336
  31   2.0000      -0.814881       -22.1740
  32   2.0000      -0.781189       -21.2572
  33   2.0000      -0.770048       -20.9541
  34   2.0000      -0.707753       -19.2589
  35   2.0000      -0.692285       -18.8380
  36   2.0000      -0.683802       -18.6072
  37   2.0000      -0.660468       -17.9722
  38   2.0000      -0.644130       -17.5277
  39   2.0000      -0.619179       -16.8487
  40   2.0000      -0.592194       -16.1144
  41   2.0000      -0.573860       -15.6155
  42   2.0000      -0.558871       -15.2077
  43   2.0000      -0.546045       -14.8587
  44   2.0000      -0.543110       -14.7788
  45   2.0000      -0.540389       -14.7047
  46   2.0000      -0.515177       -14.0187
  47   2.0000      -0.510097       -13.8805
  48   2.0000      -0.505320       -13.7504
  49   2.0000      -0.492192       -13.3932
  50   2.0000      -0.482453       -13.1282
  51   2.0000      -0.476274       -12.9601
  52   2.0000      -0.469273       -12.7696
  53   2.0000      -0.464805       -12.6480
  54   2.0000      -0.458356       -12.4725
  55   2.0000      -0.446836       -12.1590
  56   2.0000      -0.443579       -12.0704
  57   2.0000      -0.440255       -11.9800
  58   2.0000      -0.433200       -11.7880
  59   2.0000      -0.420992       -11.4558
  60   2.0000      -0.419324       -11.4104
  61   2.0000      -0.413113       -11.2414
  62   2.0000      -0.406828       -11.0704
  63   2.0000      -0.338814        -9.2196
  64   2.0000      -0.329786        -8.9739
  65   2.0000      -0.322067        -8.7639
  66   2.0000      -0.309673        -8.4266
  67   0.0000       0.038452         1.0463
  68   0.0000       0.057804         1.5729
  69   0.0000       0.110277         3.0008
  70   0.0000       0.122700         3.3388
  71   0.0000       0.125201         3.4069

MULLIKEN ATOMIC CHARGES
-----------------------
   0 S :    0.106247
   1 C :   -0.104931
   2 C :   -0.059957
   3 C :    0.049076
   4 C :   -0.167136
   5 H :    0.027885
   6 C :    0.014330
   7 H :    0.029909
   8 H :    0.022865
   9 C :   -0.061746
  10 H :    0.051791
  11 H :    0.041648
  12 C :   -0.101770
  13 H :    0.042503
  14 H :    0.041628
  15 H :    0.023042
  16 S :    0.127998
  17 C :   -0.108215
  18 C :   -0.025483
  19 C :   -0.024142
  20 C :   -0.204161
  21 H :    0.006321
  22 C :    0.109335
  23 H :   -0.008902
  24 H :    0.041866
  25 C :   -0.057395
  26 H :    0.032352
  27 H :    0.021440
  28 C :   -0.079914
  29 H :    0.039527
  30 H :    0.028683
  31 H :    0.044752
  32 H :    0.038247
  33 H :    0.062308
Sum of atomic charges:   -0.0000000

LOEWDIN ATOMIC CHARGES
----------------------
   0 S :    0.389637
   1 C :   -0.184991
   2 C :   -0.073638
   3 C :   -0.052378
   4 C :   -0.184855
   5 H :    0.036355
   6 C :   -0.042823
   7 H :    0.039013
   8 H :    0.027749
   9 C :   -0.043164
  10 H :    0.032448
  11 H :    0.032464
  12 C :   -0.077779
  13 H :    0.021389
  14 H :    0.029595
  15 H :    0.021464
  16 S :    0.426590
  17 C :   -0.189342
  18 C :   -0.072324
  19 C :   -0.045284
  20 C :   -0.220515
  21 H :    0.028006
  22 C :   -0.025544
  23 H :    0.016489
  24 H :    0.040052
  25 C :   -0.041469
  26 H :    0.030235
  27 H :    0.016507
  28 C :   -0.073251
  29 H :    0.023695
  30 H :    0.028169
  31 H :    0.032609
  32 H :    0.022979
  33 H :    0.031911

  Mayer bond orders larger than 0.100000
B(  0-S ,  1-C ) :   1.1326 B(  0-S ,  4-C ) :   1.1382 B(  1-C ,  2-C ) :   1.6322
B(  1-C , 32-H ) :   0.9655 B(  2-C ,  3-C ) :   1.2264 B(  2-C ,  6-C ) :   1.0162
B(  3-C ,  4-C ) :   1.6119 B(  3-C ,  5-H ) :   0.9865 B(  4-C , 20-C ) :   1.0181
B(  6-C ,  7-H ) :   0.9444 B(  6-C ,  8-H ) :   0.9438 B(  6-C ,  9-C ) :   1.0682
B(  9-C , 10-H ) :   0.9573 B(  9-C , 11-H ) :   0.9527 B(  9-C , 12-C ) :   1.0646
B( 12-C , 13-H ) :   0.9749 B( 12-C , 14-H ) :   0.9744 B( 12-C , 15-H ) :   0.9761
B( 16-S , 17-C ) :   1.1706 B( 16-S , 20-C ) :   1.1608 B( 17-C , 18-C ) :   1.6146
B( 17-C , 33-H ) :   0.9611 B( 18-C , 19-C ) :   1.2274 B( 18-C , 21-H ) :   1.0013
B( 19-C , 20-C ) :   1.5852 B( 19-C , 22-C ) :   1.0391 B( 22-C , 23-H ) :   0.9288
B( 22-C , 24-H ) :   0.9321 B( 22-C , 25-C ) :   1.0747 B( 25-C , 26-H ) :   0.9529
B( 25-C , 27-H ) :   0.9540 B( 25-C , 28-C ) :   1.0824 B( 28-C , 29-H ) :   0.9711
B( 28-C , 30-H ) :   0.9710 B( 28-C , 31-H ) :   0.9724

Dispersion correction           -0.015197176
FINAL SINGLE POINT ENERGY     -1339.884165014271

DIPOLE MOMENT
-------------
                                X             Y             Z
Electronic contribution:     23.62625      -9.91407       4.90341
Nuclear contribution   :    -23.95544      10.28827      -5.00270
                        -----------------------------------------
Total Dipole Moment    :     -0.32920       0.37420      -0.09929
                        -----------------------------------------
Magnitude (a.u.)       :      0.50819
Magnitude (Debye)      :      1.29170

Rotational constants in cm-1:     0.021458     0.008552     0.006942
Rotational constants in MHz :   643.287225   256.391412   208.125770

                             ****ORCA TERMINATED NORMALLY****
TOTAL RUN TIME: 0 days 0 hours 0 minutes 35 seconds 791 msec
