                         Program Version 4.2.1 -  RELEASE  -
|  1> ! wB97X-D3 SP def2-SVP
|  2> %pal
|  3> nprocs 16
|  4> end
|  5>
|  6> * xyz 0 1
|  7> S 	 0.35099 	 -20.2299 	 59.6903
|  8> C 	 0.531471 	 -18.5735 	 60.1217
|  9> C 	 0.2408 	 -18.4065 	 61.4428
| 10> C 	 0.0820232 	 -19.6291 	 62.1695
| 11> C 	 0.0950309 	 -20.7662 	 61.3799
| 12> H 	 -0.101057 	 -19.6963 	 63.2136
| 13> C 	 0.135018 	 -17.1008 	 62.2098
| 14> H 	 -0.674774 	 -17.1375 	 62.9872
| 15> H 	 -0.132093 	 -16.3041 	 61.5543
| 16> C 	 1.35025 	 -16.5992 	 63.029
| 17> H 	 1.24203 	 -15.5652 	 63.4123
| 18> H 	 1.50887 	 -17.2172 	 63.8979
| 19> C 	 2.51795 	 -16.6696 	 62.0392
| 20> H 	 2.31714 	 -16.3576 	 61.0551
| 21> H 	 3.28595 	 -16.0721 	 62.4775
| 22> H 	 2.85351 	 -17.7325 	 62.1092
| 23> S 	 -1.66976 	 -22.821 	 61.0529
| 24> C 	 -1.5549 	 -24.1502 	 62.0523
| 25> C 	 -0.669251 	 -23.9747 	 63.0718
| 26> C 	 0.0915118 	 -22.7714 	 62.9646
| 27> C 	 -0.273135 	 -22.1139 	 61.7992
| 28> H 	 -0.61848 	 -24.7762 	 63.8008
| 29> C 	 1.25524 	 -22.4734 	 63.9244
| 30> H 	 1.10989 	 -22.8751 	 64.8431
| 31> H 	 1.29113 	 -21.3839 	 64.1375
| 32> C 	 2.62513 	 -22.9277 	 63.3779
| 33> H 	 2.4668 	 -23.8671 	 62.8971
| 34> H 	 3.24559 	 -23.2078 	 64.2087
| 35> C 	 3.43394 	 -21.8324 	 62.572
| 36> H 	 3.61794 	 -20.9186 	 63.1234
| 37> H 	 3.04165 	 -21.4529 	 61.6066
| 38> H 	 4.48355 	 -22.1455 	 62.4442
| 39> H 	 0.697672 	 -17.8003 	 59.3713
| 40> H 	 -2.16789 	 -25.0045 	 61.889
| 41> *
| 42>
| 43>                          ****END OF INPUT****

CARTESIAN COORDINATES (ANGSTROEM)
---------------------------------
  S      0.350990  -20.229900   59.690300
  C      0.531471  -18.573500   60.121700
  C      0.240800  -18.406500   61.442800
  C      0.082023  -19.629100   62.169500
  C      0.095031  -20.766200   61.379900
  H     -0.101057  -19.696300   63.213600
  C      0.135018  -17.100800   62.209800
  H     -0.674774  -17.137500   62.987200
  H     -0.132093  -16.304100   61.554300
  C      1.350250  -16.599200   63.029000
  H      1.242030  -15.565200   63.412300
  H      1.508870  -17.217200   63.897900
  C      2.517950  -16.669600   62.039200
  H      2.317140  -16.357600   61.055100
  H      3.285950  -16.072100   62.477500
  H      2.853510  -17.732500   62.109200
  S     -1.669760  -22.821000   61.052900
  C     -1.554900  -24.150200   62.052300
  C     -0.669251  -23.974700   63.071800
  C      0.091512  -22.771400   62.964600
  C     -0.273135  -22.113900   61.799200
  H     -0.618480  -24.776200   63.800800
  C      1.255240  -22.473400   63.924400
  H      1.109890  -22.875100   64.843100
  H      1.291130  -21.383900   64.137500
  C      2.625130  -22.927700   63.377900
  H      2.466800  -23.867100   62.897100
  H      3.245590  -23.207800   64.208700
  C      3.433940  -21.832400   62.572000
  H      3.617940  -20.918600   63.123400
  H      3.041650  -21.452900   61.606600
  H      4.483550  -22.145500   62.444200
  H      0.697672  -17.800300   59.371300
  H     -2.167890  -25.004500   61.889000

 Total Charge           Charge          ....    0
 Multiplicity           Mult            ....    1
 Number of Electrons    NEL             ....  134
 Basis Dimension        Dim             ....  322

ORBITAL ENERGIES
----------------

  NO   OCC          E(Eh)            E(eV)
   0   2.0000     -88.963492     -2420.8197
   1   2.0000     -88.963439     -2420.8183
   2   2.0000     -10.330343      -281.1029
   3   2.0000     -10.323620      -280.9200
   4   2.0000     -10.314213      -280.6640
   5   2.0000     -10.305560      -280.4285
   6   2.0000     -10.305167      -280.4178
   7   2.0000     -10.299467      -280.2627
   8   2.0000     -10.290362      -280.0150
   9   2.0000     -10.289419      -279.9893
  10   2.0000     -10.288760      -279.9714
  11   2.0000     -10.288235      -279.9571
  12   2.0000     -10.285752      -279.8895
  13   2.0000     -10.284663      -279.8599
  14   2.0000     -10.277459      -279.6639
  15   2.0000     -10.267449      -279.3915
  16   2.0000      -8.080513      -219.8819
  17   2.0000      -8.078124      -219.8169
  18   2.0000      -6.038725      -164.3221
  19   2.0000      -6.036683      -164.2665
  20   2.0000      -6.034749      -164.2139
  21   2.0000      -6.032555      -164.1542
  22   2.0000      -6.031377      -164.1221
  23   2.0000      -6.028910      -164.0550
  24   2.0000      -1.014347       -27.6018
  25   2.0000      -0.990689       -26.9580
  26   2.0000      -0.911034       -24.7905
  27   2.0000      -0.906773       -24.6746
  28   2.0000      -0.871994       -23.7282
  29   2.0000      -0.848870       -23.0989
  30   2.0000      -0.842920       -22.9370
  31   2.0000      -0.811302       -22.0766
  32   2.0000      -0.785587       -21.3769
  33   2.0000      -0.773284       -21.0421
  34   2.0000      -0.710991       -19.3470
  35   2.0000      -0.699736       -19.0408
  36   2.0000      -0.692630       -18.8474
  37   2.0000      -0.662107       -18.0169
  38   2.0000      -0.642660       -17.4877
  39   2.0000      -0.623378       -16.9630
  40   2.0000      -0.602481       -16.3943
  41   2.0000      -0.566985       -15.4284
  42   2.0000      -0.552732       -15.0406
  43   2.0000      -0.545304       -14.8385
  44   2.0000      -0.545187       -14.8353
  45   2.0000      -0.532949       -14.5023
  46   2.0000      -0.517407       -14.0794
  47   2.0000      -0.506536       -13.7835
  48   2.0000      -0.501887       -13.6570
  49   2.0000      -0.497572       -13.5396
  50   2.0000      -0.492078       -13.3901
  51   2.0000      -0.484820       -13.1926
  52   2.0000      -0.477732       -12.9998
  53   2.0000      -0.466635       -12.6978
  54   2.0000      -0.457196       -12.4409
  55   2.0000      -0.447729       -12.1833
  56   2.0000      -0.443129       -12.0582
  57   2.0000      -0.436203       -11.8697
  58   2.0000      -0.427677       -11.6377
  59   2.0000      -0.426556       -11.6072
  60   2.0000      -0.416892       -11.3442
  61   2.0000      -0.416763       -11.3407
  62   2.0000      -0.402440       -10.9510
  63   2.0000      -0.350575        -9.5396
  64   2.0000      -0.333024        -9.0620
  65   2.0000      -0.325322        -8.8525
  66   2.0000      -0.292927        -7.9709
  67   0.0000       0.031035         0.8445
  68   0.0000       0.074361         2.0235
  69   0.0000       0.113173         3.0796
  70   0.0000       0.124526         3.3885
  71   0.0000       0.129969         3.5366

MULLIKEN ATOMIC CHARGES
-----------------------
   0 S :    0.096509
   1 C :   -0.123976
   2 C :   -0.073627
   3 C :    0.043119
   4 C :   -0.159731
   5 H :    0.005097
   6 C :    0.038468
   7 H :    0.029300
   8 H :    0.017091
   9 C :   -0.082295
  10 H :    0.033886
  11 H :    0.022449
  12 C :   -0.031340
  13 H :    0.021933
  14 H :    0.018518
  15 H :    0.049599
  16 S :    0.126304
  17 C :   -0.080561
  18 C :   -0.043554
  19 C :   -0.045913
  20 C :   -0.149081
  21 H :    0.012999
  22 C :    0.133737
  23 H :   -0.012299
  24 H :    0.010382
  25 C :   -0.034193
  26 H :    0.024327
  27 H :    0.015900
  28 C :   -0.060113
  29 H :    0.016916
  30 H :    0.050270
  31 H :    0.026780
  32 H :    0.058875
  33 H :    0.044224
Sum of atomic charges:   -0.0000000

LOEWDIN ATOMIC CHARGES
----------------------
   0 S :    0.395798
   1 C :   -0.200031
   2 C :   -0.067736
   3 C :   -0.052499
   4 C :   -0.183476
   5 H :    0.025225
   6 C :   -0.034783
   7 H :    0.032238
   8 H :    0.022675
   9 C :   -0.037536
  10 H :    0.024648
  11 H :    0.017431
  12 C :   -0.060461
  13 H :    0.014054
  14 H :    0.018367
  15 H :    0.036137
  16 S :    0.449600
  17 C :   -0.203472
  18 C :   -0.075600
  19 C :   -0.049087
  20 C :   -0.206873
  21 H :    0.030766
  22 C :   -0.021336
  23 H :    0.015741
  24 H :    0.031752
  25 C :   -0.029295
  26 H :    0.023110
  27 H :    0.023631
  28 C :   -0.073755
  29 H :    0.022271
  30 H :    0.028940
  31 H :    0.027944
  32 H :    0.032897
  33 H :    0.022715

  Mayer bond orders larger than 0.100000
B(  0-S ,  1-C ) :   1.1413 B(  0-S ,  4-C ) :   1.1374 B(  1-C ,  2-C ) :   1.5991
B(  1-C , 32-H ) :   0.9680 B(  2-C ,  3-C ) :   1.2434 B(  2-C ,  6-C ) :   1.0297
B(  3-C ,  4-C ) :   1.5701 B(  3-C ,  5-H ) :   0.9977 B(  4-C , 20-C ) :   1.0388
B(  6-C ,  7-H ) :   0.9448 B(  6-C ,  8-H ) :   0.9457 B(  6-C ,  9-C ) :   1.0682
B(  9-C , 10-H ) :   0.9604 B(  9-C , 11-H ) :   0.9573 B(  9-C , 12-C ) :   1.0731
B( 12-C , 13-H ) :   0.9799 B( 12-C , 14-H ) :   0.9733 B( 12-C , 15-H ) :   0.9691
B( 16-S , 17-C ) :   1.1790 B( 16-S , 20-C ) :   1.1705 B( 17-C , 18-C ) :   1.5939
B( 17-C , 33-H ) :   0.9720 B( 18-C , 19-C ) :   1.2400 B( 18-C , 21-H ) :   0.9977
B( 19-C , 20-C ) :   1.5726 B( 19-C , 22-C ) :   1.0544 B( 22-C , 23-H ) :   0.9237
B( 22-C , 24-H ) :   0.9307 B( 22-C , 25-C ) :   1.0708 B( 25-C , 26-H ) :   0.9577
B( 25-C , 27-H ) :   0.9541 B( 25-C , 28-C ) :   1.0710 B( 28-C , 29-H ) :   0.9724
B( 28-C , 30-H ) :   0.9764 B( 28-C , 31-H ) :   0.9736

Dispersion correction           -0.015761292
FINAL SINGLE POINT ENERGY     -1339.870559387223

DIPOLE MOMENT
-------------
                                X             Y             Z
Electronic contribution:    -18.70434     -13.38408     -14.47760
Nuclear contribution   :     18.82834      13.53279      15.09887
                        -----------------------------------------
Total Dipole Moment    :      0.12399       0.14871       0.62127
                        -----------------------------------------
Magnitude (a.u.)       :      0.65074
Magnitude (Debye)      :      1.65404

Rotational constants in cm-1:     0.020582     0.009329     0.007710
Rotational constants in MHz :   617.039225   279.677907   231.134739

                             ****ORCA TERMINATED NORMALLY****
TOTAL RUN TIME: 0 days 0 hours 0 minutes 37 seconds 679 msec
