                         Program Version 4.2.1 -  RELEASE  -
|  1> ! wB97X-D3 SP def2-SVP
|  2> %pal
|  3> nprocs 16
|  4> end
|  5>
|  6> * xyz 0 1
|  7> S 	 35.2433 	 23.9653 	 45.5629
|  8> C 	 35.7774 	 25.2059 	 46.6058
|  9> C 	 36.5009 	 24.7537 	 47.7048
| 10> C 	 36.783 	 23.3993 	 47.5185
| 11> C 	 36.0258 	 22.7371 	 46.5328
| 12> H 	 37.3527 	 22.7844 	 48.1766
| 13> C 	 36.9163 	 25.5528 	 48.846
| 14> H 	 37.2439 	 26.5343 	 48.4771
| 15> H 	 37.8452 	 25.1197 	 49.167
| 16> C 	 36.0019 	 25.8451 	 50.02
| 17> H 	 35.1853 	 26.3737 	 49.5719
| 18> H 	 35.7326 	 24.8862 	 50.3901
| 19> C 	 36.6043 	 26.7252 	 51.2168
| 20> H 	 35.7932 	 27.3317 	 51.5713
| 21> H 	 36.9808 	 26.1496 	 52.0225
| 22> H 	 37.4306 	 27.2838 	 50.7914
| 23> S 	 35.8769 	 20.4813 	 44.8558
| 24> C 	 35.136 	 19.0144 	 45.4929
| 25> C 	 35.2313 	 18.9767 	 46.8696
| 26> C 	 35.6494 	 20.2513 	 47.3668
| 27> C 	 35.8339 	 21.2771 	 46.4192
| 28> H 	 35.1106 	 17.9895 	 47.3529
| 29> C 	 35.9007 	 20.3482 	 48.8395
| 30> H 	 34.9614 	 19.8485 	 49.2139
| 31> H 	 35.8473 	 21.3875 	 49.0484
| 32> C 	 37.1916 	 19.8133 	 49.3977
| 33> H 	 38.0867 	 20.1364 	 48.765
| 34> H 	 37.1612 	 18.8148 	 49.2406
| 35> C 	 37.3688 	 20.2208 	 50.8612
| 36> H 	 38.3174 	 19.6632 	 51.031
| 37> H 	 36.567 	 19.9818 	 51.5276
| 38> H 	 37.5328 	 21.3203 	 50.9294
| 39> H 	 35.532 	 26.2646 	 46.6343
| 40> H 	 35.0436 	 18.1286 	 44.9203
| 41> *
| 42>
| 43>                          ****END OF INPUT****

CARTESIAN COORDINATES (ANGSTROEM)
---------------------------------
  S     35.243300   23.965300   45.562900
  C     35.777400   25.205900   46.605800
  C     36.500900   24.753700   47.704800
  C     36.783000   23.399300   47.518500
  C     36.025800   22.737100   46.532800
  H     37.352700   22.784400   48.176600
  C     36.916300   25.552800   48.846000
  H     37.243900   26.534300   48.477100
  H     37.845200   25.119700   49.167000
  C     36.001900   25.845100   50.020000
  H     35.185300   26.373700   49.571900
  H     35.732600   24.886200   50.390100
  C     36.604300   26.725200   51.216800
  H     35.793200   27.331700   51.571300
  H     36.980800   26.149600   52.022500
  H     37.430600   27.283800   50.791400
  S     35.876900   20.481300   44.855800
  C     35.136000   19.014400   45.492900
  C     35.231300   18.976700   46.869600
  C     35.649400   20.251300   47.366800
  C     35.833900   21.277100   46.419200
  H     35.110600   17.989500   47.352900
  C     35.900700   20.348200   48.839500
  H     34.961400   19.848500   49.213900
  H     35.847300   21.387500   49.048400
  C     37.191600   19.813300   49.397700
  H     38.086700   20.136400   48.765000
  H     37.161200   18.814800   49.240600
  C     37.368800   20.220800   50.861200
  H     38.317400   19.663200   51.031000
  H     36.567000   19.981800   51.527600
  H     37.532800   21.320300   50.929400
  H     35.532000   26.264600   46.634300
  H     35.043600   18.128600   44.920300

 Total Charge           Charge          ....    0
 Multiplicity           Mult            ....    1
 Number of Electrons    NEL             ....  134
 Basis Dimension        Dim             ....  322

ORBITAL ENERGIES
----------------

  NO   OCC          E(Eh)            E(eV)
   0   2.0000     -88.972914     -2421.0761
   1   2.0000     -88.961316     -2420.7605
   2   2.0000     -10.333509      -281.1891
   3   2.0000     -10.331839      -281.1436
   4   2.0000     -10.315113      -280.6885
   5   2.0000     -10.310693      -280.5682
   6   2.0000     -10.303458      -280.3714
   7   2.0000     -10.296387      -280.1789
   8   2.0000     -10.294663      -280.1320
   9   2.0000     -10.291105      -280.0352
  10   2.0000     -10.285968      -279.8954
  11   2.0000     -10.285282      -279.8767
  12   2.0000     -10.283980      -279.8413
  13   2.0000     -10.283620      -279.8315
  14   2.0000     -10.281118      -279.7635
  15   2.0000     -10.280422      -279.7445
  16   2.0000      -8.087672      -220.0768
  17   2.0000      -8.076064      -219.7609
  18   2.0000      -6.046151      -164.5241
  19   2.0000      -6.042029      -164.4120
  20   2.0000      -6.038594      -164.3185
  21   2.0000      -6.034583      -164.2094
  22   2.0000      -6.030804      -164.1065
  23   2.0000      -6.026564      -163.9912
  24   2.0000      -1.008564       -27.4444
  25   2.0000      -0.988547       -26.8997
  26   2.0000      -0.918050       -24.9814
  27   2.0000      -0.915037       -24.8994
  28   2.0000      -0.868550       -23.6344
  29   2.0000      -0.855786       -23.2871
  30   2.0000      -0.849921       -23.1275
  31   2.0000      -0.817054       -22.2332
  32   2.0000      -0.785744       -21.3812
  33   2.0000      -0.769468       -20.9383
  34   2.0000      -0.711144       -19.3512
  35   2.0000      -0.708116       -19.2688
  36   2.0000      -0.698865       -19.0171
  37   2.0000      -0.661146       -17.9907
  38   2.0000      -0.638827       -17.3834
  39   2.0000      -0.622876       -16.9493
  40   2.0000      -0.593758       -16.1570
  41   2.0000      -0.578379       -15.7385
  42   2.0000      -0.570431       -15.5222
  43   2.0000      -0.564151       -15.3513
  44   2.0000      -0.536559       -14.6005
  45   2.0000      -0.526648       -14.3308
  46   2.0000      -0.524710       -14.2781
  47   2.0000      -0.512616       -13.9490
  48   2.0000      -0.502295       -13.6682
  49   2.0000      -0.501544       -13.6477
  50   2.0000      -0.494191       -13.4476
  51   2.0000      -0.483190       -13.1483
  52   2.0000      -0.471432       -12.8283
  53   2.0000      -0.467984       -12.7345
  54   2.0000      -0.464746       -12.6464
  55   2.0000      -0.449572       -12.2335
  56   2.0000      -0.444861       -12.1053
  57   2.0000      -0.439352       -11.9554
  58   2.0000      -0.436232       -11.8705
  59   2.0000      -0.422403       -11.4942
  60   2.0000      -0.421712       -11.4754
  61   2.0000      -0.419147       -11.4056
  62   2.0000      -0.405500       -11.0342
  63   2.0000      -0.346957        -9.4412
  64   2.0000      -0.332984        -9.0609
  65   2.0000      -0.322927        -8.7873
  66   2.0000      -0.286095        -7.7851
  67   0.0000       0.019910         0.5418
  68   0.0000       0.068978         1.8770
  69   0.0000       0.101825         2.7708
  70   0.0000       0.121245         3.2992
  71   0.0000       0.126075         3.4307

MULLIKEN ATOMIC CHARGES
-----------------------
   0 S :    0.150510
   1 C :   -0.092819
   2 C :   -0.116133
   3 C :    0.045400
   4 C :   -0.155792
   5 H :   -0.010862
   6 C :    0.051892
   7 H :    0.010044
   8 H :    0.006420
   9 C :   -0.033932
  10 H :    0.020302
  11 H :    0.020611
  12 C :   -0.028983
  13 H :    0.040467
  14 H :    0.031628
  15 H :    0.029545
  16 S :    0.085029
  17 C :   -0.074987
  18 C :   -0.053337
  19 C :   -0.064512
  20 C :   -0.139519
  21 H :    0.041806
  22 C :    0.043666
  23 H :    0.034123
  24 H :   -0.005021
  25 C :   -0.034210
  26 H :    0.036939
  27 H :   -0.007439
  28 C :   -0.037397
  29 H :    0.044254
  30 H :    0.038192
  31 H :    0.035548
  32 H :    0.040166
  33 H :    0.048403
Sum of atomic charges:    0.0000000

LOEWDIN ATOMIC CHARGES
----------------------
   0 S :    0.442869
   1 C :   -0.210998
   2 C :   -0.069954
   3 C :   -0.054857
   4 C :   -0.201828
   5 H :    0.021365
   6 C :   -0.042510
   7 H :    0.029143
   8 H :    0.026338
   9 C :   -0.026599
  10 H :    0.020724
  11 H :    0.017961
  12 C :   -0.054082
  13 H :    0.029064
  14 H :    0.022002
  15 H :    0.025190
  16 S :    0.390764
  17 C :   -0.171178
  18 C :   -0.078421
  19 C :   -0.052578
  20 C :   -0.202096
  21 H :    0.042754
  22 C :   -0.042100
  23 H :    0.037973
  24 H :    0.016569
  25 C :   -0.036959
  26 H :    0.035221
  27 H :    0.006081
  28 C :   -0.060107
  29 H :    0.037116
  30 H :    0.022981
  31 H :    0.028287
  32 H :    0.031253
  33 H :    0.020615

  Mayer bond orders larger than 0.100000
B(  0-S ,  1-C ) :   1.1653 B(  0-S ,  4-C ) :   1.1594 B(  1-C ,  2-C ) :   1.5715
B(  1-C ,  4-C ) :   0.1013 B(  1-C , 32-H ) :   0.9585 B(  2-C ,  3-C ) :   1.2859
B(  2-C ,  6-C ) :   1.0443 B(  3-C ,  4-C ) :   1.5183 B(  3-C ,  5-H ) :   0.9948
B(  4-C , 20-C ) :   1.0683 B(  6-C ,  7-H ) :   0.9216 B(  6-C ,  8-H ) :   0.9303
B(  6-C ,  9-C ) :   1.0671 B(  9-C , 10-H ) :   0.9573 B(  9-C , 11-H ) :   0.9574
B(  9-C , 12-C ) :   1.0653 B( 12-C , 13-H ) :   0.9786 B( 12-C , 14-H ) :   0.9784
B( 12-C , 15-H ) :   0.9797 B( 16-S , 17-C ) :   1.1637 B( 16-S , 20-C ) :   1.1280
B( 17-C , 18-C ) :   1.5961 B( 17-C , 33-H ) :   0.9657 B( 18-C , 19-C ) :   1.2528
B( 18-C , 21-H ) :   0.9865 B( 19-C , 20-C ) :   1.5575 B( 19-C , 22-C ) :   1.0449
B( 22-C , 23-H ) :   0.9298 B( 22-C , 24-H ) :   0.9300 B( 22-C , 25-C ) :   1.0638
B( 25-C , 26-H ) :   0.9484 B( 25-C , 27-H ) :   0.9468 B( 25-C , 28-C ) :   1.0738
B( 28-C , 29-H ) :   0.9748 B( 28-C , 30-H ) :   0.9756 B( 28-C , 31-H ) :   0.9750

Dispersion correction           -0.014063016
FINAL SINGLE POINT ENERGY     -1339.838544876102

DIPOLE MOMENT
-------------
                                X             Y             Z
Electronic contribution:     -7.82563      -6.37046     -31.63109
Nuclear contribution   :      8.02737       6.26893      32.43551
                        -----------------------------------------
Total Dipole Moment    :      0.20174      -0.10153       0.80442
                        -----------------------------------------
Magnitude (a.u.)       :      0.83552
Magnitude (Debye)      :      2.12373

Rotational constants in cm-1:     0.017864     0.009027     0.006284
Rotational constants in MHz :   535.560755   270.609398   188.382338

                             ****ORCA TERMINATED NORMALLY****
TOTAL RUN TIME: 0 days 0 hours 0 minutes 35 seconds 395 msec
