                         Program Version 4.2.1 -  RELEASE  -
|  1> ! wB97X-D3 SP def2-SVP
|  2> %pal
|  3> nprocs 16
|  4> end
|  5>
|  6> * xyz 0 1
|  7> S 	 -35.6772 	 51.7936 	 113.739
|  8> C 	 -36.0491 	 53.2879 	 112.872
|  9> C 	 -36.4243 	 54.3274 	 113.693
| 10> C 	 -36.3945 	 53.8871 	 115.041
| 11> C 	 -36.065 	 52.5784 	 115.256
| 12> H 	 -36.6673 	 54.4902 	 115.918
| 13> C 	 -37.0125 	 55.7034 	 113.312
| 14> H 	 -37.321 	 55.7384 	 112.233
| 15> H 	 -36.1516 	 56.3515 	 113.372
| 16> C 	 -38.3076 	 56.1347 	 114.148
| 17> H 	 -38.1698 	 56.0748 	 115.285
| 18> H 	 -38.4727 	 57.2157 	 113.857
| 19> C 	 -39.4168 	 55.3041 	 113.571
| 20> H 	 -40.4366 	 55.3672 	 113.953
| 21> H 	 -39.375 	 55.2406 	 112.521
| 22> H 	 -39.2127 	 54.2997 	 113.728
| 23> S 	 -34.5615 	 51.0509 	 116.882
| 24> C 	 -35.3081 	 50.4183 	 118.339
| 25> C 	 -36.3585 	 51.1727 	 118.813
| 26> C 	 -36.7318 	 52.1172 	 117.769
| 27> C 	 -35.9848 	 51.9452 	 116.57
| 28> H 	 -36.9038 	 50.9589 	 119.733
| 29> C 	 -38.0686 	 52.8706 	 117.942
| 30> H 	 -38.8111 	 52.2542 	 118.527
| 31> H 	 -38.5033 	 52.9835 	 116.906
| 32> C 	 -38.0288 	 54.2892 	 118.496
| 33> H 	 -37.1786 	 54.9466 	 118.192
| 34> H 	 -37.8607 	 54.2418 	 119.607
| 35> C 	 -39.3027 	 55.0265 	 118.244
| 36> H 	 -40.1656 	 54.5119 	 118.693
| 37> H 	 -39.5115 	 55.2268 	 117.19
| 38> H 	 -39.1401 	 55.9829 	 118.726
| 39> H 	 -35.9994 	 53.4661 	 111.812
| 40> H 	 -34.8898 	 49.623 	 118.901
| 41> *
| 42>
| 43>                          ****END OF INPUT****

CARTESIAN COORDINATES (ANGSTROEM)
---------------------------------
  S    -35.677200   51.793600  113.739000
  C    -36.049100   53.287900  112.872000
  C    -36.424300   54.327400  113.693000
  C    -36.394500   53.887100  115.041000
  C    -36.065000   52.578400  115.256000
  H    -36.667300   54.490200  115.918000
  C    -37.012500   55.703400  113.312000
  H    -37.321000   55.738400  112.233000
  H    -36.151600   56.351500  113.372000
  C    -38.307600   56.134700  114.148000
  H    -38.169800   56.074800  115.285000
  H    -38.472700   57.215700  113.857000
  C    -39.416800   55.304100  113.571000
  H    -40.436600   55.367200  113.953000
  H    -39.375000   55.240600  112.521000
  H    -39.212700   54.299700  113.728000
  S    -34.561500   51.050900  116.882000
  C    -35.308100   50.418300  118.339000
  C    -36.358500   51.172700  118.813000
  C    -36.731800   52.117200  117.769000
  C    -35.984800   51.945200  116.570000
  H    -36.903800   50.958900  119.733000
  C    -38.068600   52.870600  117.942000
  H    -38.811100   52.254200  118.527000
  H    -38.503300   52.983500  116.906000
  C    -38.028800   54.289200  118.496000
  H    -37.178600   54.946600  118.192000
  H    -37.860700   54.241800  119.607000
  C    -39.302700   55.026500  118.244000
  H    -40.165600   54.511900  118.693000
  H    -39.511500   55.226800  117.190000
  H    -39.140100   55.982900  118.726000
  H    -35.999400   53.466100  111.812000
  H    -34.889800   49.623000  118.901000

 Total Charge           Charge          ....    0
 Multiplicity           Mult            ....    1
 Number of Electrons    NEL             ....  134
 Basis Dimension        Dim             ....  322

ORBITAL ENERGIES
----------------

  NO   OCC          E(Eh)            E(eV)
   0   2.0000     -88.970473     -2421.0096
   1   2.0000     -88.964304     -2420.8418
   2   2.0000     -10.327156      -281.0162
   3   2.0000     -10.326701      -281.0038
   4   2.0000     -10.314597      -280.6745
   5   2.0000     -10.312264      -280.6110
   6   2.0000     -10.309046      -280.5234
   7   2.0000     -10.306529      -280.4549
   8   2.0000     -10.304853      -280.4093
   9   2.0000     -10.301693      -280.3233
  10   2.0000     -10.298264      -280.2300
  11   2.0000     -10.297638      -280.2130
  12   2.0000     -10.289900      -280.0024
  13   2.0000     -10.289808      -279.9999
  14   2.0000     -10.277631      -279.6686
  15   2.0000     -10.266561      -279.3673
  16   2.0000      -8.084518      -219.9909
  17   2.0000      -8.080007      -219.8682
  18   2.0000      -6.043154      -164.4426
  19   2.0000      -6.039197      -164.3349
  20   2.0000      -6.038366      -164.3123
  21   2.0000      -6.035114      -164.2238
  22   2.0000      -6.034678      -164.2119
  23   2.0000      -6.030560      -164.0999
  24   2.0000      -1.008278       -27.4366
  25   2.0000      -0.984674       -26.7943
  26   2.0000      -0.912924       -24.8419
  27   2.0000      -0.910085       -24.7647
  28   2.0000      -0.871820       -23.7234
  29   2.0000      -0.852339       -23.1933
  30   2.0000      -0.847131       -23.0516
  31   2.0000      -0.813649       -22.1405
  32   2.0000      -0.782252       -21.2862
  33   2.0000      -0.768691       -20.9172
  34   2.0000      -0.710578       -19.3358
  35   2.0000      -0.697934       -18.9918
  36   2.0000      -0.688029       -18.7222
  37   2.0000      -0.662782       -18.0352
  38   2.0000      -0.636900       -17.3309
  39   2.0000      -0.622531       -16.9399
  40   2.0000      -0.596028       -16.2188
  41   2.0000      -0.567943       -15.4545
  42   2.0000      -0.563493       -15.3334
  43   2.0000      -0.559597       -15.2274
  44   2.0000      -0.534486       -14.5441
  45   2.0000      -0.525132       -14.2896
  46   2.0000      -0.516037       -14.0421
  47   2.0000      -0.506151       -13.7731
  48   2.0000      -0.498866       -13.5748
  49   2.0000      -0.495467       -13.4823
  50   2.0000      -0.487876       -13.2758
  51   2.0000      -0.484205       -13.1759
  52   2.0000      -0.476643       -12.9701
  53   2.0000      -0.470304       -12.7976
  54   2.0000      -0.454830       -12.3766
  55   2.0000      -0.449959       -12.2440
  56   2.0000      -0.446009       -12.1365
  57   2.0000      -0.441498       -12.0138
  58   2.0000      -0.436852       -11.8874
  59   2.0000      -0.432317       -11.7639
  60   2.0000      -0.416268       -11.3272
  61   2.0000      -0.411993       -11.2109
  62   2.0000      -0.408889       -11.1264
  63   2.0000      -0.348869        -9.4932
  64   2.0000      -0.332904        -9.0588
  65   2.0000      -0.328371        -8.9354
  66   2.0000      -0.287379        -7.8200
  67   0.0000       0.023430         0.6376
  68   0.0000       0.078039         2.1236
  69   0.0000       0.102855         2.7988
  70   0.0000       0.116709         3.1758
  71   0.0000       0.119101         3.2409

MULLIKEN ATOMIC CHARGES
-----------------------
   0 S :    0.122816
   1 C :   -0.116320
   2 C :   -0.078260
   3 C :    0.010859
   4 C :   -0.135901
   5 H :   -0.008256
   6 C :    0.028231
   7 H :    0.030375
   8 H :    0.042487
   9 C :   -0.097804
  10 H :    0.054522
  11 H :    0.045063
  12 C :    0.017406
  13 H :    0.037941
  14 H :    0.003233
  15 H :    0.002481
  16 S :    0.107771
  17 C :   -0.076279
  18 C :   -0.027967
  19 C :   -0.011456
  20 C :   -0.147174
  21 H :    0.032533
  22 C :   -0.005195
  23 H :    0.038787
  24 H :    0.033151
  25 C :   -0.107649
  26 H :    0.041263
  27 H :    0.026587
  28 C :   -0.036416
  29 H :    0.033823
  30 H :    0.033847
  31 H :    0.031002
  32 H :    0.035268
  33 H :    0.039233
Sum of atomic charges:   -0.0000000

LOEWDIN ATOMIC CHARGES
----------------------
   0 S :    0.400152
   1 C :   -0.191896
   2 C :   -0.067417
   3 C :   -0.064450
   4 C :   -0.200454
   5 H :    0.029974
   6 C :   -0.027843
   7 H :    0.034089
   8 H :    0.030848
   9 C :   -0.039291
  10 H :    0.030725
  11 H :    0.031830
  12 C :   -0.072297
  13 H :    0.028150
  14 H :    0.023553
  15 H :    0.022954
  16 S :    0.414979
  17 C :   -0.173772
  18 C :   -0.064746
  19 C :   -0.055457
  20 C :   -0.205380
  21 H :    0.037856
  22 C :   -0.043452
  23 H :    0.035067
  24 H :    0.033400
  25 C :   -0.055793
  26 H :    0.025969
  27 H :    0.026642
  28 C :   -0.064554
  29 H :    0.027285
  30 H :    0.021941
  31 H :    0.028744
  32 H :    0.025853
  33 H :    0.016789

  Mayer bond orders larger than 0.100000
B(  0-S ,  1-C ) :   1.1312 B(  0-S ,  4-C ) :   1.1324 B(  1-C ,  2-C ) :   1.6335
B(  1-C , 32-H ) :   0.9612 B(  2-C ,  3-C ) :   1.2357 B(  2-C ,  6-C ) :   0.9986
B(  3-C ,  4-C ) :   1.5911 B(  3-C ,  5-H ) :   0.9871 B(  4-C , 20-C ) :   1.0498
B(  6-C ,  7-H ) :   0.9519 B(  6-C ,  8-H ) :   0.9352 B(  6-C ,  9-C ) :   1.0577
B(  9-C , 10-H ) :   0.9517 B(  9-C , 11-H ) :   0.9542 B(  9-C , 12-C ) :   1.0624
B( 12-C , 13-H ) :   0.9719 B( 12-C , 14-H ) :   0.9625 B( 12-C , 15-H ) :   0.9621
B( 16-S , 17-C ) :   1.1441 B( 16-S , 20-C ) :   1.1558 B( 17-C , 18-C ) :   1.6250
B( 17-C , 33-H ) :   0.9730 B( 18-C , 19-C ) :   1.2190 B( 18-C , 21-H ) :   0.9912
B( 19-C , 20-C ) :   1.5830 B( 19-C , 22-C ) :   1.0350 B( 22-C , 23-H ) :   0.9446
B( 22-C , 24-H ) :   0.9473 B( 22-C , 25-C ) :   1.0485 B( 25-C , 26-H ) :   0.9512
B( 25-C , 27-H ) :   0.9448 B( 25-C , 28-C ) :   1.0953 B( 28-C , 29-H ) :   0.9693
B( 28-C , 30-H ) :   0.9682 B( 28-C , 31-H ) :   0.9708

Dispersion correction           -0.015721322
FINAL SINGLE POINT ENERGY     -1339.858984910972

DIPOLE MOMENT
-------------
                                X             Y             Z
Electronic contribution:     22.91084     -22.47357      -3.77383
Nuclear contribution   :    -23.37856      22.92720       3.96230
                        -----------------------------------------
Total Dipole Moment    :     -0.46772       0.45363       0.18847
                        -----------------------------------------
Magnitude (a.u.)       :      0.67828
Magnitude (Debye)      :      1.72404

Rotational constants in cm-1:     0.017124     0.011146     0.007215
Rotational constants in MHz :   513.360853   334.137137   216.303133

                             ****ORCA TERMINATED NORMALLY****
TOTAL RUN TIME: 0 days 0 hours 0 minutes 32 seconds 959 msec
