                         Program Version 4.2.1 -  RELEASE  -
|  1> ! wB97X-D3 SP def2-SVP
|  2> %pal
|  3> nprocs 16
|  4> end
|  5>
|  6> * xyz 0 1
|  7> S 	 -43.2728 	 -2.02089 	 96.9449
|  8> C 	 -42.7168 	 -3.7672 	 96.8997
|  9> C 	 -41.3534 	 -3.89724 	 97.155
| 10> C 	 -40.7707 	 -2.61948 	 97.4469
| 11> C 	 -41.6058 	 -1.53406 	 97.3899
| 12> H 	 -39.7893 	 -2.38046 	 97.8456
| 13> C 	 -40.5767 	 -5.21829 	 97.2623
| 14> H 	 -41.2352 	 -5.97372 	 96.8711
| 15> H 	 -40.4636 	 -5.30926 	 98.3986
| 16> C 	 -39.2702 	 -5.27348 	 96.51
| 17> H 	 -38.5416 	 -4.49041 	 96.856
| 18> H 	 -38.7561 	 -6.19661 	 96.8144
| 19> C 	 -39.3807 	 -5.14738 	 95.016
| 20> H 	 -39.6949 	 -6.16638 	 94.6454
| 21> H 	 -39.9444 	 -4.33113 	 94.5832
| 22> H 	 -38.4046 	 -5.09242 	 94.5518
| 23> S 	 -42.251 	 0.535429 	 99.1588
| 24> C 	 -41.0678 	 1.81184 	 99.2668
| 25> C 	 -40.0187 	 1.80898 	 98.3461
| 26> C 	 -40.1313 	 0.650923 	 97.4884
| 27> C 	 -41.2063 	 -0.206884 	 97.8593
| 28> H 	 -39.1117 	 2.4554 	 98.1643
| 29> C 	 -39.0431 	 0.327255 	 96.4893
| 30> H 	 -39.1307 	 1.03032 	 95.7063
| 31> H 	 -39.3625 	 -0.596421 	 95.9275
| 32> C 	 -37.6671 	 0.12349 	 97.0753
| 33> H 	 -37.6227 	 -0.764184 	 97.7834
| 34> H 	 -37.3777 	 0.973063 	 97.691
| 35> C 	 -36.6727 	 -0.350471 	 96.0895
| 36> H 	 -35.8273 	 -0.752538 	 96.6113
| 37> H 	 -36.3521 	 0.468877 	 95.5442
| 38> H 	 -37.0763 	 -1.04332 	 95.4492
| 39> H 	 -43.3581 	 -4.55036 	 96.501
| 40> H 	 -41.1403 	 2.62305 	 99.9603
| 41> *
| 42>
| 43>                          ****END OF INPUT****

CARTESIAN COORDINATES (ANGSTROEM)
---------------------------------
  S    -43.272800   -2.020890   96.944900
  C    -42.716800   -3.767200   96.899700
  C    -41.353400   -3.897240   97.155000
  C    -40.770700   -2.619480   97.446900
  C    -41.605800   -1.534060   97.389900
  H    -39.789300   -2.380460   97.845600
  C    -40.576700   -5.218290   97.262300
  H    -41.235200   -5.973720   96.871100
  H    -40.463600   -5.309260   98.398600
  C    -39.270200   -5.273480   96.510000
  H    -38.541600   -4.490410   96.856000
  H    -38.756100   -6.196610   96.814400
  C    -39.380700   -5.147380   95.016000
  H    -39.694900   -6.166380   94.645400
  H    -39.944400   -4.331130   94.583200
  H    -38.404600   -5.092420   94.551800
  S    -42.251000    0.535429   99.158800
  C    -41.067800    1.811840   99.266800
  C    -40.018700    1.808980   98.346100
  C    -40.131300    0.650923   97.488400
  C    -41.206300   -0.206884   97.859300
  H    -39.111700    2.455400   98.164300
  C    -39.043100    0.327255   96.489300
  H    -39.130700    1.030320   95.706300
  H    -39.362500   -0.596421   95.927500
  C    -37.667100    0.123490   97.075300
  H    -37.622700   -0.764184   97.783400
  H    -37.377700    0.973063   97.691000
  C    -36.672700   -0.350471   96.089500
  H    -35.827300   -0.752538   96.611300
  H    -36.352100    0.468877   95.544200
  H    -37.076300   -1.043320   95.449200
  H    -43.358100   -4.550360   96.501000
  H    -41.140300    2.623050   99.960300

 Total Charge           Charge          ....    0
 Multiplicity           Mult            ....    1
 Number of Electrons    NEL             ....  134
 Basis Dimension        Dim             ....  322

ORBITAL ENERGIES
----------------

  NO   OCC          E(Eh)            E(eV)
   0   2.0000     -88.969930     -2420.9949
   1   2.0000     -88.964922     -2420.8586
   2   2.0000     -10.332543      -281.1628
   3   2.0000     -10.329899      -281.0908
   4   2.0000     -10.320768      -280.8424
   5   2.0000     -10.320686      -280.8402
   6   2.0000     -10.306880      -280.4645
   7   2.0000     -10.306722      -280.4602
   8   2.0000     -10.301629      -280.3216
   9   2.0000     -10.300080      -280.2794
  10   2.0000     -10.291654      -280.0501
  11   2.0000     -10.291247      -280.0391
  12   2.0000     -10.289993      -280.0049
  13   2.0000     -10.287884      -279.9476
  14   2.0000     -10.279337      -279.7150
  15   2.0000     -10.262567      -279.2586
  16   2.0000      -8.083547      -219.9645
  17   2.0000      -8.077816      -219.8086
  18   2.0000      -6.042009      -164.4114
  19   2.0000      -6.038420      -164.3138
  20   2.0000      -6.036543      -164.2627
  21   2.0000      -6.034220      -164.1995
  22   2.0000      -6.032773      -164.1601
  23   2.0000      -6.028269      -164.0375
  24   2.0000      -0.993242       -27.0275
  25   2.0000      -0.971375       -26.4325
  26   2.0000      -0.920521       -25.0486
  27   2.0000      -0.913918       -24.8690
  28   2.0000      -0.864605       -23.5271
  29   2.0000      -0.859887       -23.3987
  30   2.0000      -0.840386       -22.8681
  31   2.0000      -0.810628       -22.0583
  32   2.0000      -0.787094       -21.4179
  33   2.0000      -0.771526       -20.9943
  34   2.0000      -0.706908       -19.2360
  35   2.0000      -0.699600       -19.0371
  36   2.0000      -0.692963       -18.8565
  37   2.0000      -0.656837       -17.8734
  38   2.0000      -0.638610       -17.3775
  39   2.0000      -0.613459       -16.6931
  40   2.0000      -0.598645       -16.2900
  41   2.0000      -0.571237       -15.5441
  42   2.0000      -0.559103       -15.2140
  43   2.0000      -0.555361       -15.1121
  44   2.0000      -0.542600       -14.7649
  45   2.0000      -0.537892       -14.6368
  46   2.0000      -0.515953       -14.0398
  47   2.0000      -0.513715       -13.9789
  48   2.0000      -0.501799       -13.6546
  49   2.0000      -0.491373       -13.3709
  50   2.0000      -0.488507       -13.2930
  51   2.0000      -0.481838       -13.1115
  52   2.0000      -0.468889       -12.7591
  53   2.0000      -0.466715       -12.7000
  54   2.0000      -0.459866       -12.5136
  55   2.0000      -0.452026       -12.3002
  56   2.0000      -0.445105       -12.1119
  57   2.0000      -0.438839       -11.9414
  58   2.0000      -0.432574       -11.7709
  59   2.0000      -0.428198       -11.6519
  60   2.0000      -0.419926       -11.4268
  61   2.0000      -0.409043       -11.1306
  62   2.0000      -0.403721       -10.9858
  63   2.0000      -0.342580        -9.3221
  64   2.0000      -0.333916        -9.0863
  65   2.0000      -0.328921        -8.9504
  66   2.0000      -0.287361        -7.8195
  67   0.0000       0.028412         0.7731
  68   0.0000       0.061973         1.6864
  69   0.0000       0.100740         2.7413
  70   0.0000       0.115932         3.1547
  71   0.0000       0.122840         3.3427

MULLIKEN ATOMIC CHARGES
-----------------------
   0 S :    0.083264
   1 C :   -0.142850
   2 C :   -0.086111
   3 C :    0.015884
   4 C :   -0.143460
   5 H :    0.014298
   6 C :    0.088409
   7 H :    0.011374
   8 H :    0.063528
   9 C :   -0.086496
  10 H :    0.028143
  11 H :    0.031597
  12 C :   -0.049713
  13 H :    0.026001
  14 H :    0.055034
  15 H :    0.023246
  16 S :    0.112778
  17 C :   -0.067432
  18 C :   -0.045781
  19 C :   -0.048780
  20 C :   -0.176176
  21 H :    0.044734
  22 C :    0.061058
  23 H :    0.021110
  24 H :    0.022626
  25 C :   -0.108692
  26 H :    0.030464
  27 H :    0.024782
  28 C :    0.050684
  29 H :    0.025311
  30 H :    0.006486
  31 H :    0.009348
  32 H :    0.056212
  33 H :    0.049122
Sum of atomic charges:    0.0000000

LOEWDIN ATOMIC CHARGES
----------------------
   0 S :    0.342830
   1 C :   -0.176286
   2 C :   -0.060537
   3 C :   -0.066249
   4 C :   -0.180331
   5 H :    0.031403
   6 C :   -0.029174
   7 H :    0.026519
   8 H :    0.049603
   9 C :   -0.052516
  10 H :    0.024624
  11 H :    0.029812
  12 C :   -0.070439
  13 H :    0.031127
  14 H :    0.029532
  15 H :    0.026882
  16 S :    0.384460
  17 C :   -0.176267
  18 C :   -0.079253
  19 C :   -0.045401
  20 C :   -0.180267
  21 H :    0.044631
  22 C :   -0.040396
  23 H :    0.027194
  24 H :    0.036658
  25 C :   -0.043029
  26 H :    0.031638
  27 H :    0.020128
  28 C :   -0.045872
  29 H :    0.027555
  30 H :    0.015675
  31 H :    0.016587
  32 H :    0.027506
  33 H :    0.021654

  Mayer bond orders larger than 0.100000
B(  0-S ,  1-C ) :   1.1071 B(  0-S ,  4-C ) :   1.1187 B(  1-C ,  2-C ) :   1.6421
B(  1-C , 32-H ) :   0.9628 B(  2-C ,  3-C ) :   1.1923 B(  2-C ,  6-C ) :   1.0126
B(  3-C ,  4-C ) :   1.6184 B(  3-C ,  5-H ) :   0.9863 B(  4-C , 20-C ) :   1.0565
B(  6-C ,  7-H ) :   0.9373 B(  6-C ,  8-H ) :   0.9371 B(  6-C ,  9-C ) :   1.0745
B(  9-C , 10-H ) :   0.9525 B(  9-C , 11-H ) :   0.9524 B(  9-C , 12-C ) :   1.0795
B( 12-C , 13-H ) :   0.9710 B( 12-C , 14-H ) :   0.9751 B( 12-C , 15-H ) :   0.9692
B( 16-S , 17-C ) :   1.1599 B( 16-S , 20-C ) :   1.1110 B( 17-C , 18-C ) :   1.6066
B( 17-C , 33-H ) :   0.9647 B( 18-C , 19-C ) :   1.2401 B( 18-C , 21-H ) :   0.9758
B( 19-C , 20-C ) :   1.6074 B( 19-C , 22-C ) :   1.0488 B( 22-C , 23-H ) :   0.9244
B( 22-C , 24-H ) :   0.9268 B( 22-C , 25-C ) :   1.0602 B( 25-C , 26-H ) :   0.9575
B( 25-C , 27-H ) :   0.9528 B( 25-C , 28-C ) :   1.0855 B( 28-C , 29-H ) :   0.9744
B( 28-C , 30-H ) :   0.9675 B( 28-C , 31-H ) :   0.9680

Dispersion correction           -0.014601531
FINAL SINGLE POINT ENERGY     -1339.859021344530

DIPOLE MOMENT
-------------
                                X             Y             Z
Electronic contribution:    -27.03623      12.59149      11.59703
Nuclear contribution   :     27.88988     -12.85660     -11.75125
                        -----------------------------------------
Total Dipole Moment    :      0.85365      -0.26510      -0.15422
                        -----------------------------------------
Magnitude (a.u.)       :      0.90707
Magnitude (Debye)      :      2.30559

Rotational constants in cm-1:     0.016217     0.010324     0.006878
Rotational constants in MHz :   486.160270   309.514718   206.202058

                             ****ORCA TERMINATED NORMALLY****
TOTAL RUN TIME: 0 days 0 hours 0 minutes 31 seconds 511 msec
