                         Program Version 4.2.1 -  RELEASE  -
|  1> ! wB97X-D3 SP def2-SVP
|  2> %pal
|  3> nprocs 16
|  4> end
|  5>
|  6> * xyz 0 1
|  7> S 	 -57.3277 	 49.9574 	 133.153
|  8> C 	 -55.9777 	 49.0627 	 132.521
|  9> C 	 -55.4185 	 48.1695 	 133.446
| 10> C 	 -55.8891 	 48.4243 	 134.722
| 11> C 	 -56.8034 	 49.4005 	 134.737
| 12> H 	 -55.7297 	 47.7626 	 135.665
| 13> C 	 -54.2296 	 47.2345 	 133.168
| 14> H 	 -53.8632 	 47.5227 	 132.086
| 15> H 	 -54.7295 	 46.2249 	 133.104
| 16> C 	 -53.0003 	 47.2313 	 134.047
| 17> H 	 -52.6059 	 48.2476 	 134.028
| 18> H 	 -53.3915 	 46.9594 	 135.045
| 19> C 	 -51.9566 	 46.1344 	 133.558
| 20> H 	 -51.9208 	 46.2849 	 132.508
| 21> H 	 -50.9971 	 46.3004 	 134.008
| 22> H 	 -52.2409 	 45.049 	 133.703
| 23> S 	 -59.3194 	 49.2979 	 135.756
| 24> C 	 -59.6714 	 49.9192 	 137.375
| 25> C 	 -58.5271 	 50.4178 	 137.958
| 26> C 	 -57.2975 	 50.2955 	 137.134
| 27> C 	 -57.621 	 49.7337 	 135.887
| 28> H 	 -58.5952 	 50.8516 	 138.935
| 29> C 	 -55.9114 	 50.8698 	 137.485
| 30> H 	 -55.0937 	 50.2665 	 137.176
| 31> H 	 -55.8141 	 50.9214 	 138.544
| 32> C 	 -55.752 	 52.2985 	 137.013
| 33> H 	 -54.7235 	 52.637 	 137.249
| 34> H 	 -56.3181 	 52.9464 	 137.691
| 35> C 	 -55.6954 	 52.5707 	 135.499
| 36> H 	 -56.6351 	 52.4078 	 134.941
| 37> H 	 -54.8359 	 52.1142 	 135.039
| 38> H 	 -55.488 	 53.6751 	 135.531
| 39> H 	 -55.6542 	 49.2198 	 131.491
| 40> H 	 -60.682 	 49.9745 	 137.756
| 41> *
| 42>
| 43>                          ****END OF INPUT****

CARTESIAN COORDINATES (ANGSTROEM)
---------------------------------
  S    -57.327700   49.957400  133.153000
  C    -55.977700   49.062700  132.521000
  C    -55.418500   48.169500  133.446000
  C    -55.889100   48.424300  134.722000
  C    -56.803400   49.400500  134.737000
  H    -55.729700   47.762600  135.665000
  C    -54.229600   47.234500  133.168000
  H    -53.863200   47.522700  132.086000
  H    -54.729500   46.224900  133.104000
  C    -53.000300   47.231300  134.047000
  H    -52.605900   48.247600  134.028000
  H    -53.391500   46.959400  135.045000
  C    -51.956600   46.134400  133.558000
  H    -51.920800   46.284900  132.508000
  H    -50.997100   46.300400  134.008000
  H    -52.240900   45.049000  133.703000
  S    -59.319400   49.297900  135.756000
  C    -59.671400   49.919200  137.375000
  C    -58.527100   50.417800  137.958000
  C    -57.297500   50.295500  137.134000
  C    -57.621000   49.733700  135.887000
  H    -58.595200   50.851600  138.935000
  C    -55.911400   50.869800  137.485000
  H    -55.093700   50.266500  137.176000
  H    -55.814100   50.921400  138.544000
  C    -55.752000   52.298500  137.013000
  H    -54.723500   52.637000  137.249000
  H    -56.318100   52.946400  137.691000
  C    -55.695400   52.570700  135.499000
  H    -56.635100   52.407800  134.941000
  H    -54.835900   52.114200  135.039000
  H    -55.488000   53.675100  135.531000
  H    -55.654200   49.219800  131.491000
  H    -60.682000   49.974500  137.756000

 Total Charge           Charge          ....    0
 Multiplicity           Mult            ....    1
 Number of Electrons    NEL             ....  134
 Basis Dimension        Dim             ....  322

ORBITAL ENERGIES
----------------

  NO   OCC          E(Eh)            E(eV)
   0   2.0000     -88.969420     -2420.9810
   1   2.0000     -88.959290     -2420.7054
   2   2.0000     -10.322633      -280.8931
   3   2.0000     -10.321722      -280.8683
   4   2.0000     -10.315764      -280.7062
   5   2.0000     -10.315623      -280.7024
   6   2.0000     -10.308226      -280.5011
   7   2.0000     -10.303458      -280.3713
   8   2.0000     -10.301486      -280.3177
   9   2.0000     -10.296850      -280.1915
  10   2.0000     -10.295002      -280.1412
  11   2.0000     -10.294091      -280.1165
  12   2.0000     -10.285199      -279.8745
  13   2.0000     -10.284414      -279.8531
  14   2.0000     -10.282657      -279.8053
  15   2.0000     -10.274382      -279.5802
  16   2.0000      -8.084218      -219.9828
  17   2.0000      -8.073878      -219.7014
  18   2.0000      -6.042476      -164.4241
  19   2.0000      -6.039038      -164.3306
  20   2.0000      -6.034900      -164.2180
  21   2.0000      -6.032476      -164.1520
  22   2.0000      -6.028395      -164.0410
  23   2.0000      -6.024574      -163.9370
  24   2.0000      -1.010943       -27.5092
  25   2.0000      -0.977051       -26.5869
  26   2.0000      -0.909212       -24.7409
  27   2.0000      -0.905972       -24.6527
  28   2.0000      -0.866911       -23.5899
  29   2.0000      -0.855809       -23.2877
  30   2.0000      -0.837496       -22.7894
  31   2.0000      -0.811248       -22.0752
  32   2.0000      -0.783645       -21.3241
  33   2.0000      -0.769438       -20.9375
  34   2.0000      -0.705570       -19.1995
  35   2.0000      -0.691951       -18.8289
  36   2.0000      -0.686080       -18.6692
  37   2.0000      -0.654078       -17.7984
  38   2.0000      -0.639142       -17.3919
  39   2.0000      -0.620130       -16.8746
  40   2.0000      -0.593399       -16.1472
  41   2.0000      -0.567942       -15.4545
  42   2.0000      -0.557834       -15.1794
  43   2.0000      -0.546290       -14.8653
  44   2.0000      -0.544467       -14.8157
  45   2.0000      -0.524090       -14.2612
  46   2.0000      -0.514108       -13.9896
  47   2.0000      -0.509796       -13.8723
  48   2.0000      -0.498552       -13.5663
  49   2.0000      -0.491096       -13.3634
  50   2.0000      -0.489955       -13.3323
  51   2.0000      -0.475956       -12.9514
  52   2.0000      -0.470280       -12.7970
  53   2.0000      -0.463383       -12.6093
  54   2.0000      -0.456618       -12.4252
  55   2.0000      -0.453314       -12.3353
  56   2.0000      -0.443175       -12.0594
  57   2.0000      -0.436842       -11.8871
  58   2.0000      -0.426757       -11.6126
  59   2.0000      -0.423305       -11.5187
  60   2.0000      -0.418948       -11.4002
  61   2.0000      -0.412941       -11.2367
  62   2.0000      -0.401098       -10.9144
  63   2.0000      -0.347632        -9.4596
  64   2.0000      -0.330199        -8.9852
  65   2.0000      -0.324619        -8.8333
  66   2.0000      -0.291545        -7.9333
  67   0.0000       0.035247         0.9591
  68   0.0000       0.061811         1.6820
  69   0.0000       0.106126         2.8878
  70   0.0000       0.123437         3.3589
  71   0.0000       0.131519         3.5788

MULLIKEN ATOMIC CHARGES
-----------------------
   0 S :    0.119264
   1 C :   -0.137615
   2 C :   -0.043640
   3 C :   -0.011336
   4 C :   -0.149127
   5 H :    0.064239
   6 C :   -0.027268
   7 H :    0.029112
   8 H :    0.050820
   9 C :   -0.059592
  10 H :    0.042430
  11 H :    0.031620
  12 C :   -0.042626
  13 H :    0.020320
  14 H :    0.038786
  15 H :    0.045584
  16 S :    0.089261
  17 C :   -0.096383
  18 C :   -0.027304
  19 C :   -0.046295
  20 C :   -0.181280
  21 H :    0.013431
  22 C :    0.144086
  23 H :    0.010002
  24 H :    0.002413
  25 C :   -0.106373
  26 H :    0.015105
  27 H :    0.024627
  28 C :   -0.039206
  29 H :    0.048651
  30 H :    0.035359
  31 H :    0.031574
  32 H :    0.050792
  33 H :    0.060570
Sum of atomic charges:    0.0000000

LOEWDIN ATOMIC CHARGES
----------------------
   0 S :    0.411848
   1 C :   -0.196653
   2 C :   -0.068572
   3 C :   -0.071084
   4 C :   -0.189854
   5 H :    0.056539
   6 C :   -0.045040
   7 H :    0.033100
   8 H :    0.038426
   9 C :   -0.040909
  10 H :    0.029274
  11 H :    0.022633
  12 C :   -0.060764
  13 H :    0.018842
  14 H :    0.024541
  15 H :    0.035255
  16 S :    0.381610
  17 C :   -0.183449
  18 C :   -0.066732
  19 C :   -0.054313
  20 C :   -0.195350
  21 H :    0.027153
  22 C :   -0.030294
  23 H :    0.024847
  24 H :    0.027742
  25 C :   -0.046524
  26 H :    0.026817
  27 H :    0.023229
  28 C :   -0.066308
  29 H :    0.019977
  30 H :    0.025089
  31 H :    0.034549
  32 H :    0.024707
  33 H :    0.029666

  Mayer bond orders larger than 0.100000
B(  0-S ,  1-C ) :   1.1453 B(  0-S ,  4-C ) :   1.1457 B(  1-C ,  2-C ) :   1.5986
B(  1-C ,  4-C ) :   0.1002 B(  1-C , 32-H ) :   0.9677 B(  2-C ,  3-C ) :   1.2459
B(  2-C ,  6-C ) :   1.0110 B(  3-C ,  4-C ) :   1.6149 B(  3-C ,  5-H ) :   0.9703
B(  4-C , 20-C ) :   1.0178 B(  6-C ,  7-H ) :   0.9461 B(  6-C ,  8-H ) :   0.9339
B(  6-C ,  9-C ) :   1.0654 B(  9-C , 10-H ) :   0.9580 B(  9-C , 11-H ) :   0.9486
B(  9-C , 12-C ) :   1.0668 B( 12-C , 13-H ) :   0.9768 B( 12-C , 14-H ) :   0.9767
B( 12-C , 15-H ) :   0.9769 B( 16-S , 17-C ) :   1.1267 B( 16-S , 20-C ) :   1.1476
B( 17-C , 18-C ) :   1.6404 B( 17-C , 33-H ) :   0.9703 B( 18-C , 19-C ) :   1.2024
B( 18-C , 21-H ) :   0.9901 B( 19-C , 20-C ) :   1.6169 B( 19-C , 22-C ) :   1.0476
B( 22-C , 23-H ) :   0.9300 B( 22-C , 24-H ) :   0.9209 B( 22-C , 25-C ) :   1.0946
B( 25-C , 26-H ) :   0.9517 B( 25-C , 27-H ) :   0.9573 B( 25-C , 28-C ) :   1.0658
B( 28-C , 29-H ) :   0.9721 B( 28-C , 30-H ) :   0.9726 B( 28-C , 31-H ) :   0.9729

Dispersion correction           -0.015103599
FINAL SINGLE POINT ENERGY     -1339.860506074701

DIPOLE MOMENT
-------------
                                X             Y             Z
Electronic contribution:    -25.62090       0.91770      -2.41757
Nuclear contribution   :     26.20721      -0.98093       2.62645
                        -----------------------------------------
Total Dipole Moment    :      0.58631      -0.06324       0.20888
                        -----------------------------------------
Magnitude (a.u.)       :      0.62561
Magnitude (Debye)      :      1.59017

Rotational constants in cm-1:     0.020159     0.008328     0.007561
Rotational constants in MHz :   604.365407   249.665101   226.683552

                             ****ORCA TERMINATED NORMALLY****
TOTAL RUN TIME: 0 days 0 hours 0 minutes 35 seconds 822 msec
