                         Program Version 4.2.1 -  RELEASE  -
|  1> ! wB97X-D3 SP def2-SVP
|  2> %pal
|  3> nprocs 16
|  4> end
|  5>
|  6> * xyz 0 1
|  7> S 	 41.5846 	 11.5035 	 49.0043
|  8> C 	 41.8155 	 12.458 	 47.5547
|  9> C 	 42.7923 	 13.4817 	 47.6849
| 10> C 	 43.4202 	 13.3186 	 48.9892
| 11> C 	 42.8667 	 12.4276 	 49.8267
| 12> H 	 44.3387 	 13.7874 	 49.3404
| 13> C 	 43.1187 	 14.5304 	 46.616
| 14> H 	 43.2676 	 14.0262 	 45.6216
| 15> H 	 44.0351 	 15.0447 	 46.8193
| 16> C 	 41.9772 	 15.6048 	 46.53
| 17> H 	 41.1221 	 15.1517 	 46.1622
| 18> H 	 41.6071 	 15.9659 	 47.4594
| 19> C 	 42.2227 	 16.7044 	 45.543
| 20> H 	 42.8942 	 17.4339 	 45.9805
| 21> H 	 42.5147 	 16.3885 	 44.5477
| 22> H 	 41.2554 	 17.27 	 45.4262
| 23> S 	 43.818 	 10.3489 	 51.336
| 24> C 	 44.1309 	 10.5654 	 53.0121
| 25> C 	 44.068 	 11.9068 	 53.31
| 26> C 	 43.6103 	 12.7619 	 52.2558
| 27> C 	 43.3365 	 12.0061 	 51.1137
| 28> H 	 44.4682 	 12.2297 	 54.2705
| 29> C 	 43.5168 	 14.2427 	 52.4519
| 30> H 	 43.084 	 14.4191 	 53.4471
| 31> H 	 42.6728 	 14.5815 	 51.8281
| 32> C 	 44.7543 	 15.1028 	 52.1829
| 33> H 	 44.779 	 15.3749 	 51.1346
| 34> H 	 45.6671 	 14.495 	 52.3294
| 35> C 	 44.8633 	 16.3884 	 52.9853
| 36> H 	 44.0942 	 17.0678 	 52.6824
| 37> H 	 45.8473 	 16.9513 	 52.8255
| 38> H 	 44.8365 	 16.2694 	 54.0388
| 39> H 	 41.1766 	 12.408 	 46.6978
| 40> H 	 44.5329 	 9.70441 	 53.6059
| 41> *
| 42>
| 43>                          ****END OF INPUT****

CARTESIAN COORDINATES (ANGSTROEM)
---------------------------------
  S     41.584600   11.503500   49.004300
  C     41.815500   12.458000   47.554700
  C     42.792300   13.481700   47.684900
  C     43.420200   13.318600   48.989200
  C     42.866700   12.427600   49.826700
  H     44.338700   13.787400   49.340400
  C     43.118700   14.530400   46.616000
  H     43.267600   14.026200   45.621600
  H     44.035100   15.044700   46.819300
  C     41.977200   15.604800   46.530000
  H     41.122100   15.151700   46.162200
  H     41.607100   15.965900   47.459400
  C     42.222700   16.704400   45.543000
  H     42.894200   17.433900   45.980500
  H     42.514700   16.388500   44.547700
  H     41.255400   17.270000   45.426200
  S     43.818000   10.348900   51.336000
  C     44.130900   10.565400   53.012100
  C     44.068000   11.906800   53.310000
  C     43.610300   12.761900   52.255800
  C     43.336500   12.006100   51.113700
  H     44.468200   12.229700   54.270500
  C     43.516800   14.242700   52.451900
  H     43.084000   14.419100   53.447100
  H     42.672800   14.581500   51.828100
  C     44.754300   15.102800   52.182900
  H     44.779000   15.374900   51.134600
  H     45.667100   14.495000   52.329400
  C     44.863300   16.388400   52.985300
  H     44.094200   17.067800   52.682400
  H     45.847300   16.951300   52.825500
  H     44.836500   16.269400   54.038800
  H     41.176600   12.408000   46.697800
  H     44.532900    9.704410   53.605900

 Total Charge           Charge          ....    0
 Multiplicity           Mult            ....    1
 Number of Electrons    NEL             ....  134
 Basis Dimension        Dim             ....  322

ORBITAL ENERGIES
----------------

  NO   OCC          E(Eh)            E(eV)
   0   2.0000     -88.965124     -2420.8641
   1   2.0000     -88.961467     -2420.7646
   2   2.0000     -10.322983      -280.9026
   3   2.0000     -10.322710      -280.8952
   4   2.0000     -10.317153      -280.7440
   5   2.0000     -10.316743      -280.7329
   6   2.0000     -10.310214      -280.5552
   7   2.0000     -10.302780      -280.3529
   8   2.0000     -10.301182      -280.3094
   9   2.0000     -10.294456      -280.1264
  10   2.0000     -10.291968      -280.0587
  11   2.0000     -10.291053      -280.0338
  12   2.0000     -10.288175      -279.9555
  13   2.0000     -10.279033      -279.7067
  14   2.0000     -10.278999      -279.7058
  15   2.0000     -10.277703      -279.6705
  16   2.0000      -8.079410      -219.8519
  17   2.0000      -8.077286      -219.7941
  18   2.0000      -6.037951      -164.3010
  19   2.0000      -6.035672      -164.2390
  20   2.0000      -6.034029      -164.1943
  21   2.0000      -6.031623      -164.1288
  22   2.0000      -6.030101      -164.0874
  23   2.0000      -6.028112      -164.0333
  24   2.0000      -1.008226       -27.4352
  25   2.0000      -0.981427       -26.7060
  26   2.0000      -0.911714       -24.8090
  27   2.0000      -0.910447       -24.7745
  28   2.0000      -0.871628       -23.7182
  29   2.0000      -0.854541       -23.2532
  30   2.0000      -0.847109       -23.0510
  31   2.0000      -0.815330       -22.1863
  32   2.0000      -0.783727       -21.3263
  33   2.0000      -0.769194       -20.9308
  34   2.0000      -0.706765       -19.2321
  35   2.0000      -0.706051       -19.2126
  36   2.0000      -0.692961       -18.8564
  37   2.0000      -0.660712       -17.9789
  38   2.0000      -0.644424       -17.5357
  39   2.0000      -0.614438       -16.7197
  40   2.0000      -0.598258       -16.2794
  41   2.0000      -0.569262       -15.4904
  42   2.0000      -0.561673       -15.2839
  43   2.0000      -0.558324       -15.1928
  44   2.0000      -0.528825       -14.3901
  45   2.0000      -0.526495       -14.3267
  46   2.0000      -0.520893       -14.1742
  47   2.0000      -0.513869       -13.9831
  48   2.0000      -0.507809       -13.8182
  49   2.0000      -0.499222       -13.5845
  50   2.0000      -0.496282       -13.5045
  51   2.0000      -0.473286       -12.8788
  52   2.0000      -0.470772       -12.8104
  53   2.0000      -0.463757       -12.6195
  54   2.0000      -0.457763       -12.4564
  55   2.0000      -0.451390       -12.2830
  56   2.0000      -0.447609       -12.1801
  57   2.0000      -0.437185       -11.8964
  58   2.0000      -0.433529       -11.7969
  59   2.0000      -0.426150       -11.5961
  60   2.0000      -0.422734       -11.5032
  61   2.0000      -0.415158       -11.2970
  62   2.0000      -0.412707       -11.2303
  63   2.0000      -0.348068        -9.4714
  64   2.0000      -0.329716        -8.9720
  65   2.0000      -0.324350        -8.8260
  66   2.0000      -0.294154        -8.0043
  67   0.0000       0.031934         0.8690
  68   0.0000       0.068471         1.8632
  69   0.0000       0.114084         3.1044
  70   0.0000       0.121604         3.3090
  71   0.0000       0.132217         3.5978

MULLIKEN ATOMIC CHARGES
-----------------------
   0 S :    0.110016
   1 C :   -0.108614
   2 C :   -0.096074
   3 C :    0.027665
   4 C :   -0.166899
   5 H :    0.014760
   6 C :    0.077731
   7 H :    0.042191
   8 H :    0.015092
   9 C :   -0.046871
  10 H :   -0.000712
  11 H :    0.020174
  12 C :   -0.047087
  13 H :    0.029546
  14 H :    0.032901
  15 H :    0.032274
  16 S :    0.113039
  17 C :   -0.119090
  18 C :   -0.037190
  19 C :   -0.032623
  20 C :   -0.163692
  21 H :    0.018028
  22 C :    0.065099
  23 H :    0.022105
  24 H :    0.027307
  25 C :   -0.049788
  26 H :    0.027926
  27 H :    0.032264
  28 C :   -0.058157
  29 H :    0.029344
  30 H :    0.038173
  31 H :    0.026726
  32 H :    0.042826
  33 H :    0.081609
Sum of atomic charges:    0.0000000

LOEWDIN ATOMIC CHARGES
----------------------
   0 S :    0.390561
   1 C :   -0.188841
   2 C :   -0.056786
   3 C :   -0.058826
   4 C :   -0.191242
   5 H :    0.032667
   6 C :   -0.026989
   7 H :    0.039792
   8 H :    0.024263
   9 C :   -0.039376
  10 H :    0.014118
  11 H :    0.024304
  12 C :   -0.064166
  13 H :    0.021416
  14 H :    0.023507
  15 H :    0.034209
  16 S :    0.422625
  17 C :   -0.203848
  18 C :   -0.074898
  19 C :   -0.056526
  20 C :   -0.205887
  21 H :    0.030382
  22 C :   -0.039811
  23 H :    0.033214
  24 H :    0.036207
  25 C :   -0.042272
  26 H :    0.023440
  27 H :    0.026610
  28 C :   -0.066267
  29 H :    0.022185
  30 H :    0.036724
  31 H :    0.017827
  32 H :    0.020559
  33 H :    0.041124

  Mayer bond orders larger than 0.100000
B(  0-S ,  1-C ) :   1.1483 B(  0-S ,  4-C ) :   1.1166 B(  1-C ,  2-C ) :   1.6144
B(  1-C , 32-H ) :   0.9673 B(  2-C ,  3-C ) :   1.2134 B(  2-C ,  6-C ) :   1.0270
B(  3-C ,  4-C ) :   1.6308 B(  3-C ,  5-H ) :   0.9849 B(  4-C , 20-C ) :   1.0409
B(  6-C ,  7-H ) :   0.9407 B(  6-C ,  8-H ) :   0.9469 B(  6-C ,  9-C ) :   1.0499
B(  9-C , 10-H ) :   0.9523 B(  9-C , 11-H ) :   0.9541 B(  9-C , 12-C ) :   1.0953
B( 12-C , 13-H ) :   0.9755 B( 12-C , 14-H ) :   0.9724 B( 12-C , 15-H ) :   0.9717
B( 16-S , 17-C ) :   1.1620 B( 16-S , 20-C ) :   1.1672 B( 17-C , 18-C ) :   1.5810
B( 17-C , 33-H ) :   0.9643 B( 18-C , 19-C ) :   1.2532 B( 18-C , 21-H ) :   0.9913
B( 19-C , 20-C ) :   1.5627 B( 19-C , 22-C ) :   1.0627 B( 22-C , 23-H ) :   0.9400
B( 22-C , 24-H ) :   0.9186 B( 22-C , 25-C ) :   1.0398 B( 25-C , 26-H ) :   0.9468
B( 25-C , 27-H ) :   0.9639 B( 25-C , 28-C ) :   1.0874 B( 28-C , 29-H ) :   0.9753
B( 28-C , 30-H ) :   0.9719 B( 28-C , 31-H ) :   0.9767

Dispersion correction           -0.013846035
FINAL SINGLE POINT ENERGY     -1339.881985863380

DIPOLE MOMENT
-------------
                                X             Y             Z
Electronic contribution:     -4.55461     -30.83014       5.75423
Nuclear contribution   :      4.80929      31.47877      -5.82179
                        -----------------------------------------
Total Dipole Moment    :      0.25468       0.64863      -0.06757
                        -----------------------------------------
Magnitude (a.u.)       :      0.70011
Magnitude (Debye)      :      1.77953

Rotational constants in cm-1:     0.017665     0.008620     0.006127
Rotational constants in MHz :   529.586261   258.428352   183.679454

                             ****ORCA TERMINATED NORMALLY****
TOTAL RUN TIME: 0 days 0 hours 0 minutes 33 seconds 942 msec
