                         Program Version 4.2.1 -  RELEASE  -
|  1> ! wB97X-D3 SP def2-SVP
|  2> %pal
|  3> nprocs 16
|  4> end
|  5>
|  6> * xyz 0 1
|  7> S 	 7.49041 	 -20.4723 	 85.3863
|  8> C 	 6.30863 	 -19.3714 	 84.7605
|  9> C 	 6.66085 	 -18.8414 	 83.5752
| 10> C 	 7.91339 	 -19.3455 	 83.1372
| 11> C 	 8.52977 	 -20.212 	 84.0318
| 12> H 	 8.42275 	 -19.0974 	 82.1994
| 13> C 	 5.84459 	 -17.8296 	 82.7247
| 14> H 	 6.4555 	 -17.059 	 82.3747
| 15> H 	 5.18844 	 -17.4147 	 83.4982
| 16> C 	 4.90028 	 -18.5299 	 81.7461
| 17> H 	 5.24205 	 -18.2259 	 80.7844
| 18> H 	 4.80496 	 -19.549 	 81.9089
| 19> C 	 3.43131 	 -18.0366 	 81.7901
| 20> H 	 2.8072 	 -18.6304 	 81.0759
| 21> H 	 3.08112 	 -18.1962 	 82.8103
| 22> H 	 3.31492 	 -17.0282 	 81.5075
| 23> S 	 9.55997 	 -22.5547 	 83.1335
| 24> C 	 11.2787 	 -22.808 	 83.1766
| 25> C 	 11.9605 	 -21.7401 	 83.6507
| 26> C 	 11.0972 	 -20.65 	 84.0035
| 27> C 	 9.73177 	 -20.9573 	 83.8009
| 28> H 	 13.0088 	 -21.8261 	 83.7072
| 29> C 	 11.6914 	 -19.3897 	 84.5696
| 30> H 	 11.139 	 -18.5327 	 84.175
| 31> H 	 12.7715 	 -19.2775 	 84.2986
| 32> C 	 11.6715 	 -19.4916 	 86.1398
| 33> H 	 12.1039 	 -20.5031 	 86.3879
| 34> H 	 10.684 	 -19.3538 	 86.4827
| 35> C 	 12.4148 	 -18.4547 	 86.9416
| 36> H 	 13.4674 	 -18.3414 	 86.7637
| 37> H 	 12.3587 	 -18.7953 	 87.9864
| 38> H 	 11.9232 	 -17.4962 	 87.0189
| 39> H 	 5.38358 	 -19.0613 	 85.3206
| 40> H 	 11.7463 	 -23.8212 	 82.8421
| 41> *
| 42>
| 43>                          ****END OF INPUT****

CARTESIAN COORDINATES (ANGSTROEM)
---------------------------------
  S      7.490410  -20.472300   85.386300
  C      6.308630  -19.371400   84.760500
  C      6.660850  -18.841400   83.575200
  C      7.913390  -19.345500   83.137200
  C      8.529770  -20.212000   84.031800
  H      8.422750  -19.097400   82.199400
  C      5.844590  -17.829600   82.724700
  H      6.455500  -17.059000   82.374700
  H      5.188440  -17.414700   83.498200
  C      4.900280  -18.529900   81.746100
  H      5.242050  -18.225900   80.784400
  H      4.804960  -19.549000   81.908900
  C      3.431310  -18.036600   81.790100
  H      2.807200  -18.630400   81.075900
  H      3.081120  -18.196200   82.810300
  H      3.314920  -17.028200   81.507500
  S      9.559970  -22.554700   83.133500
  C     11.278700  -22.808000   83.176600
  C     11.960500  -21.740100   83.650700
  C     11.097200  -20.650000   84.003500
  C      9.731770  -20.957300   83.800900
  H     13.008800  -21.826100   83.707200
  C     11.691400  -19.389700   84.569600
  H     11.139000  -18.532700   84.175000
  H     12.771500  -19.277500   84.298600
  C     11.671500  -19.491600   86.139800
  H     12.103900  -20.503100   86.387900
  H     10.684000  -19.353800   86.482700
  C     12.414800  -18.454700   86.941600
  H     13.467400  -18.341400   86.763700
  H     12.358700  -18.795300   87.986400
  H     11.923200  -17.496200   87.018900
  H      5.383580  -19.061300   85.320600
  H     11.746300  -23.821200   82.842100

 Total Charge           Charge          ....    0
 Multiplicity           Mult            ....    1
 Number of Electrons    NEL             ....  134
 Basis Dimension        Dim             ....  322

ORBITAL ENERGIES
----------------

  NO   OCC          E(Eh)            E(eV)
   0   2.0000     -88.965268     -2420.8680
   1   2.0000     -88.961725     -2420.7716
   2   2.0000     -10.322584      -280.8918
   3   2.0000     -10.321890      -280.8729
   4   2.0000     -10.318582      -280.7829
   5   2.0000     -10.312237      -280.6102
   6   2.0000     -10.305003      -280.4134
   7   2.0000     -10.296117      -280.1716
   8   2.0000     -10.291538      -280.0470
   9   2.0000     -10.291232      -280.0386
  10   2.0000     -10.289637      -279.9953
  11   2.0000     -10.286684      -279.9149
  12   2.0000     -10.282739      -279.8075
  13   2.0000     -10.277617      -279.6682
  14   2.0000     -10.276831      -279.6468
  15   2.0000     -10.269804      -279.4556
  16   2.0000      -8.080600      -219.8843
  17   2.0000      -8.077095      -219.7889
  18   2.0000      -6.038992      -164.3293
  19   2.0000      -6.035527      -164.2350
  20   2.0000      -6.034989      -164.2204
  21   2.0000      -6.031476      -164.1248
  22   2.0000      -6.031474      -164.1247
  23   2.0000      -6.027943      -164.0287
  24   2.0000      -1.010187       -27.4886
  25   2.0000      -0.987422       -26.8691
  26   2.0000      -0.913665       -24.8621
  27   2.0000      -0.904413       -24.6103
  28   2.0000      -0.873515       -23.7696
  29   2.0000      -0.850353       -23.1393
  30   2.0000      -0.848041       -23.0764
  31   2.0000      -0.813592       -22.1390
  32   2.0000      -0.784895       -21.3581
  33   2.0000      -0.768437       -20.9102
  34   2.0000      -0.705851       -19.2072
  35   2.0000      -0.697862       -18.9898
  36   2.0000      -0.685982       -18.6665
  37   2.0000      -0.656348       -17.8601
  38   2.0000      -0.641635       -17.4598
  39   2.0000      -0.616375       -16.7724
  40   2.0000      -0.592699       -16.1282
  41   2.0000      -0.584968       -15.9178
  42   2.0000      -0.570132       -15.5141
  43   2.0000      -0.554775       -15.0962
  44   2.0000      -0.532155       -14.4807
  45   2.0000      -0.518214       -14.1013
  46   2.0000      -0.514512       -14.0006
  47   2.0000      -0.508701       -13.8425
  48   2.0000      -0.502390       -13.6707
  49   2.0000      -0.501000       -13.6329
  50   2.0000      -0.493969       -13.4416
  51   2.0000      -0.478973       -13.0335
  52   2.0000      -0.473089       -12.8734
  53   2.0000      -0.466612       -12.6972
  54   2.0000      -0.457079       -12.4378
  55   2.0000      -0.446722       -12.1559
  56   2.0000      -0.445714       -12.1285
  57   2.0000      -0.442385       -12.0379
  58   2.0000      -0.424698       -11.5566
  59   2.0000      -0.423940       -11.5360
  60   2.0000      -0.419744       -11.4218
  61   2.0000      -0.413829       -11.2609
  62   2.0000      -0.409306       -11.1378
  63   2.0000      -0.337858        -9.1936
  64   2.0000      -0.328043        -8.9265
  65   2.0000      -0.321048        -8.7362
  66   2.0000      -0.307933        -8.3793
  67   0.0000       0.049713         1.3528
  68   0.0000       0.056029         1.5246
  69   0.0000       0.122683         3.3384
  70   0.0000       0.126001         3.4287
  71   0.0000       0.133879         3.6430

MULLIKEN ATOMIC CHARGES
-----------------------
   0 S :    0.127967
   1 C :   -0.156750
   2 C :   -0.105517
   3 C :    0.041516
   4 C :   -0.188134
   5 H :    0.015763
   6 C :    0.103079
   7 H :    0.024474
   8 H :    0.005719
   9 C :   -0.006538
  10 H :    0.021673
  11 H :    0.030398
  12 C :   -0.080468
  13 H :    0.038455
  14 H :    0.028105
  15 H :    0.025074
  16 S :    0.117832
  17 C :   -0.130565
  18 C :   -0.019686
  19 C :   -0.014346
  20 C :   -0.189020
  21 H :    0.003040
  22 C :    0.088036
  23 H :    0.029373
  24 H :    0.021442
  25 C :   -0.084777
  26 H :    0.036950
  27 H :    0.022760
  28 C :   -0.029758
  29 H :    0.024042
  30 H :    0.024054
  31 H :    0.026850
  32 H :    0.062755
  33 H :    0.086202
Sum of atomic charges:    0.0000000

LOEWDIN ATOMIC CHARGES
----------------------
   0 S :    0.425117
   1 C :   -0.212497
   2 C :   -0.069283
   3 C :   -0.058082
   4 C :   -0.216698
   5 H :    0.033823
   6 C :   -0.018061
   7 H :    0.023310
   8 H :    0.029563
   9 C :   -0.028774
  10 H :    0.022546
  11 H :    0.020685
  12 C :   -0.059307
  13 H :    0.031050
  14 H :    0.020008
  15 H :    0.014715
  16 S :    0.416850
  17 C :   -0.197881
  18 C :   -0.076679
  19 C :   -0.043929
  20 C :   -0.217044
  21 H :    0.027268
  22 C :   -0.033624
  23 H :    0.030450
  24 H :    0.032175
  25 C :   -0.036335
  26 H :    0.031281
  27 H :    0.020130
  28 C :   -0.071071
  29 H :    0.017489
  30 H :    0.032789
  31 H :    0.023688
  32 H :    0.038575
  33 H :    0.047755

  Mayer bond orders larger than 0.100000
B(  0-S ,  1-C ) :   1.1461 B(  0-S ,  4-C ) :   1.1591 B(  1-C ,  2-C ) :   1.6315
B(  1-C , 32-H ) :   0.9544 B(  2-C ,  3-C ) :   1.2425 B(  2-C ,  6-C ) :   1.0136
B(  3-C ,  4-C ) :   1.5845 B(  3-C ,  5-H ) :   0.9952 B(  4-C , 20-C ) :   1.0265
B(  6-C ,  7-H ) :   0.9451 B(  6-C ,  8-H ) :   0.9436 B(  6-C ,  9-C ) :   1.0444
B(  9-C , 10-H ) :   0.9551 B(  9-C , 11-H ) :   0.9630 B(  9-C , 12-C ) :   1.0897
B( 12-C , 13-H ) :   0.9762 B( 12-C , 14-H ) :   0.9752 B( 12-C , 15-H ) :   0.9792
B( 16-S , 17-C ) :   1.1630 B( 16-S , 20-C ) :   1.1548 B( 17-C , 18-C ) :   1.6188
B( 17-C , 33-H ) :   0.9512 B( 18-C , 19-C ) :   1.2310 B( 18-C , 21-H ) :   1.0005
B( 19-C , 20-C ) :   1.5833 B( 19-C , 22-C ) :   1.0598 B( 22-C , 23-H ) :   0.9268
B( 22-C , 24-H ) :   0.9370 B( 22-C , 25-C ) :   1.0590 B( 25-C , 26-H ) :   0.9587
B( 25-C , 27-H ) :   0.9533 B( 25-C , 28-C ) :   1.0967 B( 28-C , 29-H ) :   0.9727
B( 28-C , 30-H ) :   0.9679 B( 28-C , 31-H ) :   0.9719

Dispersion correction           -0.013858600
FINAL SINGLE POINT ENERGY     -1339.872870321921

DIPOLE MOMENT
-------------
                                X             Y             Z
Electronic contribution:      2.97843     -18.18922       0.15895
Nuclear contribution   :     -2.90339      18.59009      -0.30608
                        -----------------------------------------
Total Dipole Moment    :      0.07504       0.40087      -0.14713
                        -----------------------------------------
Magnitude (a.u.)       :      0.43356
Magnitude (Debye)      :      1.10202

Rotational constants in cm-1:     0.021278     0.007437     0.006355
Rotational constants in MHz :   637.907631   222.968085   190.520108

                             ****ORCA TERMINATED NORMALLY****
TOTAL RUN TIME: 0 days 0 hours 0 minutes 32 seconds 812 msec
