                         Program Version 4.2.1 -  RELEASE  -
|  1> ! wB97X-D3 SP def2-SVP
|  2> %pal
|  3> nprocs 16
|  4> end
|  5>
|  6> * xyz 0 1
|  7> S 	 10.4947 	 -15.8561 	 66.4724
|  8> C 	 9.78079 	 -14.9257 	 65.2048
|  9> C 	 10.4964 	 -13.757 	 64.9471
| 10> C 	 11.5582 	 -13.5962 	 65.912
| 11> C 	 11.656 	 -14.6243 	 66.8418
| 12> H 	 12.277 	 -12.7881 	 65.9268
| 13> C 	 10.3943 	 -12.819 	 63.7741
| 14> H 	 10.3363 	 -13.4423 	 62.8872
| 15> H 	 11.336 	 -12.3626 	 63.6651
| 16> C 	 9.30649 	 -11.7312 	 63.8829
| 17> H 	 9.32609 	 -11.1587 	 64.7933
| 18> H 	 9.54881 	 -10.9201 	 63.2187
| 19> C 	 7.90377 	 -12.3699 	 63.593
| 20> H 	 7.06202 	 -11.6419 	 63.6521
| 21> H 	 7.99997 	 -12.8271 	 62.5949
| 22> H 	 7.62408 	 -13.2922 	 64.226
| 23> S 	 13.4726 	 -15.9678 	 68.3687
| 24> C 	 13.6452 	 -15.5003 	 70.0116
| 25> C 	 13.0026 	 -14.3089 	 70.3482
| 26> C 	 12.2896 	 -13.7922 	 69.2226
| 27> C 	 12.3491 	 -14.6042 	 68.0847
| 28> H 	 13.166 	 -13.8959 	 71.3903
| 29> C 	 11.4422 	 -12.5833 	 69.409
| 30> H 	 11.6673 	 -11.9271 	 68.5885
| 31> H 	 11.7741 	 -12.1802 	 70.3795
| 32> C 	 9.86974 	 -12.79 	 69.4682
| 33> H 	 9.58208 	 -11.8724 	 69.9596
| 34> H 	 9.65847 	 -13.6303 	 70.1494
| 35> C 	 9.1791 	 -12.9016 	 68.1008
| 36> H 	 9.10404 	 -13.9375 	 67.7248
| 37> H 	 9.50901 	 -12.1857 	 67.2996
| 38> H 	 8.1836 	 -12.4988 	 68.3428
| 39> H 	 8.95957 	 -15.1879 	 64.546
| 40> H 	 14.3437 	 -15.9517 	 70.7087
| 41> *
| 42>
| 43>                          ****END OF INPUT****

CARTESIAN COORDINATES (ANGSTROEM)
---------------------------------
  S     10.494700  -15.856100   66.472400
  C      9.780790  -14.925700   65.204800
  C     10.496400  -13.757000   64.947100
  C     11.558200  -13.596200   65.912000
  C     11.656000  -14.624300   66.841800
  H     12.277000  -12.788100   65.926800
  C     10.394300  -12.819000   63.774100
  H     10.336300  -13.442300   62.887200
  H     11.336000  -12.362600   63.665100
  C      9.306490  -11.731200   63.882900
  H      9.326090  -11.158700   64.793300
  H      9.548810  -10.920100   63.218700
  C      7.903770  -12.369900   63.593000
  H      7.062020  -11.641900   63.652100
  H      7.999970  -12.827100   62.594900
  H      7.624080  -13.292200   64.226000
  S     13.472600  -15.967800   68.368700
  C     13.645200  -15.500300   70.011600
  C     13.002600  -14.308900   70.348200
  C     12.289600  -13.792200   69.222600
  C     12.349100  -14.604200   68.084700
  H     13.166000  -13.895900   71.390300
  C     11.442200  -12.583300   69.409000
  H     11.667300  -11.927100   68.588500
  H     11.774100  -12.180200   70.379500
  C      9.869740  -12.790000   69.468200
  H      9.582080  -11.872400   69.959600
  H      9.658470  -13.630300   70.149400
  C      9.179100  -12.901600   68.100800
  H      9.104040  -13.937500   67.724800
  H      9.509010  -12.185700   67.299600
  H      8.183600  -12.498800   68.342800
  H      8.959570  -15.187900   64.546000
  H     14.343700  -15.951700   70.708700

 Total Charge           Charge          ....    0
 Multiplicity           Mult            ....    1
 Number of Electrons    NEL             ....  134
 Basis Dimension        Dim             ....  322

ORBITAL ENERGIES
----------------

  NO   OCC          E(Eh)            E(eV)
   0   2.0000     -88.968114     -2420.9455
   1   2.0000     -88.963502     -2420.8200
   2   2.0000     -10.323646      -280.9207
   3   2.0000     -10.322621      -280.8928
   4   2.0000     -10.314811      -280.6803
   5   2.0000     -10.314391      -280.6689
   6   2.0000     -10.302090      -280.3341
   7   2.0000     -10.300943      -280.3029
   8   2.0000     -10.296682      -280.1870
   9   2.0000     -10.293598      -280.1030
  10   2.0000     -10.291775      -280.0534
  11   2.0000     -10.291170      -280.0370
  12   2.0000     -10.290432      -280.0169
  13   2.0000     -10.285116      -279.8722
  14   2.0000     -10.284068      -279.8437
  15   2.0000     -10.272404      -279.5263
  16   2.0000      -8.082862      -219.9459
  17   2.0000      -8.078360      -219.8233
  18   2.0000      -6.041357      -164.3937
  19   2.0000      -6.037222      -164.2812
  20   2.0000      -6.036668      -164.2661
  21   2.0000      -6.033735      -164.1863
  22   2.0000      -6.032871      -164.1628
  23   2.0000      -6.029318      -164.0661
  24   2.0000      -1.007243       -27.4085
  25   2.0000      -0.982576       -26.7372
  26   2.0000      -0.913504       -24.8577
  27   2.0000      -0.901144       -24.5214
  28   2.0000      -0.867913       -23.6171
  29   2.0000      -0.847737       -23.0681
  30   2.0000      -0.844490       -22.9797
  31   2.0000      -0.807476       -21.9725
  32   2.0000      -0.781387       -21.2626
  33   2.0000      -0.769886       -20.9497
  34   2.0000      -0.713907       -19.4264
  35   2.0000      -0.703131       -19.1332
  36   2.0000      -0.686218       -18.6729
  37   2.0000      -0.657873       -17.9016
  38   2.0000      -0.641482       -17.4556
  39   2.0000      -0.617104       -16.7922
  40   2.0000      -0.588170       -16.0049
  41   2.0000      -0.569563       -15.4986
  42   2.0000      -0.551767       -15.0143
  43   2.0000      -0.543611       -14.7924
  44   2.0000      -0.536923       -14.6104
  45   2.0000      -0.531937       -14.4747
  46   2.0000      -0.518885       -14.1196
  47   2.0000      -0.508062       -13.8251
  48   2.0000      -0.502046       -13.6614
  49   2.0000      -0.493316       -13.4238
  50   2.0000      -0.482152       -13.1200
  51   2.0000      -0.481342       -13.0980
  52   2.0000      -0.471335       -12.8257
  53   2.0000      -0.463811       -12.6209
  54   2.0000      -0.457227       -12.4418
  55   2.0000      -0.451615       -12.2891
  56   2.0000      -0.443075       -12.0567
  57   2.0000      -0.435982       -11.8637
  58   2.0000      -0.432487       -11.7686
  59   2.0000      -0.423438       -11.5223
  60   2.0000      -0.414823       -11.2879
  61   2.0000      -0.411555       -11.1990
  62   2.0000      -0.406142       -11.0517
  63   2.0000      -0.336871        -9.1667
  64   2.0000      -0.330392        -8.9904
  65   2.0000      -0.328473        -8.9382
  66   2.0000      -0.290718        -7.9108
  67   0.0000       0.031406         0.8546
  68   0.0000       0.059805         1.6274
  69   0.0000       0.110340         3.0025
  70   0.0000       0.117838         3.2065
  71   0.0000       0.133247         3.6258

MULLIKEN ATOMIC CHARGES
-----------------------
   0 S :    0.130631
   1 C :   -0.131183
   2 C :   -0.096968
   3 C :    0.020391
   4 C :   -0.146802
   5 H :    0.010433
   6 C :    0.080913
   7 H :    0.030482
   8 H :    0.002946
   9 C :   -0.022857
  10 H :    0.020021
  11 H :    0.021889
  12 C :   -0.093486
  13 H :    0.049506
  14 H :    0.028160
  15 H :    0.044240
  16 S :    0.105987
  17 C :   -0.084638
  18 C :   -0.085283
  19 C :   -0.014711
  20 C :   -0.184800
  21 H :    0.047143
  22 C :    0.070217
  23 H :    0.018866
  24 H :    0.012071
  25 C :   -0.057582
  26 H :    0.023570
  27 H :    0.035915
  28 C :   -0.048949
  29 H :    0.055983
  30 H :    0.036854
  31 H :    0.021982
  32 H :    0.045105
  33 H :    0.053952
Sum of atomic charges:   -0.0000000

LOEWDIN ATOMIC CHARGES
----------------------
   0 S :    0.436264
   1 C :   -0.208322
   2 C :   -0.060315
   3 C :   -0.053942
   4 C :   -0.213227
   5 H :    0.028641
   6 C :   -0.026542
   7 H :    0.033680
   8 H :    0.025552
   9 C :   -0.036257
  10 H :    0.021769
  11 H :    0.023951
  12 C :   -0.076153
  13 H :    0.028830
  14 H :    0.024646
  15 H :    0.033276
  16 S :    0.403324
  17 C :   -0.191367
  18 C :   -0.087602
  19 C :   -0.048723
  20 C :   -0.200897
  21 H :    0.046006
  22 C :   -0.033939
  23 H :    0.026310
  24 H :    0.029351
  25 C :   -0.031304
  26 H :    0.021389
  27 H :    0.028986
  28 C :   -0.076735
  29 H :    0.022867
  30 H :    0.028654
  31 H :    0.026970
  32 H :    0.027518
  33 H :    0.027340

  Mayer bond orders larger than 0.100000
B(  0-S ,  1-C ) :   1.1505 B(  0-S ,  4-C ) :   1.1487 B(  1-C ,  2-C ) :   1.5873
B(  1-C , 32-H ) :   0.9621 B(  2-C ,  3-C ) :   1.2515 B(  2-C ,  6-C ) :   1.0145
B(  3-C ,  4-C ) :   1.5660 B(  3-C ,  5-H ) :   0.9990 B(  4-C , 20-C ) :   1.0469
B(  6-C ,  7-H ) :   0.9452 B(  6-C ,  8-H ) :   0.9353 B(  6-C ,  9-C ) :   1.0700
B(  9-C , 10-H ) :   0.9536 B(  9-C , 11-H ) :   0.9533 B(  9-C , 12-C ) :   1.0582
B( 12-C , 13-H ) :   0.9749 B( 12-C , 14-H ) :   0.9761 B( 12-C , 15-H ) :   0.9740
B( 16-S , 17-C ) :   1.1770 B( 16-S , 20-C ) :   1.1282 B( 17-C , 18-C ) :   1.6083
B( 17-C , 20-C ) :   0.1022 B( 17-C , 33-H ) :   0.9608 B( 18-C , 19-C ) :   1.2478
B( 18-C , 21-H ) :   0.9785 B( 19-C , 20-C ) :   1.5716 B( 19-C , 22-C ) :   1.0496
B( 22-C , 23-H ) :   0.9291 B( 22-C , 24-H ) :   0.9310 B( 22-C , 25-C ) :   1.0662
B( 25-C , 26-H ) :   0.9600 B( 25-C , 27-H ) :   0.9541 B( 25-C , 28-C ) :   1.0745
B( 28-C , 29-H ) :   0.9654 B( 28-C , 30-H ) :   0.9685 B( 28-C , 31-H ) :   0.9685

Dispersion correction           -0.017000128
FINAL SINGLE POINT ENERGY     -1339.872731127660

DIPOLE MOMENT
-------------
                                X             Y             Z
Electronic contribution:     17.64059     -20.76898       7.56002
Nuclear contribution   :    -17.78495      21.42104      -7.65918
                        -----------------------------------------
Total Dipole Moment    :     -0.14435       0.65206      -0.09917
                        -----------------------------------------
Magnitude (a.u.)       :      0.67517
Magnitude (Debye)      :      1.71614

Rotational constants in cm-1:     0.025556     0.008883     0.007621
Rotational constants in MHz :   766.148297   266.299273   228.482619

                             ****ORCA TERMINATED NORMALLY****
TOTAL RUN TIME: 0 days 0 hours 0 minutes 38 seconds 521 msec
