                         Program Version 4.2.1 -  RELEASE  -
|  1> ! wB97X-D3 SP def2-SVP
|  2> %pal
|  3> nprocs 16
|  4> end
|  5>
|  6> * xyz 0 1
|  7> S 	 -0.111709 	 77.4733 	 47.1134
|  8> C 	 -1.44678 	 76.4479 	 47.6441
|  9> C 	 -1.71786 	 75.3634 	 46.7911
| 10> C 	 -0.697628 	 75.2718 	 45.7559
| 11> C 	 0.315047 	 76.2029 	 45.8197
| 12> H 	 -0.676932 	 74.5626 	 44.9322
| 13> C 	 -2.88753 	 74.4247 	 46.9599
| 14> H 	 -3.22997 	 74.6026 	 47.9659
| 15> H 	 -2.67853 	 73.3842 	 46.9781
| 16> C 	 -4.06957 	 74.6068 	 45.9986
| 17> H 	 -4.87207 	 73.9332 	 46.4255
| 18> H 	 -4.47395 	 75.6264 	 46.1581
| 19> C 	 -3.91037 	 74.2037 	 44.5093
| 20> H 	 -4.89379 	 74.5532 	 44.0553
| 21> H 	 -3.11513 	 74.713 	 44.0573
| 22> H 	 -3.67161 	 73.13 	 44.4128
| 23> S 	 1.2432 	 75.4462 	 43.3236
| 24> C 	 2.73947 	 76.0869 	 42.685
| 25> C 	 3.43543 	 76.8588 	 43.5754
| 26> C 	 2.71578 	 76.9112 	 44.8019
| 27> C 	 1.44479 	 76.3393 	 44.8225
| 28> H 	 4.41536 	 77.3588 	 43.3435
| 29> C 	 3.27081 	 77.613 	 46.0227
| 30> H 	 4.34274 	 77.3645 	 46.2395
| 31> H 	 2.82031 	 77.2583 	 46.9738
| 32> C 	 3.14966 	 79.1574 	 45.9524
| 33> H 	 3.60806 	 79.393 	 46.9271
| 34> H 	 2.12266 	 79.5735 	 45.8288
| 35> C 	 3.96594 	 79.7677 	 44.8604
| 36> H 	 4.28821 	 80.8309 	 45.0846
| 37> H 	 3.37469 	 79.7547 	 43.9327
| 38> H 	 4.94194 	 79.2783 	 44.6322
| 39> H 	 -2.07369 	 76.6936 	 48.5039
| 40> H 	 3.15557 	 75.9769 	 41.6771
| 41> *
| 42>
| 43>                          ****END OF INPUT****

CARTESIAN COORDINATES (ANGSTROEM)
---------------------------------
  S     -0.111709   77.473300   47.113400
  C     -1.446780   76.447900   47.644100
  C     -1.717860   75.363400   46.791100
  C     -0.697628   75.271800   45.755900
  C      0.315047   76.202900   45.819700
  H     -0.676932   74.562600   44.932200
  C     -2.887530   74.424700   46.959900
  H     -3.229970   74.602600   47.965900
  H     -2.678530   73.384200   46.978100
  C     -4.069570   74.606800   45.998600
  H     -4.872070   73.933200   46.425500
  H     -4.473950   75.626400   46.158100
  C     -3.910370   74.203700   44.509300
  H     -4.893790   74.553200   44.055300
  H     -3.115130   74.713000   44.057300
  H     -3.671610   73.130000   44.412800
  S      1.243200   75.446200   43.323600
  C      2.739470   76.086900   42.685000
  C      3.435430   76.858800   43.575400
  C      2.715780   76.911200   44.801900
  C      1.444790   76.339300   44.822500
  H      4.415360   77.358800   43.343500
  C      3.270810   77.613000   46.022700
  H      4.342740   77.364500   46.239500
  H      2.820310   77.258300   46.973800
  C      3.149660   79.157400   45.952400
  H      3.608060   79.393000   46.927100
  H      2.122660   79.573500   45.828800
  C      3.965940   79.767700   44.860400
  H      4.288210   80.830900   45.084600
  H      3.374690   79.754700   43.932700
  H      4.941940   79.278300   44.632200
  H     -2.073690   76.693600   48.503900
  H      3.155570   75.976900   41.677100

 Total Charge           Charge          ....    0
 Multiplicity           Mult            ....    1
 Number of Electrons    NEL             ....  134
 Basis Dimension        Dim             ....  322

ORBITAL ENERGIES
----------------

  NO   OCC          E(Eh)            E(eV)
   0   2.0000     -88.970892     -2421.0211
   1   2.0000     -88.967622     -2420.9321
   2   2.0000     -10.345459      -281.5143
   3   2.0000     -10.333908      -281.1999
   4   2.0000     -10.321433      -280.8605
   5   2.0000     -10.320194      -280.8268
   6   2.0000     -10.309410      -280.5333
   7   2.0000     -10.304059      -280.3877
   8   2.0000     -10.300275      -280.2847
   9   2.0000     -10.298241      -280.2294
  10   2.0000     -10.292228      -280.0658
  11   2.0000     -10.291653      -280.0501
  12   2.0000     -10.288888      -279.9749
  13   2.0000     -10.285785      -279.8904
  14   2.0000     -10.282600      -279.8038
  15   2.0000     -10.279312      -279.7143
  16   2.0000      -8.083154      -219.9538
  17   2.0000      -8.082132      -219.9260
  18   2.0000      -6.041952      -164.4099
  19   2.0000      -6.040771      -164.3777
  20   2.0000      -6.038214      -164.3082
  21   2.0000      -6.036729      -164.2678
  22   2.0000      -6.033546      -164.1811
  23   2.0000      -6.032731      -164.1590
  24   2.0000      -1.002183       -27.2708
  25   2.0000      -0.976274       -26.5658
  26   2.0000      -0.908596       -24.7241
  27   2.0000      -0.907322       -24.6895
  28   2.0000      -0.869019       -23.6472
  29   2.0000      -0.847015       -23.0485
  30   2.0000      -0.840004       -22.8577
  31   2.0000      -0.819542       -22.3009
  32   2.0000      -0.782921       -21.3044
  33   2.0000      -0.770104       -20.9556
  34   2.0000      -0.701648       -19.0928
  35   2.0000      -0.693738       -18.8776
  36   2.0000      -0.681965       -18.5572
  37   2.0000      -0.666682       -18.1413
  38   2.0000      -0.632915       -17.2225
  39   2.0000      -0.616540       -16.7769
  40   2.0000      -0.599934       -16.3250
  41   2.0000      -0.576469       -15.6865
  42   2.0000      -0.547722       -14.9043
  43   2.0000      -0.542973       -14.7750
  44   2.0000      -0.538485       -14.6529
  45   2.0000      -0.533584       -14.5195
  46   2.0000      -0.517439       -14.0802
  47   2.0000      -0.515372       -14.0240
  48   2.0000      -0.496485       -13.5100
  49   2.0000      -0.495073       -13.4716
  50   2.0000      -0.485927       -13.2227
  51   2.0000      -0.477710       -12.9992
  52   2.0000      -0.476211       -12.9583
  53   2.0000      -0.469748       -12.7825
  54   2.0000      -0.462326       -12.5805
  55   2.0000      -0.448865       -12.2142
  56   2.0000      -0.431950       -11.7540
  57   2.0000      -0.430927       -11.7261
  58   2.0000      -0.427091       -11.6217
  59   2.0000      -0.424787       -11.5591
  60   2.0000      -0.417975       -11.3737
  61   2.0000      -0.415444       -11.3048
  62   2.0000      -0.404201       -10.9989
  63   2.0000      -0.361474        -9.8362
  64   2.0000      -0.331536        -9.0215
  65   2.0000      -0.328825        -8.9478
  66   2.0000      -0.284438        -7.7399
  67   0.0000       0.019151         0.5211
  68   0.0000       0.076830         2.0907
  69   0.0000       0.092640         2.5209
  70   0.0000       0.107057         2.9132
  71   0.0000       0.127625         3.4729

MULLIKEN ATOMIC CHARGES
-----------------------
   0 S :    0.091038
   1 C :   -0.121251
   2 C :   -0.073601
   3 C :   -0.023507
   4 C :   -0.081617
   5 H :    0.026688
   6 C :    0.093354
   7 H :    0.005641
   8 H :    0.019703
   9 C :   -0.113977
  10 H :    0.032647
  11 H :    0.029785
  12 C :   -0.041285
  13 H :    0.054228
  14 H :    0.028450
  15 H :    0.037839
  16 S :    0.075512
  17 C :   -0.071380
  18 C :   -0.043288
  19 C :   -0.062741
  20 C :   -0.123669
  21 H :    0.044771
  22 C :    0.001403
  23 H :    0.031825
  24 H :    0.027500
  25 C :   -0.051536
  26 H :    0.030524
  27 H :    0.045677
  28 C :   -0.091132
  29 H :    0.041906
  30 H :    0.044852
  31 H :    0.022862
  32 H :    0.054915
  33 H :    0.057865
Sum of atomic charges:    0.0000000

LOEWDIN ATOMIC CHARGES
----------------------
   0 S :    0.358422
   1 C :   -0.189069
   2 C :   -0.056577
   3 C :   -0.070336
   4 C :   -0.150762
   5 H :    0.023711
   6 C :   -0.036374
   7 H :    0.031517
   8 H :    0.025964
   9 C :   -0.044600
  10 H :    0.029150
  11 H :    0.023923
  12 C :   -0.066265
  13 H :    0.042500
  14 H :    0.014476
  15 H :    0.029189
  16 S :    0.403649
  17 C :   -0.181600
  18 C :   -0.077823
  19 C :   -0.061065
  20 C :   -0.190912
  21 H :    0.046662
  22 C :   -0.043274
  23 H :    0.034760
  24 H :    0.025551
  25 C :   -0.044535
  26 H :    0.027003
  27 H :    0.030481
  28 C :   -0.079107
  29 H :    0.032777
  30 H :    0.027359
  31 H :    0.019936
  32 H :    0.029650
  33 H :    0.035620

  Mayer bond orders larger than 0.100000
B(  0-S ,  1-C ) :   1.1264 B(  0-S ,  4-C ) :   1.1017 B(  1-C ,  2-C ) :   1.6380
B(  1-C , 32-H ) :   0.9580 B(  2-C ,  3-C ) :   1.2066 B(  2-C ,  6-C ) :   1.0323
B(  3-C ,  4-C ) :   1.6213 B(  3-C ,  5-H ) :   0.9763 B(  4-C , 20-C ) :   1.0600
B(  6-C ,  7-H ) :   0.9283 B(  6-C ,  8-H ) :   0.9410 B(  6-C ,  9-C ) :   1.0768
B(  9-C , 10-H ) :   0.9541 B(  9-C , 11-H ) :   0.9557 B(  9-C , 12-C ) :   1.0692
B( 12-C , 13-H ) :   0.9717 B( 12-C , 14-H ) :   0.9762 B( 12-C , 15-H ) :   0.9738
B( 16-S , 17-C ) :   1.1597 B( 16-S , 20-C ) :   1.1183 B( 17-C , 18-C ) :   1.6198
B( 17-C , 33-H ) :   0.9584 B( 18-C , 19-C ) :   1.2423 B( 18-C , 21-H ) :   0.9796
B( 19-C , 20-C ) :   1.5960 B( 19-C , 22-C ) :   1.0400 B( 22-C , 23-H ) :   0.9402
B( 22-C , 24-H ) :   0.9387 B( 22-C , 25-C ) :   1.0674 B( 25-C , 26-H ) :   0.9554
B( 25-C , 27-H ) :   0.9536 B( 25-C , 28-C ) :   1.0865 B( 28-C , 29-H ) :   0.9698
B( 28-C , 30-H ) :   0.9695 B( 28-C , 31-H ) :   0.9697

Dispersion correction           -0.014616636
FINAL SINGLE POINT ENERGY     -1339.871017341860

DIPOLE MOMENT
-------------
                                X             Y             Z
Electronic contribution:      4.60159      -2.48647      -1.10375
Nuclear contribution   :     -4.61635       2.44366       1.11730
                        -----------------------------------------
Total Dipole Moment    :     -0.01476      -0.04281       0.01355
                        -----------------------------------------
Magnitude (a.u.)       :      0.04727
Magnitude (Debye)      :      0.12015

Rotational constants in cm-1:     0.023784     0.008060     0.006351
Rotational constants in MHz :   713.034817   241.632466   190.384932

                             ****ORCA TERMINATED NORMALLY****
TOTAL RUN TIME: 0 days 0 hours 0 minutes 33 seconds 198 msec
