                         Program Version 4.2.1 -  RELEASE  -
|  1> ! wB97X-D3 SP def2-SVP
|  2> %pal
|  3> nprocs 16
|  4> end
|  5>
|  6> * xyz 0 1
|  7> S 	 -35.1598 	 61.966 	 110.655
|  8> C 	 -36.5798 	 62.9012 	 111.242
|  9> C 	 -36.3014 	 63.9019 	 112.108
| 10> C 	 -34.8899 	 64.0913 	 112.113
| 11> C 	 -34.069 	 63.1422 	 111.431
| 12> H 	 -34.5923 	 64.9426 	 112.693
| 13> C 	 -37.3579 	 64.8079 	 112.728
| 14> H 	 -37.7691 	 64.178 	 113.411
| 15> H 	 -37.961 	 65.0928 	 111.831
| 16> C 	 -36.9628 	 66.1205 	 113.386
| 17> H 	 -37.9149 	 66.4474 	 113.836
| 18> H 	 -36.3495 	 65.8553 	 114.192
| 19> C 	 -36.3115 	 67.0844 	 112.42
| 20> H 	 -36.4433 	 68.0825 	 112.821
| 21> H 	 -35.2912 	 66.864 	 112.237
| 22> H 	 -36.8305 	 67 	 111.469
| 23> S 	 -31.8478 	 63.9071 	 112.819
| 24> C 	 -30.3012 	 63.389 	 112.252
| 25> C 	 -30.357 	 62.8102 	 110.97
| 26> C 	 -31.6703 	 62.6931 	 110.497
| 27> C 	 -32.606 	 63.1807 	 111.398
| 28> H 	 -29.4426 	 62.5366 	 110.405
| 29> C 	 -32.0704 	 62.1077 	 109.113
| 30> H 	 -33.09 	 61.5813 	 109.106
| 31> H 	 -31.327 	 61.3952 	 108.814
| 32> C 	 -32.1455 	 63.2293 	 107.97
| 33> H 	 -32.1859 	 62.7265 	 106.981
| 34> H 	 -31.2019 	 63.8512 	 108.043
| 35> C 	 -33.4207 	 64.216 	 108.113
| 36> H 	 -33.5547 	 64.8483 	 107.298
| 37> H 	 -33.4791 	 64.7197 	 109.085
| 38> H 	 -34.333 	 63.5782 	 108.069
| 39> H 	 -37.6287 	 62.63 	 111.014
| 40> H 	 -29.355 	 63.6932 	 112.594
| 41> *
| 42>
| 43>                          ****END OF INPUT****

CARTESIAN COORDINATES (ANGSTROEM)
---------------------------------
  S    -35.159800   61.966000  110.655000
  C    -36.579800   62.901200  111.242000
  C    -36.301400   63.901900  112.108000
  C    -34.889900   64.091300  112.113000
  C    -34.069000   63.142200  111.431000
  H    -34.592300   64.942600  112.693000
  C    -37.357900   64.807900  112.728000
  H    -37.769100   64.178000  113.411000
  H    -37.961000   65.092800  111.831000
  C    -36.962800   66.120500  113.386000
  H    -37.914900   66.447400  113.836000
  H    -36.349500   65.855300  114.192000
  C    -36.311500   67.084400  112.420000
  H    -36.443300   68.082500  112.821000
  H    -35.291200   66.864000  112.237000
  H    -36.830500   67.000000  111.469000
  S    -31.847800   63.907100  112.819000
  C    -30.301200   63.389000  112.252000
  C    -30.357000   62.810200  110.970000
  C    -31.670300   62.693100  110.497000
  C    -32.606000   63.180700  111.398000
  H    -29.442600   62.536600  110.405000
  C    -32.070400   62.107700  109.113000
  H    -33.090000   61.581300  109.106000
  H    -31.327000   61.395200  108.814000
  C    -32.145500   63.229300  107.970000
  H    -32.185900   62.726500  106.981000
  H    -31.201900   63.851200  108.043000
  C    -33.420700   64.216000  108.113000
  H    -33.554700   64.848300  107.298000
  H    -33.479100   64.719700  109.085000
  H    -34.333000   63.578200  108.069000
  H    -37.628700   62.630000  111.014000
  H    -29.355000   63.693200  112.594000

 Total Charge           Charge          ....    0
 Multiplicity           Mult            ....    1
 Number of Electrons    NEL             ....  134
 Basis Dimension        Dim             ....  322

ORBITAL ENERGIES
----------------

  NO   OCC          E(Eh)            E(eV)
   0   2.0000     -88.971432     -2421.0357
   1   2.0000     -88.970146     -2421.0008
   2   2.0000     -10.339073      -281.3405
   3   2.0000     -10.329186      -281.0714
   4   2.0000     -10.314900      -280.6827
   5   2.0000     -10.312661      -280.6218
   6   2.0000     -10.304359      -280.3959
   7   2.0000     -10.301065      -280.3062
   8   2.0000     -10.298556      -280.2380
   9   2.0000     -10.297701      -280.2147
  10   2.0000     -10.294913      -280.1388
  11   2.0000     -10.294081      -280.1162
  12   2.0000     -10.289314      -279.9865
  13   2.0000     -10.284577      -279.8576
  14   2.0000     -10.275885      -279.6211
  15   2.0000     -10.270683      -279.4795
  16   2.0000      -8.084565      -219.9922
  17   2.0000      -8.083853      -219.9728
  18   2.0000      -6.043066      -164.4402
  19   2.0000      -6.042671      -164.4294
  20   2.0000      -6.039127      -164.3330
  21   2.0000      -6.038734      -164.3223
  22   2.0000      -6.035347      -164.2301
  23   2.0000      -6.034390      -164.2041
  24   2.0000      -1.003384       -27.3035
  25   2.0000      -0.980983       -26.6939
  26   2.0000      -0.921330       -25.0707
  27   2.0000      -0.891691       -24.2641
  28   2.0000      -0.870399       -23.6848
  29   2.0000      -0.846832       -23.0435
  30   2.0000      -0.837456       -22.7883
  31   2.0000      -0.809187       -22.0191
  32   2.0000      -0.787689       -21.4341
  33   2.0000      -0.773482       -21.0475
  34   2.0000      -0.713627       -19.4188
  35   2.0000      -0.698383       -19.0040
  36   2.0000      -0.686833       -18.6897
  37   2.0000      -0.666611       -18.1394
  38   2.0000      -0.629255       -17.1229
  39   2.0000      -0.613746       -16.7009
  40   2.0000      -0.591922       -16.1070
  41   2.0000      -0.582943       -15.8627
  42   2.0000      -0.562810       -15.3148
  43   2.0000      -0.543624       -14.7928
  44   2.0000      -0.542708       -14.7678
  45   2.0000      -0.531984       -14.4760
  46   2.0000      -0.515387       -14.0244
  47   2.0000      -0.500816       -13.6279
  48   2.0000      -0.497354       -13.5337
  49   2.0000      -0.492141       -13.3918
  50   2.0000      -0.486849       -13.2478
  51   2.0000      -0.482911       -13.1407
  52   2.0000      -0.467379       -12.7180
  53   2.0000      -0.464907       -12.6508
  54   2.0000      -0.457515       -12.4496
  55   2.0000      -0.452959       -12.3256
  56   2.0000      -0.443482       -12.0678
  57   2.0000      -0.436720       -11.8838
  58   2.0000      -0.430820       -11.7232
  59   2.0000      -0.426555       -11.6072
  60   2.0000      -0.418055       -11.3759
  61   2.0000      -0.417109       -11.3501
  62   2.0000      -0.408744       -11.1225
  63   2.0000      -0.352311        -9.5869
  64   2.0000      -0.337843        -9.1932
  65   2.0000      -0.331371        -9.0171
  66   2.0000      -0.278003        -7.5648
  67   0.0000       0.015461         0.4207
  68   0.0000       0.078955         2.1485
  69   0.0000       0.105903         2.8818
  70   0.0000       0.111661         3.0384
  71   0.0000       0.129898         3.5347

MULLIKEN ATOMIC CHARGES
-----------------------
   0 S :    0.100813
   1 C :   -0.156714
   2 C :   -0.088953
   3 C :   -0.019417
   4 C :   -0.082902
   5 H :   -0.003234
   6 C :    0.059541
   7 H :    0.022812
   8 H :    0.048796
   9 C :   -0.059146
  10 H :    0.031699
  11 H :    0.018481
  12 C :   -0.020330
  13 H :    0.038926
  14 H :    0.032922
  15 H :    0.026114
  16 S :    0.114353
  17 C :   -0.053722
  18 C :   -0.073615
  19 C :   -0.035264
  20 C :   -0.158465
  21 H :    0.031754
  22 C :    0.039743
  23 H :    0.047877
  24 H :    0.022320
  25 C :   -0.100228
  26 H :    0.041878
  27 H :    0.038580
  28 C :   -0.050710
  29 H :    0.023631
  30 H :    0.055339
  31 H :    0.021062
  32 H :    0.047125
  33 H :    0.038933
Sum of atomic charges:    0.0000000

LOEWDIN ATOMIC CHARGES
----------------------
   0 S :    0.388424
   1 C :   -0.185258
   2 C :   -0.066320
   3 C :   -0.075136
   4 C :   -0.182870
   5 H :    0.016712
   6 C :   -0.023825
   7 H :    0.022886
   8 H :    0.041317
   9 C :   -0.040245
  10 H :    0.033291
  11 H :    0.015958
  12 C :   -0.056190
  13 H :    0.030351
  14 H :    0.022273
  15 H :    0.027969
  16 S :    0.424682
  17 C :   -0.188886
  18 C :   -0.070842
  19 C :   -0.061814
  20 C :   -0.189039
  21 H :    0.038564
  22 C :   -0.035268
  23 H :    0.027431
  24 H :    0.025206
  25 C :   -0.036717
  26 H :    0.025102
  27 H :    0.025086
  28 C :   -0.070151
  29 H :    0.014425
  30 H :    0.030193
  31 H :    0.023824
  32 H :    0.029225
  33 H :    0.019642

  Mayer bond orders larger than 0.100000
B(  0-S ,  1-C ) :   1.1246 B(  0-S ,  4-C ) :   1.1242 B(  1-C ,  2-C ) :   1.6429
B(  1-C , 32-H ) :   0.9575 B(  2-C ,  3-C ) :   1.2841 B(  2-C ,  6-C ) :   0.9705
B(  3-C ,  4-C ) :   1.5170 B(  3-C ,  5-H ) :   0.9707 B(  4-C , 20-C ) :   1.0952
B(  6-C ,  7-H ) :   0.9272 B(  6-C ,  8-H ) :   0.9496 B(  6-C ,  9-C ) :   1.1078
B(  9-C , 10-H ) :   0.9478 B(  9-C , 11-H ) :   0.9466 B(  9-C , 12-C ) :   1.0711
B( 12-C , 13-H ) :   0.9718 B( 12-C , 14-H ) :   0.9730 B( 12-C , 15-H ) :   0.9753
B( 16-S , 17-C ) :   1.1660 B( 16-S , 20-C ) :   1.1435 B( 17-C , 18-C ) :   1.5857
B( 17-C , 20-C ) :   0.1028 B( 17-C , 33-H ) :   0.9670 B( 18-C , 19-C ) :   1.2819
B( 18-C , 21-H ) :   0.9817 B( 19-C , 20-C ) :   1.5533 B( 19-C , 22-C ) :   1.0279
B( 22-C , 23-H ) :   0.9419 B( 22-C , 24-H ) :   0.9347 B( 22-C , 25-C ) :   1.0561
B( 25-C , 26-H ) :   0.9602 B( 25-C , 27-H ) :   0.9594 B( 25-C , 28-C ) :   1.0625
B( 28-C , 29-H ) :   0.9770 B( 28-C , 30-H ) :   0.9755 B( 28-C , 31-H ) :   0.9735

Dispersion correction           -0.015710533
FINAL SINGLE POINT ENERGY     -1339.858347389073

DIPOLE MOMENT
-------------
                                X             Y             Z
Electronic contribution:      8.63793     -13.13933       8.13771
Nuclear contribution   :     -8.81427      13.50388      -8.19351
                        -----------------------------------------
Total Dipole Moment    :     -0.17635       0.36455      -0.05580
                        -----------------------------------------
Magnitude (a.u.)       :      0.40879
Magnitude (Debye)      :      1.03906

Rotational constants in cm-1:     0.019604     0.009445     0.007932
Rotational constants in MHz :   587.711929   283.166893   237.781912

                             ****ORCA TERMINATED NORMALLY****
TOTAL RUN TIME: 0 days 0 hours 0 minutes 29 seconds 148 msec
