                         Program Version 4.2.1 -  RELEASE  -
|  1> ! wB97X-D3 SP def2-SVP
|  2> %pal
|  3> nprocs 16
|  4> end
|  5>
|  6> * xyz 0 1
|  7> S 	 45.7187 	 10.0128 	 79.5523
|  8> C 	 44.0944 	 10.1941 	 80.2017
|  9> C 	 43.2378 	 10.3868 	 79.1297
| 10> C 	 43.9103 	 10.4229 	 77.8547
| 11> C 	 45.2946 	 10.3222 	 77.9237
| 12> H 	 43.384 	 10.6327 	 76.8963
| 13> C 	 41.716 	 10.5276 	 79.2523
| 14> H 	 41.2276 	 9.83544 	 78.5948
| 15> H 	 41.3987 	 11.4799 	 78.8201
| 16> C 	 41.0482 	 10.2865 	 80.6332
| 17> H 	 41.2638 	 9.1797 	 80.883
| 18> H 	 41.4322 	 10.9473 	 81.4292
| 19> C 	 39.4792 	 10.4402 	 80.5566
| 20> H 	 39.0055 	 10.1183 	 81.5021
| 21> H 	 39.2245 	 11.4785 	 80.5201
| 22> H 	 38.913 	 10.027 	 79.7068
| 23> S 	 47.0969 	 9.06421 	 76.3699
| 24> C 	 47.778 	 9.9388 	 75.0596
| 25> C 	 47.3142 	 11.2665 	 75.0181
| 26> C 	 46.378 	 11.5699 	 76.051
| 27> C 	 46.2663 	 10.4711 	 76.8798
| 28> H 	 47.6629 	 11.977 	 74.2085
| 29> C 	 45.5671 	 12.8025 	 76.2115
| 30> H 	 46.1632 	 13.6721 	 76.1128
| 31> H 	 45.1008 	 12.9552 	 77.16
| 32> C 	 44.412 	 12.8694 	 75.1473
| 33> H 	 44.1153 	 11.7876 	 75.0282
| 34> H 	 44.732 	 13.0667 	 74.1337
| 35> C 	 43.1987 	 13.774 	 75.4651
| 36> H 	 42.7241 	 13.6672 	 76.4525
| 37> H 	 42.4723 	 13.6057 	 74.6487
| 38> H 	 43.6594 	 14.7946 	 75.3888
| 39> H 	 43.8501 	 10.0264 	 81.1987
| 40> H 	 48.4361 	 9.57242 	 74.3284
| 41> *
| 42>
| 43>                          ****END OF INPUT****

CARTESIAN COORDINATES (ANGSTROEM)
---------------------------------
  S     45.718700   10.012800   79.552300
  C     44.094400   10.194100   80.201700
  C     43.237800   10.386800   79.129700
  C     43.910300   10.422900   77.854700
  C     45.294600   10.322200   77.923700
  H     43.384000   10.632700   76.896300
  C     41.716000   10.527600   79.252300
  H     41.227600    9.835440   78.594800
  H     41.398700   11.479900   78.820100
  C     41.048200   10.286500   80.633200
  H     41.263800    9.179700   80.883000
  H     41.432200   10.947300   81.429200
  C     39.479200   10.440200   80.556600
  H     39.005500   10.118300   81.502100
  H     39.224500   11.478500   80.520100
  H     38.913000   10.027000   79.706800
  S     47.096900    9.064210   76.369900
  C     47.778000    9.938800   75.059600
  C     47.314200   11.266500   75.018100
  C     46.378000   11.569900   76.051000
  C     46.266300   10.471100   76.879800
  H     47.662900   11.977000   74.208500
  C     45.567100   12.802500   76.211500
  H     46.163200   13.672100   76.112800
  H     45.100800   12.955200   77.160000
  C     44.412000   12.869400   75.147300
  H     44.115300   11.787600   75.028200
  H     44.732000   13.066700   74.133700
  C     43.198700   13.774000   75.465100
  H     42.724100   13.667200   76.452500
  H     42.472300   13.605700   74.648700
  H     43.659400   14.794600   75.388800
  H     43.850100   10.026400   81.198700
  H     48.436100    9.572420   74.328400

 Total Charge           Charge          ....    0
 Multiplicity           Mult            ....    1
 Number of Electrons    NEL             ....  134
 Basis Dimension        Dim             ....  322

ORBITAL ENERGIES
----------------

  NO   OCC          E(Eh)            E(eV)
   0   2.0000     -88.970585     -2421.0127
   1   2.0000     -88.958820     -2420.6925
   2   2.0000     -10.323338      -280.9123
   3   2.0000     -10.317844      -280.7628
   4   2.0000     -10.314497      -280.6717
   5   2.0000     -10.309428      -280.5338
   6   2.0000     -10.303583      -280.3748
   7   2.0000     -10.302898      -280.3561
   8   2.0000     -10.302670      -280.3499
   9   2.0000     -10.301190      -280.3096
  10   2.0000     -10.294532      -280.1285
  11   2.0000     -10.292611      -280.0762
  12   2.0000     -10.290436      -280.0170
  13   2.0000     -10.288233      -279.9570
  14   2.0000     -10.286360      -279.9061
  15   2.0000     -10.283207      -279.8203
  16   2.0000      -8.086342      -220.0406
  17   2.0000      -8.074324      -219.7135
  18   2.0000      -6.044613      -164.4823
  19   2.0000      -6.040712      -164.3761
  20   2.0000      -6.037286      -164.2829
  21   2.0000      -6.032809      -164.1611
  22   2.0000      -6.028529      -164.0446
  23   2.0000      -6.025259      -163.9556
  24   2.0000      -1.014575       -27.6080
  25   2.0000      -0.986652       -26.8482
  26   2.0000      -0.910654       -24.7802
  27   2.0000      -0.905301       -24.6345
  28   2.0000      -0.868363       -23.6294
  29   2.0000      -0.854404       -23.2495
  30   2.0000      -0.841032       -22.8856
  31   2.0000      -0.811153       -22.0726
  32   2.0000      -0.785640       -21.3784
  33   2.0000      -0.773494       -21.0478
  34   2.0000      -0.709658       -19.3108
  35   2.0000      -0.698957       -19.0196
  36   2.0000      -0.695925       -18.9371
  37   2.0000      -0.661455       -17.9991
  38   2.0000      -0.642642       -17.4872
  39   2.0000      -0.613084       -16.6829
  40   2.0000      -0.601045       -16.3553
  41   2.0000      -0.569620       -15.5001
  42   2.0000      -0.563057       -15.3216
  43   2.0000      -0.559165       -15.2156
  44   2.0000      -0.527635       -14.3577
  45   2.0000      -0.522664       -14.2224
  46   2.0000      -0.517980       -14.0950
  47   2.0000      -0.513555       -13.9746
  48   2.0000      -0.507351       -13.8057
  49   2.0000      -0.496715       -13.5163
  50   2.0000      -0.491459       -13.3733
  51   2.0000      -0.479935       -13.0597
  52   2.0000      -0.478666       -13.0252
  53   2.0000      -0.464161       -12.6305
  54   2.0000      -0.457641       -12.4530
  55   2.0000      -0.449317       -12.2265
  56   2.0000      -0.445689       -12.1278
  57   2.0000      -0.438705       -11.9378
  58   2.0000      -0.433779       -11.8037
  59   2.0000      -0.430091       -11.7034
  60   2.0000      -0.421093       -11.4585
  61   2.0000      -0.413245       -11.2450
  62   2.0000      -0.408056       -11.1038
  63   2.0000      -0.339440        -9.2366
  64   2.0000      -0.331634        -9.0242
  65   2.0000      -0.323636        -8.8066
  66   2.0000      -0.300262        -8.1705
  67   0.0000       0.039753         1.0817
  68   0.0000       0.067817         1.8454
  69   0.0000       0.120290         3.2733
  70   0.0000       0.124355         3.3839
  71   0.0000       0.127746         3.4762

MULLIKEN ATOMIC CHARGES
-----------------------
   0 S :    0.100507
   1 C :   -0.110313
   2 C :   -0.079428
   3 C :    0.024285
   4 C :   -0.164830
   5 H :    0.018865
   6 C :    0.062985
   7 H :    0.022256
   8 H :    0.024435
   9 C :   -0.120143
  10 H :    0.048892
  11 H :    0.047279
  12 C :   -0.055366
  13 H :    0.036532
  14 H :    0.020112
  15 H :    0.037794
  16 S :    0.146619
  17 C :   -0.076127
  18 C :   -0.068066
  19 C :   -0.023053
  20 C :   -0.168609
  21 H :    0.038488
  22 C :    0.140767
  23 H :    0.011527
  24 H :    0.022608
  25 C :   -0.133091
  26 H :    0.028505
  27 H :    0.022469
  28 C :   -0.058359
  29 H :    0.046849
  30 H :    0.047026
  31 H :    0.039528
  32 H :    0.031057
  33 H :    0.038001
Sum of atomic charges:   -0.0000000

LOEWDIN ATOMIC CHARGES
----------------------
   0 S :    0.416310
   1 C :   -0.192532
   2 C :   -0.061150
   3 C :   -0.072846
   4 C :   -0.208921
   5 H :    0.034417
   6 C :   -0.037853
   7 H :    0.030440
   8 H :    0.028798
   9 C :   -0.043475
  10 H :    0.033313
  11 H :    0.026100
  12 C :   -0.073064
  13 H :    0.030432
  14 H :    0.020568
  15 H :    0.028033
  16 S :    0.450844
  17 C :   -0.193743
  18 C :   -0.072387
  19 C :   -0.046877
  20 C :   -0.220625
  21 H :    0.040596
  22 C :   -0.026710
  23 H :    0.025852
  24 H :    0.031626
  25 C :   -0.044578
  26 H :    0.020096
  27 H :    0.020203
  28 C :   -0.070209
  29 H :    0.025687
  30 H :    0.033188
  31 H :    0.032338
  32 H :    0.016291
  33 H :    0.019834

  Mayer bond orders larger than 0.100000
B(  0-S ,  1-C ) :   1.1338 B(  0-S ,  4-C ) :   1.1744 B(  1-C ,  2-C ) :   1.5948
B(  1-C , 32-H ) :   0.9786 B(  2-C ,  3-C ) :   1.2602 B(  2-C ,  6-C ) :   1.0104
B(  3-C ,  4-C ) :   1.5501 B(  3-C ,  5-H ) :   0.9917 B(  4-C , 20-C ) :   1.0036
B(  6-C ,  7-H ) :   0.9396 B(  6-C ,  8-H ) :   0.9388 B(  6-C ,  9-C ) :   1.0670
B(  9-C , 10-H ) :   0.9577 B(  9-C , 11-H ) :   0.9525 B(  9-C , 12-C ) :   1.0724
B( 12-C , 13-H ) :   0.9749 B( 12-C , 14-H ) :   0.9750 B( 12-C , 15-H ) :   0.9779
B( 16-S , 17-C ) :   1.1690 B( 16-S , 20-C ) :   1.1748 B( 17-C , 18-C ) :   1.5896
B( 17-C , 20-C ) :   0.1012 B( 17-C , 33-H ) :   0.9752 B( 18-C , 19-C ) :   1.2467
B( 18-C , 21-H ) :   0.9807 B( 19-C , 20-C ) :   1.5743 B( 19-C , 22-C ) :   1.0789
B( 22-C , 23-H ) :   0.9196 B( 22-C , 24-H ) :   0.9273 B( 22-C , 25-C ) :   1.0292
B( 25-C , 26-H ) :   0.9599 B( 25-C , 27-H ) :   0.9522 B( 25-C , 28-C ) :   1.0766
B( 28-C , 29-H ) :   0.9755 B( 28-C , 30-H ) :   0.9737 B( 28-C , 31-H ) :   0.9741

Dispersion correction           -0.014726894
FINAL SINGLE POINT ENERGY     -1339.881725938936

DIPOLE MOMENT
-------------
                                X             Y             Z
Electronic contribution:     27.94276     -14.39130       0.22437
Nuclear contribution   :    -28.49895      14.77666      -0.57194
                        -----------------------------------------
Total Dipole Moment    :     -0.55618       0.38536      -0.34757
                        -----------------------------------------
Magnitude (a.u.)       :      0.76069
Magnitude (Debye)      :      1.93351

Rotational constants in cm-1:     0.020422     0.008246     0.006409
Rotational constants in MHz :   612.234032   247.207763   192.133552

                             ****ORCA TERMINATED NORMALLY****
TOTAL RUN TIME: 0 days 0 hours 0 minutes 28 seconds 879 msec
