                         Program Version 4.2.1 -  RELEASE  -
|  1> ! wB97X-D3 SP def2-SVP
|  2> %pal
|  3> nprocs 16
|  4> end
|  5>
|  6> * xyz 0 1
|  7> S 	 53.4812 	 13.0603 	 76.832
|  8> C 	 54.4409 	 14.2663 	 77.6834
|  9> C 	 55.7687 	 13.8289 	 77.7796
| 10> C 	 55.967 	 12.4753 	 77.3387
| 11> C 	 54.8453 	 11.946 	 76.6875
| 12> H 	 56.8825 	 11.9434 	 77.3459
| 13> C 	 56.8579 	 14.5512 	 78.4626
| 14> H 	 57.6971 	 14.5801 	 77.7653
| 15> H 	 57.0731 	 13.8269 	 79.2485
| 16> C 	 56.6882 	 15.9817 	 79.0658
| 17> H 	 55.8212 	 15.9109 	 79.8269
| 18> H 	 57.5684 	 16.3783 	 79.5149
| 19> C 	 56.2508 	 17.0572 	 78.0376
| 20> H 	 57.0788 	 17.4567 	 77.4771
| 21> H 	 55.5678 	 16.7009 	 77.2756
| 22> H 	 55.6963 	 17.833 	 78.4908
| 23> S 	 53.3407 	 9.64362 	 76.8676
| 24> C 	 53.6848 	 8.32857 	 75.7795
| 25> C 	 55.0183 	 8.43288 	 75.3259
| 26> C 	 55.5419 	 9.78094 	 75.4953
| 27> C 	 54.7104 	 10.5576 	 76.2754
| 28> H 	 55.5439 	 7.7113 	 74.674
| 29> C 	 56.9292 	 10.068 	 74.8701
| 30> H 	 57.0461 	 11.1637 	 74.881
| 31> H 	 57.0378 	 9.8155 	 73.8203
| 32> C 	 58.0425 	 9.35553 	 75.7174
| 33> H 	 57.9647 	 8.2629 	 75.6712
| 34> H 	 57.881 	 9.60626 	 76.7516
| 35> C 	 59.4952 	 9.66531 	 75.2128
| 36> H 	 59.5748 	 9.24513 	 74.2277
| 37> H 	 60.273 	 9.05143 	 75.6311
| 38> H 	 59.8118 	 10.7051 	 75.1373
| 39> H 	 54.2144 	 15.2805 	 78.1335
| 40> H 	 53.0975 	 7.44788 	 75.4982
| 41> *
| 42>
| 43>                          ****END OF INPUT****

CARTESIAN COORDINATES (ANGSTROEM)
---------------------------------
  S     53.481200   13.060300   76.832000
  C     54.440900   14.266300   77.683400
  C     55.768700   13.828900   77.779600
  C     55.967000   12.475300   77.338700
  C     54.845300   11.946000   76.687500
  H     56.882500   11.943400   77.345900
  C     56.857900   14.551200   78.462600
  H     57.697100   14.580100   77.765300
  H     57.073100   13.826900   79.248500
  C     56.688200   15.981700   79.065800
  H     55.821200   15.910900   79.826900
  H     57.568400   16.378300   79.514900
  C     56.250800   17.057200   78.037600
  H     57.078800   17.456700   77.477100
  H     55.567800   16.700900   77.275600
  H     55.696300   17.833000   78.490800
  S     53.340700    9.643620   76.867600
  C     53.684800    8.328570   75.779500
  C     55.018300    8.432880   75.325900
  C     55.541900    9.780940   75.495300
  C     54.710400   10.557600   76.275400
  H     55.543900    7.711300   74.674000
  C     56.929200   10.068000   74.870100
  H     57.046100   11.163700   74.881000
  H     57.037800    9.815500   73.820300
  C     58.042500    9.355530   75.717400
  H     57.964700    8.262900   75.671200
  H     57.881000    9.606260   76.751600
  C     59.495200    9.665310   75.212800
  H     59.574800    9.245130   74.227700
  H     60.273000    9.051430   75.631100
  H     59.811800   10.705100   75.137300
  H     54.214400   15.280500   78.133500
  H     53.097500    7.447880   75.498200

 Total Charge           Charge          ....    0
 Multiplicity           Mult            ....    1
 Number of Electrons    NEL             ....  134
 Basis Dimension        Dim             ....  322

ORBITAL ENERGIES
----------------

  NO   OCC          E(Eh)            E(eV)
   0   2.0000     -88.968909     -2420.9671
   1   2.0000     -88.966950     -2420.9138
   2   2.0000     -10.332432      -281.1598
   3   2.0000     -10.326682      -281.0033
   4   2.0000     -10.321476      -280.8616
   5   2.0000     -10.318832      -280.7897
   6   2.0000     -10.305405      -280.4243
   7   2.0000     -10.301802      -280.3263
   8   2.0000     -10.299271      -280.2574
   9   2.0000     -10.299114      -280.2531
  10   2.0000     -10.298138      -280.2266
  11   2.0000     -10.294975      -280.1405
  12   2.0000     -10.294794      -280.1356
  13   2.0000     -10.292504      -280.0733
  14   2.0000     -10.278611      -279.6952
  15   2.0000     -10.272688      -279.5341
  16   2.0000      -8.082573      -219.9380
  17   2.0000      -8.081703      -219.9143
  18   2.0000      -6.041278      -164.3915
  19   2.0000      -6.040396      -164.3675
  20   2.0000      -6.037104      -164.2779
  21   2.0000      -6.036256      -164.2549
  22   2.0000      -6.033291      -164.1742
  23   2.0000      -6.032192      -164.1443
  24   2.0000      -1.003988       -27.3199
  25   2.0000      -0.980498       -26.6807
  26   2.0000      -0.911817       -24.8118
  27   2.0000      -0.902994       -24.5717
  28   2.0000      -0.864171       -23.5153
  29   2.0000      -0.853754       -23.2318
  30   2.0000      -0.845293       -23.0016
  31   2.0000      -0.808816       -22.0090
  32   2.0000      -0.783620       -21.3234
  33   2.0000      -0.774725       -21.0813
  34   2.0000      -0.709070       -19.2948
  35   2.0000      -0.707821       -19.2608
  36   2.0000      -0.696674       -18.9575
  37   2.0000      -0.662486       -18.0272
  38   2.0000      -0.632059       -17.1992
  39   2.0000      -0.608274       -16.5520
  40   2.0000      -0.590281       -16.0624
  41   2.0000      -0.576715       -15.6932
  42   2.0000      -0.561774       -15.2867
  43   2.0000      -0.555042       -15.1035
  44   2.0000      -0.536739       -14.6054
  45   2.0000      -0.520383       -14.1603
  46   2.0000      -0.517768       -14.0892
  47   2.0000      -0.511746       -13.9253
  48   2.0000      -0.510542       -13.8925
  49   2.0000      -0.495850       -13.4928
  50   2.0000      -0.488908       -13.3039
  51   2.0000      -0.486083       -13.2270
  52   2.0000      -0.470998       -12.8165
  53   2.0000      -0.463516       -12.6129
  54   2.0000      -0.456946       -12.4341
  55   2.0000      -0.453174       -12.3315
  56   2.0000      -0.444357       -12.0916
  57   2.0000      -0.435694       -11.8558
  58   2.0000      -0.433109       -11.7855
  59   2.0000      -0.429980       -11.7003
  60   2.0000      -0.424380       -11.5480
  61   2.0000      -0.417196       -11.3525
  62   2.0000      -0.411351       -11.1934
  63   2.0000      -0.344656        -9.3786
  64   2.0000      -0.329429        -8.9642
  65   2.0000      -0.322434        -8.7739
  66   2.0000      -0.290845        -7.9143
  67   0.0000       0.022591         0.6147
  68   0.0000       0.076182         2.0730
  69   0.0000       0.105209         2.8629
  70   0.0000       0.118925         3.2361
  71   0.0000       0.127951         3.4817

MULLIKEN ATOMIC CHARGES
-----------------------
   0 S :    0.115272
   1 C :   -0.133637
   2 C :   -0.111724
   3 C :    0.027926
   4 C :   -0.141563
   5 H :    0.000703
   6 C :    0.053435
   7 H :    0.034005
   8 H :    0.047218
   9 C :   -0.081012
  10 H :    0.039684
  11 H :    0.036612
  12 C :   -0.055369
  13 H :    0.030352
  14 H :    0.026621
  15 H :    0.025172
  16 S :    0.123447
  17 C :   -0.101772
  18 C :   -0.041353
  19 C :   -0.062196
  20 C :   -0.146663
  21 H :    0.031992
  22 C :    0.063235
  23 H :    0.027206
  24 H :    0.028294
  25 C :   -0.084494
  26 H :    0.031820
  27 H :    0.033725
  28 C :   -0.030199
  29 H :    0.010488
  30 H :    0.025514
  31 H :    0.039691
  32 H :    0.069470
  33 H :    0.068102
Sum of atomic charges:    0.0000000

LOEWDIN ATOMIC CHARGES
----------------------
   0 S :    0.400179
   1 C :   -0.221146
   2 C :   -0.062996
   3 C :   -0.052373
   4 C :   -0.188179
   5 H :    0.025259
   6 C :   -0.040893
   7 H :    0.033002
   8 H :    0.042203
   9 C :   -0.039245
  10 H :    0.030991
  11 H :    0.026114
  12 C :   -0.071084
  13 H :    0.024359
  14 H :    0.023395
  15 H :    0.021917
  16 S :    0.410159
  17 C :   -0.193456
  18 C :   -0.071021
  19 C :   -0.054620
  20 C :   -0.203456
  21 H :    0.032013
  22 C :   -0.028844
  23 H :    0.029748
  24 H :    0.028377
  25 C :   -0.033274
  26 H :    0.027065
  27 H :    0.018892
  28 C :   -0.073720
  29 H :    0.024670
  30 H :    0.026988
  31 H :    0.025056
  32 H :    0.047159
  33 H :    0.036760

  Mayer bond orders larger than 0.100000
B(  0-S ,  1-C ) :   1.1220 B(  0-S ,  4-C ) :   1.1447 B(  1-C ,  2-C ) :   1.6098
B(  1-C , 32-H ) :   0.9475 B(  2-C ,  3-C ) :   1.2534 B(  2-C ,  6-C ) :   1.0053
B(  3-C ,  4-C ) :   1.5523 B(  3-C ,  5-H ) :   0.9948 B(  4-C , 20-C ) :   1.0538
B(  6-C ,  7-H ) :   0.9352 B(  6-C ,  8-H ) :   0.9395 B(  6-C ,  9-C ) :   1.0783
B(  9-C , 10-H ) :   0.9560 B(  9-C , 11-H ) :   0.9575 B(  9-C , 12-C ) :   1.0664
B( 12-C , 13-H ) :   0.9739 B( 12-C , 14-H ) :   0.9751 B( 12-C , 15-H ) :   0.9756
B( 16-S , 17-C ) :   1.1487 B( 16-S , 20-C ) :   1.1302 B( 17-C , 18-C ) :   1.6073
B( 17-C , 33-H ) :   0.9677 B( 18-C , 19-C ) :   1.2355 B( 18-C , 21-H ) :   0.9763
B( 19-C , 20-C ) :   1.6164 B( 19-C , 22-C ) :   1.0463 B( 22-C , 23-H ) :   0.9358
B( 22-C , 24-H ) :   0.9405 B( 22-C , 25-C ) :   1.0460 B( 25-C , 26-H ) :   0.9557
B( 25-C , 27-H ) :   0.9593 B( 25-C , 28-C ) :   1.0760 B( 28-C , 29-H ) :   0.9670
B( 28-C , 30-H ) :   0.9720 B( 28-C , 31-H ) :   0.9792

Dispersion correction           -0.014139492
FINAL SINGLE POINT ENERGY     -1339.860081185703

DIPOLE MOMENT
-------------
                                X             Y             Z
Electronic contribution:    -25.85484     -10.22156      -0.12288
Nuclear contribution   :     26.63195      10.22927       0.07204
                        -----------------------------------------
Total Dipole Moment    :      0.77711       0.00771      -0.05084
                        -----------------------------------------
Magnitude (a.u.)       :      0.77881
Magnitude (Debye)      :      1.97959

Rotational constants in cm-1:     0.019197     0.008265     0.006109
Rotational constants in MHz :   575.498940   247.774367   183.151277

                             ****ORCA TERMINATED NORMALLY****
TOTAL RUN TIME: 0 days 0 hours 0 minutes 29 seconds 773 msec
