                         Program Version 4.2.1 -  RELEASE  -
|  1> ! wB97X-D3 SP def2-SVP
|  2> %pal
|  3> nprocs 16
|  4> end
|  5>
|  6> * xyz 0 1
|  7> S 	 -46.6122 	 32.9526 	 93.3543
|  8> C 	 -47.5608 	 31.5389 	 93.7257
|  9> C 	 -48.9217 	 31.8021 	 93.8474
| 10> C 	 -49.1241 	 33.274 	 93.8712
| 11> C 	 -47.9366 	 34.01 	 93.7423
| 12> H 	 -50.0665 	 33.8105 	 93.9405
| 13> C 	 -50.034 	 30.8255 	 93.9739
| 14> H 	 -49.6049 	 29.773 	 93.8682
| 15> H 	 -50.8163 	 30.8505 	 93.1749
| 16> C 	 -50.8317 	 30.8326 	 95.2442
| 17> H 	 -50.3297 	 31.0147 	 96.1991
| 18> H 	 -51.5532 	 31.699 	 95.1172
| 19> C 	 -51.67 	 29.6108 	 95.358
| 20> H 	 -51.2164 	 28.6585 	 95.0978
| 21> H 	 -52.0563 	 29.5153 	 96.3708
| 22> H 	 -52.4758 	 29.7121 	 94.6948
| 23> S 	 -46.8084 	 36.3049 	 92.6985
| 24> C 	 -47.0682 	 37.8548 	 93.4835
| 25> C 	 -48.0278 	 37.7254 	 94.4568
| 26> C 	 -48.4662 	 36.4278 	 94.6145
| 27> C 	 -47.8275 	 35.4895 	 93.8408
| 28> H 	 -48.3196 	 38.6425 	 95.0137
| 29> C 	 -49.4653 	 36.1447 	 95.7121
| 30> H 	 -50.2113 	 35.4486 	 95.3561
| 31> H 	 -50.0963 	 36.9777 	 95.9002
| 32> C 	 -48.8153 	 35.7294 	 97.043
| 33> H 	 -48.1883 	 36.4932 	 97.5285
| 34> H 	 -48.1174 	 34.9257 	 96.7729
| 35> C 	 -49.9001 	 35.2397 	 98.0701
| 36> H 	 -49.3578 	 34.6808 	 98.931
| 37> H 	 -50.5363 	 34.4652 	 97.6457
| 38> H 	 -50.4953 	 35.9826 	 98.4228
| 39> H 	 -47.2174 	 30.5162 	 93.6497
| 40> H 	 -46.517 	 38.7454 	 93.236
| 41> *
| 42>
| 43>                          ****END OF INPUT****

CARTESIAN COORDINATES (ANGSTROEM)
---------------------------------
  S    -46.612200   32.952600   93.354300
  C    -47.560800   31.538900   93.725700
  C    -48.921700   31.802100   93.847400
  C    -49.124100   33.274000   93.871200
  C    -47.936600   34.010000   93.742300
  H    -50.066500   33.810500   93.940500
  C    -50.034000   30.825500   93.973900
  H    -49.604900   29.773000   93.868200
  H    -50.816300   30.850500   93.174900
  C    -50.831700   30.832600   95.244200
  H    -50.329700   31.014700   96.199100
  H    -51.553200   31.699000   95.117200
  C    -51.670000   29.610800   95.358000
  H    -51.216400   28.658500   95.097800
  H    -52.056300   29.515300   96.370800
  H    -52.475800   29.712100   94.694800
  S    -46.808400   36.304900   92.698500
  C    -47.068200   37.854800   93.483500
  C    -48.027800   37.725400   94.456800
  C    -48.466200   36.427800   94.614500
  C    -47.827500   35.489500   93.840800
  H    -48.319600   38.642500   95.013700
  C    -49.465300   36.144700   95.712100
  H    -50.211300   35.448600   95.356100
  H    -50.096300   36.977700   95.900200
  C    -48.815300   35.729400   97.043000
  H    -48.188300   36.493200   97.528500
  H    -48.117400   34.925700   96.772900
  C    -49.900100   35.239700   98.070100
  H    -49.357800   34.680800   98.931000
  H    -50.536300   34.465200   97.645700
  H    -50.495300   35.982600   98.422800
  H    -47.217400   30.516200   93.649700
  H    -46.517000   38.745400   93.236000

 Total Charge           Charge          ....    0
 Multiplicity           Mult            ....    1
 Number of Electrons    NEL             ....  134
 Basis Dimension        Dim             ....  322

ORBITAL ENERGIES
----------------

  NO   OCC          E(Eh)            E(eV)
   0   2.0000     -88.969462     -2420.9821
   1   2.0000     -88.963598     -2420.8226
   2   2.0000     -10.334684      -281.2210
   3   2.0000     -10.327530      -281.0264
   4   2.0000     -10.316331      -280.7216
   5   2.0000     -10.314985      -280.6850
   6   2.0000     -10.308786      -280.5163
   7   2.0000     -10.300281      -280.2849
   8   2.0000     -10.299639      -280.2674
   9   2.0000     -10.296090      -280.1709
  10   2.0000     -10.291122      -280.0357
  11   2.0000     -10.286723      -279.9160
  12   2.0000     -10.286390      -279.9069
  13   2.0000     -10.283270      -279.8220
  14   2.0000     -10.276843      -279.6471
  15   2.0000     -10.271010      -279.4884
  16   2.0000      -8.084291      -219.9847
  17   2.0000      -8.078739      -219.8337
  18   2.0000      -6.042932      -164.4366
  19   2.0000      -6.038912      -164.3272
  20   2.0000      -6.037136      -164.2788
  21   2.0000      -6.034772      -164.2145
  22   2.0000      -6.033180      -164.1712
  23   2.0000      -6.029624      -164.0744
  24   2.0000      -1.009851       -27.4794
  25   2.0000      -0.986461       -26.8430
  26   2.0000      -0.923386       -25.1266
  27   2.0000      -0.905506       -24.6401
  28   2.0000      -0.872346       -23.7378
  29   2.0000      -0.850170       -23.1343
  30   2.0000      -0.847052       -23.0495
  31   2.0000      -0.813794       -22.1444
  32   2.0000      -0.781721       -21.2717
  33   2.0000      -0.773515       -21.0484
  34   2.0000      -0.707570       -19.2540
  35   2.0000      -0.698688       -19.0123
  36   2.0000      -0.692134       -18.8339
  37   2.0000      -0.665122       -18.0989
  38   2.0000      -0.641744       -17.4627
  39   2.0000      -0.619600       -16.8602
  40   2.0000      -0.599200       -16.3051
  41   2.0000      -0.582454       -15.8494
  42   2.0000      -0.563709       -15.3393
  43   2.0000      -0.557240       -15.1633
  44   2.0000      -0.529651       -14.4125
  45   2.0000      -0.521516       -14.1912
  46   2.0000      -0.517480       -14.0814
  47   2.0000      -0.511997       -13.9321
  48   2.0000      -0.504874       -13.7383
  49   2.0000      -0.497477       -13.5370
  50   2.0000      -0.491957       -13.3868
  51   2.0000      -0.484184       -13.1753
  52   2.0000      -0.474570       -12.9137
  53   2.0000      -0.469247       -12.7689
  54   2.0000      -0.460645       -12.5348
  55   2.0000      -0.446250       -12.1431
  56   2.0000      -0.442025       -12.0281
  57   2.0000      -0.440078       -11.9751
  58   2.0000      -0.435443       -11.8490
  59   2.0000      -0.430497       -11.7144
  60   2.0000      -0.418401       -11.3853
  61   2.0000      -0.409187       -11.1345
  62   2.0000      -0.406784       -11.0691
  63   2.0000      -0.352726        -9.5982
  64   2.0000      -0.333879        -9.0853
  65   2.0000      -0.326616        -8.8877
  66   2.0000      -0.289184        -7.8691
  67   0.0000       0.024451         0.6653
  68   0.0000       0.074912         2.0384
  69   0.0000       0.103126         2.8062
  70   0.0000       0.124559         3.3894
  71   0.0000       0.128728         3.5029

MULLIKEN ATOMIC CHARGES
-----------------------
   0 S :    0.120000
   1 C :   -0.104637
   2 C :   -0.054171
   3 C :    0.003116
   4 C :   -0.131737
   5 H :    0.020522
   6 C :    0.020771
   7 H :    0.017661
   8 H :    0.041726
   9 C :   -0.091617
  10 H :    0.037719
  11 H :    0.029290
  12 C :   -0.017766
  13 H :    0.023589
  14 H :    0.032330
  15 H :    0.011276
  16 S :    0.092197
  17 C :   -0.097519
  18 C :   -0.044422
  19 C :   -0.041487
  20 C :   -0.134431
  21 H :    0.033560
  22 C :    0.093725
  23 H :   -0.003461
  24 H :   -0.002780
  25 C :   -0.068571
  26 H :    0.032289
  27 H :    0.036663
  28 C :   -0.040178
  29 H :    0.043020
  30 H :    0.024868
  31 H :    0.019071
  32 H :    0.045126
  33 H :    0.054257
Sum of atomic charges:    0.0000000

LOEWDIN ATOMIC CHARGES
----------------------
   0 S :    0.412864
   1 C :   -0.196947
   2 C :   -0.057584
   3 C :   -0.060847
   4 C :   -0.198080
   5 H :    0.028211
   6 C :   -0.043749
   7 H :    0.031724
   8 H :    0.040304
   9 C :   -0.047711
  10 H :    0.024193
  11 H :    0.029062
  12 C :   -0.060775
  13 H :    0.022656
  14 H :    0.029802
  15 H :    0.018361
  16 S :    0.405620
  17 C :   -0.179074
  18 C :   -0.073749
  19 C :   -0.066110
  20 C :   -0.197460
  21 H :    0.042477
  22 C :   -0.030944
  23 H :    0.023139
  24 H :    0.022537
  25 C :   -0.034366
  26 H :    0.026053
  27 H :    0.027740
  28 C :   -0.061518
  29 H :    0.038344
  30 H :    0.023024
  31 H :    0.007396
  32 H :    0.028001
  33 H :    0.027406

  Mayer bond orders larger than 0.100000
B(  0-S ,  1-C ) :   1.1320 B(  0-S ,  4-C ) :   1.1471 B(  1-C ,  2-C ) :   1.6334
B(  1-C , 32-H ) :   0.9621 B(  2-C ,  3-C ) :   1.2012 B(  2-C ,  6-C ) :   1.0396
B(  3-C ,  4-C ) :   1.5808 B(  3-C ,  5-H ) :   0.9910 B(  4-C , 20-C ) :   1.0369
B(  6-C ,  7-H ) :   0.9453 B(  6-C ,  8-H ) :   0.9364 B(  6-C ,  9-C ) :   1.0511
B(  9-C , 10-H ) :   0.9638 B(  9-C , 11-H ) :   0.9494 B(  9-C , 12-C ) :   1.0873
B( 12-C , 13-H ) :   0.9742 B( 12-C , 14-H ) :   0.9726 B( 12-C , 15-H ) :   0.9713
B( 16-S , 17-C ) :   1.1634 B( 16-S , 20-C ) :   1.1477 B( 17-C , 18-C ) :   1.5809
B( 17-C , 20-C ) :   0.1080 B( 17-C , 33-H ) :   0.9713 B( 18-C , 19-C ) :   1.2708
B( 18-C , 21-H ) :   0.9906 B( 19-C , 20-C ) :   1.5817 B( 19-C , 22-C ) :   1.0503
B( 22-C , 23-H ) :   0.9306 B( 22-C , 24-H ) :   0.9234 B( 22-C , 25-C ) :   1.0582
B( 25-C , 26-H ) :   0.9564 B( 25-C , 27-H ) :   0.9590 B( 25-C , 28-C ) :   1.0726
B( 28-C , 29-H ) :   0.9750 B( 28-C , 30-H ) :   0.9762 B( 28-C , 31-H ) :   0.9788

Dispersion correction           -0.014114492
FINAL SINGLE POINT ENERGY     -1339.872227049350

DIPOLE MOMENT
-------------
                                X             Y             Z
Electronic contribution:     22.88357      11.85835     -20.21360
Nuclear contribution   :    -23.49189     -11.93496      20.55880
                        -----------------------------------------
Total Dipole Moment    :     -0.60832      -0.07662       0.34521
                        -----------------------------------------
Magnitude (a.u.)       :      0.70363
Magnitude (Debye)      :      1.78848

Rotational constants in cm-1:     0.018704     0.008938     0.006619
Rotational constants in MHz :   560.736729   267.960511   198.429241

                             ****ORCA TERMINATED NORMALLY****
TOTAL RUN TIME: 0 days 0 hours 0 minutes 30 seconds 320 msec
