                         Program Version 4.2.1 -  RELEASE  -
|  1> ! wB97X-D3 SP def2-SVP
|  2> %pal
|  3> nprocs 16
|  4> end
|  5>
|  6> * xyz 0 1
|  7> S 	 4.67239 	 -1.87545 	 80.7729
|  8> C 	 4.22727 	 -1.51146 	 82.4609
|  9> C 	 3.23708 	 -2.31662 	 82.9917
| 10> C 	 2.99691 	 -3.40652 	 82.0827
| 11> C 	 3.63747 	 -3.30463 	 80.8751
| 12> H 	 2.34135 	 -4.26887 	 82.1272
| 13> C 	 2.62842 	 -2.13187 	 84.3526
| 14> H 	 3.53258 	 -1.98188 	 84.9835
| 15> H 	 2.26325 	 -3.15304 	 84.5228
| 16> C 	 1.64814 	 -1.01794 	 84.5463
| 17> H 	 1.30267 	 -0.992906 	 85.4979
| 18> H 	 2.13433 	 -0.089518 	 84.4408
| 19> C 	 0.421769 	 -0.976455 	 83.6369
| 20> H 	 -0.127143 	 -1.88647 	 83.9041
| 21> H 	 -0.239809 	 -0.215026 	 83.8817
| 22> H 	 0.656914 	 -1.01817 	 82.5833
| 23> S 	 2.72376 	 -3.34392 	 78.2945
| 24> C 	 2.56017 	 -4.92016 	 77.4657
| 25> C 	 2.83941 	 -6.00178 	 78.3418
| 26> C 	 3.38672 	 -5.56806 	 79.5399
| 27> C 	 3.31722 	 -4.17606 	 79.7027
| 28> H 	 2.68184 	 -7.09074 	 78.1016
| 29> C 	 4.0008 	 -6.48738 	 80.5809
| 30> H 	 3.42421 	 -7.41193 	 80.729
| 31> H 	 3.94017 	 -6.0289 	 81.5748
| 32> C 	 5.42762 	 -6.79433 	 80.3792
| 33> H 	 6.12895 	 -5.92615 	 80.3596
| 34> H 	 5.51326 	 -7.17667 	 79.4098
| 35> C 	 5.86766 	 -7.83694 	 81.3608
| 36> H 	 6.03783 	 -7.39595 	 82.3284
| 37> H 	 6.78608 	 -8.11974 	 81.0017
| 38> H 	 5.1913 	 -8.74935 	 81.4564
| 39> H 	 4.79372 	 -0.74114 	 83.0136
| 40> H 	 2.21408 	 -4.96483 	 76.468
| 41> *
| 42>
| 43>                          ****END OF INPUT****

CARTESIAN COORDINATES (ANGSTROEM)
---------------------------------
  S      4.672390   -1.875450   80.772900
  C      4.227270   -1.511460   82.460900
  C      3.237080   -2.316620   82.991700
  C      2.996910   -3.406520   82.082700
  C      3.637470   -3.304630   80.875100
  H      2.341350   -4.268870   82.127200
  C      2.628420   -2.131870   84.352600
  H      3.532580   -1.981880   84.983500
  H      2.263250   -3.153040   84.522800
  C      1.648140   -1.017940   84.546300
  H      1.302670   -0.992906   85.497900
  H      2.134330   -0.089518   84.440800
  C      0.421769   -0.976455   83.636900
  H     -0.127143   -1.886470   83.904100
  H     -0.239809   -0.215026   83.881700
  H      0.656914   -1.018170   82.583300
  S      2.723760   -3.343920   78.294500
  C      2.560170   -4.920160   77.465700
  C      2.839410   -6.001780   78.341800
  C      3.386720   -5.568060   79.539900
  C      3.317220   -4.176060   79.702700
  H      2.681840   -7.090740   78.101600
  C      4.000800   -6.487380   80.580900
  H      3.424210   -7.411930   80.729000
  H      3.940170   -6.028900   81.574800
  C      5.427620   -6.794330   80.379200
  H      6.128950   -5.926150   80.359600
  H      5.513260   -7.176670   79.409800
  C      5.867660   -7.836940   81.360800
  H      6.037830   -7.395950   82.328400
  H      6.786080   -8.119740   81.001700
  H      5.191300   -8.749350   81.456400
  H      4.793720   -0.741140   83.013600
  H      2.214080   -4.964830   76.468000

 Total Charge           Charge          ....    0
 Multiplicity           Mult            ....    1
 Number of Electrons    NEL             ....  134
 Basis Dimension        Dim             ....  322

ORBITAL ENERGIES
----------------

  NO   OCC          E(Eh)            E(eV)
   0   2.0000     -88.968028     -2420.9431
   1   2.0000     -88.966687     -2420.9066
   2   2.0000     -10.327597      -281.0282
   3   2.0000     -10.325912      -280.9824
   4   2.0000     -10.319737      -280.8143
   5   2.0000     -10.316787      -280.7341
   6   2.0000     -10.303886      -280.3830
   7   2.0000     -10.300461      -280.2898
   8   2.0000     -10.297530      -280.2100
   9   2.0000     -10.294589      -280.1300
  10   2.0000     -10.293212      -280.0925
  11   2.0000     -10.283261      -279.8218
  12   2.0000     -10.273251      -279.5494
  13   2.0000     -10.271934      -279.5135
  14   2.0000     -10.268913      -279.4313
  15   2.0000     -10.267701      -279.3983
  16   2.0000      -8.082182      -219.9274
  17   2.0000      -8.080689      -219.8867
  18   2.0000      -6.040477      -164.3697
  19   2.0000      -6.039130      -164.3331
  20   2.0000      -6.036824      -164.2703
  21   2.0000      -6.035475      -164.2336
  22   2.0000      -6.033160      -164.1706
  23   2.0000      -6.031397      -164.1226
  24   2.0000      -1.001424       -27.2501
  25   2.0000      -0.979645       -26.6575
  26   2.0000      -0.919802       -25.0291
  27   2.0000      -0.917495       -24.9663
  28   2.0000      -0.864973       -23.5371
  29   2.0000      -0.854118       -23.2417
  30   2.0000      -0.848486       -23.0885
  31   2.0000      -0.811869       -22.0921
  32   2.0000      -0.784635       -21.3510
  33   2.0000      -0.770290       -20.9607
  34   2.0000      -0.713184       -19.4067
  35   2.0000      -0.697210       -18.9720
  36   2.0000      -0.690741       -18.7960
  37   2.0000      -0.661900       -18.0112
  38   2.0000      -0.640971       -17.4417
  39   2.0000      -0.610562       -16.6142
  40   2.0000      -0.596335       -16.2271
  41   2.0000      -0.574559       -15.6345
  42   2.0000      -0.566541       -15.4164
  43   2.0000      -0.560107       -15.2413
  44   2.0000      -0.538164       -14.6442
  45   2.0000      -0.526185       -14.3182
  46   2.0000      -0.515802       -14.0357
  47   2.0000      -0.513513       -13.9734
  48   2.0000      -0.506907       -13.7936
  49   2.0000      -0.494847       -13.4655
  50   2.0000      -0.480116       -13.0646
  51   2.0000      -0.471128       -12.8201
  52   2.0000      -0.469697       -12.7811
  53   2.0000      -0.466513       -12.6945
  54   2.0000      -0.456707       -12.4276
  55   2.0000      -0.453503       -12.3405
  56   2.0000      -0.446915       -12.1612
  57   2.0000      -0.443613       -12.0713
  58   2.0000      -0.439111       -11.9488
  59   2.0000      -0.426364       -11.6019
  60   2.0000      -0.420062       -11.4305
  61   2.0000      -0.413547       -11.2532
  62   2.0000      -0.406725       -11.0675
  63   2.0000      -0.342109        -9.3093
  64   2.0000      -0.333679        -9.0799
  65   2.0000      -0.329824        -8.9750
  66   2.0000      -0.287347        -7.8191
  67   0.0000       0.032667         0.8889
  68   0.0000       0.060134         1.6363
  69   0.0000       0.105127         2.8607
  70   0.0000       0.117389         3.1943
  71   0.0000       0.132163         3.5963

MULLIKEN ATOMIC CHARGES
-----------------------
   0 S :    0.105064
   1 C :   -0.147040
   2 C :   -0.091706
   3 C :    0.037715
   4 C :   -0.163853
   5 H :    0.016939
   6 C :    0.069153
   7 H :    0.039454
   8 H :    0.019249
   9 C :    0.014992
  10 H :    0.000707
  11 H :    0.006444
  12 C :   -0.037130
  13 H :    0.013855
  14 H :    0.021140
  15 H :    0.049629
  16 S :    0.110400
  17 C :   -0.104516
  18 C :   -0.038431
  19 C :   -0.022397
  20 C :   -0.173985
  21 H :    0.041123
  22 C :    0.057426
  23 H :    0.016150
  24 H :    0.004936
  25 C :   -0.052356
  26 H :    0.035950
  27 H :   -0.001887
  28 C :   -0.004034
  29 H :    0.026560
  30 H :    0.007486
  31 H :    0.036555
  32 H :    0.057948
  33 H :    0.048462
Sum of atomic charges:   -0.0000000

LOEWDIN ATOMIC CHARGES
----------------------
   0 S :    0.377362
   1 C :   -0.186526
   2 C :   -0.063062
   3 C :   -0.063922
   4 C :   -0.192214
   5 H :    0.033223
   6 C :   -0.030497
   7 H :    0.043298
   8 H :    0.031340
   9 C :   -0.031341
  10 H :    0.014699
  11 H :    0.019522
  12 C :   -0.054702
  13 H :    0.025426
  14 H :    0.018598
  15 H :    0.027739
  16 S :    0.405119
  17 C :   -0.174321
  18 C :   -0.068852
  19 C :   -0.065802
  20 C :   -0.198142
  21 H :    0.043639
  22 C :   -0.036242
  23 H :    0.029296
  24 H :    0.027723
  25 C :   -0.039782
  26 H :    0.034014
  27 H :    0.012525
  28 C :   -0.055209
  29 H :    0.023750
  30 H :    0.015465
  31 H :    0.032309
  32 H :    0.028733
  33 H :    0.016836

  Mayer bond orders larger than 0.100000
B(  0-S ,  1-C ) :   1.1308 B(  0-S ,  4-C ) :   1.1342 B(  1-C ,  2-C ) :   1.6222
B(  1-C , 32-H ) :   0.9653 B(  2-C ,  3-C ) :   1.2064 B(  2-C ,  6-C ) :   0.9960
B(  3-C ,  4-C ) :   1.6196 B(  3-C ,  5-H ) :   0.9840 B(  4-C , 20-C ) :   1.0078
B(  6-C ,  7-H ) :   0.9362 B(  6-C ,  8-H ) :   0.9415 B(  6-C ,  9-C ) :   1.0795
B(  9-C , 10-H ) :   0.9470 B(  9-C , 11-H ) :   0.9457 B(  9-C , 12-C ) :   1.0844
B( 12-C , 13-H ) :   0.9741 B( 12-C , 14-H ) :   0.9715 B( 12-C , 15-H ) :   0.9758
B( 16-S , 17-C ) :   1.1641 B( 16-S , 20-C ) :   1.1647 B( 17-C , 18-C ) :   1.5543
B( 17-C , 20-C ) :   0.1171 B( 17-C , 33-H ) :   0.9774 B( 18-C , 19-C ) :   1.2902
B( 18-C , 21-H ) :   0.9793 B( 19-C , 20-C ) :   1.5731 B( 19-C , 22-C ) :   1.0366
B( 22-C , 23-H ) :   0.9354 B( 22-C , 24-H ) :   0.9238 B( 22-C , 25-C ) :   1.0807
B( 25-C , 26-H ) :   0.9434 B( 25-C , 27-H ) :   0.9493 B( 25-C , 28-C ) :   1.0903
B( 28-C , 29-H ) :   0.9719 B( 28-C , 30-H ) :   0.9681 B( 28-C , 31-H ) :   0.9711

Dispersion correction           -0.014176942
FINAL SINGLE POINT ENERGY     -1339.860059045076

DIPOLE MOMENT
-------------
                                X             Y             Z
Electronic contribution:      2.33407       9.97035     -18.43003
Nuclear contribution   :     -2.45332     -10.24427      18.92084
                        -----------------------------------------
Total Dipole Moment    :     -0.11925      -0.27392       0.49080
                        -----------------------------------------
Magnitude (a.u.)       :      0.57458
Magnitude (Debye)      :      1.46047

Rotational constants in cm-1:     0.018614     0.008335     0.007097
Rotational constants in MHz :   558.023591   249.867690   212.775334

                             ****ORCA TERMINATED NORMALLY****
TOTAL RUN TIME: 0 days 0 hours 0 minutes 36 seconds 507 msec
