                         Program Version 4.2.1 -  RELEASE  -
|  1> ! wB97X-D3 SP def2-SVP
|  2> %pal
|  3> nprocs 16
|  4> end
|  5>
|  6> * xyz 0 1
|  7> S 	 17.3295 	 31.6714 	 63.4461
|  8> C 	 18.7146 	 32.1876 	 62.5309
|  9> C 	 19.2059 	 33.3119 	 63.1171
| 10> C 	 18.5726 	 33.6281 	 64.3798
| 11> C 	 17.6716 	 32.6463 	 64.7969
| 12> H 	 18.7322 	 34.4975 	 65.0345
| 13> C 	 20.3478 	 34.1228 	 62.4878
| 14> H 	 19.8784 	 35.109 	 62.3821
| 15> H 	 20.5443 	 33.6324 	 61.4638
| 16> C 	 21.5873 	 34.3217 	 63.4184
| 17> H 	 21.2913 	 34.8406 	 64.2826
| 18> H 	 21.8608 	 33.3371 	 63.8309
| 19> C 	 22.7704 	 35.1047 	 62.8455
| 20> H 	 23.1465 	 34.6152 	 61.9575
| 21> H 	 22.6877 	 36.172 	 62.7208
| 22> H 	 23.6893 	 34.9233 	 63.403
| 23> S 	 15.4289 	 33.4688 	 66.1784
| 24> C 	 15.0808 	 32.7872 	 67.748
| 25> C 	 16.2029 	 32.1498 	 68.2178
| 26> C 	 17.2888 	 32.039 	 67.2861
| 27> C 	 16.961 	 32.6302 	 66.061
| 28> H 	 16.2158 	 31.7571 	 69.2517
| 29> C 	 18.6103 	 31.3541 	 67.6311
| 30> H 	 19.26 	 31.4691 	 66.7586
| 31> H 	 18.4602 	 30.3106 	 67.8063
| 32> C 	 19.3448 	 31.8506 	 68.9244
| 33> H 	 20.0173 	 31.1829 	 69.271
| 34> H 	 18.5708 	 31.946 	 69.6241
| 35> C 	 19.8638 	 33.2351 	 68.8501
| 36> H 	 19.1124 	 33.9498 	 68.6066
| 37> H 	 20.5512 	 33.3306 	 68.0406
| 38> H 	 20.5308 	 33.3715 	 69.6167
| 39> H 	 18.972 	 31.8531 	 61.5522
| 40> H 	 14.2628 	 32.9144 	 68.4252
| 41> *
| 42>
| 43>                          ****END OF INPUT****

CARTESIAN COORDINATES (ANGSTROEM)
---------------------------------
  S     17.329500   31.671400   63.446100
  C     18.714600   32.187600   62.530900
  C     19.205900   33.311900   63.117100
  C     18.572600   33.628100   64.379800
  C     17.671600   32.646300   64.796900
  H     18.732200   34.497500   65.034500
  C     20.347800   34.122800   62.487800
  H     19.878400   35.109000   62.382100
  H     20.544300   33.632400   61.463800
  C     21.587300   34.321700   63.418400
  H     21.291300   34.840600   64.282600
  H     21.860800   33.337100   63.830900
  C     22.770400   35.104700   62.845500
  H     23.146500   34.615200   61.957500
  H     22.687700   36.172000   62.720800
  H     23.689300   34.923300   63.403000
  S     15.428900   33.468800   66.178400
  C     15.080800   32.787200   67.748000
  C     16.202900   32.149800   68.217800
  C     17.288800   32.039000   67.286100
  C     16.961000   32.630200   66.061000
  H     16.215800   31.757100   69.251700
  C     18.610300   31.354100   67.631100
  H     19.260000   31.469100   66.758600
  H     18.460200   30.310600   67.806300
  C     19.344800   31.850600   68.924400
  H     20.017300   31.182900   69.271000
  H     18.570800   31.946000   69.624100
  C     19.863800   33.235100   68.850100
  H     19.112400   33.949800   68.606600
  H     20.551200   33.330600   68.040600
  H     20.530800   33.371500   69.616700
  H     18.972000   31.853100   61.552200
  H     14.262800   32.914400   68.425200

 Total Charge           Charge          ....    0
 Multiplicity           Mult            ....    1
 Number of Electrons    NEL             ....  134
 Basis Dimension        Dim             ....  322

ORBITAL ENERGIES
----------------

  NO   OCC          E(Eh)            E(eV)
   0   2.0000     -88.966592     -2420.9040
   1   2.0000     -88.960785     -2420.7460
   2   2.0000     -10.327738      -281.0320
   3   2.0000     -10.326474      -280.9976
   4   2.0000     -10.316014      -280.7130
   5   2.0000     -10.309264      -280.5293
   6   2.0000     -10.307011      -280.4680
   7   2.0000     -10.301139      -280.3082
   8   2.0000     -10.300944      -280.3029
   9   2.0000     -10.297575      -280.2113
  10   2.0000     -10.293841      -280.1097
  11   2.0000     -10.287792      -279.9451
  12   2.0000     -10.287132      -279.9271
  13   2.0000     -10.276663      -279.6422
  14   2.0000     -10.270163      -279.4653
  15   2.0000     -10.257721      -279.1268
  16   2.0000      -8.081235      -219.9016
  17   2.0000      -8.076786      -219.7805
  18   2.0000      -6.039839      -164.3524
  19   2.0000      -6.035716      -164.2402
  20   2.0000      -6.035257      -164.2277
  21   2.0000      -6.031920      -164.1369
  22   2.0000      -6.031130      -164.1154
  23   2.0000      -6.027449      -164.0152
  24   2.0000      -1.011184       -27.5157
  25   2.0000      -0.988283       -26.8926
  26   2.0000      -0.913518       -24.8581
  27   2.0000      -0.907035       -24.6817
  28   2.0000      -0.873986       -23.7824
  29   2.0000      -0.852347       -23.1936
  30   2.0000      -0.844702       -22.9855
  31   2.0000      -0.817045       -22.2329
  32   2.0000      -0.784742       -21.3539
  33   2.0000      -0.775742       -21.1090
  34   2.0000      -0.715061       -19.4578
  35   2.0000      -0.704407       -19.1679
  36   2.0000      -0.697389       -18.9769
  37   2.0000      -0.653786       -17.7904
  38   2.0000      -0.642466       -17.4824
  39   2.0000      -0.612685       -16.6720
  40   2.0000      -0.597561       -16.2604
  41   2.0000      -0.572301       -15.5731
  42   2.0000      -0.567427       -15.4405
  43   2.0000      -0.562094       -15.2953
  44   2.0000      -0.540125       -14.6975
  45   2.0000      -0.523085       -14.2339
  46   2.0000      -0.515892       -14.0381
  47   2.0000      -0.513229       -13.9657
  48   2.0000      -0.509481       -13.8637
  49   2.0000      -0.509116       -13.8538
  50   2.0000      -0.497676       -13.5425
  51   2.0000      -0.479961       -13.0604
  52   2.0000      -0.471075       -12.8186
  53   2.0000      -0.467437       -12.7196
  54   2.0000      -0.457697       -12.4546
  55   2.0000      -0.454360       -12.3638
  56   2.0000      -0.446694       -12.1552
  57   2.0000      -0.435694       -11.8558
  58   2.0000      -0.427241       -11.6258
  59   2.0000      -0.423799       -11.5321
  60   2.0000      -0.422360       -11.4930
  61   2.0000      -0.411572       -11.1994
  62   2.0000      -0.406560       -11.0631
  63   2.0000      -0.332357        -9.0439
  64   2.0000      -0.322782        -8.7833
  65   2.0000      -0.321649        -8.7525
  66   2.0000      -0.315287        -8.5794
  67   0.0000       0.044474         1.2102
  68   0.0000       0.049411         1.3445
  69   0.0000       0.113298         3.0830
  70   0.0000       0.121741         3.3127
  71   0.0000       0.135728         3.6933

MULLIKEN ATOMIC CHARGES
-----------------------
   0 S :    0.118858
   1 C :   -0.109411
   2 C :   -0.100918
   3 C :    0.026166
   4 C :   -0.174520
   5 H :    0.025000
   6 C :    0.063919
   7 H :    0.035426
   8 H :    0.033623
   9 C :   -0.062828
  10 H :    0.015773
  11 H :    0.028599
  12 C :   -0.029363
  13 H :    0.014602
  14 H :    0.042608
  15 H :    0.020142
  16 S :    0.122391
  17 C :   -0.067894
  18 C :   -0.071926
  19 C :   -0.020051
  20 C :   -0.206058
  21 H :    0.033204
  22 C :    0.086401
  23 H :    0.028113
  24 H :    0.027991
  25 C :   -0.029847
  26 H :    0.003083
  27 H :    0.002705
  28 C :    0.021249
  29 H :    0.035918
  30 H :   -0.008176
  31 H :    0.008232
  32 H :    0.039308
  33 H :    0.047678
Sum of atomic charges:   -0.0000000

LOEWDIN ATOMIC CHARGES
----------------------
   0 S :    0.430767
   1 C :   -0.198637
   2 C :   -0.068286
   3 C :   -0.065406
   4 C :   -0.217331
   5 H :    0.033584
   6 C :   -0.032369
   7 H :    0.034753
   8 H :    0.036071
   9 C :   -0.041576
  10 H :    0.017888
  11 H :    0.028077
  12 C :   -0.072228
  13 H :    0.024878
  14 H :    0.025821
  15 H :    0.031875
  16 S :    0.411606
  17 C :   -0.186921
  18 C :   -0.079114
  19 C :   -0.050691
  20 C :   -0.206970
  21 H :    0.034427
  22 C :   -0.022145
  23 H :    0.029058
  24 H :    0.030417
  25 C :   -0.024116
  26 H :    0.011040
  27 H :    0.017361
  28 C :   -0.055136
  29 H :    0.027544
  30 H :    0.019096
  31 H :    0.019365
  32 H :    0.025857
  33 H :    0.031443

  Mayer bond orders larger than 0.100000
B(  0-S ,  1-C ) :   1.1382 B(  0-S ,  4-C ) :   1.1752 B(  1-C ,  2-C ) :   1.6067
B(  1-C , 32-H ) :   0.9748 B(  2-C ,  3-C ) :   1.2305 B(  2-C ,  6-C ) :   1.0224
B(  3-C ,  4-C ) :   1.5589 B(  3-C ,  5-H ) :   0.9931 B(  4-C , 20-C ) :   1.0298
B(  6-C ,  7-H ) :   0.9330 B(  6-C ,  8-H ) :   0.9456 B(  6-C ,  9-C ) :   1.0552
B(  9-C , 10-H ) :   0.9507 B(  9-C , 11-H ) :   0.9574 B(  9-C , 12-C ) :   1.0905
B( 12-C , 13-H ) :   0.9698 B( 12-C , 14-H ) :   0.9768 B( 12-C , 15-H ) :   0.9672
B( 16-S , 17-C ) :   1.1438 B( 16-S , 20-C ) :   1.1533 B( 17-C , 18-C ) :   1.6285
B( 17-C , 20-C ) :   0.1003 B( 17-C , 33-H ) :   0.9666 B( 18-C , 19-C ) :   1.2378
B( 18-C , 21-H ) :   0.9774 B( 19-C , 20-C ) :   1.5874 B( 19-C , 22-C ) :   1.0476
B( 22-C , 23-H ) :   0.9370 B( 22-C , 24-H ) :   0.9309 B( 22-C , 25-C ) :   1.0726
B( 25-C , 26-H ) :   0.9527 B( 25-C , 27-H ) :   0.9527 B( 25-C , 28-C ) :   1.0883
B( 28-C , 29-H ) :   0.9734 B( 28-C , 30-H ) :   0.9642 B( 28-C , 31-H ) :   0.9643

Dispersion correction           -0.014271803
FINAL SINGLE POINT ENERGY     -1339.850435755098

DIPOLE MOMENT
-------------
                                X             Y             Z
Electronic contribution:    -27.65350      -6.77871      -6.03567
Nuclear contribution   :     28.23307       6.92354       6.33493
                        -----------------------------------------
Total Dipole Moment    :      0.57957       0.14483       0.29926
                        -----------------------------------------
Magnitude (a.u.)       :      0.66815
Magnitude (Debye)      :      1.69831

Rotational constants in cm-1:     0.018200     0.008642     0.006788
Rotational constants in MHz :   545.622576   259.070200   203.495052

                             ****ORCA TERMINATED NORMALLY****
TOTAL RUN TIME: 0 days 0 hours 0 minutes 34 seconds 967 msec
