                         Program Version 4.2.1 -  RELEASE  -
|  1> ! wB97X-D3 SP def2-SVP
|  2> %pal
|  3> nprocs 16
|  4> end
|  5>
|  6> * xyz 0 1
|  7> S 	 -25.3868 	 46.7102 	 61.4436
|  8> C 	 -26.3704 	 48.1418 	 61.8273
|  9> C 	 -26.2714 	 49.0945 	 60.8338
| 10> C 	 -25.3409 	 48.6819 	 59.8713
| 11> C 	 -24.854 	 47.3453 	 59.9698
| 12> H 	 -25.0887 	 49.2531 	 59.0145
| 13> C 	 -26.8096 	 50.5154 	 60.9366
| 14> H 	 -26.058 	 51.2253 	 60.6152
| 15> H 	 -26.9996 	 50.6652 	 62.0165
| 16> C 	 -28.0558 	 50.803 	 60.0923
| 17> H 	 -28.4871 	 51.7808 	 60.2878
| 18> H 	 -27.7963 	 50.9124 	 59.0323
| 19> C 	 -29.1187 	 49.7115 	 60.3492
| 20> H 	 -30.1508 	 50.0446 	 59.9479
| 21> H 	 -28.8433 	 48.7671 	 59.9347
| 22> H 	 -29.2843 	 49.5407 	 61.3818
| 23> S 	 -22.7284 	 45.6446 	 59.8462
| 24> C 	 -22.0938 	 45.2217 	 58.234
| 25> C 	 -23.0102 	 45.5306 	 57.224
| 26> C 	 -24.0961 	 46.4087 	 57.6606
| 27> C 	 -23.9952 	 46.5874 	 59.0687
| 28> H 	 -22.8577 	 45.2267 	 56.228
| 29> C 	 -25.1429 	 46.9992 	 56.7453
| 30> H 	 -24.7829 	 46.9273 	 55.6976
| 31> H 	 -25.2642 	 48.0637 	 56.9396
| 32> C 	 -26.5657 	 46.3066 	 56.7935
| 33> H 	 -27.2184 	 46.8968 	 56.1376
| 34> H 	 -27.0551 	 46.365 	 57.7804
| 35> C 	 -26.6183 	 44.8603 	 56.3653
| 36> H 	 -25.9812 	 44.6947 	 55.5494
| 37> H 	 -27.6454 	 44.4788 	 56.1543
| 38> H 	 -26.2244 	 44.125 	 57.0169
| 39> H 	 -26.9962 	 48.1822 	 62.763
| 40> H 	 -21.3395 	 44.4345 	 58.1375
| 41> *
| 42>
| 43>                          ****END OF INPUT****

CARTESIAN COORDINATES (ANGSTROEM)
---------------------------------
  S    -25.386800   46.710200   61.443600
  C    -26.370400   48.141800   61.827300
  C    -26.271400   49.094500   60.833800
  C    -25.340900   48.681900   59.871300
  C    -24.854000   47.345300   59.969800
  H    -25.088700   49.253100   59.014500
  C    -26.809600   50.515400   60.936600
  H    -26.058000   51.225300   60.615200
  H    -26.999600   50.665200   62.016500
  C    -28.055800   50.803000   60.092300
  H    -28.487100   51.780800   60.287800
  H    -27.796300   50.912400   59.032300
  C    -29.118700   49.711500   60.349200
  H    -30.150800   50.044600   59.947900
  H    -28.843300   48.767100   59.934700
  H    -29.284300   49.540700   61.381800
  S    -22.728400   45.644600   59.846200
  C    -22.093800   45.221700   58.234000
  C    -23.010200   45.530600   57.224000
  C    -24.096100   46.408700   57.660600
  C    -23.995200   46.587400   59.068700
  H    -22.857700   45.226700   56.228000
  C    -25.142900   46.999200   56.745300
  H    -24.782900   46.927300   55.697600
  H    -25.264200   48.063700   56.939600
  C    -26.565700   46.306600   56.793500
  H    -27.218400   46.896800   56.137600
  H    -27.055100   46.365000   57.780400
  C    -26.618300   44.860300   56.365300
  H    -25.981200   44.694700   55.549400
  H    -27.645400   44.478800   56.154300
  H    -26.224400   44.125000   57.016900
  H    -26.996200   48.182200   62.763000
  H    -21.339500   44.434500   58.137500

 Total Charge           Charge          ....    0
 Multiplicity           Mult            ....    1
 Number of Electrons    NEL             ....  134
 Basis Dimension        Dim             ....  322

ORBITAL ENERGIES
----------------

  NO   OCC          E(Eh)            E(eV)
   0   2.0000     -88.969203     -2420.9751
   1   2.0000     -88.966567     -2420.9034
   2   2.0000     -10.333636      -281.1925
   3   2.0000     -10.328656      -281.0570
   4   2.0000     -10.322853      -280.8991
   5   2.0000     -10.319010      -280.7945
   6   2.0000     -10.313399      -280.6418
   7   2.0000     -10.301744      -280.3247
   8   2.0000     -10.301016      -280.3049
   9   2.0000     -10.300517      -280.2913
  10   2.0000     -10.294966      -280.1403
  11   2.0000     -10.289745      -279.9982
  12   2.0000     -10.289422      -279.9894
  13   2.0000     -10.287880      -279.9474
  14   2.0000     -10.275950      -279.6228
  15   2.0000     -10.267686      -279.3979
  16   2.0000      -8.083332      -219.9586
  17   2.0000      -8.081885      -219.9193
  18   2.0000      -6.041834      -164.4067
  19   2.0000      -6.040192      -164.3620
  20   2.0000      -6.038102      -164.3051
  21   2.0000      -6.036166      -164.2524
  22   2.0000      -6.033959      -164.1924
  23   2.0000      -6.032974      -164.1656
  24   2.0000      -1.006958       -27.4007
  25   2.0000      -0.979358       -26.6497
  26   2.0000      -0.914369       -24.8812
  27   2.0000      -0.904288       -24.6069
  28   2.0000      -0.867044       -23.5935
  29   2.0000      -0.850053       -23.1311
  30   2.0000      -0.841857       -22.9081
  31   2.0000      -0.808398       -21.9976
  32   2.0000      -0.785744       -21.3812
  33   2.0000      -0.775024       -21.0895
  34   2.0000      -0.712589       -19.3905
  35   2.0000      -0.701742       -19.0954
  36   2.0000      -0.687870       -18.7179
  37   2.0000      -0.664383       -18.0788
  38   2.0000      -0.637323       -17.3425
  39   2.0000      -0.618922       -16.8417
  40   2.0000      -0.592415       -16.1204
  41   2.0000      -0.563791       -15.3415
  42   2.0000      -0.554738       -15.0952
  43   2.0000      -0.549735       -14.9591
  44   2.0000      -0.541999       -14.7485
  45   2.0000      -0.538920       -14.6647
  46   2.0000      -0.517092       -14.0708
  47   2.0000      -0.509707       -13.8698
  48   2.0000      -0.497217       -13.5300
  49   2.0000      -0.491212       -13.3666
  50   2.0000      -0.485702       -13.2166
  51   2.0000      -0.484442       -13.1823
  52   2.0000      -0.471760       -12.8372
  53   2.0000      -0.465429       -12.6650
  54   2.0000      -0.457812       -12.4577
  55   2.0000      -0.450850       -12.2682
  56   2.0000      -0.446166       -12.1408
  57   2.0000      -0.438726       -11.9383
  58   2.0000      -0.429663       -11.6917
  59   2.0000      -0.426534       -11.6066
  60   2.0000      -0.422520       -11.4974
  61   2.0000      -0.418421       -11.3858
  62   2.0000      -0.411729       -11.2037
  63   2.0000      -0.348216        -9.4754
  64   2.0000      -0.332924        -9.0593
  65   2.0000      -0.330844        -9.0027
  66   2.0000      -0.285555        -7.7704
  67   0.0000       0.019988         0.5439
  68   0.0000       0.066914         1.8208
  69   0.0000       0.098560         2.6820
  70   0.0000       0.115819         3.1516
  71   0.0000       0.124306         3.3825

MULLIKEN ATOMIC CHARGES
-----------------------
   0 S :    0.105631
   1 C :   -0.166414
   2 C :   -0.066786
   3 C :    0.029674
   4 C :   -0.147956
   5 H :   -0.009568
   6 C :    0.056363
   7 H :    0.032260
   8 H :    0.031539
   9 C :   -0.059833
  10 H :    0.025667
  11 H :    0.026878
  12 C :   -0.055983
  13 H :    0.037543
  14 H :    0.044813
  15 H :    0.013668
  16 S :    0.100390
  17 C :   -0.086854
  18 C :   -0.025149
  19 C :   -0.030088
  20 C :   -0.153179
  21 H :    0.007167
  22 C :    0.055199
  23 H :    0.027393
  24 H :    0.032450
  25 C :   -0.065660
  26 H :    0.028264
  27 H :    0.044368
  28 C :   -0.031357
  29 H :   -0.000668
  30 H :    0.038179
  31 H :    0.023773
  32 H :    0.071284
  33 H :    0.066994
Sum of atomic charges:    0.0000000

LOEWDIN ATOMIC CHARGES
----------------------
   0 S :    0.423026
   1 C :   -0.200638
   2 C :   -0.066720
   3 C :   -0.067336
   4 C :   -0.214288
   5 H :    0.018860
   6 C :   -0.025640
   7 H :    0.032522
   8 H :    0.033370
   9 C :   -0.042518
  10 H :    0.023623
  11 H :    0.023727
  12 C :   -0.065257
  13 H :    0.033164
  14 H :    0.022867
  15 H :    0.016247
  16 S :    0.390173
  17 C :   -0.182542
  18 C :   -0.055397
  19 C :   -0.050867
  20 C :   -0.190665
  21 H :    0.022853
  22 C :   -0.032467
  23 H :    0.034320
  24 H :    0.033351
  25 C :   -0.036397
  26 H :    0.025427
  27 H :    0.029344
  28 C :   -0.070603
  29 H :    0.014327
  30 H :    0.034379
  31 H :    0.022981
  32 H :    0.037147
  33 H :    0.029629

  Mayer bond orders larger than 0.100000
B(  0-S ,  1-C ) :   1.1549 B(  0-S ,  4-C ) :   1.1812 B(  1-C ,  2-C ) :   1.5589
B(  1-C ,  4-C ) :   0.1080 B(  1-C , 32-H ) :   0.9604 B(  2-C ,  3-C ) :   1.2908
B(  2-C ,  6-C ) :   1.0114 B(  3-C ,  4-C ) :   1.5162 B(  3-C ,  5-H ) :   0.9972
B(  4-C , 20-C ) :   1.0572 B(  6-C ,  7-H ) :   0.9471 B(  6-C ,  8-H ) :   0.9487
B(  6-C ,  9-C ) :   1.0705 B(  9-C , 10-H ) :   0.9576 B(  9-C , 11-H ) :   0.9556
B(  9-C , 12-C ) :   1.0732 B( 12-C , 13-H ) :   0.9745 B( 12-C , 14-H ) :   0.9705
B( 12-C , 15-H ) :   0.9768 B( 16-S , 17-C ) :   1.1327 B( 16-S , 20-C ) :   1.1526
B( 17-C , 18-C ) :   1.6227 B( 17-C , 20-C ) :   0.1027 B( 17-C , 33-H ) :   0.9627
B( 18-C , 19-C ) :   1.2311 B( 18-C , 21-H ) :   0.9892 B( 19-C , 20-C ) :   1.5642
B( 19-C , 22-C ) :   1.0454 B( 22-C , 23-H ) :   0.9350 B( 22-C , 24-H ) :   0.9332
B( 22-C , 25-C ) :   1.0695 B( 25-C , 26-H ) :   0.9560 B( 25-C , 27-H ) :   0.9577
B( 25-C , 28-C ) :   1.0747 B( 28-C , 29-H ) :   0.9719 B( 28-C , 30-H ) :   0.9726
B( 28-C , 31-H ) :   0.9706

Dispersion correction           -0.015139272
FINAL SINGLE POINT ENERGY     -1339.878470404102

DIPOLE MOMENT
-------------
                                X             Y             Z
Electronic contribution:     21.46190     -10.29100      13.14010
Nuclear contribution   :    -21.81687      10.53172     -13.57129
                        -----------------------------------------
Total Dipole Moment    :     -0.35497       0.24072      -0.43119
                        -----------------------------------------
Magnitude (a.u.)       :      0.60818
Magnitude (Debye)      :      1.54586

Rotational constants in cm-1:     0.020263     0.009099     0.007253
Rotational constants in MHz :   607.468392   272.785259   217.440952

                             ****ORCA TERMINATED NORMALLY****
TOTAL RUN TIME: 0 days 0 hours 0 minutes 36 seconds 669 msec
