                         Program Version 4.2.1 -  RELEASE  -
|  1> ! wB97X-D3 SP def2-SVP
|  2> %pal
|  3> nprocs 16
|  4> end
|  5>
|  6> * xyz 0 1
|  7> S 	 -45.5977 	 16.4169 	 78.9013
|  8> C 	 -43.944 	 16.797 	 78.9865
|  9> C 	 -43.3843 	 16.9678 	 77.7383
| 10> C 	 -44.3161 	 16.6776 	 76.7114
| 11> C 	 -45.6481 	 16.413 	 77.1815
| 12> H 	 -44.0619 	 16.5553 	 75.6563
| 13> C 	 -41.9963 	 17.535 	 77.4348
| 14> H 	 -41.7397 	 17.3785 	 76.4339
| 15> H 	 -41.2737 	 16.9484 	 78.0092
| 16> C 	 -41.8066 	 18.9711 	 77.7836
| 17> H 	 -42.6815 	 19.6101 	 77.4783
| 18> H 	 -41.8818 	 18.9265 	 78.8293
| 19> C 	 -40.4604 	 19.6357 	 77.2862
| 20> H 	 -40.1091 	 20.572 	 77.7513
| 21> H 	 -39.6347 	 18.9907 	 77.4324
| 22> H 	 -40.4312 	 19.6919 	 76.2227
| 23> S 	 -47.4106 	 14.3548 	 76.8827
| 24> C 	 -48.615 	 14.3331 	 75.5851
| 25> C 	 -48.5081 	 15.4917 	 74.8504
| 26> C 	 -47.4678 	 16.3688 	 75.2564
| 27> C 	 -46.8193 	 15.9398 	 76.4232
| 28> H 	 -49.1075 	 15.605 	 74.0044
| 29> C 	 -47.0996 	 17.5111 	 74.3877
| 30> H 	 -47.6489 	 17.3622 	 73.4844
| 31> H 	 -45.9838 	 17.4056 	 74.2314
| 32> C 	 -47.2926 	 18.9371 	 74.847
| 33> H 	 -46.8804 	 19.0374 	 75.8096
| 34> H 	 -48.3155 	 19.109 	 74.9792
| 35> C 	 -46.5999 	 19.893 	 73.8634
| 36> H 	 -47.0159 	 19.8121 	 72.8205
| 37> H 	 -45.5065 	 19.6929 	 73.735
| 38> H 	 -46.7459 	 20.876 	 74.2813
| 39> H 	 -43.3558 	 16.9177 	 79.8204
| 40> H 	 -49.3252 	 13.56 	 75.6278
| 41> *
| 42>
| 43>                          ****END OF INPUT****

CARTESIAN COORDINATES (ANGSTROEM)
---------------------------------
  S    -45.597700   16.416900   78.901300
  C    -43.944000   16.797000   78.986500
  C    -43.384300   16.967800   77.738300
  C    -44.316100   16.677600   76.711400
  C    -45.648100   16.413000   77.181500
  H    -44.061900   16.555300   75.656300
  C    -41.996300   17.535000   77.434800
  H    -41.739700   17.378500   76.433900
  H    -41.273700   16.948400   78.009200
  C    -41.806600   18.971100   77.783600
  H    -42.681500   19.610100   77.478300
  H    -41.881800   18.926500   78.829300
  C    -40.460400   19.635700   77.286200
  H    -40.109100   20.572000   77.751300
  H    -39.634700   18.990700   77.432400
  H    -40.431200   19.691900   76.222700
  S    -47.410600   14.354800   76.882700
  C    -48.615000   14.333100   75.585100
  C    -48.508100   15.491700   74.850400
  C    -47.467800   16.368800   75.256400
  C    -46.819300   15.939800   76.423200
  H    -49.107500   15.605000   74.004400
  C    -47.099600   17.511100   74.387700
  H    -47.648900   17.362200   73.484400
  H    -45.983800   17.405600   74.231400
  C    -47.292600   18.937100   74.847000
  H    -46.880400   19.037400   75.809600
  H    -48.315500   19.109000   74.979200
  C    -46.599900   19.893000   73.863400
  H    -47.015900   19.812100   72.820500
  H    -45.506500   19.692900   73.735000
  H    -46.745900   20.876000   74.281300
  H    -43.355800   16.917700   79.820400
  H    -49.325200   13.560000   75.627800

 Total Charge           Charge          ....    0
 Multiplicity           Mult            ....    1
 Number of Electrons    NEL             ....  134
 Basis Dimension        Dim             ....  322

ORBITAL ENERGIES
----------------

  NO   OCC          E(Eh)            E(eV)
   0   2.0000     -88.971226     -2421.0301
   1   2.0000     -88.960588     -2420.7407
   2   2.0000     -10.333509      -281.1891
   3   2.0000     -10.329217      -281.0723
   4   2.0000     -10.316325      -280.7215
   5   2.0000     -10.306262      -280.4477
   6   2.0000     -10.301569      -280.3199
   7   2.0000     -10.299795      -280.2717
   8   2.0000     -10.298113      -280.2259
   9   2.0000     -10.290814      -280.0273
  10   2.0000     -10.287429      -279.9352
  11   2.0000     -10.287063      -279.9252
  12   2.0000     -10.285205      -279.8747
  13   2.0000     -10.282319      -279.7961
  14   2.0000     -10.279085      -279.7081
  15   2.0000     -10.272902      -279.5399
  16   2.0000      -8.086728      -220.0510
  17   2.0000      -8.075383      -219.7423
  18   2.0000      -6.045046      -164.4941
  19   2.0000      -6.040900      -164.3813
  20   2.0000      -6.037874      -164.2989
  21   2.0000      -6.033829      -164.1888
  22   2.0000      -6.029681      -164.0760
  23   2.0000      -6.026409      -163.9869
  24   2.0000      -1.009545       -27.4711
  25   2.0000      -0.987486       -26.8709
  26   2.0000      -0.917501       -24.9665
  27   2.0000      -0.913796       -24.8656
  28   2.0000      -0.869946       -23.6724
  29   2.0000      -0.851821       -23.1792
  30   2.0000      -0.847720       -23.0676
  31   2.0000      -0.813393       -22.1335
  32   2.0000      -0.787333       -21.4244
  33   2.0000      -0.771486       -20.9932
  34   2.0000      -0.711829       -19.3699
  35   2.0000      -0.709007       -19.2931
  36   2.0000      -0.694731       -18.9046
  37   2.0000      -0.672052       -18.2875
  38   2.0000      -0.644798       -17.5458
  39   2.0000      -0.617029       -16.7902
  40   2.0000      -0.599905       -16.3242
  41   2.0000      -0.578311       -15.7366
  42   2.0000      -0.572128       -15.5684
  43   2.0000      -0.562093       -15.2953
  44   2.0000      -0.527524       -14.3546
  45   2.0000      -0.523843       -14.2545
  46   2.0000      -0.517095       -14.0709
  47   2.0000      -0.512771       -13.9532
  48   2.0000      -0.504957       -13.7406
  49   2.0000      -0.502828       -13.6826
  50   2.0000      -0.492273       -13.3954
  51   2.0000      -0.486891       -13.2490
  52   2.0000      -0.475674       -12.9438
  53   2.0000      -0.467272       -12.7151
  54   2.0000      -0.460604       -12.5337
  55   2.0000      -0.447658       -12.1814
  56   2.0000      -0.443148       -12.0587
  57   2.0000      -0.437690       -11.9102
  58   2.0000      -0.435014       -11.8373
  59   2.0000      -0.426121       -11.5953
  60   2.0000      -0.424030       -11.5384
  61   2.0000      -0.416341       -11.3292
  62   2.0000      -0.413970       -11.2647
  63   2.0000      -0.345381        -9.3983
  64   2.0000      -0.332047        -9.0355
  65   2.0000      -0.326303        -8.8791
  66   2.0000      -0.292989        -7.9726
  67   0.0000       0.026950         0.7334
  68   0.0000       0.067936         1.8486
  69   0.0000       0.113547         3.0898
  70   0.0000       0.125190         3.4066
  71   0.0000       0.130309         3.5459

MULLIKEN ATOMIC CHARGES
-----------------------
   0 S :    0.139389
   1 C :   -0.080828
   2 C :   -0.114864
   3 C :    0.026078
   4 C :   -0.174424
   5 H :    0.022114
   6 C :    0.110508
   7 H :   -0.006257
   8 H :    0.022316
   9 C :   -0.064172
  10 H :    0.040956
  11 H :    0.006791
  12 C :   -0.025068
  13 H :    0.044908
  14 H :    0.004269
  15 H :    0.022550
  16 S :    0.085309
  17 C :   -0.086086
  18 C :   -0.007897
  19 C :   -0.024793
  20 C :   -0.145288
  21 H :    0.000251
  22 C :    0.042774
  23 H :    0.004987
  24 H :    0.027325
  25 C :   -0.008163
  26 H :    0.019323
  27 H :    0.011205
  28 C :   -0.063163
  29 H :    0.035215
  30 H :    0.036558
  31 H :    0.036992
  32 H :    0.012320
  33 H :    0.048862
Sum of atomic charges:   -0.0000000

LOEWDIN ATOMIC CHARGES
----------------------
   0 S :    0.457716
   1 C :   -0.204207
   2 C :   -0.061941
   3 C :   -0.062553
   4 C :   -0.218055
   5 H :    0.030506
   6 C :   -0.024610
   7 H :    0.016414
   8 H :    0.032016
   9 C :   -0.038201
  10 H :    0.030839
  11 H :    0.014355
  12 C :   -0.067552
  13 H :    0.033663
  14 H :    0.019295
  15 H :    0.023024
  16 S :    0.397829
  17 C :   -0.165004
  18 C :   -0.064233
  19 C :   -0.056950
  20 C :   -0.201645
  21 H :    0.023018
  22 C :   -0.033805
  23 H :    0.024821
  24 H :    0.038167
  25 C :   -0.030994
  26 H :    0.020949
  27 H :    0.017166
  28 C :   -0.064926
  29 H :    0.028931
  30 H :    0.028893
  31 H :    0.025399
  32 H :    0.013750
  33 H :    0.017924

  Mayer bond orders larger than 0.100000
B(  0-S ,  1-C ) :   1.1703 B(  0-S ,  4-C ) :   1.1871 B(  1-C ,  2-C ) :   1.5597
B(  1-C ,  4-C ) :   0.1059 B(  1-C , 32-H ) :   0.9769 B(  2-C ,  3-C ) :   1.3096
B(  2-C ,  6-C ) :   1.0240 B(  3-C ,  4-C ) :   1.5049 B(  3-C ,  5-H ) :   0.9877
B(  4-C , 20-C ) :   1.0305 B(  6-C ,  7-H ) :   0.9424 B(  6-C ,  8-H ) :   0.9299
B(  6-C ,  9-C ) :   1.0567 B(  9-C , 10-H ) :   0.9594 B(  9-C , 11-H ) :   0.9558
B(  9-C , 12-C ) :   1.0690 B( 12-C , 13-H ) :   0.9772 B( 12-C , 14-H ) :   0.9710
B( 12-C , 15-H ) :   0.9750 B( 16-S , 17-C ) :   1.1644 B( 16-S , 20-C ) :   1.1566
B( 17-C , 18-C ) :   1.5664 B( 17-C , 20-C ) :   0.1058 B( 17-C , 33-H ) :   0.9788
B( 18-C , 19-C ) :   1.2644 B( 18-C , 21-H ) :   1.0001 B( 19-C , 20-C ) :   1.5635
B( 19-C , 22-C ) :   1.0480 B( 22-C , 23-H ) :   0.9271 B( 22-C , 24-H ) :   0.9295
B( 22-C , 25-C ) :   1.0768 B( 25-C , 26-H ) :   0.9507 B( 25-C , 27-H ) :   0.9477
B( 25-C , 28-C ) :   1.0815 B( 28-C , 29-H ) :   0.9745 B( 28-C , 30-H ) :   0.9741
B( 28-C , 31-H ) :   0.9740

Dispersion correction           -0.013758895
FINAL SINGLE POINT ENERGY     -1339.867551894272

DIPOLE MOMENT
-------------
                                X             Y             Z
Electronic contribution:    -16.67716     -23.16107      12.60567
Nuclear contribution   :     16.98916      23.44088     -12.97426
                        -----------------------------------------
Total Dipole Moment    :      0.31200       0.27981      -0.36859
                        -----------------------------------------
Magnitude (a.u.)       :      0.55812
Magnitude (Debye)      :      1.41863

Rotational constants in cm-1:     0.018686     0.008503     0.006372
Rotational constants in MHz :   560.187582   254.921630   191.028093

                             ****ORCA TERMINATED NORMALLY****
TOTAL RUN TIME: 0 days 0 hours 0 minutes 29 seconds 676 msec
