                         Program Version 4.2.1 -  RELEASE  -
|  1> ! wB97X-D3 SP def2-SVP
|  2> %pal
|  3> nprocs 16
|  4> end
|  5>
|  6> * xyz 0 1
|  7> S 	 -5.37409 	 74.5827 	 58.5037
|  8> C 	 -4.84811 	 73.0181 	 58.9936
|  9> C 	 -4.65876 	 72.1575 	 57.958
| 10> C 	 -4.93535 	 72.8217 	 56.7014
| 11> C 	 -5.29089 	 74.1596 	 56.7897
| 12> H 	 -4.91301 	 72.1504 	 55.8248
| 13> C 	 -4.38148 	 70.6125 	 57.9293
| 14> H 	 -3.41727 	 70.5294 	 57.2695
| 15> H 	 -5.32439 	 70.2451 	 57.5241
| 16> C 	 -4.19342 	 69.9992 	 59.2503
| 17> H 	 -3.23376 	 70.3813 	 59.6605
| 18> H 	 -4.95519 	 70.3517 	 59.8676
| 19> C 	 -4.18595 	 68.43 	 59.2503
| 20> H 	 -4.01454 	 68.0908 	 60.3133
| 21> H 	 -5.15587 	 68.1058 	 58.9426
| 22> H 	 -3.38208 	 67.9569 	 58.6113
| 23> S 	 -7.49746 	 75.0679 	 55.5215
| 24> C 	 -7.36314 	 76.0826 	 54.0843
| 25> C 	 -6.07238 	 76.5672 	 53.9213
| 26> C 	 -5.11601 	 75.9211 	 54.8145
| 27> C 	 -5.76196 	 75.0528 	 55.7069
| 28> H 	 -5.80989 	 77.2838 	 53.0499
| 29> C 	 -3.60342 	 76.1651 	 54.8184
| 30> H 	 -3.2959 	 76.1598 	 55.8929
| 31> H 	 -3.32059 	 77.1872 	 54.4217
| 32> C 	 -2.66578 	 74.9983 	 54.3586
| 33> H 	 -2.8018 	 74.7325 	 53.3091
| 34> H 	 -2.94741 	 74.2071 	 54.9531
| 35> C 	 -1.21002 	 75.304 	 54.5982
| 36> H 	 -0.995784 	 75.7053 	 55.6129
| 37> H 	 -0.909778 	 75.9858 	 53.823
| 38> H 	 -0.504761 	 74.467 	 54.4446
| 39> H 	 -4.64567 	 72.6684 	 59.9834
| 40> H 	 -8.30371 	 76.4175 	 53.6394
| 41> *
| 42>
| 43>                          ****END OF INPUT****

CARTESIAN COORDINATES (ANGSTROEM)
---------------------------------
  S     -5.374090   74.582700   58.503700
  C     -4.848110   73.018100   58.993600
  C     -4.658760   72.157500   57.958000
  C     -4.935350   72.821700   56.701400
  C     -5.290890   74.159600   56.789700
  H     -4.913010   72.150400   55.824800
  C     -4.381480   70.612500   57.929300
  H     -3.417270   70.529400   57.269500
  H     -5.324390   70.245100   57.524100
  C     -4.193420   69.999200   59.250300
  H     -3.233760   70.381300   59.660500
  H     -4.955190   70.351700   59.867600
  C     -4.185950   68.430000   59.250300
  H     -4.014540   68.090800   60.313300
  H     -5.155870   68.105800   58.942600
  H     -3.382080   67.956900   58.611300
  S     -7.497460   75.067900   55.521500
  C     -7.363140   76.082600   54.084300
  C     -6.072380   76.567200   53.921300
  C     -5.116010   75.921100   54.814500
  C     -5.761960   75.052800   55.706900
  H     -5.809890   77.283800   53.049900
  C     -3.603420   76.165100   54.818400
  H     -3.295900   76.159800   55.892900
  H     -3.320590   77.187200   54.421700
  C     -2.665780   74.998300   54.358600
  H     -2.801800   74.732500   53.309100
  H     -2.947410   74.207100   54.953100
  C     -1.210020   75.304000   54.598200
  H     -0.995784   75.705300   55.612900
  H     -0.909778   75.985800   53.823000
  H     -0.504761   74.467000   54.444600
  H     -4.645670   72.668400   59.983400
  H     -8.303710   76.417500   53.639400

 Total Charge           Charge          ....    0
 Multiplicity           Mult            ....    1
 Number of Electrons    NEL             ....  134
 Basis Dimension        Dim             ....  322

ORBITAL ENERGIES
----------------

  NO   OCC          E(Eh)            E(eV)
   0   2.0000     -88.966803     -2420.9098
   1   2.0000     -88.963088     -2420.8087
   2   2.0000     -10.333800      -281.1970
   3   2.0000     -10.328518      -281.0533
   4   2.0000     -10.321222      -280.8547
   5   2.0000     -10.312570      -280.6193
   6   2.0000     -10.309413      -280.5334
   7   2.0000     -10.307826      -280.4902
   8   2.0000     -10.303711      -280.3782
   9   2.0000     -10.298614      -280.2395
  10   2.0000     -10.297661      -280.2136
  11   2.0000     -10.296673      -280.1867
  12   2.0000     -10.290000      -280.0051
  13   2.0000     -10.285064      -279.8708
  14   2.0000     -10.276729      -279.6440
  15   2.0000     -10.274882      -279.5938
  16   2.0000      -8.081533      -219.9097
  17   2.0000      -8.078047      -219.8148
  18   2.0000      -6.040168      -164.3613
  19   2.0000      -6.036453      -164.2602
  20   2.0000      -6.036011      -164.2482
  21   2.0000      -6.032538      -164.1537
  22   2.0000      -6.032185      -164.1441
  23   2.0000      -6.028881      -164.0542
  24   2.0000      -1.003465       -27.3057
  25   2.0000      -0.981875       -26.7182
  26   2.0000      -0.917340       -24.9621
  27   2.0000      -0.905096       -24.6289
  28   2.0000      -0.865699       -23.5569
  29   2.0000      -0.848122       -23.0786
  30   2.0000      -0.846358       -23.0306
  31   2.0000      -0.809621       -22.0309
  32   2.0000      -0.780368       -21.2349
  33   2.0000      -0.768199       -20.9038
  34   2.0000      -0.711481       -19.3604
  35   2.0000      -0.697417       -18.9777
  36   2.0000      -0.684652       -18.6303
  37   2.0000      -0.656710       -17.8700
  38   2.0000      -0.633424       -17.2363
  39   2.0000      -0.612836       -16.6761
  40   2.0000      -0.593072       -16.1383
  41   2.0000      -0.585153       -15.9228
  42   2.0000      -0.568325       -15.4649
  43   2.0000      -0.563701       -15.3391
  44   2.0000      -0.517984       -14.0951
  45   2.0000      -0.516419       -14.0525
  46   2.0000      -0.513419       -13.9708
  47   2.0000      -0.507940       -13.8218
  48   2.0000      -0.504291       -13.7225
  49   2.0000      -0.498403       -13.5622
  50   2.0000      -0.489906       -13.3310
  51   2.0000      -0.475047       -12.9267
  52   2.0000      -0.468618       -12.7517
  53   2.0000      -0.464315       -12.6347
  54   2.0000      -0.456724       -12.4281
  55   2.0000      -0.448075       -12.1927
  56   2.0000      -0.444622       -12.0988
  57   2.0000      -0.433556       -11.7977
  58   2.0000      -0.431210       -11.7338
  59   2.0000      -0.427411       -11.6304
  60   2.0000      -0.420783       -11.4501
  61   2.0000      -0.419403       -11.4125
  62   2.0000      -0.412806       -11.2330
  63   2.0000      -0.337152        -9.1744
  64   2.0000      -0.326008        -8.8711
  65   2.0000      -0.321406        -8.7459
  66   2.0000      -0.311654        -8.4805
  67   0.0000       0.044660         1.2153
  68   0.0000       0.054203         1.4749
  69   0.0000       0.111339         3.0297
  70   0.0000       0.122313         3.3283
  71   0.0000       0.130030         3.5383

MULLIKEN ATOMIC CHARGES
-----------------------
   0 S :    0.123429
   1 C :   -0.113874
   2 C :   -0.145948
   3 C :    0.055869
   4 C :   -0.162546
   5 H :    0.020955
   6 C :    0.055037
   7 H :    0.061563
   8 H :    0.041318
   9 C :   -0.096939
  10 H :    0.030641
  11 H :    0.018943
  12 C :   -0.044521
  13 H :    0.042179
  14 H :    0.027778
  15 H :    0.045957
  16 S :    0.106338
  17 C :   -0.109789
  18 C :   -0.054429
  19 C :    0.004638
  20 C :   -0.185459
  21 H :    0.057119
  22 C :    0.007817
  23 H :    0.029733
  24 H :    0.034615
  25 C :   -0.018198
  26 H :    0.026418
  27 H :    0.008607
  28 C :   -0.060979
  29 H :    0.035551
  30 H :    0.023361
  31 H :    0.032891
  32 H :    0.033327
  33 H :    0.068597
Sum of atomic charges:   -0.0000000

LOEWDIN ATOMIC CHARGES
----------------------
   0 S :    0.409993
   1 C :   -0.208100
   2 C :   -0.073965
   3 C :   -0.057780
   4 C :   -0.205496
   5 H :    0.034514
   6 C :   -0.033376
   7 H :    0.047839
   8 H :    0.036027
   9 C :   -0.049686
  10 H :    0.026597
  11 H :    0.016160
  12 C :   -0.062120
  13 H :    0.033541
  14 H :    0.018574
  15 H :    0.032185
  16 S :    0.406839
  17 C :   -0.183330
  18 C :   -0.080532
  19 C :   -0.051732
  20 C :   -0.204629
  21 H :    0.049601
  22 C :   -0.038242
  23 H :    0.038138
  24 H :    0.032527
  25 C :   -0.031954
  26 H :    0.022259
  27 H :    0.011797
  28 C :   -0.068313
  29 H :    0.027634
  30 H :    0.022447
  31 H :    0.029297
  32 H :    0.024474
  33 H :    0.028810

  Mayer bond orders larger than 0.100000
B(  0-S ,  1-C ) :   1.1345 B(  0-S ,  4-C ) :   1.1414 B(  1-C ,  2-C ) :   1.6494
B(  1-C , 32-H ) :   0.9572 B(  2-C ,  3-C ) :   1.2630 B(  2-C ,  6-C ) :   0.9816
B(  3-C ,  4-C ) :   1.5740 B(  3-C ,  5-H ) :   0.9882 B(  4-C , 20-C ) :   1.0015
B(  6-C ,  7-H ) :   0.9375 B(  6-C ,  8-H ) :   0.9400 B(  6-C ,  9-C ) :   1.0976
B(  9-C , 10-H ) :   0.9520 B(  9-C , 11-H ) :   0.9448 B(  9-C , 12-C ) :   1.0822
B( 12-C , 13-H ) :   0.9745 B( 12-C , 14-H ) :   0.9752 B( 12-C , 15-H ) :   0.9763
B( 16-S , 17-C ) :   1.1580 B( 16-S , 20-C ) :   1.1635 B( 17-C , 18-C ) :   1.6071
B( 17-C , 20-C ) :   0.1008 B( 17-C , 33-H ) :   0.9671 B( 18-C , 19-C ) :   1.2315
B( 18-C , 21-H ) :   0.9746 B( 19-C , 20-C ) :   1.6037 B( 19-C , 22-C ) :   1.0455
B( 22-C , 23-H ) :   0.9326 B( 22-C , 24-H ) :   0.9468 B( 22-C , 25-C ) :   1.0487
B( 25-C , 26-H ) :   0.9534 B( 25-C , 27-H ) :   0.9525 B( 25-C , 28-C ) :   1.0927
B( 28-C , 29-H ) :   0.9717 B( 28-C , 30-H ) :   0.9756 B( 28-C , 31-H ) :   0.9720

Dispersion correction           -0.013729234
FINAL SINGLE POINT ENERGY     -1339.868634385468

DIPOLE MOMENT
-------------
                                X             Y             Z
Electronic contribution:    -20.59258      16.25240       0.52011
Nuclear contribution   :     20.86760     -16.66597      -0.64018
                        -----------------------------------------
Total Dipole Moment    :      0.27502      -0.41357      -0.12007
                        -----------------------------------------
Magnitude (a.u.)       :      0.51097
Magnitude (Debye)      :      1.29879

Rotational constants in cm-1:     0.019332     0.007619     0.006358
Rotational constants in MHz :   579.552162   228.416060   190.604920

                             ****ORCA TERMINATED NORMALLY****
TOTAL RUN TIME: 0 days 0 hours 0 minutes 32 seconds 883 msec
