                         Program Version 4.2.1 -  RELEASE  -
|  1> ! wB97X-D3 SP def2-SVP
|  2> %pal
|  3> nprocs 16
|  4> end
|  5>
|  6> * xyz 0 1
|  7> S 	 42.0441 	 13.3004 	 87.3993
|  8> C 	 43.3416 	 12.838 	 88.424
|  9> C 	 44.6016 	 13.1088 	 87.8566
| 10> C 	 44.4245 	 13.2615 	 86.453
| 11> C 	 43.1253 	 13.4126 	 86.0407
| 12> H 	 45.2104 	 13.1309 	 85.6768
| 13> C 	 46.0132 	 13.0006 	 88.4083
| 14> H 	 45.9274 	 13.0914 	 89.3971
| 15> H 	 46.5481 	 13.9791 	 88.2688
| 16> C 	 46.7602 	 11.7702 	 88.1401
| 17> H 	 47.5205 	 11.5846 	 88.9843
| 18> H 	 46.0723 	 10.9299 	 88.1667
| 19> C 	 47.4799 	 11.7764 	 86.8095
| 20> H 	 48.254 	 12.571 	 86.7626
| 21> H 	 47.9866 	 10.8152 	 86.6916
| 22> H 	 46.7989 	 11.8535 	 85.9245
| 23> S 	 41.1521 	 12.4963 	 84.2318
| 24> C 	 41.1543 	 13.1687 	 82.6348
| 25> C 	 42.3301 	 13.8504 	 82.443
| 26> C 	 43.0046 	 14.2031 	 83.6246
| 27> C 	 42.5149 	 13.5254 	 84.7288
| 28> H 	 42.5683 	 14.219 	 81.4737
| 29> C 	 44.27 	 15.1185 	 83.545
| 30> H 	 44.9724 	 14.666 	 82.8235
| 31> H 	 44.7708 	 15.0345 	 84.559
| 32> C 	 43.969 	 16.6015 	 83.248
| 33> H 	 43.6929 	 16.78 	 82.1635
| 34> H 	 44.8597 	 17.2088 	 83.4161
| 35> C 	 42.9695 	 17.1878 	 84.2486
| 36> H 	 43.1859 	 16.9821 	 85.3202
| 37> H 	 42.0236 	 16.5763 	 84.1055
| 38> H 	 42.7117 	 18.287 	 84.1286
| 39> H 	 43.1882 	 12.4392 	 89.3771
| 40> H 	 40.4626 	 12.9613 	 81.7755
| 41> *
| 42>
| 43>                          ****END OF INPUT****

CARTESIAN COORDINATES (ANGSTROEM)
---------------------------------
  S     42.044100   13.300400   87.399300
  C     43.341600   12.838000   88.424000
  C     44.601600   13.108800   87.856600
  C     44.424500   13.261500   86.453000
  C     43.125300   13.412600   86.040700
  H     45.210400   13.130900   85.676800
  C     46.013200   13.000600   88.408300
  H     45.927400   13.091400   89.397100
  H     46.548100   13.979100   88.268800
  C     46.760200   11.770200   88.140100
  H     47.520500   11.584600   88.984300
  H     46.072300   10.929900   88.166700
  C     47.479900   11.776400   86.809500
  H     48.254000   12.571000   86.762600
  H     47.986600   10.815200   86.691600
  H     46.798900   11.853500   85.924500
  S     41.152100   12.496300   84.231800
  C     41.154300   13.168700   82.634800
  C     42.330100   13.850400   82.443000
  C     43.004600   14.203100   83.624600
  C     42.514900   13.525400   84.728800
  H     42.568300   14.219000   81.473700
  C     44.270000   15.118500   83.545000
  H     44.972400   14.666000   82.823500
  H     44.770800   15.034500   84.559000
  C     43.969000   16.601500   83.248000
  H     43.692900   16.780000   82.163500
  H     44.859700   17.208800   83.416100
  C     42.969500   17.187800   84.248600
  H     43.185900   16.982100   85.320200
  H     42.023600   16.576300   84.105500
  H     42.711700   18.287000   84.128600
  H     43.188200   12.439200   89.377100
  H     40.462600   12.961300   81.775500

 Total Charge           Charge          ....    0
 Multiplicity           Mult            ....    1
 Number of Electrons    NEL             ....  134
 Basis Dimension        Dim             ....  322

ORBITAL ENERGIES
----------------

  NO   OCC          E(Eh)            E(eV)
   0   2.0000     -88.966349     -2420.8974
   1   2.0000     -88.963615     -2420.8230
   2   2.0000     -10.326075      -280.9868
   3   2.0000     -10.323374      -280.9133
   4   2.0000     -10.319336      -280.8034
   5   2.0000     -10.313213      -280.6368
   6   2.0000     -10.304556      -280.4012
   7   2.0000     -10.300893      -280.3015
   8   2.0000     -10.300013      -280.2776
   9   2.0000     -10.293510      -280.1007
  10   2.0000     -10.290488      -280.0184
  11   2.0000     -10.289542      -279.9927
  12   2.0000     -10.286323      -279.9051
  13   2.0000     -10.281828      -279.7828
  14   2.0000     -10.281676      -279.7786
  15   2.0000     -10.279960      -279.7319
  16   2.0000      -8.080771      -219.8890
  17   2.0000      -8.079416      -219.8521
  18   2.0000      -6.039348      -164.3390
  19   2.0000      -6.037739      -164.2952
  20   2.0000      -6.035370      -164.2308
  21   2.0000      -6.033820      -164.1886
  22   2.0000      -6.031394      -164.1226
  23   2.0000      -6.030267      -164.0919
  24   2.0000      -1.010234       -27.4899
  25   2.0000      -0.988504       -26.8986
  26   2.0000      -0.924110       -25.1463
  27   2.0000      -0.902178       -24.5495
  28   2.0000      -0.869834       -23.6694
  29   2.0000      -0.850313       -23.1382
  30   2.0000      -0.841285       -22.8925
  31   2.0000      -0.814733       -22.1700
  32   2.0000      -0.786967       -21.4145
  33   2.0000      -0.769809       -20.9476
  34   2.0000      -0.701489       -19.0885
  35   2.0000      -0.699376       -19.0310
  36   2.0000      -0.687958       -18.7203
  37   2.0000      -0.657301       -17.8861
  38   2.0000      -0.646463       -17.5912
  39   2.0000      -0.624860       -17.0033
  40   2.0000      -0.588823       -16.0227
  41   2.0000      -0.573072       -15.5941
  42   2.0000      -0.553082       -15.0501
  43   2.0000      -0.549014       -14.9394
  44   2.0000      -0.542152       -14.7527
  45   2.0000      -0.535444       -14.5702
  46   2.0000      -0.519148       -14.1267
  47   2.0000      -0.511342       -13.9143
  48   2.0000      -0.500435       -13.6175
  49   2.0000      -0.495655       -13.4875
  50   2.0000      -0.490917       -13.3585
  51   2.0000      -0.483559       -13.1583
  52   2.0000      -0.467995       -12.7348
  53   2.0000      -0.464592       -12.6422
  54   2.0000      -0.453394       -12.3375
  55   2.0000      -0.443530       -12.0691
  56   2.0000      -0.438358       -11.9283
  57   2.0000      -0.437212       -11.8971
  58   2.0000      -0.435229       -11.8432
  59   2.0000      -0.421318       -11.4646
  60   2.0000      -0.419461       -11.4141
  61   2.0000      -0.416514       -11.3339
  62   2.0000      -0.400722       -10.9042
  63   2.0000      -0.346050        -9.4165
  64   2.0000      -0.332457        -9.0466
  65   2.0000      -0.328424        -8.9369
  66   2.0000      -0.289076        -7.8662
  67   0.0000       0.023278         0.6334
  68   0.0000       0.075942         2.0665
  69   0.0000       0.107730         2.9315
  70   0.0000       0.110149         2.9973
  71   0.0000       0.135085         3.6758

MULLIKEN ATOMIC CHARGES
-----------------------
   0 S :    0.115353
   1 C :   -0.103648
   2 C :   -0.117284
   3 C :    0.004006
   4 C :   -0.178608
   5 H :    0.032935
   6 C :    0.140436
   7 H :   -0.032762
   8 H :    0.032741
   9 C :   -0.067028
  10 H :    0.038841
  11 H :    0.030164
  12 C :   -0.062603
  13 H :    0.033676
  14 H :    0.030080
  15 H :    0.039466
  16 S :    0.114346
  17 C :   -0.107765
  18 C :   -0.025402
  19 C :   -0.067119
  20 C :   -0.120151
  21 H :    0.005611
  22 C :    0.044328
  23 H :    0.043198
  24 H :    0.028619
  25 C :   -0.055441
  26 H :    0.039442
  27 H :    0.030572
  28 C :   -0.110904
  29 H :    0.041363
  30 H :    0.046576
  31 H :    0.051277
  32 H :    0.027629
  33 H :    0.078058
Sum of atomic charges:    0.0000000

LOEWDIN ATOMIC CHARGES
----------------------
   0 S :    0.421720
   1 C :   -0.189827
   2 C :   -0.054833
   3 C :   -0.067379
   4 C :   -0.198658
   5 H :    0.035782
   6 C :   -0.039617
   7 H :    0.014409
   8 H :    0.043530
   9 C :   -0.042344
  10 H :    0.035144
  11 H :    0.028136
  12 C :   -0.069667
  13 H :    0.025800
  14 H :    0.026202
  15 H :    0.027104
  16 S :    0.402187
  17 C :   -0.195927
  18 C :   -0.071706
  19 C :   -0.058395
  20 C :   -0.202383
  21 H :    0.023419
  22 C :   -0.033095
  23 H :    0.034076
  24 H :    0.034047
  25 C :   -0.049674
  26 H :    0.028083
  27 H :    0.024713
  28 C :   -0.083179
  29 H :    0.029769
  30 H :    0.031567
  31 H :    0.032020
  32 H :    0.013528
  33 H :    0.045446

  Mayer bond orders larger than 0.100000
B(  0-S ,  1-C ) :   1.1667 B(  0-S ,  4-C ) :   1.1461 B(  1-C ,  2-C ) :   1.5776
B(  1-C , 32-H ) :   0.9791 B(  2-C ,  3-C ) :   1.2365 B(  2-C ,  6-C ) :   1.0392
B(  3-C ,  4-C ) :   1.6016 B(  3-C ,  5-H ) :   0.9687 B(  4-C , 20-C ) :   1.0521
B(  6-C ,  7-H ) :   0.9045 B(  6-C ,  8-H ) :   0.9278 B(  6-C ,  9-C ) :   1.0671
B(  9-C , 10-H ) :   0.9513 B(  9-C , 11-H ) :   0.9474 B(  9-C , 12-C ) :   1.0922
B( 12-C , 13-H ) :   0.9752 B( 12-C , 14-H ) :   0.9691 B( 12-C , 15-H ) :   0.9679
B( 16-S , 17-C ) :   1.1525 B( 16-S , 20-C ) :   1.1354 B( 17-C , 18-C ) :   1.6018
B( 17-C , 20-C ) :   0.1005 B( 17-C , 33-H ) :   0.9607 B( 18-C , 19-C ) :   1.2569
B( 18-C , 21-H ) :   0.9897 B( 19-C , 20-C ) :   1.5761 B( 19-C , 22-C ) :   1.0232
B( 22-C , 23-H ) :   0.9449 B( 22-C , 24-H ) :   0.9301 B( 22-C , 25-C ) :   1.0712
B( 25-C , 26-H ) :   0.9561 B( 25-C , 27-H ) :   0.9563 B( 25-C , 28-C ) :   1.0617
B( 28-C , 29-H ) :   0.9740 B( 28-C , 30-H ) :   0.9696 B( 28-C , 31-H ) :   0.9743

Dispersion correction           -0.015036836
FINAL SINGLE POINT ENERGY     -1339.859684319064

DIPOLE MOMENT
-------------
                                X             Y             Z
Electronic contribution:    -22.72469      -8.35410       0.96638
Nuclear contribution   :     23.36524       8.34105      -1.04604
                        -----------------------------------------
Total Dipole Moment    :      0.64055      -0.01305      -0.07966
                        -----------------------------------------
Magnitude (a.u.)       :      0.64561
Magnitude (Debye)      :      1.64102

Rotational constants in cm-1:     0.018704     0.008941     0.007754
Rotational constants in MHz :   560.720117   268.033207   232.451511

                             ****ORCA TERMINATED NORMALLY****
TOTAL RUN TIME: 0 days 0 hours 0 minutes 31 seconds 438 msec
