                         Program Version 4.2.1 -  RELEASE  -
|  1> ! wB97X-D3 SP def2-SVP
|  2> %pal
|  3> nprocs 16
|  4> end
|  5>
|  6> * xyz 0 1
|  7> S 	 -36.3547 	 72.3956 	 154.211
|  8> C 	 -35.3827 	 73.794 	 153.648
|  9> C 	 -34.0687 	 73.5174 	 153.358
| 10> C 	 -33.8138 	 72.1898 	 153.722
| 11> C 	 -34.863 	 71.4026 	 154.2
| 12> H 	 -32.8334 	 71.7827 	 153.624
| 13> C 	 -32.9803 	 74.4086 	 152.771
| 14> H 	 -33.5749 	 75.0927 	 152.211
| 15> H 	 -32.4534 	 73.7535 	 152.144
| 16> C 	 -32.1916 	 75.1467 	 153.869
| 17> H 	 -32.8333 	 75.4823 	 154.661
| 18> H 	 -31.5475 	 74.4101 	 154.397
| 19> C 	 -31.3011 	 76.1805 	 153.295
| 20> H 	 -31.8596 	 76.6919 	 152.533
| 21> H 	 -31.0899 	 76.8845 	 154.086
| 22> H 	 -30.352 	 75.8351 	 152.925
| 23> S 	 -35.5274 	 68.8344 	 153.72
| 24> C 	 -35.1511 	 67.5223 	 154.812
| 25> C 	 -34.2602 	 68.0069 	 155.773
| 26> C 	 -34.1103 	 69.4165 	 155.671
| 27> C 	 -34.7874 	 70.055 	 154.639
| 28> H 	 -33.7644 	 67.3659 	 156.465
| 29> C 	 -33.1849 	 70.0972 	 156.674
| 30> H 	 -33.2669 	 69.4765 	 157.571
| 31> H 	 -33.6968 	 71.0506 	 156.94
| 32> C 	 -31.8071 	 70.2467 	 156.181
| 33> H 	 -31.6601 	 70.5135 	 155.079
| 34> H 	 -31.278 	 69.3002 	 156.382
| 35> C 	 -31.1306 	 71.4921 	 156.794
| 36> H 	 -31.1995 	 71.439 	 157.881
| 37> H 	 -31.4277 	 72.4658 	 156.398
| 38> H 	 -30.0273 	 71.4017 	 156.617
| 39> H 	 -35.892 	 74.7026 	 153.5
| 40> H 	 -35.2756 	 66.4221 	 154.582
| 41> *
| 42>
| 43>                          ****END OF INPUT****

CARTESIAN COORDINATES (ANGSTROEM)
---------------------------------
  S    -36.354700   72.395600  154.211000
  C    -35.382700   73.794000  153.648000
  C    -34.068700   73.517400  153.358000
  C    -33.813800   72.189800  153.722000
  C    -34.863000   71.402600  154.200000
  H    -32.833400   71.782700  153.624000
  C    -32.980300   74.408600  152.771000
  H    -33.574900   75.092700  152.211000
  H    -32.453400   73.753500  152.144000
  C    -32.191600   75.146700  153.869000
  H    -32.833300   75.482300  154.661000
  H    -31.547500   74.410100  154.397000
  C    -31.301100   76.180500  153.295000
  H    -31.859600   76.691900  152.533000
  H    -31.089900   76.884500  154.086000
  H    -30.352000   75.835100  152.925000
  S    -35.527400   68.834400  153.720000
  C    -35.151100   67.522300  154.812000
  C    -34.260200   68.006900  155.773000
  C    -34.110300   69.416500  155.671000
  C    -34.787400   70.055000  154.639000
  H    -33.764400   67.365900  156.465000
  C    -33.184900   70.097200  156.674000
  H    -33.266900   69.476500  157.571000
  H    -33.696800   71.050600  156.940000
  C    -31.807100   70.246700  156.181000
  H    -31.660100   70.513500  155.079000
  H    -31.278000   69.300200  156.382000
  C    -31.130600   71.492100  156.794000
  H    -31.199500   71.439000  157.881000
  H    -31.427700   72.465800  156.398000
  H    -30.027300   71.401700  156.617000
  H    -35.892000   74.702600  153.500000
  H    -35.275600   66.422100  154.582000

 Total Charge           Charge          ....    0
 Multiplicity           Mult            ....    1
 Number of Electrons    NEL             ....  134
 Basis Dimension        Dim             ....  322

ORBITAL ENERGIES
----------------

  NO   OCC          E(Eh)            E(eV)
   0   2.0000     -88.967061     -2420.9168
   1   2.0000     -88.960167     -2420.7292
   2   2.0000     -10.330133      -281.0972
   3   2.0000     -10.320664      -280.8395
   4   2.0000     -10.317609      -280.7564
   5   2.0000     -10.315399      -280.6963
   6   2.0000     -10.298024      -280.2235
   7   2.0000     -10.296644      -280.1859
   8   2.0000     -10.291937      -280.0578
   9   2.0000     -10.291172      -280.0370
  10   2.0000     -10.290820      -280.0275
  11   2.0000     -10.288508      -279.9645
  12   2.0000     -10.287962      -279.9497
  13   2.0000     -10.283848      -279.8377
  14   2.0000     -10.279474      -279.7187
  15   2.0000     -10.273128      -279.5460
  16   2.0000      -8.080542      -219.8827
  17   2.0000      -8.075952      -219.7578
  18   2.0000      -6.039084      -164.3318
  19   2.0000      -6.035332      -164.2297
  20   2.0000      -6.034440      -164.2055
  21   2.0000      -6.031233      -164.1182
  22   2.0000      -6.030068      -164.0865
  23   2.0000      -6.026886      -163.9999
  24   2.0000      -1.008552       -27.4441
  25   2.0000      -0.983578       -26.7645
  26   2.0000      -0.920899       -25.0589
  27   2.0000      -0.912534       -24.8313
  28   2.0000      -0.876359       -23.8469
  29   2.0000      -0.852944       -23.2098
  30   2.0000      -0.845223       -22.9997
  31   2.0000      -0.813699       -22.1419
  32   2.0000      -0.785601       -21.3773
  33   2.0000      -0.768117       -20.9015
  34   2.0000      -0.708581       -19.2815
  35   2.0000      -0.705900       -19.2085
  36   2.0000      -0.689121       -18.7519
  37   2.0000      -0.664793       -18.0899
  38   2.0000      -0.645403       -17.5623
  39   2.0000      -0.624419       -16.9913
  40   2.0000      -0.589108       -16.0304
  41   2.0000      -0.576971       -15.7002
  42   2.0000      -0.569321       -15.4920
  43   2.0000      -0.561321       -15.2743
  44   2.0000      -0.539306       -14.6753
  45   2.0000      -0.526378       -14.3235
  46   2.0000      -0.521763       -14.1979
  47   2.0000      -0.516601       -14.0574
  48   2.0000      -0.506243       -13.7756
  49   2.0000      -0.501036       -13.6339
  50   2.0000      -0.487992       -13.2789
  51   2.0000      -0.486982       -13.2514
  52   2.0000      -0.473045       -12.8722
  53   2.0000      -0.467781       -12.7290
  54   2.0000      -0.464568       -12.6415
  55   2.0000      -0.448885       -12.2148
  56   2.0000      -0.439489       -11.9591
  57   2.0000      -0.436369       -11.8742
  58   2.0000      -0.427254       -11.6262
  59   2.0000      -0.425687       -11.5835
  60   2.0000      -0.420862       -11.4522
  61   2.0000      -0.419334       -11.4107
  62   2.0000      -0.394864       -10.7448
  63   2.0000      -0.338345        -9.2068
  64   2.0000      -0.334365        -9.0985
  65   2.0000      -0.322752        -8.7825
  66   2.0000      -0.297495        -8.0952
  67   0.0000       0.032724         0.8905
  68   0.0000       0.058662         1.5963
  69   0.0000       0.109662         2.9841
  70   0.0000       0.124059         3.3758
  71   0.0000       0.130061         3.5391

MULLIKEN ATOMIC CHARGES
-----------------------
   0 S :    0.109858
   1 C :   -0.136597
   2 C :   -0.091103
   3 C :    0.045065
   4 C :   -0.156894
   5 H :   -0.016910
   6 C :    0.133585
   7 H :    0.012646
   8 H :    0.021844
   9 C :   -0.091705
  10 H :    0.030910
  11 H :    0.026439
  12 C :    0.009686
  13 H :    0.019485
  14 H :    0.026468
  15 H :    0.032990
  16 S :    0.105959
  17 C :   -0.113699
  18 C :   -0.034948
  19 C :   -0.068363
  20 C :   -0.153728
  21 H :    0.011891
  22 C :    0.076769
  23 H :    0.020229
  24 H :    0.034913
  25 C :   -0.068304
  26 H :    0.042318
  27 H :    0.030822
  28 C :   -0.075077
  29 H :    0.026699
  30 H :    0.049603
  31 H :    0.027195
  32 H :    0.028591
  33 H :    0.083366
Sum of atomic charges:    0.0000000

LOEWDIN ATOMIC CHARGES
----------------------
   0 S :    0.375656
   1 C :   -0.167252
   2 C :   -0.063181
   3 C :   -0.049885
   4 C :   -0.190735
   5 H :    0.020875
   6 C :   -0.013592
   7 H :    0.027535
   8 H :    0.027129
   9 C :   -0.040092
  10 H :    0.025635
  11 H :    0.027144
  12 C :   -0.059670
  13 H :    0.021933
  14 H :    0.029124
  15 H :    0.025457
  16 S :    0.437202
  17 C :   -0.200846
  18 C :   -0.075051
  19 C :   -0.054590
  20 C :   -0.229872
  21 H :    0.027004
  22 C :   -0.038791
  23 H :    0.031206
  24 H :    0.035258
  25 C :   -0.048244
  26 H :    0.031480
  27 H :    0.028046
  28 C :   -0.068781
  29 H :    0.020329
  30 H :    0.024446
  31 H :    0.027881
  32 H :    0.012432
  33 H :    0.044812

  Mayer bond orders larger than 0.100000
B(  0-S ,  1-C ) :   1.1467 B(  0-S ,  4-C ) :   1.1236 B(  1-C ,  2-C ) :   1.6015
B(  1-C ,  4-C ) :   0.1090 B(  1-C , 32-H ) :   0.9728 B(  2-C ,  3-C ) :   1.2585
B(  2-C ,  6-C ) :   0.9978 B(  3-C ,  4-C ) :   1.5794 B(  3-C ,  5-H ) :   0.9913
B(  4-C , 20-C ) :   1.0582 B(  6-C ,  7-H ) :   0.9314 B(  6-C ,  8-H ) :   0.9364
B(  6-C ,  9-C ) :   1.0698 B(  9-C , 10-H ) :   0.9586 B(  9-C , 11-H ) :   0.9470
B(  9-C , 12-C ) :   1.0884 B( 12-C , 13-H ) :   0.9735 B( 12-C , 14-H ) :   0.9697
B( 12-C , 15-H ) :   0.9731 B( 16-S , 17-C ) :   1.1845 B( 16-S , 20-C ) :   1.1600
B( 17-C , 18-C ) :   1.5464 B( 17-C , 20-C ) :   0.1086 B( 17-C , 33-H ) :   0.9593
B( 18-C , 19-C ) :   1.2959 B( 18-C , 21-H ) :   0.9939 B( 19-C , 20-C ) :   1.5533
B( 19-C , 22-C ) :   1.0389 B( 22-C , 23-H ) :   0.9284 B( 22-C , 24-H ) :   0.9382
B( 22-C , 25-C ) :   1.0571 B( 25-C , 26-H ) :   0.9613 B( 25-C , 27-H ) :   0.9468
B( 25-C , 28-C ) :   1.0760 B( 28-C , 29-H ) :   0.9722 B( 28-C , 30-H ) :   0.9765
B( 28-C , 31-H ) :   0.9734

Dispersion correction           -0.014927186
FINAL SINGLE POINT ENERGY     -1339.864501053023

DIPOLE MOMENT
-------------
                                X             Y             Z
Electronic contribution:    -26.42728     -16.44657      -6.38163
Nuclear contribution   :     27.19684      16.72491       6.48083
                        -----------------------------------------
Total Dipole Moment    :      0.76955       0.27834       0.09920
                        -----------------------------------------
Magnitude (a.u.)       :      0.82433
Magnitude (Debye)      :      2.09529

Rotational constants in cm-1:     0.019707     0.008989     0.006822
Rotational constants in MHz :   590.796331   269.472730   204.506401

                             ****ORCA TERMINATED NORMALLY****
TOTAL RUN TIME: 0 days 0 hours 0 minutes 35 seconds 958 msec
