                         Program Version 4.2.1 -  RELEASE  -
|  1> ! wB97X-D3 SP def2-SVP
|  2> %pal
|  3> nprocs 16
|  4> end
|  5>
|  6> * xyz 0 1
|  7> S 	 -13.4228 	 37.6931 	 32.693
|  8> C 	 -14.9658 	 37.9929 	 33.3542
|  9> C 	 -15.7473 	 38.5863 	 32.469
| 10> C 	 -15.0306 	 38.9786 	 31.2572
| 11> C 	 -13.734 	 38.6586 	 31.2893
| 12> H 	 -15.335 	 39.4568 	 30.3625
| 13> C 	 -17.2777 	 38.8577 	 32.6662
| 14> H 	 -17.416 	 39.8892 	 32.6307
| 15> H 	 -17.6099 	 38.5689 	 33.6451
| 16> C 	 -18.2573 	 38.3063 	 31.5603
| 17> H 	 -17.6649 	 37.5339 	 31.1178
| 18> H 	 -19.0472 	 37.7675 	 32.0643
| 19> C 	 -18.7854 	 39.3147 	 30.498
| 20> H 	 -17.9923 	 39.6842 	 29.8807
| 21> H 	 -19.2566 	 38.627 	 29.9065
| 22> H 	 -19.5136 	 40.0662 	 30.8299
| 23> S 	 -12.4301 	 37.3381 	 29.3143
| 24> C 	 -11.8387 	 38.1432 	 27.9323
| 25> C 	 -12.0044 	 39.5259 	 28.0365
| 26> C 	 -12.586 	 39.9192 	 29.2595
| 27> C 	 -12.8637 	 38.8627 	 30.0993
| 28> H 	 -11.5347 	 40.0785 	 27.2597
| 29> C 	 -12.832 	 41.3937 	 29.53
| 30> H 	 -12.153 	 42.0562 	 29.0048
| 31> H 	 -12.5993 	 41.5259 	 30.6247
| 32> C 	 -14.2659 	 41.9731 	 29.1295
| 33> H 	 -14.2112 	 43.0617 	 29.0659
| 34> H 	 -14.8949 	 41.853 	 30.0217
| 35> C 	 -14.9309 	 41.5022 	 27.809
| 36> H 	 -15.8734 	 41.9923 	 27.7711
| 37> H 	 -15.0106 	 40.3943 	 27.7502
| 38> H 	 -14.3713 	 41.7417 	 26.9378
| 39> H 	 -15.2698 	 37.517 	 34.2713
| 40> H 	 -11.4093 	 37.6751 	 27.0427
| 41> *
| 42>
| 43>                          ****END OF INPUT****

CARTESIAN COORDINATES (ANGSTROEM)
---------------------------------
  S    -13.422800   37.693100   32.693000
  C    -14.965800   37.992900   33.354200
  C    -15.747300   38.586300   32.469000
  C    -15.030600   38.978600   31.257200
  C    -13.734000   38.658600   31.289300
  H    -15.335000   39.456800   30.362500
  C    -17.277700   38.857700   32.666200
  H    -17.416000   39.889200   32.630700
  H    -17.609900   38.568900   33.645100
  C    -18.257300   38.306300   31.560300
  H    -17.664900   37.533900   31.117800
  H    -19.047200   37.767500   32.064300
  C    -18.785400   39.314700   30.498000
  H    -17.992300   39.684200   29.880700
  H    -19.256600   38.627000   29.906500
  H    -19.513600   40.066200   30.829900
  S    -12.430100   37.338100   29.314300
  C    -11.838700   38.143200   27.932300
  C    -12.004400   39.525900   28.036500
  C    -12.586000   39.919200   29.259500
  C    -12.863700   38.862700   30.099300
  H    -11.534700   40.078500   27.259700
  C    -12.832000   41.393700   29.530000
  H    -12.153000   42.056200   29.004800
  H    -12.599300   41.525900   30.624700
  C    -14.265900   41.973100   29.129500
  H    -14.211200   43.061700   29.065900
  H    -14.894900   41.853000   30.021700
  C    -14.930900   41.502200   27.809000
  H    -15.873400   41.992300   27.771100
  H    -15.010600   40.394300   27.750200
  H    -14.371300   41.741700   26.937800
  H    -15.269800   37.517000   34.271300
  H    -11.409300   37.675100   27.042700

 Total Charge           Charge          ....    0
 Multiplicity           Mult            ....    1
 Number of Electrons    NEL             ....  134
 Basis Dimension        Dim             ....  322

ORBITAL ENERGIES
----------------

  NO   OCC          E(Eh)            E(eV)
   0   2.0000     -88.963940     -2420.8319
   1   2.0000     -88.958727     -2420.6900
   2   2.0000     -10.328629      -281.0563
   3   2.0000     -10.323663      -280.9211
   4   2.0000     -10.315591      -280.7015
   5   2.0000     -10.305189      -280.4185
   6   2.0000     -10.305154      -280.4175
   7   2.0000     -10.299815      -280.2722
   8   2.0000     -10.296187      -280.1735
   9   2.0000     -10.291432      -280.0441
  10   2.0000     -10.289153      -279.9821
  11   2.0000     -10.286224      -279.9024
  12   2.0000     -10.284842      -279.8648
  13   2.0000     -10.283721      -279.8343
  14   2.0000     -10.277679      -279.6699
  15   2.0000     -10.273732      -279.5625
  16   2.0000      -8.079390      -219.8514
  17   2.0000      -8.075184      -219.7369
  18   2.0000      -6.037723      -164.2948
  19   2.0000      -6.033772      -164.1873
  20   2.0000      -6.033688      -164.1850
  21   2.0000      -6.030393      -164.0953
  22   2.0000      -6.029518      -164.0715
  23   2.0000      -6.025679      -163.9671
  24   2.0000      -1.015500       -27.6332
  25   2.0000      -0.992689       -27.0124
  26   2.0000      -0.902876       -24.5685
  27   2.0000      -0.899867       -24.4866
  28   2.0000      -0.876058       -23.8387
  29   2.0000      -0.850765       -23.1505
  30   2.0000      -0.844666       -22.9845
  31   2.0000      -0.818780       -22.2801
  32   2.0000      -0.786450       -21.4004
  33   2.0000      -0.779378       -21.2079
  34   2.0000      -0.707636       -19.2557
  35   2.0000      -0.700211       -19.0537
  36   2.0000      -0.688387       -18.7320
  37   2.0000      -0.665198       -18.1010
  38   2.0000      -0.651375       -17.7248
  39   2.0000      -0.615958       -16.7611
  40   2.0000      -0.585986       -15.9455
  41   2.0000      -0.571824       -15.5601
  42   2.0000      -0.550770       -14.9872
  43   2.0000      -0.547624       -14.9016
  44   2.0000      -0.545185       -14.8352
  45   2.0000      -0.532049       -14.4778
  46   2.0000      -0.520943       -14.1756
  47   2.0000      -0.513880       -13.9834
  48   2.0000      -0.510034       -13.8787
  49   2.0000      -0.497620       -13.5409
  50   2.0000      -0.491158       -13.3651
  51   2.0000      -0.483158       -13.1474
  52   2.0000      -0.480830       -13.0840
  53   2.0000      -0.473597       -12.8872
  54   2.0000      -0.462222       -12.5777
  55   2.0000      -0.443124       -12.0580
  56   2.0000      -0.440541       -11.9877
  57   2.0000      -0.434444       -11.8218
  58   2.0000      -0.433048       -11.7838
  59   2.0000      -0.422507       -11.4970
  60   2.0000      -0.415953       -11.3187
  61   2.0000      -0.412359       -11.2209
  62   2.0000      -0.409114       -11.1326
  63   2.0000      -0.349762        -9.5175
  64   2.0000      -0.332269        -9.0415
  65   2.0000      -0.323799        -8.8110
  66   2.0000      -0.302304        -8.2261
  67   0.0000       0.039941         1.0868
  68   0.0000       0.072188         1.9643
  69   0.0000       0.120216         3.2712
  70   0.0000       0.125529         3.4158
  71   0.0000       0.132351         3.6015

MULLIKEN ATOMIC CHARGES
-----------------------
   0 S :    0.094111
   1 C :   -0.119626
   2 C :   -0.070002
   3 C :    0.042340
   4 C :   -0.141897
   5 H :   -0.007221
   6 C :    0.122666
   7 H :    0.010070
   8 H :    0.002321
   9 C :   -0.111638
  10 H :    0.026269
  11 H :    0.026286
  12 C :   -0.004744
  13 H :    0.029732
  14 H :    0.011598
  15 H :    0.048619
  16 S :    0.108798
  17 C :   -0.101300
  18 C :   -0.045193
  19 C :   -0.043279
  20 C :   -0.151127
  21 H :    0.011471
  22 C :    0.066851
  23 H :    0.019874
  24 H :    0.046035
  25 C :   -0.112631
  26 H :    0.025207
  27 H :    0.031629
  28 C :   -0.025397
  29 H :    0.036140
  30 H :    0.043277
  31 H :    0.022473
  32 H :    0.046720
  33 H :    0.061566
Sum of atomic charges:   -0.0000000

LOEWDIN ATOMIC CHARGES
----------------------
   0 S :    0.409442
   1 C :   -0.199909
   2 C :   -0.062103
   3 C :   -0.058341
   4 C :   -0.203572
   5 H :    0.026282
   6 C :   -0.025384
   7 H :    0.020602
   8 H :    0.022829
   9 C :   -0.035305
  10 H :    0.022724
  11 H :    0.024207
  12 C :   -0.059030
  13 H :    0.024702
  14 H :    0.021141
  15 H :    0.030842
  16 S :    0.422575
  17 C :   -0.197677
  18 C :   -0.077020
  19 C :   -0.062681
  20 C :   -0.187075
  21 H :    0.028332
  22 C :   -0.032799
  23 H :    0.027648
  24 H :    0.041506
  25 C :   -0.044615
  26 H :    0.023941
  27 H :    0.021633
  28 C :   -0.063012
  29 H :    0.026772
  30 H :    0.028999
  31 H :    0.020992
  32 H :    0.030316
  33 H :    0.033036

  Mayer bond orders larger than 0.100000
B(  0-S ,  1-C ) :   1.1258 B(  0-S ,  4-C ) :   1.1397 B(  1-C ,  2-C ) :   1.6656
B(  1-C , 32-H ) :   0.9692 B(  2-C ,  3-C ) :   1.1737 B(  2-C ,  6-C ) :   1.0258
B(  3-C ,  4-C ) :   1.6275 B(  3-C ,  5-H ) :   1.0047 B(  4-C , 20-C ) :   0.9944
B(  6-C ,  7-H ) :   0.9438 B(  6-C ,  8-H ) :   0.9436 B(  6-C ,  9-C ) :   1.0382
B(  9-C , 10-H ) :   0.9679 B(  9-C , 11-H ) :   0.9611 B(  9-C , 12-C ) :   1.0730
B( 12-C , 13-H ) :   0.9744 B( 12-C , 14-H ) :   0.9672 B( 12-C , 15-H ) :   0.9735
B( 16-S , 17-C ) :   1.1822 B( 16-S , 20-C ) :   1.1513 B( 17-C , 18-C ) :   1.5937
B( 17-C , 33-H ) :   0.9640 B( 18-C , 19-C ) :   1.2388 B( 18-C , 21-H ) :   0.9993
B( 19-C , 20-C ) :   1.6102 B( 19-C , 22-C ) :   1.0390 B( 22-C , 23-H ) :   0.9420
B( 22-C , 24-H ) :   0.9444 B( 22-C , 25-C ) :   1.0510 B( 25-C , 26-H ) :   0.9571
B( 25-C , 27-H ) :   0.9580 B( 25-C , 28-C ) :   1.0770 B( 28-C , 29-H ) :   0.9724
B( 28-C , 30-H ) :   0.9702 B( 28-C , 31-H ) :   0.9734

Dispersion correction           -0.015371135
FINAL SINGLE POINT ENERGY     -1339.856282929330

DIPOLE MOMENT
-------------
                                X             Y             Z
Electronic contribution:     22.17186     -16.51397       7.80796
Nuclear contribution   :    -22.71135      16.85048      -8.16732
                        -----------------------------------------
Total Dipole Moment    :     -0.53948       0.33650      -0.35936
                        -----------------------------------------
Magnitude (a.u.)       :      0.73036
Magnitude (Debye)      :      1.85642

Rotational constants in cm-1:     0.016718     0.010315     0.007748
Rotational constants in MHz :   501.186144   309.223086   232.292876

                             ****ORCA TERMINATED NORMALLY****
TOTAL RUN TIME: 0 days 0 hours 0 minutes 35 seconds 724 msec
