                         Program Version 4.2.1 -  RELEASE  -
|  1> ! wB97X-D3 SP def2-SVP
|  2> %pal
|  3> nprocs 16
|  4> end
|  5>
|  6> * xyz 0 1
|  7> S 	 46.9722 	 21.4044 	 87.938
|  8> C 	 47.8234 	 22.7034 	 88.8419
|  9> C 	 48.0246 	 22.3605 	 90.1757
| 10> C 	 47.4182 	 21.0914 	 90.4355
| 11> C 	 46.8948 	 20.405 	 89.3616
| 12> H 	 47.4106 	 20.5206 	 91.3799
| 13> C 	 48.7327 	 23.1466 	 91.2522
| 14> H 	 49.8642 	 22.9609 	 91.047
| 15> H 	 48.5448 	 22.6091 	 92.1481
| 16> C 	 48.3196 	 24.6356 	 91.4272
| 17> H 	 48.4913 	 25.0854 	 90.4568
| 18> H 	 47.2562 	 24.713 	 91.6574
| 19> C 	 49.0835 	 25.2825 	 92.6081
| 20> H 	 50.0579 	 25.5464 	 92.253
| 21> H 	 48.6418 	 26.1927 	 92.8847
| 22> H 	 49.1911 	 24.5056 	 93.4544
| 23> S 	 45.1864 	 18.9545 	 90.9848
| 24> C 	 44.9061 	 17.3095 	 90.5083
| 25> C 	 45.4447 	 16.9579 	 89.2485
| 26> C 	 46.1296 	 18.0713 	 88.6627
| 27> C 	 46.16 	 19.1692 	 89.4986
| 28> H 	 45.3429 	 15.9774 	 88.8469
| 29> C 	 46.8814 	 17.9479 	 87.4038
| 30> H 	 47.1087 	 19.0137 	 87.0456
| 31> H 	 46.3532 	 17.3003 	 86.6436
| 32> C 	 48.3394 	 17.3031 	 87.6421
| 33> H 	 49.019 	 17.607 	 86.8753
| 34> H 	 48.2087 	 16.1978 	 87.5255
| 35> C 	 48.9576 	 17.3476 	 89.0093
| 36> H 	 48.308 	 17.1637 	 89.8703
| 37> H 	 49.3577 	 18.3576 	 89.3265
| 38> H 	 49.8198 	 16.6622 	 88.9855
| 39> H 	 48.4148 	 23.4176 	 88.3432
| 40> H 	 44.3215 	 16.701 	 91.1866
| 41> *
| 42>
| 43>                          ****END OF INPUT****

CARTESIAN COORDINATES (ANGSTROEM)
---------------------------------
  S     46.972200   21.404400   87.938000
  C     47.823400   22.703400   88.841900
  C     48.024600   22.360500   90.175700
  C     47.418200   21.091400   90.435500
  C     46.894800   20.405000   89.361600
  H     47.410600   20.520600   91.379900
  C     48.732700   23.146600   91.252200
  H     49.864200   22.960900   91.047000
  H     48.544800   22.609100   92.148100
  C     48.319600   24.635600   91.427200
  H     48.491300   25.085400   90.456800
  H     47.256200   24.713000   91.657400
  C     49.083500   25.282500   92.608100
  H     50.057900   25.546400   92.253000
  H     48.641800   26.192700   92.884700
  H     49.191100   24.505600   93.454400
  S     45.186400   18.954500   90.984800
  C     44.906100   17.309500   90.508300
  C     45.444700   16.957900   89.248500
  C     46.129600   18.071300   88.662700
  C     46.160000   19.169200   89.498600
  H     45.342900   15.977400   88.846900
  C     46.881400   17.947900   87.403800
  H     47.108700   19.013700   87.045600
  H     46.353200   17.300300   86.643600
  C     48.339400   17.303100   87.642100
  H     49.019000   17.607000   86.875300
  H     48.208700   16.197800   87.525500
  C     48.957600   17.347600   89.009300
  H     48.308000   17.163700   89.870300
  H     49.357700   18.357600   89.326500
  H     49.819800   16.662200   88.985500
  H     48.414800   23.417600   88.343200
  H     44.321500   16.701000   91.186600

 Total Charge           Charge          ....    0
 Multiplicity           Mult            ....    1
 Number of Electrons    NEL             ....  134
 Basis Dimension        Dim             ....  322

ORBITAL ENERGIES
----------------

  NO   OCC          E(Eh)            E(eV)
   0   2.0000     -88.970138     -2421.0005
   1   2.0000     -88.965450     -2420.8730
   2   2.0000     -10.325487      -280.9708
   3   2.0000     -10.325265      -280.9647
   4   2.0000     -10.323318      -280.9118
   5   2.0000     -10.311708      -280.5958
   6   2.0000     -10.304261      -280.3932
   7   2.0000     -10.302210      -280.3374
   8   2.0000     -10.300855      -280.3005
   9   2.0000     -10.299142      -280.2539
  10   2.0000     -10.298320      -280.2315
  11   2.0000     -10.290215      -280.0110
  12   2.0000     -10.290011      -280.0054
  13   2.0000     -10.287162      -279.9279
  14   2.0000     -10.281040      -279.7613
  15   2.0000     -10.273480      -279.5556
  16   2.0000      -8.084400      -219.9877
  17   2.0000      -8.079213      -219.8466
  18   2.0000      -6.042739      -164.4313
  19   2.0000      -6.039101      -164.3323
  20   2.0000      -6.037918      -164.3001
  21   2.0000      -6.035239      -164.2272
  22   2.0000      -6.033818      -164.1885
  23   2.0000      -6.029866      -164.0810
  24   2.0000      -1.005287       -27.3553
  25   2.0000      -0.979950       -26.6658
  26   2.0000      -0.910307       -24.7707
  27   2.0000      -0.905505       -24.6400
  28   2.0000      -0.867864       -23.6158
  29   2.0000      -0.853072       -23.2133
  30   2.0000      -0.845437       -23.0055
  31   2.0000      -0.807130       -21.9631
  32   2.0000      -0.782360       -21.2891
  33   2.0000      -0.771824       -21.0024
  34   2.0000      -0.709942       -19.3185
  35   2.0000      -0.699149       -19.0248
  36   2.0000      -0.688215       -18.7273
  37   2.0000      -0.669143       -18.2083
  38   2.0000      -0.635156       -17.2835
  39   2.0000      -0.607565       -16.5327
  40   2.0000      -0.588477       -16.0133
  41   2.0000      -0.572587       -15.5809
  42   2.0000      -0.558727       -15.2037
  43   2.0000      -0.552338       -15.0299
  44   2.0000      -0.545220       -14.8362
  45   2.0000      -0.523612       -14.2482
  46   2.0000      -0.518698       -14.1145
  47   2.0000      -0.508900       -13.8479
  48   2.0000      -0.503756       -13.7079
  49   2.0000      -0.498258       -13.5583
  50   2.0000      -0.487220       -13.2579
  51   2.0000      -0.476075       -12.9547
  52   2.0000      -0.467816       -12.7299
  53   2.0000      -0.457791       -12.4571
  54   2.0000      -0.456378       -12.4187
  55   2.0000      -0.452762       -12.3203
  56   2.0000      -0.444475       -12.0948
  57   2.0000      -0.438993       -11.9456
  58   2.0000      -0.432033       -11.7562
  59   2.0000      -0.428920       -11.6715
  60   2.0000      -0.420811       -11.4508
  61   2.0000      -0.418420       -11.3858
  62   2.0000      -0.396396       -10.7865
  63   2.0000      -0.346294        -9.4231
  64   2.0000      -0.333292        -9.0693
  65   2.0000      -0.329755        -8.9731
  66   2.0000      -0.285363        -7.7651
  67   0.0000       0.020841         0.5671
  68   0.0000       0.073947         2.0122
  69   0.0000       0.096980         2.6390
  70   0.0000       0.110454         3.0056
  71   0.0000       0.126078         3.4307

MULLIKEN ATOMIC CHARGES
-----------------------
   0 S :    0.089600
   1 C :   -0.119793
   2 C :   -0.075049
   3 C :   -0.045072
   4 C :   -0.114657
   5 H :    0.020332
   6 C :    0.045690
   7 H :    0.057196
   8 H :    0.006291
   9 C :   -0.080844
  10 H :    0.032357
  11 H :    0.040174
  12 C :   -0.023503
  13 H :    0.022002
  14 H :    0.027507
  15 H :    0.045410
  16 S :    0.114666
  17 C :   -0.103800
  18 C :   -0.010793
  19 C :   -0.057868
  20 C :   -0.147037
  21 H :    0.012524
  22 C :    0.048498
  23 H :    0.039883
  24 H :    0.050293
  25 C :   -0.090926
  26 H :    0.035993
  27 H :    0.025696
  28 C :   -0.054607
  29 H :    0.042616
  30 H :    0.029021
  31 H :    0.036478
  32 H :    0.042829
  33 H :    0.058892
Sum of atomic charges:    0.0000000

LOEWDIN ATOMIC CHARGES
----------------------
   0 S :    0.396582
   1 C :   -0.187456
   2 C :   -0.054693
   3 C :   -0.083778
   4 C :   -0.193133
   5 H :    0.025980
   6 C :   -0.036755
   7 H :    0.047203
   8 H :    0.021390
   9 C :   -0.035240
  10 H :    0.021899
  11 H :    0.028235
  12 C :   -0.060043
  13 H :    0.021736
  14 H :    0.019043
  15 H :    0.037373
  16 S :    0.407781
  17 C :   -0.179311
  18 C :   -0.063009
  19 C :   -0.057475
  20 C :   -0.186558
  21 H :    0.028864
  22 C :   -0.042651
  23 H :    0.026366
  24 H :    0.041321
  25 C :   -0.040421
  26 H :    0.023467
  27 H :    0.026399
  28 C :   -0.077212
  29 H :    0.028966
  30 H :    0.025777
  31 H :    0.029741
  32 H :    0.016590
  33 H :    0.023021

  Mayer bond orders larger than 0.100000
B(  0-S ,  1-C ) :   1.1226 B(  0-S ,  4-C ) :   1.1385 B(  1-C ,  2-C ) :   1.6099
B(  1-C , 32-H ) :   0.9667 B(  2-C ,  3-C ) :   1.2445 B(  2-C ,  6-C ) :   1.0155
B(  3-C ,  4-C ) :   1.5677 B(  3-C ,  5-H ) :   0.9822 B(  4-C , 20-C ) :   1.0733
B(  6-C ,  7-H ) :   0.9331 B(  6-C ,  8-H ) :   0.9380 B(  6-C ,  9-C ) :   1.0580
B(  9-C , 10-H ) :   0.9584 B(  9-C , 11-H ) :   0.9601 B(  9-C , 12-C ) :   1.0761
B( 12-C , 13-H ) :   0.9751 B( 12-C , 14-H ) :   0.9753 B( 12-C , 15-H ) :   0.9741
B( 16-S , 17-C ) :   1.1697 B( 16-S , 20-C ) :   1.1254 B( 17-C , 18-C ) :   1.5788
B( 17-C , 33-H ) :   0.9701 B( 18-C , 19-C ) :   1.2237 B( 18-C , 21-H ) :   1.0020
B( 19-C , 20-C ) :   1.5699 B( 19-C , 22-C ) :   1.0806 B( 22-C , 23-H ) :   0.9201
B( 22-C , 24-H ) :   0.9389 B( 22-C , 25-C ) :   1.0322 B( 25-C , 26-H ) :   0.9601
B( 25-C , 27-H ) :   0.9567 B( 25-C , 28-C ) :   1.0979 B( 28-C , 29-H ) :   0.9592
B( 28-C , 30-H ) :   0.9700 B( 28-C , 31-H ) :   0.9722

Dispersion correction           -0.015059713
FINAL SINGLE POINT ENERGY     -1339.871579553641

DIPOLE MOMENT
-------------
                                X             Y             Z
Electronic contribution:    -16.67507      -5.51301      -5.24300
Nuclear contribution   :     17.04964       5.37169       5.45927
                        -----------------------------------------
Total Dipole Moment    :      0.37457      -0.14132       0.21628
                        -----------------------------------------
Magnitude (a.u.)       :      0.45503
Magnitude (Debye)      :      1.15659

Rotational constants in cm-1:     0.023749     0.007592     0.006770
Rotational constants in MHz :   711.978246   227.600242   202.951270

                             ****ORCA TERMINATED NORMALLY****
TOTAL RUN TIME: 0 days 0 hours 0 minutes 30 seconds 675 msec
