                         Program Version 4.2.1 -  RELEASE  -
|  1> ! wB97X-D3 SP def2-SVP
|  2> %pal
|  3> nprocs 16
|  4> end
|  5>
|  6> * xyz 0 1
|  7> S 	 5.92269 	 -12.2512 	 69.9897
|  8> C 	 5.92595 	 -12.6089 	 68.2962
|  9> C 	 6.4017 	 -11.5394 	 67.5819
| 10> C 	 7.1937 	 -10.6273 	 68.4163
| 11> C 	 7.02797 	 -10.8966 	 69.8042
| 12> H 	 7.69498 	 -9.74531 	 68.0079
| 13> C 	 6.53269 	 -11.5976 	 66.0427
| 14> H 	 5.70988 	 -12.1919 	 65.5758
| 15> H 	 7.45206 	 -12.1164 	 65.8371
| 16> C 	 6.42579 	 -10.2206 	 65.4187
| 17> H 	 7.25095 	 -9.6111 	 65.7915
| 18> H 	 6.6377 	 -10.277 	 64.376
| 19> C 	 5.12302 	 -9.53803 	 65.7354
| 20> H 	 4.83227 	 -8.65634 	 65.212
| 21> H 	 4.35269 	 -10.2012 	 65.5265
| 22> H 	 4.92553 	 -9.37092 	 66.7899
| 23> S 	 8.02102 	 -11.0999 	 72.3373
| 24> C 	 8.57501 	 -9.63405 	 73.1731
| 25> C 	 8.36554 	 -8.49339 	 72.4296
| 26> C 	 7.79489 	 -8.79034 	 71.1574
| 27> C 	 7.59536 	 -10.1481 	 70.9302
| 28> H 	 8.70639 	 -7.52068 	 72.8319
| 29> C 	 7.38474 	 -7.56918 	 70.2604
| 30> H 	 6.95007 	 -7.904 	 69.3394
| 31> H 	 8.2789 	 -7.00886 	 70.1172
| 32> C 	 6.24904 	 -6.71848 	 70.8801
| 33> H 	 6.03405 	 -6.14302 	 70.0749
| 34> H 	 6.63347 	 -6.02571 	 71.6458
| 35> C 	 4.91108 	 -7.50757 	 71.2184
| 36> H 	 4.16667 	 -6.82373 	 71.5202
| 37> H 	 5.20548 	 -8.1473 	 72.0482
| 38> H 	 4.5116 	 -8.05422 	 70.3965
| 39> H 	 5.61986 	 -13.5814 	 67.9123
| 40> H 	 9.15326 	 -9.53634 	 74.0695
| 41> *
| 42>
| 43>                          ****END OF INPUT****

CARTESIAN COORDINATES (ANGSTROEM)
---------------------------------
  S      5.922690  -12.251200   69.989700
  C      5.925950  -12.608900   68.296200
  C      6.401700  -11.539400   67.581900
  C      7.193700  -10.627300   68.416300
  C      7.027970  -10.896600   69.804200
  H      7.694980   -9.745310   68.007900
  C      6.532690  -11.597600   66.042700
  H      5.709880  -12.191900   65.575800
  H      7.452060  -12.116400   65.837100
  C      6.425790  -10.220600   65.418700
  H      7.250950   -9.611100   65.791500
  H      6.637700  -10.277000   64.376000
  C      5.123020   -9.538030   65.735400
  H      4.832270   -8.656340   65.212000
  H      4.352690  -10.201200   65.526500
  H      4.925530   -9.370920   66.789900
  S      8.021020  -11.099900   72.337300
  C      8.575010   -9.634050   73.173100
  C      8.365540   -8.493390   72.429600
  C      7.794890   -8.790340   71.157400
  C      7.595360  -10.148100   70.930200
  H      8.706390   -7.520680   72.831900
  C      7.384740   -7.569180   70.260400
  H      6.950070   -7.904000   69.339400
  H      8.278900   -7.008860   70.117200
  C      6.249040   -6.718480   70.880100
  H      6.034050   -6.143020   70.074900
  H      6.633470   -6.025710   71.645800
  C      4.911080   -7.507570   71.218400
  H      4.166670   -6.823730   71.520200
  H      5.205480   -8.147300   72.048200
  H      4.511600   -8.054220   70.396500
  H      5.619860  -13.581400   67.912300
  H      9.153260   -9.536340   74.069500

 Total Charge           Charge          ....    0
 Multiplicity           Mult            ....    1
 Number of Electrons    NEL             ....  134
 Basis Dimension        Dim             ....  322

ORBITAL ENERGIES
----------------

  NO   OCC          E(Eh)            E(eV)
   0   2.0000     -88.967442     -2420.9272
   1   2.0000     -88.963348     -2420.8158
   2   2.0000     -10.336253      -281.2637
   3   2.0000     -10.329418      -281.0778
   4   2.0000     -10.317910      -280.7646
   5   2.0000     -10.310764      -280.5701
   6   2.0000     -10.306261      -280.4476
   7   2.0000     -10.303032      -280.3598
   8   2.0000     -10.301620      -280.3213
   9   2.0000     -10.296113      -280.1715
  10   2.0000     -10.292962      -280.0857
  11   2.0000     -10.291206      -280.0380
  12   2.0000     -10.281777      -279.7814
  13   2.0000     -10.280739      -279.7531
  14   2.0000     -10.271425      -279.4997
  15   2.0000     -10.264847      -279.3207
  16   2.0000      -8.081656      -219.9131
  17   2.0000      -8.078376      -219.8238
  18   2.0000      -6.040291      -164.3647
  19   2.0000      -6.036946      -164.2737
  20   2.0000      -6.036255      -164.2549
  21   2.0000      -6.032841      -164.1619
  22   2.0000      -6.032284      -164.1468
  23   2.0000      -6.029050      -164.0588
  24   2.0000      -1.002818       -27.2881
  25   2.0000      -0.981438       -26.7063
  26   2.0000      -0.915993       -24.9254
  27   2.0000      -0.903904       -24.5965
  28   2.0000      -0.870043       -23.6751
  29   2.0000      -0.843741       -22.9594
  30   2.0000      -0.838830       -22.8257
  31   2.0000      -0.812255       -22.1026
  32   2.0000      -0.785387       -21.3715
  33   2.0000      -0.777410       -21.1544
  34   2.0000      -0.714173       -19.4336
  35   2.0000      -0.698347       -19.0030
  36   2.0000      -0.690511       -18.7898
  37   2.0000      -0.658647       -17.9227
  38   2.0000      -0.635607       -17.2957
  39   2.0000      -0.621855       -16.9215
  40   2.0000      -0.591317       -16.0906
  41   2.0000      -0.564869       -15.3709
  42   2.0000      -0.564104       -15.3501
  43   2.0000      -0.556242       -15.1361
  44   2.0000      -0.542494       -14.7620
  45   2.0000      -0.534849       -14.5540
  46   2.0000      -0.517209       -14.0740
  47   2.0000      -0.505516       -13.7558
  48   2.0000      -0.499286       -13.5863
  49   2.0000      -0.495235       -13.4760
  50   2.0000      -0.491303       -13.3690
  51   2.0000      -0.477047       -12.9811
  52   2.0000      -0.470954       -12.8153
  53   2.0000      -0.463358       -12.6086
  54   2.0000      -0.455601       -12.3975
  55   2.0000      -0.449319       -12.2266
  56   2.0000      -0.447417       -12.1748
  57   2.0000      -0.445196       -12.1144
  58   2.0000      -0.439698       -11.9648
  59   2.0000      -0.425937       -11.5903
  60   2.0000      -0.416672       -11.3382
  61   2.0000      -0.410441       -11.1687
  62   2.0000      -0.405312       -11.0291
  63   2.0000      -0.350542        -9.5387
  64   2.0000      -0.332394        -9.0449
  65   2.0000      -0.325822        -8.8661
  66   2.0000      -0.287348        -7.8191
  67   0.0000       0.022450         0.6109
  68   0.0000       0.077223         2.1014
  69   0.0000       0.102445         2.7877
  70   0.0000       0.113759         3.0955
  71   0.0000       0.133295         3.6271

MULLIKEN ATOMIC CHARGES
-----------------------
   0 S :    0.108436
   1 C :   -0.138967
   2 C :   -0.090000
   3 C :    0.010432
   4 C :   -0.129361
   5 H :    0.029465
   6 C :    0.029188
   7 H :    0.029021
   8 H :    0.045654
   9 C :   -0.050598
  10 H :    0.017747
  11 H :    0.019850
  12 C :   -0.009952
  13 H :    0.026768
  14 H :   -0.003897
  15 H :    0.031822
  16 S :    0.105672
  17 C :   -0.077007
  18 C :   -0.057569
  19 C :   -0.057931
  20 C :   -0.156181
  21 H :    0.033136
  22 C :    0.095206
  23 H :    0.004374
  24 H :    0.029823
  25 C :   -0.071887
  26 H :    0.003958
  27 H :    0.031352
  28 C :   -0.028002
  29 H :    0.027555
  30 H :    0.050659
  31 H :    0.032949
  32 H :    0.059397
  33 H :    0.048887
Sum of atomic charges:    0.0000000

LOEWDIN ATOMIC CHARGES
----------------------
   0 S :    0.401204
   1 C :   -0.202590
   2 C :   -0.065230
   3 C :   -0.067961
   4 C :   -0.187884
   5 H :    0.030430
   6 C :   -0.027679
   7 H :    0.031203
   8 H :    0.032569
   9 C :   -0.042491
  10 H :    0.019321
  11 H :    0.022574
  12 C :   -0.064441
  13 H :    0.024633
  14 H :    0.017879
  15 H :    0.029757
  16 S :    0.397296
  17 C :   -0.174047
  18 C :   -0.073793
  19 C :   -0.053417
  20 C :   -0.203608
  21 H :    0.038732
  22 C :   -0.017600
  23 H :    0.021733
  24 H :    0.028565
  25 C :   -0.033218
  26 H :    0.009668
  27 H :    0.022911
  28 C :   -0.051361
  29 H :    0.021643
  30 H :    0.030846
  31 H :    0.024488
  32 H :    0.031431
  33 H :    0.028441

  Mayer bond orders larger than 0.100000
B(  0-S ,  1-C ) :   1.1379 B(  0-S ,  4-C ) :   1.1530 B(  1-C ,  2-C ) :   1.5989
B(  1-C , 32-H ) :   0.9723 B(  2-C ,  3-C ) :   1.2247 B(  2-C ,  6-C ) :   1.0194
B(  3-C ,  4-C ) :   1.5604 B(  3-C ,  5-H ) :   0.9848 B(  4-C , 20-C ) :   1.0626
B(  6-C ,  7-H ) :   0.9486 B(  6-C ,  8-H ) :   0.9462 B(  6-C ,  9-C ) :   1.0781
B(  9-C , 10-H ) :   0.9508 B(  9-C , 11-H ) :   0.9526 B(  9-C , 12-C ) :   1.0724
B( 12-C , 13-H ) :   0.9733 B( 12-C , 14-H ) :   0.9675 B( 12-C , 15-H ) :   0.9657
B( 16-S , 17-C ) :   1.1440 B( 16-S , 20-C ) :   1.1278 B( 17-C , 18-C ) :   1.6368
B( 17-C , 33-H ) :   0.9651 B( 18-C , 19-C ) :   1.2240 B( 18-C , 21-H ) :   0.9837
B( 19-C , 20-C ) :   1.6028 B( 19-C , 22-C ) :   1.0307 B( 22-C , 23-H ) :   0.9361
B( 22-C , 24-H ) :   0.9355 B( 22-C , 25-C ) :   1.0786 B( 25-C , 26-H ) :   0.9555
B( 25-C , 27-H ) :   0.9556 B( 25-C , 28-C ) :   1.0661 B( 28-C , 29-H ) :   0.9752
B( 28-C , 30-H ) :   0.9776 B( 28-C , 31-H ) :   0.9755

Dispersion correction           -0.015249702
FINAL SINGLE POINT ENERGY     -1339.861385207280

DIPOLE MOMENT
-------------
                                X             Y             Z
Electronic contribution:      8.27750     -18.31526      17.62882
Nuclear contribution   :     -8.20873      18.87028     -18.05127
                        -----------------------------------------
Total Dipole Moment    :      0.06877       0.55502      -0.42244
                        -----------------------------------------
Magnitude (a.u.)       :      0.70088
Magnitude (Debye)      :      1.78149

Rotational constants in cm-1:     0.019525     0.009476     0.007400
Rotational constants in MHz :   585.358452   284.087037   221.853659

                             ****ORCA TERMINATED NORMALLY****
TOTAL RUN TIME: 0 days 0 hours 0 minutes 36 seconds 588 msec
