                         Program Version 4.2.1 -  RELEASE  -
|  1> ! wB97X-D3 SP def2-SVP
|  2> %pal
|  3> nprocs 16
|  4> end
|  5>
|  6> * xyz 0 1
|  7> S 	 -41.4902 	 50.2131 	 101.597
|  8> C 	 -41.9184 	 49.6799 	 100.04
|  9> C 	 -42.1551 	 50.7788 	 99.1821
| 10> C 	 -41.8198 	 52.0111 	 99.7448
| 11> C 	 -41.4698 	 51.9111 	 101.087
| 12> H 	 -42.0015 	 53.0107 	 99.2524
| 13> C 	 -42.7057 	 50.5848 	 97.7991
| 14> H 	 -43.7502 	 50.3239 	 97.9499
| 15> H 	 -42.3275 	 49.6582 	 97.4661
| 16> C 	 -42.8099 	 51.8526 	 96.8479
| 17> H 	 -43.3852 	 51.6798 	 95.978
| 18> H 	 -43.2602 	 52.7303 	 97.3342
| 19> C 	 -41.3544 	 52.2202 	 96.4783
| 20> H 	 -41.343 	 53.0135 	 95.7189
| 21> H 	 -40.7209 	 52.4992 	 97.3079
| 22> H 	 -40.7418 	 51.3819 	 96.0546
| 23> S 	 -42.4683 	 53.1716 	 103.383
| 24> C 	 -41.8038 	 54.7719 	 103.795
| 25> C 	 -40.8141 	 55.1505 	 102.859
| 26> C 	 -40.4716 	 54.1503 	 101.9
| 27> C 	 -41.3094 	 53.0663 	 102.011
| 28> H 	 -40.4678 	 56.1789 	 102.928
| 29> C 	 -39.5045 	 54.55 	 100.869
| 30> H 	 -38.9685 	 55.5504 	 101.13
| 31> H 	 -40.0799 	 54.9411 	 100.085
| 32> C 	 -38.4264 	 53.5259 	 100.417
| 33> H 	 -38.7792 	 52.5729 	 100.368
| 34> H 	 -37.5916 	 53.4058 	 101.108
| 35> C 	 -37.9427 	 53.8867 	 99.0298
| 36> H 	 -38.6987 	 53.8824 	 98.2989
| 37> H 	 -37.209 	 53.1172 	 98.7049
| 38> H 	 -37.5039 	 54.8432 	 99.0637
| 39> H 	 -42.1679 	 48.6361 	 99.732
| 40> H 	 -42.194 	 55.3755 	 104.627
| 41> *
| 42>
| 43>                          ****END OF INPUT****

CARTESIAN COORDINATES (ANGSTROEM)
---------------------------------
  S    -41.490200   50.213100  101.597000
  C    -41.918400   49.679900  100.040000
  C    -42.155100   50.778800   99.182100
  C    -41.819800   52.011100   99.744800
  C    -41.469800   51.911100  101.087000
  H    -42.001500   53.010700   99.252400
  C    -42.705700   50.584800   97.799100
  H    -43.750200   50.323900   97.949900
  H    -42.327500   49.658200   97.466100
  C    -42.809900   51.852600   96.847900
  H    -43.385200   51.679800   95.978000
  H    -43.260200   52.730300   97.334200
  C    -41.354400   52.220200   96.478300
  H    -41.343000   53.013500   95.718900
  H    -40.720900   52.499200   97.307900
  H    -40.741800   51.381900   96.054600
  S    -42.468300   53.171600  103.383000
  C    -41.803800   54.771900  103.795000
  C    -40.814100   55.150500  102.859000
  C    -40.471600   54.150300  101.900000
  C    -41.309400   53.066300  102.011000
  H    -40.467800   56.178900  102.928000
  C    -39.504500   54.550000  100.869000
  H    -38.968500   55.550400  101.130000
  H    -40.079900   54.941100  100.085000
  C    -38.426400   53.525900  100.417000
  H    -38.779200   52.572900  100.368000
  H    -37.591600   53.405800  101.108000
  C    -37.942700   53.886700   99.029800
  H    -38.698700   53.882400   98.298900
  H    -37.209000   53.117200   98.704900
  H    -37.503900   54.843200   99.063700
  H    -42.167900   48.636100   99.732000
  H    -42.194000   55.375500  104.627000

 Total Charge           Charge          ....    0
 Multiplicity           Mult            ....    1
 Number of Electrons    NEL             ....  134
 Basis Dimension        Dim             ....  322

ORBITAL ENERGIES
----------------

  NO   OCC          E(Eh)            E(eV)
   0   2.0000     -88.969855     -2420.9928
   1   2.0000     -88.965566     -2420.8761
   2   2.0000     -10.330809      -281.1156
   3   2.0000     -10.330053      -281.0950
   4   2.0000     -10.322706      -280.8951
   5   2.0000     -10.313716      -280.6505
   6   2.0000     -10.301487      -280.3177
   7   2.0000     -10.299317      -280.2587
   8   2.0000     -10.296143      -280.1723
   9   2.0000     -10.296108      -280.1713
  10   2.0000     -10.295143      -280.1451
  11   2.0000     -10.293225      -280.0929
  12   2.0000     -10.289702      -279.9970
  13   2.0000     -10.278400      -279.6895
  14   2.0000     -10.273547      -279.5574
  15   2.0000     -10.267249      -279.3860
  16   2.0000      -8.084454      -219.9892
  17   2.0000      -8.079035      -219.8417
  18   2.0000      -6.042829      -164.4337
  19   2.0000      -6.038821      -164.3247
  20   2.0000      -6.037580      -164.2909
  21   2.0000      -6.035535      -164.2353
  22   2.0000      -6.033812      -164.1884
  23   2.0000      -6.029749      -164.0778
  24   2.0000      -1.002980       -27.2925
  25   2.0000      -0.980370       -26.6772
  26   2.0000      -0.910809       -24.7844
  27   2.0000      -0.908399       -24.7188
  28   2.0000      -0.862078       -23.4583
  29   2.0000      -0.857195       -23.3255
  30   2.0000      -0.847251       -23.0549
  31   2.0000      -0.812236       -22.1021
  32   2.0000      -0.780631       -21.2421
  33   2.0000      -0.765934       -20.8421
  34   2.0000      -0.715677       -19.4746
  35   2.0000      -0.709387       -19.3034
  36   2.0000      -0.687452       -18.7065
  37   2.0000      -0.659194       -17.9376
  38   2.0000      -0.634303       -17.2603
  39   2.0000      -0.623584       -16.9686
  40   2.0000      -0.596834       -16.2407
  41   2.0000      -0.563459       -15.3325
  42   2.0000      -0.557687       -15.1754
  43   2.0000      -0.544598       -14.8193
  44   2.0000      -0.536962       -14.6115
  45   2.0000      -0.529080       -14.3970
  46   2.0000      -0.520602       -14.1663
  47   2.0000      -0.507364       -13.8061
  48   2.0000      -0.504116       -13.7177
  49   2.0000      -0.495468       -13.4824
  50   2.0000      -0.489783       -13.3277
  51   2.0000      -0.486796       -13.2464
  52   2.0000      -0.474781       -12.9194
  53   2.0000      -0.467141       -12.7115
  54   2.0000      -0.455462       -12.3938
  55   2.0000      -0.454670       -12.3722
  56   2.0000      -0.444435       -12.0937
  57   2.0000      -0.436958       -11.8902
  58   2.0000      -0.432950       -11.7812
  59   2.0000      -0.425862       -11.5883
  60   2.0000      -0.420061       -11.4304
  61   2.0000      -0.412843       -11.2340
  62   2.0000      -0.408214       -11.1081
  63   2.0000      -0.344397        -9.3715
  64   2.0000      -0.329488        -8.9658
  65   2.0000      -0.323384        -8.7997
  66   2.0000      -0.288731        -7.8568
  67   0.0000       0.030134         0.8200
  68   0.0000       0.062740         1.7073
  69   0.0000       0.106756         2.9050
  70   0.0000       0.124501         3.3878
  71   0.0000       0.129929         3.5355

MULLIKEN ATOMIC CHARGES
-----------------------
   0 S :    0.131712
   1 C :   -0.135482
   2 C :   -0.124772
   3 C :    0.019595
   4 C :   -0.176622
   5 H :    0.040109
   6 C :    0.078341
   7 H :    0.031161
   8 H :    0.012608
   9 C :   -0.031640
  10 H :    0.027453
  11 H :    0.037725
  12 C :   -0.082827
  13 H :    0.030872
  14 H :    0.031772
  15 H :    0.030096
  16 S :    0.099068
  17 C :   -0.114870
  18 C :   -0.057934
  19 C :    0.035956
  20 C :   -0.165832
  21 H :    0.025266
  22 C :    0.016574
  23 H :    0.029380
  24 H :    0.020523
  25 C :   -0.011767
  26 H :    0.013361
  27 H :    0.028790
  28 C :   -0.036926
  29 H :    0.018302
  30 H :    0.032474
  31 H :    0.016925
  32 H :    0.060881
  33 H :    0.069728
Sum of atomic charges:    0.0000000

LOEWDIN ATOMIC CHARGES
----------------------
   0 S :    0.429726
   1 C :   -0.231584
   2 C :   -0.064132
   3 C :   -0.072717
   4 C :   -0.196206
   5 H :    0.044164
   6 C :   -0.033089
   7 H :    0.036451
   8 H :    0.026468
   9 C :   -0.029134
  10 H :    0.022815
  11 H :    0.029299
  12 C :   -0.075856
  13 H :    0.021576
  14 H :    0.020262
  15 H :    0.029874
  16 S :    0.372534
  17 C :   -0.180101
  18 C :   -0.069135
  19 C :   -0.057029
  20 C :   -0.183183
  21 H :    0.031995
  22 C :   -0.034305
  23 H :    0.042380
  24 H :    0.027757
  25 C :   -0.029375
  26 H :    0.011668
  27 H :    0.028572
  28 C :   -0.053494
  29 H :    0.014780
  30 H :    0.031508
  31 H :    0.016648
  32 H :    0.037862
  33 H :    0.033001

  Mayer bond orders larger than 0.100000
B(  0-S ,  1-C ) :   1.1610 B(  0-S ,  4-C ) :   1.1741 B(  1-C ,  2-C ) :   1.5594
B(  1-C ,  4-C ) :   0.1104 B(  1-C , 32-H ) :   0.9637 B(  2-C ,  3-C ) :   1.3177
B(  2-C ,  6-C ) :   1.0044 B(  3-C ,  4-C ) :   1.5209 B(  3-C ,  5-H ) :   0.9711
B(  4-C , 20-C ) :   1.0308 B(  6-C ,  7-H ) :   0.9268 B(  6-C ,  8-H ) :   0.9421
B(  6-C ,  9-C ) :   1.0729 B(  9-C , 10-H ) :   0.9561 B(  9-C , 11-H ) :   0.9508
B(  9-C , 12-C ) :   1.0677 B( 12-C , 13-H ) :   0.9765 B( 12-C , 14-H ) :   0.9765
B( 12-C , 15-H ) :   0.9715 B( 16-S , 17-C ) :   1.1430 B( 16-S , 20-C ) :   1.1292
B( 17-C , 18-C ) :   1.6195 B( 17-C , 33-H ) :   0.9657 B( 18-C , 19-C ) :   1.2150
B( 18-C , 21-H ) :   0.9877 B( 19-C , 20-C ) :   1.6082 B( 19-C , 22-C ) :   1.0386
B( 22-C , 23-H ) :   0.9307 B( 22-C , 24-H ) :   0.9355 B( 22-C , 25-C ) :   1.0404
B( 25-C , 26-H ) :   0.9588 B( 25-C , 27-H ) :   0.9514 B( 25-C , 28-C ) :   1.0882
B( 28-C , 29-H ) :   0.9769 B( 28-C , 30-H ) :   0.9716 B( 28-C , 31-H ) :   0.9726

Dispersion correction           -0.015395072
FINAL SINGLE POINT ENERGY     -1339.857386728811

DIPOLE MOMENT
-------------
                                X             Y             Z
Electronic contribution:    -10.71361      -7.47764      26.61676
Nuclear contribution   :     10.61153       7.78264     -27.24063
                        -----------------------------------------
Total Dipole Moment    :     -0.10209       0.30500      -0.62386
                        -----------------------------------------
Magnitude (a.u.)       :      0.70189
Magnitude (Debye)      :      1.78407

Rotational constants in cm-1:     0.016914     0.010289     0.007886
Rotational constants in MHz :   507.062156   308.468828   236.407842

                             ****ORCA TERMINATED NORMALLY****
TOTAL RUN TIME: 0 days 0 hours 0 minutes 32 seconds 89 msec
