                         Program Version 4.2.1 -  RELEASE  -
|  1> ! wB97X-D3 SP def2-SVP
|  2> %pal
|  3> nprocs 16
|  4> end
|  5>
|  6> * xyz 0 1
|  7> S 	 1.1746 	 -1.59253 	 77.2344
|  8> C 	 -0.245273 	 -2.10731 	 78.1724
|  9> C 	 0.0897158 	 -3.01782 	 79.1711
| 10> C 	 1.48402 	 -3.33532 	 79.1742
| 11> C 	 2.20483 	 -2.60437 	 78.2272
| 12> H 	 1.95654 	 -4.01814 	 79.8392
| 13> C 	 -0.927711 	 -3.62812 	 80.1545
| 14> H 	 -1.85119 	 -3.1562 	 79.8423
| 15> H 	 -0.658912 	 -3.122 	 81.0716
| 16> C 	 -1.04913 	 -5.14961 	 80.377
| 17> H 	 -1.98991 	 -5.36395 	 80.8841
| 18> H 	 -1.2125 	 -5.71522 	 79.4292
| 19> C 	 0.0489424 	 -5.84233 	 81.2717
| 20> H 	 1.03945 	 -5.77559 	 80.8426
| 21> H 	 0.198196 	 -5.42288 	 82.2371
| 22> H 	 -0.201227 	 -6.86259 	 81.4388
| 23> S 	 4.41187 	 -4.15783 	 78.9119
| 24> C 	 5.98134 	 -3.89675 	 78.0913
| 25> C 	 5.94636 	 -2.70761 	 77.3422
| 26> C 	 4.65061 	 -2.05557 	 77.3163
| 27> C 	 3.65593 	 -2.77955 	 78.0044
| 28> H 	 6.82223 	 -2.3203 	 76.9227
| 29> C 	 4.48631 	 -0.732939 	 76.5628
| 30> H 	 3.59519 	 -0.867395 	 75.9348
| 31> H 	 5.2887 	 -0.716791 	 75.8349
| 32> C 	 4.56263 	 0.612971 	 77.3777
| 33> H 	 5.56479 	 0.760032 	 77.8305
| 34> H 	 3.87566 	 0.47415 	 78.2202
| 35> C 	 4.16607 	 1.84623 	 76.4686
| 36> H 	 3.18142 	 1.94115 	 76.2206
| 37> H 	 4.7893 	 1.95811 	 75.5954
| 38> H 	 4.3319 	 2.73486 	 76.9923
| 39> H 	 -1.22301 	 -1.69169 	 78.0215
| 40> H 	 6.90514 	 -4.37515 	 78.2637
| 41> *
| 42>
| 43>                          ****END OF INPUT****

CARTESIAN COORDINATES (ANGSTROEM)
---------------------------------
  S      1.174600   -1.592530   77.234400
  C     -0.245273   -2.107310   78.172400
  C      0.089716   -3.017820   79.171100
  C      1.484020   -3.335320   79.174200
  C      2.204830   -2.604370   78.227200
  H      1.956540   -4.018140   79.839200
  C     -0.927711   -3.628120   80.154500
  H     -1.851190   -3.156200   79.842300
  H     -0.658912   -3.122000   81.071600
  C     -1.049130   -5.149610   80.377000
  H     -1.989910   -5.363950   80.884100
  H     -1.212500   -5.715220   79.429200
  C      0.048942   -5.842330   81.271700
  H      1.039450   -5.775590   80.842600
  H      0.198196   -5.422880   82.237100
  H     -0.201227   -6.862590   81.438800
  S      4.411870   -4.157830   78.911900
  C      5.981340   -3.896750   78.091300
  C      5.946360   -2.707610   77.342200
  C      4.650610   -2.055570   77.316300
  C      3.655930   -2.779550   78.004400
  H      6.822230   -2.320300   76.922700
  C      4.486310   -0.732939   76.562800
  H      3.595190   -0.867395   75.934800
  H      5.288700   -0.716791   75.834900
  C      4.562630    0.612971   77.377700
  H      5.564790    0.760032   77.830500
  H      3.875660    0.474150   78.220200
  C      4.166070    1.846230   76.468600
  H      3.181420    1.941150   76.220600
  H      4.789300    1.958110   75.595400
  H      4.331900    2.734860   76.992300
  H     -1.223010   -1.691690   78.021500
  H      6.905140   -4.375150   78.263700

 Total Charge           Charge          ....    0
 Multiplicity           Mult            ....    1
 Number of Electrons    NEL             ....  134
 Basis Dimension        Dim             ....  322

ORBITAL ENERGIES
----------------

  NO   OCC          E(Eh)            E(eV)
   0   2.0000     -88.971094     -2421.0265
   1   2.0000     -88.967000     -2420.9152
   2   2.0000     -10.337239      -281.2906
   3   2.0000     -10.336414      -281.2681
   4   2.0000     -10.320679      -280.8400
   5   2.0000     -10.314797      -280.6799
   6   2.0000     -10.309088      -280.5246
   7   2.0000     -10.304949      -280.4119
   8   2.0000     -10.296723      -280.1881
   9   2.0000     -10.295935      -280.1666
  10   2.0000     -10.295264      -280.1484
  11   2.0000     -10.294660      -280.1319
  12   2.0000     -10.293742      -280.1070
  13   2.0000     -10.292371      -280.0697
  14   2.0000     -10.276359      -279.6339
  15   2.0000     -10.267442      -279.3913
  16   2.0000      -8.084660      -219.9948
  17   2.0000      -8.079671      -219.8590
  18   2.0000      -6.043323      -164.4472
  19   2.0000      -6.039356      -164.3392
  20   2.0000      -6.038528      -164.3167
  21   2.0000      -6.035336      -164.2298
  22   2.0000      -6.034592      -164.2096
  23   2.0000      -6.030093      -164.0872
  24   2.0000      -0.997373       -27.1399
  25   2.0000      -0.971567       -26.4377
  26   2.0000      -0.904221       -24.6051
  27   2.0000      -0.896678       -24.3998
  28   2.0000      -0.864995       -23.5377
  29   2.0000      -0.850372       -23.1398
  30   2.0000      -0.841836       -22.9075
  31   2.0000      -0.811947       -22.0942
  32   2.0000      -0.787247       -21.4221
  33   2.0000      -0.773449       -21.0466
  34   2.0000      -0.713693       -19.4206
  35   2.0000      -0.707483       -19.2516
  36   2.0000      -0.693327       -18.8664
  37   2.0000      -0.671116       -18.2620
  38   2.0000      -0.637619       -17.3505
  39   2.0000      -0.611179       -16.6310
  40   2.0000      -0.586633       -15.9631
  41   2.0000      -0.564730       -15.3671
  42   2.0000      -0.558833       -15.2066
  43   2.0000      -0.545277       -14.8378
  44   2.0000      -0.537290       -14.6204
  45   2.0000      -0.519534       -14.1372
  46   2.0000      -0.515963       -14.0401
  47   2.0000      -0.511423       -13.9165
  48   2.0000      -0.504765       -13.7353
  49   2.0000      -0.498172       -13.5559
  50   2.0000      -0.486611       -13.2414
  51   2.0000      -0.483249       -13.1499
  52   2.0000      -0.477482       -12.9929
  53   2.0000      -0.463823       -12.6213
  54   2.0000      -0.457904       -12.4602
  55   2.0000      -0.452181       -12.3045
  56   2.0000      -0.445915       -12.1340
  57   2.0000      -0.441198       -12.0056
  58   2.0000      -0.436221       -11.8702
  59   2.0000      -0.429473       -11.6866
  60   2.0000      -0.416006       -11.3201
  61   2.0000      -0.413806       -11.2602
  62   2.0000      -0.411168       -11.1884
  63   2.0000      -0.358166        -9.7462
  64   2.0000      -0.334572        -9.1042
  65   2.0000      -0.327437        -8.9100
  66   2.0000      -0.278422        -7.5763
  67   0.0000       0.013725         0.3735
  68   0.0000       0.082816         2.2535
  69   0.0000       0.101787         2.7698
  70   0.0000       0.111355         3.0301
  71   0.0000       0.131527         3.5790

MULLIKEN ATOMIC CHARGES
-----------------------
   0 S :    0.100498
   1 C :   -0.133610
   2 C :   -0.077497
   3 C :   -0.023765
   4 C :   -0.085440
   5 H :    0.009735
   6 C :    0.096632
   7 H :    0.007921
   8 H :    0.035213
   9 C :   -0.063238
  10 H :    0.028107
  11 H :    0.040302
  12 C :   -0.044430
  13 H :    0.032052
  14 H :    0.020708
  15 H :    0.030093
  16 S :    0.056987
  17 C :   -0.052509
  18 C :   -0.021042
  19 C :   -0.078950
  20 C :   -0.119283
  21 H :    0.000189
  22 C :    0.041181
  23 H :    0.034795
  24 H :    0.009309
  25 C :   -0.060588
  26 H :    0.035760
  27 H :    0.035959
  28 C :    0.006866
  29 H :    0.015928
  30 H :    0.025019
  31 H :    0.009728
  32 H :    0.041986
  33 H :    0.045383
Sum of atomic charges:   -0.0000000

LOEWDIN ATOMIC CHARGES
----------------------
   0 S :    0.398634
   1 C :   -0.196965
   2 C :   -0.051392
   3 C :   -0.073676
   4 C :   -0.180931
   5 H :    0.016300
   6 C :   -0.030579
   7 H :    0.029498
   8 H :    0.035245
   9 C :   -0.040590
  10 H :    0.028373
  11 H :    0.032284
  12 C :   -0.062728
  13 H :    0.022067
  14 H :    0.021431
  15 H :    0.025813
  16 S :    0.366867
  17 C :   -0.167268
  18 C :   -0.059086
  19 C :   -0.059272
  20 C :   -0.166938
  21 H :    0.021165
  22 C :   -0.040431
  23 H :    0.026622
  24 H :    0.026079
  25 C :   -0.029355
  26 H :    0.028686
  27 H :    0.025150
  28 C :   -0.055572
  29 H :    0.015495
  30 H :    0.025990
  31 H :    0.022191
  32 H :    0.023130
  33 H :    0.023765

  Mayer bond orders larger than 0.100000
B(  0-S ,  1-C ) :   1.1183 B(  0-S ,  4-C ) :   1.1450 B(  1-C ,  2-C ) :   1.6176
B(  1-C , 32-H ) :   0.9647 B(  2-C ,  3-C ) :   1.2507 B(  2-C ,  6-C ) :   1.0110
B(  3-C ,  4-C ) :   1.5485 B(  3-C ,  5-H ) :   0.9837 B(  4-C , 20-C ) :   1.0979
B(  6-C ,  7-H ) :   0.9366 B(  6-C ,  8-H ) :   0.9368 B(  6-C ,  9-C ) :   1.0626
B(  9-C , 10-H ) :   0.9541 B(  9-C , 11-H ) :   0.9584 B(  9-C , 12-C ) :   1.0695
B( 12-C , 13-H ) :   0.9771 B( 12-C , 14-H ) :   0.9750 B( 12-C , 15-H ) :   0.9719
B( 16-S , 17-C ) :   1.1298 B( 16-S , 20-C ) :   1.1186 B( 17-C , 18-C ) :   1.6298
B( 17-C , 33-H ) :   0.9697 B( 18-C , 19-C ) :   1.2393 B( 18-C , 21-H ) :   0.9905
B( 19-C , 20-C ) :   1.5747 B( 19-C , 22-C ) :   1.0339 B( 22-C , 23-H ) :   0.9418
B( 22-C , 24-H ) :   0.9303 B( 22-C , 25-C ) :   1.0445 B( 25-C , 26-H ) :   0.9576
B( 25-C , 27-H ) :   0.9609 B( 25-C , 28-C ) :   1.0741 B( 28-C , 29-H ) :   0.9758
B( 28-C , 30-H ) :   0.9755 B( 28-C , 31-H ) :   0.9703

Dispersion correction           -0.014080555
FINAL SINGLE POINT ENERGY     -1339.869827037227

DIPOLE MOMENT
-------------
                                X             Y             Z
Electronic contribution:      5.26544      -4.78129      -4.81730
Nuclear contribution   :     -5.31844       4.97183       5.01199
                        -----------------------------------------
Total Dipole Moment    :     -0.05300       0.19054       0.19469
                        -----------------------------------------
Magnitude (a.u.)       :      0.27753
Magnitude (Debye)      :      0.70542

Rotational constants in cm-1:     0.019783     0.008597     0.006297
Rotational constants in MHz :   593.078328   257.739726   188.792045

                             ****ORCA TERMINATED NORMALLY****
TOTAL RUN TIME: 0 days 0 hours 0 minutes 34 seconds 556 msec
