                         Program Version 4.2.1 -  RELEASE  -
|  1> ! wB97X-D3 SP def2-SVP
|  2> %pal
|  3> nprocs 16
|  4> end
|  5>
|  6> * xyz 0 1
|  7> S 	 -30.532 	 58.6764 	 116.813
|  8> C 	 -31.8212 	 57.4364 	 116.858
|  9> C 	 -33.0285 	 57.9424 	 117.15
| 10> C 	 -32.9237 	 59.3289 	 117.459
| 11> C 	 -31.6356 	 59.8526 	 117.464
| 12> H 	 -33.7396 	 59.9545 	 117.627
| 13> C 	 -34.3807 	 57.1542 	 117.2
| 14> H 	 -34.5757 	 56.6772 	 118.127
| 15> H 	 -34.3079 	 56.3903 	 116.525
| 16> C 	 -35.6472 	 57.9337 	 116.918
| 17> H 	 -36.5026 	 57.27 	 116.983
| 18> H 	 -35.9411 	 58.6988 	 117.707
| 19> C 	 -35.6441 	 58.5731 	 115.523
| 20> H 	 -36.6479 	 58.8729 	 115.27
| 21> H 	 -35.156 	 59.5073 	 115.502
| 22> H 	 -35.123 	 58.0116 	 114.801
| 23> S 	 -30.6432 	 62.0311 	 116.083
| 24> C 	 -30.4372 	 63.5218 	 116.929
| 25> C 	 -31.1217 	 63.5409 	 118.099
| 26> C 	 -31.605 	 62.249 	 118.457
| 27> C 	 -31.2833 	 61.3145 	 117.557
| 28> H 	 -31.0828 	 64.4863 	 118.7
| 29> C 	 -32.2578 	 62.0032 	 119.79
| 30> H 	 -31.497 	 62.1809 	 120.596
| 31> H 	 -32.5008 	 60.9404 	 119.854
| 32> C 	 -33.5227 	 62.8237 	 120.06
| 33> H 	 -34.3686 	 62.4758 	 119.394
| 34> H 	 -33.3506 	 63.91 	 119.756
| 35> C 	 -34.0283 	 62.6855 	 121.509
| 36> H 	 -34.0355 	 61.6151 	 121.749
| 37> H 	 -35.0243 	 63.0733 	 121.814
| 38> H 	 -33.3026 	 63.1747 	 122.167
| 39> H 	 -31.7233 	 56.355 	 116.61
| 40> H 	 -29.8089 	 64.2652 	 116.576
| 41> *
| 42>
| 43>                          ****END OF INPUT****

CARTESIAN COORDINATES (ANGSTROEM)
---------------------------------
  S    -30.532000   58.676400  116.813000
  C    -31.821200   57.436400  116.858000
  C    -33.028500   57.942400  117.150000
  C    -32.923700   59.328900  117.459000
  C    -31.635600   59.852600  117.464000
  H    -33.739600   59.954500  117.627000
  C    -34.380700   57.154200  117.200000
  H    -34.575700   56.677200  118.127000
  H    -34.307900   56.390300  116.525000
  C    -35.647200   57.933700  116.918000
  H    -36.502600   57.270000  116.983000
  H    -35.941100   58.698800  117.707000
  C    -35.644100   58.573100  115.523000
  H    -36.647900   58.872900  115.270000
  H    -35.156000   59.507300  115.502000
  H    -35.123000   58.011600  114.801000
  S    -30.643200   62.031100  116.083000
  C    -30.437200   63.521800  116.929000
  C    -31.121700   63.540900  118.099000
  C    -31.605000   62.249000  118.457000
  C    -31.283300   61.314500  117.557000
  H    -31.082800   64.486300  118.700000
  C    -32.257800   62.003200  119.790000
  H    -31.497000   62.180900  120.596000
  H    -32.500800   60.940400  119.854000
  C    -33.522700   62.823700  120.060000
  H    -34.368600   62.475800  119.394000
  H    -33.350600   63.910000  119.756000
  C    -34.028300   62.685500  121.509000
  H    -34.035500   61.615100  121.749000
  H    -35.024300   63.073300  121.814000
  H    -33.302600   63.174700  122.167000
  H    -31.723300   56.355000  116.610000
  H    -29.808900   64.265200  116.576000

 Total Charge           Charge          ....    0
 Multiplicity           Mult            ....    1
 Number of Electrons    NEL             ....  134
 Basis Dimension        Dim             ....  322

ORBITAL ENERGIES
----------------

  NO   OCC          E(Eh)            E(eV)
   0   2.0000     -88.968037     -2420.9434
   1   2.0000     -88.958619     -2420.6871
   2   2.0000     -10.330680      -281.1121
   3   2.0000     -10.323463      -280.9157
   4   2.0000     -10.316018      -280.7131
   5   2.0000     -10.306932      -280.4659
   6   2.0000     -10.299992      -280.2770
   7   2.0000     -10.297458      -280.2081
   8   2.0000     -10.296959      -280.1945
   9   2.0000     -10.292858      -280.0829
  10   2.0000     -10.292792      -280.0811
  11   2.0000     -10.291275      -280.0398
  12   2.0000     -10.289424      -279.9895
  13   2.0000     -10.288249      -279.9575
  14   2.0000     -10.282577      -279.8031
  15   2.0000     -10.265815      -279.3470
  16   2.0000      -8.082180      -219.9273
  17   2.0000      -8.074445      -219.7168
  18   2.0000      -6.040829      -164.3793
  19   2.0000      -6.036829      -164.2705
  20   2.0000      -6.032948      -164.1649
  21   2.0000      -6.032763      -164.1598
  22   2.0000      -6.029070      -164.0593
  23   2.0000      -6.024871      -163.9451
  24   2.0000      -1.010708       -27.5028
  25   2.0000      -0.989033       -26.9130
  26   2.0000      -0.915002       -24.8985
  27   2.0000      -0.908262       -24.7151
  28   2.0000      -0.869283       -23.6544
  29   2.0000      -0.851663       -23.1749
  30   2.0000      -0.840697       -22.8765
  31   2.0000      -0.816258       -22.2115
  32   2.0000      -0.791971       -21.5506
  33   2.0000      -0.775961       -21.1150
  34   2.0000      -0.707774       -19.2595
  35   2.0000      -0.695946       -18.9377
  36   2.0000      -0.693658       -18.8754
  37   2.0000      -0.659103       -17.9351
  38   2.0000      -0.638296       -17.3689
  39   2.0000      -0.624528       -16.9943
  40   2.0000      -0.601441       -16.3661
  41   2.0000      -0.566331       -15.4107
  42   2.0000      -0.562357       -15.3025
  43   2.0000      -0.558649       -15.2016
  44   2.0000      -0.537422       -14.6240
  45   2.0000      -0.522970       -14.2307
  46   2.0000      -0.519274       -14.1302
  47   2.0000      -0.514951       -14.0125
  48   2.0000      -0.509058       -13.8522
  49   2.0000      -0.493346       -13.4246
  50   2.0000      -0.487357       -13.2617
  51   2.0000      -0.478794       -13.0286
  52   2.0000      -0.472797       -12.8655
  53   2.0000      -0.463813       -12.6210
  54   2.0000      -0.458637       -12.4802
  55   2.0000      -0.453585       -12.3427
  56   2.0000      -0.448281       -12.1984
  57   2.0000      -0.437112       -11.8944
  58   2.0000      -0.431453       -11.7404
  59   2.0000      -0.428349       -11.6560
  60   2.0000      -0.423216       -11.5163
  61   2.0000      -0.414487       -11.2788
  62   2.0000      -0.410911       -11.1815
  63   2.0000      -0.341902        -9.3036
  64   2.0000      -0.335345        -9.1252
  65   2.0000      -0.327969        -8.9245
  66   2.0000      -0.300790        -8.1849
  67   0.0000       0.033086         0.9003
  68   0.0000       0.072590         1.9753
  69   0.0000       0.108469         2.9516
  70   0.0000       0.118737         3.2310
  71   0.0000       0.130258         3.5445

MULLIKEN ATOMIC CHARGES
-----------------------
   0 S :    0.108604
   1 C :   -0.144905
   2 C :   -0.080324
   3 C :    0.054532
   4 C :   -0.162568
   5 H :   -0.014052
   6 C :    0.160606
   7 H :    0.030276
   8 H :   -0.004866
   9 C :   -0.135151
  10 H :    0.025099
  11 H :    0.034780
  12 C :   -0.001186
  13 H :    0.023328
  14 H :    0.013664
  15 H :    0.024445
  16 S :    0.092303
  17 C :   -0.070249
  18 C :   -0.043541
  19 C :   -0.024153
  20 C :   -0.139325
  21 H :    0.038744
  22 C :    0.052096
  23 H :    0.041981
  24 H :    0.023494
  25 C :   -0.116439
  26 H :    0.036839
  27 H :    0.039930
  28 C :   -0.049271
  29 H :    0.028584
  30 H :    0.043270
  31 H :    0.029548
  32 H :    0.052742
  33 H :    0.031165
Sum of atomic charges:    0.0000000

LOEWDIN ATOMIC CHARGES
----------------------
   0 S :    0.396095
   1 C :   -0.185537
   2 C :   -0.064255
   3 C :   -0.051223
   4 C :   -0.198398
   5 H :    0.017454
   6 C :   -0.016757
   7 H :    0.032260
   8 H :    0.017534
   9 C :   -0.045859
  10 H :    0.025014
  11 H :    0.028618
  12 C :   -0.061059
  13 H :    0.026729
  14 H :    0.021621
  15 H :    0.021614
  16 S :    0.393131
  17 C :   -0.169621
  18 C :   -0.075038
  19 C :   -0.064105
  20 C :   -0.187071
  21 H :    0.041663
  22 C :   -0.033413
  23 H :    0.037326
  24 H :    0.028993
  25 C :   -0.048895
  26 H :    0.027892
  27 H :    0.025995
  28 C :   -0.072568
  29 H :    0.026428
  30 H :    0.030006
  31 H :    0.024204
  32 H :    0.037168
  33 H :    0.014056

  Mayer bond orders larger than 0.100000
B(  0-S ,  1-C ) :   1.1270 B(  0-S ,  4-C ) :   1.1502 B(  1-C ,  2-C ) :   1.6610
B(  1-C , 32-H ) :   0.9579 B(  2-C ,  3-C ) :   1.2400 B(  2-C ,  6-C ) :   0.9895
B(  3-C ,  4-C ) :   1.5696 B(  3-C ,  5-H ) :   1.0007 B(  4-C , 20-C ) :   0.9962
B(  6-C ,  7-H ) :   0.9341 B(  6-C ,  8-H ) :   0.9327 B(  6-C ,  9-C ) :   1.0951
B(  9-C , 10-H ) :   0.9544 B(  9-C , 11-H ) :   0.9468 B(  9-C , 12-C ) :   1.0773
B( 12-C , 13-H ) :   0.9716 B( 12-C , 14-H ) :   0.9683 B( 12-C , 15-H ) :   0.9759
B( 16-S , 17-C ) :   1.1461 B( 16-S , 20-C ) :   1.1284 B( 17-C , 18-C ) :   1.6478
B( 17-C , 33-H ) :   0.9767 B( 18-C , 19-C ) :   1.1818 B( 18-C , 21-H ) :   0.9855
B( 19-C , 20-C ) :   1.6802 B( 19-C , 22-C ) :   1.0470 B( 22-C , 23-H ) :   0.9414
B( 22-C , 24-H ) :   0.9261 B( 22-C , 25-C ) :   1.0488 B( 25-C , 26-H ) :   0.9525
B( 25-C , 27-H ) :   0.9605 B( 25-C , 28-C ) :   1.0708 B( 28-C , 29-H ) :   0.9722
B( 28-C , 30-H ) :   0.9763 B( 28-C , 31-H ) :   0.9758

Dispersion correction           -0.014239200
FINAL SINGLE POINT ENERGY     -1339.868783112138

DIPOLE MOMENT
-------------
                                X             Y             Z
Electronic contribution:     24.87906      -0.17307     -12.33938
Nuclear contribution   :    -25.46978       0.16247      12.61864
                        -----------------------------------------
Total Dipole Moment    :     -0.59073      -0.01061       0.27926
                        -----------------------------------------
Magnitude (a.u.)       :      0.65350
Magnitude (Debye)      :      1.66105

Rotational constants in cm-1:     0.015874     0.009659     0.007287
Rotational constants in MHz :   475.895402   289.566754   218.465313

                             ****ORCA TERMINATED NORMALLY****
TOTAL RUN TIME: 0 days 0 hours 0 minutes 30 seconds 77 msec
