                         Program Version 4.2.1 -  RELEASE  -
|  1> ! wB97X-D3 SP def2-SVP
|  2> %pal
|  3> nprocs 16
|  4> end
|  5>
|  6> * xyz 0 1
|  7> S 	 -80.8338 	 44.2835 	 122.825
|  8> C 	 -82.2725 	 43.9315 	 121.929
|  9> C 	 -82.0846 	 42.7683 	 121.255
| 10> C 	 -80.8283 	 42.1974 	 121.435
| 11> C 	 -80.0719 	 42.7187 	 122.428
| 12> H 	 -80.4851 	 41.2118 	 121.017
| 13> C 	 -83.0642 	 42.3184 	 120.167
| 14> H 	 -82.793 	 42.5681 	 119.14
| 15> H 	 -84.0209 	 42.8505 	 120.535
| 16> C 	 -83.4378 	 40.7812 	 120.246
| 17> H 	 -84.2305 	 40.6527 	 119.503
| 18> H 	 -82.5757 	 40.205 	 119.957
| 19> C 	 -83.798 	 40.3358 	 121.71
| 20> H 	 -82.9175 	 39.9925 	 122.268
| 21> H 	 -84.1821 	 41.1408 	 122.407
| 22> H 	 -84.6086 	 39.5353 	 121.727
| 23> S 	 -77.7427 	 43.6892 	 123.466
| 24> C 	 -76.4693 	 42.5349 	 123.999
| 25> C 	 -76.8583 	 41.2362 	 123.777
| 26> C 	 -78.0906 	 41.1355 	 123.128
| 27> C 	 -78.7669 	 42.3514 	 122.99
| 28> H 	 -76.2644 	 40.4343 	 124.102
| 29> C 	 -78.8741 	 39.8281 	 122.991
| 30> H 	 -79.9234 	 40.0086 	 123.073
| 31> H 	 -78.7469 	 39.1493 	 123.888
| 32> C 	 -78.4997 	 38.8645 	 121.853
| 33> H 	 -77.4194 	 39.1583 	 121.673
| 34> H 	 -78.9244 	 39.1593 	 120.856
| 35> C 	 -78.671 	 37.3217 	 122.125
| 36> H 	 -79.7436 	 37.1758 	 122.262
| 37> H 	 -78.1316 	 36.9785 	 123.02
| 38> H 	 -78.4511 	 36.6811 	 121.332
| 39> H 	 -83.1867 	 44.5111 	 121.874
| 40> H 	 -75.5583 	 42.8963 	 124.324
| 41> *
| 42>
| 43>                          ****END OF INPUT****

CARTESIAN COORDINATES (ANGSTROEM)
---------------------------------
  S    -80.833800   44.283500  122.825000
  C    -82.272500   43.931500  121.929000
  C    -82.084600   42.768300  121.255000
  C    -80.828300   42.197400  121.435000
  C    -80.071900   42.718700  122.428000
  H    -80.485100   41.211800  121.017000
  C    -83.064200   42.318400  120.167000
  H    -82.793000   42.568100  119.140000
  H    -84.020900   42.850500  120.535000
  C    -83.437800   40.781200  120.246000
  H    -84.230500   40.652700  119.503000
  H    -82.575700   40.205000  119.957000
  C    -83.798000   40.335800  121.710000
  H    -82.917500   39.992500  122.268000
  H    -84.182100   41.140800  122.407000
  H    -84.608600   39.535300  121.727000
  S    -77.742700   43.689200  123.466000
  C    -76.469300   42.534900  123.999000
  C    -76.858300   41.236200  123.777000
  C    -78.090600   41.135500  123.128000
  C    -78.766900   42.351400  122.990000
  H    -76.264400   40.434300  124.102000
  C    -78.874100   39.828100  122.991000
  H    -79.923400   40.008600  123.073000
  H    -78.746900   39.149300  123.888000
  C    -78.499700   38.864500  121.853000
  H    -77.419400   39.158300  121.673000
  H    -78.924400   39.159300  120.856000
  C    -78.671000   37.321700  122.125000
  H    -79.743600   37.175800  122.262000
  H    -78.131600   36.978500  123.020000
  H    -78.451100   36.681100  121.332000
  H    -83.186700   44.511100  121.874000
  H    -75.558300   42.896300  124.324000

 Total Charge           Charge          ....    0
 Multiplicity           Mult            ....    1
 Number of Electrons    NEL             ....  134
 Basis Dimension        Dim             ....  322

ORBITAL ENERGIES
----------------

  NO   OCC          E(Eh)            E(eV)
   0   2.0000     -88.968217     -2420.9483
   1   2.0000     -88.963165     -2420.8108
   2   2.0000     -10.335332      -281.2387
   3   2.0000     -10.333688      -281.1939
   4   2.0000     -10.320168      -280.8260
   5   2.0000     -10.313320      -280.6397
   6   2.0000     -10.306831      -280.4631
   7   2.0000     -10.300768      -280.2981
   8   2.0000     -10.297255      -280.2026
   9   2.0000     -10.295811      -280.1633
  10   2.0000     -10.294799      -280.1357
  11   2.0000     -10.294567      -280.1294
  12   2.0000     -10.292729      -280.0794
  13   2.0000     -10.292031      -280.0604
  14   2.0000     -10.287752      -279.9440
  15   2.0000     -10.282363      -279.7973
  16   2.0000      -8.082505      -219.9362
  17   2.0000      -8.077996      -219.8135
  18   2.0000      -6.040990      -164.3837
  19   2.0000      -6.037100      -164.2778
  20   2.0000      -6.036632      -164.2651
  21   2.0000      -6.033284      -164.1740
  22   2.0000      -6.032532      -164.1535
  23   2.0000      -6.028557      -164.0454
  24   2.0000      -1.013105       -27.5680
  25   2.0000      -0.990682       -26.9578
  26   2.0000      -0.905176       -24.6311
  27   2.0000      -0.902556       -24.5598
  28   2.0000      -0.873631       -23.7727
  29   2.0000      -0.852019       -23.1846
  30   2.0000      -0.838036       -22.8041
  31   2.0000      -0.822615       -22.3845
  32   2.0000      -0.783302       -21.3147
  33   2.0000      -0.769960       -20.9517
  34   2.0000      -0.713745       -19.4220
  35   2.0000      -0.700089       -19.0504
  36   2.0000      -0.693863       -18.8810
  37   2.0000      -0.668440       -18.1892
  38   2.0000      -0.642040       -17.4708
  39   2.0000      -0.623105       -16.9556
  40   2.0000      -0.606130       -16.4936
  41   2.0000      -0.569492       -15.4967
  42   2.0000      -0.559306       -15.2195
  43   2.0000      -0.549314       -14.9476
  44   2.0000      -0.534491       -14.5443
  45   2.0000      -0.527103       -14.3432
  46   2.0000      -0.520439       -14.1619
  47   2.0000      -0.510989       -13.9047
  48   2.0000      -0.510453       -13.8901
  49   2.0000      -0.499770       -13.5994
  50   2.0000      -0.489598       -13.3226
  51   2.0000      -0.477827       -13.0023
  52   2.0000      -0.473919       -12.8960
  53   2.0000      -0.467602       -12.7241
  54   2.0000      -0.458965       -12.4891
  55   2.0000      -0.453867       -12.3503
  56   2.0000      -0.441768       -12.0211
  57   2.0000      -0.436975       -11.8907
  58   2.0000      -0.427264       -11.6264
  59   2.0000      -0.419672       -11.4199
  60   2.0000      -0.415262       -11.2999
  61   2.0000      -0.409987       -11.1563
  62   2.0000      -0.408932       -11.1276
  63   2.0000      -0.363329        -9.8867
  64   2.0000      -0.340324        -9.2607
  65   2.0000      -0.329278        -8.9601
  66   2.0000      -0.288170        -7.8415
  67   0.0000       0.015970         0.4346
  68   0.0000       0.074672         2.0319
  69   0.0000       0.099404         2.7049
  70   0.0000       0.116198         3.1619
  71   0.0000       0.123424         3.3585

MULLIKEN ATOMIC CHARGES
-----------------------
   0 S :    0.082512
   1 C :   -0.099638
   2 C :   -0.095053
   3 C :    0.017229
   4 C :   -0.125473
   5 H :    0.019965
   6 C :    0.022643
   7 H :    0.055304
   8 H :    0.027773
   9 C :   -0.068549
  10 H :    0.039685
  11 H :    0.031849
  12 C :   -0.101678
  13 H :    0.039706
  14 H :    0.038380
  15 H :    0.047323
  16 S :    0.087060
  17 C :   -0.066702
  18 C :    0.007276
  19 C :    0.001084
  20 C :   -0.130003
  21 H :    0.007203
  22 C :    0.001746
  23 H :    0.026249
  24 H :    0.025257
  25 C :   -0.100894
  26 H :    0.028351
  27 H :    0.031188
  28 C :   -0.031990
  29 H :    0.030318
  30 H :    0.040668
  31 H :    0.026957
  32 H :    0.050963
  33 H :    0.033293
Sum of atomic charges:   -0.0000000

LOEWDIN ATOMIC CHARGES
----------------------
   0 S :    0.388395
   1 C :   -0.191925
   2 C :   -0.081152
   3 C :   -0.073422
   4 C :   -0.173586
   5 H :    0.038061
   6 C :   -0.027733
   7 H :    0.031748
   8 H :    0.035292
   9 C :   -0.042689
  10 H :    0.025811
  11 H :    0.018669
  12 C :   -0.083293
  13 H :    0.026797
  14 H :    0.029994
  15 H :    0.032805
  16 S :    0.387900
  17 C :   -0.147799
  18 C :   -0.054857
  19 C :   -0.063143
  20 C :   -0.181640
  21 H :    0.029462
  22 C :   -0.040233
  23 H :    0.022434
  24 H :    0.038064
  25 C :   -0.052833
  26 H :    0.026646
  27 H :    0.021791
  28 C :   -0.063660
  29 H :    0.028396
  30 H :    0.028528
  31 H :    0.020479
  32 H :    0.034504
  33 H :    0.012187

  Mayer bond orders larger than 0.100000
B(  0-S ,  1-C ) :   1.1383 B(  0-S ,  4-C ) :   1.1333 B(  1-C ,  2-C ) :   1.6153
B(  1-C , 32-H ) :   0.9659 B(  2-C ,  3-C ) :   1.2439 B(  2-C ,  6-C ) :   1.0086
B(  3-C ,  4-C ) :   1.5900 B(  3-C ,  5-H ) :   0.9777 B(  4-C , 20-C ) :   1.0548
B(  6-C ,  7-H ) :   0.9516 B(  6-C ,  8-H ) :   0.9463 B(  6-C ,  9-C ) :   1.0652
B(  9-C , 10-H ) :   0.9652 B(  9-C , 11-H ) :   0.9581 B(  9-C , 12-C ) :   1.0548
B( 12-C , 13-H ) :   0.9733 B( 12-C , 14-H ) :   0.9777 B( 12-C , 15-H ) :   0.9772
B( 16-S , 17-C ) :   1.1434 B( 16-S , 20-C ) :   1.1481 B( 17-C , 18-C ) :   1.5888
B( 17-C , 20-C ) :   0.1076 B( 17-C , 33-H ) :   0.9833 B( 18-C , 19-C ) :   1.2501
B( 18-C , 21-H ) :   0.9998 B( 19-C , 20-C ) :   1.5719 B( 19-C , 22-C ) :   1.0369
B( 22-C , 23-H ) :   0.9456 B( 22-C , 24-H ) :   0.9478 B( 22-C , 25-C ) :   1.0230
B( 25-C , 26-H ) :   0.9619 B( 25-C , 27-H ) :   0.9503 B( 25-C , 28-C ) :   1.0722
B( 28-C , 29-H ) :   0.9757 B( 28-C , 30-H ) :   0.9741 B( 28-C , 31-H ) :   0.9757

Dispersion correction           -0.014681907
FINAL SINGLE POINT ENERGY     -1339.859880618806

DIPOLE MOMENT
-------------
                                X             Y             Z
Electronic contribution:     12.19311      27.83046       9.09413
Nuclear contribution   :    -12.25290     -28.44843      -9.29136
                        -----------------------------------------
Total Dipole Moment    :     -0.05980      -0.61798      -0.19724
                        -----------------------------------------
Magnitude (a.u.)       :      0.65144
Magnitude (Debye)      :      1.65582

Rotational constants in cm-1:     0.016092     0.010712     0.006766
Rotational constants in MHz :   482.414253   321.148811   202.853039

                             ****ORCA TERMINATED NORMALLY****
TOTAL RUN TIME: 0 days 0 hours 0 minutes 34 seconds 896 msec
