                         Program Version 4.2.1 -  RELEASE  -
|  1> ! wB97X-D3 SP def2-SVP
|  2> %pal
|  3> nprocs 16
|  4> end
|  5>
|  6> * xyz 0 1
|  7> S 	 44.4785 	 18.7625 	 85.8047
|  8> C 	 44.3826 	 20.4539 	 86.1266
|  9> C 	 44.6966 	 21.093 	 84.9139
| 10> C 	 45.353 	 20.225 	 84.002
| 11> C 	 45.6234 	 18.9976 	 84.502
| 12> H 	 45.832 	 20.5202 	 83.1038
| 13> C 	 44.4564 	 22.5305 	 84.5532
| 14> H 	 45.4065 	 23.08 	 84.5293
| 15> H 	 43.8662 	 22.7509 	 85.4406
| 16> C 	 43.7615 	 22.8601 	 83.2745
| 17> H 	 44.3638 	 22.6522 	 82.4291
| 18> H 	 42.9386 	 22.1186 	 83.1306
| 19> C 	 43.2245 	 24.3088 	 83.0545
| 20> H 	 42.3963 	 24.5984 	 83.76
| 21> H 	 44.011 	 25.0072 	 83.2501
| 22> H 	 42.8724 	 24.4336 	 82.0449
| 23> S 	 46.9968 	 16.8624 	 85.4757
| 24> C 	 47.6619 	 15.7006 	 84.392
| 25> C 	 47.6595 	 16.1847 	 83.0777
| 26> C 	 47.0151 	 17.4485 	 82.884
| 27> C 	 46.5319 	 17.8879 	 84.1028
| 28> H 	 48.2233 	 15.6411 	 82.2684
| 29> C 	 47.2028 	 18.1231 	 81.5746
| 30> H 	 48.1116 	 17.7412 	 81.036
| 31> H 	 47.3695 	 19.1298 	 81.9209
| 32> C 	 45.9695 	 18.1514 	 80.675
| 33> H 	 45.1315 	 18.2827 	 81.4028
| 34> H 	 45.8053 	 17.2601 	 80.1344
| 35> C 	 46.0718 	 19.1462 	 79.4688
| 36> H 	 45.0637 	 19.1862 	 79.1274
| 37> H 	 46.5706 	 18.6982 	 78.5596
| 38> H 	 46.3902 	 20.2158 	 79.7737
| 39> H 	 44.0102 	 20.8779 	 86.9887
| 40> H 	 48.3256 	 14.9121 	 84.606
| 41> *
| 42>
| 43>                          ****END OF INPUT****

CARTESIAN COORDINATES (ANGSTROEM)
---------------------------------
  S     44.478500   18.762500   85.804700
  C     44.382600   20.453900   86.126600
  C     44.696600   21.093000   84.913900
  C     45.353000   20.225000   84.002000
  C     45.623400   18.997600   84.502000
  H     45.832000   20.520200   83.103800
  C     44.456400   22.530500   84.553200
  H     45.406500   23.080000   84.529300
  H     43.866200   22.750900   85.440600
  C     43.761500   22.860100   83.274500
  H     44.363800   22.652200   82.429100
  H     42.938600   22.118600   83.130600
  C     43.224500   24.308800   83.054500
  H     42.396300   24.598400   83.760000
  H     44.011000   25.007200   83.250100
  H     42.872400   24.433600   82.044900
  S     46.996800   16.862400   85.475700
  C     47.661900   15.700600   84.392000
  C     47.659500   16.184700   83.077700
  C     47.015100   17.448500   82.884000
  C     46.531900   17.887900   84.102800
  H     48.223300   15.641100   82.268400
  C     47.202800   18.123100   81.574600
  H     48.111600   17.741200   81.036000
  H     47.369500   19.129800   81.920900
  C     45.969500   18.151400   80.675000
  H     45.131500   18.282700   81.402800
  H     45.805300   17.260100   80.134400
  C     46.071800   19.146200   79.468800
  H     45.063700   19.186200   79.127400
  H     46.570600   18.698200   78.559600
  H     46.390200   20.215800   79.773700
  H     44.010200   20.877900   86.988700
  H     48.325600   14.912100   84.606000

 Total Charge           Charge          ....    0
 Multiplicity           Mult            ....    1
 Number of Electrons    NEL             ....  134
 Basis Dimension        Dim             ....  322

ORBITAL ENERGIES
----------------

  NO   OCC          E(Eh)            E(eV)
   0   2.0000     -88.970887     -2421.0209
   1   2.0000     -88.956617     -2420.6326
   2   2.0000     -10.333623      -281.1922
   3   2.0000     -10.328185      -281.0442
   4   2.0000     -10.312513      -280.6177
   5   2.0000     -10.306770      -280.4615
   6   2.0000     -10.304361      -280.3959
   7   2.0000     -10.300899      -280.3017
   8   2.0000     -10.297068      -280.1975
   9   2.0000     -10.295212      -280.1470
  10   2.0000     -10.290584      -280.0210
  11   2.0000     -10.289040      -279.9790
  12   2.0000     -10.286594      -279.9125
  13   2.0000     -10.285247      -279.8758
  14   2.0000     -10.283842      -279.8376
  15   2.0000     -10.281726      -279.7800
  16   2.0000      -8.085113      -220.0071
  17   2.0000      -8.072353      -219.6599
  18   2.0000      -6.043621      -164.4553
  19   2.0000      -6.039637      -164.3469
  20   2.0000      -6.035908      -164.2454
  21   2.0000      -6.030861      -164.1081
  22   2.0000      -6.027077      -164.0051
  23   2.0000      -6.022649      -163.8846
  24   2.0000      -1.011723       -27.5304
  25   2.0000      -0.989312       -26.9206
  26   2.0000      -0.915961       -24.9246
  27   2.0000      -0.912846       -24.8398
  28   2.0000      -0.866199       -23.5705
  29   2.0000      -0.856585       -23.3089
  30   2.0000      -0.844464       -22.9790
  31   2.0000      -0.818153       -22.2631
  32   2.0000      -0.785550       -21.3759
  33   2.0000      -0.772617       -21.0240
  34   2.0000      -0.711147       -19.3513
  35   2.0000      -0.699832       -19.0434
  36   2.0000      -0.691771       -18.8240
  37   2.0000      -0.662166       -18.0184
  38   2.0000      -0.646615       -17.5953
  39   2.0000      -0.622832       -16.9481
  40   2.0000      -0.594701       -16.1826
  41   2.0000      -0.576984       -15.7005
  42   2.0000      -0.570712       -15.5298
  43   2.0000      -0.556998       -15.1567
  44   2.0000      -0.531297       -14.4573
  45   2.0000      -0.522747       -14.2247
  46   2.0000      -0.517871       -14.0920
  47   2.0000      -0.509396       -13.8614
  48   2.0000      -0.507696       -13.8151
  49   2.0000      -0.502718       -13.6796
  50   2.0000      -0.491640       -13.3782
  51   2.0000      -0.487550       -13.2669
  52   2.0000      -0.472151       -12.8479
  53   2.0000      -0.465478       -12.6663
  54   2.0000      -0.462611       -12.5883
  55   2.0000      -0.452269       -12.3069
  56   2.0000      -0.447172       -12.1682
  57   2.0000      -0.439534       -11.9603
  58   2.0000      -0.431393       -11.7388
  59   2.0000      -0.422719       -11.5028
  60   2.0000      -0.416313       -11.3285
  61   2.0000      -0.412254       -11.2180
  62   2.0000      -0.406707       -11.0671
  63   2.0000      -0.350371        -9.5341
  64   2.0000      -0.333921        -9.0865
  65   2.0000      -0.316088        -8.6012
  66   2.0000      -0.284238        -7.7345
  67   0.0000       0.014200         0.3864
  68   0.0000       0.073607         2.0030
  69   0.0000       0.097854         2.6627
  70   0.0000       0.103000         2.8028
  71   0.0000       0.126827         3.4511

MULLIKEN ATOMIC CHARGES
-----------------------
   0 S :    0.090872
   1 C :   -0.092943
   2 C :   -0.116343
   3 C :    0.026317
   4 C :   -0.112154
   5 H :   -0.014395
   6 C :    0.109028
   7 H :    0.037013
   8 H :    0.010615
   9 C :   -0.098890
  10 H :    0.017626
  11 H :    0.027841
  12 C :   -0.036083
  13 H :    0.038064
  14 H :    0.022658
  15 H :    0.035924
  16 S :    0.131267
  17 C :   -0.059003
  18 C :   -0.092176
  19 C :   -0.021985
  20 C :   -0.164775
  21 H :    0.034666
  22 C :    0.070928
  23 H :    0.037850
  24 H :    0.020682
  25 C :   -0.085603
  26 H :    0.047725
  27 H :    0.019854
  28 C :   -0.070025
  29 H :    0.027173
  30 H :    0.048362
  31 H :    0.046961
  32 H :    0.018443
  33 H :    0.044507
Sum of atomic charges:    0.0000000

LOEWDIN ATOMIC CHARGES
----------------------
   0 S :    0.397829
   1 C :   -0.194626
   2 C :   -0.055525
   3 C :   -0.079711
   4 C :   -0.174807
   5 H :    0.019651
   6 C :   -0.039068
   7 H :    0.033672
   8 H :    0.031918
   9 C :   -0.046040
  10 H :    0.017530
  11 H :    0.027617
  12 C :   -0.059229
  13 H :    0.030221
  14 H :    0.020212
  15 H :    0.026685
  16 S :    0.426516
  17 C :   -0.199099
  18 C :   -0.071718
  19 C :   -0.055652
  20 C :   -0.190842
  21 H :    0.036094
  22 C :   -0.032782
  23 H :    0.037956
  24 H :    0.030473
  25 C :   -0.040704
  26 H :    0.032612
  27 H :    0.020613
  28 C :   -0.076607
  29 H :    0.024779
  30 H :    0.035705
  31 H :    0.031130
  32 H :    0.011792
  33 H :    0.023408

  Mayer bond orders larger than 0.100000
B(  0-S ,  1-C ) :   1.1248 B(  0-S ,  4-C ) :   1.1515 B(  1-C ,  2-C ) :   1.5822
B(  1-C , 32-H ) :   0.9885 B(  2-C ,  3-C ) :   1.2192 B(  2-C ,  6-C ) :   1.0278
B(  3-C ,  4-C ) :   1.5836 B(  3-C ,  5-H ) :   1.0055 B(  4-C , 20-C ) :   1.0449
B(  6-C ,  7-H ) :   0.9274 B(  6-C ,  8-H ) :   0.9372 B(  6-C ,  9-C ) :   1.0743
B(  9-C , 10-H ) :   0.9461 B(  9-C , 11-H ) :   0.9554 B(  9-C , 12-C ) :   1.0872
B( 12-C , 13-H ) :   0.9768 B( 12-C , 14-H ) :   0.9739 B( 12-C , 15-H ) :   0.9750
B( 16-S , 17-C ) :   1.1584 B( 16-S , 20-C ) :   1.1516 B( 17-C , 18-C ) :   1.5981
B( 17-C , 20-C ) :   0.1004 B( 17-C , 33-H ) :   0.9667 B( 18-C , 19-C ) :   1.2632
B( 18-C , 21-H ) :   0.9727 B( 19-C , 20-C ) :   1.5631 B( 19-C , 22-C ) :   1.0247
B( 22-C , 23-H ) :   0.9384 B( 22-C , 24-H ) :   0.9350 B( 22-C , 25-C ) :   1.0590
B( 25-C , 26-H ) :   0.9608 B( 25-C , 27-H ) :   0.9512 B( 25-C , 28-C ) :   1.0707
B( 28-C , 29-H ) :   0.9722 B( 28-C , 30-H ) :   0.9732 B( 28-C , 31-H ) :   0.9742

Dispersion correction           -0.013792450
FINAL SINGLE POINT ENERGY     -1339.828122278377

DIPOLE MOMENT
-------------
                                X             Y             Z
Electronic contribution:      5.38757     -21.00279      23.72335
Nuclear contribution   :     -5.15720      21.29919     -24.37840
                        -----------------------------------------
Total Dipole Moment    :      0.23037       0.29640      -0.65505
                        -----------------------------------------
Magnitude (a.u.)       :      0.75499
Magnitude (Debye)      :      1.91904

Rotational constants in cm-1:     0.017745     0.009102     0.006304
Rotational constants in MHz :   531.970162   272.879191   188.979819

                             ****ORCA TERMINATED NORMALLY****
TOTAL RUN TIME: 0 days 0 hours 0 minutes 28 seconds 574 msec
