                         Program Version 4.2.1 -  RELEASE  -
|  1> ! wB97X-D3 SP def2-SVP
|  2> %pal
|  3> nprocs 16
|  4> end
|  5>
|  6> * xyz 0 1
|  7> S 	 -1.28905 	 79.119 	 49.1042
|  8> C 	 -0.812608 	 80.816 	 49.2312
|  9> C 	 0.29828 	 81.0055 	 48.3658
| 10> C 	 0.758236 	 79.8266 	 47.7239
| 11> C 	 0.0131366 	 78.7106 	 48.0258
| 12> H 	 1.4419 	 79.7525 	 46.9604
| 13> C 	 0.850923 	 82.3674 	 47.9691
| 14> H 	 0.126811 	 83.0179 	 48.3825
| 15> H 	 0.767033 	 82.3329 	 46.8476
| 16> C 	 2.28495 	 82.545 	 48.3715
| 17> H 	 2.38466 	 82.3235 	 49.467
| 18> H 	 2.86302 	 81.7751 	 47.8472
| 19> C 	 2.8344 	 83.9549 	 48.0908
| 20> H 	 2.14458 	 84.7242 	 48.5673
| 21> H 	 3.7447 	 83.947 	 48.6791
| 22> H 	 3.09292 	 84.1265 	 47.024
| 23> S 	 1.70267 	 77.0524 	 46.6436
| 24> C 	 1.14712 	 75.6184 	 45.9883
| 25> C 	 -0.0261095 	 75.1738 	 46.5465
| 26> C 	 -0.639014 	 76.1448 	 47.3886
| 27> C 	 0.117092 	 77.3942 	 47.3918
| 28> H 	 -0.397067 	 74.13 	 46.3273
| 29> C 	 -1.96936 	 75.9588 	 47.9865
| 30> H 	 -2.466 	 75.1857 	 47.3841
| 31> H 	 -2.64512 	 76.8351 	 47.8393
| 32> C 	 -1.86828 	 75.5341 	 49.4666
| 33> H 	 -1.35948 	 76.293 	 50.0211
| 34> H 	 -1.34297 	 74.5298 	 49.5672
| 35> C 	 -3.1203 	 75.1875 	 50.1756
| 36> H 	 -3.74286 	 75.9237 	 50.6129
| 37> H 	 -2.70581 	 74.61 	 51.0578
| 38> H 	 -3.81896 	 74.5186 	 49.7309
| 39> H 	 -1.33905 	 81.5603 	 49.8544
| 40> H 	 1.74647 	 75.0513 	 45.2685
| 41> *
| 42>
| 43>                          ****END OF INPUT****

CARTESIAN COORDINATES (ANGSTROEM)
---------------------------------
  S     -1.289050   79.119000   49.104200
  C     -0.812608   80.816000   49.231200
  C      0.298280   81.005500   48.365800
  C      0.758236   79.826600   47.723900
  C      0.013137   78.710600   48.025800
  H      1.441900   79.752500   46.960400
  C      0.850923   82.367400   47.969100
  H      0.126811   83.017900   48.382500
  H      0.767033   82.332900   46.847600
  C      2.284950   82.545000   48.371500
  H      2.384660   82.323500   49.467000
  H      2.863020   81.775100   47.847200
  C      2.834400   83.954900   48.090800
  H      2.144580   84.724200   48.567300
  H      3.744700   83.947000   48.679100
  H      3.092920   84.126500   47.024000
  S      1.702670   77.052400   46.643600
  C      1.147120   75.618400   45.988300
  C     -0.026109   75.173800   46.546500
  C     -0.639014   76.144800   47.388600
  C      0.117092   77.394200   47.391800
  H     -0.397067   74.130000   46.327300
  C     -1.969360   75.958800   47.986500
  H     -2.466000   75.185700   47.384100
  H     -2.645120   76.835100   47.839300
  C     -1.868280   75.534100   49.466600
  H     -1.359480   76.293000   50.021100
  H     -1.342970   74.529800   49.567200
  C     -3.120300   75.187500   50.175600
  H     -3.742860   75.923700   50.612900
  H     -2.705810   74.610000   51.057800
  H     -3.818960   74.518600   49.730900
  H     -1.339050   81.560300   49.854400
  H      1.746470   75.051300   45.268500

 Total Charge           Charge          ....    0
 Multiplicity           Mult            ....    1
 Number of Electrons    NEL             ....  134
 Basis Dimension        Dim             ....  322

ORBITAL ENERGIES
----------------

  NO   OCC          E(Eh)            E(eV)
   0   2.0000     -88.966280     -2420.8956
   1   2.0000     -88.965576     -2420.8764
   2   2.0000     -10.335125      -281.2331
   3   2.0000     -10.332436      -281.1599
   4   2.0000     -10.319484      -280.8074
   5   2.0000     -10.313466      -280.6437
   6   2.0000     -10.310431      -280.5611
   7   2.0000     -10.303323      -280.3677
   8   2.0000     -10.297586      -280.2116
   9   2.0000     -10.289942      -280.0035
  10   2.0000     -10.287268      -279.9308
  11   2.0000     -10.286866      -279.9199
  12   2.0000     -10.284844      -279.8648
  13   2.0000     -10.284395      -279.8526
  14   2.0000     -10.283769      -279.8356
  15   2.0000     -10.267689      -279.3980
  16   2.0000      -8.081263      -219.9023
  17   2.0000      -8.080249      -219.8748
  18   2.0000      -6.039554      -164.3446
  19   2.0000      -6.038829      -164.3249
  20   2.0000      -6.035693      -164.2396
  21   2.0000      -6.034738      -164.2136
  22   2.0000      -6.032170      -164.1437
  23   2.0000      -6.031126      -164.1153
  24   2.0000      -1.007146       -27.4058
  25   2.0000      -0.985800       -26.8250
  26   2.0000      -0.915615       -24.9151
  27   2.0000      -0.913367       -24.8540
  28   2.0000      -0.868023       -23.6201
  29   2.0000      -0.860167       -23.4063
  30   2.0000      -0.847193       -23.0533
  31   2.0000      -0.811910       -22.0932
  32   2.0000      -0.785098       -21.3636
  33   2.0000      -0.766762       -20.8647
  34   2.0000      -0.705607       -19.2006
  35   2.0000      -0.693785       -18.8789
  36   2.0000      -0.686144       -18.6709
  37   2.0000      -0.665213       -18.1014
  38   2.0000      -0.637147       -17.3376
  39   2.0000      -0.617444       -16.8015
  40   2.0000      -0.597886       -16.2693
  41   2.0000      -0.572173       -15.5696
  42   2.0000      -0.565182       -15.3794
  43   2.0000      -0.558778       -15.2051
  44   2.0000      -0.534189       -14.5360
  45   2.0000      -0.526371       -14.3233
  46   2.0000      -0.514159       -13.9910
  47   2.0000      -0.512784       -13.9536
  48   2.0000      -0.509082       -13.8528
  49   2.0000      -0.507368       -13.8062
  50   2.0000      -0.488704       -13.2983
  51   2.0000      -0.476830       -12.9752
  52   2.0000      -0.473235       -12.8774
  53   2.0000      -0.465462       -12.6659
  54   2.0000      -0.461134       -12.5481
  55   2.0000      -0.452917       -12.3245
  56   2.0000      -0.440056       -11.9745
  57   2.0000      -0.436652       -11.8819
  58   2.0000      -0.425761       -11.5855
  59   2.0000      -0.422716       -11.5027
  60   2.0000      -0.419453       -11.4139
  61   2.0000      -0.408571       -11.1178
  62   2.0000      -0.404348       -11.0029
  63   2.0000      -0.360261        -9.8032
  64   2.0000      -0.330344        -8.9891
  65   2.0000      -0.327926        -8.9233
  66   2.0000      -0.275643        -7.5006
  67   0.0000       0.014155         0.3852
  68   0.0000       0.085092         2.3155
  69   0.0000       0.109368         2.9761
  70   0.0000       0.114535         3.1166
  71   0.0000       0.136897         3.7252

MULLIKEN ATOMIC CHARGES
-----------------------
   0 S :    0.084042
   1 C :   -0.139454
   2 C :   -0.102906
   3 C :    0.012573
   4 C :   -0.083740
   5 H :   -0.014452
   6 C :    0.098465
   7 H :    0.001814
   8 H :    0.041747
   9 C :   -0.122312
  10 H :    0.037674
  11 H :    0.031956
  12 C :   -0.035972
  13 H :    0.042461
  14 H :    0.032099
  15 H :    0.047615
  16 S :    0.090122
  17 C :   -0.079369
  18 C :   -0.056341
  19 C :   -0.031121
  20 C :   -0.140422
  21 H :    0.039311
  22 C :    0.029380
  23 H :    0.014088
  24 H :    0.045462
  25 C :   -0.070846
  26 H :    0.031158
  27 H :    0.035783
  28 C :   -0.028858
  29 H :    0.021082
  30 H :    0.026055
  31 H :    0.016747
  32 H :    0.065115
  33 H :    0.061042
Sum of atomic charges:   -0.0000000

LOEWDIN ATOMIC CHARGES
----------------------
   0 S :    0.411287
   1 C :   -0.214688
   2 C :   -0.050358
   3 C :   -0.075157
   4 C :   -0.185526
   5 H :    0.009860
   6 C :   -0.031779
   7 H :    0.020379
   8 H :    0.040148
   9 C :   -0.048334
  10 H :    0.030198
  11 H :    0.025312
  12 C :   -0.070569
  13 H :    0.033563
  14 H :    0.027110
  15 H :    0.029751
  16 S :    0.430862
  17 C :   -0.207285
  18 C :   -0.082863
  19 C :   -0.049567
  20 C :   -0.184353
  21 H :    0.043466
  22 C :   -0.049272
  23 H :    0.031060
  24 H :    0.033131
  25 C :   -0.041017
  26 H :    0.018786
  27 H :    0.036987
  28 C :   -0.070741
  29 H :    0.015869
  30 H :    0.037224
  31 H :    0.018633
  32 H :    0.036082
  33 H :    0.031801

  Mayer bond orders larger than 0.100000
B(  0-S ,  1-C ) :   1.1260 B(  0-S ,  4-C ) :   1.1547 B(  1-C ,  2-C ) :   1.5760
B(  1-C , 32-H ) :   0.9692 B(  2-C ,  3-C ) :   1.2615 B(  2-C ,  6-C ) :   1.0204
B(  3-C ,  4-C ) :   1.5290 B(  3-C ,  5-H ) :   0.9963 B(  4-C , 20-C ) :   1.0931
B(  6-C ,  7-H ) :   0.9378 B(  6-C ,  8-H ) :   0.9394 B(  6-C ,  9-C ) :   1.0620
B(  9-C , 10-H ) :   0.9573 B(  9-C , 11-H ) :   0.9511 B(  9-C , 12-C ) :   1.0833
B( 12-C , 13-H ) :   0.9727 B( 12-C , 14-H ) :   0.9755 B( 12-C , 15-H ) :   0.9732
B( 16-S , 17-C ) :   1.1862 B( 16-S , 20-C ) :   1.1522 B( 17-C , 18-C ) :   1.5708
B( 17-C , 20-C ) :   0.1010 B( 17-C , 33-H ) :   0.9642 B( 18-C , 19-C ) :   1.2826
B( 18-C , 21-H ) :   0.9826 B( 19-C , 20-C ) :   1.4931 B( 19-C , 22-C ) :   1.0548
B( 22-C , 23-H ) :   0.9288 B( 22-C , 24-H ) :   0.9394 B( 22-C , 25-C ) :   1.0541
B( 25-C , 26-H ) :   0.9530 B( 25-C , 27-H ) :   0.9626 B( 25-C , 28-C ) :   1.0790
B( 28-C , 29-H ) :   0.9716 B( 28-C , 30-H ) :   0.9768 B( 28-C , 31-H ) :   0.9715

Dispersion correction           -0.013692804
FINAL SINGLE POINT ENERGY     -1339.862303539680

DIPOLE MOMENT
-------------
                                X             Y             Z
Electronic contribution:      2.08581      -7.46115      -6.55495
Nuclear contribution   :     -2.10718       7.45788       6.44270
                        -----------------------------------------
Total Dipole Moment    :     -0.02137      -0.00327      -0.11225
                        -----------------------------------------
Magnitude (a.u.)       :      0.11431
Magnitude (Debye)      :      0.29057

Rotational constants in cm-1:     0.022255     0.007796     0.005970
Rotational constants in MHz :   667.183076   233.708207   178.979371

                             ****ORCA TERMINATED NORMALLY****
TOTAL RUN TIME: 0 days 0 hours 0 minutes 30 seconds 932 msec
