                         Program Version 4.2.1 -  RELEASE  -
|  1> ! wB97X-D3 SP def2-SVP
|  2> %pal
|  3> nprocs 16
|  4> end
|  5>
|  6> * xyz 0 1
|  7> S 	 -30.5679 	 27.6383 	 48.6777
|  8> C 	 -29.8267 	 28.2393 	 50.1886
|  9> C 	 -30.3449 	 29.4801 	 50.5201
| 10> C 	 -31.2625 	 29.923 	 49.5748
| 11> C 	 -31.4192 	 29.0718 	 48.4846
| 12> H 	 -31.783 	 30.8819 	 49.5771
| 13> C 	 -29.7657 	 30.3774 	 51.6322
| 14> H 	 -29.5395 	 29.7804 	 52.541
| 15> H 	 -30.5589 	 30.9966 	 51.8942
| 16> C 	 -28.6823 	 31.3296 	 51.1517
| 17> H 	 -28.9446 	 31.6647 	 50.1564
| 18> H 	 -28.584 	 32.2322 	 51.7315
| 19> C 	 -27.2647 	 30.6651 	 51.2411
| 20> H 	 -27.2335 	 29.7472 	 50.6894
| 21> H 	 -26.374 	 31.1848 	 50.8232
| 22> H 	 -27.0642 	 30.4542 	 52.3057
| 23> S 	 -32.2754 	 30.4429 	 46.287
| 24> C 	 -33.9192 	 30.3424 	 45.876
| 25> C 	 -34.4987 	 29.1968 	 46.4098
| 26> C 	 -33.6641 	 28.5698 	 47.3944
| 27> C 	 -32.4365 	 29.1463 	 47.4698
| 28> H 	 -35.5555 	 28.945 	 46.1907
| 29> C 	 -34.1901 	 27.6048 	 48.4211
| 30> H 	 -34.2547 	 28.2098 	 49.3266
| 31> H 	 -33.4428 	 26.8062 	 48.6155
| 32> C 	 -35.5586 	 27.066 	 48.1845
| 33> H 	 -35.5358 	 26.759 	 47.132
| 34> H 	 -36.3095 	 27.8848 	 48.2244
| 35> C 	 -36.0167 	 25.9596 	 49.092
| 36> H 	 -36.9682 	 25.5283 	 48.7168
| 37> H 	 -36.3275 	 26.4478 	 50.0036
| 38> H 	 -35.3706 	 25.143 	 49.2258
| 39> H 	 -28.9819 	 27.7352 	 50.6193
| 40> H 	 -34.2809 	 30.8939 	 45.0279
| 41> *
| 42>
| 43>                          ****END OF INPUT****

CARTESIAN COORDINATES (ANGSTROEM)
---------------------------------
  S    -30.567900   27.638300   48.677700
  C    -29.826700   28.239300   50.188600
  C    -30.344900   29.480100   50.520100
  C    -31.262500   29.923000   49.574800
  C    -31.419200   29.071800   48.484600
  H    -31.783000   30.881900   49.577100
  C    -29.765700   30.377400   51.632200
  H    -29.539500   29.780400   52.541000
  H    -30.558900   30.996600   51.894200
  C    -28.682300   31.329600   51.151700
  H    -28.944600   31.664700   50.156400
  H    -28.584000   32.232200   51.731500
  C    -27.264700   30.665100   51.241100
  H    -27.233500   29.747200   50.689400
  H    -26.374000   31.184800   50.823200
  H    -27.064200   30.454200   52.305700
  S    -32.275400   30.442900   46.287000
  C    -33.919200   30.342400   45.876000
  C    -34.498700   29.196800   46.409800
  C    -33.664100   28.569800   47.394400
  C    -32.436500   29.146300   47.469800
  H    -35.555500   28.945000   46.190700
  C    -34.190100   27.604800   48.421100
  H    -34.254700   28.209800   49.326600
  H    -33.442800   26.806200   48.615500
  C    -35.558600   27.066000   48.184500
  H    -35.535800   26.759000   47.132000
  H    -36.309500   27.884800   48.224400
  C    -36.016700   25.959600   49.092000
  H    -36.968200   25.528300   48.716800
  H    -36.327500   26.447800   50.003600
  H    -35.370600   25.143000   49.225800
  H    -28.981900   27.735200   50.619300
  H    -34.280900   30.893900   45.027900

 Total Charge           Charge          ....    0
 Multiplicity           Mult            ....    1
 Number of Electrons    NEL             ....  134
 Basis Dimension        Dim             ....  322

ORBITAL ENERGIES
----------------

  NO   OCC          E(Eh)            E(eV)
   0   2.0000     -88.966234     -2420.8943
   1   2.0000     -88.960545     -2420.7395
   2   2.0000     -10.321506      -280.8624
   3   2.0000     -10.316416      -280.7240
   4   2.0000     -10.314324      -280.6670
   5   2.0000     -10.312494      -280.6172
   6   2.0000     -10.301193      -280.3097
   7   2.0000     -10.299435      -280.2619
   8   2.0000     -10.295547      -280.1561
   9   2.0000     -10.291340      -280.0416
  10   2.0000     -10.291130      -280.0359
  11   2.0000     -10.287214      -279.9293
  12   2.0000     -10.285563      -279.8844
  13   2.0000     -10.282391      -279.7981
  14   2.0000     -10.277766      -279.6722
  15   2.0000     -10.273214      -279.5484
  16   2.0000      -8.081612      -219.9119
  17   2.0000      -8.076426      -219.7707
  18   2.0000      -6.039852      -164.3527
  19   2.0000      -6.035858      -164.2440
  20   2.0000      -6.034751      -164.2139
  21   2.0000      -6.032774      -164.1601
  22   2.0000      -6.030699      -164.1037
  23   2.0000      -6.027389      -164.0136
  24   2.0000      -1.015088       -27.6219
  25   2.0000      -0.990180       -26.9442
  26   2.0000      -0.917945       -24.9786
  27   2.0000      -0.914344       -24.8806
  28   2.0000      -0.870049       -23.6752
  29   2.0000      -0.852900       -23.2086
  30   2.0000      -0.847192       -23.0533
  31   2.0000      -0.807158       -21.9639
  32   2.0000      -0.787795       -21.4370
  33   2.0000      -0.778282       -21.1781
  34   2.0000      -0.707149       -19.2425
  35   2.0000      -0.703653       -19.1474
  36   2.0000      -0.693696       -18.8764
  37   2.0000      -0.653077       -17.7711
  38   2.0000      -0.640972       -17.4417
  39   2.0000      -0.618432       -16.8284
  40   2.0000      -0.602173       -16.3860
  41   2.0000      -0.577740       -15.7211
  42   2.0000      -0.570306       -15.5188
  43   2.0000      -0.545417       -14.8415
  44   2.0000      -0.544259       -14.8100
  45   2.0000      -0.526811       -14.3353
  46   2.0000      -0.523367       -14.2415
  47   2.0000      -0.514933       -14.0120
  48   2.0000      -0.505404       -13.7527
  49   2.0000      -0.495802       -13.4915
  50   2.0000      -0.486012       -13.2251
  51   2.0000      -0.479692       -13.0531
  52   2.0000      -0.473173       -12.8757
  53   2.0000      -0.465507       -12.6671
  54   2.0000      -0.456818       -12.4306
  55   2.0000      -0.453060       -12.3284
  56   2.0000      -0.442580       -12.0432
  57   2.0000      -0.437320       -11.9001
  58   2.0000      -0.432782       -11.7766
  59   2.0000      -0.430579       -11.7167
  60   2.0000      -0.419204       -11.4071
  61   2.0000      -0.411786       -11.2053
  62   2.0000      -0.409405       -11.1405
  63   2.0000      -0.337611        -9.1869
  64   2.0000      -0.334472        -9.1015
  65   2.0000      -0.326236        -8.8773
  66   2.0000      -0.300685        -8.1821
  67   0.0000       0.036939         1.0052
  68   0.0000       0.062528         1.7015
  69   0.0000       0.120692         3.2842
  70   0.0000       0.121812         3.3147
  71   0.0000       0.127236         3.4623

MULLIKEN ATOMIC CHARGES
-----------------------
   0 S :    0.113108
   1 C :   -0.135702
   2 C :   -0.074960
   3 C :    0.033749
   4 C :   -0.172950
   5 H :    0.013741
   6 C :    0.093945
   7 H :    0.033971
   8 H :    0.002211
   9 C :   -0.035401
  10 H :    0.027128
  11 H :    0.029891
  12 C :   -0.074855
  13 H :    0.019034
  14 H :    0.038002
  15 H :    0.030709
  16 S :    0.107496
  17 C :   -0.086019
  18 C :   -0.071873
  19 C :   -0.029035
  20 C :   -0.186225
  21 H :    0.035129
  22 C :    0.099590
  23 H :    0.029263
  24 H :    0.028499
  25 C :   -0.129230
  26 H :    0.025837
  27 H :    0.030079
  28 C :    0.019634
  29 H :    0.024476
  30 H :    0.023691
  31 H :    0.028573
  32 H :    0.049522
  33 H :    0.058975
Sum of atomic charges:   -0.0000000

LOEWDIN ATOMIC CHARGES
----------------------
   0 S :    0.436642
   1 C :   -0.185848
   2 C :   -0.060517
   3 C :   -0.065787
   4 C :   -0.220291
   5 H :    0.033399
   6 C :   -0.023325
   7 H :    0.034500
   8 H :    0.023470
   9 C :   -0.032035
  10 H :    0.025263
  11 H :    0.023207
  12 C :   -0.072661
  13 H :    0.017326
  14 H :    0.028934
  15 H :    0.025431
  16 S :    0.421755
  17 C :   -0.198089
  18 C :   -0.081046
  19 C :   -0.053118
  20 C :   -0.208406
  21 H :    0.035834
  22 C :   -0.036382
  23 H :    0.037618
  24 H :    0.029444
  25 C :   -0.051424
  26 H :    0.020099
  27 H :    0.027005
  28 C :   -0.055905
  29 H :    0.032395
  30 H :    0.026851
  31 H :    0.018581
  32 H :    0.021837
  33 H :    0.025243

  Mayer bond orders larger than 0.100000
B(  0-S ,  1-C ) :   1.1503 B(  0-S ,  4-C ) :   1.1947 B(  1-C ,  2-C ) :   1.5710
B(  1-C ,  4-C ) :   0.1080 B(  1-C , 32-H ) :   0.9746 B(  2-C ,  3-C ) :   1.2762
B(  2-C ,  6-C ) :   1.0264 B(  3-C ,  4-C ) :   1.5409 B(  3-C ,  5-H ) :   0.9942
B(  4-C , 20-C ) :   0.9908 B(  6-C ,  7-H ) :   0.9459 B(  6-C ,  8-H ) :   0.9250
B(  6-C ,  9-C ) :   1.0621 B(  9-C , 10-H ) :   0.9530 B(  9-C , 11-H ) :   0.9601
B(  9-C , 12-C ) :   1.0672 B( 12-C , 13-H ) :   0.9766 B( 12-C , 14-H ) :   0.9753
B( 12-C , 15-H ) :   0.9782 B( 16-S , 17-C ) :   1.1854 B( 16-S , 20-C ) :   1.1424
B( 17-C , 18-C ) :   1.5826 B( 17-C , 33-H ) :   0.9630 B( 18-C , 19-C ) :   1.2490
B( 18-C , 21-H ) :   0.9816 B( 19-C , 20-C ) :   1.6159 B( 19-C , 22-C ) :   1.0412
B( 22-C , 23-H ) :   0.9131 B( 22-C , 24-H ) :   0.9235 B( 22-C , 25-C ) :   1.0932
B( 25-C , 26-H ) :   0.9535 B( 25-C , 27-H ) :   0.9415 B( 25-C , 28-C ) :   1.0907
B( 28-C , 29-H ) :   0.9675 B( 28-C , 30-H ) :   0.9700 B( 28-C , 31-H ) :   0.9748

Dispersion correction           -0.014315687
FINAL SINGLE POINT ENERGY     -1339.878293505929

DIPOLE MOMENT
-------------
                                X             Y             Z
Electronic contribution:      2.55420       1.69454     -15.92638
Nuclear contribution   :     -2.80506      -1.57555      16.31935
                        -----------------------------------------
Total Dipole Moment    :     -0.25085       0.11899       0.39297
                        -----------------------------------------
Magnitude (a.u.)       :      0.48115
Magnitude (Debye)      :      1.22300

Rotational constants in cm-1:     0.021639     0.007777     0.006470
Rotational constants in MHz :   648.725589   233.142822   193.974893

                             ****ORCA TERMINATED NORMALLY****
TOTAL RUN TIME: 0 days 0 hours 0 minutes 33 seconds 778 msec
