                         Program Version 4.2.1 -  RELEASE  -
|  1> ! wB97X-D3 SP def2-SVP
|  2> %pal
|  3> nprocs 16
|  4> end
|  5>
|  6> * xyz 0 1
|  7> S 	 49.7212 	 11.7333 	 79.8911
|  8> C 	 48.5108 	 10.8179 	 80.772
|  9> C 	 47.617 	 11.6221 	 81.4228
| 10> C 	 47.8236 	 12.9983 	 81.0888
| 11> C 	 48.9823 	 13.239 	 80.3522
| 12> H 	 47.2749 	 13.8155 	 81.4521
| 13> C 	 46.5933 	 11.0531 	 82.2995
| 14> H 	 46.4149 	 11.5569 	 83.257
| 15> H 	 47.0631 	 10.0744 	 82.6416
| 16> C 	 45.258 	 10.6204 	 81.6869
| 17> H 	 44.7048 	 11.5526 	 81.7094
| 18> H 	 45.2328 	 10.3787 	 80.6447
| 19> C 	 44.71 	 9.43342 	 82.5128
| 20> H 	 43.6526 	 9.30101 	 82.411
| 21> H 	 45.2851 	 8.48229 	 82.3476
| 22> H 	 44.7823 	 9.6627 	 83.557
| 23> S 	 51.2768 	 14.7297 	 79.9162
| 24> C 	 51.2127 	 16.3615 	 79.5349
| 25> C 	 49.8856 	 16.7438 	 79.3858
| 26> C 	 48.9156 	 15.6789 	 79.4113
| 27> C 	 49.49 	 14.5466 	 79.9337
| 28> H 	 49.6052 	 17.7893 	 79.1481
| 29> C 	 47.4947 	 15.9827 	 79.1504
| 30> H 	 46.9544 	 15.0325 	 78.9738
| 31> H 	 47.379 	 16.6745 	 78.3006
| 32> C 	 46.6937 	 16.5078 	 80.3579
| 33> H 	 47.2389 	 17.4813 	 80.5417
| 34> H 	 47.0269 	 15.7905 	 81.0947
| 35> C 	 45.1853 	 16.5988 	 80.1524
| 36> H 	 45.0713 	 17.4087 	 79.4233
| 37> H 	 44.7351 	 16.9665 	 81.0817
| 38> H 	 44.7215 	 15.632 	 79.8458
| 39> H 	 48.6052 	 9.77816 	 81.0193
| 40> H 	 52.0184 	 17.0886 	 79.2348
| 41> *
| 42>
| 43>                          ****END OF INPUT****

CARTESIAN COORDINATES (ANGSTROEM)
---------------------------------
  S     49.721200   11.733300   79.891100
  C     48.510800   10.817900   80.772000
  C     47.617000   11.622100   81.422800
  C     47.823600   12.998300   81.088800
  C     48.982300   13.239000   80.352200
  H     47.274900   13.815500   81.452100
  C     46.593300   11.053100   82.299500
  H     46.414900   11.556900   83.257000
  H     47.063100   10.074400   82.641600
  C     45.258000   10.620400   81.686900
  H     44.704800   11.552600   81.709400
  H     45.232800   10.378700   80.644700
  C     44.710000    9.433420   82.512800
  H     43.652600    9.301010   82.411000
  H     45.285100    8.482290   82.347600
  H     44.782300    9.662700   83.557000
  S     51.276800   14.729700   79.916200
  C     51.212700   16.361500   79.534900
  C     49.885600   16.743800   79.385800
  C     48.915600   15.678900   79.411300
  C     49.490000   14.546600   79.933700
  H     49.605200   17.789300   79.148100
  C     47.494700   15.982700   79.150400
  H     46.954400   15.032500   78.973800
  H     47.379000   16.674500   78.300600
  C     46.693700   16.507800   80.357900
  H     47.238900   17.481300   80.541700
  H     47.026900   15.790500   81.094700
  C     45.185300   16.598800   80.152400
  H     45.071300   17.408700   79.423300
  H     44.735100   16.966500   81.081700
  H     44.721500   15.632000   79.845800
  H     48.605200    9.778160   81.019300
  H     52.018400   17.088600   79.234800

 Total Charge           Charge          ....    0
 Multiplicity           Mult            ....    1
 Number of Electrons    NEL             ....  134
 Basis Dimension        Dim             ....  322

ORBITAL ENERGIES
----------------

  NO   OCC          E(Eh)            E(eV)
   0   2.0000     -88.967089     -2420.9176
   1   2.0000     -88.964134     -2420.8372
   2   2.0000     -10.331855      -281.1441
   3   2.0000     -10.330559      -281.1088
   4   2.0000     -10.317897      -280.7643
   5   2.0000     -10.309808      -280.5441
   6   2.0000     -10.302805      -280.3536
   7   2.0000     -10.298289      -280.2307
   8   2.0000     -10.293401      -280.0977
   9   2.0000     -10.293336      -280.0959
  10   2.0000     -10.292564      -280.0749
  11   2.0000     -10.289718      -279.9975
  12   2.0000     -10.289628      -279.9950
  13   2.0000     -10.288744      -279.9710
  14   2.0000     -10.285491      -279.8824
  15   2.0000     -10.281464      -279.7729
  16   2.0000      -8.081856      -219.9185
  17   2.0000      -8.079636      -219.8581
  18   2.0000      -6.040389      -164.3674
  19   2.0000      -6.038181      -164.3072
  20   2.0000      -6.036323      -164.2567
  21   2.0000      -6.033986      -164.1931
  22   2.0000      -6.032620      -164.1559
  23   2.0000      -6.030337      -164.0938
  24   2.0000      -1.010107       -27.4864
  25   2.0000      -0.989577       -26.9278
  26   2.0000      -0.918323       -24.9888
  27   2.0000      -0.918232       -24.9864
  28   2.0000      -0.870912       -23.6987
  29   2.0000      -0.856564       -23.3083
  30   2.0000      -0.846252       -23.0277
  31   2.0000      -0.813854       -22.1461
  32   2.0000      -0.785146       -21.3649
  33   2.0000      -0.773121       -21.0377
  34   2.0000      -0.712668       -19.3927
  35   2.0000      -0.702496       -19.1159
  36   2.0000      -0.690010       -18.7761
  37   2.0000      -0.663425       -18.0527
  38   2.0000      -0.643851       -17.5201
  39   2.0000      -0.621260       -16.9054
  40   2.0000      -0.598438       -16.2843
  41   2.0000      -0.578364       -15.7381
  42   2.0000      -0.574240       -15.6259
  43   2.0000      -0.555383       -15.1127
  44   2.0000      -0.525524       -14.3002
  45   2.0000      -0.520895       -14.1743
  46   2.0000      -0.517111       -14.0713
  47   2.0000      -0.514882       -14.0107
  48   2.0000      -0.506667       -13.7871
  49   2.0000      -0.501638       -13.6503
  50   2.0000      -0.496874       -13.5206
  51   2.0000      -0.484348       -13.1798
  52   2.0000      -0.477925       -13.0050
  53   2.0000      -0.467755       -12.7282
  54   2.0000      -0.464719       -12.6457
  55   2.0000      -0.449714       -12.2374
  56   2.0000      -0.443987       -12.0815
  57   2.0000      -0.442749       -12.0478
  58   2.0000      -0.430453       -11.7132
  59   2.0000      -0.425507       -11.5786
  60   2.0000      -0.419482       -11.4147
  61   2.0000      -0.412977       -11.2377
  62   2.0000      -0.410591       -11.1727
  63   2.0000      -0.349526        -9.5111
  64   2.0000      -0.331682        -9.0255
  65   2.0000      -0.326982        -8.8976
  66   2.0000      -0.290525        -7.9056
  67   0.0000       0.024698         0.6721
  68   0.0000       0.076329         2.0770
  69   0.0000       0.112894         3.0720
  70   0.0000       0.116344         3.1659
  71   0.0000       0.126666         3.4467

MULLIKEN ATOMIC CHARGES
-----------------------
   0 S :    0.115562
   1 C :   -0.110151
   2 C :   -0.061607
   3 C :    0.034310
   4 C :   -0.112542
   5 H :   -0.027409
   6 C :   -0.000615
   7 H :    0.037871
   8 H :    0.016558
   9 C :   -0.028071
  10 H :    0.020777
  11 H :    0.028690
  12 C :   -0.055376
  13 H :    0.028259
  14 H :    0.051866
  15 H :    0.019089
  16 S :    0.105266
  17 C :   -0.082665
  18 C :   -0.077634
  19 C :   -0.016558
  20 C :   -0.166011
  21 H :    0.024272
  22 C :    0.025520
  23 H :    0.018682
  24 H :    0.029915
  25 C :   -0.103458
  26 H :    0.026634
  27 H :    0.020857
  28 C :   -0.012822
  29 H :    0.034053
  30 H :    0.042309
  31 H :    0.048723
  32 H :    0.044000
  33 H :    0.081706
Sum of atomic charges:   -0.0000000

LOEWDIN ATOMIC CHARGES
----------------------
   0 S :    0.408886
   1 C :   -0.190942
   2 C :   -0.063303
   3 C :   -0.060262
   4 C :   -0.192602
   5 H :    0.017538
   6 C :   -0.040111
   7 H :    0.033139
   8 H :    0.034458
   9 C :   -0.037588
  10 H :    0.023556
  11 H :    0.022524
  12 C :   -0.064715
  13 H :    0.023160
  14 H :    0.034913
  15 H :    0.021248
  16 S :    0.415226
  17 C :   -0.220813
  18 C :   -0.081975
  19 C :   -0.055445
  20 C :   -0.181256
  21 H :    0.029229
  22 C :   -0.039588
  23 H :    0.030277
  24 H :    0.029261
  25 C :   -0.043817
  26 H :    0.027299
  27 H :    0.014842
  28 C :   -0.064278
  29 H :    0.030562
  30 H :    0.031765
  31 H :    0.032902
  32 H :    0.024893
  33 H :    0.051019

  Mayer bond orders larger than 0.100000
B(  0-S ,  1-C ) :   1.1326 B(  0-S ,  4-C ) :   1.1563 B(  1-C ,  2-C ) :   1.6200
B(  1-C , 32-H ) :   0.9602 B(  2-C ,  3-C ) :   1.2373 B(  2-C ,  6-C ) :   1.0350
B(  3-C ,  4-C ) :   1.5549 B(  3-C ,  5-H ) :   1.0050 B(  4-C , 20-C ) :   1.0556
B(  6-C ,  7-H ) :   0.9357 B(  6-C ,  8-H ) :   0.9452 B(  6-C ,  9-C ) :   1.0386
B(  9-C , 10-H ) :   0.9546 B(  9-C , 11-H ) :   0.9619 B(  9-C , 12-C ) :   1.0717
B( 12-C , 13-H ) :   0.9724 B( 12-C , 14-H ) :   0.9742 B( 12-C , 15-H ) :   0.9741
B( 16-S , 17-C ) :   1.1673 B( 16-S , 20-C ) :   1.1266 B( 17-C , 18-C ) :   1.6027
B( 17-C , 33-H ) :   0.9581 B( 18-C , 19-C ) :   1.2319 B( 18-C , 21-H ) :   0.9778
B( 19-C , 20-C ) :   1.5752 B( 19-C , 22-C ) :   1.0878 B( 22-C , 23-H ) :   0.9234
B( 22-C , 24-H ) :   0.9297 B( 22-C , 25-C ) :   1.0475 B( 25-C , 26-H ) :   0.9501
B( 25-C , 27-H ) :   0.9560 B( 25-C , 28-C ) :   1.0741 B( 28-C , 29-H ) :   0.9714
B( 28-C , 30-H ) :   0.9716 B( 28-C , 31-H ) :   0.9708

Dispersion correction           -0.013926394
FINAL SINGLE POINT ENERGY     -1339.867556996359

DIPOLE MOMENT
-------------
                                X             Y             Z
Electronic contribution:     30.15470       0.35119      -8.24429
Nuclear contribution   :    -30.81989      -0.13776       8.43613
                        -----------------------------------------
Total Dipole Moment    :     -0.66520       0.21343       0.19184
                        -----------------------------------------
Magnitude (a.u.)       :      0.72446
Magnitude (Debye)      :      1.84143

Rotational constants in cm-1:     0.019082     0.008542     0.006161
Rotational constants in MHz :   572.069816   256.077028   184.707524

                             ****ORCA TERMINATED NORMALLY****
TOTAL RUN TIME: 0 days 0 hours 0 minutes 30 seconds 240 msec
