                         Program Version 4.2.1 -  RELEASE  -
|  1> ! wB97X-D3 SP def2-SVP
|  2> %pal
|  3> nprocs 16
|  4> end
|  5>
|  6> * xyz 0 1
|  7> S 	 -54.4633 	 9.51644 	 90.0704
|  8> C 	 -53.6346 	 10.2162 	 91.3999
|  9> C 	 -52.5922 	 11.019 	 90.9613
| 10> C 	 -52.5543 	 11.1486 	 89.5069
| 11> C 	 -53.4411 	 10.39 	 88.839
| 12> H 	 -51.8434 	 11.633 	 88.908
| 13> C 	 -51.5249 	 11.635 	 91.8103
| 14> H 	 -51.9142 	 11.872 	 92.7518
| 15> H 	 -51.2344 	 12.6354 	 91.4234
| 16> C 	 -50.2645 	 10.7236 	 92.0415
| 17> H 	 -49.5467 	 11.3078 	 92.6264
| 18> H 	 -50.55 	 9.85755 	 92.6657
| 19> C 	 -49.4999 	 10.1999 	 90.8053
| 20> H 	 -50.1319 	 9.99057 	 89.9397
| 21> H 	 -48.7059 	 11.0641 	 90.4741
| 22> H 	 -48.903 	 9.36035 	 91.0813
| 23> S 	 -52.8181 	 8.58487 	 86.9323
| 24> C 	 -53.5536 	 8.6509 	 85.2775
| 25> C 	 -54.0602 	 9.89605 	 85.1206
| 26> C 	 -54.0442 	 10.7435 	 86.2685
| 27> C 	 -53.5253 	 10.0876 	 87.3862
| 28> H 	 -54.4487 	 10.1698 	 84.1666
| 29> C 	 -54.6362 	 12.1776 	 86.2479
| 30> H 	 -54.191 	 12.727 	 87.1033
| 31> H 	 -55.6709 	 11.9915 	 86.3377
| 32> C 	 -54.2849 	 13.0958 	 85.0552
| 33> H 	 -54.5769 	 14.0916 	 85.3059
| 34> H 	 -54.7061 	 12.8399 	 84.1106
| 35> C 	 -52.7587 	 13.2592 	 84.9424
| 36> H 	 -52.48 	 13.8307 	 84.0707
| 37> H 	 -52.2359 	 12.2398 	 84.831
| 38> H 	 -52.3401 	 13.6993 	 85.8276
| 39> H 	 -53.8062 	 10.081 	 92.4375
| 40> H 	 -53.5322 	 7.85061 	 84.5641
| 41> *
| 42>
| 43>                          ****END OF INPUT****

CARTESIAN COORDINATES (ANGSTROEM)
---------------------------------
  S    -54.463300    9.516440   90.070400
  C    -53.634600   10.216200   91.399900
  C    -52.592200   11.019000   90.961300
  C    -52.554300   11.148600   89.506900
  C    -53.441100   10.390000   88.839000
  H    -51.843400   11.633000   88.908000
  C    -51.524900   11.635000   91.810300
  H    -51.914200   11.872000   92.751800
  H    -51.234400   12.635400   91.423400
  C    -50.264500   10.723600   92.041500
  H    -49.546700   11.307800   92.626400
  H    -50.550000    9.857550   92.665700
  C    -49.499900   10.199900   90.805300
  H    -50.131900    9.990570   89.939700
  H    -48.705900   11.064100   90.474100
  H    -48.903000    9.360350   91.081300
  S    -52.818100    8.584870   86.932300
  C    -53.553600    8.650900   85.277500
  C    -54.060200    9.896050   85.120600
  C    -54.044200   10.743500   86.268500
  C    -53.525300   10.087600   87.386200
  H    -54.448700   10.169800   84.166600
  C    -54.636200   12.177600   86.247900
  H    -54.191000   12.727000   87.103300
  H    -55.670900   11.991500   86.337700
  C    -54.284900   13.095800   85.055200
  H    -54.576900   14.091600   85.305900
  H    -54.706100   12.839900   84.110600
  C    -52.758700   13.259200   84.942400
  H    -52.480000   13.830700   84.070700
  H    -52.235900   12.239800   84.831000
  H    -52.340100   13.699300   85.827600
  H    -53.806200   10.081000   92.437500
  H    -53.532200    7.850610   84.564100

 Total Charge           Charge          ....    0
 Multiplicity           Mult            ....    1
 Number of Electrons    NEL             ....  134
 Basis Dimension        Dim             ....  322

ORBITAL ENERGIES
----------------

  NO   OCC          E(Eh)            E(eV)
   0   2.0000     -88.961956     -2420.7779
   1   2.0000     -88.960687     -2420.7433
   2   2.0000     -10.332606      -281.1645
   3   2.0000     -10.328681      -281.0577
   4   2.0000     -10.319799      -280.8160
   5   2.0000     -10.313392      -280.6417
   6   2.0000     -10.307224      -280.4738
   7   2.0000     -10.301277      -280.3120
   8   2.0000     -10.293347      -280.0962
   9   2.0000     -10.291877      -280.0562
  10   2.0000     -10.291288      -280.0402
  11   2.0000     -10.290470      -280.0179
  12   2.0000     -10.290094      -280.0077
  13   2.0000     -10.285145      -279.8730
  14   2.0000     -10.284830      -279.8645
  15   2.0000     -10.277330      -279.6604
  16   2.0000      -8.076388      -219.7697
  17   2.0000      -8.075362      -219.7418
  18   2.0000      -6.035100      -164.2234
  19   2.0000      -6.033950      -164.1921
  20   2.0000      -6.030875      -164.1085
  21   2.0000      -6.029899      -164.0819
  22   2.0000      -6.026980      -164.0025
  23   2.0000      -6.025993      -163.9756
  24   2.0000      -1.003583       -27.3089
  25   2.0000      -0.982969       -26.7479
  26   2.0000      -0.908189       -24.7131
  27   2.0000      -0.903266       -24.5791
  28   2.0000      -0.873036       -23.7565
  29   2.0000      -0.843848       -22.9623
  30   2.0000      -0.840151       -22.8617
  31   2.0000      -0.823990       -22.4219
  32   2.0000      -0.778561       -21.1857
  33   2.0000      -0.769759       -20.9462
  34   2.0000      -0.705336       -19.1932
  35   2.0000      -0.696914       -18.9640
  36   2.0000      -0.693123       -18.8608
  37   2.0000      -0.659597       -17.9485
  38   2.0000      -0.649181       -17.6651
  39   2.0000      -0.614973       -16.7343
  40   2.0000      -0.597216       -16.2511
  41   2.0000      -0.571606       -15.5542
  42   2.0000      -0.564704       -15.3664
  43   2.0000      -0.545424       -14.8417
  44   2.0000      -0.542957       -14.7746
  45   2.0000      -0.540759       -14.7148
  46   2.0000      -0.522151       -14.2084
  47   2.0000      -0.512563       -13.9475
  48   2.0000      -0.500817       -13.6279
  49   2.0000      -0.494212       -13.4482
  50   2.0000      -0.490607       -13.3501
  51   2.0000      -0.474521       -12.9124
  52   2.0000      -0.468487       -12.7482
  53   2.0000      -0.463749       -12.6192
  54   2.0000      -0.461070       -12.5464
  55   2.0000      -0.441384       -12.0107
  56   2.0000      -0.438551       -11.9336
  57   2.0000      -0.433419       -11.7939
  58   2.0000      -0.430106       -11.7038
  59   2.0000      -0.427261       -11.6264
  60   2.0000      -0.420362       -11.4386
  61   2.0000      -0.411035       -11.1848
  62   2.0000      -0.408399       -11.1131
  63   2.0000      -0.344108        -9.3636
  64   2.0000      -0.331821        -9.0293
  65   2.0000      -0.318553        -8.6683
  66   2.0000      -0.304882        -8.2963
  67   0.0000       0.037574         1.0225
  68   0.0000       0.057633         1.5683
  69   0.0000       0.111127         3.0239
  70   0.0000       0.120706         3.2846
  71   0.0000       0.130927         3.5627

MULLIKEN ATOMIC CHARGES
-----------------------
   0 S :    0.104115
   1 C :   -0.078644
   2 C :   -0.122178
   3 C :    0.080177
   4 C :   -0.164738
   5 H :   -0.004393
   6 C :    0.097426
   7 H :    0.001095
   8 H :    0.025160
   9 C :   -0.078532
  10 H :    0.032278
  11 H :    0.031168
  12 C :   -0.086591
  13 H :    0.051648
  14 H :    0.034432
  15 H :    0.038094
  16 S :    0.094610
  17 C :   -0.089256
  18 C :   -0.015871
  19 C :   -0.041052
  20 C :   -0.196795
  21 H :    0.007926
  22 C :    0.094096
  23 H :    0.028941
  24 H :    0.041068
  25 C :   -0.044225
  26 H :    0.026935
  27 H :    0.026290
  28 C :   -0.088111
  29 H :    0.034427
  30 H :    0.046453
  31 H :    0.024301
  32 H :    0.035445
  33 H :    0.054299
Sum of atomic charges:   -0.0000000

LOEWDIN ATOMIC CHARGES
----------------------
   0 S :    0.385950
   1 C :   -0.193558
   2 C :   -0.067704
   3 C :   -0.052844
   4 C :   -0.176661
   5 H :    0.025238
   6 C :   -0.032978
   7 H :    0.022182
   8 H :    0.033005
   9 C :   -0.040648
  10 H :    0.025010
  11 H :    0.024063
  12 C :   -0.072816
  13 H :    0.024736
  14 H :    0.035310
  15 H :    0.022979
  16 S :    0.391762
  17 C :   -0.158273
  18 C :   -0.070316
  19 C :   -0.055992
  20 C :   -0.209908
  21 H :    0.027371
  22 C :   -0.022511
  23 H :    0.036690
  24 H :    0.029733
  25 C :   -0.036241
  26 H :    0.026811
  27 H :    0.016259
  28 C :   -0.067373
  29 H :    0.022954
  30 H :    0.032595
  31 H :    0.019204
  32 H :    0.027214
  33 H :    0.028756

  Mayer bond orders larger than 0.100000
B(  0-S ,  1-C ) :   1.1410 B(  0-S ,  4-C ) :   1.1181 B(  1-C ,  2-C ) :   1.6309
B(  1-C , 32-H ) :   0.9697 B(  2-C ,  3-C ) :   1.1932 B(  2-C ,  6-C ) :   1.0406
B(  3-C ,  4-C ) :   1.6379 B(  3-C ,  5-H ) :   0.9971 B(  4-C , 20-C ) :   1.0006
B(  6-C ,  7-H ) :   0.9305 B(  6-C ,  8-H ) :   0.9418 B(  6-C ,  9-C ) :   1.0640
B(  9-C , 10-H ) :   0.9581 B(  9-C , 11-H ) :   0.9594 B(  9-C , 12-C ) :   1.0698
B( 12-C , 13-H ) :   0.9736 B( 12-C , 14-H ) :   0.9775 B( 12-C , 15-H ) :   0.9741
B( 16-S , 17-C ) :   1.1323 B( 16-S , 20-C ) :   1.1646 B( 17-C , 18-C ) :   1.6170
B( 17-C , 33-H ) :   0.9757 B( 18-C , 19-C ) :   1.2264 B( 18-C , 21-H ) :   0.9945
B( 19-C , 20-C ) :   1.6026 B( 19-C , 22-C ) :   1.0188 B( 22-C , 23-H ) :   0.9390
B( 22-C , 24-H ) :   0.9374 B( 22-C , 25-C ) :   1.0779 B( 25-C , 26-H ) :   0.9560
B( 25-C , 27-H ) :   0.9554 B( 25-C , 28-C ) :   1.0729 B( 28-C , 29-H ) :   0.9754
B( 28-C , 30-H ) :   0.9732 B( 28-C , 31-H ) :   0.9760

Dispersion correction           -0.014837823
FINAL SINGLE POINT ENERGY     -1339.866778684858

DIPOLE MOMENT
-------------
                                X             Y             Z
Electronic contribution:    -12.79210     -16.71393       0.99346
Nuclear contribution   :     12.96046      17.16854      -1.11968
                        -----------------------------------------
Total Dipole Moment    :      0.16836       0.45461      -0.12621
                        -----------------------------------------
Magnitude (a.u.)       :      0.50095
Magnitude (Debye)      :      1.27330

Rotational constants in cm-1:     0.019949     0.008074     0.007493
Rotational constants in MHz :   598.063042   242.051199   224.640035

                             ****ORCA TERMINATED NORMALLY****
TOTAL RUN TIME: 0 days 0 hours 0 minutes 30 seconds 275 msec
