                         Program Version 4.2.1 -  RELEASE  -
|  1> ! wB97X-D3 SP def2-SVP
|  2> %pal
|  3> nprocs 16
|  4> end
|  5>
|  6> * xyz 0 1
|  7> S 	 49.3889 	 12.2806 	 84.328
|  8> C 	 49.3443 	 12.3949 	 86.0685
|  9> C 	 48.862 	 13.6364 	 86.4834
| 10> C 	 48.6768 	 14.4793 	 85.3433
| 11> C 	 48.9906 	 13.9642 	 84.0934
| 12> H 	 48.3213 	 15.5095 	 85.3339
| 13> C 	 48.7484 	 14.1965 	 87.8537
| 14> H 	 49.0912 	 15.1991 	 87.7656
| 15> H 	 49.406 	 13.6701 	 88.4815
| 16> C 	 47.2887 	 14.1412 	 88.3548
| 17> H 	 47.1296 	 14.8188 	 89.1738
| 18> H 	 46.7536 	 14.4826 	 87.4793
| 19> C 	 46.8848 	 12.7231 	 88.782
| 20> H 	 45.9607 	 12.9055 	 89.4097
| 21> H 	 46.5593 	 12.073 	 87.9917
| 22> H 	 47.5794 	 12.1496 	 89.4191
| 23> S 	 50.509 	 14.1852 	 81.723
| 24> C 	 50.0982 	 15.4799 	 80.6577
| 25> C 	 48.9854 	 16.1605 	 81.0706
| 26> C 	 48.2974 	 15.5369 	 82.1551
| 27> C 	 49.1132 	 14.5863 	 82.7905
| 28> H 	 48.5692 	 16.9938 	 80.4266
| 29> C 	 47.0781 	 16.152 	 82.6989
| 30> H 	 47.0224 	 17.0997 	 82.1887
| 31> H 	 47.1619 	 16.392 	 83.718
| 32> C 	 45.881 	 15.2687 	 82.4075
| 33> H 	 46.0153 	 14.3839 	 82.9325
| 34> H 	 45.9131 	 15.1523 	 81.2728
| 35> C 	 44.5286 	 15.7958 	 82.8016
| 36> H 	 43.7807 	 15.2601 	 82.2428
| 37> H 	 44.3378 	 16.7901 	 82.4854
| 38> H 	 44.3225 	 15.8948 	 83.8806
| 39> H 	 49.584 	 11.593 	 86.7896
| 40> H 	 50.6948 	 15.692 	 79.7702
| 41> *
| 42>
| 43>                          ****END OF INPUT****

CARTESIAN COORDINATES (ANGSTROEM)
---------------------------------
  S     49.388900   12.280600   84.328000
  C     49.344300   12.394900   86.068500
  C     48.862000   13.636400   86.483400
  C     48.676800   14.479300   85.343300
  C     48.990600   13.964200   84.093400
  H     48.321300   15.509500   85.333900
  C     48.748400   14.196500   87.853700
  H     49.091200   15.199100   87.765600
  H     49.406000   13.670100   88.481500
  C     47.288700   14.141200   88.354800
  H     47.129600   14.818800   89.173800
  H     46.753600   14.482600   87.479300
  C     46.884800   12.723100   88.782000
  H     45.960700   12.905500   89.409700
  H     46.559300   12.073000   87.991700
  H     47.579400   12.149600   89.419100
  S     50.509000   14.185200   81.723000
  C     50.098200   15.479900   80.657700
  C     48.985400   16.160500   81.070600
  C     48.297400   15.536900   82.155100
  C     49.113200   14.586300   82.790500
  H     48.569200   16.993800   80.426600
  C     47.078100   16.152000   82.698900
  H     47.022400   17.099700   82.188700
  H     47.161900   16.392000   83.718000
  C     45.881000   15.268700   82.407500
  H     46.015300   14.383900   82.932500
  H     45.913100   15.152300   81.272800
  C     44.528600   15.795800   82.801600
  H     43.780700   15.260100   82.242800
  H     44.337800   16.790100   82.485400
  H     44.322500   15.894800   83.880600
  H     49.584000   11.593000   86.789600
  H     50.694800   15.692000   79.770200

 Total Charge           Charge          ....    0
 Multiplicity           Mult            ....    1
 Number of Electrons    NEL             ....  134
 Basis Dimension        Dim             ....  322

ORBITAL ENERGIES
----------------

  NO   OCC          E(Eh)            E(eV)
   0   2.0000     -88.966323     -2420.8967
   1   2.0000     -88.963112     -2420.8093
   2   2.0000     -10.331924      -281.1460
   3   2.0000     -10.329265      -281.0736
   4   2.0000     -10.317487      -280.7531
   5   2.0000     -10.316974      -280.7391
   6   2.0000     -10.302189      -280.3368
   7   2.0000     -10.300038      -280.2783
   8   2.0000     -10.296873      -280.1921
   9   2.0000     -10.293629      -280.1039
  10   2.0000     -10.286927      -279.9215
  11   2.0000     -10.282331      -279.7964
  12   2.0000     -10.281280      -279.7679
  13   2.0000     -10.281245      -279.7669
  14   2.0000     -10.280027      -279.7338
  15   2.0000     -10.270282      -279.4686
  16   2.0000      -8.080799      -219.8897
  17   2.0000      -8.078054      -219.8150
  18   2.0000      -6.039254      -164.3365
  19   2.0000      -6.036563      -164.2632
  20   2.0000      -6.035399      -164.2316
  21   2.0000      -6.032502      -164.1527
  22   2.0000      -6.031561      -164.1271
  23   2.0000      -6.028827      -164.0527
  24   2.0000      -1.006230       -27.3809
  25   2.0000      -0.985619       -26.8201
  26   2.0000      -0.919972       -25.0337
  27   2.0000      -0.917863       -24.9763
  28   2.0000      -0.867763       -23.6130
  29   2.0000      -0.856678       -23.3114
  30   2.0000      -0.843931       -22.9645
  31   2.0000      -0.812249       -22.1024
  32   2.0000      -0.787467       -21.4281
  33   2.0000      -0.775438       -21.1007
  34   2.0000      -0.711757       -19.3679
  35   2.0000      -0.702200       -19.1078
  36   2.0000      -0.692350       -18.8398
  37   2.0000      -0.659946       -17.9581
  38   2.0000      -0.640617       -17.4321
  39   2.0000      -0.621767       -16.9191
  40   2.0000      -0.601180       -16.3589
  41   2.0000      -0.573349       -15.6016
  42   2.0000      -0.570629       -15.5276
  43   2.0000      -0.545994       -14.8572
  44   2.0000      -0.542120       -14.7518
  45   2.0000      -0.533790       -14.5252
  46   2.0000      -0.519884       -14.1468
  47   2.0000      -0.515232       -14.0202
  48   2.0000      -0.506407       -13.7800
  49   2.0000      -0.500610       -13.6223
  50   2.0000      -0.489899       -13.3308
  51   2.0000      -0.481961       -13.1148
  52   2.0000      -0.469779       -12.7833
  53   2.0000      -0.465288       -12.6611
  54   2.0000      -0.457932       -12.4610
  55   2.0000      -0.449501       -12.2315
  56   2.0000      -0.441875       -12.0240
  57   2.0000      -0.435697       -11.8559
  58   2.0000      -0.429287       -11.6815
  59   2.0000      -0.425654       -11.5826
  60   2.0000      -0.423548       -11.5253
  61   2.0000      -0.419077       -11.4037
  62   2.0000      -0.414200       -11.2709
  63   2.0000      -0.349080        -9.4990
  64   2.0000      -0.332906        -9.0588
  65   2.0000      -0.327211        -8.9039
  66   2.0000      -0.286702        -7.8016
  67   0.0000       0.020930         0.5695
  68   0.0000       0.075065         2.0426
  69   0.0000       0.110694         3.0121
  70   0.0000       0.118647         3.2286
  71   0.0000       0.130008         3.5377

MULLIKEN ATOMIC CHARGES
-----------------------
   0 S :    0.101962
   1 C :   -0.126954
   2 C :   -0.110414
   3 C :    0.011595
   4 C :   -0.156183
   5 H :    0.003430
   6 C :    0.108039
   7 H :    0.020321
   8 H :    0.005373
   9 C :   -0.042205
  10 H :    0.030563
  11 H :    0.024717
  12 C :   -0.075545
  13 H :    0.035379
  14 H :    0.040979
  15 H :    0.035386
  16 S :    0.110207
  17 C :   -0.093729
  18 C :   -0.049359
  19 C :   -0.062700
  20 C :   -0.136083
  21 H :    0.043211
  22 C :    0.114817
  23 H :    0.001370
  24 H :    0.003770
  25 C :   -0.089534
  26 H :    0.030160
  27 H :    0.037625
  28 C :    0.005304
  29 H :    0.028859
  30 H :   -0.003022
  31 H :    0.030849
  32 H :    0.056925
  33 H :    0.064889
Sum of atomic charges:   -0.0000000

LOEWDIN ATOMIC CHARGES
----------------------
   0 S :    0.404354
   1 C :   -0.202836
   2 C :   -0.064581
   3 C :   -0.068597
   4 C :   -0.196876
   5 H :    0.026190
   6 C :   -0.023440
   7 H :    0.029403
   8 H :    0.020273
   9 C :   -0.031362
  10 H :    0.021045
  11 H :    0.026423
  12 C :   -0.072323
  13 H :    0.035002
  14 H :    0.024508
  15 H :    0.025356
  16 S :    0.396605
  17 C :   -0.187789
  18 C :   -0.083630
  19 C :   -0.048373
  20 C :   -0.186105
  21 H :    0.041780
  22 C :   -0.029081
  23 H :    0.027643
  24 H :    0.019014
  25 C :   -0.031949
  26 H :    0.019905
  27 H :    0.036085
  28 C :   -0.068664
  29 H :    0.029102
  30 H :    0.016707
  31 H :    0.028268
  32 H :    0.035300
  33 H :    0.032645

  Mayer bond orders larger than 0.100000
B(  0-S ,  1-C ) :   1.1455 B(  0-S ,  4-C ) :   1.1412 B(  1-C ,  2-C ) :   1.5926
B(  1-C , 32-H ) :   0.9634 B(  2-C ,  3-C ) :   1.2498 B(  2-C ,  6-C ) :   1.0216
B(  3-C ,  4-C ) :   1.5774 B(  3-C ,  5-H ) :   0.9837 B(  4-C , 20-C ) :   1.0775
B(  6-C ,  7-H ) :   0.9381 B(  6-C ,  8-H ) :   0.9432 B(  6-C ,  9-C ) :   1.0656
B(  9-C , 10-H ) :   0.9624 B(  9-C , 11-H ) :   0.9543 B(  9-C , 12-C ) :   1.0689
B( 12-C , 13-H ) :   0.9756 B( 12-C , 14-H ) :   0.9752 B( 12-C , 15-H ) :   0.9781
B( 16-S , 17-C ) :   1.1617 B( 16-S , 20-C ) :   1.1276 B( 17-C , 18-C ) :   1.6111
B( 17-C , 33-H ) :   0.9643 B( 18-C , 19-C ) :   1.2527 B( 18-C , 21-H ) :   0.9722
B( 19-C , 20-C ) :   1.5540 B( 19-C , 22-C ) :   1.0580 B( 22-C , 23-H ) :   0.9241
B( 22-C , 24-H ) :   0.9296 B( 22-C , 25-C ) :   1.0529 B( 25-C , 26-H ) :   0.9589
B( 25-C , 27-H ) :   0.9535 B( 25-C , 28-C ) :   1.0939 B( 28-C , 29-H ) :   0.9707
B( 28-C , 30-H ) :   0.9648 B( 28-C , 31-H ) :   0.9693

Dispersion correction           -0.014263903
FINAL SINGLE POINT ENERGY     -1339.870912910721

DIPOLE MOMENT
-------------
                                X             Y             Z
Electronic contribution:     22.50763      -8.18916     -15.83053
Nuclear contribution   :    -22.88921       8.71435      16.09780
                        -----------------------------------------
Total Dipole Moment    :     -0.38158       0.52519       0.26727
                        -----------------------------------------
Magnitude (a.u.)       :      0.70204
Magnitude (Debye)      :      1.78444

Rotational constants in cm-1:     0.018828     0.008915     0.006764
Rotational constants in MHz :   564.460847   267.252772   202.789713

                             ****ORCA TERMINATED NORMALLY****
TOTAL RUN TIME: 0 days 0 hours 0 minutes 30 seconds 133 msec
