                         Program Version 4.2.1 -  RELEASE  -
|  1> ! wB97X-D3 SP def2-SVP
|  2> %pal
|  3> nprocs 16
|  4> end
|  5>
|  6> * xyz 0 1
|  7> S 	 15.9792 	 9.49533 	 88.8135
|  8> C 	 16.9947 	 8.01278 	 88.9664
|  9> C 	 16.2908 	 6.85816 	 88.5453
| 10> C 	 14.9862 	 7.16708 	 88.1308
| 11> C 	 14.5547 	 8.46271 	 88.3711
| 12> H 	 14.3506 	 6.35828 	 87.6917
| 13> C 	 16.7774 	 5.39776 	 88.447
| 14> H 	 17.7834 	 5.39565 	 88.8739
| 15> H 	 17.0034 	 5.16115 	 87.3845
| 16> C 	 15.9212 	 4.33682 	 89.0885
| 17> H 	 15.5544 	 4.73217 	 90.0318
| 18> H 	 15.0288 	 4.24973 	 88.5455
| 19> C 	 16.5352 	 3.01909 	 89.2626
| 20> H 	 15.7585 	 2.43659 	 89.8923
| 21> H 	 16.6892 	 2.60475 	 88.2284
| 22> H 	 17.4693 	 3.14522 	 89.8029
| 23> S 	 13.2056 	 10.5753 	 87.1177
| 24> C 	 11.4742 	 10.6655 	 87.255
| 25> C 	 10.9343 	 9.63841 	 88.0002
| 26> C 	 11.9521 	 8.7207 	 88.4435
| 27> C 	 13.2587 	 9.07758 	 88.0919
| 28> H 	 9.83724 	 9.54959 	 88.0848
| 29> C 	 11.5513 	 7.42309 	 89.1605
| 30> H 	 12.4059 	 6.81135 	 89.2163
| 31> H 	 11.0238 	 6.79113 	 88.4626
| 32> C 	 10.8532 	 7.52328 	 90.5939
| 33> H 	 9.96296 	 8.13332 	 90.5359
| 34> H 	 11.5017 	 8.05571 	 91.249
| 35> C 	 10.5608 	 6.21791 	 91.3365
| 36> H 	 10.4612 	 6.3563 	 92.4756
| 37> H 	 11.4658 	 5.55355 	 91.2882
| 38> H 	 9.70433 	 5.70103 	 90.8288
| 39> H 	 18.0371 	 8.05694 	 89.2822
| 40> H 	 10.8317 	 11.3689 	 86.7888
| 41> *
| 42>
| 43>                          ****END OF INPUT****

CARTESIAN COORDINATES (ANGSTROEM)
---------------------------------
  S     15.979200    9.495330   88.813500
  C     16.994700    8.012780   88.966400
  C     16.290800    6.858160   88.545300
  C     14.986200    7.167080   88.130800
  C     14.554700    8.462710   88.371100
  H     14.350600    6.358280   87.691700
  C     16.777400    5.397760   88.447000
  H     17.783400    5.395650   88.873900
  H     17.003400    5.161150   87.384500
  C     15.921200    4.336820   89.088500
  H     15.554400    4.732170   90.031800
  H     15.028800    4.249730   88.545500
  C     16.535200    3.019090   89.262600
  H     15.758500    2.436590   89.892300
  H     16.689200    2.604750   88.228400
  H     17.469300    3.145220   89.802900
  S     13.205600   10.575300   87.117700
  C     11.474200   10.665500   87.255000
  C     10.934300    9.638410   88.000200
  C     11.952100    8.720700   88.443500
  C     13.258700    9.077580   88.091900
  H      9.837240    9.549590   88.084800
  C     11.551300    7.423090   89.160500
  H     12.405900    6.811350   89.216300
  H     11.023800    6.791130   88.462600
  C     10.853200    7.523280   90.593900
  H      9.962960    8.133320   90.535900
  H     11.501700    8.055710   91.249000
  C     10.560800    6.217910   91.336500
  H     10.461200    6.356300   92.475600
  H     11.465800    5.553550   91.288200
  H      9.704330    5.701030   90.828800
  H     18.037100    8.056940   89.282200
  H     10.831700   11.368900   86.788800

 Total Charge           Charge          ....    0
 Multiplicity           Mult            ....    1
 Number of Electrons    NEL             ....  134
 Basis Dimension        Dim             ....  322

ORBITAL ENERGIES
----------------

  NO   OCC          E(Eh)            E(eV)
   0   2.0000     -88.968998     -2420.9695
   1   2.0000     -88.966862     -2420.9114
   2   2.0000     -10.338284      -281.3190
   3   2.0000     -10.332439      -281.1600
   4   2.0000     -10.325194      -280.9628
   5   2.0000     -10.315911      -280.7102
   6   2.0000     -10.309648      -280.5398
   7   2.0000     -10.306339      -280.4497
   8   2.0000     -10.297734      -280.2156
   9   2.0000     -10.296381      -280.1788
  10   2.0000     -10.295758      -280.1618
  11   2.0000     -10.291126      -280.0358
  12   2.0000     -10.289980      -280.0046
  13   2.0000     -10.288186      -279.9558
  14   2.0000     -10.285905      -279.8937
  15   2.0000     -10.276972      -279.6506
  16   2.0000      -8.081876      -219.9190
  17   2.0000      -8.081157      -219.8995
  18   2.0000      -6.040562      -164.3721
  19   2.0000      -6.039747      -164.3499
  20   2.0000      -6.036791      -164.2694
  21   2.0000      -6.035720      -164.2403
  22   2.0000      -6.032405      -164.1501
  23   2.0000      -6.031852      -164.1350
  24   2.0000      -0.998516       -27.1710
  25   2.0000      -0.976477       -26.5713
  26   2.0000      -0.921015       -25.0621
  27   2.0000      -0.898591       -24.4519
  28   2.0000      -0.870082       -23.6761
  29   2.0000      -0.851557       -23.1721
  30   2.0000      -0.844982       -22.9931
  31   2.0000      -0.813169       -22.1275
  32   2.0000      -0.781741       -21.2722
  33   2.0000      -0.768438       -20.9103
  34   2.0000      -0.708676       -19.2840
  35   2.0000      -0.699398       -19.0316
  36   2.0000      -0.694035       -18.8857
  37   2.0000      -0.655186       -17.8285
  38   2.0000      -0.640439       -17.4272
  39   2.0000      -0.622675       -16.9439
  40   2.0000      -0.593812       -16.1584
  41   2.0000      -0.576824       -15.6962
  42   2.0000      -0.563511       -15.3339
  43   2.0000      -0.557671       -15.1750
  44   2.0000      -0.534566       -14.5463
  45   2.0000      -0.518817       -14.1177
  46   2.0000      -0.516109       -14.0440
  47   2.0000      -0.504612       -13.7312
  48   2.0000      -0.502912       -13.6849
  49   2.0000      -0.497156       -13.5283
  50   2.0000      -0.487117       -13.2551
  51   2.0000      -0.482035       -13.1168
  52   2.0000      -0.473713       -12.8904
  53   2.0000      -0.465235       -12.6597
  54   2.0000      -0.455851       -12.4043
  55   2.0000      -0.448485       -12.2039
  56   2.0000      -0.442727       -12.0472
  57   2.0000      -0.434642       -11.8272
  58   2.0000      -0.426340       -11.6013
  59   2.0000      -0.425595       -11.5810
  60   2.0000      -0.425337       -11.5740
  61   2.0000      -0.415371       -11.3028
  62   2.0000      -0.413592       -11.2544
  63   2.0000      -0.348166        -9.4741
  64   2.0000      -0.332958        -9.0603
  65   2.0000      -0.331310        -9.0154
  66   2.0000      -0.288371        -7.8470
  67   0.0000       0.023295         0.6339
  68   0.0000       0.063604         1.7308
  69   0.0000       0.101199         2.7538
  70   0.0000       0.120649         3.2830
  71   0.0000       0.127232         3.4622

MULLIKEN ATOMIC CHARGES
-----------------------
   0 S :    0.091993
   1 C :   -0.134475
   2 C :   -0.088867
   3 C :    0.016831
   4 C :   -0.143702
   5 H :    0.037088
   6 C :    0.065234
   7 H :    0.002630
   8 H :    0.039146
   9 C :   -0.062847
  10 H :    0.021444
  11 H :    0.007591
  12 C :   -0.050581
  13 H :    0.053947
  14 H :    0.041875
  15 H :    0.036262
  16 S :    0.104216
  17 C :   -0.075596
  18 C :   -0.043752
  19 C :   -0.044608
  20 C :   -0.148147
  21 H :    0.035284
  22 C :    0.103350
  23 H :   -0.022694
  24 H :    0.021122
  25 C :   -0.046326
  26 H :    0.026020
  27 H :    0.024189
  28 C :   -0.100177
  29 H :    0.054373
  30 H :    0.032040
  31 H :    0.046418
  32 H :    0.055925
  33 H :    0.044793
Sum of atomic charges:   -0.0000000

LOEWDIN ATOMIC CHARGES
----------------------
   0 S :    0.362074
   1 C :   -0.181744
   2 C :   -0.062582
   3 C :   -0.066000
   4 C :   -0.169961
   5 H :    0.038945
   6 C :   -0.034022
   7 H :    0.026109
   8 H :    0.035785
   9 C :   -0.053500
  10 H :    0.024906
  11 H :    0.014204
  12 C :   -0.062667
  13 H :    0.043104
  14 H :    0.032411
  15 H :    0.024233
  16 S :    0.394188
  17 C :   -0.179115
  18 C :   -0.075213
  19 C :   -0.047840
  20 C :   -0.193421
  21 H :    0.039201
  22 C :   -0.032628
  23 H :    0.018789
  24 H :    0.030312
  25 C :   -0.038351
  26 H :    0.019542
  27 H :    0.023398
  28 C :   -0.078630
  29 H :    0.039475
  30 H :    0.026796
  31 H :    0.028508
  32 H :    0.028981
  33 H :    0.024715

  Mayer bond orders larger than 0.100000
B(  0-S ,  1-C ) :   1.1304 B(  0-S ,  4-C ) :   1.1286 B(  1-C ,  2-C ) :   1.6006
B(  1-C ,  4-C ) :   0.1118 B(  1-C , 32-H ) :   0.9662 B(  2-C ,  3-C ) :   1.2618
B(  2-C ,  6-C ) :   1.0227 B(  3-C ,  4-C ) :   1.5702 B(  3-C ,  5-H ) :   0.9764
B(  4-C , 20-C ) :   1.0619 B(  6-C ,  7-H ) :   0.9369 B(  6-C ,  8-H ) :   0.9327
B(  6-C ,  9-C ) :   1.0611 B(  9-C , 10-H ) :   0.9517 B(  9-C , 11-H ) :   0.9402
B(  9-C , 12-C ) :   1.0995 B( 12-C , 13-H ) :   0.9704 B( 12-C , 14-H ) :   0.9707
B( 12-C , 15-H ) :   0.9739 B( 16-S , 17-C ) :   1.1550 B( 16-S , 20-C ) :   1.1200
B( 17-C , 18-C ) :   1.6266 B( 17-C , 33-H ) :   0.9669 B( 18-C , 19-C ) :   1.2285
B( 18-C , 21-H ) :   0.9859 B( 19-C , 20-C ) :   1.6019 B( 19-C , 22-C ) :   1.0488
B( 22-C , 23-H ) :   0.9192 B( 22-C , 24-H ) :   0.9336 B( 22-C , 25-C ) :   1.0423
B( 25-C , 26-H ) :   0.9602 B( 25-C , 27-H ) :   0.9561 B( 25-C , 28-C ) :   1.0827
B( 28-C , 29-H ) :   0.9739 B( 28-C , 30-H ) :   0.9733 B( 28-C , 31-H ) :   0.9762

Dispersion correction           -0.013453942
FINAL SINGLE POINT ENERGY     -1339.868398192135

DIPOLE MOMENT
-------------
                                X             Y             Z
Electronic contribution:      5.85720      29.74273     -12.12651
Nuclear contribution   :     -6.08552     -30.43001      12.17921
                        -----------------------------------------
Total Dipole Moment    :     -0.22832      -0.68728       0.05270
                        -----------------------------------------
Magnitude (a.u.)       :      0.72613
Magnitude (Debye)      :      1.84568

Rotational constants in cm-1:     0.015731     0.009065     0.006377
Rotational constants in MHz :   471.594896   271.748043   191.172381

                             ****ORCA TERMINATED NORMALLY****
TOTAL RUN TIME: 0 days 0 hours 0 minutes 33 seconds 335 msec
