                         Program Version 4.2.1 -  RELEASE  -
|  1> ! wB97X-D3 SP def2-SVP
|  2> %pal
|  3> nprocs 16
|  4> end
|  5>
|  6> * xyz 0 1
|  7> S 	 -6.97794 	 41.7877 	 40.1216
|  8> C 	 -7.80387 	 40.3593 	 39.5399
|  9> C 	 -7.10663 	 39.9157 	 38.4145
| 10> C 	 -6.06069 	 40.8004 	 37.9291
| 11> C 	 -5.97723 	 41.9641 	 38.6012
| 12> H 	 -5.32157 	 40.6711 	 37.1842
| 13> C 	 -7.44416 	 38.6266 	 37.6837
| 14> H 	 -7.77988 	 38.8151 	 36.6012
| 15> H 	 -8.32218 	 38.2601 	 38.1722
| 16> C 	 -6.39515 	 37.4816 	 37.7099
| 17> H 	 -5.46642 	 37.794 	 37.2669
| 18> H 	 -6.01661 	 37.2216 	 38.7136
| 19> C 	 -6.89582 	 36.2249 	 36.9688
| 20> H 	 -6.68294 	 36.4296 	 35.9105
| 21> H 	 -6.44169 	 35.2855 	 37.2086
| 22> H 	 -7.99125 	 36.1529 	 37.0594
| 23> S 	 -4.09285 	 43.3187 	 40.0138
| 24> C 	 -2.77636 	 44.1226 	 39.1664
| 25> C 	 -2.98759 	 44.0284 	 37.8171
| 26> C 	 -4.19946 	 43.3097 	 37.4006
| 27> C 	 -4.8125 	 42.7953 	 38.5205
| 28> H 	 -2.26348 	 44.5449 	 37.1868
| 29> C 	 -4.46737 	 43.1871 	 35.9203
| 30> H 	 -4.20977 	 44.1781 	 35.5104
| 31> H 	 -5.5801 	 43.1565 	 35.8333
| 32> C 	 -3.57612 	 42.1923 	 35.1879
| 33> H 	 -3.53467 	 41.1684 	 35.5909
| 34> H 	 -2.53115 	 42.6269 	 35.1134
| 35> C 	 -3.91497 	 41.9623 	 33.6925
| 36> H 	 -3.83435 	 42.8841 	 33.2036
| 37> H 	 -4.94183 	 41.6359 	 33.5475
| 38> H 	 -3.34916 	 41.1729 	 33.2387
| 39> H 	 -8.72313 	 39.8761 	 39.9807
| 40> H 	 -2.03522 	 44.7361 	 39.5694
| 41> *
| 42>
| 43>                          ****END OF INPUT****

CARTESIAN COORDINATES (ANGSTROEM)
---------------------------------
  S     -6.977940   41.787700   40.121600
  C     -7.803870   40.359300   39.539900
  C     -7.106630   39.915700   38.414500
  C     -6.060690   40.800400   37.929100
  C     -5.977230   41.964100   38.601200
  H     -5.321570   40.671100   37.184200
  C     -7.444160   38.626600   37.683700
  H     -7.779880   38.815100   36.601200
  H     -8.322180   38.260100   38.172200
  C     -6.395150   37.481600   37.709900
  H     -5.466420   37.794000   37.266900
  H     -6.016610   37.221600   38.713600
  C     -6.895820   36.224900   36.968800
  H     -6.682940   36.429600   35.910500
  H     -6.441690   35.285500   37.208600
  H     -7.991250   36.152900   37.059400
  S     -4.092850   43.318700   40.013800
  C     -2.776360   44.122600   39.166400
  C     -2.987590   44.028400   37.817100
  C     -4.199460   43.309700   37.400600
  C     -4.812500   42.795300   38.520500
  H     -2.263480   44.544900   37.186800
  C     -4.467370   43.187100   35.920300
  H     -4.209770   44.178100   35.510400
  H     -5.580100   43.156500   35.833300
  C     -3.576120   42.192300   35.187900
  H     -3.534670   41.168400   35.590900
  H     -2.531150   42.626900   35.113400
  C     -3.914970   41.962300   33.692500
  H     -3.834350   42.884100   33.203600
  H     -4.941830   41.635900   33.547500
  H     -3.349160   41.172900   33.238700
  H     -8.723130   39.876100   39.980700
  H     -2.035220   44.736100   39.569400

 Total Charge           Charge          ....    0
 Multiplicity           Mult            ....    1
 Number of Electrons    NEL             ....  134
 Basis Dimension        Dim             ....  322

ORBITAL ENERGIES
----------------

  NO   OCC          E(Eh)            E(eV)
   0   2.0000     -88.962987     -2420.8059
   1   2.0000     -88.962936     -2420.8046
   2   2.0000     -10.328777      -281.0603
   3   2.0000     -10.327316      -281.0206
   4   2.0000     -10.326555      -280.9998
   5   2.0000     -10.310194      -280.5546
   6   2.0000     -10.308484      -280.5081
   7   2.0000     -10.303964      -280.3851
   8   2.0000     -10.301080      -280.3066
   9   2.0000     -10.298002      -280.2229
  10   2.0000     -10.297131      -280.1992
  11   2.0000     -10.294044      -280.1152
  12   2.0000     -10.293026      -280.0875
  13   2.0000     -10.287918      -279.9485
  14   2.0000     -10.279308      -279.7142
  15   2.0000     -10.273504      -279.5563
  16   2.0000      -8.077943      -219.8120
  17   2.0000      -8.076860      -219.7825
  18   2.0000      -6.036659      -164.2659
  19   2.0000      -6.035716      -164.2402
  20   2.0000      -6.032468      -164.1518
  21   2.0000      -6.031615      -164.1286
  22   2.0000      -6.028405      -164.0412
  23   2.0000      -6.027121      -164.0063
  24   2.0000      -1.008317       -27.4377
  25   2.0000      -0.980767       -26.6880
  26   2.0000      -0.912005       -24.8169
  27   2.0000      -0.906417       -24.6649
  28   2.0000      -0.878391       -23.9022
  29   2.0000      -0.853429       -23.2230
  30   2.0000      -0.842878       -22.9359
  31   2.0000      -0.820844       -22.3363
  32   2.0000      -0.782644       -21.2968
  33   2.0000      -0.766315       -20.8525
  34   2.0000      -0.710790       -19.3416
  35   2.0000      -0.700380       -19.0583
  36   2.0000      -0.696044       -18.9403
  37   2.0000      -0.664563       -18.0837
  38   2.0000      -0.644012       -17.5245
  39   2.0000      -0.618103       -16.8194
  40   2.0000      -0.592954       -16.1351
  41   2.0000      -0.571452       -15.5500
  42   2.0000      -0.565637       -15.3918
  43   2.0000      -0.554305       -15.0834
  44   2.0000      -0.533172       -14.5084
  45   2.0000      -0.526821       -14.3355
  46   2.0000      -0.522359       -14.2141
  47   2.0000      -0.512619       -13.9491
  48   2.0000      -0.508579       -13.8391
  49   2.0000      -0.501180       -13.6378
  50   2.0000      -0.498956       -13.5773
  51   2.0000      -0.481608       -13.1052
  52   2.0000      -0.472587       -12.8597
  53   2.0000      -0.465952       -12.6792
  54   2.0000      -0.454821       -12.3763
  55   2.0000      -0.448902       -12.2152
  56   2.0000      -0.441358       -12.0100
  57   2.0000      -0.438351       -11.9281
  58   2.0000      -0.436334       -11.8732
  59   2.0000      -0.421695       -11.4749
  60   2.0000      -0.417132       -11.3507
  61   2.0000      -0.413463       -11.2509
  62   2.0000      -0.407852       -11.0982
  63   2.0000      -0.364833        -9.9276
  64   2.0000      -0.329667        -8.9707
  65   2.0000      -0.321235        -8.7412
  66   2.0000      -0.290398        -7.9021
  67   0.0000       0.023732         0.6458
  68   0.0000       0.073839         2.0093
  69   0.0000       0.102319         2.7842
  70   0.0000       0.116381         3.1669
  71   0.0000       0.127057         3.4574

MULLIKEN ATOMIC CHARGES
-----------------------
   0 S :    0.066361
   1 C :   -0.113297
   2 C :   -0.087345
   3 C :    0.036760
   4 C :   -0.097772
   5 H :   -0.003948
   6 C :    0.043970
   7 H :    0.045237
   8 H :    0.001024
   9 C :   -0.069110
  10 H :    0.017119
  11 H :    0.027015
  12 C :   -0.046775
  13 H :    0.029522
  14 H :    0.036773
  15 H :    0.030851
  16 S :    0.098794
  17 C :   -0.067799
  18 C :   -0.048162
  19 C :   -0.054701
  20 C :   -0.150100
  21 H :    0.018700
  22 C :    0.071739
  23 H :    0.023343
  24 H :    0.040912
  25 C :   -0.106937
  26 H :    0.045502
  27 H :    0.043148
  28 C :   -0.016771
  29 H :    0.016962
  30 H :    0.018213
  31 H :    0.033951
  32 H :    0.082064
  33 H :    0.034757
Sum of atomic charges:    0.0000000

LOEWDIN ATOMIC CHARGES
----------------------
   0 S :    0.359109
   1 C :   -0.195388
   2 C :   -0.064543
   3 C :   -0.045855
   4 C :   -0.165743
   5 H :    0.027783
   6 C :   -0.036317
   7 H :    0.038043
   8 H :    0.021293
   9 C :   -0.043612
  10 H :    0.017134
  11 H :    0.025132
  12 C :   -0.064624
  13 H :    0.028148
  14 H :    0.023798
  15 H :    0.025635
  16 S :    0.397426
  17 C :   -0.180141
  18 C :   -0.066064
  19 C :   -0.064137
  20 C :   -0.190632
  21 H :    0.029475
  22 C :   -0.040909
  23 H :    0.037579
  24 H :    0.036962
  25 C :   -0.042730
  26 H :    0.023277
  27 H :    0.035464
  28 C :   -0.060155
  29 H :    0.015693
  30 H :    0.022389
  31 H :    0.025771
  32 H :    0.049957
  33 H :    0.020777

  Mayer bond orders larger than 0.100000
B(  0-S ,  1-C ) :   1.1233 B(  0-S ,  4-C ) :   1.1092 B(  1-C ,  2-C ) :   1.6223
B(  1-C , 32-H ) :   0.9598 B(  2-C ,  3-C ) :   1.1991 B(  2-C ,  6-C ) :   1.0366
B(  3-C ,  4-C ) :   1.5960 B(  3-C ,  5-H ) :   1.0019 B(  4-C , 20-C ) :   1.0662
B(  6-C ,  7-H ) :   0.9465 B(  6-C ,  8-H ) :   0.9364 B(  6-C ,  9-C ) :   1.0504
B(  9-C , 10-H ) :   0.9606 B(  9-C , 11-H ) :   0.9571 B(  9-C , 12-C ) :   1.0678
B( 12-C , 13-H ) :   0.9774 B( 12-C , 14-H ) :   0.9771 B( 12-C , 15-H ) :   0.9784
B( 16-S , 17-C ) :   1.1195 B( 16-S , 20-C ) :   1.1293 B( 17-C , 18-C ) :   1.6662
B( 17-C , 33-H ) :   0.9743 B( 18-C , 19-C ) :   1.1967 B( 18-C , 21-H ) :   0.9836
B( 19-C , 20-C ) :   1.6199 B( 19-C , 22-C ) :   1.0537 B( 22-C , 23-H ) :   0.9231
B( 22-C , 24-H ) :   0.9352 B( 22-C , 25-C ) :   1.0531 B( 25-C , 26-H ) :   0.9598
B( 25-C , 27-H ) :   0.9511 B( 25-C , 28-C ) :   1.0836 B( 28-C , 29-H ) :   0.9746
B( 28-C , 30-H ) :   0.9739 B( 28-C , 31-H ) :   0.9753

Dispersion correction           -0.013679037
FINAL SINGLE POINT ENERGY     -1339.860320146253

DIPOLE MOMENT
-------------
                                X             Y             Z
Electronic contribution:     -1.34961      18.73961      25.92927
Nuclear contribution   :      1.52995     -19.09496     -26.61444
                        -----------------------------------------
Total Dipole Moment    :      0.18034      -0.35535      -0.68517
                        -----------------------------------------
Magnitude (a.u.)       :      0.79263
Magnitude (Debye)      :      2.01470

Rotational constants in cm-1:     0.015907     0.009370     0.006519
Rotational constants in MHz :   476.880136   280.910618   195.446171

                             ****ORCA TERMINATED NORMALLY****
TOTAL RUN TIME: 0 days 0 hours 0 minutes 33 seconds 467 msec
