                         Program Version 4.2.1 -  RELEASE  -
|  1> ! wB97X-D3 SP def2-SVP
|  2> %pal
|  3> nprocs 16
|  4> end
|  5>
|  6> * xyz 0 1
|  7> S 	 39.5992 	 12.4956 	 81.1918
|  8> C 	 39.5161 	 12.3778 	 79.4678
|  9> C 	 40.2352 	 13.3896 	 78.829
| 10> C 	 40.8996 	 14.209 	 79.7913
| 11> C 	 40.6667 	 13.8905 	 81.0694
| 12> H 	 41.5722 	 15.0569 	 79.5519
| 13> C 	 40.3852 	 13.6595 	 77.302
| 14> H 	 41.3559 	 14.1836 	 77.1206
| 15> H 	 39.5611 	 14.2821 	 77.0355
| 16> C 	 40.4504 	 12.3808 	 76.4472
| 17> H 	 40.9617 	 11.5742 	 76.8497
| 18> H 	 39.3838 	 12.1108 	 76.4885
| 19> C 	 40.8398 	 12.6949 	 74.9941
| 20> H 	 40.3106 	 13.5606 	 74.5728
| 21> H 	 41.9177 	 12.887 	 74.879
| 22> H 	 40.5622 	 11.8867 	 74.2926
| 23> S 	 40.4806 	 15.6684 	 83.2097
| 24> C 	 41.881 	 16.0457 	 84.1044
| 25> C 	 42.9486 	 15.2041 	 83.799
| 26> C 	 42.7331 	 14.4169 	 82.6232
| 27> C 	 41.397 	 14.5331 	 82.1969
| 28> H 	 43.8996 	 15.41 	 84.3165
| 29> C 	 43.7491 	 13.4723 	 82.0249
| 30> H 	 44.1484 	 14.036 	 81.1804
| 31> H 	 43.2637 	 12.5691 	 81.7497
| 32> C 	 44.8712 	 13.106 	 82.9472
| 33> H 	 44.6355 	 12.3448 	 83.6479
| 34> H 	 45.2192 	 13.9446 	 83.5441
| 35> C 	 46.0587 	 12.5776 	 82.1881
| 36> H 	 46.8893 	 12.2633 	 82.7047
| 37> H 	 46.426 	 13.1795 	 81.3829
| 38> H 	 45.6821 	 11.6773 	 81.6414
| 39> H 	 39.0474 	 11.5542 	 78.9423
| 40> H 	 41.9882 	 16.9415 	 84.7899
| 41> *
| 42>
| 43>                          ****END OF INPUT****

CARTESIAN COORDINATES (ANGSTROEM)
---------------------------------
  S     39.599200   12.495600   81.191800
  C     39.516100   12.377800   79.467800
  C     40.235200   13.389600   78.829000
  C     40.899600   14.209000   79.791300
  C     40.666700   13.890500   81.069400
  H     41.572200   15.056900   79.551900
  C     40.385200   13.659500   77.302000
  H     41.355900   14.183600   77.120600
  H     39.561100   14.282100   77.035500
  C     40.450400   12.380800   76.447200
  H     40.961700   11.574200   76.849700
  H     39.383800   12.110800   76.488500
  C     40.839800   12.694900   74.994100
  H     40.310600   13.560600   74.572800
  H     41.917700   12.887000   74.879000
  H     40.562200   11.886700   74.292600
  S     40.480600   15.668400   83.209700
  C     41.881000   16.045700   84.104400
  C     42.948600   15.204100   83.799000
  C     42.733100   14.416900   82.623200
  C     41.397000   14.533100   82.196900
  H     43.899600   15.410000   84.316500
  C     43.749100   13.472300   82.024900
  H     44.148400   14.036000   81.180400
  H     43.263700   12.569100   81.749700
  C     44.871200   13.106000   82.947200
  H     44.635500   12.344800   83.647900
  H     45.219200   13.944600   83.544100
  C     46.058700   12.577600   82.188100
  H     46.889300   12.263300   82.704700
  H     46.426000   13.179500   81.382900
  H     45.682100   11.677300   81.641400
  H     39.047400   11.554200   78.942300
  H     41.988200   16.941500   84.789900

 Total Charge           Charge          ....    0
 Multiplicity           Mult            ....    1
 Number of Electrons    NEL             ....  134
 Basis Dimension        Dim             ....  322

ORBITAL ENERGIES
----------------

  NO   OCC          E(Eh)            E(eV)
   0   2.0000     -88.965841     -2420.8836
   1   2.0000     -88.963647     -2420.8239
   2   2.0000     -10.325777      -280.9787
   3   2.0000     -10.322433      -280.8877
   4   2.0000     -10.317490      -280.7532
   5   2.0000     -10.314191      -280.6634
   6   2.0000     -10.305970      -280.4397
   7   2.0000     -10.302031      -280.3325
   8   2.0000     -10.296365      -280.1783
   9   2.0000     -10.293021      -280.0873
  10   2.0000     -10.288445      -279.9628
  11   2.0000     -10.287005      -279.9236
  12   2.0000     -10.284215      -279.8477
  13   2.0000     -10.283594      -279.8308
  14   2.0000     -10.277570      -279.6669
  15   2.0000     -10.267314      -279.3878
  16   2.0000      -8.080669      -219.8862
  17   2.0000      -8.078790      -219.8351
  18   2.0000      -6.039164      -164.3340
  19   2.0000      -6.037115      -164.2782
  20   2.0000      -6.035188      -164.2258
  21   2.0000      -6.033134      -164.1699
  22   2.0000      -6.031420      -164.1233
  23   2.0000      -6.029842      -164.0803
  24   2.0000      -1.004209       -27.3259
  25   2.0000      -0.984247       -26.7827
  26   2.0000      -0.919943       -25.0329
  27   2.0000      -0.909624       -24.7521
  28   2.0000      -0.864755       -23.5312
  29   2.0000      -0.852387       -23.1946
  30   2.0000      -0.848356       -23.0849
  31   2.0000      -0.810037       -22.0422
  32   2.0000      -0.783269       -21.3138
  33   2.0000      -0.769133       -20.9292
  34   2.0000      -0.710491       -19.3334
  35   2.0000      -0.707655       -19.2563
  36   2.0000      -0.686498       -18.6806
  37   2.0000      -0.645349       -17.5609
  38   2.0000      -0.641920       -17.4675
  39   2.0000      -0.614790       -16.7293
  40   2.0000      -0.599244       -16.3063
  41   2.0000      -0.575682       -15.6651
  42   2.0000      -0.570583       -15.5263
  43   2.0000      -0.564040       -15.3483
  44   2.0000      -0.527710       -14.3597
  45   2.0000      -0.522747       -14.2247
  46   2.0000      -0.515883       -14.0379
  47   2.0000      -0.511268       -13.9123
  48   2.0000      -0.503467       -13.7000
  49   2.0000      -0.496301       -13.5050
  50   2.0000      -0.493367       -13.4252
  51   2.0000      -0.473220       -12.8770
  52   2.0000      -0.467785       -12.7291
  53   2.0000      -0.465553       -12.6683
  54   2.0000      -0.463108       -12.6018
  55   2.0000      -0.451832       -12.2950
  56   2.0000      -0.449761       -12.2386
  57   2.0000      -0.442323       -12.0362
  58   2.0000      -0.434680       -11.8282
  59   2.0000      -0.426186       -11.5971
  60   2.0000      -0.423277       -11.5180
  61   2.0000      -0.412575       -11.2267
  62   2.0000      -0.405991       -11.0476
  63   2.0000      -0.338758        -9.2181
  64   2.0000      -0.329935        -8.9780
  65   2.0000      -0.324807        -8.8385
  66   2.0000      -0.300571        -8.1789
  67   0.0000       0.048208         1.3118
  68   0.0000       0.054941         1.4950
  69   0.0000       0.121653         3.3103
  70   0.0000       0.126013         3.4290
  71   0.0000       0.136508         3.7146

MULLIKEN ATOMIC CHARGES
-----------------------
   0 S :    0.119635
   1 C :   -0.141223
   2 C :   -0.082256
   3 C :    0.021109
   4 C :   -0.153463
   5 H :    0.025161
   6 C :    0.062206
   7 H :    0.029718
   8 H :    0.046512
   9 C :   -0.075847
  10 H :    0.024732
  11 H :    0.026566
  12 C :   -0.057756
  13 H :    0.027385
  14 H :    0.039978
  15 H :    0.036055
  16 S :    0.119169
  17 C :   -0.117845
  18 C :   -0.065264
  19 C :   -0.038537
  20 C :   -0.208898
  21 H :    0.030808
  22 C :    0.135242
  23 H :    0.034111
  24 H :    0.034392
  25 C :   -0.070443
  26 H :    0.027947
  27 H :    0.022892
  28 C :   -0.027491
  29 H :    0.014244
  30 H :    0.016992
  31 H :    0.013707
  32 H :    0.050907
  33 H :    0.079558
Sum of atomic charges:    0.0000000

LOEWDIN ATOMIC CHARGES
----------------------
   0 S :    0.406265
   1 C :   -0.206275
   2 C :   -0.063027
   3 C :   -0.063011
   4 C :   -0.204379
   5 H :    0.039448
   6 C :   -0.023459
   7 H :    0.029538
   8 H :    0.032129
   9 C :   -0.040564
  10 H :    0.015473
  11 H :    0.026633
  12 C :   -0.069837
  13 H :    0.026954
  14 H :    0.026575
  15 H :    0.029556
  16 S :    0.417836
  17 C :   -0.208772
  18 C :   -0.088834
  19 C :   -0.047059
  20 C :   -0.199664
  21 H :    0.033726
  22 C :   -0.020939
  23 H :    0.039661
  24 H :    0.033344
  25 C :   -0.038442
  26 H :    0.025163
  27 H :    0.019698
  28 C :   -0.059649
  29 H :    0.013472
  30 H :    0.019409
  31 H :    0.028667
  32 H :    0.026955
  33 H :    0.043409

  Mayer bond orders larger than 0.100000
B(  0-S ,  1-C ) :   1.1450 B(  0-S ,  4-C ) :   1.1351 B(  1-C ,  2-C ) :   1.6126
B(  1-C , 32-H ) :   0.9679 B(  2-C ,  3-C ) :   1.2429 B(  2-C ,  6-C ) :   0.9968
B(  3-C ,  4-C ) :   1.6174 B(  3-C ,  5-H ) :   0.9906 B(  4-C , 20-C ) :   1.0043
B(  6-C ,  7-H ) :   0.9558 B(  6-C ,  8-H ) :   0.9362 B(  6-C ,  9-C ) :   1.0553
B(  9-C , 10-H ) :   0.9691 B(  9-C , 11-H ) :   0.9489 B(  9-C , 12-C ) :   1.0859
B( 12-C , 13-H ) :   0.9722 B( 12-C , 14-H ) :   0.9756 B( 12-C , 15-H ) :   0.9739
B( 16-S , 17-C ) :   1.1848 B( 16-S , 20-C ) :   1.1521 B( 17-C , 18-C ) :   1.5944
B( 17-C , 20-C ) :   0.1024 B( 17-C , 33-H ) :   0.9542 B( 18-C , 19-C ) :   1.2554
B( 18-C , 21-H ) :   0.9790 B( 19-C , 20-C ) :   1.5926 B( 19-C , 22-C ) :   1.0193
B( 22-C , 23-H ) :   0.9242 B( 22-C , 24-H ) :   0.9288 B( 22-C , 25-C ) :   1.0874
B( 25-C , 26-H ) :   0.9501 B( 25-C , 27-H ) :   0.9476 B( 25-C , 28-C ) :   1.0904
B( 28-C , 29-H ) :   0.9721 B( 28-C , 30-H ) :   0.9760 B( 28-C , 31-H ) :   0.9679

Dispersion correction           -0.013464963
FINAL SINGLE POINT ENERGY     -1339.873884243185

DIPOLE MOMENT
-------------
                                X             Y             Z
Electronic contribution:    -18.54819       7.99219      20.03958
Nuclear contribution   :     19.08647      -8.00858     -20.51610
                        -----------------------------------------
Total Dipole Moment    :      0.53828      -0.01639      -0.47652
                        -----------------------------------------
Magnitude (a.u.)       :      0.71909
Magnitude (Debye)      :      1.82778

Rotational constants in cm-1:     0.018106     0.007551     0.006109
Rotational constants in MHz :   542.810057   226.366734   183.136072

                             ****ORCA TERMINATED NORMALLY****
TOTAL RUN TIME: 0 days 0 hours 0 minutes 29 seconds 173 msec
