                         Program Version 4.2.1 -  RELEASE  -
|  1> ! wB97X-D3 SP def2-SVP
|  2> %pal
|  3> nprocs 16
|  4> end
|  5>
|  6> * xyz 0 1
|  7> S 	 -6.26351 	 61.6 	 48.2795
|  8> C 	 -6.70543 	 61.9315 	 49.8821
|  9> C 	 -7.4091 	 60.863 	 50.4912
| 10> C 	 -7.38306 	 59.7137 	 49.6205
| 11> C 	 -6.68606 	 59.8896 	 48.402
| 12> H 	 -7.76669 	 58.7177 	 49.8139
| 13> C 	 -8.02854 	 60.7917 	 51.8924
| 14> H 	 -8.41319 	 59.7724 	 52.0286
| 15> H 	 -8.91433 	 61.4407 	 51.66
| 16> C 	 -7.27223 	 61.2871 	 53.1607
| 17> H 	 -6.40028 	 60.6046 	 53.3292
| 18> H 	 -6.83541 	 62.1988 	 52.8344
| 19> C 	 -8.15868 	 61.4269 	 54.3914
| 20> H 	 -8.56391 	 60.4444 	 54.6742
| 21> H 	 -7.54939 	 61.6639 	 55.2927
| 22> H 	 -9.03984 	 62.0885 	 54.1859
| 23> S 	 -7.8526 	 58.3894 	 46.4062
| 24> C 	 -6.82286 	 57.4733 	 45.3109
| 25> C 	 -5.49225 	 57.6447 	 45.7303
| 26> C 	 -5.31311 	 58.5398 	 46.8232
| 27> C 	 -6.5357 	 59.0607 	 47.3118
| 28> H 	 -4.72631 	 56.9841 	 45.3133
| 29> C 	 -3.99904 	 58.5885 	 47.5285
| 30> H 	 -3.77 	 57.5666 	 47.8654
| 31> H 	 -4.0312 	 58.9696 	 48.5692
| 32> C 	 -2.76144 	 59.1245 	 46.7576
| 33> H 	 -2.56875 	 58.7195 	 45.6853
| 34> H 	 -1.90377 	 58.8232 	 47.3452
| 35> C 	 -2.79719 	 60.6571 	 46.7526
| 36> H 	 -3.67931 	 61.0698 	 46.3166
| 37> H 	 -2.01916 	 61.0036 	 46.1727
| 38> H 	 -2.60083 	 61.0045 	 47.7657
| 39> H 	 -6.42816 	 62.7919 	 50.4438
| 40> H 	 -7.05742 	 56.7663 	 44.6138
| 41> *
| 42>
| 43>                          ****END OF INPUT****

CARTESIAN COORDINATES (ANGSTROEM)
---------------------------------
  S     -6.263510   61.600000   48.279500
  C     -6.705430   61.931500   49.882100
  C     -7.409100   60.863000   50.491200
  C     -7.383060   59.713700   49.620500
  C     -6.686060   59.889600   48.402000
  H     -7.766690   58.717700   49.813900
  C     -8.028540   60.791700   51.892400
  H     -8.413190   59.772400   52.028600
  H     -8.914330   61.440700   51.660000
  C     -7.272230   61.287100   53.160700
  H     -6.400280   60.604600   53.329200
  H     -6.835410   62.198800   52.834400
  C     -8.158680   61.426900   54.391400
  H     -8.563910   60.444400   54.674200
  H     -7.549390   61.663900   55.292700
  H     -9.039840   62.088500   54.185900
  S     -7.852600   58.389400   46.406200
  C     -6.822860   57.473300   45.310900
  C     -5.492250   57.644700   45.730300
  C     -5.313110   58.539800   46.823200
  C     -6.535700   59.060700   47.311800
  H     -4.726310   56.984100   45.313300
  C     -3.999040   58.588500   47.528500
  H     -3.770000   57.566600   47.865400
  H     -4.031200   58.969600   48.569200
  C     -2.761440   59.124500   46.757600
  H     -2.568750   58.719500   45.685300
  H     -1.903770   58.823200   47.345200
  C     -2.797190   60.657100   46.752600
  H     -3.679310   61.069800   46.316600
  H     -2.019160   61.003600   46.172700
  H     -2.600830   61.004500   47.765700
  H     -6.428160   62.791900   50.443800
  H     -7.057420   56.766300   44.613800

 Total Charge           Charge          ....    0
 Multiplicity           Mult            ....    1
 Number of Electrons    NEL             ....  134
 Basis Dimension        Dim             ....  322

ORBITAL ENERGIES
----------------

  NO   OCC          E(Eh)            E(eV)
   0   2.0000     -88.967769     -2420.9361
   1   2.0000     -88.964112     -2420.8366
   2   2.0000     -10.322646      -280.8935
   3   2.0000     -10.320650      -280.8392
   4   2.0000     -10.316176      -280.7174
   5   2.0000     -10.310577      -280.5651
   6   2.0000     -10.307219      -280.4737
   7   2.0000     -10.303019      -280.3594
   8   2.0000     -10.298278      -280.2304
   9   2.0000     -10.297892      -280.2199
  10   2.0000     -10.294624      -280.1310
  11   2.0000     -10.292738      -280.0796
  12   2.0000     -10.290086      -280.0075
  13   2.0000     -10.289217      -279.9838
  14   2.0000     -10.288888      -279.9749
  15   2.0000     -10.259533      -279.1761
  16   2.0000      -8.082116      -219.9256
  17   2.0000      -8.079170      -219.8454
  18   2.0000      -6.040633      -164.3740
  19   2.0000      -6.037527      -164.2895
  20   2.0000      -6.036469      -164.2607
  21   2.0000      -6.033502      -164.1799
  22   2.0000      -6.033074      -164.1683
  23   2.0000      -6.030184      -164.0896
  24   2.0000      -1.006865       -27.3982
  25   2.0000      -0.980857       -26.6905
  26   2.0000      -0.908353       -24.7175
  27   2.0000      -0.904318       -24.6078
  28   2.0000      -0.876185       -23.8422
  29   2.0000      -0.850457       -23.1421
  30   2.0000      -0.846961       -23.0470
  31   2.0000      -0.810554       -22.0563
  32   2.0000      -0.782562       -21.2946
  33   2.0000      -0.767361       -20.8810
  34   2.0000      -0.711043       -19.3485
  35   2.0000      -0.706885       -19.2353
  36   2.0000      -0.693948       -18.8833
  37   2.0000      -0.656093       -17.8532
  38   2.0000      -0.641064       -17.4442
  39   2.0000      -0.608409       -16.5556
  40   2.0000      -0.598091       -16.2749
  41   2.0000      -0.572455       -15.5773
  42   2.0000      -0.563775       -15.3411
  43   2.0000      -0.547636       -14.9019
  44   2.0000      -0.535619       -14.5749
  45   2.0000      -0.528678       -14.3860
  46   2.0000      -0.520012       -14.1502
  47   2.0000      -0.513052       -13.9609
  48   2.0000      -0.507241       -13.8027
  49   2.0000      -0.500377       -13.6160
  50   2.0000      -0.486398       -13.2356
  51   2.0000      -0.476015       -12.9530
  52   2.0000      -0.468861       -12.7584
  53   2.0000      -0.463787       -12.6203
  54   2.0000      -0.459196       -12.4954
  55   2.0000      -0.447261       -12.1706
  56   2.0000      -0.439707       -11.9650
  57   2.0000      -0.437584       -11.9073
  58   2.0000      -0.431689       -11.7468
  59   2.0000      -0.420125       -11.4322
  60   2.0000      -0.416557       -11.3351
  61   2.0000      -0.416339       -11.3291
  62   2.0000      -0.410159       -11.1610
  63   2.0000      -0.333460        -9.0739
  64   2.0000      -0.330917        -9.0047
  65   2.0000      -0.320018        -8.7081
  66   2.0000      -0.294324        -8.0090
  67   0.0000       0.026081         0.7097
  68   0.0000       0.064223         1.7476
  69   0.0000       0.108624         2.9558
  70   0.0000       0.111317         3.0291
  71   0.0000       0.138296         3.7632

MULLIKEN ATOMIC CHARGES
-----------------------
   0 S :    0.134263
   1 C :   -0.114336
   2 C :   -0.096738
   3 C :    0.021637
   4 C :   -0.199126
   5 H :    0.011377
   6 C :    0.024661
   7 H :    0.022114
   8 H :    0.049003
   9 C :   -0.045052
  10 H :    0.039957
  11 H :    0.013403
  12 C :   -0.057191
  13 H :    0.026500
  14 H :    0.045503
  15 H :    0.047276
  16 S :    0.128939
  17 C :   -0.062144
  18 C :   -0.046035
  19 C :    0.016135
  20 C :   -0.158571
  21 H :    0.028869
  22 C :    0.013907
  23 H :    0.026818
  24 H :    0.027726
  25 C :   -0.095296
  26 H :    0.043745
  27 H :    0.020624
  28 C :    0.008709
  29 H :    0.030093
  30 H :    0.004144
  31 H :    0.022578
  32 H :    0.040023
  33 H :    0.026483
Sum of atomic charges:    0.0000000

LOEWDIN ATOMIC CHARGES
----------------------
   0 S :    0.440163
   1 C :   -0.218367
   2 C :   -0.063608
   3 C :   -0.058404
   4 C :   -0.201924
   5 H :    0.029278
   6 C :   -0.039264
   7 H :    0.027510
   8 H :    0.042972
   9 C :   -0.042170
  10 H :    0.031862
  11 H :    0.015531
  12 C :   -0.070600
  13 H :    0.026250
  14 H :    0.034525
  15 H :    0.033511
  16 S :    0.422365
  17 C :   -0.174479
  18 C :   -0.064970
  19 C :   -0.051105
  20 C :   -0.226590
  21 H :    0.033160
  22 C :   -0.045612
  23 H :    0.035684
  24 H :    0.037286
  25 C :   -0.041127
  26 H :    0.030863
  27 H :    0.022050
  28 C :   -0.057400
  29 H :    0.018793
  30 H :    0.012875
  31 H :    0.025786
  32 H :    0.021117
  33 H :    0.014037

  Mayer bond orders larger than 0.100000
B(  0-S ,  1-C ) :   1.1777 B(  0-S ,  4-C ) :   1.1493 B(  1-C ,  2-C ) :   1.5560
B(  1-C ,  4-C ) :   0.1101 B(  1-C , 32-H ) :   0.9713 B(  2-C ,  3-C ) :   1.2734
B(  2-C ,  6-C ) :   1.0029 B(  3-C ,  4-C ) :   1.5387 B(  3-C ,  5-H ) :   0.9952
B(  4-C , 20-C ) :   1.1155 B(  6-C ,  7-H ) :   0.9476 B(  6-C ,  8-H ) :   0.9349
B(  6-C ,  9-C ) :   1.0532 B(  9-C , 10-H ) :   0.9547 B(  9-C , 11-H ) :   0.9546
B(  9-C , 12-C ) :   1.0819 B( 12-C , 13-H ) :   0.9734 B( 12-C , 14-H ) :   0.9715
B( 12-C , 15-H ) :   0.9742 B( 16-S , 17-C ) :   1.1623 B( 16-S , 20-C ) :   1.1375
B( 17-C , 18-C ) :   1.5814 B( 17-C , 20-C ) :   0.1033 B( 17-C , 33-H ) :   0.9791
B( 18-C , 19-C ) :   1.2816 B( 18-C , 21-H ) :   0.9828 B( 19-C , 20-C ) :   1.5072
B( 19-C , 22-C ) :   1.0533 B( 22-C , 23-H ) :   0.9358 B( 22-C , 24-H ) :   0.9295
B( 22-C , 25-C ) :   1.0629 B( 25-C , 26-H ) :   0.9609 B( 25-C , 27-H ) :   0.9516
B( 25-C , 28-C ) :   1.0781 B( 28-C , 29-H ) :   0.9769 B( 28-C , 30-H ) :   0.9697
B( 28-C , 31-H ) :   0.9732

Dispersion correction           -0.014476073
FINAL SINGLE POINT ENERGY     -1339.860654961675

DIPOLE MOMENT
-------------
                                X             Y             Z
Electronic contribution:    -10.43031      -3.31638     -18.65403
Nuclear contribution   :     10.71154       2.99957      19.17350
                        -----------------------------------------
Total Dipole Moment    :      0.28123      -0.31681       0.51948
                        -----------------------------------------
Magnitude (a.u.)       :      0.67031
Magnitude (Debye)      :      1.70379

Rotational constants in cm-1:     0.022175     0.007350     0.006283
Rotational constants in MHz :   664.786205   220.345103   188.367004

                             ****ORCA TERMINATED NORMALLY****
TOTAL RUN TIME: 0 days 0 hours 0 minutes 32 seconds 780 msec
