                         Program Version 4.2.1 -  RELEASE  -
|  1> ! wB97X-D3 SP def2-SVP
|  2> %pal
|  3> nprocs 16
|  4> end
|  5>
|  6> * xyz 0 1
|  7> S 	 -56.4572 	 37.7934 	 114.627
|  8> C 	 -56.6989 	 38.7525 	 113.15
|  9> C 	 -55.7354 	 39.7076 	 112.996
| 10> C 	 -54.5474 	 39.525 	 113.824
| 11> C 	 -54.7561 	 38.4209 	 114.724
| 12> H 	 -53.7633 	 40.2317 	 113.825
| 13> C 	 -55.8168 	 40.8088 	 111.97
| 14> H 	 -56.6792 	 40.6361 	 111.331
| 15> H 	 -54.9635 	 40.6635 	 111.249
| 16> C 	 -55.7467 	 42.2891 	 112.487
| 17> H 	 -56.5152 	 42.4144 	 113.285
| 18> H 	 -54.7377 	 42.5036 	 112.986
| 19> C 	 -56.0185 	 43.3164 	 111.34
| 20> H 	 -55.4125 	 43.2316 	 110.453
| 21> H 	 -57.0648 	 43.2812 	 111.138
| 22> H 	 -55.8245 	 44.2847 	 111.602
| 23> S 	 -53.618 	 39.2934 	 117.082
| 24> C 	 -52.5893 	 38.0346 	 117.921
| 25> C 	 -52.6607 	 36.7709 	 117.383
| 26> C 	 -53.4882 	 36.7176 	 116.219
| 27> C 	 -53.968 	 37.9674 	 115.856
| 28> H 	 -52.1183 	 36.0196 	 117.881
| 29> C 	 -53.6453 	 35.4609 	 115.368
| 30> H 	 -52.6295 	 35.0222 	 115.252
| 31> H 	 -53.9039 	 35.7618 	 114.407
| 32> C 	 -54.5539 	 34.3322 	 115.836
| 33> H 	 -54.3896 	 34.0884 	 116.888
| 34> H 	 -54.3702 	 33.4229 	 115.25
| 35> C 	 -55.9971 	 34.6719 	 115.719
| 36> H 	 -56.3573 	 35.4647 	 116.362
| 37> H 	 -56.6971 	 33.8693 	 116.052
| 38> H 	 -56.2511 	 34.8975 	 114.725
| 39> H 	 -57.5482 	 38.5651 	 112.433
| 40> H 	 -51.9492 	 38.1655 	 118.768
| 41> *
| 42>
| 43>                          ****END OF INPUT****

CARTESIAN COORDINATES (ANGSTROEM)
---------------------------------
  S    -56.457200   37.793400  114.627000
  C    -56.698900   38.752500  113.150000
  C    -55.735400   39.707600  112.996000
  C    -54.547400   39.525000  113.824000
  C    -54.756100   38.420900  114.724000
  H    -53.763300   40.231700  113.825000
  C    -55.816800   40.808800  111.970000
  H    -56.679200   40.636100  111.331000
  H    -54.963500   40.663500  111.249000
  C    -55.746700   42.289100  112.487000
  H    -56.515200   42.414400  113.285000
  H    -54.737700   42.503600  112.986000
  C    -56.018500   43.316400  111.340000
  H    -55.412500   43.231600  110.453000
  H    -57.064800   43.281200  111.138000
  H    -55.824500   44.284700  111.602000
  S    -53.618000   39.293400  117.082000
  C    -52.589300   38.034600  117.921000
  C    -52.660700   36.770900  117.383000
  C    -53.488200   36.717600  116.219000
  C    -53.968000   37.967400  115.856000
  H    -52.118300   36.019600  117.881000
  C    -53.645300   35.460900  115.368000
  H    -52.629500   35.022200  115.252000
  H    -53.903900   35.761800  114.407000
  C    -54.553900   34.332200  115.836000
  H    -54.389600   34.088400  116.888000
  H    -54.370200   33.422900  115.250000
  C    -55.997100   34.671900  115.719000
  H    -56.357300   35.464700  116.362000
  H    -56.697100   33.869300  116.052000
  H    -56.251100   34.897500  114.725000
  H    -57.548200   38.565100  112.433000
  H    -51.949200   38.165500  118.768000

 Total Charge           Charge          ....    0
 Multiplicity           Mult            ....    1
 Number of Electrons    NEL             ....  134
 Basis Dimension        Dim             ....  322

ORBITAL ENERGIES
----------------

  NO   OCC          E(Eh)            E(eV)
   0   2.0000     -88.967463     -2420.9278
   1   2.0000     -88.964232     -2420.8398
   2   2.0000     -10.339771      -281.3595
   3   2.0000     -10.330716      -281.1131
   4   2.0000     -10.320686      -280.8401
   5   2.0000     -10.316430      -280.7243
   6   2.0000     -10.308974      -280.5214
   7   2.0000     -10.304087      -280.3885
   8   2.0000     -10.301457      -280.3169
   9   2.0000     -10.300611      -280.2939
  10   2.0000     -10.295028      -280.1419
  11   2.0000     -10.292399      -280.0704
  12   2.0000     -10.286753      -279.9168
  13   2.0000     -10.281921      -279.7853
  14   2.0000     -10.271085      -279.4904
  15   2.0000     -10.261544      -279.2308
  16   2.0000      -8.079679      -219.8593
  17   2.0000      -8.077262      -219.7935
  18   2.0000      -6.038300      -164.3105
  19   2.0000      -6.035896      -164.2451
  20   2.0000      -6.034947      -164.2193
  21   2.0000      -6.032194      -164.1444
  22   2.0000      -6.030045      -164.0859
  23   2.0000      -6.027759      -164.0237
  24   2.0000      -0.991473       -26.9793
  25   2.0000      -0.969570       -26.3833
  26   2.0000      -0.908922       -24.7330
  27   2.0000      -0.901698       -24.5364
  28   2.0000      -0.865926       -23.5630
  29   2.0000      -0.847219       -23.0540
  30   2.0000      -0.842935       -22.9374
  31   2.0000      -0.811399       -22.0793
  32   2.0000      -0.785145       -21.3649
  33   2.0000      -0.767651       -20.8888
  34   2.0000      -0.712513       -19.3885
  35   2.0000      -0.697488       -18.9796
  36   2.0000      -0.689128       -18.7521
  37   2.0000      -0.660626       -17.9766
  38   2.0000      -0.633875       -17.2486
  39   2.0000      -0.615730       -16.7549
  40   2.0000      -0.595177       -16.1956
  41   2.0000      -0.563482       -15.3331
  42   2.0000      -0.557232       -15.1631
  43   2.0000      -0.547199       -14.8900
  44   2.0000      -0.544578       -14.8187
  45   2.0000      -0.520711       -14.1693
  46   2.0000      -0.513546       -13.9743
  47   2.0000      -0.511382       -13.9154
  48   2.0000      -0.507560       -13.8114
  49   2.0000      -0.496024       -13.4975
  50   2.0000      -0.484763       -13.1911
  51   2.0000      -0.473067       -12.8728
  52   2.0000      -0.466343       -12.6898
  53   2.0000      -0.460643       -12.5347
  54   2.0000      -0.452085       -12.3019
  55   2.0000      -0.450245       -12.2518
  56   2.0000      -0.445471       -12.1219
  57   2.0000      -0.431027       -11.7288
  58   2.0000      -0.430434       -11.7127
  59   2.0000      -0.426011       -11.5924
  60   2.0000      -0.420321       -11.4375
  61   2.0000      -0.417596       -11.3634
  62   2.0000      -0.409829       -11.1520
  63   2.0000      -0.335867        -9.1394
  64   2.0000      -0.328889        -8.9495
  65   2.0000      -0.321779        -8.7560
  66   2.0000      -0.296593        -8.0707
  67   0.0000       0.020343         0.5536
  68   0.0000       0.060767         1.6536
  69   0.0000       0.088184         2.3996
  70   0.0000       0.104284         2.8377
  71   0.0000       0.120867         3.2890

MULLIKEN ATOMIC CHARGES
-----------------------
   0 S :    0.094838
   1 C :   -0.145176
   2 C :   -0.079339
   3 C :    0.062095
   4 C :   -0.157101
   5 H :    0.006592
   6 C :    0.041047
   7 H :    0.010528
   8 H :    0.035676
   9 C :   -0.117595
  10 H :    0.043183
  11 H :    0.042073
  12 C :    0.003251
  13 H :    0.025869
  14 H :    0.028233
  15 H :    0.006213
  16 S :    0.093796
  17 C :   -0.071356
  18 C :   -0.025923
  19 C :    0.001261
  20 C :   -0.168638
  21 H :    0.005695
  22 C :    0.077920
  23 H :    0.029260
  24 H :    0.007688
  25 C :   -0.033206
  26 H :    0.020677
  27 H :    0.031935
  28 C :   -0.050571
  29 H :    0.029926
  30 H :    0.023187
  31 H :    0.015881
  32 H :    0.070272
  33 H :    0.041806
Sum of atomic charges:   -0.0000000

LOEWDIN ATOMIC CHARGES
----------------------
   0 S :    0.392217
   1 C :   -0.199190
   2 C :   -0.066819
   3 C :   -0.046909
   4 C :   -0.170517
   5 H :    0.025267
   6 C :   -0.040279
   7 H :    0.025572
   8 H :    0.034995
   9 C :   -0.039563
  10 H :    0.028636
  11 H :    0.027662
  12 C :   -0.058801
  13 H :    0.026104
  14 H :    0.025676
  15 H :    0.015413
  16 S :    0.336606
  17 C :   -0.148787
  18 C :   -0.062668
  19 C :   -0.043382
  20 C :   -0.178151
  21 H :    0.028125
  22 C :   -0.025494
  23 H :    0.037810
  24 H :    0.020090
  25 C :   -0.038656
  26 H :    0.023261
  27 H :    0.029358
  28 C :   -0.074451
  29 H :    0.017541
  30 H :    0.028847
  31 H :    0.007508
  32 H :    0.039223
  33 H :    0.023757

  Mayer bond orders larger than 0.100000
B(  0-S ,  1-C ) :   1.1175 B(  0-S ,  4-C ) :   1.1416 B(  1-C ,  2-C ) :   1.6379
B(  1-C , 32-H ) :   0.9581 B(  2-C ,  3-C ) :   1.2116 B(  2-C ,  6-C ) :   1.0368
B(  3-C ,  4-C ) :   1.5536 B(  3-C ,  5-H ) :   1.0001 B(  4-C , 20-C ) :   1.0660
B(  6-C ,  7-H ) :   0.9470 B(  6-C ,  8-H ) :   0.9383 B(  6-C ,  9-C ) :   1.0409
B(  9-C , 10-H ) :   0.9601 B(  9-C , 11-H ) :   0.9567 B(  9-C , 12-C ) :   1.0781
B( 12-C , 13-H ) :   0.9747 B( 12-C , 14-H ) :   0.9756 B( 12-C , 15-H ) :   0.9718
B( 16-S , 17-C ) :   1.1119 B( 16-S , 20-C ) :   1.0974 B( 17-C , 18-C ) :   1.6911
B( 17-C , 33-H ) :   0.9627 B( 18-C , 19-C ) :   1.1782 B( 18-C , 21-H ) :   0.9933
B( 19-C , 20-C ) :   1.6245 B( 19-C , 22-C ) :   1.0406 B( 22-C , 23-H ) :   0.9357
B( 22-C , 24-H ) :   0.9321 B( 22-C , 25-C ) :   1.0696 B( 25-C , 26-H ) :   0.9552
B( 25-C , 27-H ) :   0.9506 B( 25-C , 28-C ) :   1.0903 B( 28-C , 29-H ) :   0.9704
B( 28-C , 30-H ) :   0.9658 B( 28-C , 31-H ) :   0.9697

Dispersion correction           -0.014630595
FINAL SINGLE POINT ENERGY     -1339.855341221859

DIPOLE MOMENT
-------------
                                X             Y             Z
Electronic contribution:      4.05257      -1.20047      13.28752
Nuclear contribution   :     -3.90799       1.19133     -13.55389
                        -----------------------------------------
Total Dipole Moment    :      0.14458      -0.00914      -0.26637
                        -----------------------------------------
Magnitude (a.u.)       :      0.30322
Magnitude (Debye)      :      0.77072

Rotational constants in cm-1:     0.022812     0.007858     0.006303
Rotational constants in MHz :   683.891247   235.589654   188.945686

                             ****ORCA TERMINATED NORMALLY****
TOTAL RUN TIME: 0 days 0 hours 0 minutes 31 seconds 95 msec
