                         Program Version 4.2.1 -  RELEASE  -
|  1> ! wB97X-D3 SP def2-SVP
|  2> %pal
|  3> nprocs 16
|  4> end
|  5>
|  6> * xyz 0 1
|  7> S 	 -8.74208 	 34.2374 	 53.7822
|  8> C 	 -7.66592 	 33.4789 	 54.9828
|  9> C 	 -6.74206 	 32.667 	 54.3694
| 10> C 	 -6.75547 	 32.8692 	 52.9749
| 11> C 	 -7.71621 	 33.736 	 52.5101
| 12> H 	 -6.06942 	 32.3926 	 52.2992
| 13> C 	 -5.82896 	 31.6912 	 55.0337
| 14> H 	 -5.73418 	 30.7784 	 54.4271
| 15> H 	 -6.37049 	 31.3202 	 55.887
| 16> C 	 -4.42005 	 32.2125 	 55.5338
| 17> H 	 -3.89943 	 31.41 	 56.1028
| 18> H 	 -3.86661 	 32.6082 	 54.6826
| 19> C 	 -4.56107 	 33.3291 	 56.6057
| 20> H 	 -4.88706 	 32.8586 	 57.5249
| 21> H 	 -3.55382 	 33.7319 	 56.77
| 22> H 	 -5.28026 	 34.0777 	 56.3136
| 23> S 	 -7.96227 	 35.9591 	 50.8952
| 24> C 	 -8.383 	 35.7977 	 49.2546
| 25> C 	 -8.38074 	 34.4513 	 48.9578
| 26> C 	 -7.84446 	 33.575 	 49.9425
| 27> C 	 -7.87583 	 34.2445 	 51.1782
| 28> H 	 -8.64901 	 34.1693 	 47.9452
| 29> C 	 -7.6238 	 32.1279 	 49.7195
| 30> H 	 -8.39369 	 31.4905 	 50.2464
| 31> H 	 -6.61851 	 31.9351 	 50.172
| 32> C 	 -7.51851 	 31.5634 	 48.3294
| 33> H 	 -7.10016 	 32.3557 	 47.6847
| 34> H 	 -8.62684 	 31.3091 	 48.1156
| 35> C 	 -6.53559 	 30.2862 	 48.2944
| 36> H 	 -6.90757 	 29.4554 	 48.839
| 37> H 	 -5.52779 	 30.447 	 48.7712
| 38> H 	 -6.36509 	 29.9018 	 47.2843
| 39> H 	 -7.90032 	 33.3797 	 56.0882
| 40> H 	 -8.76697 	 36.601 	 48.6075
| 41> *
| 42>
| 43>                          ****END OF INPUT****

CARTESIAN COORDINATES (ANGSTROEM)
---------------------------------
  S     -8.742080   34.237400   53.782200
  C     -7.665920   33.478900   54.982800
  C     -6.742060   32.667000   54.369400
  C     -6.755470   32.869200   52.974900
  C     -7.716210   33.736000   52.510100
  H     -6.069420   32.392600   52.299200
  C     -5.828960   31.691200   55.033700
  H     -5.734180   30.778400   54.427100
  H     -6.370490   31.320200   55.887000
  C     -4.420050   32.212500   55.533800
  H     -3.899430   31.410000   56.102800
  H     -3.866610   32.608200   54.682600
  C     -4.561070   33.329100   56.605700
  H     -4.887060   32.858600   57.524900
  H     -3.553820   33.731900   56.770000
  H     -5.280260   34.077700   56.313600
  S     -7.962270   35.959100   50.895200
  C     -8.383000   35.797700   49.254600
  C     -8.380740   34.451300   48.957800
  C     -7.844460   33.575000   49.942500
  C     -7.875830   34.244500   51.178200
  H     -8.649010   34.169300   47.945200
  C     -7.623800   32.127900   49.719500
  H     -8.393690   31.490500   50.246400
  H     -6.618510   31.935100   50.172000
  C     -7.518510   31.563400   48.329400
  H     -7.100160   32.355700   47.684700
  H     -8.626840   31.309100   48.115600
  C     -6.535590   30.286200   48.294400
  H     -6.907570   29.455400   48.839000
  H     -5.527790   30.447000   48.771200
  H     -6.365090   29.901800   47.284300
  H     -7.900320   33.379700   56.088200
  H     -8.766970   36.601000   48.607500

 Total Charge           Charge          ....    0
 Multiplicity           Mult            ....    1
 Number of Electrons    NEL             ....  134
 Basis Dimension        Dim             ....  322

ORBITAL ENERGIES
----------------

  NO   OCC          E(Eh)            E(eV)
   0   2.0000     -88.967123     -2420.9185
   1   2.0000     -88.962762     -2420.7998
   2   2.0000     -10.323914      -280.9280
   3   2.0000     -10.323480      -280.9162
   4   2.0000     -10.318033      -280.7680
   5   2.0000     -10.312102      -280.6066
   6   2.0000     -10.303098      -280.3615
   7   2.0000     -10.301708      -280.3237
   8   2.0000     -10.298311      -280.2313
   9   2.0000     -10.293448      -280.0989
  10   2.0000     -10.293333      -280.0958
  11   2.0000     -10.292782      -280.0808
  12   2.0000     -10.289957      -280.0040
  13   2.0000     -10.288302      -279.9589
  14   2.0000     -10.287515      -279.9375
  15   2.0000     -10.273781      -279.5638
  16   2.0000      -8.082074      -219.9244
  17   2.0000      -8.078469      -219.8263
  18   2.0000      -6.040618      -164.3736
  19   2.0000      -6.036903      -164.2725
  20   2.0000      -6.036572      -164.2635
  21   2.0000      -6.032744      -164.1593
  22   2.0000      -6.032680      -164.1576
  23   2.0000      -6.029389      -164.0680
  24   2.0000      -1.014335       -27.6015
  25   2.0000      -0.990902       -26.9638
  26   2.0000      -0.913503       -24.8577
  27   2.0000      -0.910517       -24.7764
  28   2.0000      -0.868912       -23.6443
  29   2.0000      -0.850791       -23.1512
  30   2.0000      -0.842427       -22.9236
  31   2.0000      -0.810894       -22.0656
  32   2.0000      -0.784889       -21.3579
  33   2.0000      -0.775928       -21.1141
  34   2.0000      -0.710169       -19.3247
  35   2.0000      -0.699463       -19.0334
  36   2.0000      -0.692631       -18.8475
  37   2.0000      -0.646850       -17.6017
  38   2.0000      -0.634600       -17.2683
  39   2.0000      -0.623245       -16.9594
  40   2.0000      -0.602095       -16.3838
  41   2.0000      -0.575427       -15.6582
  42   2.0000      -0.570539       -15.5251
  43   2.0000      -0.549216       -14.9449
  44   2.0000      -0.542137       -14.7523
  45   2.0000      -0.522546       -14.2192
  46   2.0000      -0.517152       -14.0724
  47   2.0000      -0.509259       -13.8576
  48   2.0000      -0.501929       -13.6582
  49   2.0000      -0.493583       -13.4311
  50   2.0000      -0.487808       -13.2739
  51   2.0000      -0.482295       -13.1239
  52   2.0000      -0.468945       -12.7606
  53   2.0000      -0.468248       -12.7417
  54   2.0000      -0.460933       -12.5426
  55   2.0000      -0.446743       -12.1565
  56   2.0000      -0.443906       -12.0793
  57   2.0000      -0.434554       -11.8248
  58   2.0000      -0.432272       -11.7627
  59   2.0000      -0.428492       -11.6599
  60   2.0000      -0.420022       -11.4294
  61   2.0000      -0.416738       -11.3400
  62   2.0000      -0.413198       -11.2437
  63   2.0000      -0.345651        -9.4056
  64   2.0000      -0.333821        -9.0837
  65   2.0000      -0.325574        -8.8593
  66   2.0000      -0.287739        -7.8298
  67   0.0000       0.023927         0.6511
  68   0.0000       0.074209         2.0193
  69   0.0000       0.105571         2.8727
  70   0.0000       0.118871         3.2346
  71   0.0000       0.138117         3.7583

MULLIKEN ATOMIC CHARGES
-----------------------
   0 S :    0.123485
   1 C :   -0.152008
   2 C :   -0.088692
   3 C :    0.028562
   4 C :   -0.154453
   5 H :   -0.004057
   6 C :    0.061247
   7 H :    0.031097
   8 H :    0.008203
   9 C :   -0.071613
  10 H :    0.041242
  11 H :    0.038337
  12 C :   -0.062364
  13 H :    0.020834
  14 H :    0.038695
  15 H :    0.043886
  16 S :    0.121740
  17 C :   -0.098035
  18 C :   -0.056479
  19 C :   -0.015276
  20 C :   -0.152573
  21 H :    0.017445
  22 C :    0.013517
  23 H :    0.057535
  24 H :    0.029937
  25 C :   -0.101780
  26 H :    0.045328
  27 H :    0.053520
  28 C :   -0.062948
  29 H :    0.024933
  30 H :    0.041007
  31 H :    0.039202
  32 H :    0.069362
  33 H :    0.071161
Sum of atomic charges:    0.0000000

LOEWDIN ATOMIC CHARGES
----------------------
   0 S :    0.417495
   1 C :   -0.202269
   2 C :   -0.066522
   3 C :   -0.060417
   4 C :   -0.206199
   5 H :    0.024769
   6 C :   -0.037013
   7 H :    0.034266
   8 H :    0.026993
   9 C :   -0.033596
  10 H :    0.030595
  11 H :    0.022282
  12 C :   -0.064940
  13 H :    0.020320
  14 H :    0.029130
  15 H :    0.021919
  16 S :    0.434766
  17 C :   -0.215496
  18 C :   -0.077000
  19 C :   -0.056778
  20 C :   -0.204654
  21 H :    0.026982
  22 C :   -0.050651
  23 H :    0.043540
  24 H :    0.033374
  25 C :   -0.044824
  26 H :    0.026406
  27 H :    0.038405
  28 C :   -0.069360
  29 H :    0.019660
  30 H :    0.031898
  31 H :    0.027711
  32 H :    0.039762
  33 H :    0.039444

  Mayer bond orders larger than 0.100000
B(  0-S ,  1-C ) :   1.1331 B(  0-S ,  4-C ) :   1.1649 B(  1-C ,  2-C ) :   1.5972
B(  1-C , 32-H ) :   0.9542 B(  2-C ,  3-C ) :   1.2631 B(  2-C ,  6-C ) :   1.0260
B(  3-C ,  4-C ) :   1.5467 B(  3-C ,  5-H ) :   0.9970 B(  4-C , 20-C ) :   1.0654
B(  6-C ,  7-H ) :   0.9421 B(  6-C ,  8-H ) :   0.9338 B(  6-C ,  9-C ) :   1.0607
B(  9-C , 10-H ) :   0.9585 B(  9-C , 11-H ) :   0.9615 B(  9-C , 12-C ) :   1.0718
B( 12-C , 13-H ) :   0.9781 B( 12-C , 14-H ) :   0.9745 B( 12-C , 15-H ) :   0.9753
B( 16-S , 17-C ) :   1.1627 B( 16-S , 20-C ) :   1.1730 B( 17-C , 18-C ) :   1.5787
B( 17-C , 20-C ) :   0.1075 B( 17-C , 33-H ) :   0.9650 B( 18-C , 19-C ) :   1.2701
B( 18-C , 21-H ) :   0.9829 B( 19-C , 20-C ) :   1.5259 B( 19-C , 22-C ) :   1.0569
B( 22-C , 23-H ) :   0.9264 B( 22-C , 24-H ) :   0.9279 B( 22-C , 25-C ) :   1.0646
B( 25-C , 26-H ) :   0.9575 B( 25-C , 27-H ) :   0.9525 B( 25-C , 28-C ) :   1.0706
B( 28-C , 29-H ) :   0.9773 B( 28-C , 30-H ) :   0.9730 B( 28-C , 31-H ) :   0.9778

Dispersion correction           -0.013836106
FINAL SINGLE POINT ENERGY     -1339.866134545499

DIPOLE MOMENT
-------------
                                X             Y             Z
Electronic contribution:    -15.53958      20.51836      -0.44027
Nuclear contribution   :     15.78031     -21.18000       0.30678
                        -----------------------------------------
Total Dipole Moment    :      0.24073      -0.66164      -0.13349
                        -----------------------------------------
Magnitude (a.u.)       :      0.71662
Magnitude (Debye)      :      1.82150

Rotational constants in cm-1:     0.018357     0.008294     0.006387
Rotational constants in MHz :   550.330360   248.662512   191.489694

                             ****ORCA TERMINATED NORMALLY****
TOTAL RUN TIME: 0 days 0 hours 0 minutes 34 seconds 527 msec
