                         Program Version 4.2.1 -  RELEASE  -
|  1> ! wB97X-D3 SP def2-SVP
|  2> %pal
|  3> nprocs 16
|  4> end
|  5>
|  6> * xyz 0 1
|  7> S 	 -9.13166 	 68.6453 	 54.6843
|  8> C 	 -9.27784 	 67.384 	 55.8334
|  9> C 	 -9.97003 	 66.347 	 55.3075
| 10> C 	 -10.2196 	 66.4565 	 53.8935
| 11> C 	 -9.83152 	 67.6532 	 53.3972
| 12> H 	 -10.6582 	 65.7002 	 53.3227
| 13> C 	 -10.3434 	 65.1562 	 56.1248
| 14> H 	 -9.85035 	 65.3042 	 57.102
| 15> H 	 -9.98845 	 64.1614 	 55.6861
| 16> C 	 -11.8472 	 65.0168 	 56.4971
| 17> H 	 -12.2165 	 65.8698 	 57.0737
| 18> H 	 -12.4335 	 65.0205 	 55.5569
| 19> C 	 -12.2686 	 63.8083 	 57.3557
| 20> H 	 -13.3892 	 63.7003 	 57.4071
| 21> H 	 -11.9118 	 62.8619 	 56.9664
| 22> H 	 -11.8111 	 63.8733 	 58.3736
| 23> S 	 -10.6179 	 69.8227 	 51.942
| 24> C 	 -10.5297 	 69.8564 	 50.2212
| 25> C 	 -10.2665 	 68.6121 	 49.7321
| 26> C 	 -9.78769 	 67.7595 	 50.7758
| 27> C 	 -10.0489 	 68.2144 	 52.0823
| 28> H 	 -10.2157 	 68.414 	 48.6589
| 29> C 	 -9.28401 	 66.422 	 50.322
| 30> H 	 -9.81955 	 66.0918 	 49.448
| 31> H 	 -9.33237 	 65.5616 	 51.0973
| 32> C 	 -7.839 	 66.3012 	 49.88
| 33> H 	 -7.2121 	 66.608 	 50.713
| 34> H 	 -7.70139 	 67.1981 	 49.2098
| 35> C 	 -7.40176 	 64.9661 	 49.2295
| 36> H 	 -7.68497 	 64.0665 	 49.8115
| 37> H 	 -6.3496 	 65.0449 	 48.9668
| 38> H 	 -8.01767 	 64.829 	 48.2334
| 39> H 	 -9.01416 	 67.4067 	 56.8401
| 40> H 	 -10.8434 	 70.713 	 49.6286
| 41> *
| 42>
| 43>                          ****END OF INPUT****

CARTESIAN COORDINATES (ANGSTROEM)
---------------------------------
  S     -9.131660   68.645300   54.684300
  C     -9.277840   67.384000   55.833400
  C     -9.970030   66.347000   55.307500
  C    -10.219600   66.456500   53.893500
  C     -9.831520   67.653200   53.397200
  H    -10.658200   65.700200   53.322700
  C    -10.343400   65.156200   56.124800
  H     -9.850350   65.304200   57.102000
  H     -9.988450   64.161400   55.686100
  C    -11.847200   65.016800   56.497100
  H    -12.216500   65.869800   57.073700
  H    -12.433500   65.020500   55.556900
  C    -12.268600   63.808300   57.355700
  H    -13.389200   63.700300   57.407100
  H    -11.911800   62.861900   56.966400
  H    -11.811100   63.873300   58.373600
  S    -10.617900   69.822700   51.942000
  C    -10.529700   69.856400   50.221200
  C    -10.266500   68.612100   49.732100
  C     -9.787690   67.759500   50.775800
  C    -10.048900   68.214400   52.082300
  H    -10.215700   68.414000   48.658900
  C     -9.284010   66.422000   50.322000
  H     -9.819550   66.091800   49.448000
  H     -9.332370   65.561600   51.097300
  C     -7.839000   66.301200   49.880000
  H     -7.212100   66.608000   50.713000
  H     -7.701390   67.198100   49.209800
  C     -7.401760   64.966100   49.229500
  H     -7.684970   64.066500   49.811500
  H     -6.349600   65.044900   48.966800
  H     -8.017670   64.829000   48.233400
  H     -9.014160   67.406700   56.840100
  H    -10.843400   70.713000   49.628600

 Total Charge           Charge          ....    0
 Multiplicity           Mult            ....    1
 Number of Electrons    NEL             ....  134
 Basis Dimension        Dim             ....  322

ORBITAL ENERGIES
----------------

  NO   OCC          E(Eh)            E(eV)
   0   2.0000     -88.965100     -2420.8634
   1   2.0000     -88.964363     -2420.8434
   2   2.0000     -10.330950      -281.1194
   3   2.0000     -10.328375      -281.0494
   4   2.0000     -10.316271      -280.7200
   5   2.0000     -10.306531      -280.4550
   6   2.0000     -10.305585      -280.4292
   7   2.0000     -10.298051      -280.2242
   8   2.0000     -10.296400      -280.1793
   9   2.0000     -10.294787      -280.1354
  10   2.0000     -10.292746      -280.0799
  11   2.0000     -10.290488      -280.0184
  12   2.0000     -10.290145      -280.0091
  13   2.0000     -10.289023      -279.9786
  14   2.0000     -10.284995      -279.8689
  15   2.0000     -10.284315      -279.8504
  16   2.0000      -8.081154      -219.8994
  17   2.0000      -8.079721      -219.8604
  18   2.0000      -6.039562      -164.3448
  19   2.0000      -6.038305      -164.3106
  20   2.0000      -6.035347      -164.2301
  21   2.0000      -6.034132      -164.1971
  22   2.0000      -6.032047      -164.1403
  23   2.0000      -6.030357      -164.0943
  24   2.0000      -1.016777       -27.6679
  25   2.0000      -0.995362       -27.0852
  26   2.0000      -0.910599       -24.7787
  27   2.0000      -0.907941       -24.7063
  28   2.0000      -0.877434       -23.8762
  29   2.0000      -0.852295       -23.1921
  30   2.0000      -0.845797       -23.0153
  31   2.0000      -0.824428       -22.4338
  32   2.0000      -0.778604       -21.1869
  33   2.0000      -0.768905       -20.9230
  34   2.0000      -0.711938       -19.3728
  35   2.0000      -0.692760       -18.8510
  36   2.0000      -0.687269       -18.7015
  37   2.0000      -0.666020       -18.1233
  38   2.0000      -0.647490       -17.6191
  39   2.0000      -0.628361       -17.0986
  40   2.0000      -0.603097       -16.4111
  41   2.0000      -0.573432       -15.6039
  42   2.0000      -0.560222       -15.2444
  43   2.0000      -0.554081       -15.0773
  44   2.0000      -0.524841       -14.2817
  45   2.0000      -0.523670       -14.2498
  46   2.0000      -0.519469       -14.1355
  47   2.0000      -0.515110       -14.0169
  48   2.0000      -0.505813       -13.7639
  49   2.0000      -0.505509       -13.7556
  50   2.0000      -0.503233       -13.6937
  51   2.0000      -0.481206       -13.0943
  52   2.0000      -0.469889       -12.7863
  53   2.0000      -0.463338       -12.6081
  54   2.0000      -0.458689       -12.4816
  55   2.0000      -0.455865       -12.4047
  56   2.0000      -0.447811       -12.1855
  57   2.0000      -0.429879       -11.6976
  58   2.0000      -0.428719       -11.6660
  59   2.0000      -0.424271       -11.5450
  60   2.0000      -0.419401       -11.4125
  61   2.0000      -0.412956       -11.2371
  62   2.0000      -0.400414       -10.8958
  63   2.0000      -0.358026        -9.7424
  64   2.0000      -0.331969        -9.0333
  65   2.0000      -0.328173        -8.9300
  66   2.0000      -0.293595        -7.9891
  67   0.0000       0.030502         0.8300
  68   0.0000       0.074338         2.0228
  69   0.0000       0.108568         2.9543
  70   0.0000       0.121122         3.2959
  71   0.0000       0.134743         3.6666

MULLIKEN ATOMIC CHARGES
-----------------------
   0 S :    0.108084
   1 C :   -0.076964
   2 C :   -0.085836
   3 C :    0.059422
   4 C :   -0.124613
   5 H :   -0.007354
   6 C :    0.038175
   7 H :    0.011178
   8 H :    0.043390
   9 C :   -0.089799
  10 H :    0.030339
  11 H :    0.028300
  12 C :   -0.061773
  13 H :    0.049065
  14 H :    0.019156
  15 H :    0.035917
  16 S :    0.106193
  17 C :   -0.092452
  18 C :   -0.028225
  19 C :   -0.031068
  20 C :   -0.130619
  21 H :    0.034286
  22 C :    0.019425
  23 H :    0.012275
  24 H :    0.026687
  25 C :   -0.096410
  26 H :    0.026773
  27 H :    0.014978
  28 C :   -0.057170
  29 H :    0.043875
  30 H :    0.052824
  31 H :    0.035157
  32 H :    0.023188
  33 H :    0.063597
Sum of atomic charges:   -0.0000000

LOEWDIN ATOMIC CHARGES
----------------------
   0 S :    0.406888
   1 C :   -0.191200
   2 C :   -0.066533
   3 C :   -0.047097
   4 C :   -0.180216
   5 H :    0.024101
   6 C :   -0.038039
   7 H :    0.028944
   8 H :    0.036614
   9 C :   -0.048028
  10 H :    0.025720
  11 H :    0.022202
  12 C :   -0.072455
  13 H :    0.035832
  14 H :    0.017501
  15 H :    0.027857
  16 S :    0.435463
  17 C :   -0.190309
  18 C :   -0.070458
  19 C :   -0.058790
  20 C :   -0.212291
  21 H :    0.036863
  22 C :   -0.044211
  23 H :    0.024651
  24 H :    0.031297
  25 C :   -0.053474
  26 H :    0.021087
  27 H :    0.022149
  28 C :   -0.070746
  29 H :    0.028346
  30 H :    0.031513
  31 H :    0.034587
  32 H :    0.019954
  33 H :    0.032280

  Mayer bond orders larger than 0.100000
B(  0-S ,  1-C ) :   1.1278 B(  0-S ,  4-C ) :   1.1375 B(  1-C ,  2-C ) :   1.6369
B(  1-C , 32-H ) :   0.9706 B(  2-C ,  3-C ) :   1.2100 B(  2-C ,  6-C ) :   1.0433
B(  3-C ,  4-C ) :   1.5876 B(  3-C ,  5-H ) :   1.0106 B(  4-C , 20-C ) :   1.0502
B(  6-C ,  7-H ) :   0.9372 B(  6-C ,  8-H ) :   0.9409 B(  6-C ,  9-C ) :   1.0536
B(  9-C , 10-H ) :   0.9554 B(  9-C , 11-H ) :   0.9579 B(  9-C , 12-C ) :   1.0825
B( 12-C , 13-H ) :   0.9737 B( 12-C , 14-H ) :   0.9742 B( 12-C , 15-H ) :   0.9745
B( 16-S , 17-C ) :   1.1743 B( 16-S , 20-C ) :   1.1497 B( 17-C , 18-C ) :   1.5842
B( 17-C , 33-H ) :   0.9663 B( 18-C , 19-C ) :   1.2577 B( 18-C , 21-H ) :   0.9842
B( 19-C , 20-C ) :   1.5615 B( 19-C , 22-C ) :   1.0531 B( 22-C , 23-H ) :   0.9353
B( 22-C , 24-H ) :   0.9404 B( 22-C , 25-C ) :   1.0581 B( 25-C , 26-H ) :   0.9514
B( 25-C , 27-H ) :   0.9512 B( 25-C , 28-C ) :   1.0724 B( 28-C , 29-H ) :   0.9738
B( 28-C , 30-H ) :   0.9729 B( 28-C , 31-H ) :   0.9705

Dispersion correction           -0.013216891
FINAL SINGLE POINT ENERGY     -1339.877510463196

DIPOLE MOMENT
-------------
                                X             Y             Z
Electronic contribution:     -0.02474      26.52347       0.04168
Nuclear contribution   :     -0.07288     -27.01018      -0.19605
                        -----------------------------------------
Total Dipole Moment    :     -0.09762      -0.48671      -0.15437
                        -----------------------------------------
Magnitude (a.u.)       :      0.51985
Magnitude (Debye)      :      1.32135

Rotational constants in cm-1:     0.018089     0.007614     0.006284
Rotational constants in MHz :   542.305500   228.253564   188.383997

                             ****ORCA TERMINATED NORMALLY****
TOTAL RUN TIME: 0 days 0 hours 0 minutes 32 seconds 651 msec
