                         Program Version 4.2.1 -  RELEASE  -
|  1> ! wB97X-D3 SP def2-SVP
|  2> %pal
|  3> nprocs 16
|  4> end
|  5>
|  6> * xyz 0 1
|  7> S 	 12.8881 	 -14.5378 	 79.4069
|  8> C 	 13.441 	 -13.1422 	 80.3602
|  9> C 	 14.4728 	 -12.5112 	 79.6961
| 10> C 	 14.6839 	 -12.968 	 78.3904
| 11> C 	 13.9854 	 -14.121 	 78.0954
| 12> H 	 15.4259 	 -12.5716 	 77.7287
| 13> C 	 15.2112 	 -11.3754 	 80.3434
| 14> H 	 15.1764 	 -11.4818 	 81.4137
| 15> H 	 14.6016 	 -10.4883 	 80.1811
| 16> C 	 16.7032 	 -11.0238 	 79.9751
| 17> H 	 17.2018 	 -11.9969 	 80.0369
| 18> H 	 16.8106 	 -10.6362 	 78.9893
| 19> C 	 17.328 	 -9.95436 	 80.9069
| 20> H 	 16.8095 	 -8.97041 	 80.8295
| 21> H 	 17.6762 	 -10.1386 	 81.8753
| 22> H 	 18.2313 	 -9.62644 	 80.3176
| 23> S 	 14.1907 	 -16.5603 	 76.9843
| 24> C 	 14.4253 	 -16.819 	 75.2552
| 25> C 	 14.1331 	 -15.6051 	 74.6497
| 26> C 	 13.9982 	 -14.4711 	 75.4936
| 27> C 	 13.9847 	 -14.867 	 76.8436
| 28> H 	 14.0359 	 -15.5955 	 73.5824
| 29> C 	 13.8744 	 -13.0431 	 74.9666
| 30> H 	 14.693 	 -12.8476 	 74.2654
| 31> H 	 13.7527 	 -12.3176 	 75.7715
| 32> C 	 12.6577 	 -12.8588 	 74.0733
| 33> H 	 11.8191 	 -13.2217 	 74.6618
| 34> H 	 12.7504 	 -13.6081 	 73.3074
| 35> C 	 12.3061 	 -11.4327 	 73.5856
| 36> H 	 12.3426 	 -10.6328 	 74.2647
| 37> H 	 11.3912 	 -11.4118 	 73.1011
| 38> H 	 13.1571 	 -11.2121 	 72.8679
| 39> H 	 13.0779 	 -12.7141 	 81.2945
| 40> H 	 14.5493 	 -17.7605 	 74.8016
| 41> *
| 42>
| 43>                          ****END OF INPUT****

CARTESIAN COORDINATES (ANGSTROEM)
---------------------------------
  S     12.888100  -14.537800   79.406900
  C     13.441000  -13.142200   80.360200
  C     14.472800  -12.511200   79.696100
  C     14.683900  -12.968000   78.390400
  C     13.985400  -14.121000   78.095400
  H     15.425900  -12.571600   77.728700
  C     15.211200  -11.375400   80.343400
  H     15.176400  -11.481800   81.413700
  H     14.601600  -10.488300   80.181100
  C     16.703200  -11.023800   79.975100
  H     17.201800  -11.996900   80.036900
  H     16.810600  -10.636200   78.989300
  C     17.328000   -9.954360   80.906900
  H     16.809500   -8.970410   80.829500
  H     17.676200  -10.138600   81.875300
  H     18.231300   -9.626440   80.317600
  S     14.190700  -16.560300   76.984300
  C     14.425300  -16.819000   75.255200
  C     14.133100  -15.605100   74.649700
  C     13.998200  -14.471100   75.493600
  C     13.984700  -14.867000   76.843600
  H     14.035900  -15.595500   73.582400
  C     13.874400  -13.043100   74.966600
  H     14.693000  -12.847600   74.265400
  H     13.752700  -12.317600   75.771500
  C     12.657700  -12.858800   74.073300
  H     11.819100  -13.221700   74.661800
  H     12.750400  -13.608100   73.307400
  C     12.306100  -11.432700   73.585600
  H     12.342600  -10.632800   74.264700
  H     11.391200  -11.411800   73.101100
  H     13.157100  -11.212100   72.867900
  H     13.077900  -12.714100   81.294500
  H     14.549300  -17.760500   74.801600

 Total Charge           Charge          ....    0
 Multiplicity           Mult            ....    1
 Number of Electrons    NEL             ....  134
 Basis Dimension        Dim             ....  322

ORBITAL ENERGIES
----------------

  NO   OCC          E(Eh)            E(eV)
   0   2.0000     -88.968658     -2420.9603
   1   2.0000     -88.962720     -2420.7987
   2   2.0000     -10.331573      -281.1364
   3   2.0000     -10.327775      -281.0331
   4   2.0000     -10.317403      -280.7508
   5   2.0000     -10.312587      -280.6198
   6   2.0000     -10.306437      -280.4524
   7   2.0000     -10.296212      -280.1742
   8   2.0000     -10.295141      -280.1450
   9   2.0000     -10.293770      -280.1077
  10   2.0000     -10.291853      -280.0556
  11   2.0000     -10.290081      -280.0073
  12   2.0000     -10.287846      -279.9465
  13   2.0000     -10.283886      -279.8388
  14   2.0000     -10.280387      -279.7435
  15   2.0000     -10.276049      -279.6255
  16   2.0000      -8.082474      -219.9353
  17   2.0000      -8.078130      -219.8171
  18   2.0000      -6.041112      -164.3870
  19   2.0000      -6.037085      -164.2774
  20   2.0000      -6.036603      -164.2643
  21   2.0000      -6.033165      -164.1708
  22   2.0000      -6.032391      -164.1497
  23   2.0000      -6.029013      -164.0578
  24   2.0000      -1.009253       -27.4632
  25   2.0000      -0.985596       -26.8194
  26   2.0000      -0.912159       -24.8211
  27   2.0000      -0.907219       -24.6867
  28   2.0000      -0.871530       -23.7155
  29   2.0000      -0.850611       -23.1463
  30   2.0000      -0.845509       -23.0075
  31   2.0000      -0.819458       -22.2986
  32   2.0000      -0.785041       -21.3620
  33   2.0000      -0.774236       -21.0680
  34   2.0000      -0.715875       -19.4800
  35   2.0000      -0.699053       -19.0222
  36   2.0000      -0.694746       -18.9050
  37   2.0000      -0.660514       -17.9735
  38   2.0000      -0.638180       -17.3658
  39   2.0000      -0.623901       -16.9772
  40   2.0000      -0.601674       -16.3724
  41   2.0000      -0.573037       -15.5931
  42   2.0000      -0.571801       -15.5595
  43   2.0000      -0.564427       -15.3588
  44   2.0000      -0.529599       -14.4111
  45   2.0000      -0.520384       -14.1604
  46   2.0000      -0.518797       -14.1172
  47   2.0000      -0.509450       -13.8628
  48   2.0000      -0.505650       -13.7594
  49   2.0000      -0.500382       -13.6161
  50   2.0000      -0.497280       -13.5317
  51   2.0000      -0.481450       -13.1009
  52   2.0000      -0.479714       -13.0537
  53   2.0000      -0.472463       -12.8564
  54   2.0000      -0.458615       -12.4795
  55   2.0000      -0.453778       -12.3479
  56   2.0000      -0.446856       -12.1596
  57   2.0000      -0.437588       -11.9074
  58   2.0000      -0.428801       -11.6683
  59   2.0000      -0.426559       -11.6073
  60   2.0000      -0.421932       -11.4813
  61   2.0000      -0.409005       -11.1296
  62   2.0000      -0.403999       -10.9934
  63   2.0000      -0.350506        -9.5378
  64   2.0000      -0.332855        -9.0574
  65   2.0000      -0.326268        -8.8782
  66   2.0000      -0.287565        -7.8250
  67   0.0000       0.028817         0.7841
  68   0.0000       0.068022         1.8510
  69   0.0000       0.112192         3.0529
  70   0.0000       0.120139         3.2691
  71   0.0000       0.132554         3.6070

MULLIKEN ATOMIC CHARGES
-----------------------
   0 S :    0.114762
   1 C :   -0.121991
   2 C :   -0.080605
   3 C :    0.021323
   4 C :   -0.125406
   5 H :    0.011493
   6 C :    0.047902
   7 H :    0.016102
   8 H :    0.031219
   9 C :   -0.066956
  10 H :    0.042032
  11 H :    0.028322
  12 C :   -0.057137
  13 H :    0.030501
  14 H :    0.039327
  15 H :    0.023380
  16 S :    0.096620
  17 C :   -0.081145
  18 C :   -0.044247
  19 C :   -0.029539
  20 C :   -0.160819
  21 H :    0.015769
  22 C :    0.104679
  23 H :    0.027109
  24 H :    0.026121
  25 C :   -0.126350
  26 H :    0.023074
  27 H :    0.016954
  28 C :    0.008201
  29 H :    0.021604
  30 H :    0.029782
  31 H :    0.023794
  32 H :    0.045172
  33 H :    0.048951
Sum of atomic charges:    0.0000000

LOEWDIN ATOMIC CHARGES
----------------------
   0 S :    0.396704
   1 C :   -0.197670
   2 C :   -0.064237
   3 C :   -0.065280
   4 C :   -0.184650
   5 H :    0.030628
   6 C :   -0.040546
   7 H :    0.027825
   8 H :    0.032092
   9 C :   -0.034187
  10 H :    0.029077
  11 H :    0.020305
  12 C :   -0.071268
  13 H :    0.031959
  14 H :    0.016866
  15 H :    0.036646
  16 S :    0.419735
  17 C :   -0.177992
  18 C :   -0.066695
  19 C :   -0.058521
  20 C :   -0.207801
  21 H :    0.025877
  22 C :   -0.028493
  23 H :    0.031835
  24 H :    0.030073
  25 C :   -0.043563
  26 H :    0.020453
  27 H :    0.016616
  28 C :   -0.054558
  29 H :    0.019217
  30 H :    0.020639
  31 H :    0.032152
  32 H :    0.033568
  33 H :    0.023196

  Mayer bond orders larger than 0.100000
B(  0-S ,  1-C ) :   1.1201 B(  0-S ,  4-C ) :   1.1558 B(  1-C ,  2-C ) :   1.6126
B(  1-C ,  4-C ) :   0.1068 B(  1-C , 32-H ) :   0.9683 B(  2-C ,  3-C ) :   1.2560
B(  2-C ,  6-C ) :   1.0197 B(  3-C ,  4-C ) :   1.5600 B(  3-C ,  5-H ) :   0.9985
B(  4-C , 20-C ) :   1.0199 B(  6-C ,  7-H ) :   0.9449 B(  6-C ,  8-H ) :   0.9287
B(  6-C ,  9-C ) :   1.0627 B(  9-C , 10-H ) :   0.9616 B(  9-C , 11-H ) :   0.9512
B(  9-C , 12-C ) :   1.0867 B( 12-C , 13-H ) :   0.9702 B( 12-C , 14-H ) :   0.9802
B( 12-C , 15-H ) :   0.9710 B( 16-S , 17-C ) :   1.1532 B( 16-S , 20-C ) :   1.1713
B( 17-C , 18-C ) :   1.5816 B( 17-C , 20-C ) :   0.1095 B( 17-C , 33-H ) :   0.9790
B( 18-C , 19-C ) :   1.2542 B( 18-C , 21-H ) :   0.9881 B( 19-C , 20-C ) :   1.5597
B( 19-C , 22-C ) :   1.0493 B( 22-C , 23-H ) :   0.9292 B( 22-C , 24-H ) :   0.9358
B( 22-C , 25-C ) :   1.0591 B( 25-C , 26-H ) :   0.9550 B( 25-C , 27-H ) :   0.9575
B( 25-C , 28-C ) :   1.0779 B( 28-C , 29-H ) :   0.9753 B( 28-C , 30-H ) :   0.9743
B( 28-C , 31-H ) :   0.9732

Dispersion correction           -0.013286796
FINAL SINGLE POINT ENERGY     -1339.861930841221

DIPOLE MOMENT
-------------
                                X             Y             Z
Electronic contribution:     -7.58622     -26.84438       5.81397
Nuclear contribution   :      7.82218      27.49725      -6.09862
                        -----------------------------------------
Total Dipole Moment    :      0.23596       0.65287      -0.28465
                        -----------------------------------------
Magnitude (a.u.)       :      0.75029
Magnitude (Debye)      :      1.90710

Rotational constants in cm-1:     0.016691     0.007965     0.006509
Rotational constants in MHz :   500.395153   238.795917   195.136003

                             ****ORCA TERMINATED NORMALLY****
TOTAL RUN TIME: 0 days 0 hours 0 minutes 28 seconds 751 msec
