                         Program Version 4.2.1 -  RELEASE  -
|  1> ! wB97X-D3 SP def2-SVP
|  2> %pal
|  3> nprocs 16
|  4> end
|  5>
|  6> * xyz 0 1
|  7> S 	 -65.4672 	 52.1565 	 123.219
|  8> C 	 -65.5874 	 50.8385 	 124.312
|  9> C 	 -65.2516 	 49.6353 	 123.74
| 10> C 	 -64.9449 	 49.793 	 122.345
| 11> C 	 -65.0537 	 51.0696 	 121.912
| 12> H 	 -64.6471 	 49.0159 	 121.727
| 13> C 	 -65.5382 	 48.333 	 124.393
| 14> H 	 -66.2339 	 48.4157 	 125.219
| 15> H 	 -64.5969 	 48.0072 	 124.845
| 16> C 	 -66.1264 	 47.2212 	 123.488
| 17> H 	 -67.0522 	 47.4463 	 123.003
| 18> H 	 -65.4671 	 46.952 	 122.754
| 19> C 	 -66.5049 	 46.0299 	 124.377
| 20> H 	 -65.693 	 45.6718 	 124.868
| 21> H 	 -67.242 	 46.2996 	 125.189
| 22> H 	 -66.8325 	 45.1422 	 123.838
| 23> S 	 -63.0404 	 52.5086 	 120.569
| 24> C 	 -63.3277 	 52.8994 	 118.851
| 25> C 	 -64.3774 	 52.1435 	 118.405
| 26> C 	 -65.1239 	 51.4196 	 119.383
| 27> C 	 -64.5456 	 51.582 	 120.643
| 28> H 	 -64.61 	 52.2046 	 117.404
| 29> C 	 -66.4106 	 50.6944 	 119.14
| 30> H 	 -67.0668 	 51.347 	 118.51
| 31> H 	 -66.9537 	 50.6869 	 119.992
| 32> C 	 -66.2904 	 49.3072 	 118.481
| 33> H 	 -65.7327 	 48.6518 	 119.15
| 34> H 	 -65.8097 	 49.2723 	 117.504
| 35> C 	 -67.6124 	 48.5779 	 118.392
| 36> H 	 -67.5326 	 47.4969 	 118.566
| 37> H 	 -68.1185 	 48.719 	 117.448
| 38> H 	 -68.253 	 48.8086 	 119.212
| 39> H 	 -65.9246 	 50.9365 	 125.327
| 40> H 	 -62.6734 	 53.4459 	 118.218
| 41> *
| 42>
| 43>                          ****END OF INPUT****

CARTESIAN COORDINATES (ANGSTROEM)
---------------------------------
  S    -65.467200   52.156500  123.219000
  C    -65.587400   50.838500  124.312000
  C    -65.251600   49.635300  123.740000
  C    -64.944900   49.793000  122.345000
  C    -65.053700   51.069600  121.912000
  H    -64.647100   49.015900  121.727000
  C    -65.538200   48.333000  124.393000
  H    -66.233900   48.415700  125.219000
  H    -64.596900   48.007200  124.845000
  C    -66.126400   47.221200  123.488000
  H    -67.052200   47.446300  123.003000
  H    -65.467100   46.952000  122.754000
  C    -66.504900   46.029900  124.377000
  H    -65.693000   45.671800  124.868000
  H    -67.242000   46.299600  125.189000
  H    -66.832500   45.142200  123.838000
  S    -63.040400   52.508600  120.569000
  C    -63.327700   52.899400  118.851000
  C    -64.377400   52.143500  118.405000
  C    -65.123900   51.419600  119.383000
  C    -64.545600   51.582000  120.643000
  H    -64.610000   52.204600  117.404000
  C    -66.410600   50.694400  119.140000
  H    -67.066800   51.347000  118.510000
  H    -66.953700   50.686900  119.992000
  C    -66.290400   49.307200  118.481000
  H    -65.732700   48.651800  119.150000
  H    -65.809700   49.272300  117.504000
  C    -67.612400   48.577900  118.392000
  H    -67.532600   47.496900  118.566000
  H    -68.118500   48.719000  117.448000
  H    -68.253000   48.808600  119.212000
  H    -65.924600   50.936500  125.327000
  H    -62.673400   53.445900  118.218000

 Total Charge           Charge          ....    0
 Multiplicity           Mult            ....    1
 Number of Electrons    NEL             ....  134
 Basis Dimension        Dim             ....  322

ORBITAL ENERGIES
----------------

  NO   OCC          E(Eh)            E(eV)
   0   2.0000     -88.963681     -2420.8248
   1   2.0000     -88.962226     -2420.7852
   2   2.0000     -10.324579      -280.9461
   3   2.0000     -10.322766      -280.8967
   4   2.0000     -10.314242      -280.6648
   5   2.0000     -10.308540      -280.5096
   6   2.0000     -10.299187      -280.2551
   7   2.0000     -10.295450      -280.1534
   8   2.0000     -10.291172      -280.0370
   9   2.0000     -10.288159      -279.9550
  10   2.0000     -10.285110      -279.8721
  11   2.0000     -10.285026      -279.8698
  12   2.0000     -10.284913      -279.8667
  13   2.0000     -10.281140      -279.7641
  14   2.0000     -10.273533      -279.5570
  15   2.0000     -10.271175      -279.4929
  16   2.0000      -8.079223      -219.8468
  17   2.0000      -8.076141      -219.7630
  18   2.0000      -6.037674      -164.2935
  19   2.0000      -6.034772      -164.2145
  20   2.0000      -6.033583      -164.1821
  21   2.0000      -6.030812      -164.1067
  22   2.0000      -6.030028      -164.0854
  23   2.0000      -6.026759      -163.9964
  24   2.0000      -1.008035       -27.4300
  25   2.0000      -0.982462       -26.7341
  26   2.0000      -0.916487       -24.9389
  27   2.0000      -0.910447       -24.7745
  28   2.0000      -0.872456       -23.7407
  29   2.0000      -0.854123       -23.2419
  30   2.0000      -0.849736       -23.1225
  31   2.0000      -0.820235       -22.3197
  32   2.0000      -0.782542       -21.2941
  33   2.0000      -0.769687       -20.9442
  34   2.0000      -0.718965       -19.5640
  35   2.0000      -0.703503       -19.1433
  36   2.0000      -0.696033       -18.9400
  37   2.0000      -0.658845       -17.9281
  38   2.0000      -0.649318       -17.6688
  39   2.0000      -0.626871       -17.0580
  40   2.0000      -0.599561       -16.3149
  41   2.0000      -0.574564       -15.6347
  42   2.0000      -0.570599       -15.5268
  43   2.0000      -0.565522       -15.3886
  44   2.0000      -0.530730       -14.4419
  45   2.0000      -0.525539       -14.3006
  46   2.0000      -0.519663       -14.1407
  47   2.0000      -0.512294       -13.9402
  48   2.0000      -0.508471       -13.8362
  49   2.0000      -0.499705       -13.5977
  50   2.0000      -0.492052       -13.3894
  51   2.0000      -0.480931       -13.0868
  52   2.0000      -0.468798       -12.7566
  53   2.0000      -0.466338       -12.6897
  54   2.0000      -0.459116       -12.4932
  55   2.0000      -0.450827       -12.2676
  56   2.0000      -0.445142       -12.1129
  57   2.0000      -0.438953       -11.9445
  58   2.0000      -0.436041       -11.8653
  59   2.0000      -0.435087       -11.8393
  60   2.0000      -0.422272       -11.4906
  61   2.0000      -0.416444       -11.3320
  62   2.0000      -0.411351       -11.1934
  63   2.0000      -0.343265        -9.3407
  64   2.0000      -0.327751        -8.9185
  65   2.0000      -0.322193        -8.7673
  66   2.0000      -0.302092        -8.2203
  67   0.0000       0.040259         1.0955
  68   0.0000       0.063293         1.7223
  69   0.0000       0.119832         3.2608
  70   0.0000       0.125546         3.4163
  71   0.0000       0.131748         3.5851

MULLIKEN ATOMIC CHARGES
-----------------------
   0 S :    0.120409
   1 C :   -0.121892
   2 C :   -0.056361
   3 C :    0.063136
   4 C :   -0.175844
   5 H :   -0.016120
   6 C :    0.046251
   7 H :    0.015481
   8 H :    0.034513
   9 C :   -0.038055
  10 H :    0.030447
  11 H :    0.012321
  12 C :   -0.037396
  13 H :   -0.004449
  14 H :    0.036964
  15 H :    0.028272
  16 S :    0.102596
  17 C :   -0.085431
  18 C :    0.000305
  19 C :   -0.019229
  20 C :   -0.168137
  21 H :   -0.016324
  22 C :    0.118571
  23 H :    0.022991
  24 H :   -0.008591
  25 C :   -0.060823
  26 H :    0.018371
  27 H :    0.034151
  28 C :   -0.039951
  29 H :    0.023926
  30 H :    0.035751
  31 H :    0.014094
  32 H :    0.042482
  33 H :    0.047570
Sum of atomic charges:    0.0000000

LOEWDIN ATOMIC CHARGES
----------------------
   0 S :    0.418981
   1 C :   -0.196597
   2 C :   -0.068194
   3 C :   -0.044018
   4 C :   -0.198239
   5 H :    0.020048
   6 C :   -0.029058
   7 H :    0.028297
   8 H :    0.035515
   9 C :   -0.027792
  10 H :    0.025209
  11 H :    0.010155
  12 C :   -0.060413
  13 H :    0.007241
  14 H :    0.032169
  15 H :    0.027264
  16 S :    0.378484
  17 C :   -0.168891
  18 C :   -0.058767
  19 C :   -0.052348
  20 C :   -0.191620
  21 H :    0.016534
  22 C :   -0.025361
  23 H :    0.036776
  24 H :    0.016080
  25 C :   -0.037006
  26 H :    0.023771
  27 H :    0.026487
  28 C :   -0.067986
  29 H :    0.028688
  30 H :    0.022823
  31 H :    0.021863
  32 H :    0.024813
  33 H :    0.025093

  Mayer bond orders larger than 0.100000
B(  0-S ,  1-C ) :   1.1497 B(  0-S ,  4-C ) :   1.1453 B(  1-C ,  2-C ) :   1.6175
B(  1-C , 32-H ) :   0.9684 B(  2-C ,  3-C ) :   1.2361 B(  2-C ,  6-C ) :   1.0171
B(  3-C ,  4-C ) :   1.5906 B(  3-C ,  5-H ) :   1.0038 B(  4-C , 20-C ) :   1.0182
B(  6-C ,  7-H ) :   0.9582 B(  6-C ,  8-H ) :   0.9204 B(  6-C ,  9-C ) :   1.0739
B(  9-C , 10-H ) :   0.9595 B(  9-C , 11-H ) :   0.9450 B(  9-C , 12-C ) :   1.0910
B( 12-C , 13-H ) :   0.9711 B( 12-C , 14-H ) :   0.9745 B( 12-C , 15-H ) :   0.9707
B( 16-S , 17-C ) :   1.1272 B( 16-S , 20-C ) :   1.1437 B( 17-C , 18-C ) :   1.6328
B( 17-C , 33-H ) :   0.9715 B( 18-C , 19-C ) :   1.2272 B( 18-C , 21-H ) :   0.9986
B( 19-C , 20-C ) :   1.5980 B( 19-C , 22-C ) :   1.0567 B( 22-C , 23-H ) :   0.9312
B( 22-C , 24-H ) :   0.9102 B( 22-C , 25-C ) :   1.0646 B( 25-C , 26-H ) :   0.9551
B( 25-C , 27-H ) :   0.9590 B( 25-C , 28-C ) :   1.0855 B( 28-C , 29-H ) :   0.9757
B( 28-C , 30-H ) :   0.9764 B( 28-C , 31-H ) :   0.9680

Dispersion correction           -0.014131020
FINAL SINGLE POINT ENERGY     -1339.867143131513

DIPOLE MOMENT
-------------
                                X             Y             Z
Electronic contribution:     15.35181      27.85430       2.75258
Nuclear contribution   :    -15.64586     -28.51547      -2.86610
                        -----------------------------------------
Total Dipole Moment    :     -0.29405      -0.66117      -0.11351
                        -----------------------------------------
Magnitude (a.u.)       :      0.73246
Magnitude (Debye)      :      1.86176

Rotational constants in cm-1:     0.017136     0.009342     0.006776
Rotational constants in MHz :   513.735395   280.053783   203.140852

                             ****ORCA TERMINATED NORMALLY****
TOTAL RUN TIME: 0 days 0 hours 0 minutes 32 seconds 856 msec
