                         Program Version 4.2.1 -  RELEASE  -
|  1> ! wB97X-D3 SP def2-SVP
|  2> %pal
|  3> nprocs 16
|  4> end
|  5>
|  6> * xyz 0 1
|  7> S 	 -102.872 	 58.1458 	 118.544
|  8> C 	 -101.421 	 57.277 	 118.174
|  9> C 	 -101.554 	 55.9697 	 117.815
| 10> C 	 -102.901 	 55.5462 	 118.17
| 11> C 	 -103.713 	 56.5749 	 118.578
| 12> H 	 -103.242 	 54.554 	 118.075
| 13> C 	 -100.384 	 55.145 	 117.436
| 14> H 	 -99.5662 	 55.789 	 117.319
| 15> H 	 -100.57 	 54.6278 	 116.505
| 16> C 	 -99.7823 	 54.106 	 118.509
| 17> H 	 -98.9538 	 53.806 	 117.932
| 18> H 	 -99.5008 	 54.5423 	 119.47
| 19> C 	 -100.605 	 52.783 	 118.648
| 20> H 	 -101.597 	 53.1048 	 119.138
| 21> H 	 -100.648 	 52.2151 	 117.695
| 22> H 	 -100.035 	 52.0764 	 119.324
| 23> S 	 -106.236 	 57.3529 	 117.963
| 24> C 	 -107.563 	 56.7571 	 118.918
| 25> C 	 -107.107 	 55.9258 	 119.938
| 26> C 	 -105.706 	 55.7136 	 119.916
| 27> C 	 -105.107 	 56.5396 	 118.953
| 28> H 	 -107.862 	 55.4925 	 120.608
| 29> C 	 -105.051 	 54.8634 	 121.029
| 30> H 	 -105.38 	 55.2073 	 122.005
| 31> H 	 -103.91 	 55.0437 	 120.942
| 32> C 	 -105.194 	 53.3078 	 121.086
| 33> H 	 -106.144 	 53.1787 	 121.559
| 34> H 	 -104.442 	 52.9392 	 121.766
| 35> C 	 -105.108 	 52.5879 	 119.716
| 36> H 	 -105.884 	 52.7086 	 118.991
| 37> H 	 -105.165 	 51.5977 	 119.897
| 38> H 	 -104.179 	 52.7581 	 119.174
| 39> H 	 -100.496 	 57.8273 	 118.018
| 40> H 	 -108.67 	 57.0083 	 118.852
| 41> *
| 42>
| 43>                          ****END OF INPUT****

CARTESIAN COORDINATES (ANGSTROEM)
---------------------------------
  S    -102.872000   58.145800  118.544000
  C    -101.421000   57.277000  118.174000
  C    -101.554000   55.969700  117.815000
  C    -102.901000   55.546200  118.170000
  C    -103.713000   56.574900  118.578000
  H    -103.242000   54.554000  118.075000
  C    -100.384000   55.145000  117.436000
  H    -99.566200   55.789000  117.319000
  H    -100.570000   54.627800  116.505000
  C    -99.782300   54.106000  118.509000
  H    -98.953800   53.806000  117.932000
  H    -99.500800   54.542300  119.470000
  C    -100.605000   52.783000  118.648000
  H    -101.597000   53.104800  119.138000
  H    -100.648000   52.215100  117.695000
  H    -100.035000   52.076400  119.324000
  S    -106.236000   57.352900  117.963000
  C    -107.563000   56.757100  118.918000
  C    -107.107000   55.925800  119.938000
  C    -105.706000   55.713600  119.916000
  C    -105.107000   56.539600  118.953000
  H    -107.862000   55.492500  120.608000
  C    -105.051000   54.863400  121.029000
  H    -105.380000   55.207300  122.005000
  H    -103.910000   55.043700  120.942000
  C    -105.194000   53.307800  121.086000
  H    -106.144000   53.178700  121.559000
  H    -104.442000   52.939200  121.766000
  C    -105.108000   52.587900  119.716000
  H    -105.884000   52.708600  118.991000
  H    -105.165000   51.597700  119.897000
  H    -104.179000   52.758100  119.174000
  H    -100.496000   57.827300  118.018000
  H    -108.670000   57.008300  118.852000

 Total Charge           Charge          ....    0
 Multiplicity           Mult            ....    1
 Number of Electrons    NEL             ....  134
 Basis Dimension        Dim             ....  322

ORBITAL ENERGIES
----------------

  NO   OCC          E(Eh)            E(eV)
   0   2.0000     -88.968210     -2420.9481
   1   2.0000     -88.962693     -2420.7980
   2   2.0000     -10.325827      -280.9801
   3   2.0000     -10.321342      -280.8580
   4   2.0000     -10.317652      -280.7576
   5   2.0000     -10.307184      -280.4727
   6   2.0000     -10.303208      -280.3645
   7   2.0000     -10.296340      -280.1777
   8   2.0000     -10.295481      -280.1543
   9   2.0000     -10.293507      -280.1006
  10   2.0000     -10.293200      -280.0922
  11   2.0000     -10.291172      -280.0370
  12   2.0000     -10.290632      -280.0223
  13   2.0000     -10.290562      -280.0204
  14   2.0000     -10.287298      -279.9316
  15   2.0000     -10.266257      -279.3591
  16   2.0000      -8.083533      -219.9641
  17   2.0000      -8.077764      -219.8071
  18   2.0000      -6.042035      -164.4121
  19   2.0000      -6.037848      -164.2982
  20   2.0000      -6.036152      -164.2520
  21   2.0000      -6.034383      -164.2039
  22   2.0000      -6.032544      -164.1539
  23   2.0000      -6.028323      -164.0390
  24   2.0000      -1.008168       -27.4336
  25   2.0000      -0.984199       -26.7814
  26   2.0000      -0.907804       -24.7026
  27   2.0000      -0.900470       -24.5030
  28   2.0000      -0.867307       -23.6006
  29   2.0000      -0.850030       -23.1305
  30   2.0000      -0.845177       -22.9984
  31   2.0000      -0.815117       -22.1805
  32   2.0000      -0.786955       -21.4141
  33   2.0000      -0.770792       -20.9743
  34   2.0000      -0.708476       -19.2786
  35   2.0000      -0.696535       -18.9537
  36   2.0000      -0.687504       -18.7079
  37   2.0000      -0.655890       -17.8477
  38   2.0000      -0.640095       -17.4179
  39   2.0000      -0.620355       -16.8807
  40   2.0000      -0.585231       -15.9249
  41   2.0000      -0.572879       -15.5888
  42   2.0000      -0.556131       -15.1331
  43   2.0000      -0.540054       -14.6956
  44   2.0000      -0.539528       -14.6813
  45   2.0000      -0.536354       -14.5949
  46   2.0000      -0.516760       -14.0618
  47   2.0000      -0.510930       -13.9031
  48   2.0000      -0.497990       -13.5510
  49   2.0000      -0.495473       -13.4825
  50   2.0000      -0.491310       -13.3692
  51   2.0000      -0.482551       -13.1309
  52   2.0000      -0.468556       -12.7501
  53   2.0000      -0.461061       -12.5461
  54   2.0000      -0.458515       -12.4768
  55   2.0000      -0.449326       -12.2268
  56   2.0000      -0.447691       -12.1823
  57   2.0000      -0.436658       -11.8821
  58   2.0000      -0.430713       -11.7203
  59   2.0000      -0.427244       -11.6259
  60   2.0000      -0.419478       -11.4146
  61   2.0000      -0.417730       -11.3670
  62   2.0000      -0.406685       -11.0665
  63   2.0000      -0.343798        -9.3552
  64   2.0000      -0.329593        -8.9687
  65   2.0000      -0.327344        -8.9075
  66   2.0000      -0.292290        -7.9536
  67   0.0000       0.038139         1.0378
  68   0.0000       0.066730         1.8158
  69   0.0000       0.113136         3.0786
  70   0.0000       0.120953         3.2913
  71   0.0000       0.129168         3.5148

MULLIKEN ATOMIC CHARGES
-----------------------
   0 S :    0.106392
   1 C :   -0.124573
   2 C :   -0.073966
   3 C :    0.060090
   4 C :   -0.159478
   5 H :   -0.023287
   6 C :    0.077344
   7 H :    0.005028
   8 H :    0.027677
   9 C :   -0.061331
  10 H :    0.019389
  11 H :    0.043669
  12 C :   -0.114642
  13 H :    0.061022
  14 H :    0.042257
  15 H :    0.042793
  16 S :    0.132799
  17 C :   -0.125746
  18 C :   -0.052229
  19 C :    0.007225
  20 C :   -0.161234
  21 H :    0.023990
  22 C :    0.004064
  23 H :    0.032938
  24 H :    0.038290
  25 C :   -0.049595
  26 H :    0.018320
  27 H :    0.033936
  28 C :    0.001299
  29 H :    0.027865
  30 H :   -0.000296
  31 H :    0.020247
  32 H :    0.043581
  33 H :    0.076163
Sum of atomic charges:   -0.0000000

LOEWDIN ATOMIC CHARGES
----------------------
   0 S :    0.389498
   1 C :   -0.192163
   2 C :   -0.067372
   3 C :   -0.047303
   4 C :   -0.181071
   5 H :    0.020274
   6 C :   -0.025377
   7 H :    0.025191
   8 H :    0.031897
   9 C :   -0.029904
  10 H :    0.018788
  11 H :    0.026835
  12 C :   -0.082414
  13 H :    0.032497
  14 H :    0.028258
  15 H :    0.030914
  16 S :    0.436736
  17 C :   -0.211771
  18 C :   -0.074547
  19 C :   -0.059060
  20 C :   -0.219412
  21 H :    0.033894
  22 C :   -0.036473
  23 H :    0.029497
  24 H :    0.035487
  25 C :   -0.030161
  26 H :    0.017915
  27 H :    0.028071
  28 C :   -0.061172
  29 H :    0.027931
  30 H :    0.013836
  31 H :    0.023358
  32 H :    0.021988
  33 H :    0.045332

  Mayer bond orders larger than 0.100000
B(  0-S ,  1-C ) :   1.1394 B(  0-S ,  4-C ) :   1.1269 B(  1-C ,  2-C ) :   1.6487
B(  1-C , 32-H ) :   0.9573 B(  2-C ,  3-C ) :   1.1879 B(  2-C ,  6-C ) :   1.0528
B(  3-C ,  4-C ) :   1.6152 B(  3-C ,  5-H ) :   1.0053 B(  4-C , 20-C ) :   1.0160
B(  6-C ,  7-H ) :   0.9370 B(  6-C ,  8-H ) :   0.9285 B(  6-C ,  9-C ) :   1.0570
B(  9-C , 10-H ) :   0.9555 B(  9-C , 11-H ) :   0.9601 B(  9-C , 12-C ) :   1.0757
B( 12-C , 13-H ) :   0.9706 B( 12-C , 14-H ) :   0.9746 B( 12-C , 15-H ) :   0.9720
B( 16-S , 17-C ) :   1.1528 B( 16-S , 20-C ) :   1.1746 B( 17-C , 18-C ) :   1.6089
B( 17-C , 20-C ) :   0.1039 B( 17-C , 33-H ) :   0.9580 B( 18-C , 19-C ) :   1.2452
B( 18-C , 21-H ) :   0.9868 B( 19-C , 20-C ) :   1.5697 B( 19-C , 22-C ) :   1.0385
B( 22-C , 23-H ) :   0.9492 B( 22-C , 24-H ) :   0.9380 B( 22-C , 25-C ) :   1.0674
B( 25-C , 26-H ) :   0.9555 B( 25-C , 27-H ) :   0.9571 B( 25-C , 28-C ) :   1.0814
B( 28-C , 29-H ) :   0.9674 B( 28-C , 30-H ) :   0.9631 B( 28-C , 31-H ) :   0.9724

Dispersion correction           -0.015482649
FINAL SINGLE POINT ENERGY     -1339.860650874817

DIPOLE MOMENT
-------------
                                X             Y             Z
Electronic contribution:    -12.00664      27.36546      -6.98819
Nuclear contribution   :     12.25569     -28.01840       7.13203
                        -----------------------------------------
Total Dipole Moment    :      0.24905      -0.65294       0.14383
                        -----------------------------------------
Magnitude (a.u.)       :      0.71347
Magnitude (Debye)      :      1.81350

Rotational constants in cm-1:     0.017836     0.010343     0.007234
Rotational constants in MHz :   534.705030   310.069318   216.874415

                             ****ORCA TERMINATED NORMALLY****
TOTAL RUN TIME: 0 days 0 hours 0 minutes 36 seconds 586 msec
