                         Program Version 4.2.1 -  RELEASE  -
|  1> ! wB97X-D3 SP def2-SVP
|  2> %pal
|  3> nprocs 16
|  4> end
|  5>
|  6> * xyz 0 1
|  7> S 	 -102.48 	 47.1632 	 124.276
|  8> C 	 -104.054 	 46.8926 	 124.977
|  9> C 	 -104.895 	 46.043 	 124.257
| 10> C 	 -104.389 	 45.787 	 122.937
| 11> C 	 -103.099 	 46.2197 	 122.83
| 12> H 	 -104.93 	 45.2436 	 122.141
| 13> C 	 -106.282 	 45.5821 	 124.749
| 14> H 	 -106.39 	 45.8553 	 125.764
| 15> H 	 -106.175 	 44.5056 	 124.836
| 16> C 	 -107.505 	 45.7675 	 123.879
| 17> H 	 -107.564 	 46.8291 	 123.565
| 18> H 	 -107.419 	 45.4096 	 122.817
| 19> C 	 -108.837 	 45.4148 	 124.485
| 20> H 	 -109.063 	 44.2843 	 124.404
| 21> H 	 -108.879 	 45.6813 	 125.517
| 22> H 	 -109.586 	 45.8713 	 123.916
| 23> S 	 -102.574 	 47.2217 	 120.326
| 24> C 	 -101.4 	 46.4954 	 119.298
| 25> C 	 -101.04 	 45.3496 	 119.879
| 26> C 	 -101.489 	 45.0578 	 121.199
| 27> C 	 -102.348 	 46.0368 	 121.585
| 28> H 	 -100.309 	 44.7331 	 119.305
| 29> C 	 -101.156 	 43.7227 	 121.897
| 30> H 	 -101.583 	 43.7718 	 122.897
| 31> H 	 -100.089 	 43.6225 	 122.132
| 32> C 	 -101.544 	 42.4419 	 121.027
| 33> H 	 -101.099 	 41.5969 	 121.546
| 34> H 	 -101.013 	 42.5105 	 120.056
| 35> C 	 -102.986 	 42.2156 	 120.917
| 36> H 	 -103.485 	 42.4762 	 121.903
| 37> H 	 -103.224 	 41.2466 	 120.49
| 38> H 	 -103.434 	 43.0409 	 120.321
| 39> H 	 -104.355 	 47.2372 	 125.932
| 40> H 	 -101.199 	 46.728 	 118.211
| 41> *
| 42>
| 43>                          ****END OF INPUT****

CARTESIAN COORDINATES (ANGSTROEM)
---------------------------------
  S    -102.480000   47.163200  124.276000
  C    -104.054000   46.892600  124.977000
  C    -104.895000   46.043000  124.257000
  C    -104.389000   45.787000  122.937000
  C    -103.099000   46.219700  122.830000
  H    -104.930000   45.243600  122.141000
  C    -106.282000   45.582100  124.749000
  H    -106.390000   45.855300  125.764000
  H    -106.175000   44.505600  124.836000
  C    -107.505000   45.767500  123.879000
  H    -107.564000   46.829100  123.565000
  H    -107.419000   45.409600  122.817000
  C    -108.837000   45.414800  124.485000
  H    -109.063000   44.284300  124.404000
  H    -108.879000   45.681300  125.517000
  H    -109.586000   45.871300  123.916000
  S    -102.574000   47.221700  120.326000
  C    -101.400000   46.495400  119.298000
  C    -101.040000   45.349600  119.879000
  C    -101.489000   45.057800  121.199000
  C    -102.348000   46.036800  121.585000
  H    -100.309000   44.733100  119.305000
  C    -101.156000   43.722700  121.897000
  H    -101.583000   43.771800  122.897000
  H    -100.089000   43.622500  122.132000
  C    -101.544000   42.441900  121.027000
  H    -101.099000   41.596900  121.546000
  H    -101.013000   42.510500  120.056000
  C    -102.986000   42.215600  120.917000
  H    -103.485000   42.476200  121.903000
  H    -103.224000   41.246600  120.490000
  H    -103.434000   43.040900  120.321000
  H    -104.355000   47.237200  125.932000
  H    -101.199000   46.728000  118.211000

 Total Charge           Charge          ....    0
 Multiplicity           Mult            ....    1
 Number of Electrons    NEL             ....  134
 Basis Dimension        Dim             ....  322

ORBITAL ENERGIES
----------------

  NO   OCC          E(Eh)            E(eV)
   0   2.0000     -88.971670     -2421.0422
   1   2.0000     -88.957000     -2420.6430
   2   2.0000     -10.331368      -281.1308
   3   2.0000     -10.320232      -280.8278
   4   2.0000     -10.312852      -280.6270
   5   2.0000     -10.311395      -280.5873
   6   2.0000     -10.304282      -280.3938
   7   2.0000     -10.299560      -280.2653
   8   2.0000     -10.298934      -280.2482
   9   2.0000     -10.295823      -280.1636
  10   2.0000     -10.291019      -280.0329
  11   2.0000     -10.289701      -279.9970
  12   2.0000     -10.287476      -279.9365
  13   2.0000     -10.285689      -279.8878
  14   2.0000     -10.279629      -279.7229
  15   2.0000     -10.276683      -279.6428
  16   2.0000      -8.084999      -220.0040
  17   2.0000      -8.072872      -219.6740
  18   2.0000      -6.043548      -164.4533
  19   2.0000      -6.040019      -164.3573
  20   2.0000      -6.035489      -164.2340
  21   2.0000      -6.031439      -164.1238
  22   2.0000      -6.027150      -164.0071
  23   2.0000      -6.023543      -163.9089
  24   2.0000      -1.009089       -27.4587
  25   2.0000      -0.982982       -26.7483
  26   2.0000      -0.912227       -24.8230
  27   2.0000      -0.906497       -24.6670
  28   2.0000      -0.872301       -23.7365
  29   2.0000      -0.852916       -23.2090
  30   2.0000      -0.847973       -23.0745
  31   2.0000      -0.816668       -22.2227
  32   2.0000      -0.782385       -21.2898
  33   2.0000      -0.772479       -21.0202
  34   2.0000      -0.708798       -19.2874
  35   2.0000      -0.696170       -18.9437
  36   2.0000      -0.692265       -18.8375
  37   2.0000      -0.650135       -17.6911
  38   2.0000      -0.639811       -17.4101
  39   2.0000      -0.620277       -16.8786
  40   2.0000      -0.597030       -16.2460
  41   2.0000      -0.565734       -15.3944
  42   2.0000      -0.555615       -15.1191
  43   2.0000      -0.553948       -15.0737
  44   2.0000      -0.536645       -14.6028
  45   2.0000      -0.533369       -14.5137
  46   2.0000      -0.518026       -14.0962
  47   2.0000      -0.509644       -13.8681
  48   2.0000      -0.501344       -13.6423
  49   2.0000      -0.495356       -13.4793
  50   2.0000      -0.489057       -13.3079
  51   2.0000      -0.484112       -13.1733
  52   2.0000      -0.472122       -12.8471
  53   2.0000      -0.464891       -12.6503
  54   2.0000      -0.458861       -12.4862
  55   2.0000      -0.451821       -12.2947
  56   2.0000      -0.447193       -12.1687
  57   2.0000      -0.436440       -11.8761
  58   2.0000      -0.433244       -11.7892
  59   2.0000      -0.430159       -11.7052
  60   2.0000      -0.421101       -11.4587
  61   2.0000      -0.405588       -11.0366
  62   2.0000      -0.396567       -10.7911
  63   2.0000      -0.341569        -9.2946
  64   2.0000      -0.327121        -8.9014
  65   2.0000      -0.322281        -8.7697
  66   2.0000      -0.308414        -8.3924
  67   0.0000       0.046836         1.2745
  68   0.0000       0.055902         1.5212
  69   0.0000       0.105486         2.8704
  70   0.0000       0.121882         3.3166
  71   0.0000       0.131591         3.5808

MULLIKEN ATOMIC CHARGES
-----------------------
   0 S :    0.121983
   1 C :   -0.100803
   2 C :   -0.094431
   3 C :    0.011425
   4 C :   -0.149717
   5 H :    0.040034
   6 C :    0.128347
   7 H :   -0.003945
   8 H :    0.024823
   9 C :   -0.113025
  10 H :    0.022594
  11 H :    0.027253
  12 C :   -0.017941
  13 H :    0.037178
  14 H :    0.029737
  15 H :    0.024651
  16 S :    0.104511
  17 C :   -0.105442
  18 C :   -0.067907
  19 C :    0.006916
  20 C :   -0.225176
  21 H :    0.023059
  22 C :    0.064346
  23 H :    0.024969
  24 H :    0.031736
  25 C :   -0.080295
  26 H :    0.025738
  27 H :    0.034478
  28 C :   -0.038345
  29 H :    0.029656
  30 H :    0.045404
  31 H :    0.031040
  32 H :    0.027536
  33 H :    0.079612
Sum of atomic charges:    0.0000000

LOEWDIN ATOMIC CHARGES
----------------------
   0 S :    0.375936
   1 C :   -0.190932
   2 C :   -0.056640
   3 C :   -0.050866
   4 C :   -0.172531
   5 H :    0.042323
   6 C :   -0.032377
   7 H :    0.023520
   8 H :    0.034861
   9 C :   -0.058392
  10 H :    0.025403
  11 H :    0.029634
  12 C :   -0.057104
  13 H :    0.033020
  14 H :    0.022442
  15 H :    0.022269
  16 S :    0.409831
  17 C :   -0.208044
  18 C :   -0.083587
  19 C :   -0.063773
  20 C :   -0.201289
  21 H :    0.030864
  22 C :   -0.026186
  23 H :    0.029059
  24 H :    0.033860
  25 C :   -0.041084
  26 H :    0.023105
  27 H :    0.025608
  28 C :   -0.074712
  29 H :    0.033514
  30 H :    0.027304
  31 H :    0.028611
  32 H :    0.017201
  33 H :    0.049152

  Mayer bond orders larger than 0.100000
B(  0-S ,  1-C ) :   1.1265 B(  0-S ,  4-C ) :   1.1117 B(  1-C ,  2-C ) :   1.6534
B(  1-C , 32-H ) :   0.9623 B(  2-C ,  3-C ) :   1.1980 B(  2-C ,  6-C ) :   1.0298
B(  3-C ,  4-C ) :   1.6352 B(  3-C ,  5-H ) :   0.9833 B(  4-C , 20-C ) :   1.0149
B(  6-C ,  7-H ) :   0.9345 B(  6-C ,  8-H ) :   0.9264 B(  6-C ,  9-C ) :   1.0540
B(  9-C , 10-H ) :   0.9546 B(  9-C , 11-H ) :   0.9434 B(  9-C , 12-C ) :   1.0927
B( 12-C , 13-H ) :   0.9737 B( 12-C , 14-H ) :   0.9747 B( 12-C , 15-H ) :   0.9709
B( 16-S , 17-C ) :   1.1349 B( 16-S , 20-C ) :   1.1590 B( 17-C , 18-C ) :   1.6533
B( 17-C , 33-H ) :   0.9565 B( 18-C , 19-C ) :   1.2166 B( 18-C , 21-H ) :   0.9750
B( 19-C , 20-C ) :   1.6127 B( 19-C , 22-C ) :   1.0432 B( 22-C , 23-H ) :   0.9338
B( 22-C , 24-H ) :   0.9335 B( 22-C , 25-C ) :   1.0714 B( 25-C , 26-H ) :   0.9531
B( 25-C , 27-H ) :   0.9513 B( 25-C , 28-C ) :   1.0811 B( 28-C , 29-H ) :   0.9679
B( 28-C , 30-H ) :   0.9703 B( 28-C , 31-H ) :   0.9695

Dispersion correction           -0.014660687
FINAL SINGLE POINT ENERGY     -1339.864296473915

DIPOLE MOMENT
-------------
                                X             Y             Z
Electronic contribution:     16.90238      19.60213      -2.41741
Nuclear contribution   :    -17.23520     -20.16151       2.39948
                        -----------------------------------------
Total Dipole Moment    :     -0.33282      -0.55937      -0.01792
                        -----------------------------------------
Magnitude (a.u.)       :      0.65114
Magnitude (Debye)      :      1.65508

Rotational constants in cm-1:     0.018401     0.008035     0.007141
Rotational constants in MHz :   551.661290   240.884838   214.091636

                             ****ORCA TERMINATED NORMALLY****
TOTAL RUN TIME: 0 days 0 hours 0 minutes 33 seconds 191 msec
