                         Program Version 4.2.1 -  RELEASE  -
|  1> ! wB97X-D3 SP def2-SVP
|  2> %pal
|  3> nprocs 16
|  4> end
|  5>
|  6> * xyz 0 1
|  7> S 	 60.8302 	 -5.49033 	 88.4366
|  8> C 	 59.7354 	 -4.84074 	 89.6371
|  9> C 	 58.547 	 -4.39398 	 89.016
| 10> C 	 58.6194 	 -4.51345 	 87.5885
| 11> C 	 59.8512 	 -4.98543 	 87.1054
| 12> H 	 57.8226 	 -4.1885 	 86.841
| 13> C 	 57.3852 	 -3.67118 	 89.7457
| 14> H 	 57.3506 	 -3.98883 	 90.7751
| 15> H 	 56.4909 	 -4.15143 	 89.3568
| 16> C 	 57.5091 	 -2.17121 	 89.6462
| 17> H 	 56.9848 	 -1.74055 	 90.4622
| 18> H 	 58.6013 	 -2.0811 	 89.7907
| 19> C 	 57.1218 	 -1.43313 	 88.3425
| 20> H 	 57.6319 	 -1.88817 	 87.4596
| 21> H 	 56.0479 	 -1.35752 	 88.1804
| 22> H 	 57.3801 	 -0.385481 	 88.4046
| 23> S 	 60.3301 	 -7.11138 	 85.5462
| 24> C 	 60.7404 	 -6.8402 	 83.8189
| 25> C 	 60.4665 	 -5.57267 	 83.4224
| 26> C 	 60.0888 	 -4.64582 	 84.4843
| 27> C 	 60.0894 	 -5.39047 	 85.6972
| 28> H 	 60.5076 	 -5.29216 	 82.3744
| 29> C 	 59.6975 	 -3.16002 	 84.3232
| 30> H 	 59.061 	 -2.74651 	 85.0681
| 31> H 	 59.1148 	 -2.99894 	 83.3589
| 32> C 	 60.995 	 -2.25895 	 84.3623
| 33> H 	 61.5013 	 -2.44585 	 83.3853
| 34> H 	 61.628 	 -2.63289 	 85.1973
| 35> C 	 60.7478 	 -0.766502 	 84.5215
| 36> H 	 60.4063 	 -0.480061 	 85.5153
| 37> H 	 60.0048 	 -0.420871 	 83.789
| 38> H 	 61.6003 	 -0.129783 	 84.338
| 39> H 	 59.9413 	 -4.85128 	 90.718
| 40> H 	 61.0093 	 -7.67056 	 83.2368
| 41> *
| 42>
| 43>                          ****END OF INPUT****

CARTESIAN COORDINATES (ANGSTROEM)
---------------------------------
  S     60.830200   -5.490330   88.436600
  C     59.735400   -4.840740   89.637100
  C     58.547000   -4.393980   89.016000
  C     58.619400   -4.513450   87.588500
  C     59.851200   -4.985430   87.105400
  H     57.822600   -4.188500   86.841000
  C     57.385200   -3.671180   89.745700
  H     57.350600   -3.988830   90.775100
  H     56.490900   -4.151430   89.356800
  C     57.509100   -2.171210   89.646200
  H     56.984800   -1.740550   90.462200
  H     58.601300   -2.081100   89.790700
  C     57.121800   -1.433130   88.342500
  H     57.631900   -1.888170   87.459600
  H     56.047900   -1.357520   88.180400
  H     57.380100   -0.385481   88.404600
  S     60.330100   -7.111380   85.546200
  C     60.740400   -6.840200   83.818900
  C     60.466500   -5.572670   83.422400
  C     60.088800   -4.645820   84.484300
  C     60.089400   -5.390470   85.697200
  H     60.507600   -5.292160   82.374400
  C     59.697500   -3.160020   84.323200
  H     59.061000   -2.746510   85.068100
  H     59.114800   -2.998940   83.358900
  C     60.995000   -2.258950   84.362300
  H     61.501300   -2.445850   83.385300
  H     61.628000   -2.632890   85.197300
  C     60.747800   -0.766502   84.521500
  H     60.406300   -0.480061   85.515300
  H     60.004800   -0.420871   83.789000
  H     61.600300   -0.129783   84.338000
  H     59.941300   -4.851280   90.718000
  H     61.009300   -7.670560   83.236800

 Total Charge           Charge          ....    0
 Multiplicity           Mult            ....    1
 Number of Electrons    NEL             ....  134
 Basis Dimension        Dim             ....  322

ORBITAL ENERGIES
----------------

  NO   OCC          E(Eh)            E(eV)
   0   2.0000     -88.968394     -2420.9531
   1   2.0000     -88.964378     -2420.8438
   2   2.0000     -10.331906      -281.1454
   3   2.0000     -10.328649      -281.0568
   4   2.0000     -10.319799      -280.8160
   5   2.0000     -10.313722      -280.6506
   6   2.0000     -10.313546      -280.6459
   7   2.0000     -10.306213      -280.4463
   8   2.0000     -10.302147      -280.3357
   9   2.0000     -10.300177      -280.2821
  10   2.0000     -10.298178      -280.2277
  11   2.0000     -10.290839      -280.0280
  12   2.0000     -10.290569      -280.0206
  13   2.0000     -10.285068      -279.8709
  14   2.0000     -10.280769      -279.7539
  15   2.0000     -10.276145      -279.6281
  16   2.0000      -8.083110      -219.9526
  17   2.0000      -8.078912      -219.8384
  18   2.0000      -6.041595      -164.4001
  19   2.0000      -6.037415      -164.2864
  20   2.0000      -6.037368      -164.2851
  21   2.0000      -6.034088      -164.1959
  22   2.0000      -6.033695      -164.1852
  23   2.0000      -6.029475      -164.0704
  24   2.0000      -1.002448       -27.2780
  25   2.0000      -0.977941       -26.6111
  26   2.0000      -0.911748       -24.8099
  27   2.0000      -0.900999       -24.5174
  28   2.0000      -0.865068       -23.5397
  29   2.0000      -0.846193       -23.0261
  30   2.0000      -0.840601       -22.8739
  31   2.0000      -0.812129       -22.0992
  32   2.0000      -0.785810       -21.3830
  33   2.0000      -0.771354       -20.9896
  34   2.0000      -0.700320       -19.0567
  35   2.0000      -0.696971       -18.9655
  36   2.0000      -0.689450       -18.7609
  37   2.0000      -0.659394       -17.9430
  38   2.0000      -0.638102       -17.3636
  39   2.0000      -0.614474       -16.7207
  40   2.0000      -0.600299       -16.3350
  41   2.0000      -0.572435       -15.5768
  42   2.0000      -0.561711       -15.2849
  43   2.0000      -0.542562       -14.7639
  44   2.0000      -0.535992       -14.5851
  45   2.0000      -0.519624       -14.1397
  46   2.0000      -0.511299       -13.9132
  47   2.0000      -0.507040       -13.7973
  48   2.0000      -0.506301       -13.7772
  49   2.0000      -0.495047       -13.4709
  50   2.0000      -0.489888       -13.3305
  51   2.0000      -0.485968       -13.2239
  52   2.0000      -0.468638       -12.7523
  53   2.0000      -0.466160       -12.6849
  54   2.0000      -0.455762       -12.4019
  55   2.0000      -0.450290       -12.2530
  56   2.0000      -0.440491       -11.9864
  57   2.0000      -0.437057       -11.8929
  58   2.0000      -0.428111       -11.6495
  59   2.0000      -0.424367       -11.5476
  60   2.0000      -0.422354       -11.4928
  61   2.0000      -0.415655       -11.3106
  62   2.0000      -0.411239       -11.1904
  63   2.0000      -0.343847        -9.3566
  64   2.0000      -0.329202        -8.9581
  65   2.0000      -0.327713        -8.9175
  66   2.0000      -0.293044        -7.9741
  67   0.0000       0.030763         0.8371
  68   0.0000       0.065076         1.7708
  69   0.0000       0.100303         2.7294
  70   0.0000       0.123633         3.3642
  71   0.0000       0.128698         3.5021

MULLIKEN ATOMIC CHARGES
-----------------------
   0 S :    0.119124
   1 C :   -0.138126
   2 C :   -0.120944
   3 C :    0.004497
   4 C :   -0.155284
   5 H :    0.047711
   6 C :    0.086864
   7 H :    0.011612
   8 H :    0.022199
   9 C :   -0.047001
  10 H :    0.023798
  11 H :    0.033277
  12 C :   -0.049466
  13 H :    0.039977
  14 H :    0.027952
  15 H :    0.029348
  16 S :    0.099755
  17 C :   -0.079420
  18 C :   -0.015981
  19 C :   -0.024525
  20 C :   -0.182848
  21 H :    0.020114
  22 C :    0.063647
  23 H :    0.010099
  24 H :    0.039472
  25 C :   -0.108756
  26 H :    0.034717
  27 H :    0.051065
  28 C :   -0.031754
  29 H :    0.030961
  30 H :    0.022368
  31 H :    0.031671
  32 H :    0.063683
  33 H :    0.040197
Sum of atomic charges:   -0.0000000

LOEWDIN ATOMIC CHARGES
----------------------
   0 S :    0.423693
   1 C :   -0.208517
   2 C :   -0.063527
   3 C :   -0.073605
   4 C :   -0.219504
   5 H :    0.042211
   6 C :   -0.031263
   7 H :    0.029136
   8 H :    0.027858
   9 C :   -0.039320
  10 H :    0.020581
  11 H :    0.033206
  12 C :   -0.068843
  13 H :    0.027532
  14 H :    0.023747
  15 H :    0.027350
  16 S :    0.388421
  17 C :   -0.165423
  18 C :   -0.062688
  19 C :   -0.054032
  20 C :   -0.188391
  21 H :    0.032909
  22 C :   -0.031745
  23 H :    0.020930
  24 H :    0.038174
  25 C :   -0.042510
  26 H :    0.026050
  27 H :    0.031469
  28 C :   -0.072112
  29 H :    0.024606
  30 H :    0.025241
  31 H :    0.027162
  32 H :    0.034494
  33 H :    0.016708

  Mayer bond orders larger than 0.100000
B(  0-S ,  1-C ) :   1.1564 B(  0-S ,  4-C ) :   1.1728 B(  1-C ,  2-C ) :   1.5642
B(  1-C ,  4-C ) :   0.1045 B(  1-C , 32-H ) :   0.9695 B(  2-C ,  3-C ) :   1.2771
B(  2-C ,  6-C ) :   1.0277 B(  3-C ,  4-C ) :   1.5377 B(  3-C ,  5-H ) :   0.9759
B(  4-C , 20-C ) :   1.0160 B(  6-C ,  7-H ) :   0.9375 B(  6-C ,  8-H ) :   0.9395
B(  6-C ,  9-C ) :   1.0539 B(  9-C , 10-H ) :   0.9557 B(  9-C , 11-H ) :   0.9522
B(  9-C , 12-C ) :   1.0872 B( 12-C , 13-H ) :   0.9708 B( 12-C , 14-H ) :   0.9729
B( 12-C , 15-H ) :   0.9700 B( 16-S , 17-C ) :   1.1172 B( 16-S , 20-C ) :   1.1705
B( 17-C , 18-C ) :   1.6404 B( 17-C , 33-H ) :   0.9790 B( 18-C , 19-C ) :   1.2135
B( 18-C , 21-H ) :   0.9862 B( 19-C , 20-C ) :   1.6042 B( 19-C , 22-C ) :   1.0417
B( 22-C , 23-H ) :   0.9437 B( 22-C , 24-H ) :   0.9364 B( 22-C , 25-C ) :   1.0443
B( 25-C , 26-H ) :   0.9581 B( 25-C , 27-H ) :   0.9606 B( 25-C , 28-C ) :   1.0869
B( 28-C , 29-H ) :   0.9730 B( 28-C , 30-H ) :   0.9705 B( 28-C , 31-H ) :   0.9727

Dispersion correction           -0.014693411
FINAL SINGLE POINT ENERGY     -1339.877264612171

DIPOLE MOMENT
-------------
                                X             Y             Z
Electronic contribution:     10.08021     -28.07729       1.57131
Nuclear contribution   :    -10.47223      28.58109      -1.63071
                        -----------------------------------------
Total Dipole Moment    :     -0.39202       0.50380      -0.05940
                        -----------------------------------------
Magnitude (a.u.)       :      0.64111
Magnitude (Debye)      :      1.62957

Rotational constants in cm-1:     0.016412     0.010142     0.007223
Rotational constants in MHz :   492.019987   304.043994   216.536828

                             ****ORCA TERMINATED NORMALLY****
TOTAL RUN TIME: 0 days 0 hours 0 minutes 30 seconds 651 msec
