                         Program Version 4.2.1 -  RELEASE  -
|  1> ! wB97X-D3 SP def2-SVP
|  2> %pal
|  3> nprocs 16
|  4> end
|  5>
|  6> * xyz 0 1
|  7> S 	 4.8176 	 8.13029 	 80.0985
|  8> C 	 5.53835 	 6.61965 	 79.666
|  9> C 	 6.17649 	 5.98136 	 80.7235
| 10> C 	 6.25951 	 6.80265 	 81.8734
| 11> C 	 5.51187 	 7.96505 	 81.7067
| 12> H 	 6.74203 	 6.59646 	 82.796
| 13> C 	 6.52392 	 4.56344 	 80.6703
| 14> H 	 5.94152 	 4.17455 	 79.8517
| 15> H 	 6.24935 	 4.12992 	 81.6543
| 16> C 	 7.95504 	 4.24137 	 80.2817
| 17> H 	 7.95618 	 4.6405 	 79.2408
| 18> H 	 8.65638 	 4.75712 	 80.9482
| 19> C 	 8.22786 	 2.75091 	 80.358
| 20> H 	 7.36258 	 2.13793 	 79.9909
| 21> H 	 9.13586 	 2.3651 	 79.8704
| 22> H 	 8.26924 	 2.4699 	 81.4204
| 23> S 	 5.41443 	 10.639 	 81.9959
| 24> C 	 5.69421 	 11.4262 	 83.4839
| 25> C 	 5.64601 	 10.5261 	 84.528
| 26> C 	 5.47664 	 9.16744 	 84.0912
| 27> C 	 5.47498 	 9.05781 	 82.6724
| 28> H 	 5.5504 	 10.847 	 85.5105
| 29> C 	 5.31202 	 8.15015 	 85.1523
| 30> H 	 4.90422 	 7.24671 	 84.7036
| 31> H 	 4.46212 	 8.50834 	 85.7115
| 32> C 	 6.54912 	 7.67466 	 86.032
| 33> H 	 6.18582 	 6.94048 	 86.8141
| 34> H 	 6.78598 	 8.54917 	 86.6676
| 35> C 	 7.75879 	 7.08604 	 85.327
| 36> H 	 7.59231 	 5.99949 	 85.2074
| 37> H 	 8.60338 	 7.16226 	 86.0591
| 38> H 	 8.06272 	 7.5926 	 84.4178
| 39> H 	 5.50782 	 6.0685 	 78.7448
| 40> H 	 5.5348 	 12.4677 	 83.7007
| 41> *
| 42>
| 43>                          ****END OF INPUT****

CARTESIAN COORDINATES (ANGSTROEM)
---------------------------------
  S      4.817600    8.130290   80.098500
  C      5.538350    6.619650   79.666000
  C      6.176490    5.981360   80.723500
  C      6.259510    6.802650   81.873400
  C      5.511870    7.965050   81.706700
  H      6.742030    6.596460   82.796000
  C      6.523920    4.563440   80.670300
  H      5.941520    4.174550   79.851700
  H      6.249350    4.129920   81.654300
  C      7.955040    4.241370   80.281700
  H      7.956180    4.640500   79.240800
  H      8.656380    4.757120   80.948200
  C      8.227860    2.750910   80.358000
  H      7.362580    2.137930   79.990900
  H      9.135860    2.365100   79.870400
  H      8.269240    2.469900   81.420400
  S      5.414430   10.639000   81.995900
  C      5.694210   11.426200   83.483900
  C      5.646010   10.526100   84.528000
  C      5.476640    9.167440   84.091200
  C      5.474980    9.057810   82.672400
  H      5.550400   10.847000   85.510500
  C      5.312020    8.150150   85.152300
  H      4.904220    7.246710   84.703600
  H      4.462120    8.508340   85.711500
  C      6.549120    7.674660   86.032000
  H      6.185820    6.940480   86.814100
  H      6.785980    8.549170   86.667600
  C      7.758790    7.086040   85.327000
  H      7.592310    5.999490   85.207400
  H      8.603380    7.162260   86.059100
  H      8.062720    7.592600   84.417800
  H      5.507820    6.068500   78.744800
  H      5.534800   12.467700   83.700700

 Total Charge           Charge          ....    0
 Multiplicity           Mult            ....    1
 Number of Electrons    NEL             ....  134
 Basis Dimension        Dim             ....  322

ORBITAL ENERGIES
----------------

  NO   OCC          E(Eh)            E(eV)
   0   2.0000     -88.973084     -2421.0807
   1   2.0000     -88.962774     -2420.8001
   2   2.0000     -10.331224      -281.1269
   3   2.0000     -10.328220      -281.0452
   4   2.0000     -10.309361      -280.5320
   5   2.0000     -10.309300      -280.5303
   6   2.0000     -10.303357      -280.3686
   7   2.0000     -10.297519      -280.2097
   8   2.0000     -10.293613      -280.1035
   9   2.0000     -10.291167      -280.0369
  10   2.0000     -10.288694      -279.9696
  11   2.0000     -10.288298      -279.9588
  12   2.0000     -10.286453      -279.9086
  13   2.0000     -10.286311      -279.9048
  14   2.0000     -10.285555      -279.8842
  15   2.0000     -10.282740      -279.8076
  16   2.0000      -8.087508      -220.0723
  17   2.0000      -8.078877      -219.8374
  18   2.0000      -6.046018      -164.5205
  19   2.0000      -6.042197      -164.4165
  20   2.0000      -6.038168      -164.3069
  21   2.0000      -6.037385      -164.2856
  22   2.0000      -6.033082      -164.1685
  23   2.0000      -6.029662      -164.0754
  24   2.0000      -1.011210       -27.5164
  25   2.0000      -0.988778       -26.9060
  26   2.0000      -0.922425       -25.1005
  27   2.0000      -0.905971       -24.6527
  28   2.0000      -0.871261       -23.7082
  29   2.0000      -0.856435       -23.3048
  30   2.0000      -0.851601       -23.1732
  31   2.0000      -0.819218       -22.2920
  32   2.0000      -0.782229       -21.2855
  33   2.0000      -0.769475       -20.9385
  34   2.0000      -0.710645       -19.3376
  35   2.0000      -0.697812       -18.9884
  36   2.0000      -0.693013       -18.8579
  37   2.0000      -0.664033       -18.0693
  38   2.0000      -0.638312       -17.3694
  39   2.0000      -0.624845       -17.0029
  40   2.0000      -0.591514       -16.0959
  41   2.0000      -0.577364       -15.7109
  42   2.0000      -0.565923       -15.3996
  43   2.0000      -0.552568       -15.0361
  44   2.0000      -0.544407       -14.8141
  45   2.0000      -0.525057       -14.2875
  46   2.0000      -0.514944       -14.0124
  47   2.0000      -0.510156       -13.8820
  48   2.0000      -0.505808       -13.7637
  49   2.0000      -0.501004       -13.6330
  50   2.0000      -0.495544       -13.4844
  51   2.0000      -0.481189       -13.0938
  52   2.0000      -0.471397       -12.8274
  53   2.0000      -0.463649       -12.6165
  54   2.0000      -0.458863       -12.4863
  55   2.0000      -0.454223       -12.3600
  56   2.0000      -0.448306       -12.1990
  57   2.0000      -0.441112       -12.0033
  58   2.0000      -0.434416       -11.8211
  59   2.0000      -0.428586       -11.6624
  60   2.0000      -0.423198       -11.5158
  61   2.0000      -0.416443       -11.3320
  62   2.0000      -0.404773       -11.0144
  63   2.0000      -0.355348        -9.6695
  64   2.0000      -0.333118        -9.0646
  65   2.0000      -0.323542        -8.8040
  66   2.0000      -0.281843        -7.6693
  67   0.0000       0.023214         0.6317
  68   0.0000       0.079968         2.1760
  69   0.0000       0.097154         2.6437
  70   0.0000       0.119527         3.2525
  71   0.0000       0.125715         3.4209

MULLIKEN ATOMIC CHARGES
-----------------------
   0 S :    0.128102
   1 C :   -0.098646
   2 C :   -0.083855
   3 C :    0.043620
   4 C :   -0.121755
   5 H :   -0.037458
   6 C :    0.043210
   7 H :    0.013172
   8 H :    0.031892
   9 C :   -0.066478
  10 H :    0.027041
  11 H :    0.034698
  12 C :   -0.044301
  13 H :    0.025483
  14 H :    0.046034
  15 H :    0.024684
  16 S :    0.100276
  17 C :   -0.068776
  18 C :   -0.029847
  19 C :   -0.064584
  20 C :   -0.142309
  21 H :   -0.004775
  22 C :    0.055405
  23 H :    0.009307
  24 H :    0.030490
  25 C :   -0.093650
  26 H :    0.035668
  27 H :    0.026245
  28 C :   -0.054123
  29 H :    0.042843
  30 H :    0.040867
  31 H :    0.062267
  32 H :    0.032468
  33 H :    0.056787
Sum of atomic charges:   -0.0000000

LOEWDIN ATOMIC CHARGES
----------------------
   0 S :    0.413093
   1 C :   -0.207147
   2 C :   -0.061320
   3 C :   -0.051667
   4 C :   -0.185921
   5 H :    0.025212
   6 C :   -0.034595
   7 H :    0.029554
   8 H :    0.032689
   9 C :   -0.040658
  10 H :    0.027356
  11 H :    0.024359
  12 C :   -0.074099
  13 H :    0.027427
  14 H :    0.028255
  15 H :    0.026573
  16 S :    0.434681
  17 C :   -0.204090
  18 C :   -0.062219
  19 C :   -0.064130
  20 C :   -0.204936
  21 H :    0.019136
  22 C :   -0.044446
  23 H :    0.025647
  24 H :    0.036804
  25 C :   -0.044829
  26 H :    0.032064
  27 H :    0.019923
  28 C :   -0.073062
  29 H :    0.029407
  30 H :    0.038009
  31 H :    0.027983
  32 H :    0.024833
  33 H :    0.030112

  Mayer bond orders larger than 0.100000
B(  0-S ,  1-C ) :   1.1303 B(  0-S ,  4-C ) :   1.1470 B(  1-C ,  2-C ) :   1.6136
B(  1-C , 32-H ) :   0.9578 B(  2-C ,  3-C ) :   1.2411 B(  2-C ,  6-C ) :   1.0299
B(  3-C ,  4-C ) :   1.5557 B(  3-C ,  5-H ) :   0.9951 B(  4-C , 20-C ) :   1.0649
B(  6-C ,  7-H ) :   0.9342 B(  6-C ,  8-H ) :   0.9407 B(  6-C ,  9-C ) :   1.0573
B(  9-C , 10-H ) :   0.9539 B(  9-C , 11-H ) :   0.9602 B(  9-C , 12-C ) :   1.0780
B( 12-C , 13-H ) :   0.9698 B( 12-C , 14-H ) :   0.9751 B( 12-C , 15-H ) :   0.9721
B( 16-S , 17-C ) :   1.1718 B( 16-S , 20-C ) :   1.1588 B( 17-C , 18-C ) :   1.5794
B( 17-C , 33-H ) :   0.9637 B( 18-C , 19-C ) :   1.2738 B( 18-C , 21-H ) :   0.9972
B( 19-C , 20-C ) :   1.5228 B( 19-C , 22-C ) :   1.0586 B( 22-C , 23-H ) :   0.9292
B( 22-C , 24-H ) :   0.9315 B( 22-C , 25-C ) :   1.0570 B( 25-C , 26-H ) :   0.9542
B( 25-C , 27-H ) :   0.9615 B( 25-C , 28-C ) :   1.0781 B( 28-C , 29-H ) :   0.9670
B( 28-C , 30-H ) :   0.9675 B( 28-C , 31-H ) :   0.9656

Dispersion correction           -0.014305142
FINAL SINGLE POINT ENERGY     -1339.870533941749

DIPOLE MOMENT
-------------
                                X             Y             Z
Electronic contribution:    -13.94786      24.79844     -11.80569
Nuclear contribution   :     14.04112     -25.27009      12.31322
                        -----------------------------------------
Total Dipole Moment    :      0.09326      -0.47165       0.50752
                        -----------------------------------------
Magnitude (a.u.)       :      0.69909
Magnitude (Debye)      :      1.77695

Rotational constants in cm-1:     0.019208     0.008841     0.006457
Rotational constants in MHz :   575.832611   265.057865   193.573099

                             ****ORCA TERMINATED NORMALLY****
TOTAL RUN TIME: 0 days 0 hours 0 minutes 35 seconds 499 msec
