                         Program Version 4.2.1 -  RELEASE  -
|  1> ! wB97X-D3 SP def2-SVP
|  2> %pal
|  3> nprocs 16
|  4> end
|  5>
|  6> * xyz 0 1
|  7> S 	 48.2937 	 16.0749 	 82.1944
|  8> C 	 47.5389 	 17.6278 	 82.3657
|  9> C 	 48.4136 	 18.5809 	 82.9234
| 10> C 	 49.6957 	 18.0214 	 83.0947
| 11> C 	 49.8581 	 16.6177 	 82.8756
| 12> H 	 50.5282 	 18.484 	 83.4848
| 13> C 	 48.1455 	 19.9738 	 83.2993
| 14> H 	 49.1067 	 20.5097 	 83.2847
| 15> H 	 47.7901 	 19.9168 	 84.3277
| 16> C 	 47.0594 	 20.669 	 82.4228
| 17> H 	 46.0455 	 20.2977 	 82.5043
| 18> H 	 46.9514 	 21.6684 	 82.9225
| 19> C 	 47.425 	 20.7694 	 80.9793
| 20> H 	 48.2953 	 21.331 	 80.8888
| 21> H 	 47.3892 	 19.8127 	 80.4654
| 22> H 	 46.714 	 21.2115 	 80.4282
| 23> S 	 50.803 	 14.3808 	 84.0118
| 24> C 	 52.4403 	 13.8716 	 83.6411
| 25> C 	 53.1459 	 14.8545 	 82.9759
| 26> C 	 52.3085 	 15.9108 	 82.5275
| 27> C 	 51.0206 	 15.7533 	 83.0283
| 28> H 	 54.1581 	 14.6678 	 82.6577
| 29> C 	 52.7921 	 17.0207 	 81.6276
| 30> H 	 51.9104 	 17.653 	 81.4467
| 31> H 	 53.0916 	 16.411 	 80.7036
| 32> C 	 54.11 	 17.7342 	 82.083
| 33> H 	 54.2487 	 18.6478 	 81.6003
| 34> H 	 54.9586 	 17.0642 	 81.766
| 35> C 	 54.1863 	 17.9077 	 83.586
| 36> H 	 54.4359 	 17.0436 	 84.11
| 37> H 	 53.1981 	 18.2161 	 84.0315
| 38> H 	 54.8819 	 18.6749 	 83.9176
| 39> H 	 46.5462 	 17.7912 	 82.4156
| 40> H 	 52.7874 	 12.8935 	 83.8638
| 41> *
| 42>
| 43>                          ****END OF INPUT****

CARTESIAN COORDINATES (ANGSTROEM)
---------------------------------
  S     48.293700   16.074900   82.194400
  C     47.538900   17.627800   82.365700
  C     48.413600   18.580900   82.923400
  C     49.695700   18.021400   83.094700
  C     49.858100   16.617700   82.875600
  H     50.528200   18.484000   83.484800
  C     48.145500   19.973800   83.299300
  H     49.106700   20.509700   83.284700
  H     47.790100   19.916800   84.327700
  C     47.059400   20.669000   82.422800
  H     46.045500   20.297700   82.504300
  H     46.951400   21.668400   82.922500
  C     47.425000   20.769400   80.979300
  H     48.295300   21.331000   80.888800
  H     47.389200   19.812700   80.465400
  H     46.714000   21.211500   80.428200
  S     50.803000   14.380800   84.011800
  C     52.440300   13.871600   83.641100
  C     53.145900   14.854500   82.975900
  C     52.308500   15.910800   82.527500
  C     51.020600   15.753300   83.028300
  H     54.158100   14.667800   82.657700
  C     52.792100   17.020700   81.627600
  H     51.910400   17.653000   81.446700
  H     53.091600   16.411000   80.703600
  C     54.110000   17.734200   82.083000
  H     54.248700   18.647800   81.600300
  H     54.958600   17.064200   81.766000
  C     54.186300   17.907700   83.586000
  H     54.435900   17.043600   84.110000
  H     53.198100   18.216100   84.031500
  H     54.881900   18.674900   83.917600
  H     46.546200   17.791200   82.415600
  H     52.787400   12.893500   83.863800

 Total Charge           Charge          ....    0
 Multiplicity           Mult            ....    1
 Number of Electrons    NEL             ....  134
 Basis Dimension        Dim             ....  322

ORBITAL ENERGIES
----------------

  NO   OCC          E(Eh)            E(eV)
   0   2.0000     -88.965477     -2420.8737
   1   2.0000     -88.963312     -2420.8148
   2   2.0000     -10.331656      -281.1387
   3   2.0000     -10.321248      -280.8554
   4   2.0000     -10.316329      -280.7216
   5   2.0000     -10.303518      -280.3730
   6   2.0000     -10.302281      -280.3393
   7   2.0000     -10.297316      -280.2042
   8   2.0000     -10.296141      -280.1722
   9   2.0000     -10.293699      -280.1058
  10   2.0000     -10.292592      -280.0757
  11   2.0000     -10.289537      -279.9925
  12   2.0000     -10.288271      -279.9581
  13   2.0000     -10.286922      -279.9214
  14   2.0000     -10.271327      -279.4970
  15   2.0000     -10.257571      -279.1227
  16   2.0000      -8.081213      -219.9010
  17   2.0000      -8.077264      -219.7935
  18   2.0000      -6.039545      -164.3444
  19   2.0000      -6.035784      -164.2420
  20   2.0000      -6.035628      -164.2378
  21   2.0000      -6.032040      -164.1402
  22   2.0000      -6.031625      -164.1289
  23   2.0000      -6.028327      -164.0391
  24   2.0000      -1.007791       -27.4234
  25   2.0000      -0.981803       -26.7162
  26   2.0000      -0.915567       -24.9139
  27   2.0000      -0.909802       -24.7570
  28   2.0000      -0.869222       -23.6527
  29   2.0000      -0.853157       -23.2156
  30   2.0000      -0.850206       -23.1353
  31   2.0000      -0.813518       -22.1370
  32   2.0000      -0.785776       -21.3821
  33   2.0000      -0.773836       -21.0572
  34   2.0000      -0.711665       -19.3654
  35   2.0000      -0.708235       -19.2720
  36   2.0000      -0.695409       -18.9230
  37   2.0000      -0.664803       -18.0902
  38   2.0000      -0.643828       -17.5195
  39   2.0000      -0.607875       -16.5411
  40   2.0000      -0.588998       -16.0274
  41   2.0000      -0.580228       -15.7888
  42   2.0000      -0.564159       -15.3515
  43   2.0000      -0.556200       -15.1350
  44   2.0000      -0.547182       -14.8896
  45   2.0000      -0.536656       -14.6032
  46   2.0000      -0.520574       -14.1655
  47   2.0000      -0.516360       -14.0509
  48   2.0000      -0.501412       -13.6441
  49   2.0000      -0.496314       -13.5054
  50   2.0000      -0.492033       -13.3889
  51   2.0000      -0.477814       -13.0020
  52   2.0000      -0.472691       -12.8626
  53   2.0000      -0.466565       -12.6959
  54   2.0000      -0.460269       -12.5245
  55   2.0000      -0.449253       -12.2248
  56   2.0000      -0.443925       -12.0798
  57   2.0000      -0.434961       -11.8359
  58   2.0000      -0.431474       -11.7410
  59   2.0000      -0.428706       -11.6657
  60   2.0000      -0.419468       -11.4143
  61   2.0000      -0.416776       -11.3410
  62   2.0000      -0.410127       -11.1601
  63   2.0000      -0.340715        -9.2713
  64   2.0000      -0.327791        -8.9197
  65   2.0000      -0.324442        -8.8285
  66   2.0000      -0.290484        -7.9045
  67   0.0000       0.026670         0.7257
  68   0.0000       0.069705         1.8968
  69   0.0000       0.114648         3.1197
  70   0.0000       0.120456         3.2778
  71   0.0000       0.126583         3.4445

MULLIKEN ATOMIC CHARGES
-----------------------
   0 S :    0.107535
   1 C :   -0.058751
   2 C :   -0.124137
   3 C :    0.054933
   4 C :   -0.177591
   5 H :   -0.033028
   6 C :    0.083575
   7 H :    0.032546
   8 H :    0.045657
   9 C :   -0.110870
  10 H :    0.022361
  11 H :    0.026558
  12 C :    0.044727
  13 H :    0.018430
  14 H :    0.031467
  15 H :   -0.009021
  16 S :    0.124173
  17 C :   -0.089744
  18 C :   -0.025488
  19 C :   -0.053494
  20 C :   -0.176369
  21 H :    0.018119
  22 C :    0.053680
  23 H :    0.041231
  24 H :    0.051236
  25 C :   -0.051045
  26 H :    0.026423
  27 H :    0.029475
  28 C :   -0.032175
  29 H :    0.017591
  30 H :    0.029093
  31 H :    0.029595
  32 H :    0.007715
  33 H :    0.045594
Sum of atomic charges:    0.0000000

LOEWDIN ATOMIC CHARGES
----------------------
   0 S :    0.403399
   1 C :   -0.197801
   2 C :   -0.059926
   3 C :   -0.058774
   4 C :   -0.188460
   5 H :    0.011169
   6 C :   -0.032109
   7 H :    0.036118
   8 H :    0.041424
   9 C :   -0.042234
  10 H :    0.021288
  11 H :    0.028811
  12 C :   -0.056119
  13 H :    0.020248
  14 H :    0.034046
  15 H :    0.013292
  16 S :    0.428623
  17 C :   -0.171696
  18 C :   -0.068270
  19 C :   -0.052709
  20 C :   -0.226600
  21 H :    0.030473
  22 C :   -0.034928
  23 H :    0.033053
  24 H :    0.047105
  25 C :   -0.036176
  26 H :    0.019243
  27 H :    0.029572
  28 C :   -0.068624
  29 H :    0.016882
  30 H :    0.029873
  31 H :    0.025647
  32 H :    0.003760
  33 H :    0.020403

  Mayer bond orders larger than 0.100000
B(  0-S ,  1-C ) :   1.1595 B(  0-S ,  4-C ) :   1.1579 B(  1-C ,  2-C ) :   1.5609
B(  1-C ,  4-C ) :   0.1163 B(  1-C , 32-H ) :   0.9676 B(  2-C ,  3-C ) :   1.2873
B(  2-C ,  6-C ) :   1.0216 B(  3-C ,  4-C ) :   1.5291 B(  3-C ,  5-H ) :   1.0048
B(  4-C , 20-C ) :   1.0321 B(  6-C ,  7-H ) :   0.9441 B(  6-C ,  8-H ) :   0.9202
B(  6-C ,  9-C ) :   1.0802 B(  9-C , 10-H ) :   0.9508 B(  9-C , 11-H ) :   0.9532
B(  9-C , 12-C ) :   1.0940 B( 12-C , 13-H ) :   0.9738 B( 12-C , 14-H ) :   0.9605
B( 12-C , 15-H ) :   0.9591 B( 16-S , 17-C ) :   1.1588 B( 16-S , 20-C ) :   1.1620
B( 17-C , 18-C ) :   1.6013 B( 17-C , 33-H ) :   0.9749 B( 18-C , 19-C ) :   1.2366
B( 18-C , 21-H ) :   0.9867 B( 19-C , 20-C ) :   1.5768 B( 19-C , 22-C ) :   1.0405
B( 22-C , 23-H ) :   0.9324 B( 22-C , 24-H ) :   0.9355 B( 22-C , 25-C ) :   1.0556
B( 25-C , 26-H ) :   0.9615 B( 25-C , 27-H ) :   0.9484 B( 25-C , 28-C ) :   1.0955
B( 28-C , 29-H ) :   0.9630 B( 28-C , 30-H ) :   0.9719 B( 28-C , 31-H ) :   0.9720

Dispersion correction           -0.015077234
FINAL SINGLE POINT ENERGY     -1339.853625403671

DIPOLE MOMENT
-------------
                                X             Y             Z
Electronic contribution:     -6.42707     -24.22548       4.75651
Nuclear contribution   :      6.75000      24.72421      -4.75280
                        -----------------------------------------
Total Dipole Moment    :      0.32293       0.49873       0.00371
                        -----------------------------------------
Magnitude (a.u.)       :      0.59417
Magnitude (Debye)      :      1.51025

Rotational constants in cm-1:     0.021664     0.008383     0.006668
Rotational constants in MHz :   649.459328   251.320940   199.895138

                             ****ORCA TERMINATED NORMALLY****
TOTAL RUN TIME: 0 days 0 hours 0 minutes 31 seconds 65 msec
