                         Program Version 4.2.1 -  RELEASE  -
|  1> ! wB97X-D3 SP def2-SVP
|  2> %pal
|  3> nprocs 16
|  4> end
|  5>
|  6> * xyz 0 1
|  7> S 	 -102.188 	 45.8266 	 122.724
|  8> C 	 -103.137 	 46.2697 	 124.156
|  9> C 	 -102.427 	 47.2608 	 124.85
| 10> C 	 -101.262 	 47.787 	 124.184
| 11> C 	 -101.045 	 47.1264 	 122.998
| 12> H 	 -100.559 	 48.5353 	 124.537
| 13> C 	 -102.781 	 47.6906 	 126.274
| 14> H 	 -101.888 	 48.1948 	 126.62
| 15> H 	 -102.881 	 46.7735 	 126.856
| 16> C 	 -104.014 	 48.6153 	 126.372
| 17> H 	 -104.097 	 49.2091 	 125.494
| 18> H 	 -104.89 	 48.0063 	 126.416
| 19> C 	 -103.993 	 49.5125 	 127.62
| 20> H 	 -104.936 	 49.9623 	 127.702
| 21> H 	 -103.841 	 48.9445 	 128.501
| 22> H 	 -103.295 	 50.3358 	 127.467
| 23> S 	 -98.872 	 46.2194 	 121.447
| 24> C 	 -97.9901 	 47.2766 	 120.382
| 25> C 	 -98.4835 	 48.5277 	 120.452
| 26> C 	 -99.6196 	 48.6698 	 121.297
| 27> C 	 -99.9384 	 47.4844 	 122.019
| 28> H 	 -98.1713 	 49.2442 	 119.708
| 29> C 	 -100.267 	 50.025 	 121.522
| 30> H 	 -99.4212 	 50.7407 	 121.671
| 31> H 	 -100.948 	 49.9022 	 122.451
| 32> C 	 -101.218 	 50.5398 	 120.377
| 33> H 	 -102.174 	 50.0308 	 120.304
| 34> H 	 -100.662 	 50.4689 	 119.494
| 35> C 	 -101.696 	 51.9821 	 120.6
| 36> H 	 -102.193 	 51.9586 	 121.566
| 37> H 	 -102.403 	 52.2215 	 119.811
| 38> H 	 -100.833 	 52.6345 	 120.607
| 39> H 	 -103.986 	 45.6679 	 124.595
| 40> H 	 -97.0553 	 47.0371 	 119.867
| 41> *
| 42>
| 43>                          ****END OF INPUT****

CARTESIAN COORDINATES (ANGSTROEM)
---------------------------------
  S    -102.188000   45.826600  122.724000
  C    -103.137000   46.269700  124.156000
  C    -102.427000   47.260800  124.850000
  C    -101.262000   47.787000  124.184000
  C    -101.045000   47.126400  122.998000
  H    -100.559000   48.535300  124.537000
  C    -102.781000   47.690600  126.274000
  H    -101.888000   48.194800  126.620000
  H    -102.881000   46.773500  126.856000
  C    -104.014000   48.615300  126.372000
  H    -104.097000   49.209100  125.494000
  H    -104.890000   48.006300  126.416000
  C    -103.993000   49.512500  127.620000
  H    -104.936000   49.962300  127.702000
  H    -103.841000   48.944500  128.501000
  H    -103.295000   50.335800  127.467000
  S    -98.872000   46.219400  121.447000
  C    -97.990100   47.276600  120.382000
  C    -98.483500   48.527700  120.452000
  C    -99.619600   48.669800  121.297000
  C    -99.938400   47.484400  122.019000
  H    -98.171300   49.244200  119.708000
  C    -100.267000   50.025000  121.522000
  H    -99.421200   50.740700  121.671000
  H    -100.948000   49.902200  122.451000
  C    -101.218000   50.539800  120.377000
  H    -102.174000   50.030800  120.304000
  H    -100.662000   50.468900  119.494000
  C    -101.696000   51.982100  120.600000
  H    -102.193000   51.958600  121.566000
  H    -102.403000   52.221500  119.811000
  H    -100.833000   52.634500  120.607000
  H    -103.986000   45.667900  124.595000
  H    -97.055300   47.037100  119.867000

 Total Charge           Charge          ....    0
 Multiplicity           Mult            ....    1
 Number of Electrons    NEL             ....  134
 Basis Dimension        Dim             ....  322

ORBITAL ENERGIES
----------------

  NO   OCC          E(Eh)            E(eV)
   0   2.0000     -88.968607     -2420.9589
   1   2.0000     -88.963420     -2420.8177
   2   2.0000     -10.337012      -281.2844
   3   2.0000     -10.334375      -281.2126
   4   2.0000     -10.321506      -280.8624
   5   2.0000     -10.315578      -280.7011
   6   2.0000     -10.306421      -280.4520
   7   2.0000     -10.304848      -280.4092
   8   2.0000     -10.300057      -280.2788
   9   2.0000     -10.297184      -280.2006
  10   2.0000     -10.288594      -279.9669
  11   2.0000     -10.288556      -279.9658
  12   2.0000     -10.280518      -279.7471
  13   2.0000     -10.278857      -279.7019
  14   2.0000     -10.273881      -279.5665
  15   2.0000     -10.270623      -279.4779
  16   2.0000      -8.082659      -219.9403
  17   2.0000      -8.078387      -219.8241
  18   2.0000      -6.041285      -164.3917
  19   2.0000      -6.037228      -164.2813
  20   2.0000      -6.036833      -164.2706
  21   2.0000      -6.033349      -164.1758
  22   2.0000      -6.032697      -164.1580
  23   2.0000      -6.029362      -164.0673
  24   2.0000      -1.002837       -27.2886
  25   2.0000      -0.983947       -26.7746
  26   2.0000      -0.909223       -24.7412
  27   2.0000      -0.903008       -24.5721
  28   2.0000      -0.865870       -23.5615
  29   2.0000      -0.851972       -23.1833
  30   2.0000      -0.847624       -23.0650
  31   2.0000      -0.819169       -22.2907
  32   2.0000      -0.777737       -21.1633
  33   2.0000      -0.764059       -20.7911
  34   2.0000      -0.705607       -19.2005
  35   2.0000      -0.698226       -18.9997
  36   2.0000      -0.688182       -18.7264
  37   2.0000      -0.655630       -17.8406
  38   2.0000      -0.639384       -17.3985
  39   2.0000      -0.617345       -16.7988
  40   2.0000      -0.590447       -16.0669
  41   2.0000      -0.571315       -15.5463
  42   2.0000      -0.566303       -15.4099
  43   2.0000      -0.565495       -15.3879
  44   2.0000      -0.528090       -14.3701
  45   2.0000      -0.524311       -14.2672
  46   2.0000      -0.521279       -14.1847
  47   2.0000      -0.515494       -14.0273
  48   2.0000      -0.501384       -13.6434
  49   2.0000      -0.499397       -13.5893
  50   2.0000      -0.485223       -13.2036
  51   2.0000      -0.481908       -13.1134
  52   2.0000      -0.471338       -12.8258
  53   2.0000      -0.466646       -12.6981
  54   2.0000      -0.459895       -12.5144
  55   2.0000      -0.447385       -12.1740
  56   2.0000      -0.444131       -12.0854
  57   2.0000      -0.439734       -11.9658
  58   2.0000      -0.430612       -11.7175
  59   2.0000      -0.423128       -11.5139
  60   2.0000      -0.418544       -11.3892
  61   2.0000      -0.414299       -11.2737
  62   2.0000      -0.410334       -11.1658
  63   2.0000      -0.347184        -9.4473
  64   2.0000      -0.331618        -9.0238
  65   2.0000      -0.326837        -8.8937
  66   2.0000      -0.295815        -8.0495
  67   0.0000       0.031902         0.8681
  68   0.0000       0.066090         1.7984
  69   0.0000       0.109264         2.9732
  70   0.0000       0.120738         3.2854
  71   0.0000       0.133392         3.6298

MULLIKEN ATOMIC CHARGES
-----------------------
   0 S :    0.115105
   1 C :   -0.138321
   2 C :   -0.127076
   3 C :    0.028222
   4 C :   -0.130523
   5 H :    0.030969
   6 C :    0.068773
   7 H :    0.010503
   8 H :    0.035758
   9 C :   -0.051886
  10 H :    0.024290
  11 H :    0.017346
  12 C :   -0.018556
  13 H :    0.015502
  14 H :    0.027439
  15 H :    0.033871
  16 S :    0.093352
  17 C :   -0.089455
  18 C :   -0.030702
  19 C :   -0.025331
  20 C :   -0.172611
  21 H :    0.025004
  22 C :   -0.004350
  23 H :    0.042053
  24 H :    0.037363
  25 C :   -0.066069
  26 H :    0.035870
  27 H :    0.011814
  28 C :   -0.035711
  29 H :    0.028501
  30 H :    0.040053
  31 H :    0.025957
  32 H :    0.076394
  33 H :    0.066452
Sum of atomic charges:   -0.0000000

LOEWDIN ATOMIC CHARGES
----------------------
   0 S :    0.400012
   1 C :   -0.211587
   2 C :   -0.058721
   3 C :   -0.070176
   4 C :   -0.187027
   5 H :    0.038092
   6 C :   -0.031176
   7 H :    0.025187
   8 H :    0.032209
   9 C :   -0.031918
  10 H :    0.020839
  11 H :    0.019031
  12 C :   -0.055044
  13 H :    0.020136
  14 H :    0.021257
  15 H :    0.026720
  16 S :    0.407202
  17 C :   -0.186175
  18 C :   -0.081909
  19 C :   -0.058603
  20 C :   -0.202063
  21 H :    0.033201
  22 C :   -0.040446
  23 H :    0.035573
  24 H :    0.038342
  25 C :   -0.035175
  26 H :    0.028257
  27 H :    0.009482
  28 C :   -0.058779
  29 H :    0.024680
  30 H :    0.027463
  31 H :    0.019009
  32 H :    0.044504
  33 H :    0.037601

  Mayer bond orders larger than 0.100000
B(  0-S ,  1-C ) :   1.1208 B(  0-S ,  4-C ) :   1.1678 B(  1-C ,  2-C ) :   1.6083
B(  1-C , 32-H ) :   0.9640 B(  2-C ,  3-C ) :   1.2359 B(  2-C ,  6-C ) :   1.0200
B(  3-C ,  4-C ) :   1.5739 B(  3-C ,  5-H ) :   0.9896 B(  4-C , 20-C ) :   1.0051
B(  6-C ,  7-H ) :   0.9492 B(  6-C ,  8-H ) :   0.9384 B(  6-C ,  9-C ) :   1.0524
B(  9-C , 10-H ) :   0.9616 B(  9-C , 11-H ) :   0.9536 B(  9-C , 12-C ) :   1.0945
B( 12-C , 13-H ) :   0.9723 B( 12-C , 14-H ) :   0.9746 B( 12-C , 15-H ) :   0.9767
B( 16-S , 17-C ) :   1.1623 B( 16-S , 20-C ) :   1.1516 B( 17-C , 18-C ) :   1.6129
B( 17-C , 33-H ) :   0.9609 B( 18-C , 19-C ) :   1.2623 B( 18-C , 21-H ) :   0.9835
B( 19-C , 20-C ) :   1.5714 B( 19-C , 22-C ) :   1.0398 B( 22-C , 23-H ) :   0.9431
B( 22-C , 24-H ) :   0.9344 B( 22-C , 25-C ) :   1.0621 B( 25-C , 26-H ) :   0.9581
B( 25-C , 27-H ) :   0.9595 B( 25-C , 28-C ) :   1.0820 B( 28-C , 29-H ) :   0.9758
B( 28-C , 30-H ) :   0.9757 B( 28-C , 31-H ) :   0.9763

Dispersion correction           -0.013336973
FINAL SINGLE POINT ENERGY     -1339.874943468363

DIPOLE MOMENT
-------------
                                X             Y             Z
Electronic contribution:     12.96251     -25.16628     -11.26901
Nuclear contribution   :    -13.05783      25.68722      11.51783
                        -----------------------------------------
Total Dipole Moment    :     -0.09532       0.52094       0.24882
                        -----------------------------------------
Magnitude (a.u.)       :      0.58513
Magnitude (Debye)      :      1.48727

Rotational constants in cm-1:     0.017264     0.008179     0.006262
Rotational constants in MHz :   517.568699   245.208908   187.722062

                             ****ORCA TERMINATED NORMALLY****
TOTAL RUN TIME: 0 days 0 hours 0 minutes 31 seconds 543 msec
