                         Program Version 4.2.1 -  RELEASE  -
|  1> ! wB97X-D3 SP def2-SVP
|  2> %pal
|  3> nprocs 16
|  4> end
|  5>
|  6> * xyz 0 1
|  7> S 	 4.11469 	 -4.36717 	 74.7144
|  8> C 	 4.287 	 -5.58623 	 75.9204
|  9> C 	 3.62385 	 -5.19053 	 77.0879
| 10> C 	 2.96776 	 -3.92559 	 76.9234
| 11> C 	 2.92674 	 -3.43825 	 75.627
| 12> H 	 2.43254 	 -3.4164 	 77.7012
| 13> C 	 3.58543 	 -5.97679 	 78.319
| 14> H 	 3.55902 	 -5.13058 	 79.0503
| 15> H 	 4.53562 	 -6.50897 	 78.4452
| 16> C 	 2.60875 	 -7.09843 	 78.6092
| 17> H 	 2.81587 	 -7.71598 	 79.485
| 18> H 	 1.54877 	 -6.79608 	 78.7713
| 19> C 	 2.48463 	 -8.06742 	 77.3856
| 20> H 	 1.84722 	 -8.83897 	 77.6408
| 21> H 	 1.82762 	 -7.62466 	 76.6036
| 22> H 	 3.4153 	 -8.47207 	 77.0178
| 23> S 	 3.39592 	 -1.00852 	 74.2939
| 24> C 	 2.01595 	 -0.000636033 	 73.956
| 25> C 	 0.977649 	 -0.386793 	 74.7812
| 26> C 	 1.13225 	 -1.64547 	 75.3337
| 27> C 	 2.35041 	 -2.21571 	 75.0905
| 28> H 	 0.151679 	 0.29375 	 74.9376
| 29> C 	 0.110171 	 -2.08787 	 76.3586
| 30> H 	 -0.157779 	 -1.35055 	 77.1075
| 31> H 	 0.498067 	 -2.90073 	 76.9158
| 32> C 	 -1.21599 	 -2.75562 	 75.9114
| 33> H 	 -1.87241 	 -3.09325 	 76.7998
| 34> H 	 -0.978586 	 -3.62789 	 75.3033
| 35> C 	 -2.17578 	 -1.91254 	 75.0308
| 36> H 	 -1.55718 	 -1.5575 	 74.2322
| 37> H 	 -2.52826 	 -1.01682 	 75.546
| 38> H 	 -3.02006 	 -2.62224 	 74.7724
| 39> H 	 4.7476 	 -6.58928 	 75.8967
| 40> H 	 2.05654 	 0.943754 	 73.4877
| 41> *
| 42>
| 43>                          ****END OF INPUT****

CARTESIAN COORDINATES (ANGSTROEM)
---------------------------------
  S      4.114690   -4.367170   74.714400
  C      4.287000   -5.586230   75.920400
  C      3.623850   -5.190530   77.087900
  C      2.967760   -3.925590   76.923400
  C      2.926740   -3.438250   75.627000
  H      2.432540   -3.416400   77.701200
  C      3.585430   -5.976790   78.319000
  H      3.559020   -5.130580   79.050300
  H      4.535620   -6.508970   78.445200
  C      2.608750   -7.098430   78.609200
  H      2.815870   -7.715980   79.485000
  H      1.548770   -6.796080   78.771300
  C      2.484630   -8.067420   77.385600
  H      1.847220   -8.838970   77.640800
  H      1.827620   -7.624660   76.603600
  H      3.415300   -8.472070   77.017800
  S      3.395920   -1.008520   74.293900
  C      2.015950   -0.000636   73.956000
  C      0.977649   -0.386793   74.781200
  C      1.132250   -1.645470   75.333700
  C      2.350410   -2.215710   75.090500
  H      0.151679    0.293750   74.937600
  C      0.110171   -2.087870   76.358600
  H     -0.157779   -1.350550   77.107500
  H      0.498067   -2.900730   76.915800
  C     -1.215990   -2.755620   75.911400
  H     -1.872410   -3.093250   76.799800
  H     -0.978586   -3.627890   75.303300
  C     -2.175780   -1.912540   75.030800
  H     -1.557180   -1.557500   74.232200
  H     -2.528260   -1.016820   75.546000
  H     -3.020060   -2.622240   74.772400
  H      4.747600   -6.589280   75.896700
  H      2.056540    0.943754   73.487700

 Total Charge           Charge          ....    0
 Multiplicity           Mult            ....    1
 Number of Electrons    NEL             ....  134
 Basis Dimension        Dim             ....  322

ORBITAL ENERGIES
----------------

  NO   OCC          E(Eh)            E(eV)
   0   2.0000     -88.968508     -2420.9562
   1   2.0000     -88.966173     -2420.8927
   2   2.0000     -10.332608      -281.1646
   3   2.0000     -10.331577      -281.1365
   4   2.0000     -10.316224      -280.7187
   5   2.0000     -10.315494      -280.6989
   6   2.0000     -10.300245      -280.2839
   7   2.0000     -10.299722      -280.2697
   8   2.0000     -10.296419      -280.1798
   9   2.0000     -10.293162      -280.0912
  10   2.0000     -10.292239      -280.0661
  11   2.0000     -10.290597      -280.0214
  12   2.0000     -10.289181      -279.9829
  13   2.0000     -10.287269      -279.9308
  14   2.0000     -10.274865      -279.5933
  15   2.0000     -10.273893      -279.5669
  16   2.0000      -8.082878      -219.9463
  17   2.0000      -8.080939      -219.8935
  18   2.0000      -6.041397      -164.3948
  19   2.0000      -6.039471      -164.3424
  20   2.0000      -6.037685      -164.2938
  21   2.0000      -6.035272      -164.2281
  22   2.0000      -6.033373      -164.1764
  23   2.0000      -6.031819      -164.1341
  24   2.0000      -1.011964       -27.5369
  25   2.0000      -0.990732       -26.9592
  26   2.0000      -0.916590       -24.9417
  27   2.0000      -0.906227       -24.6597
  28   2.0000      -0.871955       -23.7271
  29   2.0000      -0.852905       -23.2087
  30   2.0000      -0.846856       -23.0441
  31   2.0000      -0.816799       -22.2262
  32   2.0000      -0.787941       -21.4410
  33   2.0000      -0.777703       -21.1624
  34   2.0000      -0.713470       -19.4145
  35   2.0000      -0.702001       -19.1024
  36   2.0000      -0.682871       -18.5819
  37   2.0000      -0.666333       -18.1319
  38   2.0000      -0.638485       -17.3741
  39   2.0000      -0.624004       -16.9800
  40   2.0000      -0.600430       -16.3385
  41   2.0000      -0.570155       -15.5147
  42   2.0000      -0.555245       -15.1090
  43   2.0000      -0.551547       -15.0084
  44   2.0000      -0.549584       -14.9549
  45   2.0000      -0.540512       -14.7081
  46   2.0000      -0.519367       -14.1327
  47   2.0000      -0.516149       -14.0451
  48   2.0000      -0.509989       -13.8775
  49   2.0000      -0.500467       -13.6184
  50   2.0000      -0.489199       -13.3118
  51   2.0000      -0.478827       -13.0296
  52   2.0000      -0.475085       -12.9277
  53   2.0000      -0.468377       -12.7452
  54   2.0000      -0.464748       -12.6464
  55   2.0000      -0.443596       -12.0709
  56   2.0000      -0.440952       -11.9989
  57   2.0000      -0.438538       -11.9332
  58   2.0000      -0.431181       -11.7330
  59   2.0000      -0.420973       -11.4553
  60   2.0000      -0.417411       -11.3583
  61   2.0000      -0.407525       -11.0893
  62   2.0000      -0.404245       -11.0001
  63   2.0000      -0.351357        -9.5609
  64   2.0000      -0.332975        -9.0607
  65   2.0000      -0.325556        -8.8588
  66   2.0000      -0.291496        -7.9320
  67   0.0000       0.019242         0.5236
  68   0.0000       0.063566         1.7297
  69   0.0000       0.094456         2.5703
  70   0.0000       0.115869         3.1530
  71   0.0000       0.131277         3.5722

MULLIKEN ATOMIC CHARGES
-----------------------
   0 S :    0.112389
   1 C :   -0.098424
   2 C :   -0.122751
   3 C :    0.047511
   4 C :   -0.177471
   5 H :    0.014364
   6 C :    0.055063
   7 H :    0.033227
   8 H :    0.025676
   9 C :   -0.052833
  10 H :    0.035295
  11 H :    0.021888
  12 C :   -0.056636
  13 H :    0.007767
  14 H :    0.042379
  15 H :    0.028735
  16 S :    0.107616
  17 C :   -0.071554
  18 C :   -0.056191
  19 C :    0.002240
  20 C :   -0.127131
  21 H :    0.024162
  22 C :    0.076906
  23 H :    0.033894
  24 H :    0.002462
  25 C :   -0.132352
  26 H :    0.037579
  27 H :    0.032466
  28 C :   -0.053977
  29 H :    0.031339
  30 H :    0.022074
  31 H :    0.051408
  32 H :    0.056227
  33 H :    0.046654
Sum of atomic charges:    0.0000000

LOEWDIN ATOMIC CHARGES
----------------------
   0 S :    0.417064
   1 C :   -0.205371
   2 C :   -0.071143
   3 C :   -0.056684
   4 C :   -0.192006
   5 H :    0.026199
   6 C :   -0.046421
   7 H :    0.039450
   8 H :    0.035879
   9 C :   -0.038445
  10 H :    0.026697
  11 H :    0.024550
  12 C :   -0.067117
  13 H :    0.016518
  14 H :    0.035584
  15 H :    0.017344
  16 S :    0.401072
  17 C :   -0.178004
  18 C :   -0.066253
  19 C :   -0.062678
  20 C :   -0.183740
  21 H :    0.032358
  22 C :   -0.033360
  23 H :    0.033289
  24 H :    0.025593
  25 C :   -0.043394
  26 H :    0.029479
  27 H :    0.022522
  28 C :   -0.074142
  29 H :    0.019186
  30 H :    0.018018
  31 H :    0.036532
  32 H :    0.039009
  33 H :    0.022415

  Mayer bond orders larger than 0.100000
B(  0-S ,  1-C ) :   1.1542 B(  0-S ,  4-C ) :   1.1510 B(  1-C ,  2-C ) :   1.5736
B(  1-C ,  4-C ) :   0.1028 B(  1-C , 32-H ) :   0.9636 B(  2-C ,  3-C ) :   1.2612
B(  2-C ,  6-C ) :   1.0344 B(  3-C ,  4-C ) :   1.5464 B(  3-C ,  5-H ) :   0.9840
B(  4-C , 20-C ) :   1.0550 B(  6-C ,  7-H ) :   0.9368 B(  6-C ,  8-H ) :   0.9369
B(  6-C ,  9-C ) :   1.0652 B(  9-C , 10-H ) :   0.9597 B(  9-C , 11-H ) :   0.9534
B(  9-C , 12-C ) :   1.0823 B( 12-C , 13-H ) :   0.9683 B( 12-C , 14-H ) :   0.9688
B( 12-C , 15-H ) :   0.9766 B( 16-S , 17-C ) :   1.1565 B( 16-S , 20-C ) :   1.1461
B( 17-C , 18-C ) :   1.5843 B( 17-C , 20-C ) :   0.1072 B( 17-C , 33-H ) :   0.9715
B( 18-C , 19-C ) :   1.2580 B( 18-C , 21-H ) :   0.9897 B( 19-C , 20-C ) :   1.5911
B( 19-C , 22-C ) :   1.0304 B( 22-C , 23-H ) :   0.9454 B( 22-C , 24-H ) :   0.9215
B( 22-C , 25-C ) :   1.0722 B( 25-C , 26-H ) :   0.9571 B( 25-C , 27-H ) :   0.9558
B( 25-C , 28-C ) :   1.0810 B( 28-C , 29-H ) :   0.9720 B( 28-C , 30-H ) :   0.9750
B( 28-C , 31-H ) :   0.9745

Dispersion correction           -0.014314325
FINAL SINGLE POINT ENERGY     -1339.846796855335

DIPOLE MOMENT
-------------
                                X             Y             Z
Electronic contribution:     19.93924      13.72264     -14.18496
Nuclear contribution   :    -20.30936     -13.84410      14.84435
                        -----------------------------------------
Total Dipole Moment    :     -0.37012      -0.12146       0.65939
                        -----------------------------------------
Magnitude (a.u.)       :      0.76586
Magnitude (Debye)      :      1.94666

Rotational constants in cm-1:     0.019487     0.008691     0.006578
Rotational constants in MHz :   584.207524   260.551681   197.202621

                             ****ORCA TERMINATED NORMALLY****
TOTAL RUN TIME: 0 days 0 hours 0 minutes 34 seconds 486 msec
