                         Program Version 4.2.1 -  RELEASE  -
|  1> ! wB97X-D3 SP def2-SVP
|  2> %pal
|  3> nprocs 16
|  4> end
|  5>
|  6> * xyz 0 1
|  7> S 	 -47.9263 	 6.31917 	 87.4292
|  8> C 	 -47.8965 	 6.45924 	 89.2099
|  9> C 	 -49.0315 	 5.87885 	 89.744
| 10> C 	 -50.0113 	 5.54211 	 88.7303
| 11> C 	 -49.5851 	 5.86917 	 87.4637
| 12> H 	 -50.9292 	 5.17575 	 89.0972
| 13> C 	 -49.3203 	 5.62366 	 91.2033
| 14> H 	 -48.6721 	 4.7739 	 91.4906
| 15> H 	 -50.3751 	 5.36916 	 91.396
| 16> C 	 -48.9863 	 6.77361 	 92.1818
| 17> H 	 -49.3687 	 6.45865 	 93.2006
| 18> H 	 -47.9365 	 6.92108 	 92.3104
| 19> C 	 -49.535 	 8.15523 	 91.8119
| 20> H 	 -48.7811 	 8.82383 	 91.2727
| 21> H 	 -50.5283 	 8.06389 	 91.3492
| 22> H 	 -49.7157 	 8.70412 	 92.7894
| 23> S 	 -49.8603 	 4.65245 	 85.0531
| 24> C 	 -51.1184 	 5.00129 	 83.949
| 25> C 	 -52.0191 	 5.86549 	 84.5484
| 26> C 	 -51.6772 	 6.24637 	 85.9174
| 27> C 	 -50.4067 	 5.74158 	 86.3129
| 28> H 	 -52.8584 	 6.16902 	 83.967
| 29> C 	 -52.5978 	 7.16409 	 86.7567
| 30> H 	 -52.3844 	 8.24467 	 86.5923
| 31> H 	 -52.3211 	 6.93973 	 87.7384
| 32> C 	 -54.1274 	 7.10807 	 86.5215
| 33> H 	 -54.4445 	 6.08239 	 86.5301
| 34> H 	 -54.3568 	 7.67731 	 85.5821
| 35> C 	 -54.7307 	 7.87482 	 87.7389
| 36> H 	 -54.495 	 7.37234 	 88.6953
| 37> H 	 -55.7778 	 7.92935 	 87.8688
| 38> H 	 -54.3036 	 8.84627 	 87.7872
| 39> H 	 -47.0831 	 6.80594 	 89.8547
| 40> H 	 -51.2028 	 4.60001 	 82.9321
| 41> *
| 42>
| 43>                          ****END OF INPUT****

CARTESIAN COORDINATES (ANGSTROEM)
---------------------------------
  S    -47.926300    6.319170   87.429200
  C    -47.896500    6.459240   89.209900
  C    -49.031500    5.878850   89.744000
  C    -50.011300    5.542110   88.730300
  C    -49.585100    5.869170   87.463700
  H    -50.929200    5.175750   89.097200
  C    -49.320300    5.623660   91.203300
  H    -48.672100    4.773900   91.490600
  H    -50.375100    5.369160   91.396000
  C    -48.986300    6.773610   92.181800
  H    -49.368700    6.458650   93.200600
  H    -47.936500    6.921080   92.310400
  C    -49.535000    8.155230   91.811900
  H    -48.781100    8.823830   91.272700
  H    -50.528300    8.063890   91.349200
  H    -49.715700    8.704120   92.789400
  S    -49.860300    4.652450   85.053100
  C    -51.118400    5.001290   83.949000
  C    -52.019100    5.865490   84.548400
  C    -51.677200    6.246370   85.917400
  C    -50.406700    5.741580   86.312900
  H    -52.858400    6.169020   83.967000
  C    -52.597800    7.164090   86.756700
  H    -52.384400    8.244670   86.592300
  H    -52.321100    6.939730   87.738400
  C    -54.127400    7.108070   86.521500
  H    -54.444500    6.082390   86.530100
  H    -54.356800    7.677310   85.582100
  C    -54.730700    7.874820   87.738900
  H    -54.495000    7.372340   88.695300
  H    -55.777800    7.929350   87.868800
  H    -54.303600    8.846270   87.787200
  H    -47.083100    6.805940   89.854700
  H    -51.202800    4.600010   82.932100

 Total Charge           Charge          ....    0
 Multiplicity           Mult            ....    1
 Number of Electrons    NEL             ....  134
 Basis Dimension        Dim             ....  322

ORBITAL ENERGIES
----------------

  NO   OCC          E(Eh)            E(eV)
   0   2.0000     -88.969792     -2420.9911
   1   2.0000     -88.959333     -2420.7065
   2   2.0000     -10.327670      -281.0302
   3   2.0000     -10.326202      -280.9902
   4   2.0000     -10.316729      -280.7325
   5   2.0000     -10.314749      -280.6786
   6   2.0000     -10.311132      -280.5802
   7   2.0000     -10.300250      -280.2840
   8   2.0000     -10.297389      -280.2062
   9   2.0000     -10.293638      -280.1041
  10   2.0000     -10.291753      -280.0528
  11   2.0000     -10.291512      -280.0463
  12   2.0000     -10.290929      -280.0304
  13   2.0000     -10.288464      -279.9633
  14   2.0000     -10.286899      -279.9208
  15   2.0000     -10.274897      -279.5942
  16   2.0000      -8.084291      -219.9848
  17   2.0000      -8.074952      -219.7306
  18   2.0000      -6.042991      -164.4381
  19   2.0000      -6.038954      -164.3283
  20   2.0000      -6.034723      -164.2132
  21   2.0000      -6.033386      -164.1768
  22   2.0000      -6.029142      -164.0613
  23   2.0000      -6.025923      -163.9737
  24   2.0000      -1.007945       -27.4276
  25   2.0000      -0.981849       -26.7175
  26   2.0000      -0.913076       -24.8461
  27   2.0000      -0.907105       -24.6836
  28   2.0000      -0.870283       -23.6816
  29   2.0000      -0.849717       -23.1220
  30   2.0000      -0.841140       -22.8886
  31   2.0000      -0.810491       -22.0546
  32   2.0000      -0.782127       -21.2828
  33   2.0000      -0.771041       -20.9811
  34   2.0000      -0.711249       -19.3541
  35   2.0000      -0.703183       -19.1346
  36   2.0000      -0.694317       -18.8933
  37   2.0000      -0.650818       -17.7097
  38   2.0000      -0.633926       -17.2500
  39   2.0000      -0.617938       -16.8149
  40   2.0000      -0.595087       -16.1931
  41   2.0000      -0.578184       -15.7332
  42   2.0000      -0.574622       -15.6363
  43   2.0000      -0.556868       -15.1531
  44   2.0000      -0.537415       -14.6238
  45   2.0000      -0.520051       -14.1513
  46   2.0000      -0.513941       -13.9851
  47   2.0000      -0.512656       -13.9501
  48   2.0000      -0.506301       -13.7772
  49   2.0000      -0.501786       -13.6543
  50   2.0000      -0.490754       -13.3541
  51   2.0000      -0.474975       -12.9247
  52   2.0000      -0.468584       -12.7508
  53   2.0000      -0.462813       -12.5938
  54   2.0000      -0.457797       -12.4573
  55   2.0000      -0.451372       -12.2825
  56   2.0000      -0.440125       -11.9764
  57   2.0000      -0.436223       -11.8702
  58   2.0000      -0.428363       -11.6564
  59   2.0000      -0.427094       -11.6218
  60   2.0000      -0.424973       -11.5641
  61   2.0000      -0.414122       -11.2688
  62   2.0000      -0.409933       -11.1548
  63   2.0000      -0.342250        -9.3131
  64   2.0000      -0.329720        -8.9721
  65   2.0000      -0.323496        -8.8028
  66   2.0000      -0.292588        -7.9617
  67   0.0000       0.029604         0.8056
  68   0.0000       0.066113         1.7990
  69   0.0000       0.108361         2.9487
  70   0.0000       0.118853         3.2342
  71   0.0000       0.130103         3.5403

MULLIKEN ATOMIC CHARGES
-----------------------
   0 S :    0.130088
   1 C :   -0.131008
   2 C :   -0.101930
   3 C :    0.057399
   4 C :   -0.146386
   5 H :   -0.006332
   6 C :    0.066636
   7 H :    0.050466
   8 H :    0.028615
   9 C :   -0.101250
  10 H :    0.036519
  11 H :    0.020617
  12 C :   -0.081990
  13 H :    0.053817
  14 H :    0.038333
  15 H :    0.035754
  16 S :    0.096344
  17 C :   -0.096228
  18 C :   -0.042733
  19 C :   -0.024739
  20 C :   -0.152301
  21 H :    0.010601
  22 C :    0.065391
  23 H :    0.041826
  24 H :   -0.004640
  25 C :   -0.079110
  26 H :    0.035790
  27 H :    0.050722
  28 C :   -0.030546
  29 H :    0.019501
  30 H :    0.021714
  31 H :    0.022158
  32 H :    0.048019
  33 H :    0.068882
Sum of atomic charges:    0.0000000

LOEWDIN ATOMIC CHARGES
----------------------
   0 S :    0.413448
   1 C :   -0.195143
   2 C :   -0.059844
   3 C :   -0.051103
   4 C :   -0.207638
   5 H :    0.022978
   6 C :   -0.036296
   7 H :    0.042965
   8 H :    0.030055
   9 C :   -0.049589
  10 H :    0.030790
  11 H :    0.016567
  12 C :   -0.079672
  13 H :    0.035659
  14 H :    0.025644
  15 H :    0.032848
  16 S :    0.418396
  17 C :   -0.203158
  18 C :   -0.077325
  19 C :   -0.049646
  20 C :   -0.202513
  21 H :    0.025776
  22 C :   -0.030865
  23 H :    0.038761
  24 H :    0.016263
  25 C :   -0.033421
  26 H :    0.021458
  27 H :    0.031691
  28 C :   -0.063643
  29 H :    0.027955
  30 H :    0.018267
  31 H :    0.020889
  32 H :    0.031886
  33 H :    0.037564

  Mayer bond orders larger than 0.100000
B(  0-S ,  1-C ) :   1.1141 B(  0-S ,  4-C ) :   1.1538 B(  1-C ,  2-C ) :   1.6246
B(  1-C , 32-H ) :   0.9681 B(  2-C ,  3-C ) :   1.2451 B(  2-C ,  6-C ) :   1.0176
B(  3-C ,  4-C ) :   1.5365 B(  3-C ,  5-H ) :   1.0016 B(  4-C , 20-C ) :   1.0601
B(  6-C ,  7-H ) :   0.9306 B(  6-C ,  8-H ) :   0.9478 B(  6-C ,  9-C ) :   1.0815
B(  9-C , 10-H ) :   0.9608 B(  9-C , 11-H ) :   0.9533 B(  9-C , 12-C ) :   1.0712
B( 12-C , 13-H ) :   0.9735 B( 12-C , 14-H ) :   0.9775 B( 12-C , 15-H ) :   0.9745
B( 16-S , 17-C ) :   1.1677 B( 16-S , 20-C ) :   1.1554 B( 17-C , 18-C ) :   1.5877
B( 17-C , 20-C ) :   0.1024 B( 17-C , 33-H ) :   0.9657 B( 18-C , 19-C ) :   1.2451
B( 18-C , 21-H ) :   0.9959 B( 19-C , 20-C ) :   1.5625 B( 19-C , 22-C ) :   1.0303
B( 22-C , 23-H ) :   0.9325 B( 22-C , 24-H ) :   0.9412 B( 22-C , 25-C ) :   1.0620
B( 25-C , 26-H ) :   0.9623 B( 25-C , 27-H ) :   0.9496 B( 25-C , 28-C ) :   1.0792
B( 28-C , 29-H ) :   0.9737 B( 28-C , 30-H ) :   0.9744 B( 28-C , 31-H ) :   0.9728

Dispersion correction           -0.013845302
FINAL SINGLE POINT ENERGY     -1339.865957193661

DIPOLE MOMENT
-------------
                                X             Y             Z
Electronic contribution:     17.68267     -12.56957     -21.36905
Nuclear contribution   :    -18.14476      12.72478      21.93082
                        -----------------------------------------
Total Dipole Moment    :     -0.46209       0.15521       0.56177
                        -----------------------------------------
Magnitude (a.u.)       :      0.74378
Magnitude (Debye)      :      1.89054

Rotational constants in cm-1:     0.017324     0.009080     0.006423
Rotational constants in MHz :   519.368815   272.208545   192.544171

                             ****ORCA TERMINATED NORMALLY****
TOTAL RUN TIME: 0 days 0 hours 0 minutes 30 seconds 344 msec
