                         Program Version 4.2.1 -  RELEASE  -
|  1> ! wB97X-D3 SP def2-SVP
|  2> %pal
|  3> nprocs 16
|  4> end
|  5>
|  6> * xyz 0 1
|  7> S 	 -90.0879 	 52.199 	 130.385
|  8> C 	 -89.2593 	 50.9675 	 131.233
|  9> C 	 -87.9318 	 51.2318 	 131.339
| 10> C 	 -87.4905 	 52.3837 	 130.612
| 11> C 	 -88.5845 	 53.0403 	 130.081
| 12> H 	 -86.5271 	 52.922 	 130.563
| 13> C 	 -86.9429 	 50.437 	 132.186
| 14> H 	 -87.4199 	 50.3232 	 133.127
| 15> H 	 -86.0626 	 51.0434 	 132.291
| 16> C 	 -86.5709 	 49.0623 	 131.525
| 17> H 	 -87.3097 	 48.389 	 131.492
| 18> H 	 -86.2358 	 49.2215 	 130.482
| 19> C 	 -85.3475 	 48.4903 	 132.219
| 20> H 	 -85.1697 	 47.4674 	 131.994
| 21> H 	 -84.3559 	 48.8963 	 131.877
| 22> H 	 -85.4825 	 48.6885 	 133.268
| 23> S 	 -87.8531 	 55.7464 	 130.337
| 24> C 	 -88.1193 	 56.9235 	 128.976
| 25> C 	 -88.8682 	 56.2483 	 128.03
| 26> C 	 -89.091 	 54.891 	 128.313
| 27> C 	 -88.5309 	 54.35 	 129.462
| 28> H 	 -89.1852 	 56.7394 	 127.179
| 29> C 	 -89.8684 	 54.1078 	 127.232
| 30> H 	 -90.4572 	 54.926 	 126.706
| 31> H 	 -90.6534 	 53.4265 	 127.678
| 32> C 	 -89.0998 	 52.981 	 126.464
| 33> H 	 -88.6883 	 52.2969 	 127.216
| 34> H 	 -88.3007 	 53.4525 	 125.926
| 35> C 	 -89.9018 	 52.2104 	 125.551
| 36> H 	 -89.2814 	 51.4979 	 125.014
| 37> H 	 -90.4793 	 52.8251 	 124.916
| 38> H 	 -90.6717 	 51.6339 	 126.02
| 39> H 	 -89.7486 	 50.0399 	 131.527
| 40> H 	 -87.9088 	 58.0067 	 128.94
| 41> *
| 42>
| 43>                          ****END OF INPUT****

CARTESIAN COORDINATES (ANGSTROEM)
---------------------------------
  S    -90.087900   52.199000  130.385000
  C    -89.259300   50.967500  131.233000
  C    -87.931800   51.231800  131.339000
  C    -87.490500   52.383700  130.612000
  C    -88.584500   53.040300  130.081000
  H    -86.527100   52.922000  130.563000
  C    -86.942900   50.437000  132.186000
  H    -87.419900   50.323200  133.127000
  H    -86.062600   51.043400  132.291000
  C    -86.570900   49.062300  131.525000
  H    -87.309700   48.389000  131.492000
  H    -86.235800   49.221500  130.482000
  C    -85.347500   48.490300  132.219000
  H    -85.169700   47.467400  131.994000
  H    -84.355900   48.896300  131.877000
  H    -85.482500   48.688500  133.268000
  S    -87.853100   55.746400  130.337000
  C    -88.119300   56.923500  128.976000
  C    -88.868200   56.248300  128.030000
  C    -89.091000   54.891000  128.313000
  C    -88.530900   54.350000  129.462000
  H    -89.185200   56.739400  127.179000
  C    -89.868400   54.107800  127.232000
  H    -90.457200   54.926000  126.706000
  H    -90.653400   53.426500  127.678000
  C    -89.099800   52.981000  126.464000
  H    -88.688300   52.296900  127.216000
  H    -88.300700   53.452500  125.926000
  C    -89.901800   52.210400  125.551000
  H    -89.281400   51.497900  125.014000
  H    -90.479300   52.825100  124.916000
  H    -90.671700   51.633900  126.020000
  H    -89.748600   50.039900  131.527000
  H    -87.908800   58.006700  128.940000

 Total Charge           Charge          ....    0
 Multiplicity           Mult            ....    1
 Number of Electrons    NEL             ....  134
 Basis Dimension        Dim             ....  322

ORBITAL ENERGIES
----------------

  NO   OCC          E(Eh)            E(eV)
   0   2.0000     -88.968769     -2420.9633
   1   2.0000     -88.963722     -2420.8259
   2   2.0000     -10.329980      -281.0930
   3   2.0000     -10.328730      -281.0590
   4   2.0000     -10.326123      -280.9881
   5   2.0000     -10.310146      -280.5533
   6   2.0000     -10.300127      -280.2807
   7   2.0000     -10.299644      -280.2676
   8   2.0000     -10.297927      -280.2209
   9   2.0000     -10.295009      -280.1414
  10   2.0000     -10.289023      -279.9785
  11   2.0000     -10.287964      -279.9497
  12   2.0000     -10.279554      -279.7209
  13   2.0000     -10.275889      -279.6211
  14   2.0000     -10.273297      -279.5506
  15   2.0000     -10.261640      -279.2334
  16   2.0000      -8.083966      -219.9759
  17   2.0000      -8.076748      -219.7795
  18   2.0000      -6.042394      -164.4219
  19   2.0000      -6.038372      -164.3125
  20   2.0000      -6.035464      -164.2333
  21   2.0000      -6.034825      -164.2159
  22   2.0000      -6.031408      -164.1230
  23   2.0000      -6.027428      -164.0147
  24   2.0000      -1.009563       -27.4716
  25   2.0000      -0.983271       -26.7562
  26   2.0000      -0.912244       -24.8234
  27   2.0000      -0.908606       -24.7244
  28   2.0000      -0.875127       -23.8134
  29   2.0000      -0.856282       -23.3006
  30   2.0000      -0.848223       -23.0813
  31   2.0000      -0.818184       -22.2639
  32   2.0000      -0.778098       -21.1731
  33   2.0000      -0.764073       -20.7915
  34   2.0000      -0.709609       -19.3094
  35   2.0000      -0.707540       -19.2531
  36   2.0000      -0.687275       -18.7017
  37   2.0000      -0.668489       -18.1905
  38   2.0000      -0.646481       -17.5916
  39   2.0000      -0.613151       -16.6847
  40   2.0000      -0.591088       -16.0843
  41   2.0000      -0.574700       -15.6384
  42   2.0000      -0.566692       -15.4205
  43   2.0000      -0.564704       -15.3664
  44   2.0000      -0.534805       -14.5528
  45   2.0000      -0.529604       -14.4113
  46   2.0000      -0.518871       -14.1192
  47   2.0000      -0.513785       -13.9808
  48   2.0000      -0.512245       -13.9389
  49   2.0000      -0.504366       -13.7245
  50   2.0000      -0.492955       -13.4140
  51   2.0000      -0.475125       -12.9288
  52   2.0000      -0.471331       -12.8256
  53   2.0000      -0.464193       -12.6313
  54   2.0000      -0.460140       -12.5210
  55   2.0000      -0.449937       -12.2434
  56   2.0000      -0.441609       -12.0168
  57   2.0000      -0.437852       -11.9146
  58   2.0000      -0.430582       -11.7167
  59   2.0000      -0.426182       -11.5970
  60   2.0000      -0.413272       -11.2457
  61   2.0000      -0.409399       -11.1403
  62   2.0000      -0.401872       -10.9355
  63   2.0000      -0.345368        -9.3979
  64   2.0000      -0.334096        -9.0912
  65   2.0000      -0.325263        -8.8509
  66   2.0000      -0.295661        -8.0453
  67   0.0000       0.023948         0.6516
  68   0.0000       0.067729         1.8430
  69   0.0000       0.108307         2.9472
  70   0.0000       0.120255         3.2723
  71   0.0000       0.130362         3.5473

MULLIKEN ATOMIC CHARGES
-----------------------
   0 S :    0.129638
   1 C :   -0.131605
   2 C :   -0.096434
   3 C :    0.014836
   4 C :   -0.166966
   5 H :    0.035421
   6 C :    0.096290
   7 H :    0.029342
   8 H :    0.016179
   9 C :   -0.035442
  10 H :    0.001860
  11 H :    0.029961
  12 C :   -0.049034
  13 H :    0.020579
  14 H :    0.031687
  15 H :    0.029666
  16 S :    0.080505
  17 C :   -0.106263
  18 C :   -0.009074
  19 C :   -0.017946
  20 C :   -0.137740
  21 H :   -0.007627
  22 C :   -0.010769
  23 H :    0.032173
  24 H :    0.019221
  25 C :   -0.041843
  26 H :    0.038255
  27 H :    0.019798
  28 C :    0.007336
  29 H :    0.032560
  30 H :    0.008181
  31 H :    0.009187
  32 H :    0.053858
  33 H :    0.074213
Sum of atomic charges:    0.0000000

LOEWDIN ATOMIC CHARGES
----------------------
   0 S :    0.430083
   1 C :   -0.212698
   2 C :   -0.061978
   3 C :   -0.062143
   4 C :   -0.194292
   5 H :    0.042176
   6 C :   -0.019124
   7 H :    0.027939
   8 H :    0.028837
   9 C :   -0.026668
  10 H :    0.003892
  11 H :    0.030828
  12 C :   -0.067070
  13 H :    0.019979
  14 H :    0.030036
  15 H :    0.021387
  16 S :    0.370186
  17 C :   -0.167635
  18 C :   -0.067634
  19 C :   -0.063642
  20 C :   -0.190615
  21 H :    0.019762
  22 C :   -0.045594
  23 H :    0.033366
  24 H :    0.026321
  25 C :   -0.038930
  26 H :    0.031140
  27 H :    0.018428
  28 C :   -0.060657
  29 H :    0.030980
  30 H :    0.019117
  31 H :    0.020851
  32 H :    0.031527
  33 H :    0.041842

  Mayer bond orders larger than 0.100000
B(  0-S ,  1-C ) :   1.1384 B(  0-S ,  4-C ) :   1.1613 B(  1-C ,  2-C ) :   1.6157
B(  1-C , 32-H ) :   0.9690 B(  2-C ,  3-C ) :   1.2312 B(  2-C ,  6-C ) :   1.0199
B(  3-C ,  4-C ) :   1.5577 B(  3-C ,  5-H ) :   0.9912 B(  4-C , 20-C ) :   1.0679
B(  6-C ,  7-H ) :   0.9336 B(  6-C ,  8-H ) :   0.9452 B(  6-C ,  9-C ) :   1.0633
B(  9-C , 10-H ) :   0.9598 B(  9-C , 11-H ) :   0.9583 B(  9-C , 12-C ) :   1.0833
B( 12-C , 13-H ) :   0.9720 B( 12-C , 14-H ) :   0.9766 B( 12-C , 15-H ) :   0.9741
B( 16-S , 17-C ) :   1.1497 B( 16-S , 20-C ) :   1.1165 B( 17-C , 18-C ) :   1.5803
B( 17-C , 20-C ) :   0.1084 B( 17-C , 33-H ) :   0.9644 B( 18-C , 19-C ) :   1.2724
B( 18-C , 21-H ) :   1.0002 B( 19-C , 20-C ) :   1.5626 B( 19-C , 22-C ) :   1.0431
B( 22-C , 23-H ) :   0.9412 B( 22-C , 24-H ) :   0.9346 B( 22-C , 25-C ) :   1.0427
B( 25-C , 26-H ) :   0.9481 B( 25-C , 27-H ) :   0.9522 B( 25-C , 28-C ) :   1.1093
B( 28-C , 29-H ) :   0.9673 B( 28-C , 30-H ) :   0.9670 B( 28-C , 31-H ) :   0.9644

Dispersion correction           -0.014055547
FINAL SINGLE POINT ENERGY     -1339.853371354523

DIPOLE MOMENT
-------------
                                X             Y             Z
Electronic contribution:     -7.11198      19.48682       7.91990
Nuclear contribution   :      7.20377     -19.80115      -8.10421
                        -----------------------------------------
Total Dipole Moment    :      0.09179      -0.31434      -0.18431
                        -----------------------------------------
Magnitude (a.u.)       :      0.37577
Magnitude (Debye)      :      0.95513

Rotational constants in cm-1:     0.019441     0.007891     0.006576
Rotational constants in MHz :   582.830562   236.576031   197.145350

                             ****ORCA TERMINATED NORMALLY****
TOTAL RUN TIME: 0 days 0 hours 0 minutes 32 seconds 886 msec
