                         Program Version 4.2.1 -  RELEASE  -
|  1> ! wB97X-D3 SP def2-SVP
|  2> %pal
|  3> nprocs 16
|  4> end
|  5>
|  6> * xyz 0 1
|  7> S 	 32.518 	 1.50709 	 68.6784
|  8> C 	 32.2897 	 2.43703 	 70.1055
|  9> C 	 31.5158 	 1.80562 	 71.1054
| 10> C 	 31.0503 	 0.525217 	 70.7319
| 11> C 	 31.456 	 0.177508 	 69.417
| 12> H 	 30.5001 	 -0.180561 	 71.348
| 13> C 	 31.0976 	 2.42761 	 72.4266
| 14> H 	 30.196 	 2.00556 	 72.7706
| 15> H 	 31.0914 	 3.5046 	 72.2964
| 16> C 	 32.1101 	 2.16784 	 73.6188
| 17> H 	 33.0598 	 2.7231 	 73.4276
| 18> H 	 31.7203 	 2.68914 	 74.5403
| 19> C 	 32.6938 	 0.771622 	 73.8797
| 20> H 	 33.4165 	 0.429788 	 73.2019
| 21> H 	 33.0474 	 0.724337 	 74.9124
| 22> H 	 31.8949 	 0.0166967 	 73.7052
| 23> S 	 30.7773 	 -0.696488 	 66.908
| 24> C 	 30.5337 	 -2.41065 	 66.5787
| 25> C 	 30.4784 	 -3.0449 	 67.7736
| 26> C 	 30.8199 	 -2.26075 	 68.8904
| 27> C 	 31.1183 	 -0.898881 	 68.5992
| 28> H 	 30.221 	 -4.06097 	 67.8249
| 29> C 	 30.8543 	 -2.92151 	 70.2161
| 30> H 	 30.111 	 -3.82012 	 70.288
| 31> H 	 30.5311 	 -2.19024 	 71.0639
| 32> C 	 32.2296 	 -3.40476 	 70.6701
| 33> H 	 32.9263 	 -2.54389 	 70.567
| 34> H 	 32.6171 	 -4.30957 	 70.1404
| 35> C 	 32.2463 	 -3.69131 	 72.1745
| 36> H 	 33.2202 	 -3.96347 	 72.6436
| 37> H 	 31.4508 	 -4.42201 	 72.4957
| 38> H 	 31.8711 	 -2.81529 	 72.6378
| 39> H 	 32.4929 	 3.45079 	 70.3335
| 40> H 	 30.0475 	 -2.83137 	 65.698
| 41> *
| 42>
| 43>                          ****END OF INPUT****

CARTESIAN COORDINATES (ANGSTROEM)
---------------------------------
  S     32.518000    1.507090   68.678400
  C     32.289700    2.437030   70.105500
  C     31.515800    1.805620   71.105400
  C     31.050300    0.525217   70.731900
  C     31.456000    0.177508   69.417000
  H     30.500100   -0.180561   71.348000
  C     31.097600    2.427610   72.426600
  H     30.196000    2.005560   72.770600
  H     31.091400    3.504600   72.296400
  C     32.110100    2.167840   73.618800
  H     33.059800    2.723100   73.427600
  H     31.720300    2.689140   74.540300
  C     32.693800    0.771622   73.879700
  H     33.416500    0.429788   73.201900
  H     33.047400    0.724337   74.912400
  H     31.894900    0.016697   73.705200
  S     30.777300   -0.696488   66.908000
  C     30.533700   -2.410650   66.578700
  C     30.478400   -3.044900   67.773600
  C     30.819900   -2.260750   68.890400
  C     31.118300   -0.898881   68.599200
  H     30.221000   -4.060970   67.824900
  C     30.854300   -2.921510   70.216100
  H     30.111000   -3.820120   70.288000
  H     30.531100   -2.190240   71.063900
  C     32.229600   -3.404760   70.670100
  H     32.926300   -2.543890   70.567000
  H     32.617100   -4.309570   70.140400
  C     32.246300   -3.691310   72.174500
  H     33.220200   -3.963470   72.643600
  H     31.450800   -4.422010   72.495700
  H     31.871100   -2.815290   72.637800
  H     32.492900    3.450790   70.333500
  H     30.047500   -2.831370   65.698000

 Total Charge           Charge          ....    0
 Multiplicity           Mult            ....    1
 Number of Electrons    NEL             ....  134
 Basis Dimension        Dim             ....  322

ORBITAL ENERGIES
----------------

  NO   OCC          E(Eh)            E(eV)
   0   2.0000     -88.975974     -2421.1593
   1   2.0000     -88.966102     -2420.8907
   2   2.0000     -10.340923      -281.3908
   3   2.0000     -10.330241      -281.1002
   4   2.0000     -10.315665      -280.7035
   5   2.0000     -10.314008      -280.6584
   6   2.0000     -10.304882      -280.4101
   7   2.0000     -10.304792      -280.4076
   8   2.0000     -10.303704      -280.3780
   9   2.0000     -10.302040      -280.3328
  10   2.0000     -10.295486      -280.1544
  11   2.0000     -10.293987      -280.1136
  12   2.0000     -10.289187      -279.9830
  13   2.0000     -10.287009      -279.9237
  14   2.0000     -10.278322      -279.6874
  15   2.0000     -10.277056      -279.6529
  16   2.0000      -8.089089      -220.1153
  17   2.0000      -8.080796      -219.8896
  18   2.0000      -6.047609      -164.5638
  19   2.0000      -6.043897      -164.4628
  20   2.0000      -6.039853      -164.3527
  21   2.0000      -6.039379      -164.3399
  22   2.0000      -6.035199      -164.2261
  23   2.0000      -6.031536      -164.1264
  24   2.0000      -1.009503       -27.4700
  25   2.0000      -0.982216       -26.7275
  26   2.0000      -0.911883       -24.8136
  27   2.0000      -0.907455       -24.6931
  28   2.0000      -0.878444       -23.9037
  29   2.0000      -0.855013       -23.2661
  30   2.0000      -0.847535       -23.0626
  31   2.0000      -0.818962       -22.2851
  32   2.0000      -0.784269       -21.3410
  33   2.0000      -0.765320       -20.8254
  34   2.0000      -0.717421       -19.5220
  35   2.0000      -0.697901       -18.9909
  36   2.0000      -0.688556       -18.7366
  37   2.0000      -0.667733       -18.1699
  38   2.0000      -0.637261       -17.3408
  39   2.0000      -0.620385       -16.8815
  40   2.0000      -0.596881       -16.2419
  41   2.0000      -0.574478       -15.6323
  42   2.0000      -0.565463       -15.3870
  43   2.0000      -0.552270       -15.0280
  44   2.0000      -0.543492       -14.7892
  45   2.0000      -0.520075       -14.1520
  46   2.0000      -0.516271       -14.0484
  47   2.0000      -0.513599       -13.9757
  48   2.0000      -0.510418       -13.8892
  49   2.0000      -0.504759       -13.7352
  50   2.0000      -0.490406       -13.3446
  51   2.0000      -0.480887       -13.0856
  52   2.0000      -0.479268       -13.0415
  53   2.0000      -0.467494       -12.7212
  54   2.0000      -0.456569       -12.4239
  55   2.0000      -0.445676       -12.1275
  56   2.0000      -0.444473       -12.0947
  57   2.0000      -0.437738       -11.9115
  58   2.0000      -0.428851       -11.6696
  59   2.0000      -0.426534       -11.6066
  60   2.0000      -0.419960       -11.4277
  61   2.0000      -0.411576       -11.1996
  62   2.0000      -0.402808       -10.9610
  63   2.0000      -0.362599        -9.8668
  64   2.0000      -0.336608        -9.1596
  65   2.0000      -0.328795        -8.9470
  66   2.0000      -0.277808        -7.5595
  67   0.0000       0.007196         0.1958
  68   0.0000       0.068215         1.8562
  69   0.0000       0.099376         2.7042
  70   0.0000       0.106550         2.8994
  71   0.0000       0.121285         3.3003

MULLIKEN ATOMIC CHARGES
-----------------------
   0 S :    0.122216
   1 C :   -0.066950
   2 C :   -0.131677
   3 C :    0.027146
   4 C :   -0.171058
   5 H :    0.018588
   6 C :    0.116930
   7 H :    0.020608
   8 H :    0.027402
   9 C :   -0.138338
  10 H :    0.025761
  11 H :    0.041421
  12 C :   -0.030711
  13 H :    0.034126
  14 H :    0.044316
  15 H :    0.012633
  16 S :    0.095503
  17 C :   -0.082070
  18 C :   -0.026201
  19 C :    0.000258
  20 C :   -0.106212
  21 H :    0.001344
  22 C :   -0.042499
  23 H :    0.043484
  24 H :    0.019187
  25 C :   -0.059127
  26 H :    0.040557
  27 H :    0.041674
  28 C :   -0.049867
  29 H :    0.049886
  30 H :    0.021619
  31 H :    0.004044
  32 H :    0.026012
  33 H :    0.069995
Sum of atomic charges:    0.0000000

LOEWDIN ATOMIC CHARGES
----------------------
   0 S :    0.394145
   1 C :   -0.207801
   2 C :   -0.063154
   3 C :   -0.052482
   4 C :   -0.158288
   5 H :    0.030414
   6 C :   -0.021529
   7 H :    0.024252
   8 H :    0.034350
   9 C :   -0.051920
  10 H :    0.024631
  11 H :    0.028224
  12 C :   -0.067443
  13 H :    0.021046
  14 H :    0.033721
  15 H :    0.020114
  16 S :    0.412741
  17 C :   -0.189566
  18 C :   -0.063224
  19 C :   -0.064160
  20 C :   -0.207477
  21 H :    0.024910
  22 C :   -0.046279
  23 H :    0.039717
  24 H :    0.031969
  25 C :   -0.044154
  26 H :    0.031613
  27 H :    0.027216
  28 C :   -0.073862
  29 H :    0.031454
  30 H :    0.025840
  31 H :    0.013376
  32 H :    0.023130
  33 H :    0.038477

  Mayer bond orders larger than 0.100000
B(  0-S ,  1-C ) :   1.1435 B(  0-S ,  4-C ) :   1.1187 B(  1-C ,  2-C ) :   1.6001
B(  1-C ,  4-C ) :   0.1084 B(  1-C , 32-H ) :   0.9566 B(  2-C ,  3-C ) :   1.2624
B(  2-C ,  6-C ) :   1.0355 B(  3-C ,  4-C ) :   1.5356 B(  3-C ,  5-H ) :   0.9800
B(  4-C , 20-C ) :   1.1515 B(  6-C ,  7-H ) :   0.9412 B(  6-C ,  8-H ) :   0.9374
B(  6-C ,  9-C ) :   1.0628 B(  9-C , 10-H ) :   0.9569 B(  9-C , 11-H ) :   0.9619
B(  9-C , 12-C ) :   1.0687 B( 12-C , 13-H ) :   0.9731 B( 12-C , 14-H ) :   0.9713
B( 12-C , 15-H ) :   0.9751 B( 16-S , 17-C ) :   1.1497 B( 16-S , 20-C ) :   1.1465
B( 17-C , 18-C ) :   1.5730 B( 17-C , 20-C ) :   0.1025 B( 17-C , 33-H ) :   0.9614
B( 18-C , 19-C ) :   1.3021 B( 18-C , 21-H ) :   0.9948 B( 19-C , 20-C ) :   1.4899
B( 19-C , 22-C ) :   1.0558 B( 22-C , 23-H ) :   0.9314 B( 22-C , 24-H ) :   0.9348
B( 22-C , 25-C ) :   1.0613 B( 25-C , 26-H ) :   0.9551 B( 25-C , 27-H ) :   0.9537
B( 25-C , 28-C ) :   1.0750 B( 28-C , 29-H ) :   0.9738 B( 28-C , 30-H ) :   0.9696
B( 28-C , 31-H ) :   0.9706

Dispersion correction           -0.014949497
FINAL SINGLE POINT ENERGY     -1339.854867830907

DIPOLE MOMENT
-------------
                                X             Y             Z
Electronic contribution:     -2.98975       8.42421     -30.08778
Nuclear contribution   :      2.73669      -8.62695      30.66452
                        -----------------------------------------
Total Dipole Moment    :     -0.25306      -0.20274       0.57674
                        -----------------------------------------
Magnitude (a.u.)       :      0.66164
Magnitude (Debye)      :      1.68176

Rotational constants in cm-1:     0.018142     0.010011     0.006995
Rotational constants in MHz :   543.869397   300.136829   209.710177

                             ****ORCA TERMINATED NORMALLY****
TOTAL RUN TIME: 0 days 0 hours 0 minutes 30 seconds 69 msec
