                         Program Version 4.2.1 -  RELEASE  -
|  1> ! wB97X-D3 SP def2-SVP
|  2> %pal
|  3> nprocs 16
|  4> end
|  5>
|  6> * xyz 0 1
|  7> S 	 49.6884 	 21.2423 	 82.934
|  8> C 	 50.2327 	 22.4998 	 84.0437
|  9> C 	 50.6473 	 21.985 	 85.268
| 10> C 	 50.6238 	 20.5465 	 85.274
| 11> C 	 50.2155 	 19.9993 	 84.0732
| 12> H 	 50.9372 	 20.0449 	 86.1191
| 13> C 	 51.1762 	 22.7248 	 86.4904
| 14> H 	 51.4167 	 22.0208 	 87.3127
| 15> H 	 50.3171 	 23.2891 	 86.8808
| 16> C 	 52.3806 	 23.7069 	 86.2513
| 17> H 	 51.9381 	 24.6258 	 85.7263
| 18> H 	 52.5902 	 24.1029 	 87.242
| 19> C 	 53.7235 	 23.254 	 85.7222
| 20> H 	 54.4118 	 24.1074 	 85.6321
| 21> H 	 54.1991 	 22.4982 	 86.3056
| 22> H 	 53.5032 	 22.7327 	 84.714
| 23> S 	 48.4143 	 17.9503 	 83.8202
| 24> C 	 49.015 	 16.3093 	 83.9306
| 25> C 	 50.3356 	 16.2516 	 84.0864
| 26> C 	 50.9934 	 17.4783 	 84.0435
| 27> C 	 50.0843 	 18.5574 	 83.9764
| 28> H 	 50.8059 	 15.3265 	 84.1959
| 29> C 	 52.5152 	 17.5507 	 84.2479
| 30> H 	 53.0032 	 16.6209 	 84.1539
| 31> H 	 52.678 	 17.5514 	 85.3706
| 32> C 	 53.2982 	 18.7077 	 83.5918
| 33> H 	 54.3756 	 18.6332 	 83.9618
| 34> H 	 52.8219 	 19.6173 	 83.9999
| 35> C 	 53.2141 	 18.768 	 82.0277
| 36> H 	 53.6389 	 17.795 	 81.601
| 37> H 	 53.7574 	 19.5735 	 81.5642
| 38> H 	 52.1743 	 18.8253 	 81.7635
| 39> H 	 50.0487 	 23.5505 	 83.7551
| 40> H 	 48.5273 	 15.359 	 84.0017
| 41> *
| 42>
| 43>                          ****END OF INPUT****

CARTESIAN COORDINATES (ANGSTROEM)
---------------------------------
  S     49.688400   21.242300   82.934000
  C     50.232700   22.499800   84.043700
  C     50.647300   21.985000   85.268000
  C     50.623800   20.546500   85.274000
  C     50.215500   19.999300   84.073200
  H     50.937200   20.044900   86.119100
  C     51.176200   22.724800   86.490400
  H     51.416700   22.020800   87.312700
  H     50.317100   23.289100   86.880800
  C     52.380600   23.706900   86.251300
  H     51.938100   24.625800   85.726300
  H     52.590200   24.102900   87.242000
  C     53.723500   23.254000   85.722200
  H     54.411800   24.107400   85.632100
  H     54.199100   22.498200   86.305600
  H     53.503200   22.732700   84.714000
  S     48.414300   17.950300   83.820200
  C     49.015000   16.309300   83.930600
  C     50.335600   16.251600   84.086400
  C     50.993400   17.478300   84.043500
  C     50.084300   18.557400   83.976400
  H     50.805900   15.326500   84.195900
  C     52.515200   17.550700   84.247900
  H     53.003200   16.620900   84.153900
  H     52.678000   17.551400   85.370600
  C     53.298200   18.707700   83.591800
  H     54.375600   18.633200   83.961800
  H     52.821900   19.617300   83.999900
  C     53.214100   18.768000   82.027700
  H     53.638900   17.795000   81.601000
  H     53.757400   19.573500   81.564200
  H     52.174300   18.825300   81.763500
  H     50.048700   23.550500   83.755100
  H     48.527300   15.359000   84.001700

 Total Charge           Charge          ....    0
 Multiplicity           Mult            ....    1
 Number of Electrons    NEL             ....  134
 Basis Dimension        Dim             ....  322

ORBITAL ENERGIES
----------------

  NO   OCC          E(Eh)            E(eV)
   0   2.0000     -88.971285     -2421.0318
   1   2.0000     -88.964649     -2420.8512
   2   2.0000     -10.330053      -281.0950
   3   2.0000     -10.328457      -281.0516
   4   2.0000     -10.320514      -280.8355
   5   2.0000     -10.307047      -280.4690
   6   2.0000     -10.304203      -280.3916
   7   2.0000     -10.303736      -280.3789
   8   2.0000     -10.300594      -280.2934
   9   2.0000     -10.294426      -280.1256
  10   2.0000     -10.292923      -280.0847
  11   2.0000     -10.289486      -279.9911
  12   2.0000     -10.289022      -279.9785
  13   2.0000     -10.283416      -279.8260
  14   2.0000     -10.277214      -279.6572
  15   2.0000     -10.274207      -279.5754
  16   2.0000      -8.085286      -220.0118
  17   2.0000      -8.078839      -219.8364
  18   2.0000      -6.043913      -164.4632
  19   2.0000      -6.039883      -164.3536
  20   2.0000      -6.037464      -164.2877
  21   2.0000      -6.035979      -164.2473
  22   2.0000      -6.033498      -164.1798
  23   2.0000      -6.029434      -164.0692
  24   2.0000      -1.004387       -27.3308
  25   2.0000      -0.982979       -26.7482
  26   2.0000      -0.905742       -24.6465
  27   2.0000      -0.898418       -24.4472
  28   2.0000      -0.871629       -23.7182
  29   2.0000      -0.852254       -23.1910
  30   2.0000      -0.841282       -22.8925
  31   2.0000      -0.812729       -22.1155
  32   2.0000      -0.784489       -21.3470
  33   2.0000      -0.772957       -21.0332
  34   2.0000      -0.710637       -19.3374
  35   2.0000      -0.696995       -18.9662
  36   2.0000      -0.684167       -18.6171
  37   2.0000      -0.658570       -17.9206
  38   2.0000      -0.644162       -17.5285
  39   2.0000      -0.613873       -16.7043
  40   2.0000      -0.594989       -16.1905
  41   2.0000      -0.570248       -15.5172
  42   2.0000      -0.549379       -14.9494
  43   2.0000      -0.541556       -14.7365
  44   2.0000      -0.539015       -14.6673
  45   2.0000      -0.534401       -14.5418
  46   2.0000      -0.513565       -13.9748
  47   2.0000      -0.502480       -13.6732
  48   2.0000      -0.498677       -13.5697
  49   2.0000      -0.496116       -13.5000
  50   2.0000      -0.485527       -13.2119
  51   2.0000      -0.480247       -13.0682
  52   2.0000      -0.472954       -12.8697
  53   2.0000      -0.469939       -12.7877
  54   2.0000      -0.461796       -12.5661
  55   2.0000      -0.447777       -12.1846
  56   2.0000      -0.442815       -12.0496
  57   2.0000      -0.437129       -11.8949
  58   2.0000      -0.436137       -11.8679
  59   2.0000      -0.420532       -11.4433
  60   2.0000      -0.416122       -11.3233
  61   2.0000      -0.406430       -11.0595
  62   2.0000      -0.405649       -11.0383
  63   2.0000      -0.343202        -9.3390
  64   2.0000      -0.330565        -8.9951
  65   2.0000      -0.325580        -8.8595
  66   2.0000      -0.295410        -8.0385
  67   0.0000       0.032219         0.8767
  68   0.0000       0.061537         1.6745
  69   0.0000       0.109183         2.9710
  70   0.0000       0.121168         3.2971
  71   0.0000       0.129193         3.5155

MULLIKEN ATOMIC CHARGES
-----------------------
   0 S :    0.118968
   1 C :   -0.154837
   2 C :   -0.066860
   3 C :    0.057295
   4 C :   -0.151108
   5 H :   -0.014413
   6 C :    0.057581
   7 H :    0.022804
   8 H :    0.040729
   9 C :   -0.101819
  10 H :    0.035660
  11 H :    0.020245
  12 C :   -0.044294
  13 H :    0.046997
  14 H :    0.025908
  15 H :    0.051425
  16 S :    0.105017
  17 C :   -0.044566
  18 C :   -0.045349
  19 C :    0.005945
  20 C :   -0.194142
  21 H :   -0.008653
  22 C :    0.050048
  23 H :   -0.007195
  24 H :    0.033862
  25 C :   -0.081124
  26 H :    0.036084
  27 H :    0.048163
  28 C :   -0.045483
  29 H :    0.029405
  30 H :    0.038771
  31 H :    0.034510
  32 H :    0.063126
  33 H :    0.037297
Sum of atomic charges:    0.0000000

LOEWDIN ATOMIC CHARGES
----------------------
   0 S :    0.399020
   1 C :   -0.196870
   2 C :   -0.063817
   3 C :   -0.041956
   4 C :   -0.201610
   5 H :    0.019099
   6 C :   -0.034896
   7 H :    0.029706
   8 H :    0.039668
   9 C :   -0.050999
  10 H :    0.029979
  11 H :    0.021670
  12 C :   -0.070422
  13 H :    0.033661
  14 H :    0.020269
  15 H :    0.036875
  16 S :    0.392024
  17 C :   -0.180599
  18 C :   -0.072113
  19 C :   -0.050743
  20 C :   -0.186227
  21 H :    0.023694
  22 C :   -0.040894
  23 H :    0.020277
  24 H :    0.043823
  25 C :   -0.046866
  26 H :    0.030101
  27 H :    0.026333
  28 C :   -0.065748
  29 H :    0.028820
  30 H :    0.023956
  31 H :    0.022084
  32 H :    0.031403
  33 H :    0.031296

  Mayer bond orders larger than 0.100000
B(  0-S ,  1-C ) :   1.1367 B(  0-S ,  4-C ) :   1.1417 B(  1-C ,  2-C ) :   1.5911
B(  1-C , 32-H ) :   0.9679 B(  2-C ,  3-C ) :   1.2565 B(  2-C ,  6-C ) :   1.0132
B(  3-C ,  4-C ) :   1.5442 B(  3-C ,  5-H ) :   1.0058 B(  4-C , 20-C ) :   1.0545
B(  6-C ,  7-H ) :   0.9473 B(  6-C ,  8-H ) :   0.9310 B(  6-C ,  9-C ) :   1.0778
B(  9-C , 10-H ) :   0.9545 B(  9-C , 11-H ) :   0.9518 B(  9-C , 12-C ) :   1.0756
B( 12-C , 13-H ) :   0.9702 B( 12-C , 14-H ) :   0.9728 B( 12-C , 15-H ) :   0.9716
B( 16-S , 17-C ) :   1.1326 B( 16-S , 20-C ) :   1.1345 B( 17-C , 18-C ) :   1.6539
B( 17-C , 33-H ) :   0.9575 B( 18-C , 19-C ) :   1.2402 B( 18-C , 21-H ) :   0.9935
B( 19-C , 20-C ) :   1.5826 B( 19-C , 22-C ) :   1.0307 B( 22-C , 23-H ) :   0.9314
B( 22-C , 24-H ) :   0.9262 B( 22-C , 25-C ) :   1.0652 B( 25-C , 26-H ) :   0.9524
B( 25-C , 27-H ) :   0.9483 B( 25-C , 28-C ) :   1.0709 B( 28-C , 29-H ) :   0.9764
B( 28-C , 30-H ) :   0.9776 B( 28-C , 31-H ) :   0.9738

Dispersion correction           -0.015776154
FINAL SINGLE POINT ENERGY     -1339.867463916016

DIPOLE MOMENT
-------------
                                X             Y             Z
Electronic contribution:    -24.58595      -8.49919      -7.15245
Nuclear contribution   :     25.05935       8.56495       7.75451
                        -----------------------------------------
Total Dipole Moment    :      0.47340       0.06576       0.60206
                        -----------------------------------------
Magnitude (a.u.)       :      0.76870
Magnitude (Debye)      :      1.95388

Rotational constants in cm-1:     0.020605     0.009114     0.007721
Rotational constants in MHz :   617.715523   273.232862   231.477035

                             ****ORCA TERMINATED NORMALLY****
TOTAL RUN TIME: 0 days 0 hours 0 minutes 31 seconds 841 msec
