                         Program Version 4.2.1 -  RELEASE  -
|  1> ! wB97X-D3 SP def2-SVP
|  2> %pal
|  3> nprocs 16
|  4> end
|  5>
|  6> * xyz 0 1
|  7> S 	 -13.7209 	 66.4381 	 55.9058
|  8> C 	 -12.9568 	 64.8888 	 56.3965
|  9> C 	 -12.5989 	 64.2477 	 55.247
| 10> C 	 -12.4534 	 65.1654 	 54.196
| 11> C 	 -12.7521 	 66.4438 	 54.4714
| 12> H 	 -11.9716 	 64.8638 	 53.2738
| 13> C 	 -12.1555 	 62.8077 	 55.093
| 14> H 	 -12.2402 	 62.5927 	 54.0408
| 15> H 	 -12.8731 	 62.1863 	 55.5792
| 16> C 	 -10.7007 	 62.5141 	 55.6106
| 17> H 	 -9.94769 	 63.1586 	 55.269
| 18> H 	 -10.732 	 62.6606 	 56.7
| 19> C 	 -10.1935 	 61.1335 	 55.3735
| 20> H 	 -9.10942 	 61.0281 	 55.6377
| 21> H 	 -10.6888 	 60.3459 	 55.9039
| 22> H 	 -10.3043 	 60.7802 	 54.3699
| 23> S 	 -13.6552 	 68.6754 	 53.1101
| 24> C 	 -12.4966 	 69.8356 	 52.5221
| 25> C 	 -11.1423 	 69.445 	 52.7063
| 26> C 	 -11.1133 	 68.2193 	 53.4572
| 27> C 	 -12.3761 	 67.6826 	 53.7431
| 28> H 	 -10.4532 	 70.1734 	 52.3589
| 29> C 	 -9.7765 	 67.5909 	 53.7786
| 30> H 	 -9.03972 	 67.6373 	 52.9695
| 31> H 	 -9.89152 	 66.5596 	 53.9229
| 32> C 	 -9.13355 	 68.1704 	 55.0822
| 33> H 	 -9.88745 	 68.2743 	 55.8583
| 34> H 	 -8.79926 	 69.148 	 54.8085
| 35> C 	 -7.84668 	 67.3793 	 55.544
| 36> H 	 -8.08727 	 66.4247 	 56.0698
| 37> H 	 -7.03244 	 67.9574 	 56.0996
| 38> H 	 -7.36241 	 67.0364 	 54.6297
| 39> H 	 -13.2364 	 64.4556 	 57.4272
| 40> H 	 -12.6868 	 70.7484 	 52.0333
| 41> *
| 42>
| 43>                          ****END OF INPUT****

CARTESIAN COORDINATES (ANGSTROEM)
---------------------------------
  S    -13.720900   66.438100   55.905800
  C    -12.956800   64.888800   56.396500
  C    -12.598900   64.247700   55.247000
  C    -12.453400   65.165400   54.196000
  C    -12.752100   66.443800   54.471400
  H    -11.971600   64.863800   53.273800
  C    -12.155500   62.807700   55.093000
  H    -12.240200   62.592700   54.040800
  H    -12.873100   62.186300   55.579200
  C    -10.700700   62.514100   55.610600
  H     -9.947690   63.158600   55.269000
  H    -10.732000   62.660600   56.700000
  C    -10.193500   61.133500   55.373500
  H     -9.109420   61.028100   55.637700
  H    -10.688800   60.345900   55.903900
  H    -10.304300   60.780200   54.369900
  S    -13.655200   68.675400   53.110100
  C    -12.496600   69.835600   52.522100
  C    -11.142300   69.445000   52.706300
  C    -11.113300   68.219300   53.457200
  C    -12.376100   67.682600   53.743100
  H    -10.453200   70.173400   52.358900
  C     -9.776500   67.590900   53.778600
  H     -9.039720   67.637300   52.969500
  H     -9.891520   66.559600   53.922900
  C     -9.133550   68.170400   55.082200
  H     -9.887450   68.274300   55.858300
  H     -8.799260   69.148000   54.808500
  C     -7.846680   67.379300   55.544000
  H     -8.087270   66.424700   56.069800
  H     -7.032440   67.957400   56.099600
  H     -7.362410   67.036400   54.629700
  H    -13.236400   64.455600   57.427200
  H    -12.686800   70.748400   52.033300

 Total Charge           Charge          ....    0
 Multiplicity           Mult            ....    1
 Number of Electrons    NEL             ....  134
 Basis Dimension        Dim             ....  322

ORBITAL ENERGIES
----------------

  NO   OCC          E(Eh)            E(eV)
   0   2.0000     -88.970272     -2421.0042
   1   2.0000     -88.956156     -2420.6201
   2   2.0000     -10.329989      -281.0933
   3   2.0000     -10.325885      -280.9816
   4   2.0000     -10.320834      -280.8442
   5   2.0000     -10.315997      -280.7125
   6   2.0000     -10.309686      -280.5408
   7   2.0000     -10.299704      -280.2692
   8   2.0000     -10.296529      -280.1828
   9   2.0000     -10.293912      -280.1116
  10   2.0000     -10.287145      -279.9275
  11   2.0000     -10.286852      -279.9195
  12   2.0000     -10.285635      -279.8864
  13   2.0000     -10.285258      -279.8761
  14   2.0000     -10.284260      -279.8489
  15   2.0000     -10.274858      -279.5931
  16   2.0000      -8.084999      -220.0040
  17   2.0000      -8.071624      -219.6400
  18   2.0000      -6.043401      -164.4493
  19   2.0000      -6.039461      -164.3421
  20   2.0000      -6.035937      -164.2462
  21   2.0000      -6.030174      -164.0894
  22   2.0000      -6.026548      -163.9907
  23   2.0000      -6.021747      -163.8601
  24   2.0000      -1.011270       -27.5181
  25   2.0000      -0.987135       -26.8613
  26   2.0000      -0.913315       -24.8526
  27   2.0000      -0.902474       -24.5576
  28   2.0000      -0.870058       -23.6755
  29   2.0000      -0.847523       -23.0623
  30   2.0000      -0.845035       -22.9946
  31   2.0000      -0.815983       -22.2040
  32   2.0000      -0.783696       -21.3254
  33   2.0000      -0.768655       -20.9162
  34   2.0000      -0.710270       -19.3274
  35   2.0000      -0.702659       -19.1203
  36   2.0000      -0.694520       -18.8988
  37   2.0000      -0.661528       -18.0011
  38   2.0000      -0.638944       -17.3866
  39   2.0000      -0.627767       -17.0824
  40   2.0000      -0.593793       -16.1579
  41   2.0000      -0.570840       -15.5333
  42   2.0000      -0.563881       -15.3440
  43   2.0000      -0.555868       -15.1259
  44   2.0000      -0.533592       -14.5198
  45   2.0000      -0.523008       -14.2318
  46   2.0000      -0.514096       -13.9893
  47   2.0000      -0.507078       -13.7983
  48   2.0000      -0.504387       -13.7251
  49   2.0000      -0.497246       -13.5308
  50   2.0000      -0.488896       -13.3035
  51   2.0000      -0.481865       -13.1122
  52   2.0000      -0.470606       -12.8058
  53   2.0000      -0.465182       -12.6582
  54   2.0000      -0.459265       -12.4972
  55   2.0000      -0.451043       -12.2735
  56   2.0000      -0.442462       -12.0400
  57   2.0000      -0.437742       -11.9116
  58   2.0000      -0.429243       -11.6803
  59   2.0000      -0.426561       -11.6073
  60   2.0000      -0.422121       -11.4865
  61   2.0000      -0.416817       -11.3422
  62   2.0000      -0.416644       -11.3374
  63   2.0000      -0.338699        -9.2165
  64   2.0000      -0.331636        -9.0243
  65   2.0000      -0.324730        -8.8363
  66   2.0000      -0.295663        -8.0454
  67   0.0000       0.028198         0.7673
  68   0.0000       0.054747         1.4897
  69   0.0000       0.097877         2.6634
  70   0.0000       0.117007         3.1839
  71   0.0000       0.131178         3.5695

MULLIKEN ATOMIC CHARGES
-----------------------
   0 S :    0.083372
   1 C :   -0.169698
   2 C :   -0.081169
   3 C :    0.046402
   4 C :   -0.140884
   5 H :    0.006077
   6 C :    0.096166
   7 H :    0.013860
   8 H :    0.021316
   9 C :   -0.041493
  10 H :    0.020557
  11 H :    0.026845
  12 C :   -0.041526
  13 H :    0.038458
  14 H :    0.015963
  15 H :    0.015928
  16 S :    0.125100
  17 C :   -0.090278
  18 C :   -0.036674
  19 C :   -0.022281
  20 C :   -0.153571
  21 H :    0.017157
  22 C :    0.081111
  23 H :    0.025161
  24 H :   -0.003056
  25 C :   -0.057015
  26 H :    0.041918
  27 H :    0.016131
  28 C :   -0.082140
  29 H :    0.043620
  30 H :    0.052656
  31 H :    0.017207
  32 H :    0.077732
  33 H :    0.037048
Sum of atomic charges:   -0.0000000

LOEWDIN ATOMIC CHARGES
----------------------
   0 S :    0.372444
   1 C :   -0.182354
   2 C :   -0.067100
   3 C :   -0.062744
   4 C :   -0.191203
   5 H :    0.029528
   6 C :   -0.021298
   7 H :    0.026965
   8 H :    0.028305
   9 C :   -0.034532
  10 H :    0.020030
  11 H :    0.028655
  12 C :   -0.070050
  13 H :    0.034719
  14 H :    0.019958
  15 H :    0.019539
  16 S :    0.422400
  17 C :   -0.181408
  18 C :   -0.064446
  19 C :   -0.046883
  20 C :   -0.205839
  21 H :    0.031955
  22 C :   -0.030371
  23 H :    0.030640
  24 H :    0.016756
  25 C :   -0.030237
  26 H :    0.025246
  27 H :    0.017357
  28 C :   -0.079729
  29 H :    0.028642
  30 H :    0.035208
  31 H :    0.020888
  32 H :    0.040746
  33 H :    0.018213

  Mayer bond orders larger than 0.100000
B(  0-S ,  1-C ) :   1.1158 B(  0-S ,  4-C ) :   1.1364 B(  1-C ,  2-C ) :   1.6103
B(  1-C ,  4-C ) :   0.1035 B(  1-C , 32-H ) :   0.9657 B(  2-C ,  3-C ) :   1.2147
B(  2-C ,  6-C ) :   1.0298 B(  3-C ,  4-C ) :   1.5986 B(  3-C ,  5-H ) :   1.0033
B(  4-C , 20-C ) :   1.0083 B(  6-C ,  7-H ) :   0.9401 B(  6-C ,  8-H ) :   0.9329
B(  6-C ,  9-C ) :   1.0604 B(  9-C , 10-H ) :   0.9589 B(  9-C , 11-H ) :   0.9523
B(  9-C , 12-C ) :   1.0916 B( 12-C , 13-H ) :   0.9718 B( 12-C , 14-H ) :   0.9713
B( 12-C , 15-H ) :   0.9723 B( 16-S , 17-C ) :   1.1702 B( 16-S , 20-C ) :   1.1487
B( 17-C , 18-C ) :   1.6129 B( 17-C , 20-C ) :   0.1016 B( 17-C , 33-H ) :   0.9693
B( 18-C , 19-C ) :   1.2199 B( 18-C , 21-H ) :   0.9993 B( 19-C , 20-C ) :   1.6015
B( 19-C , 22-C ) :   1.0523 B( 22-C , 23-H ) :   0.9359 B( 22-C , 24-H ) :   0.9307
B( 22-C , 25-C ) :   1.0535 B( 25-C , 26-H ) :   0.9624 B( 25-C , 27-H ) :   0.9588
B( 25-C , 28-C ) :   1.0648 B( 28-C , 29-H ) :   0.9769 B( 28-C , 30-H ) :   0.9771
B( 28-C , 31-H ) :   0.9714

Dispersion correction           -0.014084151
FINAL SINGLE POINT ENERGY     -1339.847850208628

DIPOLE MOMENT
-------------
                                X             Y             Z
Electronic contribution:    -26.05210      18.04244      -5.13060
Nuclear contribution   :     26.60925     -18.44664       4.96731
                        -----------------------------------------
Total Dipole Moment    :      0.55715      -0.40420      -0.16329
                        -----------------------------------------
Magnitude (a.u.)       :      0.70743
Magnitude (Debye)      :      1.79813

Rotational constants in cm-1:     0.017962     0.008820     0.006822
Rotational constants in MHz :   538.488909   264.423300   204.505162

                             ****ORCA TERMINATED NORMALLY****
TOTAL RUN TIME: 0 days 0 hours 0 minutes 33 seconds 353 msec
