                         Program Version 4.2.1 -  RELEASE  -
|  1> ! wB97X-D3 SP def2-SVP
|  2> %pal
|  3> nprocs 16
|  4> end
|  5>
|  6> * xyz 0 1
|  7> S 	 -81.2589 	 44.8777 	 130.76
|  8> C 	 -83.0205 	 45.1315 	 130.355
|  9> C 	 -83.5026 	 46.2254 	 130.991
| 10> C 	 -82.4737 	 46.8472 	 131.681
| 11> C 	 -81.2792 	 46.1944 	 131.808
| 12> H 	 -82.6804 	 47.6977 	 132.327
| 13> C 	 -84.9389 	 46.7703 	 130.983
| 14> H 	 -85.3384 	 46.7082 	 132.007
| 15> H 	 -85.6306 	 46.1212 	 130.394
| 16> C 	 -85.0491 	 48.1734 	 130.392
| 17> H 	 -86.0854 	 48.4991 	 130.365
| 18> H 	 -84.626 	 48.9466 	 131.039
| 19> C 	 -84.4148 	 48.3593 	 128.989
| 20> H 	 -83.3256 	 48.2413 	 129.068
| 21> H 	 -84.8573 	 47.741 	 128.281
| 22> H 	 -84.4667 	 49.4292 	 128.807
| 23> S 	 -78.921 	 47.6169 	 132.229
| 24> C 	 -78.26 	 47.6244 	 133.881
| 25> C 	 -79.0871 	 47.031 	 134.808
| 26> C 	 -80.1712 	 46.3705 	 134.148
| 27> C 	 -80.225 	 46.5295 	 132.784
| 28> H 	 -78.6743 	 47.0145 	 135.821
| 29> C 	 -81.2551 	 45.6566 	 134.942
| 30> H 	 -82.2308 	 46.0571 	 134.66
| 31> H 	 -80.9846 	 45.9602 	 135.969
| 32> C 	 -81.2676 	 44.1884 	 134.762
| 33> H 	 -80.2649 	 43.8279 	 134.947
| 34> H 	 -81.48 	 43.9554 	 133.74
| 35> C 	 -82.2714 	 43.3584 	 135.667
| 36> H 	 -82.1554 	 42.3138 	 135.294
| 37> H 	 -83.3206 	 43.6466 	 135.509
| 38> H 	 -81.9858 	 43.5486 	 136.689
| 39> H 	 -83.6335 	 44.3252 	 129.844
| 40> H 	 -77.2958 	 48.1309 	 134.122
| 41> *
| 42>
| 43>                          ****END OF INPUT****

CARTESIAN COORDINATES (ANGSTROEM)
---------------------------------
  S    -81.258900   44.877700  130.760000
  C    -83.020500   45.131500  130.355000
  C    -83.502600   46.225400  130.991000
  C    -82.473700   46.847200  131.681000
  C    -81.279200   46.194400  131.808000
  H    -82.680400   47.697700  132.327000
  C    -84.938900   46.770300  130.983000
  H    -85.338400   46.708200  132.007000
  H    -85.630600   46.121200  130.394000
  C    -85.049100   48.173400  130.392000
  H    -86.085400   48.499100  130.365000
  H    -84.626000   48.946600  131.039000
  C    -84.414800   48.359300  128.989000
  H    -83.325600   48.241300  129.068000
  H    -84.857300   47.741000  128.281000
  H    -84.466700   49.429200  128.807000
  S    -78.921000   47.616900  132.229000
  C    -78.260000   47.624400  133.881000
  C    -79.087100   47.031000  134.808000
  C    -80.171200   46.370500  134.148000
  C    -80.225000   46.529500  132.784000
  H    -78.674300   47.014500  135.821000
  C    -81.255100   45.656600  134.942000
  H    -82.230800   46.057100  134.660000
  H    -80.984600   45.960200  135.969000
  C    -81.267600   44.188400  134.762000
  H    -80.264900   43.827900  134.947000
  H    -81.480000   43.955400  133.740000
  C    -82.271400   43.358400  135.667000
  H    -82.155400   42.313800  135.294000
  H    -83.320600   43.646600  135.509000
  H    -81.985800   43.548600  136.689000
  H    -83.633500   44.325200  129.844000
  H    -77.295800   48.130900  134.122000

 Total Charge           Charge          ....    0
 Multiplicity           Mult            ....    1
 Number of Electrons    NEL             ....  134
 Basis Dimension        Dim             ....  322

ORBITAL ENERGIES
----------------

  NO   OCC          E(Eh)            E(eV)
   0   2.0000     -88.965610     -2420.8773
   1   2.0000     -88.963360     -2420.8161
   2   2.0000     -10.326814      -281.0069
   3   2.0000     -10.325050      -280.9589
   4   2.0000     -10.323143      -280.9070
   5   2.0000     -10.320860      -280.8449
   6   2.0000     -10.304758      -280.4067
   7   2.0000     -10.301658      -280.3224
   8   2.0000     -10.298992      -280.2498
   9   2.0000     -10.297624      -280.2126
  10   2.0000     -10.286986      -279.9231
  11   2.0000     -10.285570      -279.8846
  12   2.0000     -10.285077      -279.8712
  13   2.0000     -10.279908      -279.7305
  14   2.0000     -10.274725      -279.5895
  15   2.0000     -10.271493      -279.5015
  16   2.0000      -8.080416      -219.8793
  17   2.0000      -8.077404      -219.7974
  18   2.0000      -6.038812      -164.3244
  19   2.0000      -6.035851      -164.2438
  20   2.0000      -6.034866      -164.2171
  21   2.0000      -6.032155      -164.1433
  22   2.0000      -6.031288      -164.1197
  23   2.0000      -6.028129      -164.0337
  24   2.0000      -1.010827       -27.5060
  25   2.0000      -0.984960       -26.8021
  26   2.0000      -0.913523       -24.8582
  27   2.0000      -0.907772       -24.7017
  28   2.0000      -0.868953       -23.6454
  29   2.0000      -0.845323       -23.0024
  30   2.0000      -0.843322       -22.9480
  31   2.0000      -0.811185       -22.0735
  32   2.0000      -0.789407       -21.4808
  33   2.0000      -0.771940       -21.0056
  34   2.0000      -0.707627       -19.2555
  35   2.0000      -0.696216       -18.9450
  36   2.0000      -0.686503       -18.6807
  37   2.0000      -0.659377       -17.9426
  38   2.0000      -0.637021       -17.3342
  39   2.0000      -0.624051       -16.9813
  40   2.0000      -0.591279       -16.0895
  41   2.0000      -0.571453       -15.5500
  42   2.0000      -0.563732       -15.3399
  43   2.0000      -0.558195       -15.1893
  44   2.0000      -0.541414       -14.7326
  45   2.0000      -0.523681       -14.2501
  46   2.0000      -0.515784       -14.0352
  47   2.0000      -0.508740       -13.8435
  48   2.0000      -0.497446       -13.5362
  49   2.0000      -0.496202       -13.5023
  50   2.0000      -0.486030       -13.2255
  51   2.0000      -0.482816       -13.1381
  52   2.0000      -0.476122       -12.9559
  53   2.0000      -0.463966       -12.6252
  54   2.0000      -0.459669       -12.5082
  55   2.0000      -0.440620       -11.9899
  56   2.0000      -0.438388       -11.9291
  57   2.0000      -0.436451       -11.8764
  58   2.0000      -0.434208       -11.8154
  59   2.0000      -0.422578       -11.4989
  60   2.0000      -0.420136       -11.4325
  61   2.0000      -0.415708       -11.3120
  62   2.0000      -0.405501       -11.0343
  63   2.0000      -0.338391        -9.2081
  64   2.0000      -0.334993        -9.1156
  65   2.0000      -0.317789        -8.6475
  66   2.0000      -0.314757        -8.5650
  67   0.0000       0.043148         1.1741
  68   0.0000       0.050753         1.3811
  69   0.0000       0.109287         2.9739
  70   0.0000       0.118056         3.2125
  71   0.0000       0.128891         3.5073

MULLIKEN ATOMIC CHARGES
-----------------------
   0 S :    0.106843
   1 C :   -0.173487
   2 C :   -0.071032
   3 C :    0.050075
   4 C :   -0.177400
   5 H :    0.007260
   6 C :    0.085826
   7 H :    0.042587
   8 H :    0.021600
   9 C :   -0.111705
  10 H :    0.026420
  11 H :    0.024747
  12 C :   -0.017722
  13 H :    0.041649
  14 H :    0.030115
  15 H :    0.027017
  16 S :    0.093503
  17 C :   -0.118731
  18 C :   -0.040912
  19 C :   -0.044290
  20 C :   -0.155851
  21 H :    0.036124
  22 C :    0.123466
  23 H :    0.022221
  24 H :    0.008788
  25 C :   -0.086317
  26 H :    0.017394
  27 H :    0.021422
  28 C :   -0.043426
  29 H :    0.046747
  30 H :    0.031808
  31 H :    0.032740
  32 H :    0.071620
  33 H :    0.070902
Sum of atomic charges:   -0.0000000

LOEWDIN ATOMIC CHARGES
----------------------
   0 S :    0.408805
   1 C :   -0.183674
   2 C :   -0.068732
   3 C :   -0.067113
   4 C :   -0.219689
   5 H :    0.028637
   6 C :   -0.028552
   7 H :    0.036335
   8 H :    0.031954
   9 C :   -0.046243
  10 H :    0.023506
  11 H :    0.021908
  12 C :   -0.055269
  13 H :    0.031821
  14 H :    0.014981
  15 H :    0.029838
  16 S :    0.374817
  17 C :   -0.169260
  18 C :   -0.083157
  19 C :   -0.047234
  20 C :   -0.191134
  21 H :    0.042063
  22 C :   -0.030203
  23 H :    0.029107
  24 H :    0.027704
  25 C :   -0.040351
  26 H :    0.021370
  27 H :    0.015692
  28 C :   -0.062245
  29 H :    0.034542
  30 H :    0.023570
  31 H :    0.020827
  32 H :    0.040253
  33 H :    0.035127

  Mayer bond orders larger than 0.100000
B(  0-S ,  1-C ) :   1.1302 B(  0-S ,  4-C ) :   1.1676 B(  1-C ,  2-C ) :   1.6202
B(  1-C , 32-H ) :   0.9569 B(  2-C ,  3-C ) :   1.2491 B(  2-C ,  6-C ) :   1.0101
B(  3-C ,  4-C ) :   1.5844 B(  3-C ,  5-H ) :   0.9907 B(  4-C , 20-C ) :   0.9913
B(  6-C ,  7-H ) :   0.9391 B(  6-C ,  8-H ) :   0.9433 B(  6-C ,  9-C ) :   1.0702
B(  9-C , 10-H ) :   0.9564 B(  9-C , 11-H ) :   0.9536 B(  9-C , 12-C ) :   1.0799
B( 12-C , 13-H ) :   0.9694 B( 12-C , 14-H ) :   0.9801 B( 12-C , 15-H ) :   0.9708
B( 16-S , 17-C ) :   1.1586 B( 16-S , 20-C ) :   1.1237 B( 17-C , 18-C ) :   1.6408
B( 17-C , 33-H ) :   0.9577 B( 18-C , 19-C ) :   1.2113 B( 18-C , 21-H ) :   0.9877
B( 19-C , 20-C ) :   1.6449 B( 19-C , 22-C ) :   1.0323 B( 22-C , 23-H ) :   0.9230
B( 22-C , 24-H ) :   0.9303 B( 22-C , 25-C ) :   1.0798 B( 25-C , 26-H ) :   0.9517
B( 25-C , 27-H ) :   0.9532 B( 25-C , 28-C ) :   1.0787 B( 28-C , 29-H ) :   0.9764
B( 28-C , 30-H ) :   0.9762 B( 28-C , 31-H ) :   0.9777

Dispersion correction           -0.015168141
FINAL SINGLE POINT ENERGY     -1339.873358583596

DIPOLE MOMENT
-------------
                                X             Y             Z
Electronic contribution:     19.81961       1.19311      -6.39603
Nuclear contribution   :    -20.32106      -1.05539       6.80961
                        -----------------------------------------
Total Dipole Moment    :     -0.50145       0.13772       0.41358
                        -----------------------------------------
Magnitude (a.u.)       :      0.66443
Magnitude (Debye)      :      1.68885

Rotational constants in cm-1:     0.017814     0.009245     0.007551
Rotational constants in MHz :   534.052578   277.157797   226.364579

                             ****ORCA TERMINATED NORMALLY****
TOTAL RUN TIME: 0 days 0 hours 0 minutes 34 seconds 980 msec
