                         Program Version 4.2.1 -  RELEASE  -
|  1> ! wB97X-D3 SP def2-SVP
|  2> %pal
|  3> nprocs 16
|  4> end
|  5>
|  6> * xyz 0 1
|  7> S 	 -0.00986244 	 27.8661 	 42.4021
|  8> C 	 -0.594092 	 26.472 	 41.521
|  9> C 	 -0.7473 	 26.7758 	 40.1709
| 10> C 	 -0.25989 	 28.1145 	 39.947
| 11> C 	 0.104941 	 28.8802 	 41.056
| 12> H 	 -0.144572 	 28.4859 	 38.9817
| 13> C 	 -1.26682 	 25.7648 	 39.1261
| 14> H 	 -2.12057 	 26.3196 	 38.6993
| 15> H 	 -1.66265 	 24.9479 	 39.6606
| 16> C 	 -0.239257 	 25.46 	 37.9847
| 17> H 	 -0.196034 	 26.4419 	 37.5072
| 18> H 	 0.738538 	 25.2112 	 38.2972
| 19> C 	 -0.938047 	 24.3913 	 37.0911
| 20> H 	 -1.96712 	 24.7706 	 36.7105
| 21> H 	 -0.379252 	 24.2982 	 36.1949
| 22> H 	 -1.12108 	 23.3916 	 37.5196
| 23> S 	 1.3315 	 30.7084 	 42.7009
| 24> C 	 1.39871 	 32.3514 	 42.1851
| 25> C 	 0.96146 	 32.5552 	 40.9112
| 26> C 	 0.490254 	 31.3223 	 40.3377
| 27> C 	 0.573737 	 30.2492 	 41.1819
| 28> H 	 1.07296 	 33.4732 	 40.4254
| 29> C 	 0.147135 	 31.2066 	 38.87
| 30> H 	 0.622854 	 30.418 	 38.4027
| 31> H 	 0.524492 	 32.1905 	 38.3408
| 32> C 	 -1.37253 	 31.0959 	 38.5958
| 33> H 	 -1.86991 	 31.9381 	 39.0129
| 34> H 	 -1.85645 	 30.3218 	 39.2189
| 35> C 	 -1.68454 	 30.9463 	 37.117
| 36> H 	 -2.74074 	 30.9554 	 36.9189
| 37> H 	 -1.30189 	 29.9624 	 36.7791
| 38> H 	 -1.37655 	 31.7452 	 36.5093
| 39> H 	 -0.970047 	 25.6309 	 41.9997
| 40> H 	 1.72668 	 33.2064 	 42.7505
| 41> *
| 42>
| 43>                          ****END OF INPUT****

CARTESIAN COORDINATES (ANGSTROEM)
---------------------------------
  S     -0.009862   27.866100   42.402100
  C     -0.594092   26.472000   41.521000
  C     -0.747300   26.775800   40.170900
  C     -0.259890   28.114500   39.947000
  C      0.104941   28.880200   41.056000
  H     -0.144572   28.485900   38.981700
  C     -1.266820   25.764800   39.126100
  H     -2.120570   26.319600   38.699300
  H     -1.662650   24.947900   39.660600
  C     -0.239257   25.460000   37.984700
  H     -0.196034   26.441900   37.507200
  H      0.738538   25.211200   38.297200
  C     -0.938047   24.391300   37.091100
  H     -1.967120   24.770600   36.710500
  H     -0.379252   24.298200   36.194900
  H     -1.121080   23.391600   37.519600
  S      1.331500   30.708400   42.700900
  C      1.398710   32.351400   42.185100
  C      0.961460   32.555200   40.911200
  C      0.490254   31.322300   40.337700
  C      0.573737   30.249200   41.181900
  H      1.072960   33.473200   40.425400
  C      0.147135   31.206600   38.870000
  H      0.622854   30.418000   38.402700
  H      0.524492   32.190500   38.340800
  C     -1.372530   31.095900   38.595800
  H     -1.869910   31.938100   39.012900
  H     -1.856450   30.321800   39.218900
  C     -1.684540   30.946300   37.117000
  H     -2.740740   30.955400   36.918900
  H     -1.301890   29.962400   36.779100
  H     -1.376550   31.745200   36.509300
  H     -0.970047   25.630900   41.999700
  H      1.726680   33.206400   42.750500

 Total Charge           Charge          ....    0
 Multiplicity           Mult            ....    1
 Number of Electrons    NEL             ....  134
 Basis Dimension        Dim             ....  322

ORBITAL ENERGIES
----------------

  NO   OCC          E(Eh)            E(eV)
   0   2.0000     -88.967499     -2420.9287
   1   2.0000     -88.961153     -2420.7560
   2   2.0000     -10.328842      -281.0621
   3   2.0000     -10.326981      -281.0115
   4   2.0000     -10.313908      -280.6557
   5   2.0000     -10.306944      -280.4662
   6   2.0000     -10.302595      -280.3479
   7   2.0000     -10.301393      -280.3152
   8   2.0000     -10.295284      -280.1489
   9   2.0000     -10.294729      -280.1338
  10   2.0000     -10.293570      -280.1023
  11   2.0000     -10.289467      -279.9906
  12   2.0000     -10.288545      -279.9655
  13   2.0000     -10.287708      -279.9428
  14   2.0000     -10.280847      -279.7561
  15   2.0000     -10.274155      -279.5740
  16   2.0000      -8.082663      -219.9404
  17   2.0000      -8.077180      -219.7912
  18   2.0000      -6.041225      -164.3901
  19   2.0000      -6.037223      -164.2812
  20   2.0000      -6.035613      -164.2374
  21   2.0000      -6.033231      -164.1726
  22   2.0000      -6.031381      -164.1222
  23   2.0000      -6.028068      -164.0321
  24   2.0000      -1.013783       -27.5864
  25   2.0000      -0.988592       -26.9010
  26   2.0000      -0.911620       -24.8064
  27   2.0000      -0.910115       -24.7655
  28   2.0000      -0.873070       -23.7574
  29   2.0000      -0.855325       -23.2746
  30   2.0000      -0.841116       -22.8879
  31   2.0000      -0.817739       -22.2518
  32   2.0000      -0.783795       -21.3281
  33   2.0000      -0.773242       -21.0410
  34   2.0000      -0.716006       -19.4835
  35   2.0000      -0.705251       -19.1909
  36   2.0000      -0.694814       -18.9069
  37   2.0000      -0.669337       -18.2136
  38   2.0000      -0.643428       -17.5086
  39   2.0000      -0.627067       -17.0633
  40   2.0000      -0.600834       -16.3495
  41   2.0000      -0.571633       -15.5549
  42   2.0000      -0.567918       -15.4538
  43   2.0000      -0.557305       -15.1650
  44   2.0000      -0.528578       -14.3833
  45   2.0000      -0.524941       -14.2844
  46   2.0000      -0.514751       -14.0071
  47   2.0000      -0.510232       -13.8841
  48   2.0000      -0.508210       -13.8291
  49   2.0000      -0.505507       -13.7555
  50   2.0000      -0.494893       -13.4667
  51   2.0000      -0.483733       -13.1630
  52   2.0000      -0.472432       -12.8555
  53   2.0000      -0.466909       -12.7052
  54   2.0000      -0.460411       -12.5284
  55   2.0000      -0.457569       -12.4511
  56   2.0000      -0.451126       -12.2758
  57   2.0000      -0.439813       -11.9679
  58   2.0000      -0.435285       -11.8447
  59   2.0000      -0.429069       -11.6756
  60   2.0000      -0.422103       -11.4860
  61   2.0000      -0.413340       -11.2475
  62   2.0000      -0.404807       -11.0154
  63   2.0000      -0.361335        -9.8324
  64   2.0000      -0.334418        -9.1000
  65   2.0000      -0.324418        -8.8279
  66   2.0000      -0.283475        -7.7137
  67   0.0000       0.022502         0.6123
  68   0.0000       0.091319         2.4849
  69   0.0000       0.099297         2.7020
  70   0.0000       0.113922         3.1000
  71   0.0000       0.133586         3.6351

MULLIKEN ATOMIC CHARGES
-----------------------
   0 S :    0.086429
   1 C :   -0.101134
   2 C :   -0.102323
   3 C :    0.007211
   4 C :   -0.092064
   5 H :   -0.040191
   6 C :    0.081217
   7 H :    0.037138
   8 H :    0.006379
   9 C :   -0.057063
  10 H :    0.033015
  11 H :    0.037946
  12 C :   -0.057335
  13 H :    0.031134
  14 H :    0.026655
  15 H :    0.047919
  16 S :    0.111219
  17 C :   -0.069359
  18 C :   -0.008801
  19 C :   -0.059388
  20 C :   -0.099566
  21 H :   -0.002403
  22 C :    0.026271
  23 H :    0.018437
  24 H :    0.033423
  25 C :   -0.081715
  26 H :    0.006279
  27 H :    0.038072
  28 C :    0.000769
  29 H :    0.021532
  30 H :    0.025460
  31 H :    0.019884
  32 H :    0.026023
  33 H :    0.048930
Sum of atomic charges:    0.0000000

LOEWDIN ATOMIC CHARGES
----------------------
   0 S :    0.425264
   1 C :   -0.194643
   2 C :   -0.055631
   3 C :   -0.076093
   4 C :   -0.203122
   5 H :    0.009546
   6 C :   -0.022057
   7 H :    0.037229
   8 H :    0.019341
   9 C :   -0.027244
  10 H :    0.028573
  11 H :    0.020687
  12 C :   -0.069393
  13 H :    0.034726
  14 H :    0.018138
  15 H :    0.028934
  16 S :    0.408891
  17 C :   -0.183617
  18 C :   -0.063853
  19 C :   -0.053240
  20 C :   -0.190359
  21 H :    0.024608
  22 C :   -0.026076
  23 H :    0.013311
  24 H :    0.040819
  25 C :   -0.045102
  26 H :    0.018323
  27 H :    0.028658
  28 C :   -0.060957
  29 H :    0.026326
  30 H :    0.025815
  31 H :    0.019070
  32 H :    0.012965
  33 H :    0.030161

  Mayer bond orders larger than 0.100000
B(  0-S ,  1-C ) :   1.1469 B(  0-S ,  4-C ) :   1.1710 B(  1-C ,  2-C ) :   1.5836
B(  1-C , 32-H ) :   0.9757 B(  2-C ,  3-C ) :   1.2702 B(  2-C ,  6-C ) :   1.0144
B(  3-C ,  4-C ) :   1.5235 B(  3-C ,  5-H ) :   1.0021 B(  4-C , 20-C ) :   1.0766
B(  6-C ,  7-H ) :   0.9381 B(  6-C ,  8-H ) :   0.9469 B(  6-C ,  9-C ) :   1.0455
B(  9-C , 10-H ) :   0.9527 B(  9-C , 11-H ) :   0.9668 B(  9-C , 12-C ) :   1.0780
B( 12-C , 13-H ) :   0.9718 B( 12-C , 14-H ) :   0.9744 B( 12-C , 15-H ) :   0.9778
B( 16-S , 17-C ) :   1.1545 B( 16-S , 20-C ) :   1.1165 B( 17-C , 18-C ) :   1.6271
B( 17-C , 33-H ) :   0.9625 B( 18-C , 19-C ) :   1.2362 B( 18-C , 21-H ) :   0.9987
B( 19-C , 20-C ) :   1.6194 B( 19-C , 22-C ) :   1.0337 B( 22-C , 23-H ) :   0.9464
B( 22-C , 24-H ) :   0.9393 B( 22-C , 25-C ) :   1.0474 B( 25-C , 26-H ) :   0.9466
B( 25-C , 27-H ) :   0.9558 B( 25-C , 28-C ) :   1.0861 B( 28-C , 29-H ) :   0.9693
B( 28-C , 30-H ) :   0.9725 B( 28-C , 31-H ) :   0.9716

Dispersion correction           -0.014216265
FINAL SINGLE POINT ENERGY     -1339.868568078754

DIPOLE MOMENT
-------------
                                X             Y             Z
Electronic contribution:     11.23709       8.18703      29.98497
Nuclear contribution   :    -11.45441      -8.13680     -30.68378
                        -----------------------------------------
Total Dipole Moment    :     -0.21732       0.05023      -0.69881
                        -----------------------------------------
Magnitude (a.u.)       :      0.73355
Magnitude (Debye)      :      1.86453

Rotational constants in cm-1:     0.019236     0.008939     0.006482
Rotational constants in MHz :   576.672898   267.993242   194.334238

                             ****ORCA TERMINATED NORMALLY****
TOTAL RUN TIME: 0 days 0 hours 0 minutes 35 seconds 942 msec
