                         Program Version 4.2.1 -  RELEASE  -
|  1> ! wB97X-D3 SP def2-SVP
|  2> %pal
|  3> nprocs 16
|  4> end
|  5>
|  6> * xyz 0 1
|  7> S 	 6.3385 	 -7.68232 	 90.6476
|  8> C 	 6.8319 	 -6.96543 	 92.1191
|  9> C 	 5.81124 	 -6.25377 	 92.7051
| 10> C 	 4.50494 	 -6.47313 	 92.0716
| 11> C 	 4.66026 	 -7.28606 	 90.9616
| 12> H 	 3.51925 	 -6.03201 	 92.2273
| 13> C 	 5.9815 	 -5.36842 	 93.8761
| 14> H 	 5.35187 	 -4.48642 	 93.6373
| 15> H 	 7.0378 	 -5.02863 	 93.8938
| 16> C 	 5.57547 	 -5.87402 	 95.2588
| 17> H 	 5.60723 	 -5.06205 	 95.9609
| 18> H 	 4.5435 	 -6.1919 	 95.2277
| 19> C 	 6.406 	 -7.00066 	 95.8752
| 20> H 	 6.13984 	 -8.02902 	 95.6319
| 21> H 	 7.4729 	 -6.93231 	 95.6484
| 22> H 	 6.34307 	 -6.99493 	 96.9706
| 23> S 	 3.91485 	 -6.96191 	 88.2823
| 24> C 	 2.55541 	 -7.81248 	 87.7895
| 25> C 	 1.81639 	 -8.34746 	 88.8125
| 26> C 	 2.41234 	 -8.222 	 90.119
| 27> C 	 3.63529 	 -7.5943 	 89.9349
| 28> H 	 0.960697 	 -8.97896 	 88.5105
| 29> C 	 1.88277 	 -8.87693 	 91.3363
| 30> H 	 0.795999 	 -8.55928 	 91.4373
| 31> H 	 2.42387 	 -8.37818 	 92.1501
| 32> C 	 2.09353 	 -10.4253 	 91.6529
| 33> H 	 3.17863 	 -10.685 	 91.4399
| 34> H 	 1.3882 	 -10.9866 	 90.9636
| 35> C 	 1.80473 	 -10.7629 	 93.1606
| 36> H 	 2.43934 	 -10.2478 	 93.7649
| 37> H 	 1.92973 	 -11.8067 	 93.2459
| 38> H 	 0.775583 	 -10.5274 	 93.4727
| 39> H 	 7.90405 	 -6.88083 	 92.43
| 40> H 	 2.18865 	 -7.82016 	 86.786
| 41> *
| 42>
| 43>                          ****END OF INPUT****

CARTESIAN COORDINATES (ANGSTROEM)
---------------------------------
  S      6.338500   -7.682320   90.647600
  C      6.831900   -6.965430   92.119100
  C      5.811240   -6.253770   92.705100
  C      4.504940   -6.473130   92.071600
  C      4.660260   -7.286060   90.961600
  H      3.519250   -6.032010   92.227300
  C      5.981500   -5.368420   93.876100
  H      5.351870   -4.486420   93.637300
  H      7.037800   -5.028630   93.893800
  C      5.575470   -5.874020   95.258800
  H      5.607230   -5.062050   95.960900
  H      4.543500   -6.191900   95.227700
  C      6.406000   -7.000660   95.875200
  H      6.139840   -8.029020   95.631900
  H      7.472900   -6.932310   95.648400
  H      6.343070   -6.994930   96.970600
  S      3.914850   -6.961910   88.282300
  C      2.555410   -7.812480   87.789500
  C      1.816390   -8.347460   88.812500
  C      2.412340   -8.222000   90.119000
  C      3.635290   -7.594300   89.934900
  H      0.960697   -8.978960   88.510500
  C      1.882770   -8.876930   91.336300
  H      0.795999   -8.559280   91.437300
  H      2.423870   -8.378180   92.150100
  C      2.093530  -10.425300   91.652900
  H      3.178630  -10.685000   91.439900
  H      1.388200  -10.986600   90.963600
  C      1.804730  -10.762900   93.160600
  H      2.439340  -10.247800   93.764900
  H      1.929730  -11.806700   93.245900
  H      0.775583  -10.527400   93.472700
  H      7.904050   -6.880830   92.430000
  H      2.188650   -7.820160   86.786000

 Total Charge           Charge          ....    0
 Multiplicity           Mult            ....    1
 Number of Electrons    NEL             ....  134
 Basis Dimension        Dim             ....  322

ORBITAL ENERGIES
----------------

  NO   OCC          E(Eh)            E(eV)
   0   2.0000     -88.966154     -2420.8921
   1   2.0000     -88.962837     -2420.8019
   2   2.0000     -10.327220      -281.0179
   3   2.0000     -10.326642      -281.0022
   4   2.0000     -10.312070      -280.6057
   5   2.0000     -10.305463      -280.4259
   6   2.0000     -10.303390      -280.3695
   7   2.0000     -10.302368      -280.3417
   8   2.0000     -10.301051      -280.3059
   9   2.0000     -10.298263      -280.2300
  10   2.0000     -10.295704      -280.1604
  11   2.0000     -10.290807      -280.0271
  12   2.0000     -10.289096      -279.9805
  13   2.0000     -10.284215      -279.8477
  14   2.0000     -10.275545      -279.6118
  15   2.0000     -10.272138      -279.5191
  16   2.0000      -8.081736      -219.9152
  17   2.0000      -8.078450      -219.8258
  18   2.0000      -6.040040      -164.3579
  19   2.0000      -6.036877      -164.2718
  20   2.0000      -6.036337      -164.2571
  21   2.0000      -6.032896      -164.1635
  22   2.0000      -6.032454      -164.1514
  23   2.0000      -6.029193      -164.0627
  24   2.0000      -1.007236       -27.4083
  25   2.0000      -0.987060       -26.8593
  26   2.0000      -0.911710       -24.8089
  27   2.0000      -0.902944       -24.5704
  28   2.0000      -0.865642       -23.5553
  29   2.0000      -0.854341       -23.2478
  30   2.0000      -0.846895       -23.0452
  31   2.0000      -0.811593       -22.0846
  32   2.0000      -0.785244       -21.3676
  33   2.0000      -0.771518       -20.9941
  34   2.0000      -0.708079       -19.2678
  35   2.0000      -0.697876       -18.9902
  36   2.0000      -0.688569       -18.7369
  37   2.0000      -0.652997       -17.7689
  38   2.0000      -0.640481       -17.4284
  39   2.0000      -0.613471       -16.6934
  40   2.0000      -0.592787       -16.1305
  41   2.0000      -0.563005       -15.3202
  42   2.0000      -0.559444       -15.2232
  43   2.0000      -0.545728       -14.8500
  44   2.0000      -0.542400       -14.7595
  45   2.0000      -0.524965       -14.2850
  46   2.0000      -0.515440       -14.0258
  47   2.0000      -0.512488       -13.9455
  48   2.0000      -0.499375       -13.5887
  49   2.0000      -0.495102       -13.4724
  50   2.0000      -0.487392       -13.2626
  51   2.0000      -0.480004       -13.0616
  52   2.0000      -0.471618       -12.8334
  53   2.0000      -0.460807       -12.5392
  54   2.0000      -0.458745       -12.4831
  55   2.0000      -0.446226       -12.1424
  56   2.0000      -0.444544       -12.0967
  57   2.0000      -0.439239       -11.9523
  58   2.0000      -0.435384       -11.8474
  59   2.0000      -0.426563       -11.6074
  60   2.0000      -0.421431       -11.4677
  61   2.0000      -0.417300       -11.3553
  62   2.0000      -0.415053       -11.2942
  63   2.0000      -0.345034        -9.3889
  64   2.0000      -0.331940        -9.0325
  65   2.0000      -0.322421        -8.7735
  66   2.0000      -0.293514        -7.9869
  67   0.0000       0.036516         0.9936
  68   0.0000       0.070055         1.9063
  69   0.0000       0.112165         3.0522
  70   0.0000       0.113724         3.0946
  71   0.0000       0.130601         3.5538

MULLIKEN ATOMIC CHARGES
-----------------------
   0 S :    0.108624
   1 C :   -0.123813
   2 C :   -0.101859
   3 C :    0.046691
   4 C :   -0.187469
   5 H :    0.028898
   6 C :    0.046784
   7 H :    0.031732
   8 H :    0.021058
   9 C :   -0.027500
  10 H :    0.024864
  11 H :    0.019918
  12 C :   -0.060270
  13 H :    0.033094
  14 H :    0.019363
  15 H :    0.027353
  16 S :    0.126689
  17 C :   -0.079982
  18 C :   -0.054825
  19 C :   -0.010136
  20 C :   -0.181750
  21 H :    0.024990
  22 C :    0.044492
  23 H :    0.040953
  24 H :    0.007433
  25 C :   -0.099753
  26 H :    0.050931
  27 H :    0.041009
  28 C :   -0.004616
  29 H :    0.018744
  30 H :    0.030498
  31 H :    0.028421
  32 H :    0.065222
  33 H :    0.044212
Sum of atomic charges:   -0.0000000

LOEWDIN ATOMIC CHARGES
----------------------
   0 S :    0.414249
   1 C :   -0.219218
   2 C :   -0.066357
   3 C :   -0.064059
   4 C :   -0.192834
   5 H :    0.037827
   6 C :   -0.038629
   7 H :    0.038599
   8 H :    0.030637
   9 C :   -0.038174
  10 H :    0.024368
  11 H :    0.023827
  12 C :   -0.071945
  13 H :    0.025136
  14 H :    0.022016
  15 H :    0.028303
  16 S :    0.415462
  17 C :   -0.206279
  18 C :   -0.077092
  19 C :   -0.057032
  20 C :   -0.187480
  21 H :    0.034238
  22 C :   -0.048106
  23 H :    0.040194
  24 H :    0.028728
  25 C :   -0.033809
  26 H :    0.035088
  27 H :    0.025999
  28 C :   -0.051219
  29 H :    0.011896
  30 H :    0.024810
  31 H :    0.027735
  32 H :    0.038903
  33 H :    0.024217

  Mayer bond orders larger than 0.100000
B(  0-S ,  1-C ) :   1.1325 B(  0-S ,  4-C ) :   1.1616 B(  1-C ,  2-C ) :   1.6283
B(  1-C , 32-H ) :   0.9613 B(  2-C ,  3-C ) :   1.1992 B(  2-C ,  6-C ) :   1.0392
B(  3-C ,  4-C ) :   1.5930 B(  3-C ,  5-H ) :   0.9875 B(  4-C , 20-C ) :   1.0147
B(  6-C ,  7-H ) :   0.9317 B(  6-C ,  8-H ) :   0.9385 B(  6-C ,  9-C ) :   1.0876
B(  9-C , 10-H ) :   0.9551 B(  9-C , 11-H ) :   0.9516 B(  9-C , 12-C ) :   1.0698
B( 12-C , 13-H ) :   0.9762 B( 12-C , 14-H ) :   0.9757 B( 12-C , 15-H ) :   0.9750
B( 16-S , 17-C ) :   1.1491 B( 16-S , 20-C ) :   1.1503 B( 17-C , 18-C ) :   1.6484
B( 17-C , 33-H ) :   0.9646 B( 18-C , 19-C ) :   1.2031 B( 18-C , 21-H ) :   0.9846
B( 19-C , 20-C ) :   1.6080 B( 19-C , 22-C ) :   1.0673 B( 22-C , 23-H ) :   0.9264
B( 22-C , 24-H ) :   0.9218 B( 22-C , 25-C ) :   1.0488 B( 25-C , 26-H ) :   0.9559
B( 25-C , 27-H ) :   0.9578 B( 25-C , 28-C ) :   1.0737 B( 28-C , 29-H ) :   0.9765
B( 28-C , 30-H ) :   0.9743 B( 28-C , 31-H ) :   0.9763

Dispersion correction           -0.014059621
FINAL SINGLE POINT ENERGY     -1339.878397529547

DIPOLE MOMENT
-------------
                                X             Y             Z
Electronic contribution:      6.35649       6.48790     -27.63860
Nuclear contribution   :     -6.63816      -6.46053      28.09342
                        -----------------------------------------
Total Dipole Moment    :     -0.28168       0.02737       0.45483
                        -----------------------------------------
Magnitude (a.u.)       :      0.53568
Magnitude (Debye)      :      1.36160

Rotational constants in cm-1:     0.017778     0.009034     0.006807
Rotational constants in MHz :   532.979002   270.829265   204.080415

                             ****ORCA TERMINATED NORMALLY****
TOTAL RUN TIME: 0 days 0 hours 0 minutes 33 seconds 601 msec
