                         Program Version 4.2.1 -  RELEASE  -
|  1> ! wB97X-D3 SP def2-SVP
|  2> %pal
|  3> nprocs 16
|  4> end
|  5>
|  6> * xyz 0 1
|  7> S 	 -2.97917 	 27.8774 	 55.2718
|  8> C 	 -2.25193 	 26.3667 	 54.7795
|  9> C 	 -1.04799 	 26.5597 	 54.2107
| 10> C 	 -0.843944 	 27.9532 	 53.821
| 11> C 	 -1.99118 	 28.71 	 54.0481
| 12> H 	 -0.0202147 	 28.4579 	 53.3651
| 13> C 	 0.111571 	 25.5697 	 54.0224
| 14> H 	 0.458879 	 25.6969 	 52.9878
| 15> H 	 -0.282735 	 24.6219 	 54.196
| 16> C 	 1.32484 	 25.7032 	 54.9273
| 17> H 	 2.11459 	 25.0795 	 54.6914
| 18> H 	 1.83201 	 26.6345 	 54.6755
| 19> C 	 1.04746 	 25.6263 	 56.3835
| 20> H 	 0.461813 	 26.599 	 56.5863
| 21> H 	 0.408079 	 24.8037 	 56.6274
| 22> H 	 1.93212 	 25.5828 	 57.0364
| 23> S 	 -2.6286 	 30.5676 	 51.9879
| 24> C 	 -2.89428 	 32.2473 	 52.5352
| 25> C 	 -2.62785 	 32.4413 	 53.85
| 26> C 	 -2.44843 	 31.2143 	 54.5222
| 27> C 	 -2.18543 	 30.1029 	 53.676
| 28> H 	 -2.82695 	 33.4335 	 54.3016
| 29> C 	 -2.44317 	 31.0904 	 56.0448
| 30> H 	 -1.44642 	 30.634 	 56.4105
| 31> H 	 -3.26346 	 30.3623 	 56.287
| 32> C 	 -2.60865 	 32.3594 	 56.8456
| 33> H 	 -2.10044 	 33.1177 	 56.3321
| 34> H 	 -2.05749 	 32.2149 	 57.8171
| 35> C 	 -4.102 	 32.6582 	 57.021
| 36> H 	 -4.34331 	 33.709 	 57.1854
| 37> H 	 -4.49365 	 32.1107 	 57.9571
| 38> H 	 -4.6012 	 32.471 	 56.0838
| 39> H 	 -2.65565 	 25.4414 	 55.0676
| 40> H 	 -3.16996 	 33.1271 	 51.9657
| 41> *
| 42>
| 43>                          ****END OF INPUT****

CARTESIAN COORDINATES (ANGSTROEM)
---------------------------------
  S     -2.979170   27.877400   55.271800
  C     -2.251930   26.366700   54.779500
  C     -1.047990   26.559700   54.210700
  C     -0.843944   27.953200   53.821000
  C     -1.991180   28.710000   54.048100
  H     -0.020215   28.457900   53.365100
  C      0.111571   25.569700   54.022400
  H      0.458879   25.696900   52.987800
  H     -0.282735   24.621900   54.196000
  C      1.324840   25.703200   54.927300
  H      2.114590   25.079500   54.691400
  H      1.832010   26.634500   54.675500
  C      1.047460   25.626300   56.383500
  H      0.461813   26.599000   56.586300
  H      0.408079   24.803700   56.627400
  H      1.932120   25.582800   57.036400
  S     -2.628600   30.567600   51.987900
  C     -2.894280   32.247300   52.535200
  C     -2.627850   32.441300   53.850000
  C     -2.448430   31.214300   54.522200
  C     -2.185430   30.102900   53.676000
  H     -2.826950   33.433500   54.301600
  C     -2.443170   31.090400   56.044800
  H     -1.446420   30.634000   56.410500
  H     -3.263460   30.362300   56.287000
  C     -2.608650   32.359400   56.845600
  H     -2.100440   33.117700   56.332100
  H     -2.057490   32.214900   57.817100
  C     -4.102000   32.658200   57.021000
  H     -4.343310   33.709000   57.185400
  H     -4.493650   32.110700   57.957100
  H     -4.601200   32.471000   56.083800
  H     -2.655650   25.441400   55.067600
  H     -3.169960   33.127100   51.965700

 Total Charge           Charge          ....    0
 Multiplicity           Mult            ....    1
 Number of Electrons    NEL             ....  134
 Basis Dimension        Dim             ....  322

ORBITAL ENERGIES
----------------

  NO   OCC          E(Eh)            E(eV)
   0   2.0000     -88.970173     -2421.0015
   1   2.0000     -88.960525     -2420.7390
   2   2.0000     -10.329889      -281.0906
   3   2.0000     -10.328212      -281.0449
   4   2.0000     -10.319071      -280.7962
   5   2.0000     -10.309125      -280.5256
   6   2.0000     -10.306321      -280.4493
   7   2.0000     -10.302297      -280.3397
   8   2.0000     -10.295787      -280.1626
   9   2.0000     -10.295580      -280.1570
  10   2.0000     -10.293930      -280.1121
  11   2.0000     -10.288961      -279.9769
  12   2.0000     -10.283596      -279.8309
  13   2.0000     -10.282142      -279.7913
  14   2.0000     -10.276064      -279.6259
  15   2.0000     -10.275558      -279.6121
  16   2.0000      -8.083039      -219.9507
  17   2.0000      -8.075093      -219.7345
  18   2.0000      -6.041738      -164.4040
  19   2.0000      -6.037911      -164.2999
  20   2.0000      -6.033753      -164.1868
  21   2.0000      -6.033585      -164.1822
  22   2.0000      -6.030178      -164.0895
  23   2.0000      -6.025147      -163.9526
  24   2.0000      -1.001761       -27.2593
  25   2.0000      -0.981717       -26.7139
  26   2.0000      -0.916460       -24.9381
  27   2.0000      -0.911268       -24.7969
  28   2.0000      -0.872852       -23.7515
  29   2.0000      -0.846173       -23.0255
  30   2.0000      -0.840354       -22.8672
  31   2.0000      -0.817176       -22.2365
  32   2.0000      -0.782074       -21.2813
  33   2.0000      -0.769869       -20.9492
  34   2.0000      -0.710648       -19.3377
  35   2.0000      -0.702326       -19.1113
  36   2.0000      -0.693527       -18.8718
  37   2.0000      -0.654202       -17.8017
  38   2.0000      -0.641461       -17.4550
  39   2.0000      -0.613921       -16.7056
  40   2.0000      -0.597998       -16.2724
  41   2.0000      -0.565990       -15.4014
  42   2.0000      -0.560727       -15.2581
  43   2.0000      -0.551436       -15.0053
  44   2.0000      -0.546570       -14.8729
  45   2.0000      -0.535240       -14.5646
  46   2.0000      -0.517975       -14.0948
  47   2.0000      -0.514993       -14.0137
  48   2.0000      -0.504095       -13.7171
  49   2.0000      -0.497395       -13.5348
  50   2.0000      -0.484550       -13.1853
  51   2.0000      -0.476979       -12.9793
  52   2.0000      -0.470367       -12.7993
  53   2.0000      -0.462975       -12.5982
  54   2.0000      -0.450579       -12.2609
  55   2.0000      -0.450046       -12.2464
  56   2.0000      -0.444830       -12.1044
  57   2.0000      -0.440648       -11.9906
  58   2.0000      -0.436331       -11.8732
  59   2.0000      -0.426387       -11.6026
  60   2.0000      -0.416412       -11.3311
  61   2.0000      -0.413265       -11.2455
  62   2.0000      -0.402094       -10.9415
  63   2.0000      -0.345349        -9.3974
  64   2.0000      -0.329362        -8.9624
  65   2.0000      -0.320755        -8.7282
  66   2.0000      -0.289421        -7.8755
  67   0.0000       0.026227         0.7137
  68   0.0000       0.050069         1.3624
  69   0.0000       0.094434         2.5697
  70   0.0000       0.112500         3.0613
  71   0.0000       0.128797         3.5047

MULLIKEN ATOMIC CHARGES
-----------------------
   0 S :    0.079795
   1 C :   -0.091416
   2 C :   -0.078261
   3 C :    0.021481
   4 C :   -0.159657
   5 H :    0.016077
   6 C :    0.118143
   7 H :    0.034017
   8 H :   -0.003023
   9 C :   -0.037166
  10 H :    0.005084
  11 H :    0.008074
  12 C :   -0.064139
  13 H :    0.049812
  14 H :    0.021986
  15 H :    0.039696
  16 S :    0.110607
  17 C :   -0.078876
  18 C :   -0.048611
  19 C :   -0.068166
  20 C :   -0.136065
  21 H :    0.037180
  22 C :   -0.020242
  23 H :    0.056114
  24 H :    0.053971
  25 C :   -0.040881
  26 H :    0.015730
  27 H :    0.038764
  28 C :   -0.071218
  29 H :    0.023033
  30 H :    0.056532
  31 H :    0.036874
  32 H :    0.024426
  33 H :    0.050325
Sum of atomic charges:    0.0000000

LOEWDIN ATOMIC CHARGES
----------------------
   0 S :    0.382130
   1 C :   -0.176505
   2 C :   -0.061655
   3 C :   -0.050058
   4 C :   -0.176109
   5 H :    0.030069
   6 C :   -0.017932
   7 H :    0.036310
   8 H :    0.017141
   9 C :   -0.045745
  10 H :    0.015592
  11 H :    0.022557
  12 C :   -0.066836
  13 H :    0.039012
  14 H :    0.018037
  15 H :    0.028416
  16 S :    0.379514
  17 C :   -0.169777
  18 C :   -0.086071
  19 C :   -0.050751
  20 C :   -0.197212
  21 H :    0.040861
  22 C :   -0.048470
  23 H :    0.043216
  24 H :    0.029005
  25 C :   -0.046128
  26 H :    0.013294
  27 H :    0.033670
  28 C :   -0.072843
  29 H :    0.022035
  30 H :    0.041043
  31 H :    0.024442
  32 H :    0.017135
  33 H :    0.032615

  Mayer bond orders larger than 0.100000
B(  0-S ,  1-C ) :   1.1208 B(  0-S ,  4-C ) :   1.1154 B(  1-C ,  2-C ) :   1.6506
B(  1-C , 32-H ) :   0.9790 B(  2-C ,  3-C ) :   1.1585 B(  2-C ,  6-C ) :   1.0253
B(  3-C ,  4-C ) :   1.6093 B(  3-C ,  5-H ) :   1.0027 B(  4-C , 20-C ) :   1.0730
B(  6-C ,  7-H ) :   0.9376 B(  6-C ,  8-H ) :   0.9364 B(  6-C ,  9-C ) :   1.0823
B(  9-C , 10-H ) :   0.9491 B(  9-C , 11-H ) :   0.9455 B(  9-C , 12-C ) :   1.0767
B( 12-C , 13-H ) :   0.9729 B( 12-C , 14-H ) :   0.9762 B( 12-C , 15-H ) :   0.9721
B( 16-S , 17-C ) :   1.1512 B( 16-S , 20-C ) :   1.1155 B( 17-C , 18-C ) :   1.6416
B( 17-C , 20-C ) :   0.1032 B( 17-C , 33-H ) :   0.9534 B( 18-C , 19-C ) :   1.2546
B( 18-C , 21-H ) :   0.9686 B( 19-C , 20-C ) :   1.5799 B( 19-C , 22-C ) :   1.0281
B( 22-C , 23-H ) :   0.9349 B( 22-C , 24-H ) :   0.9284 B( 22-C , 25-C ) :   1.0799
B( 25-C , 26-H ) :   0.9486 B( 25-C , 27-H ) :   0.9563 B( 25-C , 28-C ) :   1.0710
B( 28-C , 29-H ) :   0.9747 B( 28-C , 30-H ) :   0.9727 B( 28-C , 31-H ) :   0.9766

Dispersion correction           -0.014718687
FINAL SINGLE POINT ENERGY     -1339.837538273292

DIPOLE MOMENT
-------------
                                X             Y             Z
Electronic contribution:     -9.50287       1.36308     -16.65331
Nuclear contribution   :      9.84136      -1.24648      16.99090
                        -----------------------------------------
Total Dipole Moment    :      0.33849       0.11660       0.33759
                        -----------------------------------------
Magnitude (a.u.)       :      0.49207
Magnitude (Debye)      :      1.25075

Rotational constants in cm-1:     0.021753     0.007896     0.006714
Rotational constants in MHz :   652.126574   236.706861   201.285580

                             ****ORCA TERMINATED NORMALLY****
TOTAL RUN TIME: 0 days 0 hours 0 minutes 35 seconds 262 msec
