                         Program Version 4.2.1 -  RELEASE  -
|  1> ! wB97X-D3 SP def2-SVP
|  2> %pal
|  3> nprocs 16
|  4> end
|  5>
|  6> * xyz 0 1
|  7> S 	 10.8998 	 -8.94255 	 97.5224
|  8> C 	 12.2663 	 -8.57273 	 98.5749
|  9> C 	 13.0336 	 -7.53394 	 98.0543
| 10> C 	 12.5685 	 -7.16037 	 96.7743
| 11> C 	 11.4027 	 -7.7164 	 96.3726
| 12> H 	 13.0435 	 -6.38736 	 96.1578
| 13> C 	 14.2218 	 -6.90675 	 98.7199
| 14> H 	 15.0413 	 -7.61596 	 98.6529
| 15> H 	 13.9148 	 -6.86613 	 99.7525
| 16> C 	 14.6248 	 -5.50264 	 98.1859
| 17> H 	 15.638 	 -5.2792 	 98.6067
| 18> H 	 14.6122 	 -5.4886 	 97.1055
| 19> C 	 13.7172 	 -4.44128 	 98.7808
| 20> H 	 12.6177 	 -4.69283 	 98.4658
| 21> H 	 13.7437 	 -4.46127 	 99.8221
| 22> H 	 14.0463 	 -3.44867 	 98.4198
| 23> S 	 9.96879 	 -8.98563 	 94.3765
| 24> C 	 9.49759 	 -8.13721 	 92.8728
| 25> C 	 9.87475 	 -6.80578 	 92.9337
| 26> C 	 10.4212 	 -6.43211 	 94.2804
| 27> C 	 10.6456 	 -7.53729 	 95.1289
| 28> H 	 9.70275 	 -6.21602 	 92.0157
| 29> C 	 10.6469 	 -5.00826 	 94.6797
| 30> H 	 11.155 	 -4.49922 	 93.8543
| 31> H 	 11.4244 	 -4.85379 	 95.5529
| 32> C 	 9.36226 	 -4.18167 	 95.0958
| 33> H 	 8.88537 	 -4.10183 	 94.0849
| 34> H 	 9.52244 	 -3.10768 	 95.4183
| 35> C 	 8.38941 	 -4.98965 	 95.9673
| 36> H 	 7.89017 	 -5.78655 	 95.387
| 37> H 	 7.5753 	 -4.35692 	 96.183
| 38> H 	 8.73482 	 -5.3729 	 96.9211
| 39> H 	 12.4945 	 -8.9908 	 99.5632
| 40> H 	 9.13745 	 -8.61474 	 91.961
| 41> *
| 42>
| 43>                          ****END OF INPUT****

CARTESIAN COORDINATES (ANGSTROEM)
---------------------------------
  S     10.899800   -8.942550   97.522400
  C     12.266300   -8.572730   98.574900
  C     13.033600   -7.533940   98.054300
  C     12.568500   -7.160370   96.774300
  C     11.402700   -7.716400   96.372600
  H     13.043500   -6.387360   96.157800
  C     14.221800   -6.906750   98.719900
  H     15.041300   -7.615960   98.652900
  H     13.914800   -6.866130   99.752500
  C     14.624800   -5.502640   98.185900
  H     15.638000   -5.279200   98.606700
  H     14.612200   -5.488600   97.105500
  C     13.717200   -4.441280   98.780800
  H     12.617700   -4.692830   98.465800
  H     13.743700   -4.461270   99.822100
  H     14.046300   -3.448670   98.419800
  S      9.968790   -8.985630   94.376500
  C      9.497590   -8.137210   92.872800
  C      9.874750   -6.805780   92.933700
  C     10.421200   -6.432110   94.280400
  C     10.645600   -7.537290   95.128900
  H      9.702750   -6.216020   92.015700
  C     10.646900   -5.008260   94.679700
  H     11.155000   -4.499220   93.854300
  H     11.424400   -4.853790   95.552900
  C      9.362260   -4.181670   95.095800
  H      8.885370   -4.101830   94.084900
  H      9.522440   -3.107680   95.418300
  C      8.389410   -4.989650   95.967300
  H      7.890170   -5.786550   95.387000
  H      7.575300   -4.356920   96.183000
  H      8.734820   -5.372900   96.921100
  H     12.494500   -8.990800   99.563200
  H      9.137450   -8.614740   91.961000

 Total Charge           Charge          ....    0
 Multiplicity           Mult            ....    1
 Number of Electrons    NEL             ....  134
 Basis Dimension        Dim             ....  322

ORBITAL ENERGIES
----------------

  NO   OCC          E(Eh)            E(eV)
   0   2.0000     -88.967220     -2420.9211
   1   2.0000     -88.963690     -2420.8251
   2   2.0000     -10.335849      -281.2528
   3   2.0000     -10.330782      -281.1149
   4   2.0000     -10.324711      -280.9497
   5   2.0000     -10.315983      -280.7122
   6   2.0000     -10.315603      -280.7018
   7   2.0000     -10.307624      -280.4847
   8   2.0000     -10.299104      -280.2529
   9   2.0000     -10.299062      -280.2517
  10   2.0000     -10.295134      -280.1448
  11   2.0000     -10.292916      -280.0845
  12   2.0000     -10.291437      -280.0443
  13   2.0000     -10.290342      -280.0145
  14   2.0000     -10.282347      -279.7969
  15   2.0000     -10.267547      -279.3942
  16   2.0000      -8.081539      -219.9099
  17   2.0000      -8.077751      -219.8068
  18   2.0000      -6.040108      -164.3597
  19   2.0000      -6.036492      -164.2613
  20   2.0000      -6.036156      -164.2522
  21   2.0000      -6.032285      -164.1468
  22   2.0000      -6.032199      -164.1445
  23   2.0000      -6.028341      -164.0395
  24   2.0000      -1.005134       -27.3511
  25   2.0000      -0.977510       -26.5994
  26   2.0000      -0.916789       -24.9471
  27   2.0000      -0.898384       -24.4463
  28   2.0000      -0.870391       -23.6845
  29   2.0000      -0.847532       -23.0625
  30   2.0000      -0.836925       -22.7739
  31   2.0000      -0.820698       -22.3323
  32   2.0000      -0.780499       -21.2385
  33   2.0000      -0.769071       -20.9275
  34   2.0000      -0.712840       -19.3974
  35   2.0000      -0.692596       -18.8465
  36   2.0000      -0.686370       -18.6771
  37   2.0000      -0.653576       -17.7847
  38   2.0000      -0.639919       -17.4131
  39   2.0000      -0.626351       -17.0439
  40   2.0000      -0.585579       -15.9344
  41   2.0000      -0.568897       -15.4805
  42   2.0000      -0.558287       -15.1918
  43   2.0000      -0.545302       -14.8384
  44   2.0000      -0.543133       -14.7794
  45   2.0000      -0.532620       -14.4933
  46   2.0000      -0.521291       -14.1851
  47   2.0000      -0.508446       -13.8355
  48   2.0000      -0.501445       -13.6450
  49   2.0000      -0.494789       -13.4639
  50   2.0000      -0.487191       -13.2571
  51   2.0000      -0.483771       -13.1641
  52   2.0000      -0.467140       -12.7115
  53   2.0000      -0.463453       -12.6112
  54   2.0000      -0.457046       -12.4368
  55   2.0000      -0.448123       -12.1941
  56   2.0000      -0.443658       -12.0726
  57   2.0000      -0.434584       -11.8256
  58   2.0000      -0.428911       -11.6713
  59   2.0000      -0.427936       -11.6447
  60   2.0000      -0.419633       -11.4188
  61   2.0000      -0.412275       -11.2186
  62   2.0000      -0.396687       -10.7944
  63   2.0000      -0.355541        -9.6748
  64   2.0000      -0.332559        -9.0494
  65   2.0000      -0.323746        -8.8096
  66   2.0000      -0.287437        -7.8216
  67   0.0000       0.022260         0.6057
  68   0.0000       0.074131         2.0172
  69   0.0000       0.100070         2.7230
  70   0.0000       0.111861         3.0439
  71   0.0000       0.131771         3.5857

MULLIKEN ATOMIC CHARGES
-----------------------
   0 S :    0.106188
   1 C :   -0.123983
   2 C :   -0.123967
   3 C :    0.009375
   4 C :   -0.121901
   5 H :    0.014583
   6 C :    0.081156
   7 H :    0.046282
   8 H :    0.019623
   9 C :   -0.085347
  10 H :    0.035304
  11 H :    0.039987
  12 C :   -0.059446
  13 H :    0.050704
  14 H :    0.020559
  15 H :    0.041474
  16 S :    0.080164
  17 C :   -0.100689
  18 C :   -0.041860
  19 C :   -0.059811
  20 C :   -0.103012
  21 H :    0.041647
  22 C :    0.006440
  23 H :    0.028243
  24 H :    0.039281
  25 C :   -0.106440
  26 H :    0.024882
  27 H :    0.049850
  28 C :   -0.020092
  29 H :    0.041618
  30 H :    0.012825
  31 H :    0.038914
  32 H :    0.048514
  33 H :    0.068933
Sum of atomic charges:    0.0000000

LOEWDIN ATOMIC CHARGES
----------------------
   0 S :    0.398727
   1 C :   -0.200069
   2 C :   -0.063925
   3 C :   -0.069859
   4 C :   -0.185870
   5 H :    0.032007
   6 C :   -0.031395
   7 H :    0.035477
   8 H :    0.031260
   9 C :   -0.039629
  10 H :    0.031663
  11 H :    0.020567
  12 C :   -0.064629
  13 H :    0.036201
  14 H :    0.014068
  15 H :    0.028042
  16 S :    0.375105
  17 C :   -0.176548
  18 C :   -0.072589
  19 C :   -0.057854
  20 C :   -0.183733
  21 H :    0.040502
  22 C :   -0.050618
  23 H :    0.027960
  24 H :    0.034986
  25 C :   -0.046442
  26 H :    0.026003
  27 H :    0.031822
  28 C :   -0.068612
  29 H :    0.034308
  30 H :    0.020489
  31 H :    0.024787
  32 H :    0.032387
  33 H :    0.035413

  Mayer bond orders larger than 0.100000
B(  0-S ,  1-C ) :   1.1328 B(  0-S ,  4-C ) :   1.1427 B(  1-C ,  2-C ) :   1.6167
B(  1-C ,  4-C ) :   0.1022 B(  1-C , 32-H ) :   0.9665 B(  2-C ,  3-C ) :   1.2524
B(  2-C ,  6-C ) :   0.9963 B(  3-C ,  4-C ) :   1.5955 B(  3-C ,  5-H ) :   0.9794
B(  4-C , 20-C ) :   1.0421 B(  6-C ,  7-H ) :   0.9330 B(  6-C ,  8-H ) :   0.9391
B(  6-C ,  9-C ) :   1.0814 B(  9-C , 10-H ) :   0.9507 B(  9-C , 11-H ) :   0.9532
B(  9-C , 12-C ) :   1.0790 B( 12-C , 13-H ) :   0.9735 B( 12-C , 14-H ) :   0.9731
B( 12-C , 15-H ) :   0.9737 B( 16-S , 17-C ) :   1.1291 B( 16-S , 20-C ) :   1.1241
B( 17-C , 18-C ) :   1.6549 B( 17-C , 33-H ) :   0.9647 B( 18-C , 19-C ) :   1.1849
B( 18-C , 21-H ) :   0.9844 B( 19-C , 20-C ) :   1.6068 B( 19-C , 22-C ) :   1.0551
B( 22-C , 23-H ) :   0.9392 B( 22-C , 24-H ) :   0.9423 B( 22-C , 25-C ) :   1.0423
B( 25-C , 26-H ) :   0.9554 B( 25-C , 27-H ) :   0.9620 B( 25-C , 28-C ) :   1.0810
B( 28-C , 29-H ) :   0.9651 B( 28-C , 30-H ) :   0.9694 B( 28-C , 31-H ) :   0.9787

Dispersion correction           -0.015306612
FINAL SINGLE POINT ENERGY     -1339.869822323186

DIPOLE MOMENT
-------------
                                X             Y             Z
Electronic contribution:     -6.45900     -24.75470      -6.92938
Nuclear contribution   :      6.81556      25.37629       6.90491
                        -----------------------------------------
Total Dipole Moment    :      0.35656       0.62158      -0.02447
                        -----------------------------------------
Magnitude (a.u.)       :      0.71701
Magnitude (Debye)      :      1.82249

Rotational constants in cm-1:     0.019087     0.009690     0.007591
Rotational constants in MHz :   572.205151   290.494824   227.574123

                             ****ORCA TERMINATED NORMALLY****
TOTAL RUN TIME: 0 days 0 hours 0 minutes 35 seconds 432 msec
