                         Program Version 4.2.1 -  RELEASE  -
|  1> ! wB97X-D3 SP def2-SVP
|  2> %pal
|  3> nprocs 16
|  4> end
|  5>
|  6> * xyz 0 1
|  7> S 	 -71.7572 	 49.0447 	 135.255
|  8> C 	 -73.0151 	 50.2348 	 135.137
|  9> C 	 -74.0365 	 50.0919 	 136.061
| 10> C 	 -73.6204 	 49.2058 	 137.067
| 11> C 	 -72.4287 	 48.5206 	 136.826
| 12> H 	 -73.9996 	 49.1274 	 138.075
| 13> C 	 -75.2896 	 50.9665 	 136.171
| 14> H 	 -76.1989 	 50.3179 	 136.033
| 15> H 	 -75.3328 	 51.6373 	 135.348
| 16> C 	 -75.3923 	 51.7735 	 137.471
| 17> H 	 -75.3067 	 51.2383 	 138.407
| 18> H 	 -74.5726 	 52.5097 	 137.505
| 19> C 	 -76.7681 	 52.5485 	 137.508
| 20> H 	 -77.4575 	 51.7753 	 137.817
| 21> H 	 -76.6046 	 53.3815 	 138.222
| 22> H 	 -77.089 	 53.0178 	 136.559
| 23> S 	 -72.7031 	 46.6286 	 138.862
| 24> C 	 -71.3709 	 45.7961 	 139.411
| 25> C 	 -70.1827 	 46.3475 	 138.927
| 26> C 	 -70.3664 	 47.3738 	 137.969
| 27> C 	 -71.7299 	 47.5652 	 137.71
| 28> H 	 -69.2147 	 45.8619 	 139.213
| 29> C 	 -69.1564 	 47.9619 	 137.292
| 30> H 	 -68.447 	 48.1266 	 138.043
| 31> H 	 -69.4894 	 48.9425 	 137.015
| 32> C 	 -68.512 	 47.1345 	 136.201
| 33> H 	 -69.2523 	 46.7546 	 135.472
| 34> H 	 -68.231 	 46.1483 	 136.596
| 35> C 	 -67.2567 	 47.7986 	 135.551
| 36> H 	 -67.5231 	 48.6746 	 135.064
| 37> H 	 -66.7842 	 47.1405 	 134.877
| 38> H 	 -66.4928 	 47.8301 	 136.348
| 39> H 	 -73.1459 	 50.8459 	 134.287
| 40> H 	 -71.4066 	 44.9594 	 140.101
| 41> *
| 42>
| 43>                          ****END OF INPUT****

CARTESIAN COORDINATES (ANGSTROEM)
---------------------------------
  S    -71.757200   49.044700  135.255000
  C    -73.015100   50.234800  135.137000
  C    -74.036500   50.091900  136.061000
  C    -73.620400   49.205800  137.067000
  C    -72.428700   48.520600  136.826000
  H    -73.999600   49.127400  138.075000
  C    -75.289600   50.966500  136.171000
  H    -76.198900   50.317900  136.033000
  H    -75.332800   51.637300  135.348000
  C    -75.392300   51.773500  137.471000
  H    -75.306700   51.238300  138.407000
  H    -74.572600   52.509700  137.505000
  C    -76.768100   52.548500  137.508000
  H    -77.457500   51.775300  137.817000
  H    -76.604600   53.381500  138.222000
  H    -77.089000   53.017800  136.559000
  S    -72.703100   46.628600  138.862000
  C    -71.370900   45.796100  139.411000
  C    -70.182700   46.347500  138.927000
  C    -70.366400   47.373800  137.969000
  C    -71.729900   47.565200  137.710000
  H    -69.214700   45.861900  139.213000
  C    -69.156400   47.961900  137.292000
  H    -68.447000   48.126600  138.043000
  H    -69.489400   48.942500  137.015000
  C    -68.512000   47.134500  136.201000
  H    -69.252300   46.754600  135.472000
  H    -68.231000   46.148300  136.596000
  C    -67.256700   47.798600  135.551000
  H    -67.523100   48.674600  135.064000
  H    -66.784200   47.140500  134.877000
  H    -66.492800   47.830100  136.348000
  H    -73.145900   50.845900  134.287000
  H    -71.406600   44.959400  140.101000

 Total Charge           Charge          ....    0
 Multiplicity           Mult            ....    1
 Number of Electrons    NEL             ....  134
 Basis Dimension        Dim             ....  322

ORBITAL ENERGIES
----------------

  NO   OCC          E(Eh)            E(eV)
   0   2.0000     -88.968174     -2420.9471
   1   2.0000     -88.967141     -2420.9190
   2   2.0000     -10.332640      -281.1654
   3   2.0000     -10.330236      -281.1000
   4   2.0000     -10.312998      -280.6310
   5   2.0000     -10.307890      -280.4919
   6   2.0000     -10.302657      -280.3496
   7   2.0000     -10.299380      -280.2604
   8   2.0000     -10.296323      -280.1772
   9   2.0000     -10.292923      -280.0847
  10   2.0000     -10.289660      -279.9959
  11   2.0000     -10.289224      -279.9840
  12   2.0000     -10.286602      -279.9127
  13   2.0000     -10.283521      -279.8288
  14   2.0000     -10.281760      -279.7809
  15   2.0000     -10.272877      -279.5392
  16   2.0000      -8.082927      -219.9476
  17   2.0000      -8.081979      -219.9218
  18   2.0000      -6.041266      -164.3912
  19   2.0000      -6.040424      -164.3683
  20   2.0000      -6.037217      -164.2810
  21   2.0000      -6.036687      -164.2666
  22   2.0000      -6.033889      -164.1905
  23   2.0000      -6.032819      -164.1614
  24   2.0000      -1.007474       -27.4148
  25   2.0000      -0.986869       -26.8541
  26   2.0000      -0.913428       -24.8556
  27   2.0000      -0.907312       -24.6892
  28   2.0000      -0.865341       -23.5471
  29   2.0000      -0.854647       -23.2561
  30   2.0000      -0.846619       -23.0377
  31   2.0000      -0.807275       -21.9671
  32   2.0000      -0.788448       -21.4548
  33   2.0000      -0.770737       -20.9728
  34   2.0000      -0.709192       -19.2981
  35   2.0000      -0.701940       -19.1008
  36   2.0000      -0.689935       -18.7741
  37   2.0000      -0.667071       -18.1519
  38   2.0000      -0.632793       -17.2192
  39   2.0000      -0.618423       -16.8282
  40   2.0000      -0.598886       -16.2965
  41   2.0000      -0.568362       -15.4659
  42   2.0000      -0.563918       -15.3450
  43   2.0000      -0.561094       -15.2682
  44   2.0000      -0.532148       -14.4805
  45   2.0000      -0.523599       -14.2478
  46   2.0000      -0.514696       -14.0056
  47   2.0000      -0.511613       -13.9217
  48   2.0000      -0.506199       -13.7744
  49   2.0000      -0.492481       -13.4011
  50   2.0000      -0.490804       -13.3555
  51   2.0000      -0.477719       -12.9994
  52   2.0000      -0.470673       -12.8077
  53   2.0000      -0.469430       -12.7738
  54   2.0000      -0.462493       -12.5851
  55   2.0000      -0.448460       -12.2032
  56   2.0000      -0.445588       -12.1251
  57   2.0000      -0.443739       -12.0748
  58   2.0000      -0.431992       -11.7551
  59   2.0000      -0.428106       -11.6494
  60   2.0000      -0.419458       -11.4140
  61   2.0000      -0.412889       -11.2353
  62   2.0000      -0.409931       -11.1548
  63   2.0000      -0.355774        -9.6811
  64   2.0000      -0.332640        -9.0516
  65   2.0000      -0.330645        -8.9973
  66   2.0000      -0.279953        -7.6179
  67   0.0000       0.023850         0.6490
  68   0.0000       0.079262         2.1568
  69   0.0000       0.111582         3.0363
  70   0.0000       0.112442         3.0597
  71   0.0000       0.134927         3.6715

MULLIKEN ATOMIC CHARGES
-----------------------
   0 S :    0.106714
   1 C :   -0.104398
   2 C :   -0.063078
   3 C :   -0.011706
   4 C :   -0.142419
   5 H :    0.013286
   6 C :    0.085591
   7 H :    0.039899
   8 H :    0.004554
   9 C :   -0.105694
  10 H :    0.036882
  11 H :    0.031950
  12 C :   -0.068336
  13 H :    0.042073
  14 H :    0.043169
  15 H :    0.037289
  16 S :    0.115603
  17 C :   -0.086373
  18 C :   -0.061961
  19 C :   -0.063450
  20 C :   -0.148678
  21 H :    0.032218
  22 C :    0.128588
  23 H :    0.001497
  24 H :    0.011909
  25 C :   -0.085926
  26 H :    0.023095
  27 H :    0.010261
  28 C :    0.010232
  29 H :    0.034908
  30 H :    0.017674
  31 H :    0.026950
  32 H :    0.029839
  33 H :    0.057837
Sum of atomic charges:    0.0000000

LOEWDIN ATOMIC CHARGES
----------------------
   0 S :    0.403403
   1 C :   -0.196012
   2 C :   -0.061088
   3 C :   -0.072993
   4 C :   -0.175273
   5 H :    0.024926
   6 C :   -0.028294
   7 H :    0.037526
   8 H :    0.023733
   9 C :   -0.038739
  10 H :    0.022250
  11 H :    0.023945
  12 C :   -0.065648
  13 H :    0.025606
  14 H :    0.031060
  15 H :    0.024998
  16 S :    0.438855
  17 C :   -0.211559
  18 C :   -0.081298
  19 C :   -0.051634
  20 C :   -0.195338
  21 H :    0.036441
  22 C :   -0.031821
  23 H :    0.025709
  24 H :    0.020480
  25 C :   -0.042346
  26 H :    0.022694
  27 H :    0.022438
  28 C :   -0.051218
  29 H :    0.018632
  30 H :    0.022498
  31 H :    0.031095
  32 H :    0.015842
  33 H :    0.031130

  Mayer bond orders larger than 0.100000
B(  0-S ,  1-C ) :   1.1430 B(  0-S ,  4-C ) :   1.1372 B(  1-C ,  2-C ) :   1.6197
B(  1-C , 32-H ) :   0.9622 B(  2-C ,  3-C ) :   1.2414 B(  2-C ,  6-C ) :   1.0268
B(  3-C ,  4-C ) :   1.5906 B(  3-C ,  5-H ) :   0.9799 B(  4-C , 20-C ) :   1.0681
B(  6-C ,  7-H ) :   0.9362 B(  6-C ,  8-H ) :   0.9405 B(  6-C ,  9-C ) :   1.0574
B(  9-C , 10-H ) :   0.9594 B(  9-C , 11-H ) :   0.9601 B(  9-C , 12-C ) :   1.0654
B( 12-C , 13-H ) :   0.9806 B( 12-C , 14-H ) :   0.9772 B( 12-C , 15-H ) :   0.9778
B( 16-S , 17-C ) :   1.1898 B( 16-S , 20-C ) :   1.1496 B( 17-C , 18-C ) :   1.5693
B( 17-C , 33-H ) :   0.9678 B( 18-C , 19-C ) :   1.2696 B( 18-C , 21-H ) :   0.9843
B( 19-C , 20-C ) :   1.5340 B( 19-C , 22-C ) :   1.0486 B( 22-C , 23-H ) :   0.9179
B( 22-C , 24-H ) :   0.9203 B( 22-C , 25-C ) :   1.0640 B( 25-C , 26-H ) :   0.9531
B( 25-C , 27-H ) :   0.9497 B( 25-C , 28-C ) :   1.0799 B( 28-C , 29-H ) :   0.9793
B( 28-C , 30-H ) :   0.9714 B( 28-C , 31-H ) :   0.9727

Dispersion correction           -0.013821808
FINAL SINGLE POINT ENERGY     -1339.875432099317

DIPOLE MOMENT
-------------
                                X             Y             Z
Electronic contribution:     -1.33450     -12.57013       2.32143
Nuclear contribution   :      1.43613      12.71904      -2.19254
                        -----------------------------------------
Total Dipole Moment    :      0.10164       0.14891       0.12888
                        -----------------------------------------
Magnitude (a.u.)       :      0.22162
Magnitude (Debye)      :      0.56332

Rotational constants in cm-1:     0.021072     0.007674     0.005997
Rotational constants in MHz :   631.711175   230.051000   179.783982

                             ****ORCA TERMINATED NORMALLY****
TOTAL RUN TIME: 0 days 0 hours 0 minutes 33 seconds 35 msec
