                         Program Version 4.2.1 -  RELEASE  -
|  1> ! wB97X-D3 SP def2-SVP
|  2> %pal
|  3> nprocs 16
|  4> end
|  5>
|  6> * xyz 0 1
|  7> S 	 -99.6166 	 42.6238 	 129.767
|  8> C 	 -98.0687 	 42.0978 	 130.508
|  9> C 	 -97.4102 	 41.2361 	 129.631
| 10> C 	 -98.1505 	 40.9648 	 128.447
| 11> C 	 -99.3463 	 41.5661 	 128.363
| 12> H 	 -97.8194 	 40.3001 	 127.604
| 13> C 	 -96.0367 	 40.6557 	 129.891
| 14> H 	 -95.8638 	 39.6641 	 129.518
| 15> H 	 -96.0011 	 40.5844 	 130.916
| 16> C 	 -94.8871 	 41.5661 	 129.37
| 17> H 	 -94.9065 	 41.5249 	 128.269
| 18> H 	 -95.012 	 42.6016 	 129.678
| 19> C 	 -93.6227 	 41.1302 	 129.964
| 20> H 	 -93.5514 	 40.0827 	 129.872
| 21> H 	 -92.7381 	 41.6034 	 129.452
| 22> H 	 -93.6257 	 41.382 	 131.048
| 23> S 	 -101.101 	 42.9349 	 126.895
| 24> C 	 -101.817 	 42.2285 	 125.458
| 25> C 	 -101.543 	 40.9247 	 125.373
| 26> C 	 -100.631 	 40.4095 	 126.374
| 27> C 	 -100.24 	 41.4339 	 127.254
| 28> H 	 -101.829 	 40.4517 	 124.442
| 29> C 	 -100.196 	 38.9694 	 126.384
| 30> H 	 -99.3708 	 38.8847 	 127.197
| 31> H 	 -99.7585 	 38.7115 	 125.395
| 32> C 	 -101.366 	 38.0147 	 126.817
| 33> H 	 -102.061 	 38.0932 	 126.021
| 34> H 	 -101.761 	 38.1952 	 127.804
| 35> C 	 -100.936 	 36.5324 	 126.841
| 36> H 	 -100.466 	 36.2822 	 125.875
| 37> H 	 -101.735 	 35.8599 	 127.08
| 38> H 	 -100.186 	 36.3633 	 127.589
| 39> H 	 -97.6555 	 42.4445 	 131.459
| 40> H 	 -102.464 	 42.7698 	 124.824
| 41> *
| 42>
| 43>                          ****END OF INPUT****

CARTESIAN COORDINATES (ANGSTROEM)
---------------------------------
  S    -99.616600   42.623800  129.767000
  C    -98.068700   42.097800  130.508000
  C    -97.410200   41.236100  129.631000
  C    -98.150500   40.964800  128.447000
  C    -99.346300   41.566100  128.363000
  H    -97.819400   40.300100  127.604000
  C    -96.036700   40.655700  129.891000
  H    -95.863800   39.664100  129.518000
  H    -96.001100   40.584400  130.916000
  C    -94.887100   41.566100  129.370000
  H    -94.906500   41.524900  128.269000
  H    -95.012000   42.601600  129.678000
  C    -93.622700   41.130200  129.964000
  H    -93.551400   40.082700  129.872000
  H    -92.738100   41.603400  129.452000
  H    -93.625700   41.382000  131.048000
  S    -101.101000   42.934900  126.895000
  C    -101.817000   42.228500  125.458000
  C    -101.543000   40.924700  125.373000
  C    -100.631000   40.409500  126.374000
  C    -100.240000   41.433900  127.254000
  H    -101.829000   40.451700  124.442000
  C    -100.196000   38.969400  126.384000
  H    -99.370800   38.884700  127.197000
  H    -99.758500   38.711500  125.395000
  C    -101.366000   38.014700  126.817000
  H    -102.061000   38.093200  126.021000
  H    -101.761000   38.195200  127.804000
  C    -100.936000   36.532400  126.841000
  H    -100.466000   36.282200  125.875000
  H    -101.735000   35.859900  127.080000
  H    -100.186000   36.363300  127.589000
  H    -97.655500   42.444500  131.459000
  H    -102.464000   42.769800  124.824000

 Total Charge           Charge          ....    0
 Multiplicity           Mult            ....    1
 Number of Electrons    NEL             ....  134
 Basis Dimension        Dim             ....  322

ORBITAL ENERGIES
----------------

  NO   OCC          E(Eh)            E(eV)
   0   2.0000     -88.967181     -2420.9201
   1   2.0000     -88.959128     -2420.7009
   2   2.0000     -10.329419      -281.0778
   3   2.0000     -10.326529      -280.9992
   4   2.0000     -10.319858      -280.8176
   5   2.0000     -10.310527      -280.5637
   6   2.0000     -10.309133      -280.5258
   7   2.0000     -10.304429      -280.3978
   8   2.0000     -10.302168      -280.3362
   9   2.0000     -10.290453      -280.0175
  10   2.0000     -10.290421      -280.0166
  11   2.0000     -10.285287      -279.8769
  12   2.0000     -10.284269      -279.8492
  13   2.0000     -10.281385      -279.7707
  14   2.0000     -10.275121      -279.6003
  15   2.0000     -10.273746      -279.5628
  16   2.0000      -8.080587      -219.8839
  17   2.0000      -8.074310      -219.7132
  18   2.0000      -6.039418      -164.3409
  19   2.0000      -6.035325      -164.2295
  20   2.0000      -6.032855      -164.1623
  21   2.0000      -6.031025      -164.1125
  22   2.0000      -6.028818      -164.0525
  23   2.0000      -6.024937      -163.9469
  24   2.0000      -1.006826       -27.3971
  25   2.0000      -0.981438       -26.7063
  26   2.0000      -0.919880       -25.0312
  27   2.0000      -0.906344       -24.6629
  28   2.0000      -0.877488       -23.8777
  29   2.0000      -0.853199       -23.2167
  30   2.0000      -0.844553       -22.9815
  31   2.0000      -0.820556       -22.3285
  32   2.0000      -0.778872       -21.1942
  33   2.0000      -0.767911       -20.8959
  34   2.0000      -0.708876       -19.2895
  35   2.0000      -0.697282       -18.9740
  36   2.0000      -0.696821       -18.9615
  37   2.0000      -0.661701       -18.0058
  38   2.0000      -0.639972       -17.4145
  39   2.0000      -0.619491       -16.8572
  40   2.0000      -0.594467       -16.1763
  41   2.0000      -0.580840       -15.8055
  42   2.0000      -0.572568       -15.5804
  43   2.0000      -0.557783       -15.1780
  44   2.0000      -0.528253       -14.3745
  45   2.0000      -0.526163       -14.3176
  46   2.0000      -0.519629       -14.1398
  47   2.0000      -0.516343       -14.0504
  48   2.0000      -0.506440       -13.7809
  49   2.0000      -0.503349       -13.6968
  50   2.0000      -0.494900       -13.4669
  51   2.0000      -0.479642       -13.0517
  52   2.0000      -0.472653       -12.8615
  53   2.0000      -0.458673       -12.4811
  54   2.0000      -0.455772       -12.4022
  55   2.0000      -0.450424       -12.2566
  56   2.0000      -0.444273       -12.0893
  57   2.0000      -0.437151       -11.8955
  58   2.0000      -0.432120       -11.7586
  59   2.0000      -0.425391       -11.5755
  60   2.0000      -0.420863       -11.4523
  61   2.0000      -0.417066       -11.3489
  62   2.0000      -0.412256       -11.2180
  63   2.0000      -0.358770        -9.7626
  64   2.0000      -0.332687        -9.0529
  65   2.0000      -0.325840        -8.8665
  66   2.0000      -0.286482        -7.7956
  67   0.0000       0.024959         0.6792
  68   0.0000       0.075895         2.0652
  69   0.0000       0.100746         2.7414
  70   0.0000       0.119450         3.2504
  71   0.0000       0.139400         3.7933

MULLIKEN ATOMIC CHARGES
-----------------------
   0 S :    0.100206
   1 C :   -0.128007
   2 C :   -0.083411
   3 C :   -0.022429
   4 C :   -0.095607
   5 H :    0.035101
   6 C :    0.092081
   7 H :    0.017704
   8 H :   -0.007629
   9 C :   -0.070249
  10 H :    0.031737
  11 H :    0.026445
  12 C :   -0.029652
  13 H :    0.012230
  14 H :    0.042580
  15 H :    0.034147
  16 S :    0.071519
  17 C :   -0.068346
  18 C :   -0.028148
  19 C :   -0.024279
  20 C :   -0.153925
  21 H :    0.022035
  22 C :    0.001717
  23 H :    0.033679
  24 H :    0.042225
  25 C :   -0.052014
  26 H :    0.023358
  27 H :    0.042092
  28 C :   -0.036264
  29 H :    0.021757
  30 H :    0.035473
  31 H :    0.019662
  32 H :    0.052642
  33 H :    0.041572
Sum of atomic charges:    0.0000000

LOEWDIN ATOMIC CHARGES
----------------------
   0 S :    0.370459
   1 C :   -0.188044
   2 C :   -0.054966
   3 C :   -0.074362
   4 C :   -0.185295
   5 H :    0.040778
   6 C :   -0.022626
   7 H :    0.027499
   8 H :    0.017490
   9 C :   -0.039021
  10 H :    0.024732
  11 H :    0.024005
  12 C :   -0.064747
  13 H :    0.014153
  14 H :    0.033035
  15 H :    0.029780
  16 S :    0.382932
  17 C :   -0.167487
  18 C :   -0.074832
  19 C :   -0.057343
  20 C :   -0.178257
  21 H :    0.033220
  22 C :   -0.038470
  23 H :    0.036002
  24 H :    0.034695
  25 C :   -0.027724
  26 H :    0.017612
  27 H :    0.028967
  28 C :   -0.063504
  29 H :    0.023713
  30 H :    0.023973
  31 H :    0.019035
  32 H :    0.032633
  33 H :    0.021967

  Mayer bond orders larger than 0.100000
B(  0-S ,  1-C ) :   1.1097 B(  0-S ,  4-C ) :   1.1163 B(  1-C ,  2-C ) :   1.6228
B(  1-C , 32-H ) :   0.9684 B(  2-C ,  3-C ) :   1.2263 B(  2-C ,  6-C ) :   1.0258
B(  3-C ,  4-C ) :   1.6063 B(  3-C ,  5-H ) :   0.9829 B(  4-C , 20-C ) :   1.0745
B(  6-C ,  7-H ) :   0.9390 B(  6-C ,  8-H ) :   0.9347 B(  6-C ,  9-C ) :   1.0605
B(  9-C , 10-H ) :   0.9535 B(  9-C , 11-H ) :   0.9570 B(  9-C , 12-C ) :   1.0905
B( 12-C , 13-H ) :   0.9689 B( 12-C , 14-H ) :   0.9691 B( 12-C , 15-H ) :   0.9741
B( 16-S , 17-C ) :   1.1319 B( 16-S , 20-C ) :   1.1276 B( 17-C , 18-C ) :   1.6641
B( 17-C , 33-H ) :   0.9719 B( 18-C , 19-C ) :   1.1924 B( 18-C , 21-H ) :   0.9833
B( 19-C , 20-C ) :   1.6064 B( 19-C , 22-C ) :   1.0484 B( 22-C , 23-H ) :   0.9353
B( 22-C , 24-H ) :   0.9342 B( 22-C , 25-C ) :   1.0595 B( 25-C , 26-H ) :   0.9583
B( 25-C , 27-H ) :   0.9577 B( 25-C , 28-C ) :   1.0879 B( 28-C , 29-H ) :   0.9731
B( 28-C , 30-H ) :   0.9747 B( 28-C , 31-H ) :   0.9753

Dispersion correction           -0.013264172
FINAL SINGLE POINT ENERGY     -1339.876688565481

DIPOLE MOMENT
-------------
                                X             Y             Z
Electronic contribution:    -17.36507      21.48347       0.10247
Nuclear contribution   :     17.74876     -22.03367      -0.33854
                        -----------------------------------------
Total Dipole Moment    :      0.38369      -0.55020      -0.23607
                        -----------------------------------------
Magnitude (a.u.)       :      0.71110
Magnitude (Debye)      :      1.80747

Rotational constants in cm-1:     0.017852     0.007945     0.006301
Rotational constants in MHz :   535.202032   238.189442   188.891368

                             ****ORCA TERMINATED NORMALLY****
TOTAL RUN TIME: 0 days 0 hours 0 minutes 30 seconds 804 msec
