                         Program Version 4.2.1 -  RELEASE  -
|  1> ! wB97X-D3 SP def2-SVP
|  2> %pal
|  3> nprocs 16
|  4> end
|  5>
|  6> * xyz 0 1
|  7> S 	 -57.4647 	 29.7353 	 101.803
|  8> C 	 -58.4211 	 29.4569 	 100.37
|  9> C 	 -57.6412 	 29.1964 	 99.2954
| 10> C 	 -56.2673 	 29.2154 	 99.5996
| 11> C 	 -55.9257 	 29.3958 	 100.948
| 12> H 	 -55.4299 	 29.1827 	 98.9306
| 13> C 	 -58.0792 	 28.8587 	 97.8756
| 14> H 	 -58.6913 	 27.9888 	 98.0863
| 15> H 	 -57.2349 	 28.4956 	 97.2305
| 16> C 	 -58.8977 	 30.0332 	 97.24
| 17> H 	 -59.9161 	 29.9673 	 97.7138
| 18> H 	 -58.4246 	 31.0142 	 97.5688
| 19> C 	 -58.8612 	 29.8389 	 95.7462
| 20> H 	 -59.1582 	 28.7924 	 95.522
| 21> H 	 -59.6337 	 30.4652 	 95.3313
| 22> H 	 -57.8796 	 30.0952 	 95.3286
| 23> S 	 -54.4413 	 28.0214 	 102.7
| 24> C 	 -52.8683 	 28.5966 	 103.147
| 25> C 	 -52.449 	 29.5753 	 102.264
| 26> C 	 -53.4442 	 29.9471 	 101.322
| 27> C 	 -54.5946 	 29.2562 	 101.567
| 28> H 	 -51.5257 	 30.0454 	 102.45
| 29> C 	 -53.1644 	 30.9247 	 100.248
| 30> H 	 -52.7364 	 31.7823 	 100.655
| 31> H 	 -54.0485 	 31.3752 	 99.9774
| 32> C 	 -52.5114 	 30.3409 	 99.1022
| 33> H 	 -53.111 	 29.4869 	 98.6586
| 34> H 	 -51.5763 	 29.8975 	 99.4316
| 35> C 	 -52.2774 	 31.3266 	 98.0303
| 36> H 	 -53.2079 	 31.8225 	 97.8258
| 37> H 	 -51.9499 	 30.8621 	 97.1299
| 38> H 	 -51.514 	 32.0775 	 98.1375
| 39> H 	 -59.4833 	 29.3099 	 100.386
| 40> H 	 -52.2052 	 28.2066 	 103.897
| 41> *
| 42>
| 43>                          ****END OF INPUT****

CARTESIAN COORDINATES (ANGSTROEM)
---------------------------------
  S    -57.464700   29.735300  101.803000
  C    -58.421100   29.456900  100.370000
  C    -57.641200   29.196400   99.295400
  C    -56.267300   29.215400   99.599600
  C    -55.925700   29.395800  100.948000
  H    -55.429900   29.182700   98.930600
  C    -58.079200   28.858700   97.875600
  H    -58.691300   27.988800   98.086300
  H    -57.234900   28.495600   97.230500
  C    -58.897700   30.033200   97.240000
  H    -59.916100   29.967300   97.713800
  H    -58.424600   31.014200   97.568800
  C    -58.861200   29.838900   95.746200
  H    -59.158200   28.792400   95.522000
  H    -59.633700   30.465200   95.331300
  H    -57.879600   30.095200   95.328600
  S    -54.441300   28.021400  102.700000
  C    -52.868300   28.596600  103.147000
  C    -52.449000   29.575300  102.264000
  C    -53.444200   29.947100  101.322000
  C    -54.594600   29.256200  101.567000
  H    -51.525700   30.045400  102.450000
  C    -53.164400   30.924700  100.248000
  H    -52.736400   31.782300  100.655000
  H    -54.048500   31.375200   99.977400
  C    -52.511400   30.340900   99.102200
  H    -53.111000   29.486900   98.658600
  H    -51.576300   29.897500   99.431600
  C    -52.277400   31.326600   98.030300
  H    -53.207900   31.822500   97.825800
  H    -51.949900   30.862100   97.129900
  H    -51.514000   32.077500   98.137500
  H    -59.483300   29.309900  100.386000
  H    -52.205200   28.206600  103.897000

 Total Charge           Charge          ....    0
 Multiplicity           Mult            ....    1
 Number of Electrons    NEL             ....  134
 Basis Dimension        Dim             ....  322

ORBITAL ENERGIES
----------------

  NO   OCC          E(Eh)            E(eV)
   0   2.0000     -88.964052     -2420.8349
   1   2.0000     -88.962782     -2420.8004
   2   2.0000     -10.329646      -281.0840
   3   2.0000     -10.318686      -280.7857
   4   2.0000     -10.310992      -280.5763
   5   2.0000     -10.307914      -280.4926
   6   2.0000     -10.294791      -280.1355
   7   2.0000     -10.294310      -280.1224
   8   2.0000     -10.293288      -280.0946
   9   2.0000     -10.292951      -280.0854
  10   2.0000     -10.287979      -279.9501
  11   2.0000     -10.285873      -279.8928
  12   2.0000     -10.281443      -279.7723
  13   2.0000     -10.280082      -279.7353
  14   2.0000     -10.269201      -279.4392
  15   2.0000     -10.267981      -279.4060
  16   2.0000      -8.080339      -219.8772
  17   2.0000      -8.076770      -219.7801
  18   2.0000      -6.038645      -164.3199
  19   2.0000      -6.035374      -164.2309
  20   2.0000      -6.034620      -164.2103
  21   2.0000      -6.031305      -164.1202
  22   2.0000      -6.031223      -164.1179
  23   2.0000      -6.027554      -164.0181
  24   2.0000      -1.013439       -27.5771
  25   2.0000      -0.986681       -26.8490
  26   2.0000      -0.933675       -25.4066
  27   2.0000      -0.909091       -24.7376
  28   2.0000      -0.869505       -23.6604
  29   2.0000      -0.860158       -23.4061
  30   2.0000      -0.846369       -23.0309
  31   2.0000      -0.815871       -22.2010
  32   2.0000      -0.787569       -21.4309
  33   2.0000      -0.769404       -20.9366
  34   2.0000      -0.708134       -19.2693
  35   2.0000      -0.701989       -19.1021
  36   2.0000      -0.692497       -18.8438
  37   2.0000      -0.667453       -18.1623
  38   2.0000      -0.641476       -17.4555
  39   2.0000      -0.618444       -16.8287
  40   2.0000      -0.603372       -16.4186
  41   2.0000      -0.573183       -15.5971
  42   2.0000      -0.570067       -15.5123
  43   2.0000      -0.561635       -15.2829
  44   2.0000      -0.540312       -14.7026
  45   2.0000      -0.526085       -14.3155
  46   2.0000      -0.522621       -14.2212
  47   2.0000      -0.522025       -14.2050
  48   2.0000      -0.508787       -13.8448
  49   2.0000      -0.498658       -13.5692
  50   2.0000      -0.490712       -13.3529
  51   2.0000      -0.480743       -13.0817
  52   2.0000      -0.477136       -12.9835
  53   2.0000      -0.461745       -12.5647
  54   2.0000      -0.454948       -12.3798
  55   2.0000      -0.449541       -12.2326
  56   2.0000      -0.447961       -12.1896
  57   2.0000      -0.442507       -12.0412
  58   2.0000      -0.430142       -11.7048
  59   2.0000      -0.426747       -11.6124
  60   2.0000      -0.420915       -11.4537
  61   2.0000      -0.410746       -11.1770
  62   2.0000      -0.406706       -11.0670
  63   2.0000      -0.338832        -9.2201
  64   2.0000      -0.331169        -9.0116
  65   2.0000      -0.325419        -8.8551
  66   2.0000      -0.297365        -8.0917
  67   0.0000       0.033217         0.9039
  68   0.0000       0.072235         1.9656
  69   0.0000       0.120211         3.2711
  70   0.0000       0.127177         3.4607
  71   0.0000       0.131523         3.5789

MULLIKEN ATOMIC CHARGES
-----------------------
   0 S :    0.106896
   1 C :   -0.133380
   2 C :   -0.063280
   3 C :    0.040014
   4 C :   -0.168859
   5 H :   -0.014554
   6 C :    0.041532
   7 H :    0.036100
   8 H :    0.034214
   9 C :   -0.114310
  10 H :    0.039498
  11 H :    0.051077
  12 C :   -0.026578
  13 H :    0.033547
  14 H :    0.028907
  15 H :    0.045605
  16 S :    0.133466
  17 C :   -0.090091
  18 C :   -0.033833
  19 C :   -0.040740
  20 C :   -0.184614
  21 H :    0.001612
  22 C :    0.175758
  23 H :   -0.005602
  24 H :   -0.025609
  25 C :   -0.071840
  26 H :    0.036473
  27 H :    0.016005
  28 C :    0.010584
  29 H :    0.015233
  30 H :    0.014837
  31 H :    0.021966
  32 H :    0.042391
  33 H :    0.047575
Sum of atomic charges:    0.0000000

LOEWDIN ATOMIC CHARGES
----------------------
   0 S :    0.389938
   1 C :   -0.200129
   2 C :   -0.069775
   3 C :   -0.063223
   4 C :   -0.185539
   5 H :    0.022673
   6 C :   -0.034880
   7 H :    0.033140
   8 H :    0.032529
   9 C :   -0.045200
  10 H :    0.028419
  11 H :    0.031072
  12 C :   -0.066396
  13 H :    0.029696
  14 H :    0.023751
  15 H :    0.029564
  16 S :    0.447056
  17 C :   -0.191728
  18 C :   -0.063271
  19 C :   -0.048133
  20 C :   -0.220845
  21 H :    0.023741
  22 C :   -0.032661
  23 H :    0.028135
  24 H :    0.020861
  25 C :   -0.038587
  26 H :    0.032379
  27 H :    0.023052
  28 C :   -0.059895
  29 H :    0.023278
  30 H :    0.023673
  31 H :    0.023766
  32 H :    0.026156
  33 H :    0.027382

  Mayer bond orders larger than 0.100000
B(  0-S ,  1-C ) :   1.1397 B(  0-S ,  4-C ) :   1.1487 B(  1-C ,  2-C ) :   1.6041
B(  1-C ,  4-C ) :   0.1017 B(  1-C , 32-H ) :   0.9683 B(  2-C ,  3-C ) :   1.2590
B(  2-C ,  6-C ) :   0.9994 B(  3-C ,  4-C ) :   1.5653 B(  3-C ,  5-H ) :   0.9974
B(  4-C , 20-C ) :   1.0145 B(  6-C ,  7-H ) :   0.9321 B(  6-C ,  8-H ) :   0.9562
B(  6-C ,  9-C ) :   1.0386 B(  9-C , 10-H ) :   0.9507 B(  9-C , 11-H ) :   0.9650
B(  9-C , 12-C ) :   1.0845 B( 12-C , 13-H ) :   0.9689 B( 12-C , 14-H ) :   0.9720
B( 12-C , 15-H ) :   0.9755 B( 16-S , 17-C ) :   1.1566 B( 16-S , 20-C ) :   1.1734
B( 17-C , 18-C ) :   1.6043 B( 17-C , 33-H ) :   0.9699 B( 18-C , 19-C ) :   1.2426
B( 18-C , 21-H ) :   0.9963 B( 19-C , 20-C ) :   1.5940 B( 19-C , 22-C ) :   1.0527
B( 22-C , 23-H ) :   0.9092 B( 22-C , 24-H ) :   0.8899 B( 22-C , 25-C ) :   1.0775
B( 25-C , 26-H ) :   0.9426 B( 25-C , 27-H ) :   0.9460 B( 25-C , 28-C ) :   1.0963
B( 28-C , 29-H ) :   0.9674 B( 28-C , 30-H ) :   0.9674 B( 28-C , 31-H ) :   0.9700

Dispersion correction           -0.014130775
FINAL SINGLE POINT ENERGY     -1339.862785419894

DIPOLE MOMENT
-------------
                                X             Y             Z
Electronic contribution:     -1.56340      -8.78628      28.99832
Nuclear contribution   :      1.79744       8.91214     -29.61770
                        -----------------------------------------
Total Dipole Moment    :      0.23405       0.12586      -0.61938
                        -----------------------------------------
Magnitude (a.u.)       :      0.67398
Magnitude (Debye)      :      1.71313

Rotational constants in cm-1:     0.018567     0.008709     0.006420
Rotational constants in MHz :   556.612964   261.075542   192.478329

                             ****ORCA TERMINATED NORMALLY****
TOTAL RUN TIME: 0 days 0 hours 0 minutes 30 seconds 552 msec
