                         Program Version 4.2.1 -  RELEASE  -
|  1> ! wB97X-D3 SP def2-SVP
|  2> %pal
|  3> nprocs 16
|  4> end
|  5>
|  6> * xyz 0 1
|  7> S 	 11.6872 	 -8.82365 	 95.6067
|  8> C 	 10.1146 	 -8.69947 	 96.3002
|  9> C 	 9.28688 	 -7.82906 	 95.6222
| 10> C 	 9.96268 	 -7.27279 	 94.4381
| 11> C 	 11.2085 	 -7.75712 	 94.2355
| 12> H 	 9.66125 	 -6.45085 	 93.8571
| 13> C 	 7.86589 	 -7.47558 	 95.9175
| 14> H 	 8.00052 	 -6.5748 	 96.5731
| 15> H 	 7.46712 	 -8.2201 	 96.6229
| 16> C 	 6.85864 	 -7.0651 	 94.6627
| 17> H 	 5.92816 	 -6.94297 	 95.1668
| 18> H 	 7.0934 	 -6.06712 	 94.3983
| 19> C 	 6.81398 	 -8.06174 	 93.4344
| 20> H 	 6.73666 	 -7.5217 	 92.4854
| 21> H 	 7.80746 	 -8.49534 	 93.341
| 22> H 	 5.98102 	 -8.83486 	 93.436
| 23> S 	 13.7709 	 -7.1638 	 93.5468
| 24> C 	 14.0254 	 -6.25237 	 92.0455
| 25> C 	 12.9585 	 -6.38032 	 91.1897
| 26> C 	 11.7701 	 -6.91248 	 91.8508
| 27> C 	 12.0856 	 -7.37475 	 93.1765
| 28> H 	 12.9562 	 -5.90972 	 90.202
| 29> C 	 10.4096 	 -6.88742 	 91.2065
| 30> H 	 9.72233 	 -7.50538 	 91.7785
| 31> H 	 10.4721 	 -7.34764 	 90.2002
| 32> C 	 9.86453 	 -5.52179 	 90.9772
| 33> H 	 10.603 	 -4.96511 	 90.4329
| 34> H 	 9.77651 	 -5.04358 	 91.9071
| 35> C 	 8.51329 	 -5.54374 	 90.3305
| 36> H 	 8.23061 	 -4.76427 	 89.699
| 37> H 	 7.77758 	 -5.74344 	 91.0862
| 38> H 	 8.44663 	 -6.42082 	 89.5935
| 39> H 	 9.89295 	 -9.06741 	 97.3106
| 40> H 	 15.0614 	 -6.06152 	 91.7618
| 41> *
| 42>
| 43>                          ****END OF INPUT****

CARTESIAN COORDINATES (ANGSTROEM)
---------------------------------
  S     11.687200   -8.823650   95.606700
  C     10.114600   -8.699470   96.300200
  C      9.286880   -7.829060   95.622200
  C      9.962680   -7.272790   94.438100
  C     11.208500   -7.757120   94.235500
  H      9.661250   -6.450850   93.857100
  C      7.865890   -7.475580   95.917500
  H      8.000520   -6.574800   96.573100
  H      7.467120   -8.220100   96.622900
  C      6.858640   -7.065100   94.662700
  H      5.928160   -6.942970   95.166800
  H      7.093400   -6.067120   94.398300
  C      6.813980   -8.061740   93.434400
  H      6.736660   -7.521700   92.485400
  H      7.807460   -8.495340   93.341000
  H      5.981020   -8.834860   93.436000
  S     13.770900   -7.163800   93.546800
  C     14.025400   -6.252370   92.045500
  C     12.958500   -6.380320   91.189700
  C     11.770100   -6.912480   91.850800
  C     12.085600   -7.374750   93.176500
  H     12.956200   -5.909720   90.202000
  C     10.409600   -6.887420   91.206500
  H      9.722330   -7.505380   91.778500
  H     10.472100   -7.347640   90.200200
  C      9.864530   -5.521790   90.977200
  H     10.603000   -4.965110   90.432900
  H      9.776510   -5.043580   91.907100
  C      8.513290   -5.543740   90.330500
  H      8.230610   -4.764270   89.699000
  H      7.777580   -5.743440   91.086200
  H      8.446630   -6.420820   89.593500
  H      9.892950   -9.067410   97.310600
  H     15.061400   -6.061520   91.761800

 Total Charge           Charge          ....    0
 Multiplicity           Mult            ....    1
 Number of Electrons    NEL             ....  134
 Basis Dimension        Dim             ....  322

ORBITAL ENERGIES
----------------

  NO   OCC          E(Eh)            E(eV)
   0   2.0000     -88.964627     -2420.8506
   1   2.0000     -88.962519     -2420.7932
   2   2.0000     -10.330228      -281.0998
   3   2.0000     -10.327352      -281.0215
   4   2.0000     -10.321035      -280.8496
   5   2.0000     -10.312374      -280.6140
   6   2.0000     -10.312126      -280.6072
   7   2.0000     -10.303862      -280.3823
   8   2.0000     -10.302711      -280.3510
   9   2.0000     -10.302666      -280.3498
  10   2.0000     -10.299592      -280.2661
  11   2.0000     -10.290309      -280.0135
  12   2.0000     -10.289557      -279.9931
  13   2.0000     -10.288951      -279.9766
  14   2.0000     -10.278280      -279.6862
  15   2.0000     -10.278181      -279.6835
  16   2.0000      -8.079594      -219.8569
  17   2.0000      -8.077218      -219.7923
  18   2.0000      -6.038087      -164.3047
  19   2.0000      -6.035922      -164.2458
  20   2.0000      -6.034161      -164.1979
  21   2.0000      -6.031915      -164.1367
  22   2.0000      -6.030262      -164.0918
  23   2.0000      -6.027604      -164.0194
  24   2.0000      -1.004828       -27.3428
  25   2.0000      -0.979691       -26.6588
  26   2.0000      -0.924608       -25.1599
  27   2.0000      -0.898566       -24.4512
  28   2.0000      -0.874108       -23.7857
  29   2.0000      -0.854159       -23.2428
  30   2.0000      -0.840757       -22.8782
  31   2.0000      -0.819169       -22.2907
  32   2.0000      -0.782724       -21.2990
  33   2.0000      -0.769133       -20.9292
  34   2.0000      -0.715888       -19.4803
  35   2.0000      -0.707104       -19.2413
  36   2.0000      -0.695755       -18.9325
  37   2.0000      -0.663583       -18.0570
  38   2.0000      -0.638845       -17.3839
  39   2.0000      -0.621911       -16.9231
  40   2.0000      -0.600810       -16.3489
  41   2.0000      -0.579543       -15.7702
  42   2.0000      -0.554141       -15.0790
  43   2.0000      -0.543140       -14.7796
  44   2.0000      -0.536453       -14.5976
  45   2.0000      -0.530443       -14.4341
  46   2.0000      -0.518916       -14.1204
  47   2.0000      -0.513686       -13.9781
  48   2.0000      -0.504291       -13.7224
  49   2.0000      -0.497763       -13.5448
  50   2.0000      -0.489431       -13.3181
  51   2.0000      -0.486043       -13.2259
  52   2.0000      -0.467562       -12.7230
  53   2.0000      -0.464949       -12.6519
  54   2.0000      -0.461534       -12.5590
  55   2.0000      -0.454941       -12.3796
  56   2.0000      -0.445800       -12.1308
  57   2.0000      -0.437551       -11.9064
  58   2.0000      -0.432994       -11.7824
  59   2.0000      -0.427091       -11.6217
  60   2.0000      -0.426048       -11.5934
  61   2.0000      -0.421139       -11.4598
  62   2.0000      -0.415304       -11.3010
  63   2.0000      -0.360841        -9.8190
  64   2.0000      -0.332136        -9.0379
  65   2.0000      -0.319435        -8.6923
  66   2.0000      -0.284376        -7.7383
  67   0.0000       0.020487         0.5575
  68   0.0000       0.076807         2.0900
  69   0.0000       0.103045         2.8040
  70   0.0000       0.108648         2.9565
  71   0.0000       0.122497         3.3333

MULLIKEN ATOMIC CHARGES
-----------------------
   0 S :    0.094045
   1 C :   -0.124785
   2 C :   -0.084524
   3 C :   -0.020921
   4 C :   -0.096310
   5 H :   -0.008690
   6 C :    0.014661
   7 H :    0.048374
   8 H :    0.027939
   9 C :   -0.034931
  10 H :    0.027169
  11 H :    0.020691
  12 C :   -0.071631
  13 H :    0.028453
  14 H :    0.057036
  15 H :    0.055737
  16 S :    0.089115
  17 C :   -0.098850
  18 C :   -0.025476
  19 C :   -0.067931
  20 C :   -0.122343
  21 H :    0.035972
  22 C :    0.043231
  23 H :    0.012963
  24 H :    0.027488
  25 C :   -0.035895
  26 H :    0.014244
  27 H :    0.013364
  28 C :   -0.016540
  29 H :    0.025693
  30 H :    0.028360
  31 H :    0.018838
  32 H :    0.055875
  33 H :    0.069581
Sum of atomic charges:   -0.0000000

LOEWDIN ATOMIC CHARGES
----------------------
   0 S :    0.377495
   1 C :   -0.210595
   2 C :   -0.063493
   3 C :   -0.061696
   4 C :   -0.171451
   5 H :    0.023195
   6 C :   -0.041869
   7 H :    0.044331
   8 H :    0.030209
   9 C :   -0.029481
  10 H :    0.024762
  11 H :    0.018130
  12 C :   -0.075565
  13 H :    0.025560
  14 H :    0.028963
  15 H :    0.037381
  16 S :    0.396858
  17 C :   -0.178076
  18 C :   -0.066719
  19 C :   -0.047215
  20 C :   -0.197744
  21 H :    0.036126
  22 C :   -0.036067
  23 H :    0.026134
  24 H :    0.034932
  25 C :   -0.038224
  26 H :    0.020706
  27 H :    0.016177
  28 C :   -0.059479
  29 H :    0.019528
  30 H :    0.023738
  31 H :    0.031412
  32 H :    0.033176
  33 H :    0.028862

  Mayer bond orders larger than 0.100000
B(  0-S ,  1-C ) :   1.1214 B(  0-S ,  4-C ) :   1.1101 B(  1-C ,  2-C ) :   1.6534
B(  1-C , 32-H ) :   0.9594 B(  2-C ,  3-C ) :   1.1834 B(  2-C ,  6-C ) :   1.0216
B(  3-C ,  4-C ) :   1.6192 B(  3-C ,  5-H ) :   0.9958 B(  4-C , 20-C ) :   1.0877
B(  6-C ,  7-H ) :   0.9310 B(  6-C ,  8-H ) :   0.9484 B(  6-C ,  9-C ) :   1.0556
B(  9-C , 10-H ) :   0.9593 B(  9-C , 11-H ) :   0.9554 B(  9-C , 12-C ) :   1.0539
B( 12-C , 13-H ) :   0.9754 B( 12-C , 14-H ) :   0.9718 B( 12-C , 15-H ) :   0.9748
B( 16-S , 17-C ) :   1.1477 B( 16-S , 20-C ) :   1.1403 B( 17-C , 18-C ) :   1.6176
B( 17-C , 33-H ) :   0.9616 B( 18-C , 19-C ) :   1.2345 B( 18-C , 21-H ) :   0.9818
B( 19-C , 20-C ) :   1.5581 B( 19-C , 22-C ) :   1.0590 B( 22-C , 23-H ) :   0.9328
B( 22-C , 24-H ) :   0.9196 B( 22-C , 25-C ) :   1.0718 B( 25-C , 26-H ) :   0.9480
B( 25-C , 27-H ) :   0.9478 B( 25-C , 28-C ) :   1.0794 B( 28-C , 29-H ) :   0.9715
B( 28-C , 30-H ) :   0.9714 B( 28-C , 31-H ) :   0.9708

Dispersion correction           -0.015890385
FINAL SINGLE POINT ENERGY     -1339.862912408203

DIPOLE MOMENT
-------------
                                X             Y             Z
Electronic contribution:     28.70488      -8.23160      12.90738
Nuclear contribution   :    -29.32402       8.71098     -13.23020
                        -----------------------------------------
Total Dipole Moment    :     -0.61914       0.47939      -0.32282
                        -----------------------------------------
Magnitude (a.u.)       :      0.84697
Magnitude (Debye)      :      2.15283

Rotational constants in cm-1:     0.016024     0.011838     0.007169
Rotational constants in MHz :   480.391277   354.881445   214.909329

                             ****ORCA TERMINATED NORMALLY****
TOTAL RUN TIME: 0 days 0 hours 0 minutes 37 seconds 6 msec
