                         Program Version 4.2.1 -  RELEASE  -
|  1> ! wB97X-D3 SP def2-SVP
|  2> %pal
|  3> nprocs 16
|  4> end
|  5>
|  6> * xyz 0 1
|  7> S 	 42.7773 	 20.0041 	 45.1925
|  8> C 	 41.0599 	 19.8506 	 45.6051
|  9> C 	 40.3325 	 20.8613 	 45.1129
| 10> C 	 41.1626 	 22.0376 	 44.8523
| 11> C 	 42.5498 	 21.709 	 44.8485
| 12> H 	 40.8729 	 23.054 	 44.659
| 13> C 	 38.808 	 20.8587 	 45.0614
| 14> H 	 38.3126 	 19.8793 	 45.3708
| 15> H 	 38.6018 	 20.9545 	 44.0184
| 16> C 	 38.0399 	 22.0429 	 45.8548
| 17> H 	 38.3135 	 23.0323 	 45.4189
| 18> H 	 36.9622 	 22.0482 	 45.7958
| 19> C 	 38.518 	 22.0835 	 47.3004
| 20> H 	 37.9505 	 21.4035 	 47.9455
| 21> H 	 39.5338 	 21.8771 	 47.5
| 22> H 	 38.1438 	 22.9684 	 47.8694
| 23> S 	 45.0072 	 22.1544 	 43.6095
| 24> C 	 45.8141 	 23.7014 	 43.6234
| 25> C 	 45.0493 	 24.6308 	 44.3068
| 26> C 	 43.7903 	 24.0762 	 44.7834
| 27> C 	 43.6517 	 22.6515 	 44.6426
| 28> H 	 45.5141 	 25.6698 	 44.2395
| 29> C 	 42.7171 	 25.017 	 45.3542
| 30> H 	 43.185 	 25.6274 	 46.0976
| 31> H 	 41.9853 	 24.3371 	 45.8814
| 32> C 	 41.9358 	 25.7945 	 44.2497
| 33> H 	 41.399 	 25.048 	 43.6857
| 34> H 	 42.6458 	 26.2936 	 43.6428
| 35> C 	 40.9721 	 26.8971 	 44.6654
| 36> H 	 41.4429 	 27.5695 	 45.423
| 37> H 	 40.1989 	 26.357 	 45.1856
| 38> H 	 40.6637 	 27.4415 	 43.7571
| 39> H 	 40.4751 	 18.9726 	 45.9036
| 40> H 	 46.6477 	 24.0001 	 43.1046
| 41> *
| 42>
| 43>                          ****END OF INPUT****

CARTESIAN COORDINATES (ANGSTROEM)
---------------------------------
  S     42.777300   20.004100   45.192500
  C     41.059900   19.850600   45.605100
  C     40.332500   20.861300   45.112900
  C     41.162600   22.037600   44.852300
  C     42.549800   21.709000   44.848500
  H     40.872900   23.054000   44.659000
  C     38.808000   20.858700   45.061400
  H     38.312600   19.879300   45.370800
  H     38.601800   20.954500   44.018400
  C     38.039900   22.042900   45.854800
  H     38.313500   23.032300   45.418900
  H     36.962200   22.048200   45.795800
  C     38.518000   22.083500   47.300400
  H     37.950500   21.403500   47.945500
  H     39.533800   21.877100   47.500000
  H     38.143800   22.968400   47.869400
  S     45.007200   22.154400   43.609500
  C     45.814100   23.701400   43.623400
  C     45.049300   24.630800   44.306800
  C     43.790300   24.076200   44.783400
  C     43.651700   22.651500   44.642600
  H     45.514100   25.669800   44.239500
  C     42.717100   25.017000   45.354200
  H     43.185000   25.627400   46.097600
  H     41.985300   24.337100   45.881400
  C     41.935800   25.794500   44.249700
  H     41.399000   25.048000   43.685700
  H     42.645800   26.293600   43.642800
  C     40.972100   26.897100   44.665400
  H     41.442900   27.569500   45.423000
  H     40.198900   26.357000   45.185600
  H     40.663700   27.441500   43.757100
  H     40.475100   18.972600   45.903600
  H     46.647700   24.000100   43.104600

 Total Charge           Charge          ....    0
 Multiplicity           Mult            ....    1
 Number of Electrons    NEL             ....  134
 Basis Dimension        Dim             ....  322

ORBITAL ENERGIES
----------------

  NO   OCC          E(Eh)            E(eV)
   0   2.0000     -88.970758     -2421.0174
   1   2.0000     -88.964757     -2420.8541
   2   2.0000     -10.341892      -281.4172
   3   2.0000     -10.338961      -281.3374
   4   2.0000     -10.317093      -280.7424
   5   2.0000     -10.314620      -280.6751
   6   2.0000     -10.314050      -280.6596
   7   2.0000     -10.307127      -280.4712
   8   2.0000     -10.305759      -280.4340
   9   2.0000     -10.305235      -280.4197
  10   2.0000     -10.303272      -280.3663
  11   2.0000     -10.298221      -280.2289
  12   2.0000     -10.294599      -280.1303
  13   2.0000     -10.282969      -279.8138
  14   2.0000     -10.281833      -279.7829
  15   2.0000     -10.273170      -279.5472
  16   2.0000      -8.084945      -220.0026
  17   2.0000      -8.079187      -219.8459
  18   2.0000      -6.043722      -164.4580
  19   2.0000      -6.039767      -164.3504
  20   2.0000      -6.037766      -164.2960
  21   2.0000      -6.035185      -164.2257
  22   2.0000      -6.033660      -164.1842
  23   2.0000      -6.029938      -164.0830
  24   2.0000      -1.003184       -27.2980
  25   2.0000      -0.981887       -26.7185
  26   2.0000      -0.907312       -24.6892
  27   2.0000      -0.906206       -24.6591
  28   2.0000      -0.872131       -23.7319
  29   2.0000      -0.850147       -23.1337
  30   2.0000      -0.842462       -22.9245
  31   2.0000      -0.817494       -22.2451
  32   2.0000      -0.783680       -21.3250
  33   2.0000      -0.771719       -20.9995
  34   2.0000      -0.714592       -19.4450
  35   2.0000      -0.701272       -19.0826
  36   2.0000      -0.693742       -18.8777
  37   2.0000      -0.657090       -17.8803
  38   2.0000      -0.635056       -17.2807
  39   2.0000      -0.620367       -16.8810
  40   2.0000      -0.588637       -16.0176
  41   2.0000      -0.571524       -15.5520
  42   2.0000      -0.568419       -15.4675
  43   2.0000      -0.554859       -15.0985
  44   2.0000      -0.540775       -14.7152
  45   2.0000      -0.531876       -14.4731
  46   2.0000      -0.517566       -14.0837
  47   2.0000      -0.511324       -13.9138
  48   2.0000      -0.506762       -13.7897
  49   2.0000      -0.497831       -13.5467
  50   2.0000      -0.496695       -13.5158
  51   2.0000      -0.477269       -12.9871
  52   2.0000      -0.467739       -12.7278
  53   2.0000      -0.463700       -12.6179
  54   2.0000      -0.455133       -12.3848
  55   2.0000      -0.451500       -12.2859
  56   2.0000      -0.445767       -12.1299
  57   2.0000      -0.439542       -11.9606
  58   2.0000      -0.433784       -11.8039
  59   2.0000      -0.429602       -11.6901
  60   2.0000      -0.416105       -11.3228
  61   2.0000      -0.409418       -11.1408
  62   2.0000      -0.405188       -11.0257
  63   2.0000      -0.359709        -9.7882
  64   2.0000      -0.331161        -9.0114
  65   2.0000      -0.326365        -8.8808
  66   2.0000      -0.287650        -7.8274
  67   0.0000       0.018686         0.5085
  68   0.0000       0.071244         1.9387
  69   0.0000       0.100467         2.7338
  70   0.0000       0.118350         3.2205
  71   0.0000       0.121467         3.3053

MULLIKEN ATOMIC CHARGES
-----------------------
   0 S :    0.117309
   1 C :   -0.109815
   2 C :   -0.090762
   3 C :    0.021730
   4 C :   -0.131549
   5 H :   -0.007665
   6 C :    0.053470
   7 H :    0.037168
   8 H :    0.037489
   9 C :   -0.069917
  10 H :    0.029114
  11 H :    0.033486
  12 C :   -0.058768
  13 H :    0.009442
  14 H :    0.047243
  15 H :    0.025345
  16 S :    0.082075
  17 C :   -0.057607
  18 C :   -0.059389
  19 C :   -0.077901
  20 C :   -0.097664
  21 H :    0.050512
  22 C :    0.035637
  23 H :    0.023580
  24 H :    0.029152
  25 C :   -0.072683
  26 H :    0.028294
  27 H :    0.015093
  28 C :   -0.029907
  29 H :    0.034465
  30 H :    0.023108
  31 H :    0.051732
  32 H :    0.049716
  33 H :    0.028468
Sum of atomic charges:    0.0000000

LOEWDIN ATOMIC CHARGES
----------------------
   0 S :    0.393340
   1 C :   -0.191710
   2 C :   -0.061106
   3 C :   -0.056717
   4 C :   -0.185104
   5 H :    0.023675
   6 C :   -0.029424
   7 H :    0.036493
   8 H :    0.031100
   9 C :   -0.040120
  10 H :    0.022961
  11 H :    0.025902
  12 C :   -0.078986
  13 H :    0.024420
  14 H :    0.021696
  15 H :    0.031735
  16 S :    0.395837
  17 C :   -0.174927
  18 C :   -0.084416
  19 C :   -0.050365
  20 C :   -0.195203
  21 H :    0.049618
  22 C :   -0.035016
  23 H :    0.024736
  24 H :    0.031006
  25 C :   -0.038605
  26 H :    0.020539
  27 H :    0.015841
  28 C :   -0.062698
  29 H :    0.028481
  30 H :    0.021011
  31 H :    0.033979
  32 H :    0.035690
  33 H :    0.016334

  Mayer bond orders larger than 0.100000
B(  0-S ,  1-C ) :   1.1077 B(  0-S ,  4-C ) :   1.1350 B(  1-C ,  2-C ) :   1.6731
B(  1-C , 32-H ) :   0.9556 B(  2-C ,  3-C ) :   1.1782 B(  2-C ,  6-C ) :   1.0237
B(  3-C ,  4-C ) :   1.5831 B(  3-C ,  5-H ) :   0.9899 B(  4-C , 20-C ) :   1.0692
B(  6-C ,  7-H ) :   0.9514 B(  6-C ,  8-H ) :   0.9339 B(  6-C ,  9-C ) :   1.0532
B(  9-C , 10-H ) :   0.9583 B(  9-C , 11-H ) :   0.9592 B(  9-C , 12-C ) :   1.0729
B( 12-C , 13-H ) :   0.9695 B( 12-C , 14-H ) :   0.9771 B( 12-C , 15-H ) :   0.9699
B( 16-S , 17-C ) :   1.1610 B( 16-S , 20-C ) :   1.1271 B( 17-C , 18-C ) :   1.6183
B( 17-C , 20-C ) :   0.1001 B( 17-C , 33-H ) :   0.9738 B( 18-C , 19-C ) :   1.2379
B( 18-C , 21-H ) :   0.9802 B( 19-C , 20-C ) :   1.5663 B( 19-C , 22-C ) :   1.0452
B( 22-C , 23-H ) :   0.9374 B( 22-C , 24-H ) :   0.9369 B( 22-C , 25-C ) :   1.0566
B( 25-C , 26-H ) :   0.9517 B( 25-C , 27-H ) :   0.9565 B( 25-C , 28-C ) :   1.0818
B( 28-C , 29-H ) :   0.9741 B( 28-C , 30-H ) :   0.9755 B( 28-C , 31-H ) :   0.9727

Dispersion correction           -0.014662585
FINAL SINGLE POINT ENERGY     -1339.843271183744

DIPOLE MOMENT
-------------
                                X             Y             Z
Electronic contribution:     24.92769     -18.55785      -7.27712
Nuclear contribution   :    -25.51033      19.12677       7.19153
                        -----------------------------------------
Total Dipole Moment    :     -0.58264       0.56892      -0.08559
                        -----------------------------------------
Magnitude (a.u.)       :      0.81882
Magnitude (Debye)      :      2.08128

Rotational constants in cm-1:     0.016818     0.010094     0.006709
Rotational constants in MHz :   504.178942   302.607382   201.137676

                             ****ORCA TERMINATED NORMALLY****
TOTAL RUN TIME: 0 days 0 hours 0 minutes 35 seconds 860 msec
