                         Program Version 4.2.1 -  RELEASE  -
|  1> ! wB97X-D3 SP def2-SVP
|  2> %pal
|  3> nprocs 16
|  4> end
|  5>
|  6> * xyz 0 1
|  7> S 	 -6.18613 	 52.284 	 51.0544
|  8> C 	 -6.80638 	 53.2886 	 52.3491
|  9> C 	 -8.13371 	 53.6634 	 52.229
| 10> C 	 -8.64855 	 53.2101 	 50.9235
| 11> C 	 -7.71228 	 52.5087 	 50.1692
| 12> H 	 -9.64663 	 53.4652 	 50.5495
| 13> C 	 -8.9986 	 54.3829 	 53.2886
| 14> H 	 -8.76279 	 53.8319 	 54.2294
| 15> H 	 -10.107 	 54.1724 	 53.1135
| 16> C 	 -8.75597 	 55.9561 	 53.2922
| 17> H 	 -7.67974 	 56.0703 	 53.1205
| 18> H 	 -9.19041 	 56.4368 	 52.4306
| 19> C 	 -8.96301 	 56.7268 	 54.6475
| 20> H 	 -8.67952 	 57.7726 	 54.3876
| 21> H 	 -10.0004 	 56.7874 	 54.9504
| 22> H 	 -8.37585 	 56.4093 	 55.4546
| 23> S 	 -7.83567 	 53.1781 	 47.5062
| 24> C 	 -8.27948 	 51.9138 	 46.3398
| 25> C 	 -8.26417 	 50.6422 	 46.9168
| 26> C 	 -8.0123 	 50.728 	 48.3038
| 27> C 	 -8.0193 	 51.9979 	 48.8235
| 28> H 	 -8.32637 	 49.7315 	 46.3037
| 29> C 	 -7.84693 	 49.5503 	 49.0973
| 30> H 	 -7.33282 	 49.6122 	 50.0286
| 31> H 	 -7.19526 	 48.8722 	 48.6116
| 32> C 	 -9.22824 	 48.8965 	 49.3816
| 33> H 	 -9.08378 	 47.7922 	 49.4757
| 34> H 	 -9.87722 	 49.019 	 48.531
| 35> C 	 -9.90009 	 49.4288 	 50.6733
| 36> H 	 -9.34735 	 49.5551 	 51.6424
| 37> H 	 -10.6465 	 48.6973 	 50.9686
| 38> H 	 -10.2542 	 50.4264 	 50.5179
| 39> H 	 -6.37611 	 53.576 	 53.28
| 40> H 	 -8.37827 	 52.0081 	 45.2452
| 41> *
| 42>
| 43>                          ****END OF INPUT****

CARTESIAN COORDINATES (ANGSTROEM)
---------------------------------
  S     -6.186130   52.284000   51.054400
  C     -6.806380   53.288600   52.349100
  C     -8.133710   53.663400   52.229000
  C     -8.648550   53.210100   50.923500
  C     -7.712280   52.508700   50.169200
  H     -9.646630   53.465200   50.549500
  C     -8.998600   54.382900   53.288600
  H     -8.762790   53.831900   54.229400
  H    -10.107000   54.172400   53.113500
  C     -8.755970   55.956100   53.292200
  H     -7.679740   56.070300   53.120500
  H     -9.190410   56.436800   52.430600
  C     -8.963010   56.726800   54.647500
  H     -8.679520   57.772600   54.387600
  H    -10.000400   56.787400   54.950400
  H     -8.375850   56.409300   55.454600
  S     -7.835670   53.178100   47.506200
  C     -8.279480   51.913800   46.339800
  C     -8.264170   50.642200   46.916800
  C     -8.012300   50.728000   48.303800
  C     -8.019300   51.997900   48.823500
  H     -8.326370   49.731500   46.303700
  C     -7.846930   49.550300   49.097300
  H     -7.332820   49.612200   50.028600
  H     -7.195260   48.872200   48.611600
  C     -9.228240   48.896500   49.381600
  H     -9.083780   47.792200   49.475700
  H     -9.877220   49.019000   48.531000
  C     -9.900090   49.428800   50.673300
  H     -9.347350   49.555100   51.642400
  H    -10.646500   48.697300   50.968600
  H    -10.254200   50.426400   50.517900
  H     -6.376110   53.576000   53.280000
  H     -8.378270   52.008100   45.245200

 Total Charge           Charge          ....    0
 Multiplicity           Mult            ....    1
 Number of Electrons    NEL             ....  134
 Basis Dimension        Dim             ....  322

ORBITAL ENERGIES
----------------

  NO   OCC          E(Eh)            E(eV)
   0   2.0000     -88.973076     -2421.0805
   1   2.0000     -88.963756     -2420.8269
   2   2.0000     -10.330555      -281.1087
   3   2.0000     -10.322184      -280.8809
   4   2.0000     -10.321398      -280.8595
   5   2.0000     -10.311889      -280.6008
   6   2.0000     -10.307658      -280.4856
   7   2.0000     -10.304391      -280.3967
   8   2.0000     -10.298843      -280.2458
   9   2.0000     -10.295193      -280.1465
  10   2.0000     -10.294802      -280.1358
  11   2.0000     -10.293911      -280.1116
  12   2.0000     -10.286420      -279.9077
  13   2.0000     -10.280293      -279.7410
  14   2.0000     -10.274256      -279.5767
  15   2.0000     -10.271643      -279.5056
  16   2.0000      -8.086418      -220.0426
  17   2.0000      -8.077618      -219.8032
  18   2.0000      -6.045099      -164.4955
  19   2.0000      -6.041242      -164.3905
  20   2.0000      -6.036968      -164.2743
  21   2.0000      -6.036251      -164.2547
  22   2.0000      -6.032442      -164.1511
  23   2.0000      -6.028083      -164.0325
  24   2.0000      -1.001511       -27.2525
  25   2.0000      -0.978439       -26.6247
  26   2.0000      -0.910288       -24.7702
  27   2.0000      -0.898326       -24.4447
  28   2.0000      -0.864489       -23.5239
  29   2.0000      -0.845898       -23.0181
  30   2.0000      -0.841960       -22.9109
  31   2.0000      -0.811330       -22.0774
  32   2.0000      -0.780843       -21.2478
  33   2.0000      -0.770205       -20.9583
  34   2.0000      -0.703710       -19.1489
  35   2.0000      -0.702834       -19.1251
  36   2.0000      -0.694897       -18.9091
  37   2.0000      -0.661352       -17.9963
  38   2.0000      -0.632814       -17.2198
  39   2.0000      -0.614468       -16.7205
  40   2.0000      -0.600120       -16.3301
  41   2.0000      -0.567415       -15.4401
  42   2.0000      -0.554166       -15.0796
  43   2.0000      -0.548215       -14.9177
  44   2.0000      -0.531062       -14.4509
  45   2.0000      -0.521069       -14.1790
  46   2.0000      -0.510224       -13.8839
  47   2.0000      -0.503367       -13.6973
  48   2.0000      -0.495528       -13.4840
  49   2.0000      -0.493825       -13.4377
  50   2.0000      -0.493505       -13.4290
  51   2.0000      -0.478405       -13.0181
  52   2.0000      -0.470520       -12.8035
  53   2.0000      -0.468167       -12.7395
  54   2.0000      -0.463760       -12.6195
  55   2.0000      -0.445366       -12.1190
  56   2.0000      -0.443274       -12.0621
  57   2.0000      -0.437321       -11.9001
  58   2.0000      -0.431545       -11.7429
  59   2.0000      -0.422443       -11.4952
  60   2.0000      -0.420423       -11.4403
  61   2.0000      -0.414286       -11.2733
  62   2.0000      -0.405159       -11.0249
  63   2.0000      -0.333015        -9.0618
  64   2.0000      -0.330923        -9.0049
  65   2.0000      -0.320882        -8.7316
  66   2.0000      -0.301657        -8.2085
  67   0.0000       0.037249         1.0136
  68   0.0000       0.055482         1.5097
  69   0.0000       0.098200         2.6721
  70   0.0000       0.107970         2.9380
  71   0.0000       0.132438         3.6038

MULLIKEN ATOMIC CHARGES
-----------------------
   0 S :    0.136821
   1 C :   -0.095239
   2 C :   -0.116079
   3 C :    0.021419
   4 C :   -0.153356
   5 H :    0.023845
   6 C :    0.028757
   7 H :    0.041199
   8 H :    0.042647
   9 C :   -0.076059
  10 H :    0.027889
  11 H :    0.034797
  12 C :   -0.038884
  13 H :    0.034846
  14 H :    0.032595
  15 H :    0.031125
  16 S :    0.103803
  17 C :   -0.093996
  18 C :   -0.042559
  19 C :   -0.023248
  20 C :   -0.163570
  21 H :    0.031184
  22 C :    0.092562
  23 H :    0.002932
  24 H :    0.008058
  25 C :   -0.074962
  26 H :    0.025915
  27 H :    0.027608
  28 C :   -0.053135
  29 H :    0.033561
  30 H :    0.032348
  31 H :    0.029142
  32 H :    0.025079
  33 H :    0.062953
Sum of atomic charges:   -0.0000000

LOEWDIN ATOMIC CHARGES
----------------------
   0 S :    0.399249
   1 C :   -0.199151
   2 C :   -0.062966
   3 C :   -0.053090
   4 C :   -0.197252
   5 H :    0.033235
   6 C :   -0.040622
   7 H :    0.035903
   8 H :    0.037000
   9 C :   -0.039901
  10 H :    0.025872
  11 H :    0.026195
  12 C :   -0.061691
  13 H :    0.034257
  14 H :    0.021574
  15 H :    0.017712
  16 S :    0.387544
  17 C :   -0.175524
  18 C :   -0.072180
  19 C :   -0.054829
  20 C :   -0.196207
  21 H :    0.038313
  22 C :   -0.037448
  23 H :    0.023177
  24 H :    0.028553
  25 C :   -0.028071
  26 H :    0.024163
  27 H :    0.022038
  28 C :   -0.072895
  29 H :    0.032096
  30 H :    0.026322
  31 H :    0.021316
  32 H :    0.022968
  33 H :    0.034337

  Mayer bond orders larger than 0.100000
B(  0-S ,  1-C ) :   1.1313 B(  0-S ,  4-C ) :   1.1156 B(  1-C ,  2-C ) :   1.6550
B(  1-C , 32-H ) :   0.9576 B(  2-C ,  3-C ) :   1.2191 B(  2-C ,  6-C ) :   1.0111
B(  3-C ,  4-C ) :   1.5994 B(  3-C ,  5-H ) :   0.9861 B(  4-C , 20-C ) :   1.0421
B(  6-C ,  7-H ) :   0.9494 B(  6-C ,  8-H ) :   0.9495 B(  6-C ,  9-C ) :   1.0331
B(  9-C , 10-H ) :   0.9650 B(  9-C , 11-H ) :   0.9589 B(  9-C , 12-C ) :   1.0723
B( 12-C , 13-H ) :   0.9740 B( 12-C , 14-H ) :   0.9783 B( 12-C , 15-H ) :   0.9790
B( 16-S , 17-C ) :   1.1584 B( 16-S , 20-C ) :   1.1203 B( 17-C , 18-C ) :   1.6119
B( 17-C , 33-H ) :   0.9620 B( 18-C , 19-C ) :   1.2304 B( 18-C , 21-H ) :   0.9857
B( 19-C , 20-C ) :   1.5925 B( 19-C , 22-C ) :   1.0869 B( 22-C , 23-H ) :   0.9276
B( 22-C , 24-H ) :   0.9185 B( 22-C , 25-C ) :   1.0601 B( 25-C , 26-H ) :   0.9572
B( 25-C , 27-H ) :   0.9586 B( 25-C , 28-C ) :   1.0727 B( 28-C , 29-H ) :   0.9764
B( 28-C , 30-H ) :   0.9753 B( 28-C , 31-H ) :   0.9739

Dispersion correction           -0.015067588
FINAL SINGLE POINT ENERGY     -1339.856617661453

DIPOLE MOMENT
-------------
                                X             Y             Z
Electronic contribution:     12.90549      -0.18403     -17.59011
Nuclear contribution   :    -13.10720       0.02576      17.82992
                        -----------------------------------------
Total Dipole Moment    :     -0.20170      -0.15827       0.23981
                        -----------------------------------------
Magnitude (a.u.)       :      0.35106
Magnitude (Debye)      :      0.89232

Rotational constants in cm-1:     0.022441     0.007497     0.006727
Rotational constants in MHz :   672.770124   224.751621   201.659460

                             ****ORCA TERMINATED NORMALLY****
TOTAL RUN TIME: 0 days 0 hours 0 minutes 32 seconds 86 msec
