                         Program Version 4.2.1 -  RELEASE  -
|  1> ! wB97X-D3 SP def2-SVP
|  2> %pal
|  3> nprocs 16
|  4> end
|  5>
|  6> * xyz 0 1
|  7> S 	 8.4902 	 25.615 	 40.3898
|  8> C 	 6.82603 	 26.1685 	 40.8217
|  9> C 	 6.10465 	 25.201 	 41.5345
| 10> C 	 6.92135 	 24.0264 	 41.7176
| 11> C 	 8.17798 	 24.1024 	 41.1788
| 12> H 	 6.53795 	 23.0475 	 42.1999
| 13> C 	 4.61887 	 25.2816 	 41.9534
| 14> H 	 4.15593 	 24.5363 	 41.2824
| 15> H 	 4.2408 	 26.2591 	 41.7496
| 16> C 	 4.27915 	 24.9926 	 43.4128
| 17> H 	 3.20973 	 24.7748 	 43.5042
| 18> H 	 4.7859 	 24.0874 	 43.7728
| 19> C 	 4.72897 	 26.1812 	 44.2857
| 20> H 	 4.96691 	 25.7723 	 45.3437
| 21> H 	 5.61589 	 26.7531 	 44.0266
| 22> H 	 4.01312 	 26.9114 	 44.3552
| 23> S 	 10.5876 	 23.6903 	 42.4323
| 24> C 	 11.3338 	 22.1639 	 42.4188
| 25> C 	 10.5409 	 21.2317 	 41.7389
| 26> C 	 9.3117 	 21.7673 	 41.2354
| 27> C 	 9.22133 	 23.1494 	 41.5093
| 28> H 	 10.8874 	 20.2554 	 41.5889
| 29> C 	 8.35794 	 20.8971 	 40.493
| 30> H 	 8.12348 	 21.3889 	 39.5715
| 31> H 	 7.39051 	 20.796 	 40.9567
| 32> C 	 8.90353 	 19.5467 	 40.1423
| 33> H 	 9.08942 	 19.0108 	 41.0364
| 34> H 	 9.75411 	 19.5247 	 39.5137
| 35> C 	 7.90133 	 18.747 	 39.3825
| 36> H 	 6.9368 	 18.7145 	 39.8408
| 37> H 	 8.25583 	 17.7808 	 39.1145
| 38> H 	 7.81851 	 19.2426 	 38.4269
| 39> H 	 6.4128 	 27.041 	 40.4762
| 40> H 	 12.2733 	 21.9302 	 42.8681
| 41> *
| 42>
| 43>                          ****END OF INPUT****

CARTESIAN COORDINATES (ANGSTROEM)
---------------------------------
  S      8.490200   25.615000   40.389800
  C      6.826030   26.168500   40.821700
  C      6.104650   25.201000   41.534500
  C      6.921350   24.026400   41.717600
  C      8.177980   24.102400   41.178800
  H      6.537950   23.047500   42.199900
  C      4.618870   25.281600   41.953400
  H      4.155930   24.536300   41.282400
  H      4.240800   26.259100   41.749600
  C      4.279150   24.992600   43.412800
  H      3.209730   24.774800   43.504200
  H      4.785900   24.087400   43.772800
  C      4.728970   26.181200   44.285700
  H      4.966910   25.772300   45.343700
  H      5.615890   26.753100   44.026600
  H      4.013120   26.911400   44.355200
  S     10.587600   23.690300   42.432300
  C     11.333800   22.163900   42.418800
  C     10.540900   21.231700   41.738900
  C      9.311700   21.767300   41.235400
  C      9.221330   23.149400   41.509300
  H     10.887400   20.255400   41.588900
  C      8.357940   20.897100   40.493000
  H      8.123480   21.388900   39.571500
  H      7.390510   20.796000   40.956700
  C      8.903530   19.546700   40.142300
  H      9.089420   19.010800   41.036400
  H      9.754110   19.524700   39.513700
  C      7.901330   18.747000   39.382500
  H      6.936800   18.714500   39.840800
  H      8.255830   17.780800   39.114500
  H      7.818510   19.242600   38.426900
  H      6.412800   27.041000   40.476200
  H     12.273300   21.930200   42.868100

 Total Charge           Charge          ....    0
 Multiplicity           Mult            ....    1
 Number of Electrons    NEL             ....  134
 Basis Dimension        Dim             ....  322

ORBITAL ENERGIES
----------------

  NO   OCC          E(Eh)            E(eV)
   0   2.0000     -88.968388     -2420.9529
   1   2.0000     -88.964050     -2420.8349
   2   2.0000     -10.325114      -280.9606
   3   2.0000     -10.321269      -280.8560
   4   2.0000     -10.314477      -280.6712
   5   2.0000     -10.309525      -280.5364
   6   2.0000     -10.307911      -280.4925
   7   2.0000     -10.300004      -280.2774
   8   2.0000     -10.299042      -280.2512
   9   2.0000     -10.296338      -280.1776
  10   2.0000     -10.291273      -280.0398
  11   2.0000     -10.285442      -279.8811
  12   2.0000     -10.283418      -279.8260
  13   2.0000     -10.274991      -279.5967
  14   2.0000     -10.272814      -279.5375
  15   2.0000     -10.266726      -279.3718
  16   2.0000      -8.082421      -219.9339
  17   2.0000      -8.079670      -219.8590
  18   2.0000      -6.040996      -164.3839
  19   2.0000      -6.037988      -164.3020
  20   2.0000      -6.037103      -164.2779
  21   2.0000      -6.033881      -164.1902
  22   2.0000      -6.033084      -164.1686
  23   2.0000      -6.030760      -164.1053
  24   2.0000      -1.005663       -27.3655
  25   2.0000      -0.980570       -26.6827
  26   2.0000      -0.925984       -25.1973
  27   2.0000      -0.912196       -24.8221
  28   2.0000      -0.866986       -23.5919
  29   2.0000      -0.856724       -23.3126
  30   2.0000      -0.841936       -22.9102
  31   2.0000      -0.809681       -22.0325
  32   2.0000      -0.784829       -21.3563
  33   2.0000      -0.774623       -21.0786
  34   2.0000      -0.710981       -19.3468
  35   2.0000      -0.705405       -19.1951
  36   2.0000      -0.697225       -18.9725
  37   2.0000      -0.650021       -17.6880
  38   2.0000      -0.639154       -17.3923
  39   2.0000      -0.618357       -16.8263
  40   2.0000      -0.605354       -16.4725
  41   2.0000      -0.585969       -15.9450
  42   2.0000      -0.566025       -15.4023
  43   2.0000      -0.553613       -15.0646
  44   2.0000      -0.537612       -14.6292
  45   2.0000      -0.532678       -14.4949
  46   2.0000      -0.517773       -14.0893
  47   2.0000      -0.514747       -14.0070
  48   2.0000      -0.502201       -13.6656
  49   2.0000      -0.499444       -13.5906
  50   2.0000      -0.483207       -13.1487
  51   2.0000      -0.477193       -12.9851
  52   2.0000      -0.469112       -12.7652
  53   2.0000      -0.464668       -12.6443
  54   2.0000      -0.458524       -12.4771
  55   2.0000      -0.453760       -12.3474
  56   2.0000      -0.449279       -12.2255
  57   2.0000      -0.439588       -11.9618
  58   2.0000      -0.433063       -11.7842
  59   2.0000      -0.424408       -11.5487
  60   2.0000      -0.420124       -11.4321
  61   2.0000      -0.418916       -11.3993
  62   2.0000      -0.418060       -11.3760
  63   2.0000      -0.340415        -9.2632
  64   2.0000      -0.330613        -8.9964
  65   2.0000      -0.326694        -8.8898
  66   2.0000      -0.291157        -7.9228
  67   0.0000       0.035783         0.9737
  68   0.0000       0.067878         1.8471
  69   0.0000       0.111443         3.0325
  70   0.0000       0.127523         3.4701
  71   0.0000       0.134226         3.6525

MULLIKEN ATOMIC CHARGES
-----------------------
   0 S :    0.109782
   1 C :   -0.099424
   2 C :   -0.085651
   3 C :   -0.007330
   4 C :   -0.162984
   5 H :    0.046901
   6 C :    0.074592
   7 H :    0.044995
   8 H :    0.010789
   9 C :   -0.053681
  10 H :    0.036069
  11 H :    0.029582
  12 C :   -0.065641
  13 H :    0.040243
  14 H :    0.039343
  15 H :    0.013482
  16 S :    0.130732
  17 C :   -0.076255
  18 C :   -0.038047
  19 C :   -0.035328
  20 C :   -0.166852
  21 H :   -0.002562
  22 C :    0.107944
  23 H :    0.014740
  24 H :    0.020319
  25 C :   -0.096557
  26 H :    0.025038
  27 H :    0.025608
  28 C :    0.013569
  29 H :    0.020696
  30 H :    0.017894
  31 H :    0.009856
  32 H :    0.011454
  33 H :    0.046684
Sum of atomic charges:    0.0000000

LOEWDIN ATOMIC CHARGES
----------------------
   0 S :    0.391126
   1 C :   -0.170409
   2 C :   -0.054007
   3 C :   -0.068979
   4 C :   -0.206719
   5 H :    0.044092
   6 C :   -0.026481
   7 H :    0.037341
   8 H :    0.024145
   9 C :   -0.039701
  10 H :    0.029480
  11 H :    0.023199
  12 C :   -0.068193
  13 H :    0.037786
  14 H :    0.029085
  15 H :    0.010873
  16 S :    0.443575
  17 C :   -0.204001
  18 C :   -0.068806
  19 C :   -0.052777
  20 C :   -0.212121
  21 H :    0.020000
  22 C :   -0.030245
  23 H :    0.033172
  24 H :    0.031120
  25 C :   -0.038209
  26 H :    0.018088
  27 H :    0.023347
  28 C :   -0.051708
  29 H :    0.019083
  30 H :    0.021594
  31 H :    0.023249
  32 H :    0.006449
  33 H :    0.025550

  Mayer bond orders larger than 0.100000
B(  0-S ,  1-C ) :   1.1228 B(  0-S ,  4-C ) :   1.1449 B(  1-C ,  2-C ) :   1.6191
B(  1-C , 32-H ) :   0.9770 B(  2-C ,  3-C ) :   1.2316 B(  2-C ,  6-C ) :   1.0157
B(  3-C ,  4-C ) :   1.6014 B(  3-C ,  5-H ) :   0.9711 B(  4-C , 20-C ) :   1.0303
B(  6-C ,  7-H ) :   0.9373 B(  6-C ,  8-H ) :   0.9432 B(  6-C ,  9-C ) :   1.0739
B(  9-C , 10-H ) :   0.9551 B(  9-C , 11-H ) :   0.9634 B(  9-C , 12-C ) :   1.0543
B( 12-C , 13-H ) :   0.9772 B( 12-C , 14-H ) :   0.9799 B( 12-C , 15-H ) :   0.9761
B( 16-S , 17-C ) :   1.1810 B( 16-S , 20-C ) :   1.1712 B( 17-C , 18-C ) :   1.5486
B( 17-C , 20-C ) :   0.1016 B( 17-C , 33-H ) :   0.9677 B( 18-C , 19-C ) :   1.2955
B( 18-C , 21-H ) :   0.9919 B( 19-C , 20-C ) :   1.5524 B( 19-C , 22-C ) :   1.0341
B( 22-C , 23-H ) :   0.9141 B( 22-C , 24-H ) :   0.9179 B( 22-C , 25-C ) :   1.1074
B( 25-C , 26-H ) :   0.9372 B( 25-C , 27-H ) :   0.9486 B( 25-C , 28-C ) :   1.0996
B( 28-C , 29-H ) :   0.9705 B( 28-C , 30-H ) :   0.9671 B( 28-C , 31-H ) :   0.9695

Dispersion correction           -0.013579435
FINAL SINGLE POINT ENERGY     -1339.871268961312

DIPOLE MOMENT
-------------
                                X             Y             Z
Electronic contribution:     19.34027      13.36784      -2.00679
Nuclear contribution   :    -19.86914     -13.76652       2.01034
                        -----------------------------------------
Total Dipole Moment    :     -0.52887      -0.39868       0.00355
                        -----------------------------------------
Magnitude (a.u.)       :      0.66232
Magnitude (Debye)      :      1.68348

Rotational constants in cm-1:     0.018130     0.007941     0.006762
Rotational constants in MHz :   543.532199   238.053517   202.707985

                             ****ORCA TERMINATED NORMALLY****
TOTAL RUN TIME: 0 days 0 hours 0 minutes 34 seconds 388 msec
