                         Program Version 4.2.1 -  RELEASE  -
|  1> ! wB97X-D3 SP def2-SVP
|  2> %pal
|  3> nprocs 16
|  4> end
|  5>
|  6> * xyz 0 1
|  7> S 	 -39.0738 	 57.7665 	 106.74
|  8> C 	 -40.4558 	 57.6446 	 107.77
|  9> C 	 -41.2058 	 56.5422 	 107.424
| 10> C 	 -40.7109 	 55.95 	 106.236
| 11> C 	 -39.5257 	 56.3917 	 105.737
| 12> H 	 -41.0932 	 55.1217 	 105.681
| 13> C 	 -42.4919 	 56.1176 	 108.076
| 14> H 	 -42.473 	 56.3004 	 109.241
| 15> H 	 -42.5517 	 55.0813 	 107.963
| 16> C 	 -43.7884 	 56.686 	 107.498
| 17> H 	 -43.9028 	 56.4254 	 106.425
| 18> H 	 -44.4688 	 56.0797 	 108.095
| 19> C 	 -43.9385 	 58.1741 	 107.656
| 20> H 	 -43.957 	 58.446 	 108.701
| 21> H 	 -43.0359 	 58.7131 	 107.183
| 22> H 	 -44.9222 	 58.4808 	 107.22
| 23> S 	 -38.9209 	 57.1488 	 103.153
| 24> C 	 -38.0422 	 56.0388 	 102.133
| 25> C 	 -37.9896 	 54.7481 	 102.693
| 26> C 	 -38.4424 	 54.7287 	 104.04
| 27> C 	 -38.895 	 55.996 	 104.443
| 28> H 	 -37.5992 	 53.9509 	 102.044
| 29> C 	 -38.4065 	 53.4636 	 104.841
| 30> H 	 -39.2352 	 52.8144 	 104.398
| 31> H 	 -38.7661 	 53.8844 	 105.818
| 32> C 	 -36.9952 	 52.9073 	 105.147
| 33> H 	 -36.3043 	 53.648 	 105.451
| 34> H 	 -36.6503 	 52.7147 	 104.186
| 35> C 	 -37.0149 	 51.7914 	 106.162
| 36> H 	 -37.5494 	 52.2233 	 106.971
| 37> H 	 -36.0154 	 51.618 	 106.487
| 38> H 	 -37.4681 	 50.875 	 105.816
| 39> H 	 -40.6898 	 58.2877 	 108.68
| 40> H 	 -37.7938 	 56.2885 	 101.082
| 41> *
| 42>
| 43>                          ****END OF INPUT****

CARTESIAN COORDINATES (ANGSTROEM)
---------------------------------
  S    -39.073800   57.766500  106.740000
  C    -40.455800   57.644600  107.770000
  C    -41.205800   56.542200  107.424000
  C    -40.710900   55.950000  106.236000
  C    -39.525700   56.391700  105.737000
  H    -41.093200   55.121700  105.681000
  C    -42.491900   56.117600  108.076000
  H    -42.473000   56.300400  109.241000
  H    -42.551700   55.081300  107.963000
  C    -43.788400   56.686000  107.498000
  H    -43.902800   56.425400  106.425000
  H    -44.468800   56.079700  108.095000
  C    -43.938500   58.174100  107.656000
  H    -43.957000   58.446000  108.701000
  H    -43.035900   58.713100  107.183000
  H    -44.922200   58.480800  107.220000
  S    -38.920900   57.148800  103.153000
  C    -38.042200   56.038800  102.133000
  C    -37.989600   54.748100  102.693000
  C    -38.442400   54.728700  104.040000
  C    -38.895000   55.996000  104.443000
  H    -37.599200   53.950900  102.044000
  C    -38.406500   53.463600  104.841000
  H    -39.235200   52.814400  104.398000
  H    -38.766100   53.884400  105.818000
  C    -36.995200   52.907300  105.147000
  H    -36.304300   53.648000  105.451000
  H    -36.650300   52.714700  104.186000
  C    -37.014900   51.791400  106.162000
  H    -37.549400   52.223300  106.971000
  H    -36.015400   51.618000  106.487000
  H    -37.468100   50.875000  105.816000
  H    -40.689800   58.287700  108.680000
  H    -37.793800   56.288500  101.082000

 Total Charge           Charge          ....    0
 Multiplicity           Mult            ....    1
 Number of Electrons    NEL             ....  134
 Basis Dimension        Dim             ....  322

ORBITAL ENERGIES
----------------

  NO   OCC          E(Eh)            E(eV)
   0   2.0000     -88.967933     -2420.9405
   1   2.0000     -88.962472     -2420.7919
   2   2.0000     -10.329224      -281.0725
   3   2.0000     -10.326773      -281.0058
   4   2.0000     -10.320708      -280.8407
   5   2.0000     -10.318434      -280.7789
   6   2.0000     -10.304243      -280.3927
   7   2.0000     -10.296923      -280.1935
   8   2.0000     -10.296826      -280.1909
   9   2.0000     -10.295030      -280.1420
  10   2.0000     -10.293206      -280.0924
  11   2.0000     -10.287162      -279.9279
  12   2.0000     -10.285869      -279.8927
  13   2.0000     -10.281484      -279.7734
  14   2.0000     -10.276314      -279.6327
  15   2.0000     -10.270088      -279.4633
  16   2.0000      -8.082966      -219.9487
  17   2.0000      -8.077379      -219.7967
  18   2.0000      -6.041295      -164.3920
  19   2.0000      -6.037441      -164.2871
  20   2.0000      -6.035838      -164.2435
  21   2.0000      -6.033901      -164.1908
  22   2.0000      -6.031720      -164.1314
  23   2.0000      -6.028295      -164.0383
  24   2.0000      -1.008137       -27.4328
  25   2.0000      -0.987860       -26.8810
  26   2.0000      -0.914683       -24.8898
  27   2.0000      -0.913180       -24.8489
  28   2.0000      -0.866714       -23.5845
  29   2.0000      -0.857842       -23.3431
  30   2.0000      -0.845329       -23.0026
  31   2.0000      -0.813441       -22.1348
  32   2.0000      -0.782422       -21.2908
  33   2.0000      -0.772153       -21.0114
  34   2.0000      -0.710273       -19.3275
  35   2.0000      -0.695087       -18.9143
  36   2.0000      -0.688071       -18.7234
  37   2.0000      -0.656314       -17.8592
  38   2.0000      -0.641529       -17.4569
  39   2.0000      -0.617020       -16.7900
  40   2.0000      -0.591561       -16.0972
  41   2.0000      -0.573491       -15.6055
  42   2.0000      -0.566984       -15.4284
  43   2.0000      -0.547925       -14.9098
  44   2.0000      -0.538059       -14.6413
  45   2.0000      -0.530592       -14.4381
  46   2.0000      -0.521907       -14.2018
  47   2.0000      -0.515981       -14.0406
  48   2.0000      -0.502076       -13.6622
  49   2.0000      -0.495907       -13.4943
  50   2.0000      -0.484893       -13.1946
  51   2.0000      -0.480552       -13.0765
  52   2.0000      -0.468805       -12.7568
  53   2.0000      -0.465278       -12.6609
  54   2.0000      -0.461803       -12.5663
  55   2.0000      -0.445505       -12.1228
  56   2.0000      -0.443668       -12.0728
  57   2.0000      -0.436402       -11.8751
  58   2.0000      -0.431856       -11.7514
  59   2.0000      -0.427538       -11.6339
  60   2.0000      -0.421200       -11.4614
  61   2.0000      -0.409729       -11.1493
  62   2.0000      -0.405287       -11.0284
  63   2.0000      -0.342424        -9.3178
  64   2.0000      -0.331539        -9.0216
  65   2.0000      -0.324576        -8.8322
  66   2.0000      -0.299973        -8.1627
  67   0.0000       0.034883         0.9492
  68   0.0000       0.066026         1.7967
  69   0.0000       0.111514         3.0345
  70   0.0000       0.124394         3.3849
  71   0.0000       0.140334         3.8187

MULLIKEN ATOMIC CHARGES
-----------------------
   0 S :    0.103380
   1 C :   -0.144075
   2 C :   -0.075959
   3 C :    0.047823
   4 C :   -0.184858
   5 H :   -0.003504
   6 C :    0.034363
   7 H :    0.038688
   8 H :    0.010201
   9 C :   -0.056999
  10 H :    0.033788
  11 H :    0.028588
  12 C :   -0.067620
  13 H :    0.018538
  14 H :    0.059944
  15 H :    0.044540
  16 S :    0.127550
  17 C :   -0.118602
  18 C :   -0.052596
  19 C :   -0.046395
  20 C :   -0.158912
  21 H :    0.034857
  22 C :    0.016989
  23 H :    0.061932
  24 H :    0.025011
  25 C :   -0.036472
  26 H :    0.020632
  27 H :   -0.003644
  28 C :    0.021753
  29 H :    0.019280
  30 H :    0.024621
  31 H :    0.032068
  32 H :    0.076471
  33 H :    0.068622
Sum of atomic charges:    0.0000000

LOEWDIN ATOMIC CHARGES
----------------------
   0 S :    0.405692
   1 C :   -0.209709
   2 C :   -0.078247
   3 C :   -0.060171
   4 C :   -0.202998
   5 H :    0.026312
   6 C :   -0.036113
   7 H :    0.039772
   8 H :    0.022035
   9 C :   -0.042420
  10 H :    0.027462
  11 H :    0.025958
  12 C :   -0.074773
  13 H :    0.018493
  14 H :    0.039076
  15 H :    0.032175
  16 S :    0.426265
  17 C :   -0.193318
  18 C :   -0.076510
  19 C :   -0.057632
  20 C :   -0.211145
  21 H :    0.037177
  22 C :   -0.043341
  23 H :    0.045518
  24 H :    0.031550
  25 C :   -0.033024
  26 H :    0.027766
  27 H :    0.009466
  28 C :   -0.049866
  29 H :    0.024815
  30 H :    0.024762
  31 H :    0.025136
  32 H :    0.047359
  33 H :    0.032478

  Mayer bond orders larger than 0.100000
B(  0-S ,  1-C ) :   1.1607 B(  0-S ,  4-C ) :   1.1407 B(  1-C ,  2-C ) :   1.5824
B(  1-C , 32-H ) :   0.9579 B(  2-C ,  3-C ) :   1.2412 B(  2-C ,  6-C ) :   1.0330
B(  3-C ,  4-C ) :   1.5895 B(  3-C ,  5-H ) :   0.9954 B(  4-C , 20-C ) :   1.0057
B(  6-C ,  7-H ) :   0.9428 B(  6-C ,  8-H ) :   0.9312 B(  6-C ,  9-C ) :   1.0737
B(  9-C , 10-H ) :   0.9524 B(  9-C , 11-H ) :   0.9537 B(  9-C , 12-C ) :   1.0804
B( 12-C , 13-H ) :   0.9732 B( 12-C , 14-H ) :   0.9685 B( 12-C , 15-H ) :   0.9719
B( 16-S , 17-C ) :   1.1706 B( 16-S , 20-C ) :   1.1701 B( 17-C , 18-C ) :   1.5879
B( 17-C , 20-C ) :   0.1021 B( 17-C , 33-H ) :   0.9635 B( 18-C , 19-C ) :   1.2456
B( 18-C , 21-H ) :   0.9879 B( 19-C , 20-C ) :   1.5744 B( 19-C , 22-C ) :   1.0395
B( 22-C , 23-H ) :   0.9340 B( 22-C , 24-H ) :   0.9268 B( 22-C , 25-C ) :   1.0504
B( 25-C , 26-H ) :   0.9499 B( 25-C , 27-H ) :   0.9536 B( 25-C , 28-C ) :   1.0834
B( 28-C , 29-H ) :   0.9721 B( 28-C , 30-H ) :   0.9730 B( 28-C , 31-H ) :   0.9753

Dispersion correction           -0.014108589
FINAL SINGLE POINT ENERGY     -1339.864199165964

DIPOLE MOMENT
-------------
                                X             Y             Z
Electronic contribution:      9.65298      15.15054     -10.92080
Nuclear contribution   :     -9.96773     -15.69869      10.94176
                        -----------------------------------------
Total Dipole Moment    :     -0.31475      -0.54815       0.02096
                        -----------------------------------------
Magnitude (a.u.)       :      0.63243
Magnitude (Debye)      :      1.60752

Rotational constants in cm-1:     0.019150     0.007984     0.006704
Rotational constants in MHz :   574.088337   239.355487   200.983988

                             ****ORCA TERMINATED NORMALLY****
TOTAL RUN TIME: 0 days 0 hours 0 minutes 29 seconds 525 msec
