                         Program Version 4.2.1 -  RELEASE  -
|  1> ! wB97X-D3 SP def2-SVP
|  2> %pal
|  3> nprocs 16
|  4> end
|  5>
|  6> * xyz 0 1
|  7> S 	 -13.9022 	 -3.3459 	 77.4097
|  8> C 	 -12.4423 	 -2.42202 	 77.3713
|  9> C 	 -11.3285 	 -3.13464 	 77.861
| 10> C 	 -11.6914 	 -4.45805 	 78.2624
| 11> C 	 -13.021 	 -4.75696 	 77.9858
| 12> H 	 -11.0688 	 -5.24292 	 78.6233
| 13> C 	 -9.88882 	 -2.5551 	 77.9669
| 14> H 	 -9.8541 	 -2.3259 	 79.0314
| 15> H 	 -10.0129 	 -1.70152 	 77.3597
| 16> C 	 -8.79002 	 -3.49336 	 77.6114
| 17> H 	 -8.61975 	 -4.32487 	 78.3009
| 18> H 	 -8.91491 	 -4.01249 	 76.6163
| 19> C 	 -7.39373 	 -2.78823 	 77.5444
| 20> H 	 -7.28253 	 -2.20344 	 76.6189
| 21> H 	 -7.39245 	 -1.95994 	 78.2541
| 22> H 	 -6.53088 	 -3.48307 	 77.5936
| 23> S 	 -15.4157 	 -6.07629 	 78.6178
| 24> C 	 -15.4837 	 -7.77974 	 78.4817
| 25> C 	 -14.2641 	 -8.30175 	 78.1388
| 26> C 	 -13.2191 	 -7.35536 	 77.964
| 27> C 	 -13.6957 	 -6.04682 	 78.107
| 28> H 	 -14.2497 	 -9.33139 	 78.0864
| 29> C 	 -11.8143 	 -7.77898 	 77.5283
| 30> H 	 -11.3145 	 -6.85991 	 77.2005
| 31> H 	 -12.019 	 -8.31451 	 76.6053
| 32> C 	 -10.9578 	 -8.76379 	 78.3681
| 33> H 	 -10.1429 	 -9.25312 	 77.7752
| 34> H 	 -11.6195 	 -9.62795 	 78.5295
| 35> C 	 -10.459 	 -8.18769 	 79.7184
| 36> H 	 -10.0269 	 -8.88027 	 80.4396
| 37> H 	 -11.3074 	 -7.82634 	 80.3165
| 38> H 	 -9.90384 	 -7.28532 	 79.7632
| 39> H 	 -12.3924 	 -1.33493 	 76.9704
| 40> H 	 -16.3461 	 -8.3431 	 78.7319
| 41> *
| 42>
| 43>                          ****END OF INPUT****

CARTESIAN COORDINATES (ANGSTROEM)
---------------------------------
  S    -13.902200   -3.345900   77.409700
  C    -12.442300   -2.422020   77.371300
  C    -11.328500   -3.134640   77.861000
  C    -11.691400   -4.458050   78.262400
  C    -13.021000   -4.756960   77.985800
  H    -11.068800   -5.242920   78.623300
  C     -9.888820   -2.555100   77.966900
  H     -9.854100   -2.325900   79.031400
  H    -10.012900   -1.701520   77.359700
  C     -8.790020   -3.493360   77.611400
  H     -8.619750   -4.324870   78.300900
  H     -8.914910   -4.012490   76.616300
  C     -7.393730   -2.788230   77.544400
  H     -7.282530   -2.203440   76.618900
  H     -7.392450   -1.959940   78.254100
  H     -6.530880   -3.483070   77.593600
  S    -15.415700   -6.076290   78.617800
  C    -15.483700   -7.779740   78.481700
  C    -14.264100   -8.301750   78.138800
  C    -13.219100   -7.355360   77.964000
  C    -13.695700   -6.046820   78.107000
  H    -14.249700   -9.331390   78.086400
  C    -11.814300   -7.778980   77.528300
  H    -11.314500   -6.859910   77.200500
  H    -12.019000   -8.314510   76.605300
  C    -10.957800   -8.763790   78.368100
  H    -10.142900   -9.253120   77.775200
  H    -11.619500   -9.627950   78.529500
  C    -10.459000   -8.187690   79.718400
  H    -10.026900   -8.880270   80.439600
  H    -11.307400   -7.826340   80.316500
  H     -9.903840   -7.285320   79.763200
  H    -12.392400   -1.334930   76.970400
  H    -16.346100   -8.343100   78.731900

 Total Charge           Charge          ....    0
 Multiplicity           Mult            ....    1
 Number of Electrons    NEL             ....  134
 Basis Dimension        Dim             ....  322

ORBITAL ENERGIES
----------------

  NO   OCC          E(Eh)            E(eV)
   0   2.0000     -88.967710     -2420.9345
   1   2.0000     -88.963840     -2420.8292
   2   2.0000     -10.331109      -281.1238
   3   2.0000     -10.330493      -281.1070
   4   2.0000     -10.320097      -280.8241
   5   2.0000     -10.311366      -280.5865
   6   2.0000     -10.307915      -280.4926
   7   2.0000     -10.305608      -280.4299
   8   2.0000     -10.301539      -280.3191
   9   2.0000     -10.295471      -280.1540
  10   2.0000     -10.293450      -280.0990
  11   2.0000     -10.292705      -280.0787
  12   2.0000     -10.292481      -280.0726
  13   2.0000     -10.285609      -279.8857
  14   2.0000     -10.282629      -279.8046
  15   2.0000     -10.277148      -279.6554
  16   2.0000      -8.082489      -219.9357
  17   2.0000      -8.078805      -219.8354
  18   2.0000      -6.040946      -164.3825
  19   2.0000      -6.037265      -164.2823
  20   2.0000      -6.037050      -164.2765
  21   2.0000      -6.033312      -164.1748
  22   2.0000      -6.033246      -164.1730
  23   2.0000      -6.029593      -164.0736
  24   2.0000      -1.004933       -27.3456
  25   2.0000      -0.983594       -26.7650
  26   2.0000      -0.913896       -24.8684
  27   2.0000      -0.905895       -24.6507
  28   2.0000      -0.868027       -23.6202
  29   2.0000      -0.852454       -23.1965
  30   2.0000      -0.845024       -22.9943
  31   2.0000      -0.814818       -22.1723
  32   2.0000      -0.788552       -21.4576
  33   2.0000      -0.772263       -21.0143
  34   2.0000      -0.716745       -19.5036
  35   2.0000      -0.704773       -19.1779
  36   2.0000      -0.689130       -18.7522
  37   2.0000      -0.659629       -17.9494
  38   2.0000      -0.637127       -17.3371
  39   2.0000      -0.621293       -16.9062
  40   2.0000      -0.594152       -16.1677
  41   2.0000      -0.573831       -15.6147
  42   2.0000      -0.563233       -15.3264
  43   2.0000      -0.549795       -14.9607
  44   2.0000      -0.539548       -14.6819
  45   2.0000      -0.527297       -14.3485
  46   2.0000      -0.521849       -14.2002
  47   2.0000      -0.509312       -13.8591
  48   2.0000      -0.500402       -13.6166
  49   2.0000      -0.495287       -13.4774
  50   2.0000      -0.487912       -13.2768
  51   2.0000      -0.482203       -13.1214
  52   2.0000      -0.472808       -12.8658
  53   2.0000      -0.464652       -12.6438
  54   2.0000      -0.462822       -12.5940
  55   2.0000      -0.453963       -12.3529
  56   2.0000      -0.446601       -12.1526
  57   2.0000      -0.440325       -11.9819
  58   2.0000      -0.438124       -11.9220
  59   2.0000      -0.423862       -11.5339
  60   2.0000      -0.418273       -11.3818
  61   2.0000      -0.412624       -11.2281
  62   2.0000      -0.410593       -11.1728
  63   2.0000      -0.354891        -9.6571
  64   2.0000      -0.332550        -9.0491
  65   2.0000      -0.330261        -8.9868
  66   2.0000      -0.281823        -7.6688
  67   0.0000       0.024621         0.6700
  68   0.0000       0.078245         2.1291
  69   0.0000       0.107718         2.9312
  70   0.0000       0.120888         3.2895
  71   0.0000       0.132075         3.5939

MULLIKEN ATOMIC CHARGES
-----------------------
   0 S :    0.118211
   1 C :   -0.163947
   2 C :   -0.131310
   3 C :    0.038299
   4 C :   -0.148213
   5 H :   -0.013618
   6 C :    0.145396
   7 H :    0.047686
   8 H :    0.009525
   9 C :   -0.117799
  10 H :    0.035152
  11 H :    0.041850
  12 C :   -0.055280
  13 H :    0.025423
  14 H :    0.022080
  15 H :    0.046849
  16 S :    0.096113
  17 C :   -0.079484
  18 C :   -0.019877
  19 C :   -0.020954
  20 C :   -0.146025
  21 H :   -0.013877
  22 C :    0.040160
  23 H :    0.026730
  24 H :    0.032408
  25 C :   -0.035638
  26 H :    0.040383
  27 H :    0.024186
  28 C :   -0.056521
  29 H :    0.033608
  30 H :    0.023734
  31 H :    0.026192
  32 H :    0.080612
  33 H :    0.047942
Sum of atomic charges:   -0.0000000

LOEWDIN ATOMIC CHARGES
----------------------
   0 S :    0.412153
   1 C :   -0.231887
   2 C :   -0.058467
   3 C :   -0.065952
   4 C :   -0.183477
   5 H :    0.024755
   6 C :   -0.025174
   7 H :    0.042433
   8 H :    0.026501
   9 C :   -0.051022
  10 H :    0.025102
  11 H :    0.031379
  12 C :   -0.070256
  13 H :    0.024455
  14 H :    0.022980
  15 H :    0.030187
  16 S :    0.397040
  17 C :   -0.184560
  18 C :   -0.068457
  19 C :   -0.053816
  20 C :   -0.185587
  21 H :    0.018085
  22 C :   -0.035616
  23 H :    0.029425
  24 H :    0.038499
  25 C :   -0.037839
  26 H :    0.032084
  27 H :    0.027639
  28 C :   -0.082756
  29 H :    0.029060
  30 H :    0.033038
  31 H :    0.019076
  32 H :    0.046326
  33 H :    0.024650

  Mayer bond orders larger than 0.100000
B(  0-S ,  1-C ) :   1.1418 B(  0-S ,  4-C ) :   1.1582 B(  1-C ,  2-C ) :   1.6090
B(  1-C , 32-H ) :   0.9520 B(  2-C ,  3-C ) :   1.2408 B(  2-C ,  6-C ) :   0.9998
B(  3-C ,  4-C ) :   1.5601 B(  3-C ,  5-H ) :   0.9949 B(  4-C , 20-C ) :   1.0617
B(  6-C ,  7-H ) :   0.9219 B(  6-C ,  8-H ) :   0.9418 B(  6-C ,  9-C ) :   1.0813
B(  9-C , 10-H ) :   0.9490 B(  9-C , 11-H ) :   0.9614 B(  9-C , 12-C ) :   1.0742
B( 12-C , 13-H ) :   0.9760 B( 12-C , 14-H ) :   0.9723 B( 12-C , 15-H ) :   0.9769
B( 16-S , 17-C ) :   1.1561 B( 16-S , 20-C ) :   1.1378 B( 17-C , 18-C ) :   1.6121
B( 17-C , 33-H ) :   0.9709 B( 18-C , 19-C ) :   1.2241 B( 18-C , 21-H ) :   1.0063
B( 19-C , 20-C ) :   1.5787 B( 19-C , 22-C ) :   1.0272 B( 22-C , 23-H ) :   0.9381
B( 22-C , 24-H ) :   0.9299 B( 22-C , 25-C ) :   1.0711 B( 25-C , 26-H ) :   0.9567
B( 25-C , 27-H ) :   0.9504 B( 25-C , 28-C ) :   1.0634 B( 28-C , 29-H ) :   0.9743
B( 28-C , 30-H ) :   0.9692 B( 28-C , 31-H ) :   0.9744

Dispersion correction           -0.014390295
FINAL SINGLE POINT ENERGY     -1339.872296522714

DIPOLE MOMENT
-------------
                                X             Y             Z
Electronic contribution:    -31.67085       5.34330      -1.65135
Nuclear contribution   :     32.24881      -5.66329       1.65756
                        -----------------------------------------
Total Dipole Moment    :      0.57796      -0.31999       0.00621
                        -----------------------------------------
Magnitude (a.u.)       :      0.66066
Magnitude (Debye)      :      1.67927

Rotational constants in cm-1:     0.017895     0.009353     0.006448
Rotational constants in MHz :   536.466260   280.398190   193.295045

                             ****ORCA TERMINATED NORMALLY****
TOTAL RUN TIME: 0 days 0 hours 0 minutes 32 seconds 294 msec
