                         Program Version 4.2.1 -  RELEASE  -
|  1> ! wB97X-D3 SP def2-SVP
|  2> %pal
|  3> nprocs 16
|  4> end
|  5>
|  6> * xyz 0 1
|  7> S 	 17.0453 	 19.3689 	 36.7488
|  8> C 	 17.6437 	 19.9086 	 35.2245
|  9> C 	 16.6198 	 20.6994 	 34.5905
| 10> C 	 15.5096 	 20.9577 	 35.4871
| 11> C 	 15.5197 	 20.2423 	 36.6218
| 12> H 	 14.6278 	 21.6119 	 35.314
| 13> C 	 16.7146 	 21.2545 	 33.2034
| 14> H 	 16.0403 	 20.6959 	 32.6047
| 15> H 	 17.7348 	 21.0351 	 32.8285
| 16> C 	 16.463 	 22.7957 	 32.961
| 17> H 	 16.5321 	 22.9252 	 31.8674
| 18> H 	 15.5051 	 23.059 	 33.246
| 19> C 	 17.5636 	 23.7418 	 33.5783
| 20> H 	 18.5052 	 23.3746 	 33.2727
| 21> H 	 17.427 	 24.7753 	 33.2644
| 22> H 	 17.4533 	 23.7323 	 34.6553
| 23> S 	 15.2483 	 20.536 	 39.3838
| 24> C 	 13.7411 	 20.9823 	 40.1106
| 25> C 	 12.7402 	 20.9413 	 39.2101
| 26> C 	 13.1749 	 20.5548 	 37.888
| 27> C 	 14.5588 	 20.4171 	 37.7513
| 28> H 	 11.7004 	 21.1367 	 39.4987
| 29> C 	 12.1654 	 20.4114 	 36.8351
| 30> H 	 12.7834 	 20.3213 	 35.9073
| 31> H 	 11.5723 	 21.4028 	 36.817
| 32> C 	 11.1513 	 19.1946 	 36.951
| 33> H 	 11.6676 	 18.1876 	 37.1268
| 34> H 	 10.5654 	 19.1079 	 36.0406
| 35> C 	 10.0439 	 19.403 	 38.1016
| 36> H 	 9.51236 	 20.3554 	 37.9465
| 37> H 	 10.3632 	 19.3299 	 39.0933
| 38> H 	 9.25428 	 18.6065 	 37.9864
| 39> H 	 18.4756 	 19.4496 	 34.7204
| 40> H 	 13.5999 	 21.1906 	 41.1665
| 41> *
| 42>
| 43>                          ****END OF INPUT****

CARTESIAN COORDINATES (ANGSTROEM)
---------------------------------
  S     17.045300   19.368900   36.748800
  C     17.643700   19.908600   35.224500
  C     16.619800   20.699400   34.590500
  C     15.509600   20.957700   35.487100
  C     15.519700   20.242300   36.621800
  H     14.627800   21.611900   35.314000
  C     16.714600   21.254500   33.203400
  H     16.040300   20.695900   32.604700
  H     17.734800   21.035100   32.828500
  C     16.463000   22.795700   32.961000
  H     16.532100   22.925200   31.867400
  H     15.505100   23.059000   33.246000
  C     17.563600   23.741800   33.578300
  H     18.505200   23.374600   33.272700
  H     17.427000   24.775300   33.264400
  H     17.453300   23.732300   34.655300
  S     15.248300   20.536000   39.383800
  C     13.741100   20.982300   40.110600
  C     12.740200   20.941300   39.210100
  C     13.174900   20.554800   37.888000
  C     14.558800   20.417100   37.751300
  H     11.700400   21.136700   39.498700
  C     12.165400   20.411400   36.835100
  H     12.783400   20.321300   35.907300
  H     11.572300   21.402800   36.817000
  C     11.151300   19.194600   36.951000
  H     11.667600   18.187600   37.126800
  H     10.565400   19.107900   36.040600
  C     10.043900   19.403000   38.101600
  H      9.512360   20.355400   37.946500
  H     10.363200   19.329900   39.093300
  H      9.254280   18.606500   37.986400
  H     18.475600   19.449600   34.720400
  H     13.599900   21.190600   41.166500

 Total Charge           Charge          ....    0
 Multiplicity           Mult            ....    1
 Number of Electrons    NEL             ....  134
 Basis Dimension        Dim             ....  322

ORBITAL ENERGIES
----------------

  NO   OCC          E(Eh)            E(eV)
   0   2.0000     -88.965829     -2420.8833
   1   2.0000     -88.959989     -2420.7244
   2   2.0000     -10.334294      -281.2104
   3   2.0000     -10.333091      -281.1777
   4   2.0000     -10.319924      -280.8194
   5   2.0000     -10.314300      -280.6664
   6   2.0000     -10.310304      -280.5576
   7   2.0000     -10.303165      -280.3634
   8   2.0000     -10.303011      -280.3592
   9   2.0000     -10.300399      -280.2881
  10   2.0000     -10.296174      -280.1731
  11   2.0000     -10.292834      -280.0823
  12   2.0000     -10.290309      -280.0135
  13   2.0000     -10.287976      -279.9500
  14   2.0000     -10.283606      -279.8311
  15   2.0000     -10.274037      -279.5708
  16   2.0000      -8.080741      -219.8881
  17   2.0000      -8.075061      -219.7336
  18   2.0000      -6.039340      -164.3388
  19   2.0000      -6.035059      -164.2223
  20   2.0000      -6.033740      -164.1864
  21   2.0000      -6.031540      -164.1265
  22   2.0000      -6.029458      -164.0699
  23   2.0000      -6.025671      -163.9668
  24   2.0000      -1.006608       -27.3912
  25   2.0000      -0.986163       -26.8349
  26   2.0000      -0.905109       -24.6293
  27   2.0000      -0.900809       -24.5123
  28   2.0000      -0.870865       -23.6975
  29   2.0000      -0.846300       -23.0290
  30   2.0000      -0.839838       -22.8532
  31   2.0000      -0.821860       -22.3639
  32   2.0000      -0.779519       -21.2118
  33   2.0000      -0.769088       -20.9279
  34   2.0000      -0.711216       -19.3532
  35   2.0000      -0.701402       -19.0861
  36   2.0000      -0.692006       -18.8304
  37   2.0000      -0.658539       -17.9197
  38   2.0000      -0.643058       -17.4985
  39   2.0000      -0.619921       -16.8689
  40   2.0000      -0.587493       -15.9865
  41   2.0000      -0.568032       -15.4569
  42   2.0000      -0.554019       -15.0756
  43   2.0000      -0.550820       -14.9886
  44   2.0000      -0.536928       -14.6105
  45   2.0000      -0.532586       -14.4924
  46   2.0000      -0.519488       -14.1360
  47   2.0000      -0.515231       -14.0201
  48   2.0000      -0.505333       -13.7508
  49   2.0000      -0.495140       -13.4735
  50   2.0000      -0.483960       -13.1692
  51   2.0000      -0.479413       -13.0455
  52   2.0000      -0.473103       -12.8738
  53   2.0000      -0.469068       -12.7640
  54   2.0000      -0.461867       -12.5680
  55   2.0000      -0.444188       -12.0870
  56   2.0000      -0.438363       -11.9285
  57   2.0000      -0.436052       -11.8656
  58   2.0000      -0.433159       -11.7868
  59   2.0000      -0.431786       -11.7495
  60   2.0000      -0.417696       -11.3661
  61   2.0000      -0.417458       -11.3596
  62   2.0000      -0.409811       -11.1515
  63   2.0000      -0.359982        -9.7956
  64   2.0000      -0.328496        -8.9388
  65   2.0000      -0.322131        -8.7656
  66   2.0000      -0.291626        -7.9356
  67   0.0000       0.029208         0.7948
  68   0.0000       0.074052         2.0151
  69   0.0000       0.113191         3.0801
  70   0.0000       0.116873         3.1803
  71   0.0000       0.134803         3.6682

MULLIKEN ATOMIC CHARGES
-----------------------
   0 S :    0.101088
   1 C :   -0.106479
   2 C :   -0.114423
   3 C :   -0.004533
   4 C :   -0.117280
   5 H :    0.036685
   6 C :    0.065349
   7 H :    0.033889
   8 H :    0.013537
   9 C :   -0.072949
  10 H :    0.030385
  11 H :    0.014723
  12 C :   -0.032394
  13 H :    0.021116
  14 H :    0.035184
  15 H :    0.041534
  16 S :    0.084848
  17 C :   -0.078299
  18 C :   -0.032874
  19 C :   -0.055622
  20 C :   -0.134991
  21 H :    0.024907
  22 C :    0.008538
  23 H :    0.026160
  24 H :    0.047692
  25 C :   -0.065382
  26 H :    0.053269
  27 H :    0.037966
  28 C :   -0.087936
  29 H :    0.031371
  30 H :    0.037719
  31 H :    0.037516
  32 H :    0.060933
  33 H :    0.058755
Sum of atomic charges:   -0.0000000

LOEWDIN ATOMIC CHARGES
----------------------
   0 S :    0.408231
   1 C :   -0.208172
   2 C :   -0.057717
   3 C :   -0.072651
   4 C :   -0.189611
   5 H :    0.039315
   6 C :   -0.033479
   7 H :    0.029745
   8 H :    0.030598
   9 C :   -0.028354
  10 H :    0.027625
  11 H :    0.007405
  12 C :   -0.055603
  13 H :    0.017853
  14 H :    0.026985
  15 H :    0.026929
  16 S :    0.393153
  17 C :   -0.182871
  18 C :   -0.077504
  19 C :   -0.065896
  20 C :   -0.185065
  21 H :    0.035315
  22 C :   -0.047096
  23 H :    0.032250
  24 H :    0.041508
  25 C :   -0.033688
  26 H :    0.036241
  27 H :    0.025020
  28 C :   -0.073106
  29 H :    0.024218
  30 H :    0.012245
  31 H :    0.032652
  32 H :    0.029773
  33 H :    0.033751

  Mayer bond orders larger than 0.100000
B(  0-S ,  1-C ) :   1.1490 B(  0-S ,  4-C ) :   1.1460 B(  1-C ,  2-C ) :   1.5792
B(  1-C , 32-H ) :   0.9678 B(  2-C ,  3-C ) :   1.2303 B(  2-C ,  6-C ) :   1.0370
B(  3-C ,  4-C ) :   1.6016 B(  3-C ,  5-H ) :   0.9801 B(  4-C , 20-C ) :   1.0194
B(  6-C ,  7-H ) :   0.9325 B(  6-C ,  8-H ) :   0.9415 B(  6-C ,  9-C ) :   1.0723
B(  9-C , 10-H ) :   0.9571 B(  9-C , 11-H ) :   0.9593 B(  9-C , 12-C ) :   1.0681
B( 12-C , 13-H ) :   0.9774 B( 12-C , 14-H ) :   0.9768 B( 12-C , 15-H ) :   0.9790
B( 16-S , 17-C ) :   1.1542 B( 16-S , 20-C ) :   1.1224 B( 17-C , 18-C ) :   1.6195
B( 17-C , 33-H ) :   0.9646 B( 18-C , 19-C ) :   1.2279 B( 18-C , 21-H ) :   0.9853
B( 19-C , 20-C ) :   1.6052 B( 19-C , 22-C ) :   1.0537 B( 22-C , 23-H ) :   0.9305
B( 22-C , 24-H ) :   0.9382 B( 22-C , 25-C ) :   1.0592 B( 25-C , 26-H ) :   0.9570
B( 25-C , 27-H ) :   0.9598 B( 25-C , 28-C ) :   1.0661 B( 28-C , 29-H ) :   0.9758
B( 28-C , 30-H ) :   0.9754 B( 28-C , 31-H ) :   0.9736

Dispersion correction           -0.013929137
FINAL SINGLE POINT ENERGY     -1339.873868998180

DIPOLE MOMENT
-------------
                                X             Y             Z
Electronic contribution:     13.84249      -8.38635      16.24861
Nuclear contribution   :    -14.36865       8.58899     -16.70946
                        -----------------------------------------
Total Dipole Moment    :     -0.52616       0.20264      -0.46084
                        -----------------------------------------
Magnitude (a.u.)       :      0.72821
Magnitude (Debye)      :      1.85096

Rotational constants in cm-1:     0.020209     0.007608     0.006606
Rotational constants in MHz :   605.851634   228.084057   198.039803

                             ****ORCA TERMINATED NORMALLY****
TOTAL RUN TIME: 0 days 0 hours 0 minutes 34 seconds 916 msec
