                         Program Version 4.2.1 -  RELEASE  -
|  1> ! wB97X-D3 SP def2-SVP
|  2> %pal
|  3> nprocs 16
|  4> end
|  5>
|  6> * xyz 0 1
|  7> S 	 5.89691 	 -20.3828 	 78.9554
|  8> C 	 6.47478 	 -21.2558 	 80.3248
|  9> C 	 7.69313 	 -20.7926 	 80.7888
| 10> C 	 8.21547 	 -19.7496 	 80.0249
| 11> C 	 7.41528 	 -19.3859 	 78.9635
| 12> H 	 9.09963 	 -19.2516 	 80.2448
| 13> C 	 8.39032 	 -21.2306 	 82.0218
| 14> H 	 9.44057 	 -21.0922 	 81.7985
| 15> H 	 8.26619 	 -22.2712 	 82.1843
| 16> C 	 7.9393 	 -20.5243 	 83.2782
| 17> H 	 8.27385 	 -19.4902 	 83.3065
| 18> H 	 6.91022 	 -20.584 	 83.4054
| 19> C 	 8.71145 	 -21.1117 	 84.4447
| 20> H 	 8.47459 	 -22.1963 	 84.5507
| 21> H 	 9.80556 	 -21.0398 	 84.3567
| 22> H 	 8.23737 	 -20.6107 	 85.2631
| 23> S 	 6.41631 	 -17.0351 	 78.0057
| 24> C 	 7.37321 	 -16.0513 	 76.9171
| 25> C 	 8.65713 	 -16.5378 	 76.7597
| 26> C 	 8.78698 	 -17.8363 	 77.4441
| 27> C 	 7.64035 	 -18.218 	 78.0974
| 28> H 	 9.51813 	 -16.1617 	 76.1848
| 29> C 	 10.0928 	 -18.561 	 77.2221
| 30> H 	 10.5431 	 -18.3376 	 76.2655
| 31> H 	 9.97596 	 -19.5919 	 77.0772
| 32> C 	 11.1135 	 -18.2515 	 78.3329
| 33> H 	 10.9126 	 -18.6981 	 79.2588
| 34> H 	 11.0611 	 -17.1633 	 78.6037
| 35> C 	 12.5472 	 -18.6266 	 77.9028
| 36> H 	 12.7403 	 -19.6369 	 78.3296
| 37> H 	 13.2087 	 -17.9641 	 78.4461
| 38> H 	 12.7902 	 -18.7011 	 76.8503
| 39> H 	 6.01493 	 -22.1014 	 80.83
| 40> H 	 7.07992 	 -15.0619 	 76.7876
| 41> *
| 42>
| 43>                          ****END OF INPUT****

CARTESIAN COORDINATES (ANGSTROEM)
---------------------------------
  S      5.896910  -20.382800   78.955400
  C      6.474780  -21.255800   80.324800
  C      7.693130  -20.792600   80.788800
  C      8.215470  -19.749600   80.024900
  C      7.415280  -19.385900   78.963500
  H      9.099630  -19.251600   80.244800
  C      8.390320  -21.230600   82.021800
  H      9.440570  -21.092200   81.798500
  H      8.266190  -22.271200   82.184300
  C      7.939300  -20.524300   83.278200
  H      8.273850  -19.490200   83.306500
  H      6.910220  -20.584000   83.405400
  C      8.711450  -21.111700   84.444700
  H      8.474590  -22.196300   84.550700
  H      9.805560  -21.039800   84.356700
  H      8.237370  -20.610700   85.263100
  S      6.416310  -17.035100   78.005700
  C      7.373210  -16.051300   76.917100
  C      8.657130  -16.537800   76.759700
  C      8.786980  -17.836300   77.444100
  C      7.640350  -18.218000   78.097400
  H      9.518130  -16.161700   76.184800
  C     10.092800  -18.561000   77.222100
  H     10.543100  -18.337600   76.265500
  H      9.975960  -19.591900   77.077200
  C     11.113500  -18.251500   78.332900
  H     10.912600  -18.698100   79.258800
  H     11.061100  -17.163300   78.603700
  C     12.547200  -18.626600   77.902800
  H     12.740300  -19.636900   78.329600
  H     13.208700  -17.964100   78.446100
  H     12.790200  -18.701100   76.850300
  H      6.014930  -22.101400   80.830000
  H      7.079920  -15.061900   76.787600

 Total Charge           Charge          ....    0
 Multiplicity           Mult            ....    1
 Number of Electrons    NEL             ....  134
 Basis Dimension        Dim             ....  322

ORBITAL ENERGIES
----------------

  NO   OCC          E(Eh)            E(eV)
   0   2.0000     -88.969276     -2420.9771
   1   2.0000     -88.962269     -2420.7864
   2   2.0000     -10.331753      -281.1413
   3   2.0000     -10.323012      -280.9034
   4   2.0000     -10.312827      -280.6263
   5   2.0000     -10.309982      -280.5489
   6   2.0000     -10.299616      -280.2668
   7   2.0000     -10.299467      -280.2627
   8   2.0000     -10.289225      -279.9840
   9   2.0000     -10.285752      -279.8895
  10   2.0000     -10.285253      -279.8760
  11   2.0000     -10.284702      -279.8610
  12   2.0000     -10.281119      -279.7635
  13   2.0000     -10.278771      -279.6996
  14   2.0000     -10.277923      -279.6765
  15   2.0000     -10.277404      -279.6624
  16   2.0000      -8.083088      -219.9520
  17   2.0000      -8.078212      -219.8193
  18   2.0000      -6.041658      -164.4019
  19   2.0000      -6.037731      -164.2950
  20   2.0000      -6.036683      -164.2665
  21   2.0000      -6.033840      -164.1891
  22   2.0000      -6.032511      -164.1530
  23   2.0000      -6.028986      -164.0571
  24   2.0000      -1.006761       -27.3954
  25   2.0000      -0.985551       -26.8182
  26   2.0000      -0.921202       -25.0672
  27   2.0000      -0.910368       -24.7724
  28   2.0000      -0.869271       -23.6541
  29   2.0000      -0.857560       -23.3354
  30   2.0000      -0.848760       -23.0959
  31   2.0000      -0.815741       -22.1974
  32   2.0000      -0.780401       -21.2358
  33   2.0000      -0.768140       -20.9022
  34   2.0000      -0.707124       -19.2418
  35   2.0000      -0.702536       -19.1170
  36   2.0000      -0.698354       -19.0032
  37   2.0000      -0.670451       -18.2439
  38   2.0000      -0.641565       -17.4579
  39   2.0000      -0.625573       -17.0227
  40   2.0000      -0.604709       -16.4550
  41   2.0000      -0.578710       -15.7475
  42   2.0000      -0.559977       -15.2378
  43   2.0000      -0.557701       -15.1758
  44   2.0000      -0.536212       -14.5911
  45   2.0000      -0.529411       -14.4060
  46   2.0000      -0.515575       -14.0295
  47   2.0000      -0.510780       -13.8990
  48   2.0000      -0.506524       -13.7832
  49   2.0000      -0.504216       -13.7204
  50   2.0000      -0.493104       -13.4180
  51   2.0000      -0.476215       -12.9585
  52   2.0000      -0.472578       -12.8595
  53   2.0000      -0.466141       -12.6843
  54   2.0000      -0.457140       -12.4394
  55   2.0000      -0.453892       -12.3510
  56   2.0000      -0.449550       -12.2329
  57   2.0000      -0.444313       -12.0904
  58   2.0000      -0.436828       -11.8867
  59   2.0000      -0.422307       -11.4916
  60   2.0000      -0.416552       -11.3349
  61   2.0000      -0.415593       -11.3089
  62   2.0000      -0.409269       -11.1368
  63   2.0000      -0.352956        -9.6044
  64   2.0000      -0.331036        -9.0080
  65   2.0000      -0.326493        -8.8843
  66   2.0000      -0.289438        -7.8760
  67   0.0000       0.032860         0.8942
  68   0.0000       0.069161         1.8820
  69   0.0000       0.110558         3.0084
  70   0.0000       0.121613         3.3092
  71   0.0000       0.126608         3.4452

MULLIKEN ATOMIC CHARGES
-----------------------
   0 S :    0.116104
   1 C :   -0.108690
   2 C :   -0.088497
   3 C :    0.064929
   4 C :   -0.146669
   5 H :   -0.029583
   6 C :    0.070966
   7 H :    0.012641
   8 H :    0.003114
   9 C :   -0.038693
  10 H :    0.024806
  11 H :    0.018009
  12 C :   -0.039483
  13 H :    0.021901
  14 H :    0.040333
  15 H :    0.029851
  16 S :    0.100617
  17 C :   -0.063372
  18 C :   -0.023939
  19 C :   -0.076122
  20 C :   -0.138283
  21 H :    0.033677
  22 C :    0.097412
  23 H :    0.007328
  24 H :    0.013095
  25 C :   -0.086978
  26 H :    0.015810
  27 H :    0.029284
  28 C :   -0.042204
  29 H :    0.028724
  30 H :    0.030930
  31 H :    0.037933
  32 H :    0.039909
  33 H :    0.045141
Sum of atomic charges:   -0.0000000

LOEWDIN ATOMIC CHARGES
----------------------
   0 S :    0.392846
   1 C :   -0.207881
   2 C :   -0.067312
   3 C :   -0.047571
   4 C :   -0.170393
   5 H :    0.018829
   6 C :   -0.031616
   7 H :    0.029301
   8 H :    0.023262
   9 C :   -0.027916
  10 H :    0.026776
  11 H :    0.017191
  12 C :   -0.062044
  13 H :    0.022402
  14 H :    0.027778
  15 H :    0.024943
  16 S :    0.420572
  17 C :   -0.179055
  18 C :   -0.059997
  19 C :   -0.057743
  20 C :   -0.212780
  21 H :    0.037542
  22 C :   -0.029113
  23 H :    0.028438
  24 H :    0.025010
  25 C :   -0.036275
  26 H :    0.012326
  27 H :    0.026011
  28 C :   -0.067238
  29 H :    0.030166
  30 H :    0.026563
  31 H :    0.023047
  32 H :    0.029950
  33 H :    0.013981

  Mayer bond orders larger than 0.100000
B(  0-S ,  1-C ) :   1.1356 B(  0-S ,  4-C ) :   1.1398 B(  1-C ,  2-C ) :   1.6045
B(  1-C , 32-H ) :   0.9623 B(  2-C ,  3-C ) :   1.2680 B(  2-C ,  6-C ) :   1.0304
B(  3-C ,  4-C ) :   1.5598 B(  3-C ,  5-H ) :   1.0004 B(  4-C , 20-C ) :   1.0244
B(  6-C ,  7-H ) :   0.9342 B(  6-C ,  8-H ) :   0.9332 B(  6-C ,  9-C ) :   1.0784
B(  9-C , 10-H ) :   0.9507 B(  9-C , 11-H ) :   0.9545 B(  9-C , 12-C ) :   1.0826
B( 12-C , 13-H ) :   0.9727 B( 12-C , 14-H ) :   0.9745 B( 12-C , 15-H ) :   0.9741
B( 16-S , 17-C ) :   1.1521 B( 16-S , 20-C ) :   1.1485 B( 17-C , 18-C ) :   1.5970
B( 17-C , 33-H ) :   0.9727 B( 18-C , 19-C ) :   1.2427 B( 18-C , 21-H ) :   0.9841
B( 19-C , 20-C ) :   1.6206 B( 19-C , 22-C ) :   1.0497 B( 22-C , 23-H ) :   0.9439
B( 22-C , 24-H ) :   0.9282 B( 22-C , 25-C ) :   1.0441 B( 25-C , 26-H ) :   0.9511
B( 25-C , 27-H ) :   0.9661 B( 25-C , 28-C ) :   1.0696 B( 28-C , 29-H ) :   0.9772
B( 28-C , 30-H ) :   0.9753 B( 28-C , 31-H ) :   0.9804

Dispersion correction           -0.014001368
FINAL SINGLE POINT ENERGY     -1339.866635389528

DIPOLE MOMENT
-------------
                                X             Y             Z
Electronic contribution:    -24.76534       6.43655     -15.53006
Nuclear contribution   :     25.42370      -6.47272      15.92966
                        -----------------------------------------
Total Dipole Moment    :      0.65836      -0.03617       0.39960
                        -----------------------------------------
Magnitude (a.u.)       :      0.77099
Magnitude (Debye)      :      1.95971

Rotational constants in cm-1:     0.016975     0.008846     0.006704
Rotational constants in MHz :   508.902948   265.185328   200.987817

                             ****ORCA TERMINATED NORMALLY****
TOTAL RUN TIME: 0 days 0 hours 0 minutes 34 seconds 893 msec
