                         Program Version 4.2.1 -  RELEASE  -
|  1> ! wB97X-D3 SP def2-SVP
|  2> %pal
|  3> nprocs 16
|  4> end
|  5>
|  6> * xyz 0 1
|  7> S 	 49.5113 	 23.9159 	 86.8174
|  8> C 	 49.8519 	 24.0577 	 88.5394
|  9> C 	 50.0411 	 22.8072 	 89.1599
| 10> C 	 50.1344 	 21.7161 	 88.223
| 11> C 	 50.0227 	 22.1865 	 86.9131
| 12> H 	 50.3246 	 20.6271 	 88.3646
| 13> C 	 49.9475 	 22.6441 	 90.6802
| 14> H 	 50.2554 	 21.6956 	 91.0202
| 15> H 	 48.9069 	 22.6933 	 90.9517
| 16> C 	 50.8703 	 23.5356 	 91.5392
| 17> H 	 50.8201 	 24.6466 	 91.3011
| 18> H 	 50.7658 	 23.3475 	 92.644
| 19> C 	 52.3654 	 23.0876 	 91.4491
| 20> H 	 53.0404 	 23.8647 	 91.1061
| 21> H 	 52.7297 	 22.7588 	 92.38
| 22> H 	 52.4604 	 22.2418 	 90.7356
| 23> S 	 48.714 	 20.7182 	 85.0284
| 24> C 	 49.5352 	 19.5468 	 84.0793
| 25> C 	 50.8397 	 19.4851 	 84.399
| 26> C 	 51.1964 	 20.4403 	 85.3821
| 27> C 	 50.1573 	 21.3344 	 85.779
| 28> H 	 51.4809 	 18.6771 	 84.0593
| 29> C 	 52.526 	 20.4137 	 86.1589
| 30> H 	 53.1387 	 19.6092 	 85.9252
| 31> H 	 52.3574 	 20.2433 	 87.2338
| 32> C 	 53.3279 	 21.7241 	 86.0398
| 33> H 	 54.3434 	 21.5179 	 86.4026
| 34> H 	 52.9818 	 22.3997 	 86.781
| 35> C 	 53.4226 	 22.2352 	 84.5809
| 36> H 	 53.9956 	 21.5145 	 84.031
| 37> H 	 53.8932 	 23.2328 	 84.5826
| 38> H 	 52.4549 	 22.5932 	 84.1846
| 39> H 	 49.5634 	 24.9221 	 89.0698
| 40> H 	 49.1098 	 18.7651 	 83.3725
| 41> *
| 42>
| 43>                          ****END OF INPUT****

CARTESIAN COORDINATES (ANGSTROEM)
---------------------------------
  S     49.511300   23.915900   86.817400
  C     49.851900   24.057700   88.539400
  C     50.041100   22.807200   89.159900
  C     50.134400   21.716100   88.223000
  C     50.022700   22.186500   86.913100
  H     50.324600   20.627100   88.364600
  C     49.947500   22.644100   90.680200
  H     50.255400   21.695600   91.020200
  H     48.906900   22.693300   90.951700
  C     50.870300   23.535600   91.539200
  H     50.820100   24.646600   91.301100
  H     50.765800   23.347500   92.644000
  C     52.365400   23.087600   91.449100
  H     53.040400   23.864700   91.106100
  H     52.729700   22.758800   92.380000
  H     52.460400   22.241800   90.735600
  S     48.714000   20.718200   85.028400
  C     49.535200   19.546800   84.079300
  C     50.839700   19.485100   84.399000
  C     51.196400   20.440300   85.382100
  C     50.157300   21.334400   85.779000
  H     51.480900   18.677100   84.059300
  C     52.526000   20.413700   86.158900
  H     53.138700   19.609200   85.925200
  H     52.357400   20.243300   87.233800
  C     53.327900   21.724100   86.039800
  H     54.343400   21.517900   86.402600
  H     52.981800   22.399700   86.781000
  C     53.422600   22.235200   84.580900
  H     53.995600   21.514500   84.031000
  H     53.893200   23.232800   84.582600
  H     52.454900   22.593200   84.184600
  H     49.563400   24.922100   89.069800
  H     49.109800   18.765100   83.372500

 Total Charge           Charge          ....    0
 Multiplicity           Mult            ....    1
 Number of Electrons    NEL             ....  134
 Basis Dimension        Dim             ....  322

ORBITAL ENERGIES
----------------

  NO   OCC          E(Eh)            E(eV)
   0   2.0000     -88.971431     -2421.0357
   1   2.0000     -88.963253     -2420.8132
   2   2.0000     -10.333405      -281.1863
   3   2.0000     -10.321376      -280.8589
   4   2.0000     -10.316329      -280.7216
   5   2.0000     -10.315871      -280.7091
   6   2.0000     -10.311767      -280.5974
   7   2.0000     -10.305759      -280.4339
   8   2.0000     -10.305536      -280.4279
   9   2.0000     -10.297158      -280.1999
  10   2.0000     -10.292083      -280.0618
  11   2.0000     -10.288105      -279.9536
  12   2.0000     -10.282134      -279.7911
  13   2.0000     -10.275469      -279.6097
  14   2.0000     -10.273102      -279.5453
  15   2.0000     -10.270607      -279.4774
  16   2.0000      -8.084955      -220.0028
  17   2.0000      -8.078697      -219.8325
  18   2.0000      -6.043380      -164.4487
  19   2.0000      -6.039878      -164.3534
  20   2.0000      -6.037179      -164.2800
  21   2.0000      -6.035635      -164.2380
  22   2.0000      -6.032928      -164.1643
  23   2.0000      -6.029600      -164.0738
  24   2.0000      -1.007901       -27.4264
  25   2.0000      -0.981361       -26.7042
  26   2.0000      -0.909334       -24.7442
  27   2.0000      -0.902482       -24.5578
  28   2.0000      -0.873877       -23.7794
  29   2.0000      -0.848174       -23.0800
  30   2.0000      -0.838884       -22.8272
  31   2.0000      -0.812520       -22.1098
  32   2.0000      -0.783679       -21.3250
  33   2.0000      -0.770400       -20.9637
  34   2.0000      -0.709882       -19.3169
  35   2.0000      -0.697124       -18.9697
  36   2.0000      -0.683878       -18.6093
  37   2.0000      -0.656618       -17.8675
  38   2.0000      -0.643691       -17.5157
  39   2.0000      -0.609131       -16.5753
  40   2.0000      -0.590156       -16.0590
  41   2.0000      -0.578171       -15.7328
  42   2.0000      -0.558006       -15.1841
  43   2.0000      -0.557332       -15.1658
  44   2.0000      -0.543821       -14.7981
  45   2.0000      -0.532367       -14.4864
  46   2.0000      -0.515377       -14.0241
  47   2.0000      -0.506956       -13.7950
  48   2.0000      -0.498856       -13.5745
  49   2.0000      -0.497089       -13.5265
  50   2.0000      -0.485097       -13.2002
  51   2.0000      -0.472406       -12.8548
  52   2.0000      -0.468923       -12.7600
  53   2.0000      -0.465049       -12.6546
  54   2.0000      -0.460764       -12.5380
  55   2.0000      -0.445763       -12.1298
  56   2.0000      -0.441682       -12.0188
  57   2.0000      -0.436313       -11.8727
  58   2.0000      -0.422959       -11.5093
  59   2.0000      -0.421818       -11.4782
  60   2.0000      -0.417592       -11.3633
  61   2.0000      -0.411432       -11.1956
  62   2.0000      -0.406154       -11.0520
  63   2.0000      -0.344200        -9.3662
  64   2.0000      -0.332811        -9.0562
  65   2.0000      -0.319442        -8.6925
  66   2.0000      -0.297886        -8.1059
  67   0.0000       0.025979         0.7069
  68   0.0000       0.053650         1.4599
  69   0.0000       0.102871         2.7993
  70   0.0000       0.120126         3.2688
  71   0.0000       0.125871         3.4251

MULLIKEN ATOMIC CHARGES
-----------------------
   0 S :    0.115932
   1 C :   -0.094309
   2 C :   -0.093152
   3 C :    0.034241
   4 C :   -0.183682
   5 H :    0.046954
   6 C :    0.095420
   7 H :   -0.000209
   8 H :    0.043725
   9 C :   -0.122368
  10 H :    0.047327
  11 H :    0.042301
  12 C :   -0.057074
  13 H :    0.035664
  14 H :    0.021010
  15 H :    0.027427
  16 S :    0.109465
  17 C :   -0.099524
  18 C :   -0.036482
  19 C :   -0.067781
  20 C :   -0.145995
  21 H :    0.020856
  22 C :    0.099946
  23 H :   -0.011227
  24 H :    0.017408
  25 C :   -0.083780
  26 H :    0.017060
  27 H :    0.029684
  28 C :   -0.031700
  29 H :    0.036048
  30 H :    0.024840
  31 H :    0.042585
  32 H :    0.042379
  33 H :    0.077012
Sum of atomic charges:   -0.0000000

LOEWDIN ATOMIC CHARGES
----------------------
   0 S :    0.386621
   1 C :   -0.188089
   2 C :   -0.056719
   3 C :   -0.052883
   4 C :   -0.184002
   5 H :    0.045448
   6 C :   -0.030587
   7 H :    0.021751
   8 H :    0.033789
   9 C :   -0.049146
  10 H :    0.026738
  11 H :    0.034410
  12 C :   -0.066656
  13 H :    0.026949
  14 H :    0.015596
  15 H :    0.025925
  16 S :    0.431309
  17 C :   -0.204202
  18 C :   -0.085698
  19 C :   -0.042245
  20 C :   -0.222217
  21 H :    0.035155
  22 C :   -0.031481
  23 H :    0.014620
  24 H :    0.030798
  25 C :   -0.039962
  26 H :    0.023229
  27 H :    0.018562
  28 C :   -0.068410
  29 H :    0.023775
  30 H :    0.029623
  31 H :    0.031649
  32 H :    0.017060
  33 H :    0.049291

  Mayer bond orders larger than 0.100000
B(  0-S ,  1-C ) :   1.1358 B(  0-S ,  4-C ) :   1.1381 B(  1-C ,  2-C ) :   1.6102
B(  1-C ,  4-C ) :   0.1041 B(  1-C , 32-H ) :   0.9708 B(  2-C ,  3-C ) :   1.2260
B(  2-C ,  6-C ) :   1.0113 B(  3-C ,  4-C ) :   1.5772 B(  3-C ,  5-H ) :   0.9836
B(  4-C , 20-C ) :   1.0545 B(  6-C ,  7-H ) :   0.9448 B(  6-C ,  8-H ) :   0.9406
B(  6-C ,  9-C ) :   1.0719 B(  9-C , 10-H ) :   0.9641 B(  9-C , 11-H ) :   0.9688
B(  9-C , 12-C ) :   1.0424 B( 12-C , 13-H ) :   0.9769 B( 12-C , 14-H ) :   0.9861
B( 12-C , 15-H ) :   0.9799 B( 16-S , 17-C ) :   1.1845 B( 16-S , 20-C ) :   1.1505
B( 17-C , 18-C ) :   1.5796 B( 17-C , 20-C ) :   0.1001 B( 17-C , 33-H ) :   0.9534
B( 18-C , 19-C ) :   1.2937 B( 18-C , 21-H ) :   0.9906 B( 19-C , 20-C ) :   1.5329
B( 19-C , 22-C ) :   1.0445 B( 22-C , 23-H ) :   0.9333 B( 22-C , 24-H ) :   0.9345
B( 22-C , 25-C ) :   1.0710 B( 25-C , 26-H ) :   0.9552 B( 25-C , 27-H ) :   0.9554
B( 25-C , 28-C ) :   1.0836 B( 28-C , 29-H ) :   0.9778 B( 28-C , 30-H ) :   0.9703
B( 28-C , 31-H ) :   0.9651

Dispersion correction           -0.015586464
FINAL SINGLE POINT ENERGY     -1339.847884848828

DIPOLE MOMENT
-------------
                                X             Y             Z
Electronic contribution:    -20.50997      -0.74975     -15.97532
Nuclear contribution   :     20.77758       0.29843      16.52466
                        -----------------------------------------
Total Dipole Moment    :      0.26761      -0.45132       0.54933
                        -----------------------------------------
Magnitude (a.u.)       :      0.75965
Magnitude (Debye)      :      1.93089

Rotational constants in cm-1:     0.021085     0.008688     0.007571
Rotational constants in MHz :   632.113066   260.455327   226.977286

                             ****ORCA TERMINATED NORMALLY****
TOTAL RUN TIME: 0 days 0 hours 0 minutes 30 seconds 552 msec
