                         Program Version 4.2.1 -  RELEASE  -
|  1> ! wB97X-D3 SP def2-SVP
|  2> %pal
|  3> nprocs 16
|  4> end
|  5>
|  6> * xyz 0 1
|  7> S 	 -39.1681 	 58.4135 	 113.089
|  8> C 	 -38.8256 	 59.9232 	 112.354
|  9> C 	 -37.6111 	 60.4878 	 112.693
| 10> C 	 -36.8925 	 59.5447 	 113.592
| 11> C 	 -37.6243 	 58.3784 	 113.929
| 12> H 	 -35.902 	 59.7062 	 113.991
| 13> C 	 -37.0706 	 61.8515 	 112.236
| 14> H 	 -35.9446 	 61.7825 	 112.22
| 15> H 	 -37.2364 	 62.4878 	 112.999
| 16> C 	 -37.5879 	 62.4777 	 110.956
| 17> H 	 -37.4221 	 61.7383 	 110.217
| 18> H 	 -38.718 	 62.564 	 110.99
| 19> C 	 -37.0709 	 63.9062 	 110.55
| 20> H 	 -36.0037 	 64.0619 	 110.775
| 21> H 	 -37.3078 	 64.2054 	 109.603
| 22> H 	 -37.5596 	 64.6003 	 111.261
| 23> S 	 -36.951 	 55.7873 	 113.754
| 24> C 	 -36.5509 	 54.8629 	 115.101
| 25> C 	 -36.4964 	 55.668 	 116.201
| 26> C 	 -36.9365 	 57.0443 	 115.994
| 27> C 	 -37.2905 	 57.1898 	 114.662
| 28> H 	 -36.1112 	 55.3095 	 117.17
| 29> C 	 -37.0132 	 58.0966 	 117.084
| 30> H 	 -37.378 	 57.6756 	 118.01
| 31> H 	 -37.8148 	 58.7942 	 116.946
| 32> C 	 -35.5763 	 58.6338 	 117.402
| 33> H 	 -35.1747 	 59.1157 	 116.507
| 34> H 	 -34.8468 	 57.9141 	 117.714
| 35> C 	 -35.7475 	 59.6757 	 118.524
| 36> H 	 -35.9722 	 59.1793 	 119.464
| 37> H 	 -36.5083 	 60.4406 	 118.341
| 38> H 	 -34.7231 	 60.1333 	 118.648
| 39> H 	 -39.5291 	 60.5334 	 111.807
| 40> H 	 -36.2164 	 53.8468 	 115.165
| 41> *
| 42>
| 43>                          ****END OF INPUT****

CARTESIAN COORDINATES (ANGSTROEM)
---------------------------------
  S    -39.168100   58.413500  113.089000
  C    -38.825600   59.923200  112.354000
  C    -37.611100   60.487800  112.693000
  C    -36.892500   59.544700  113.592000
  C    -37.624300   58.378400  113.929000
  H    -35.902000   59.706200  113.991000
  C    -37.070600   61.851500  112.236000
  H    -35.944600   61.782500  112.220000
  H    -37.236400   62.487800  112.999000
  C    -37.587900   62.477700  110.956000
  H    -37.422100   61.738300  110.217000
  H    -38.718000   62.564000  110.990000
  C    -37.070900   63.906200  110.550000
  H    -36.003700   64.061900  110.775000
  H    -37.307800   64.205400  109.603000
  H    -37.559600   64.600300  111.261000
  S    -36.951000   55.787300  113.754000
  C    -36.550900   54.862900  115.101000
  C    -36.496400   55.668000  116.201000
  C    -36.936500   57.044300  115.994000
  C    -37.290500   57.189800  114.662000
  H    -36.111200   55.309500  117.170000
  C    -37.013200   58.096600  117.084000
  H    -37.378000   57.675600  118.010000
  H    -37.814800   58.794200  116.946000
  C    -35.576300   58.633800  117.402000
  H    -35.174700   59.115700  116.507000
  H    -34.846800   57.914100  117.714000
  C    -35.747500   59.675700  118.524000
  H    -35.972200   59.179300  119.464000
  H    -36.508300   60.440600  118.341000
  H    -34.723100   60.133300  118.648000
  H    -39.529100   60.533400  111.807000
  H    -36.216400   53.846800  115.165000

 Total Charge           Charge          ....    0
 Multiplicity           Mult            ....    1
 Number of Electrons    NEL             ....  134
 Basis Dimension        Dim             ....  322

ORBITAL ENERGIES
----------------

  NO   OCC          E(Eh)            E(eV)
   0   2.0000     -88.962727     -2420.7989
   1   2.0000     -88.961695     -2420.7708
   2   2.0000     -10.329305      -281.0747
   3   2.0000     -10.317390      -280.7505
   4   2.0000     -10.308517      -280.5090
   5   2.0000     -10.308047      -280.4962
   6   2.0000     -10.307724      -280.4874
   7   2.0000     -10.303399      -280.3697
   8   2.0000     -10.302671      -280.3499
   9   2.0000     -10.292306      -280.0679
  10   2.0000     -10.292074      -280.0616
  11   2.0000     -10.291246      -280.0390
  12   2.0000     -10.290710      -280.0245
  13   2.0000     -10.288828      -279.9732
  14   2.0000     -10.282141      -279.7913
  15   2.0000     -10.280932      -279.7584
  16   2.0000      -8.078531      -219.8280
  17   2.0000      -8.077992      -219.8133
  18   2.0000      -6.036964      -164.2741
  19   2.0000      -6.036467      -164.2606
  20   2.0000      -6.032664      -164.1571
  21   2.0000      -6.032327      -164.1480
  22   2.0000      -6.029288      -164.0653
  23   2.0000      -6.028855      -164.0535
  24   2.0000      -1.012920       -27.5630
  25   2.0000      -0.983532       -26.7633
  26   2.0000      -0.911909       -24.8143
  27   2.0000      -0.909537       -24.7497
  28   2.0000      -0.871303       -23.7094
  29   2.0000      -0.849322       -23.1112
  30   2.0000      -0.843379       -22.9495
  31   2.0000      -0.811931       -22.0938
  32   2.0000      -0.786324       -21.3970
  33   2.0000      -0.772273       -21.0146
  34   2.0000      -0.712339       -19.3837
  35   2.0000      -0.704807       -19.1788
  36   2.0000      -0.697953       -18.9923
  37   2.0000      -0.658945       -17.9308
  38   2.0000      -0.637400       -17.3445
  39   2.0000      -0.612337       -16.6625
  40   2.0000      -0.598901       -16.2969
  41   2.0000      -0.570715       -15.5299
  42   2.0000      -0.565338       -15.3836
  43   2.0000      -0.560916       -15.2633
  44   2.0000      -0.532750       -14.4969
  45   2.0000      -0.529036       -14.3958
  46   2.0000      -0.512930       -13.9575
  47   2.0000      -0.511673       -13.9233
  48   2.0000      -0.509621       -13.8675
  49   2.0000      -0.494966       -13.4687
  50   2.0000      -0.491697       -13.3798
  51   2.0000      -0.481978       -13.1153
  52   2.0000      -0.474056       -12.8997
  53   2.0000      -0.462468       -12.5844
  54   2.0000      -0.457433       -12.4474
  55   2.0000      -0.451105       -12.2752
  56   2.0000      -0.450439       -12.2571
  57   2.0000      -0.440068       -11.9749
  58   2.0000      -0.437983       -11.9181
  59   2.0000      -0.424032       -11.5385
  60   2.0000      -0.421536       -11.4706
  61   2.0000      -0.416140       -11.3238
  62   2.0000      -0.411109       -11.1868
  63   2.0000      -0.338916        -9.2224
  64   2.0000      -0.327131        -8.9017
  65   2.0000      -0.320801        -8.7294
  66   2.0000      -0.301849        -8.2137
  67   0.0000       0.043454         1.1825
  68   0.0000       0.069584         1.8935
  69   0.0000       0.124663         3.3923
  70   0.0000       0.126769         3.4496
  71   0.0000       0.128182         3.4880

MULLIKEN ATOMIC CHARGES
-----------------------
   0 S :    0.118182
   1 C :   -0.107355
   2 C :   -0.127459
   3 C :    0.052771
   4 C :   -0.192143
   5 H :    0.007824
   6 C :    0.118263
   7 H :    0.029520
   8 H :    0.005683
   9 C :   -0.121199
  10 H :    0.027593
  11 H :    0.034544
  12 C :   -0.008271
  13 H :    0.031689
  14 H :    0.025603
  15 H :    0.026402
  16 S :    0.136496
  17 C :   -0.066348
  18 C :   -0.061275
  19 C :   -0.011819
  20 C :   -0.176361
  21 H :    0.016822
  22 C :    0.081979
  23 H :    0.006323
  24 H :    0.025972
  25 C :   -0.079354
  26 H :    0.029015
  27 H :    0.033291
  28 C :   -0.050723
  29 H :    0.028648
  30 H :    0.039812
  31 H :    0.036028
  32 H :    0.039304
  33 H :    0.050542
Sum of atomic charges:    0.0000000

LOEWDIN ATOMIC CHARGES
----------------------
   0 S :    0.418616
   1 C :   -0.212647
   2 C :   -0.058446
   3 C :   -0.053952
   4 C :   -0.199035
   5 H :    0.025638
   6 C :   -0.028740
   7 H :    0.038737
   8 H :    0.016242
   9 C :   -0.042470
  10 H :    0.017637
  11 H :    0.027726
  12 C :   -0.053906
  13 H :    0.027914
  14 H :    0.015071
  15 H :    0.030397
  16 S :    0.456989
  17 C :   -0.211012
  18 C :   -0.076041
  19 C :   -0.048334
  20 C :   -0.233309
  21 H :    0.028679
  22 C :   -0.031309
  23 H :    0.029217
  24 H :    0.032549
  25 C :   -0.030161
  26 H :    0.021139
  27 H :    0.024461
  28 C :   -0.067387
  29 H :    0.021840
  30 H :    0.025563
  31 H :    0.030579
  32 H :    0.024826
  33 H :    0.032930

  Mayer bond orders larger than 0.100000
B(  0-S ,  1-C ) :   1.1461 B(  0-S ,  4-C ) :   1.1525 B(  1-C ,  2-C ) :   1.6420
B(  1-C , 32-H ) :   0.9583 B(  2-C ,  3-C ) :   1.2297 B(  2-C ,  6-C ) :   1.0058
B(  3-C ,  4-C ) :   1.5897 B(  3-C ,  5-H ) :   0.9928 B(  4-C , 20-C ) :   1.0182
B(  6-C ,  7-H ) :   0.9364 B(  6-C ,  8-H ) :   0.9248 B(  6-C ,  9-C ) :   1.0682
B(  9-C , 10-H ) :   0.9632 B(  9-C , 11-H ) :   0.9496 B(  9-C , 12-C ) :   1.0732
B( 12-C , 13-H ) :   0.9782 B( 12-C , 14-H ) :   0.9763 B( 12-C , 15-H ) :   0.9743
B( 16-S , 17-C ) :   1.1607 B( 16-S , 20-C ) :   1.1733 B( 17-C , 18-C ) :   1.6022
B( 17-C , 33-H ) :   0.9695 B( 18-C , 19-C ) :   1.2517 B( 18-C , 21-H ) :   0.9833
B( 19-C , 20-C ) :   1.5795 B( 19-C , 22-C ) :   1.0498 B( 22-C , 23-H ) :   0.9330
B( 22-C , 24-H ) :   0.9386 B( 22-C , 25-C ) :   1.0437 B( 25-C , 26-H ) :   0.9579
B( 25-C , 27-H ) :   0.9574 B( 25-C , 28-C ) :   1.0827 B( 28-C , 29-H ) :   0.9748
B( 28-C , 30-H ) :   0.9751 B( 28-C , 31-H ) :   0.9738

Dispersion correction           -0.013640310
FINAL SINGLE POINT ENERGY     -1339.869316131545

DIPOLE MOMENT
-------------
                                X             Y             Z
Electronic contribution:     -9.37729     -25.59539      -6.46921
Nuclear contribution   :      9.76619      26.11760       6.82059
                        -----------------------------------------
Total Dipole Moment    :      0.38890       0.52222       0.35138
                        -----------------------------------------
Magnitude (a.u.)       :      0.73988
Magnitude (Debye)      :      1.88063

Rotational constants in cm-1:     0.019616     0.007476     0.005966
Rotational constants in MHz :   588.072920   224.125347   178.844312

                             ****ORCA TERMINATED NORMALLY****
TOTAL RUN TIME: 0 days 0 hours 0 minutes 29 seconds 280 msec
