                         Program Version 4.2.1 -  RELEASE  -
|  1> ! wB97X-D3 SP def2-SVP
|  2> %pal
|  3> nprocs 16
|  4> end
|  5>
|  6> * xyz 0 1
|  7> S 	 33.9319 	 1.67653 	 70.5217
|  8> C 	 33.8203 	 3.31168 	 69.8708
|  9> C 	 33.1417 	 4.16844 	 70.7462
| 10> C 	 32.5193 	 3.41927 	 71.831
| 11> C 	 32.9503 	 2.11043 	 71.9532
| 12> H 	 31.7993 	 3.69948 	 72.5749
| 13> C 	 32.7915 	 5.66388 	 70.3765
| 14> H 	 31.7326 	 5.73623 	 70.5493
| 15> H 	 32.9192 	 5.94616 	 69.3074
| 16> C 	 33.6062 	 6.78011 	 71.104
| 17> H 	 34.6359 	 6.60229 	 70.8233
| 18> H 	 33.4561 	 7.75902 	 70.6127
| 19> C 	 33.3379 	 6.77795 	 72.6031
| 20> H 	 33.9143 	 5.94733 	 73.0033
| 21> H 	 33.7165 	 7.71472 	 73.0013
| 22> H 	 32.2473 	 6.65396 	 72.8673
| 23> S 	 31.7464 	 -0.468827 	 72.2399
| 24> C 	 31.2809 	 -0.996615 	 73.7768
| 25> C 	 31.5853 	 -0.0790247 	 74.7825
| 26> C 	 32.2544 	 1.09991 	 74.2832
| 27> C 	 32.4604 	 1.09512 	 72.9062
| 28> H 	 31.4378 	 -0.264493 	 75.824
| 29> C 	 32.8903 	 2.1468 	 75.1923
| 30> H 	 33.582 	 2.86302 	 74.6946
| 31> H 	 33.5963 	 1.66712 	 75.8185
| 32> C 	 31.9755 	 2.885 	 76.2494
| 33> H 	 31.0569 	 3.20054 	 75.8508
| 34> H 	 32.4848 	 3.82243 	 76.5224
| 35> C 	 31.6434 	 1.99268 	 77.4575
| 36> H 	 31.3107 	 2.64504 	 78.2493
| 37> H 	 32.3797 	 1.34596 	 77.9161
| 38> H 	 30.9129 	 1.31634 	 77.091
| 39> H 	 34.225 	 3.68248 	 68.9667
| 40> H 	 30.7829 	 -1.87336 	 74.0504
| 41> *
| 42>
| 43>                          ****END OF INPUT****

CARTESIAN COORDINATES (ANGSTROEM)
---------------------------------
  S     33.931900    1.676530   70.521700
  C     33.820300    3.311680   69.870800
  C     33.141700    4.168440   70.746200
  C     32.519300    3.419270   71.831000
  C     32.950300    2.110430   71.953200
  H     31.799300    3.699480   72.574900
  C     32.791500    5.663880   70.376500
  H     31.732600    5.736230   70.549300
  H     32.919200    5.946160   69.307400
  C     33.606200    6.780110   71.104000
  H     34.635900    6.602290   70.823300
  H     33.456100    7.759020   70.612700
  C     33.337900    6.777950   72.603100
  H     33.914300    5.947330   73.003300
  H     33.716500    7.714720   73.001300
  H     32.247300    6.653960   72.867300
  S     31.746400   -0.468827   72.239900
  C     31.280900   -0.996615   73.776800
  C     31.585300   -0.079025   74.782500
  C     32.254400    1.099910   74.283200
  C     32.460400    1.095120   72.906200
  H     31.437800   -0.264493   75.824000
  C     32.890300    2.146800   75.192300
  H     33.582000    2.863020   74.694600
  H     33.596300    1.667120   75.818500
  C     31.975500    2.885000   76.249400
  H     31.056900    3.200540   75.850800
  H     32.484800    3.822430   76.522400
  C     31.643400    1.992680   77.457500
  H     31.310700    2.645040   78.249300
  H     32.379700    1.345960   77.916100
  H     30.912900    1.316340   77.091000
  H     34.225000    3.682480   68.966700
  H     30.782900   -1.873360   74.050400

 Total Charge           Charge          ....    0
 Multiplicity           Mult            ....    1
 Number of Electrons    NEL             ....  134
 Basis Dimension        Dim             ....  322

ORBITAL ENERGIES
----------------

  NO   OCC          E(Eh)            E(eV)
   0   2.0000     -88.967154     -2420.9193
   1   2.0000     -88.966654     -2420.9057
   2   2.0000     -10.335551      -281.2446
   3   2.0000     -10.335106      -281.2325
   4   2.0000     -10.318164      -280.7715
   5   2.0000     -10.316827      -280.7351
   6   2.0000     -10.312423      -280.6153
   7   2.0000     -10.310754      -280.5699
   8   2.0000     -10.299721      -280.2697
   9   2.0000     -10.298139      -280.2266
  10   2.0000     -10.294748      -280.1343
  11   2.0000     -10.291790      -280.0539
  12   2.0000     -10.287704      -279.9427
  13   2.0000     -10.287039      -279.9246
  14   2.0000     -10.279612      -279.7225
  15   2.0000     -10.274398      -279.5806
  16   2.0000      -8.081108      -219.8981
  17   2.0000      -8.080933      -219.8934
  18   2.0000      -6.039608      -164.3461
  19   2.0000      -6.039563      -164.3449
  20   2.0000      -6.035588      -164.2367
  21   2.0000      -6.035576      -164.2364
  22   2.0000      -6.031944      -164.1375
  23   2.0000      -6.031598      -164.1281
  24   2.0000      -0.998299       -27.1651
  25   2.0000      -0.978310       -26.6212
  26   2.0000      -0.906983       -24.6803
  27   2.0000      -0.903948       -24.5977
  28   2.0000      -0.869306       -23.6550
  29   2.0000      -0.849548       -23.1174
  30   2.0000      -0.839575       -22.8460
  31   2.0000      -0.814010       -22.1503
  32   2.0000      -0.786198       -21.3935
  33   2.0000      -0.773079       -21.0366
  34   2.0000      -0.709494       -19.3063
  35   2.0000      -0.699715       -19.0402
  36   2.0000      -0.697374       -18.9765
  37   2.0000      -0.661990       -18.0137
  38   2.0000      -0.645699       -17.5704
  39   2.0000      -0.610746       -16.6192
  40   2.0000      -0.601018       -16.3545
  41   2.0000      -0.568809       -15.4781
  42   2.0000      -0.548081       -14.9140
  43   2.0000      -0.544247       -14.8097
  44   2.0000      -0.541212       -14.7271
  45   2.0000      -0.534899       -14.5553
  46   2.0000      -0.513690       -13.9782
  47   2.0000      -0.509752       -13.8711
  48   2.0000      -0.508202       -13.8289
  49   2.0000      -0.505246       -13.7484
  50   2.0000      -0.490247       -13.3403
  51   2.0000      -0.480942       -13.0871
  52   2.0000      -0.476796       -12.9743
  53   2.0000      -0.468984       -12.7617
  54   2.0000      -0.463489       -12.6122
  55   2.0000      -0.445327       -12.1180
  56   2.0000      -0.441143       -12.0041
  57   2.0000      -0.438461       -11.9311
  58   2.0000      -0.435477       -11.8499
  59   2.0000      -0.420396       -11.4396
  60   2.0000      -0.415326       -11.3016
  61   2.0000      -0.411359       -11.1937
  62   2.0000      -0.409199       -11.1349
  63   2.0000      -0.349784        -9.5181
  64   2.0000      -0.331468        -9.0197
  65   2.0000      -0.328217        -8.9312
  66   2.0000      -0.292465        -7.9584
  67   0.0000       0.025105         0.6831
  68   0.0000       0.067006         1.8233
  69   0.0000       0.110799         3.0150
  70   0.0000       0.114575         3.1177
  71   0.0000       0.123127         3.3505

MULLIKEN ATOMIC CHARGES
-----------------------
   0 S :    0.099918
   1 C :   -0.090497
   2 C :   -0.076597
   3 C :    0.040410
   4 C :   -0.165924
   5 H :    0.013567
   6 C :    0.018480
   7 H :    0.031669
   8 H :    0.028602
   9 C :   -0.073713
  10 H :    0.021286
  11 H :    0.026979
  12 C :   -0.051566
  13 H :    0.046111
  14 H :    0.034514
  15 H :    0.041138
  16 S :    0.105732
  17 C :   -0.043898
  18 C :   -0.046889
  19 C :    0.000249
  20 C :   -0.158764
  21 H :    0.010511
  22 C :    0.031643
  23 H :    0.033619
  24 H :    0.020578
  25 C :   -0.059440
  26 H :    0.018720
  27 H :    0.029879
  28 C :   -0.055087
  29 H :    0.035582
  30 H :    0.026242
  31 H :    0.031040
  32 H :    0.037876
  33 H :    0.038028
Sum of atomic charges:   -0.0000000

LOEWDIN ATOMIC CHARGES
----------------------
   0 S :    0.381053
   1 C :   -0.179870
   2 C :   -0.061733
   3 C :   -0.055677
   4 C :   -0.184977
   5 H :    0.031459
   6 C :   -0.030727
   7 H :    0.025259
   8 H :    0.032993
   9 C :   -0.045727
  10 H :    0.022881
  11 H :    0.023062
  12 C :   -0.068840
  13 H :    0.029192
  14 H :    0.025495
  15 H :    0.030359
  16 S :    0.396368
  17 C :   -0.184343
  18 C :   -0.077678
  19 C :   -0.047203
  20 C :   -0.177898
  21 H :    0.025402
  22 C :   -0.035968
  23 H :    0.035596
  24 H :    0.028772
  25 C :   -0.030654
  26 H :    0.016493
  27 H :    0.025863
  28 C :   -0.067029
  29 H :    0.028917
  30 H :    0.022131
  31 H :    0.020381
  32 H :    0.023084
  33 H :    0.023563

  Mayer bond orders larger than 0.100000
B(  0-S ,  1-C ) :   1.1371 B(  0-S ,  4-C ) :   1.1242 B(  1-C ,  2-C ) :   1.6319
B(  1-C , 32-H ) :   0.9704 B(  2-C ,  3-C ) :   1.1984 B(  2-C ,  6-C ) :   1.0030
B(  3-C ,  4-C ) :   1.6101 B(  3-C ,  5-H ) :   0.9899 B(  4-C , 20-C ) :   1.0501
B(  6-C ,  7-H ) :   0.9530 B(  6-C ,  8-H ) :   0.9538 B(  6-C ,  9-C ) :   1.0659
B(  9-C , 10-H ) :   0.9532 B(  9-C , 11-H ) :   0.9598 B(  9-C , 12-C ) :   1.0687
B( 12-C , 13-H ) :   0.9734 B( 12-C , 14-H ) :   0.9738 B( 12-C , 15-H ) :   0.9774
B( 16-S , 17-C ) :   1.1768 B( 16-S , 20-C ) :   1.1064 B( 17-C , 18-C ) :   1.5977
B( 17-C , 33-H ) :   0.9677 B( 18-C , 19-C ) :   1.2413 B( 18-C , 21-H ) :   0.9846
B( 19-C , 20-C ) :   1.6060 B( 19-C , 22-C ) :   1.0345 B( 22-C , 23-H ) :   0.9447
B( 22-C , 24-H ) :   0.9394 B( 22-C , 25-C ) :   1.0523 B( 25-C , 26-H ) :   0.9608
B( 25-C , 27-H ) :   0.9612 B( 25-C , 28-C ) :   1.0672 B( 28-C , 29-H ) :   0.9703
B( 28-C , 30-H ) :   0.9799 B( 28-C , 31-H ) :   0.9735

Dispersion correction           -0.014367842
FINAL SINGLE POINT ENERGY     -1339.864088219806

DIPOLE MOMENT
-------------
                                X             Y             Z
Electronic contribution:      1.32984     -23.83842     -17.68024
Nuclear contribution   :     -1.46007      24.36552      18.10207
                        -----------------------------------------
Total Dipole Moment    :     -0.13023       0.52710       0.42183
                        -----------------------------------------
Magnitude (a.u.)       :      0.68756
Magnitude (Debye)      :      1.74764

Rotational constants in cm-1:     0.017455     0.009176     0.006364
Rotational constants in MHz :   523.292800   275.090222   190.791010

                             ****ORCA TERMINATED NORMALLY****
TOTAL RUN TIME: 0 days 0 hours 0 minutes 30 seconds 377 msec
