                         Program Version 4.2.1 -  RELEASE  -
|  1> ! wB97X-D3 SP def2-SVP
|  2> %pal
|  3> nprocs 16
|  4> end
|  5>
|  6> * xyz 0 1
|  7> S 	 18.3909 	 -10.1015 	 77.0876
|  8> C 	 19.1064 	 -11.6619 	 77.4662
|  9> C 	 19.8756 	 -11.519 	 78.6207
| 10> C 	 20.3428 	 -10.187 	 78.8046
| 11> C 	 19.7829 	 -9.24839 	 77.9164
| 12> H 	 21.0418 	 -9.82929 	 79.593
| 13> C 	 20.2797 	 -12.6597 	 79.6101
| 14> H 	 21.1522 	 -12.3113 	 80.08
| 15> H 	 20.5213 	 -13.4837 	 78.8833
| 16> C 	 19.3463 	 -12.9335 	 80.7595
| 17> H 	 19.4702 	 -12.0569 	 81.3983
| 18> H 	 18.275 	 -13.0268 	 80.4884
| 19> C 	 19.695 	 -14.272 	 81.3762
| 20> H 	 19.4504 	 -15.1355 	 80.7581
| 21> H 	 20.8124 	 -14.2169 	 81.6285
| 22> H 	 19.2686 	 -14.4082 	 82.3078
| 23> S 	 18.5492 	 -6.73899 	 77.3828
| 24> C 	 19.5132 	 -5.32701 	 77.4162
| 25> C 	 20.8119 	 -5.65959 	 77.7308
| 26> C 	 21.0913 	 -7.02215 	 78.0799
| 27> C 	 19.9369 	 -7.81304 	 77.8187
| 28> H 	 21.6213 	 -4.89272 	 77.7709
| 29> C 	 22.4673 	 -7.53614 	 78.5861
| 30> H 	 23.199 	 -7.13717 	 77.928
| 31> H 	 22.6051 	 -8.65068 	 78.4513
| 32> C 	 23.0742 	 -7.00596 	 79.9665
| 33> H 	 22.1964 	 -7.01887 	 80.5274
| 34> H 	 23.3563 	 -6.02836 	 80.0321
| 35> C 	 24.1266 	 -7.90635 	 80.424
| 36> H 	 23.8478 	 -8.92419 	 80.6036
| 37> H 	 24.4992 	 -7.34488 	 81.258
| 38> H 	 24.7921 	 -7.93466 	 79.6535
| 39> H 	 18.7869 	 -12.5994 	 77.1375
| 40> H 	 19.2357 	 -4.37929 	 76.9413
| 41> *
| 42>
| 43>                          ****END OF INPUT****

CARTESIAN COORDINATES (ANGSTROEM)
---------------------------------
  S     18.390900  -10.101500   77.087600
  C     19.106400  -11.661900   77.466200
  C     19.875600  -11.519000   78.620700
  C     20.342800  -10.187000   78.804600
  C     19.782900   -9.248390   77.916400
  H     21.041800   -9.829290   79.593000
  C     20.279700  -12.659700   79.610100
  H     21.152200  -12.311300   80.080000
  H     20.521300  -13.483700   78.883300
  C     19.346300  -12.933500   80.759500
  H     19.470200  -12.056900   81.398300
  H     18.275000  -13.026800   80.488400
  C     19.695000  -14.272000   81.376200
  H     19.450400  -15.135500   80.758100
  H     20.812400  -14.216900   81.628500
  H     19.268600  -14.408200   82.307800
  S     18.549200   -6.738990   77.382800
  C     19.513200   -5.327010   77.416200
  C     20.811900   -5.659590   77.730800
  C     21.091300   -7.022150   78.079900
  C     19.936900   -7.813040   77.818700
  H     21.621300   -4.892720   77.770900
  C     22.467300   -7.536140   78.586100
  H     23.199000   -7.137170   77.928000
  H     22.605100   -8.650680   78.451300
  C     23.074200   -7.005960   79.966500
  H     22.196400   -7.018870   80.527400
  H     23.356300   -6.028360   80.032100
  C     24.126600   -7.906350   80.424000
  H     23.847800   -8.924190   80.603600
  H     24.499200   -7.344880   81.258000
  H     24.792100   -7.934660   79.653500
  H     18.786900  -12.599400   77.137500
  H     19.235700   -4.379290   76.941300

 Total Charge           Charge          ....    0
 Multiplicity           Mult            ....    1
 Number of Electrons    NEL             ....  134
 Basis Dimension        Dim             ....  322

ORBITAL ENERGIES
----------------

  NO   OCC          E(Eh)            E(eV)
   0   2.0000     -88.966871     -2420.9116
   1   2.0000     -88.963468     -2420.8190
   2   2.0000     -10.338568      -281.3267
   3   2.0000     -10.336316      -281.2655
   4   2.0000     -10.316708      -280.7319
   5   2.0000     -10.312525      -280.6181
   6   2.0000     -10.312007      -280.6040
   7   2.0000     -10.304558      -280.4013
   8   2.0000     -10.301584      -280.3203
   9   2.0000     -10.298436      -280.2347
  10   2.0000     -10.297575      -280.2113
  11   2.0000     -10.293164      -280.0912
  12   2.0000     -10.288562      -279.9660
  13   2.0000     -10.279010      -279.7061
  14   2.0000     -10.274618      -279.5866
  15   2.0000     -10.266869      -279.3757
  16   2.0000      -8.081375      -219.9054
  17   2.0000      -8.077003      -219.7864
  18   2.0000      -6.040046      -164.3580
  19   2.0000      -6.035932      -164.2461
  20   2.0000      -6.035759      -164.2414
  21   2.0000      -6.032170      -164.1437
  22   2.0000      -6.031961      -164.1380
  23   2.0000      -6.027074      -164.0050
  24   2.0000      -0.998972       -27.1834
  25   2.0000      -0.979160       -26.6443
  26   2.0000      -0.919380       -25.0176
  27   2.0000      -0.915504       -24.9121
  28   2.0000      -0.871910       -23.7259
  29   2.0000      -0.857618       -23.3370
  30   2.0000      -0.842497       -22.9255
  31   2.0000      -0.809871       -22.0377
  32   2.0000      -0.785214       -21.3668
  33   2.0000      -0.772038       -21.0082
  34   2.0000      -0.714793       -19.4505
  35   2.0000      -0.703637       -19.1469
  36   2.0000      -0.698377       -19.0038
  37   2.0000      -0.654252       -17.8031
  38   2.0000      -0.636867       -17.3300
  39   2.0000      -0.616090       -16.7646
  40   2.0000      -0.597145       -16.2491
  41   2.0000      -0.581132       -15.8134
  42   2.0000      -0.576125       -15.6771
  43   2.0000      -0.555791       -15.1238
  44   2.0000      -0.539213       -14.6727
  45   2.0000      -0.522969       -14.2307
  46   2.0000      -0.517161       -14.0727
  47   2.0000      -0.510848       -13.9009
  48   2.0000      -0.508354       -13.8330
  49   2.0000      -0.506444       -13.7810
  50   2.0000      -0.497278       -13.5316
  51   2.0000      -0.487693       -13.2708
  52   2.0000      -0.477572       -12.9954
  53   2.0000      -0.464656       -12.6439
  54   2.0000      -0.458462       -12.4754
  55   2.0000      -0.451899       -12.2968
  56   2.0000      -0.441816       -12.0224
  57   2.0000      -0.438908       -11.9433
  58   2.0000      -0.434633       -11.8270
  59   2.0000      -0.424790       -11.5591
  60   2.0000      -0.416225       -11.3261
  61   2.0000      -0.411439       -11.1958
  62   2.0000      -0.405817       -11.0428
  63   2.0000      -0.358983        -9.7684
  64   2.0000      -0.330222        -8.9858
  65   2.0000      -0.322182        -8.7670
  66   2.0000      -0.274605        -7.4724
  67   0.0000       0.007903         0.2150
  68   0.0000       0.064785         1.7629
  69   0.0000       0.098590         2.6828
  70   0.0000       0.122347         3.3292
  71   0.0000       0.126529         3.4430

MULLIKEN ATOMIC CHARGES
-----------------------
   0 S :    0.079993
   1 C :   -0.069210
   2 C :   -0.116003
   3 C :   -0.000706
   4 C :   -0.131451
   5 H :    0.031713
   6 C :    0.054571
   7 H :    0.003318
   8 H :    0.039776
   9 C :   -0.056072
  10 H :    0.030630
  11 H :    0.035686
  12 C :   -0.030995
  13 H :    0.044744
  14 H :    0.024788
  15 H :    0.016365
  16 S :    0.100672
  17 C :   -0.087870
  18 C :   -0.048977
  19 C :   -0.033230
  20 C :   -0.143650
  21 H :    0.025697
  22 C :   -0.003333
  23 H :    0.018642
  24 H :    0.040226
  25 C :   -0.028942
  26 H :    0.007882
  27 H :    0.006562
  28 C :    0.034733
  29 H :    0.025066
  30 H :    0.029829
  31 H :    0.000498
  32 H :    0.023898
  33 H :    0.075149
Sum of atomic charges:    0.0000000

LOEWDIN ATOMIC CHARGES
----------------------
   0 S :    0.362560
   1 C :   -0.181136
   2 C :   -0.057655
   3 C :   -0.071804
   4 C :   -0.158821
   5 H :    0.036372
   6 C :   -0.029688
   7 H :    0.020335
   8 H :    0.036778
   9 C :   -0.042031
  10 H :    0.028487
  11 H :    0.026348
  12 C :   -0.060227
  13 H :    0.029402
  14 H :    0.031255
  15 H :    0.014313
  16 S :    0.397308
  17 C :   -0.208842
  18 C :   -0.075412
  19 C :   -0.056108
  20 C :   -0.181836
  21 H :    0.033211
  22 C :   -0.039016
  23 H :    0.026569
  24 H :    0.037995
  25 C :   -0.026090
  26 H :    0.014595
  27 H :    0.013592
  28 C :   -0.045643
  29 H :    0.023676
  30 H :    0.032896
  31 H :    0.013977
  32 H :    0.014903
  33 H :    0.039737

  Mayer bond orders larger than 0.100000
B(  0-S ,  1-C ) :   1.1270 B(  0-S ,  4-C ) :   1.1226 B(  1-C ,  2-C ) :   1.5994
B(  1-C ,  4-C ) :   0.1098 B(  1-C , 32-H ) :   0.9786 B(  2-C ,  3-C ) :   1.2494
B(  2-C ,  6-C ) :   1.0127 B(  3-C ,  4-C ) :   1.5363 B(  3-C ,  5-H ) :   0.9815
B(  4-C , 20-C ) :   1.1287 B(  6-C ,  7-H ) :   0.9386 B(  6-C ,  8-H ) :   0.9482
B(  6-C ,  9-C ) :   1.0544 B(  9-C , 10-H ) :   0.9511 B(  9-C , 11-H ) :   0.9595
B(  9-C , 12-C ) :   1.0849 B( 12-C , 13-H ) :   0.9761 B( 12-C , 14-H ) :   0.9695
B( 12-C , 15-H ) :   0.9715 B( 16-S , 17-C ) :   1.1483 B( 16-S , 20-C ) :   1.1320
B( 17-C , 18-C ) :   1.6023 B( 17-C , 33-H ) :   0.9615 B( 18-C , 19-C ) :   1.2676
B( 18-C , 21-H ) :   0.9789 B( 19-C , 20-C ) :   1.5472 B( 19-C , 22-C ) :   1.0432
B( 22-C , 23-H ) :   0.9249 B( 22-C , 24-H ) :   0.9454 B( 22-C , 25-C ) :   1.0304
B( 25-C , 26-H ) :   0.9547 B( 25-C , 27-H ) :   0.9538 B( 25-C , 28-C ) :   1.0862
B( 28-C , 29-H ) :   0.9738 B( 28-C , 30-H ) :   0.9681 B( 28-C , 31-H ) :   0.9676

Dispersion correction           -0.013404013
FINAL SINGLE POINT ENERGY     -1339.814782265014

DIPOLE MOMENT
-------------
                                X             Y             Z
Electronic contribution:    -19.46704      13.68697     -20.02533
Nuclear contribution   :     20.05836     -13.82336      20.55603
                        -----------------------------------------
Total Dipole Moment    :      0.59132      -0.13638       0.53070
                        -----------------------------------------
Magnitude (a.u.)       :      0.80617
Magnitude (Debye)      :      2.04911

Rotational constants in cm-1:     0.017158     0.008449     0.006057
Rotational constants in MHz :   514.376546   253.302042   181.582198

                             ****ORCA TERMINATED NORMALLY****
TOTAL RUN TIME: 0 days 0 hours 0 minutes 30 seconds 788 msec
