                         Program Version 4.2.1 -  RELEASE  -
|  1> ! wB97X-D3 SP def2-SVP
|  2> %pal
|  3> nprocs 16
|  4> end
|  5>
|  6> * xyz 0 1
|  7> S 	 43.9756 	 11.1146 	 50.9872
|  8> C 	 43.4694 	 12.0406 	 49.5871
|  9> C 	 43.096 	 13.3358 	 49.9042
| 10> C 	 43.2424 	 13.5971 	 51.3005
| 11> C 	 43.6781 	 12.5087 	 52.0289
| 12> H 	 43.0479 	 14.5158 	 51.7716
| 13> C 	 42.7541 	 14.4506 	 48.8808
| 14> H 	 42.6662 	 13.9516 	 47.8981
| 15> H 	 43.5355 	 15.2358 	 48.7463
| 16> C 	 41.4896 	 15.1348 	 49.3311
| 17> H 	 40.8492 	 14.3363 	 49.7012
| 18> H 	 41.6984 	 15.7089 	 50.2124
| 19> C 	 40.7182 	 15.9707 	 48.3326
| 20> H 	 41.3087 	 16.8497 	 48.0053
| 21> H 	 40.6207 	 15.3248 	 47.4626
| 22> H 	 39.6707 	 16.1121 	 48.5769
| 23> S 	 45.5007 	 12.0657 	 53.9054
| 24> C 	 45.0719 	 12.3274 	 55.6185
| 25> C 	 43.7659 	 12.7477 	 55.7137
| 26> C 	 43.0236 	 12.8071 	 54.496
| 27> C 	 43.8827 	 12.5247 	 53.4271
| 28> H 	 43.3788 	 12.9121 	 56.6877
| 29> C 	 41.5739 	 13.223 	 54.2609
| 30> H 	 40.922 	 12.4416 	 54.8006
| 31> H 	 41.3689 	 13.022 	 53.1827
| 32> C 	 41.3177 	 14.7148 	 54.5212
| 33> H 	 41.9155 	 15.2455 	 53.7688
| 34> H 	 41.6239 	 15.0111 	 55.4997
| 35> C 	 39.7982 	 15.0309 	 54.3739
| 36> H 	 39.7104 	 16.1304 	 54.1385
| 37> H 	 39.1843 	 14.8543 	 55.2808
| 38> H 	 39.2803 	 14.5851 	 53.5704
| 39> H 	 43.5224 	 11.713 	 48.4872
| 40> H 	 45.7471 	 12.2379 	 56.4381
| 41> *
| 42>
| 43>                          ****END OF INPUT****

CARTESIAN COORDINATES (ANGSTROEM)
---------------------------------
  S     43.975600   11.114600   50.987200
  C     43.469400   12.040600   49.587100
  C     43.096000   13.335800   49.904200
  C     43.242400   13.597100   51.300500
  C     43.678100   12.508700   52.028900
  H     43.047900   14.515800   51.771600
  C     42.754100   14.450600   48.880800
  H     42.666200   13.951600   47.898100
  H     43.535500   15.235800   48.746300
  C     41.489600   15.134800   49.331100
  H     40.849200   14.336300   49.701200
  H     41.698400   15.708900   50.212400
  C     40.718200   15.970700   48.332600
  H     41.308700   16.849700   48.005300
  H     40.620700   15.324800   47.462600
  H     39.670700   16.112100   48.576900
  S     45.500700   12.065700   53.905400
  C     45.071900   12.327400   55.618500
  C     43.765900   12.747700   55.713700
  C     43.023600   12.807100   54.496000
  C     43.882700   12.524700   53.427100
  H     43.378800   12.912100   56.687700
  C     41.573900   13.223000   54.260900
  H     40.922000   12.441600   54.800600
  H     41.368900   13.022000   53.182700
  C     41.317700   14.714800   54.521200
  H     41.915500   15.245500   53.768800
  H     41.623900   15.011100   55.499700
  C     39.798200   15.030900   54.373900
  H     39.710400   16.130400   54.138500
  H     39.184300   14.854300   55.280800
  H     39.280300   14.585100   53.570400
  H     43.522400   11.713000   48.487200
  H     45.747100   12.237900   56.438100

 Total Charge           Charge          ....    0
 Multiplicity           Mult            ....    1
 Number of Electrons    NEL             ....  134
 Basis Dimension        Dim             ....  322

ORBITAL ENERGIES
----------------

  NO   OCC          E(Eh)            E(eV)
   0   2.0000     -88.970200     -2421.0022
   1   2.0000     -88.963220     -2420.8123
   2   2.0000     -10.325078      -280.9597
   3   2.0000     -10.321553      -280.8637
   4   2.0000     -10.320478      -280.8345
   5   2.0000     -10.316769      -280.7336
   6   2.0000     -10.304527      -280.4004
   7   2.0000     -10.302332      -280.3407
   8   2.0000     -10.299315      -280.2586
   9   2.0000     -10.298174      -280.2275
  10   2.0000     -10.292625      -280.0766
  11   2.0000     -10.292612      -280.0762
  12   2.0000     -10.290289      -280.0130
  13   2.0000     -10.281439      -279.7722
  14   2.0000     -10.280005      -279.7332
  15   2.0000     -10.279198      -279.7112
  16   2.0000      -8.084352      -219.9864
  17   2.0000      -8.077674      -219.8047
  18   2.0000      -6.042933      -164.4366
  19   2.0000      -6.039007      -164.3297
  20   2.0000      -6.036172      -164.2526
  21   2.0000      -6.034992      -164.2205
  22   2.0000      -6.032227      -164.1452
  23   2.0000      -6.028457      -164.0426
  24   2.0000      -1.007305       -27.4102
  25   2.0000      -0.979934       -26.6654
  26   2.0000      -0.916004       -24.9257
  27   2.0000      -0.905884       -24.6504
  28   2.0000      -0.874171       -23.7874
  29   2.0000      -0.851164       -23.1614
  30   2.0000      -0.845096       -22.9962
  31   2.0000      -0.813800       -22.1446
  32   2.0000      -0.782137       -21.2830
  33   2.0000      -0.769173       -20.9303
  34   2.0000      -0.712223       -19.3806
  35   2.0000      -0.702371       -19.1125
  36   2.0000      -0.689308       -18.7570
  37   2.0000      -0.661036       -17.9877
  38   2.0000      -0.639403       -17.3990
  39   2.0000      -0.621964       -16.9245
  40   2.0000      -0.593680       -16.1549
  41   2.0000      -0.576745       -15.6940
  42   2.0000      -0.564495       -15.3607
  43   2.0000      -0.553532       -15.0624
  44   2.0000      -0.527921       -14.3655
  45   2.0000      -0.524731       -14.2787
  46   2.0000      -0.514631       -14.0038
  47   2.0000      -0.510865       -13.9013
  48   2.0000      -0.509798       -13.8723
  49   2.0000      -0.494935       -13.4679
  50   2.0000      -0.493166       -13.4197
  51   2.0000      -0.479838       -13.0571
  52   2.0000      -0.473038       -12.8720
  53   2.0000      -0.464710       -12.6454
  54   2.0000      -0.459634       -12.5073
  55   2.0000      -0.447579       -12.1792
  56   2.0000      -0.443957       -12.0807
  57   2.0000      -0.437958       -11.9174
  58   2.0000      -0.430169       -11.7055
  59   2.0000      -0.425455       -11.5772
  60   2.0000      -0.424360       -11.5474
  61   2.0000      -0.416862       -11.3434
  62   2.0000      -0.414374       -11.2757
  63   2.0000      -0.344528        -9.3751
  64   2.0000      -0.333066        -9.0632
  65   2.0000      -0.330086        -8.9821
  66   2.0000      -0.292616        -7.9625
  67   0.0000       0.030805         0.8382
  68   0.0000       0.068250         1.8572
  69   0.0000       0.110951         3.0191
  70   0.0000       0.122960         3.3459
  71   0.0000       0.128153         3.4872

MULLIKEN ATOMIC CHARGES
-----------------------
   0 S :    0.128423
   1 C :   -0.151321
   2 C :   -0.088291
   3 C :    0.042959
   4 C :   -0.148931
   5 H :   -0.012611
   6 C :    0.083864
   7 H :    0.011956
   8 H :    0.046312
   9 C :   -0.128488
  10 H :    0.027602
  11 H :    0.026235
  12 C :   -0.003939
  13 H :    0.039057
  14 H :    0.010441
  15 H :    0.037492
  16 S :    0.096698
  17 C :   -0.080259
  18 C :   -0.030693
  19 C :   -0.005697
  20 C :   -0.191999
  21 H :    0.003453
  22 C :    0.020960
  23 H :    0.047001
  24 H :    0.039144
  25 C :   -0.039039
  26 H :    0.030463
  27 H :    0.028006
  28 C :   -0.055791
  29 H :    0.031462
  30 H :    0.043284
  31 H :    0.021540
  32 H :    0.072623
  33 H :    0.048084
Sum of atomic charges:   -0.0000000

LOEWDIN ATOMIC CHARGES
----------------------
   0 S :    0.402055
   1 C :   -0.211403
   2 C :   -0.064523
   3 C :   -0.052280
   4 C :   -0.195930
   5 H :    0.020515
   6 C :   -0.027949
   7 H :    0.026972
   8 H :    0.034453
   9 C :   -0.052621
  10 H :    0.025760
  11 H :    0.017740
  12 C :   -0.066577
  13 H :    0.029843
  14 H :    0.024176
  15 H :    0.030580
  16 S :    0.390468
  17 C :   -0.170619
  18 C :   -0.065376
  19 C :   -0.055244
  20 C :   -0.196125
  21 H :    0.025168
  22 C :   -0.040170
  23 H :    0.039567
  24 H :    0.035340
  25 C :   -0.030748
  26 H :    0.026148
  27 H :    0.021197
  28 C :   -0.070380
  29 H :    0.031819
  30 H :    0.030401
  31 H :    0.016949
  32 H :    0.046006
  33 H :    0.024787

  Mayer bond orders larger than 0.100000
B(  0-S ,  1-C ) :   1.1310 B(  0-S ,  4-C ) :   1.1366 B(  1-C ,  2-C ) :   1.6363
B(  1-C , 32-H ) :   0.9504 B(  2-C ,  3-C ) :   1.2253 B(  2-C ,  6-C ) :   1.0259
B(  3-C ,  4-C ) :   1.5669 B(  3-C ,  5-H ) :   1.0045 B(  4-C , 20-C ) :   1.0640
B(  6-C ,  7-H ) :   0.9381 B(  6-C ,  8-H ) :   0.9429 B(  6-C ,  9-C ) :   1.0521
B(  9-C , 10-H ) :   0.9582 B(  9-C , 11-H ) :   0.9484 B(  9-C , 12-C ) :   1.0939
B( 12-C , 13-H ) :   0.9703 B( 12-C , 14-H ) :   0.9701 B( 12-C , 15-H ) :   0.9718
B( 16-S , 17-C ) :   1.1302 B( 16-S , 20-C ) :   1.1496 B( 17-C , 18-C ) :   1.6283
B( 17-C , 20-C ) :   0.1040 B( 17-C , 33-H ) :   0.9732 B( 18-C , 19-C ) :   1.2165
B( 18-C , 21-H ) :   0.9933 B( 19-C , 20-C ) :   1.5816 B( 19-C , 22-C ) :   1.0432
B( 22-C , 23-H ) :   0.9352 B( 22-C , 24-H ) :   0.9288 B( 22-C , 25-C ) :   1.0550
B( 25-C , 26-H ) :   0.9529 B( 25-C , 27-H ) :   0.9600 B( 25-C , 28-C ) :   1.0734
B( 28-C , 29-H ) :   0.9753 B( 28-C , 30-H ) :   0.9776 B( 28-C , 31-H ) :   0.9758

Dispersion correction           -0.014464302
FINAL SINGLE POINT ENERGY     -1339.882292182555

DIPOLE MOMENT
-------------
                                X             Y             Z
Electronic contribution:     23.85185     -21.65795       6.53424
Nuclear contribution   :    -24.30526      22.16017      -6.53902
                        -----------------------------------------
Total Dipole Moment    :     -0.45341       0.50222      -0.00478
                        -----------------------------------------
Magnitude (a.u.)       :      0.67663
Magnitude (Debye)      :      1.71985

Rotational constants in cm-1:     0.016872     0.009815     0.006763
Rotational constants in MHz :   505.815083   294.256314   202.758525

                             ****ORCA TERMINATED NORMALLY****
TOTAL RUN TIME: 0 days 0 hours 0 minutes 33 seconds 481 msec
