                         Program Version 4.2.1 -  RELEASE  -
|  1> ! wB97X-D3 SP def2-SVP
|  2> %pal
|  3> nprocs 16
|  4> end
|  5>
|  6> * xyz 0 1
|  7> S 	 50.2983 	 20.0399 	 80.9562
|  8> C 	 49.2538 	 20.5171 	 82.2419
|  9> C 	 48.8322 	 19.4531 	 82.9746
| 10> C 	 49.2515 	 18.2154 	 82.3777
| 11> C 	 50.1453 	 18.4135 	 81.3674
| 12> H 	 48.9099 	 17.2447 	 82.7284
| 13> C 	 47.8615 	 19.4663 	 84.1108
| 14> H 	 47.2764 	 18.6532 	 83.808
| 15> H 	 47.1237 	 20.2403 	 84.0798
| 16> C 	 48.3897 	 19.3239 	 85.5991
| 17> H 	 48.8103 	 20.2658 	 85.8914
| 18> H 	 47.5955 	 19.1529 	 86.3401
| 19> C 	 49.4408 	 18.206 	 85.783
| 20> H 	 50.2584 	 18.0719 	 85.0501
| 21> H 	 49.9698 	 18.4186 	 86.7205
| 22> H 	 48.85 	 17.3362 	 86.0629
| 23> S 	 50.3192 	 17.3333 	 78.8714
| 24> C 	 51.1867 	 15.8162 	 78.5777
| 25> C 	 51.622 	 15.2424 	 79.7829
| 26> C 	 51.2158 	 16.0661 	 80.9061
| 27> C 	 50.7155 	 17.3409 	 80.5398
| 28> H 	 52.1588 	 14.2897 	 79.7967
| 29> C 	 51.7335 	 15.6703 	 82.2719
| 30> H 	 52.0973 	 14.5925 	 82.3271
| 31> H 	 50.8731 	 15.8192 	 82.9857
| 32> C 	 52.8898 	 16.5229 	 82.7485
| 33> H 	 53.0761 	 16.4032 	 83.7566
| 34> H 	 52.6286 	 17.5365 	 82.6508
| 35> C 	 54.236 	 16.3322 	 82.0412
| 36> H 	 54.6107 	 15.2856 	 82.2802
| 37> H 	 54.9333 	 17.0922 	 82.4278
| 38> H 	 54.1759 	 16.4303 	 81.0059
| 39> H 	 49.0814 	 21.6161 	 82.445
| 40> H 	 51.4091 	 15.365 	 77.6248
| 41> *
| 42>
| 43>                          ****END OF INPUT****

CARTESIAN COORDINATES (ANGSTROEM)
---------------------------------
  S     50.298300   20.039900   80.956200
  C     49.253800   20.517100   82.241900
  C     48.832200   19.453100   82.974600
  C     49.251500   18.215400   82.377700
  C     50.145300   18.413500   81.367400
  H     48.909900   17.244700   82.728400
  C     47.861500   19.466300   84.110800
  H     47.276400   18.653200   83.808000
  H     47.123700   20.240300   84.079800
  C     48.389700   19.323900   85.599100
  H     48.810300   20.265800   85.891400
  H     47.595500   19.152900   86.340100
  C     49.440800   18.206000   85.783000
  H     50.258400   18.071900   85.050100
  H     49.969800   18.418600   86.720500
  H     48.850000   17.336200   86.062900
  S     50.319200   17.333300   78.871400
  C     51.186700   15.816200   78.577700
  C     51.622000   15.242400   79.782900
  C     51.215800   16.066100   80.906100
  C     50.715500   17.340900   80.539800
  H     52.158800   14.289700   79.796700
  C     51.733500   15.670300   82.271900
  H     52.097300   14.592500   82.327100
  H     50.873100   15.819200   82.985700
  C     52.889800   16.522900   82.748500
  H     53.076100   16.403200   83.756600
  H     52.628600   17.536500   82.650800
  C     54.236000   16.332200   82.041200
  H     54.610700   15.285600   82.280200
  H     54.933300   17.092200   82.427800
  H     54.175900   16.430300   81.005900
  H     49.081400   21.616100   82.445000
  H     51.409100   15.365000   77.624800

 Total Charge           Charge          ....    0
 Multiplicity           Mult            ....    1
 Number of Electrons    NEL             ....  134
 Basis Dimension        Dim             ....  322

ORBITAL ENERGIES
----------------

  NO   OCC          E(Eh)            E(eV)
   0   2.0000     -88.966785     -2420.9093
   1   2.0000     -88.966557     -2420.9031
   2   2.0000     -10.327092      -281.0145
   3   2.0000     -10.324641      -280.9478
   4   2.0000     -10.318806      -280.7890
   5   2.0000     -10.314324      -280.6670
   6   2.0000     -10.305364      -280.4232
   7   2.0000     -10.299264      -280.2572
   8   2.0000     -10.299027      -280.2508
   9   2.0000     -10.294150      -280.1181
  10   2.0000     -10.292365      -280.0695
  11   2.0000     -10.291936      -280.0578
  12   2.0000     -10.286287      -279.9041
  13   2.0000     -10.278477      -279.6916
  14   2.0000     -10.271605      -279.5046
  15   2.0000     -10.267109      -279.3822
  16   2.0000      -8.083213      -219.9554
  17   2.0000      -8.081511      -219.9091
  18   2.0000      -6.041570      -164.3995
  19   2.0000      -6.040026      -164.3575
  20   2.0000      -6.037421      -164.2866
  21   2.0000      -6.035919      -164.2457
  22   2.0000      -6.034050      -164.1948
  23   2.0000      -6.032357      -164.1488
  24   2.0000      -1.017726       -27.6937
  25   2.0000      -0.986504       -26.8442
  26   2.0000      -0.911428       -24.8012
  27   2.0000      -0.908044       -24.7091
  28   2.0000      -0.869320       -23.6554
  29   2.0000      -0.852554       -23.1992
  30   2.0000      -0.843442       -22.9512
  31   2.0000      -0.814814       -22.1722
  32   2.0000      -0.785890       -21.3852
  33   2.0000      -0.769085       -20.9279
  34   2.0000      -0.706842       -19.2341
  35   2.0000      -0.705391       -19.1947
  36   2.0000      -0.683131       -18.5889
  37   2.0000      -0.664032       -18.0692
  38   2.0000      -0.641998       -17.4697
  39   2.0000      -0.618505       -16.8304
  40   2.0000      -0.587676       -15.9915
  41   2.0000      -0.571492       -15.5511
  42   2.0000      -0.555019       -15.1028
  43   2.0000      -0.549008       -14.9393
  44   2.0000      -0.546576       -14.8731
  45   2.0000      -0.540811       -14.7162
  46   2.0000      -0.515201       -14.0193
  47   2.0000      -0.510352       -13.8874
  48   2.0000      -0.502305       -13.6684
  49   2.0000      -0.497181       -13.5290
  50   2.0000      -0.488352       -13.2887
  51   2.0000      -0.475488       -12.9387
  52   2.0000      -0.470958       -12.8154
  53   2.0000      -0.466605       -12.6970
  54   2.0000      -0.462013       -12.5720
  55   2.0000      -0.451128       -12.2758
  56   2.0000      -0.437337       -11.9006
  57   2.0000      -0.436936       -11.8896
  58   2.0000      -0.433257       -11.7895
  59   2.0000      -0.426400       -11.6029
  60   2.0000      -0.415101       -11.2955
  61   2.0000      -0.412721       -11.2307
  62   2.0000      -0.411465       -11.1965
  63   2.0000      -0.348101        -9.4723
  64   2.0000      -0.332329        -9.0431
  65   2.0000      -0.327367        -8.9081
  66   2.0000      -0.293725        -7.9927
  67   0.0000       0.029412         0.8003
  68   0.0000       0.075695         2.0598
  69   0.0000       0.110827         3.0157
  70   0.0000       0.121368         3.3026
  71   0.0000       0.125952         3.4273

MULLIKEN ATOMIC CHARGES
-----------------------
   0 S :    0.116622
   1 C :   -0.154382
   2 C :   -0.088187
   3 C :    0.010929
   4 C :   -0.145551
   5 H :    0.023529
   6 C :    0.098750
   7 H :    0.006810
   8 H :    0.012031
   9 C :   -0.053167
  10 H :    0.021566
  11 H :    0.031024
  12 C :   -0.079614
  13 H :    0.064365
  14 H :    0.022649
  15 H :    0.030965
  16 S :    0.114348
  17 C :   -0.092593
  18 C :   -0.042904
  19 C :   -0.049983
  20 C :   -0.128527
  21 H :    0.033195
  22 C :    0.028235
  23 H :    0.029900
  24 H :    0.028528
  25 C :   -0.020291
  26 H :    0.006320
  27 H :    0.015552
  28 C :   -0.056793
  29 H :    0.025065
  30 H :    0.038251
  31 H :    0.028346
  32 H :    0.072273
  33 H :    0.052742
Sum of atomic charges:    0.0000000

LOEWDIN ATOMIC CHARGES
----------------------
   0 S :    0.440938
   1 C :   -0.208521
   2 C :   -0.065780
   3 C :   -0.058297
   4 C :   -0.221165
   5 H :    0.032395
   6 C :   -0.032266
   7 H :    0.027249
   8 H :    0.027395
   9 C :   -0.031642
  10 H :    0.016911
  11 H :    0.028900
  12 C :   -0.078211
  13 H :    0.031562
  14 H :    0.028532
  15 H :    0.026705
  16 S :    0.420554
  17 C :   -0.184395
  18 C :   -0.068832
  19 C :   -0.059592
  20 C :   -0.214276
  21 H :    0.036946
  22 C :   -0.038397
  23 H :    0.033918
  24 H :    0.033600
  25 C :   -0.036202
  26 H :    0.014096
  27 H :    0.018083
  28 C :   -0.058442
  29 H :    0.025930
  30 H :    0.031083
  31 H :    0.013663
  32 H :    0.040328
  33 H :    0.027230

  Mayer bond orders larger than 0.100000
B(  0-S ,  1-C ) :   1.1439 B(  0-S ,  4-C ) :   1.1720 B(  1-C ,  2-C ) :   1.6139
B(  1-C , 32-H ) :   0.9625 B(  2-C ,  3-C ) :   1.2421 B(  2-C ,  6-C ) :   1.0047
B(  3-C ,  4-C ) :   1.5653 B(  3-C ,  5-H ) :   0.9909 B(  4-C , 20-C ) :   1.0060
B(  6-C ,  7-H ) :   0.9362 B(  6-C ,  8-H ) :   0.9464 B(  6-C ,  9-C ) :   1.0505
B(  9-C , 10-H ) :   0.9626 B(  9-C , 11-H ) :   0.9583 B(  9-C , 12-C ) :   1.0799
B( 12-C , 13-H ) :   0.9701 B( 12-C , 14-H ) :   0.9704 B( 12-C , 15-H ) :   0.9793
B( 16-S , 17-C ) :   1.1598 B( 16-S , 20-C ) :   1.1646 B( 17-C , 18-C ) :   1.5911
B( 17-C , 20-C ) :   0.1074 B( 17-C , 33-H ) :   0.9694 B( 18-C , 19-C ) :   1.2490
B( 18-C , 21-H ) :   0.9879 B( 19-C , 20-C ) :   1.5562 B( 19-C , 22-C ) :   1.0578
B( 22-C , 23-H ) :   0.9444 B( 22-C , 24-H ) :   0.9223 B( 22-C , 25-C ) :   1.0824
B( 25-C , 26-H ) :   0.9502 B( 25-C , 27-H ) :   0.9494 B( 25-C , 28-C ) :   1.0796
B( 28-C , 29-H ) :   0.9747 B( 28-C , 30-H ) :   0.9726 B( 28-C , 31-H ) :   0.9776

Dispersion correction           -0.015611401
FINAL SINGLE POINT ENERGY     -1339.868046551593

DIPOLE MOMENT
-------------
                                X             Y             Z
Electronic contribution:     -5.34056       7.33176     -24.99735
Nuclear contribution   :      5.22897      -7.49484      25.56229
                        -----------------------------------------
Total Dipole Moment    :     -0.11159      -0.16308       0.56494
                        -----------------------------------------
Magnitude (a.u.)       :      0.59850
Magnitude (Debye)      :      1.52127

Rotational constants in cm-1:     0.019583     0.009632     0.007643
Rotational constants in MHz :   587.086523   288.766169   229.130600

                             ****ORCA TERMINATED NORMALLY****
TOTAL RUN TIME: 0 days 0 hours 0 minutes 32 seconds 314 msec
