                         Program Version 4.2.1 -  RELEASE  -
|  1> ! wB97X-D3 SP def2-SVP
|  2> %pal
|  3> nprocs 16
|  4> end
|  5>
|  6> * xyz 0 1
|  7> S 	 -92.9606 	 62.1539 	 122.746
|  8> C 	 -93.2109 	 61.0603 	 121.408
|  9> C 	 -92.5414 	 59.8831 	 121.665
| 10> C 	 -91.763 	 59.9321 	 122.835
| 11> C 	 -91.9962 	 61.0624 	 123.622
| 12> H 	 -91.1929 	 59.117 	 123.251
| 13> C 	 -92.4591 	 58.7229 	 120.661
| 14> H 	 -91.4646 	 58.8846 	 120.167
| 15> H 	 -93.167 	 58.8835 	 119.807
| 16> C 	 -92.7797 	 57.3397 	 121.24
| 17> H 	 -92.4127 	 57.2627 	 122.206
| 18> H 	 -93.81 	 57.1033 	 121.186
| 19> C 	 -92.094 	 56.1551 	 120.512
| 20> H 	 -90.999 	 56.4726 	 120.472
| 21> H 	 -92.2453 	 55.1739 	 121.049
| 22> H 	 -92.5961 	 56.0289 	 119.577
| 23> S 	 -92.5083 	 62.3676 	 126.012
| 24> C 	 -91.0999 	 62.6624 	 127.122
| 25> C 	 -89.9449 	 62.0208 	 126.701
| 26> C 	 -90.1692 	 61.3236 	 125.463
| 27> C 	 -91.4384 	 61.4172 	 124.961
| 28> H 	 -88.9843 	 62.0942 	 127.252
| 29> C 	 -89.0058 	 60.6749 	 124.683
| 30> H 	 -89.2913 	 59.9547 	 123.963
| 31> H 	 -88.6542 	 59.9749 	 125.423
| 32> C 	 -87.9158 	 61.6214 	 124.206
| 33> H 	 -87.7166 	 62.4187 	 124.942
| 34> H 	 -88.0798 	 62.0797 	 123.283
| 35> C 	 -86.5251 	 60.9159 	 123.974
| 36> H 	 -86.3315 	 60.2315 	 124.785
| 37> H 	 -85.7477 	 61.7578 	 124.048
| 38> H 	 -86.4899 	 60.3094 	 123.063
| 39> H 	 -93.77 	 61.3325 	 120.539
| 40> H 	 -91.0245 	 63.2899 	 127.955
| 41> *
| 42>
| 43>                          ****END OF INPUT****

CARTESIAN COORDINATES (ANGSTROEM)
---------------------------------
  S    -92.960600   62.153900  122.746000
  C    -93.210900   61.060300  121.408000
  C    -92.541400   59.883100  121.665000
  C    -91.763000   59.932100  122.835000
  C    -91.996200   61.062400  123.622000
  H    -91.192900   59.117000  123.251000
  C    -92.459100   58.722900  120.661000
  H    -91.464600   58.884600  120.167000
  H    -93.167000   58.883500  119.807000
  C    -92.779700   57.339700  121.240000
  H    -92.412700   57.262700  122.206000
  H    -93.810000   57.103300  121.186000
  C    -92.094000   56.155100  120.512000
  H    -90.999000   56.472600  120.472000
  H    -92.245300   55.173900  121.049000
  H    -92.596100   56.028900  119.577000
  S    -92.508300   62.367600  126.012000
  C    -91.099900   62.662400  127.122000
  C    -89.944900   62.020800  126.701000
  C    -90.169200   61.323600  125.463000
  C    -91.438400   61.417200  124.961000
  H    -88.984300   62.094200  127.252000
  C    -89.005800   60.674900  124.683000
  H    -89.291300   59.954700  123.963000
  H    -88.654200   59.974900  125.423000
  C    -87.915800   61.621400  124.206000
  H    -87.716600   62.418700  124.942000
  H    -88.079800   62.079700  123.283000
  C    -86.525100   60.915900  123.974000
  H    -86.331500   60.231500  124.785000
  H    -85.747700   61.757800  124.048000
  H    -86.489900   60.309400  123.063000
  H    -93.770000   61.332500  120.539000
  H    -91.024500   63.289900  127.955000

 Total Charge           Charge          ....    0
 Multiplicity           Mult            ....    1
 Number of Electrons    NEL             ....  134
 Basis Dimension        Dim             ....  322

ORBITAL ENERGIES
----------------

  NO   OCC          E(Eh)            E(eV)
   0   2.0000     -88.968640     -2420.9598
   1   2.0000     -88.964334     -2420.8426
   2   2.0000     -10.331122      -281.1241
   3   2.0000     -10.330701      -281.1127
   4   2.0000     -10.321418      -280.8601
   5   2.0000     -10.310604      -280.5658
   6   2.0000     -10.305543      -280.4281
   7   2.0000     -10.302357      -280.3414
   8   2.0000     -10.300722      -280.2969
   9   2.0000     -10.299455      -280.2624
  10   2.0000     -10.290705      -280.0243
  11   2.0000     -10.288212      -279.9565
  12   2.0000     -10.284550      -279.8568
  13   2.0000     -10.284403      -279.8528
  14   2.0000     -10.284109      -279.8448
  15   2.0000     -10.277915      -279.6763
  16   2.0000      -8.081841      -219.9181
  17   2.0000      -8.080005      -219.8681
  18   2.0000      -6.040570      -164.3723
  19   2.0000      -6.038327      -164.3112
  20   2.0000      -6.036697      -164.2669
  21   2.0000      -6.034193      -164.1987
  22   2.0000      -6.032305      -164.1474
  23   2.0000      -6.031080      -164.1140
  24   2.0000      -1.008934       -27.4545
  25   2.0000      -0.982108       -26.7245
  26   2.0000      -0.910943       -24.7880
  27   2.0000      -0.905152       -24.6304
  28   2.0000      -0.869441       -23.6587
  29   2.0000      -0.849653       -23.1202
  30   2.0000      -0.843319       -22.9479
  31   2.0000      -0.817224       -22.2378
  32   2.0000      -0.779662       -21.2157
  33   2.0000      -0.770309       -20.9612
  34   2.0000      -0.706834       -19.2339
  35   2.0000      -0.701558       -19.0904
  36   2.0000      -0.693681       -18.8760
  37   2.0000      -0.661987       -18.0136
  38   2.0000      -0.644814       -17.5463
  39   2.0000      -0.623632       -16.9699
  40   2.0000      -0.595853       -16.2140
  41   2.0000      -0.571942       -15.5633
  42   2.0000      -0.565705       -15.3936
  43   2.0000      -0.558550       -15.1989
  44   2.0000      -0.532178       -14.4813
  45   2.0000      -0.524371       -14.2688
  46   2.0000      -0.516897       -14.0655
  47   2.0000      -0.511449       -13.9172
  48   2.0000      -0.506794       -13.7906
  49   2.0000      -0.499210       -13.5842
  50   2.0000      -0.493604       -13.4317
  51   2.0000      -0.475405       -12.9364
  52   2.0000      -0.470745       -12.8096
  53   2.0000      -0.464381       -12.6365
  54   2.0000      -0.457896       -12.4600
  55   2.0000      -0.450968       -12.2715
  56   2.0000      -0.448952       -12.2166
  57   2.0000      -0.440651       -11.9907
  58   2.0000      -0.429990       -11.7006
  59   2.0000      -0.427257       -11.6262
  60   2.0000      -0.419952       -11.4275
  61   2.0000      -0.408431       -11.1140
  62   2.0000      -0.403671       -10.9845
  63   2.0000      -0.351556        -9.5663
  64   2.0000      -0.334405        -9.0996
  65   2.0000      -0.331250        -9.0138
  66   2.0000      -0.290606        -7.9078
  67   0.0000       0.027824         0.7571
  68   0.0000       0.075180         2.0458
  69   0.0000       0.103811         2.8248
  70   0.0000       0.119668         3.2563
  71   0.0000       0.137564         3.7433

MULLIKEN ATOMIC CHARGES
-----------------------
   0 S :    0.110385
   1 C :   -0.130920
   2 C :   -0.065782
   3 C :    0.003570
   4 C :   -0.127230
   5 H :    0.018772
   6 C :    0.027183
   7 H :    0.050322
   8 H :    0.021967
   9 C :   -0.031720
  10 H :    0.015621
  11 H :    0.028669
  12 C :   -0.094103
  13 H :    0.044864
  14 H :    0.044484
  15 H :    0.029575
  16 S :    0.093282
  17 C :   -0.062441
  18 C :   -0.051597
  19 C :   -0.055325
  20 C :   -0.138795
  21 H :    0.040545
  22 C :    0.111172
  23 H :   -0.008583
  24 H :    0.012719
  25 C :   -0.043436
  26 H :    0.028128
  27 H :    0.028953
  28 C :   -0.089984
  29 H :    0.020761
  30 H :    0.047484
  31 H :    0.042794
  32 H :    0.043870
  33 H :    0.034795
Sum of atomic charges:   -0.0000000

LOEWDIN ATOMIC CHARGES
----------------------
   0 S :    0.432577
   1 C :   -0.201476
   2 C :   -0.064011
   3 C :   -0.076548
   4 C :   -0.200565
   5 H :    0.025968
   6 C :   -0.035505
   7 H :    0.039261
   8 H :    0.032229
   9 C :   -0.035526
  10 H :    0.012377
  11 H :    0.023388
  12 C :   -0.066681
  13 H :    0.031541
  14 H :    0.031391
  15 H :    0.017230
  16 S :    0.365479
  17 C :   -0.154531
  18 C :   -0.067157
  19 C :   -0.055001
  20 C :   -0.187061
  21 H :    0.041684
  22 C :   -0.031471
  23 H :    0.022526
  24 H :    0.032162
  25 C :   -0.032658
  26 H :    0.026171
  27 H :    0.020540
  28 C :   -0.068175
  29 H :    0.015911
  30 H :    0.036869
  31 H :    0.024221
  32 H :    0.025391
  33 H :    0.019448

  Mayer bond orders larger than 0.100000
B(  0-S ,  1-C ) :   1.1459 B(  0-S ,  4-C ) :   1.1900 B(  1-C ,  2-C ) :   1.5741
B(  1-C ,  4-C ) :   0.1037 B(  1-C , 32-H ) :   0.9793 B(  2-C ,  3-C ) :   1.2765
B(  2-C ,  6-C ) :   1.0169 B(  3-C ,  4-C ) :   1.5428 B(  3-C ,  5-H ) :   0.9847
B(  4-C , 20-C ) :   1.0240 B(  6-C ,  7-H ) :   0.9489 B(  6-C ,  8-H ) :   0.9450
B(  6-C ,  9-C ) :   1.0451 B(  9-C , 10-H ) :   0.9675 B(  9-C , 11-H ) :   0.9560
B(  9-C , 12-C ) :   1.0741 B( 12-C , 13-H ) :   0.9794 B( 12-C , 14-H ) :   0.9750
B( 12-C , 15-H ) :   0.9791 B( 16-S , 17-C ) :   1.1255 B( 16-S , 20-C ) :   1.1081
B( 17-C , 18-C ) :   1.6546 B( 17-C , 33-H ) :   0.9696 B( 18-C , 19-C ) :   1.2144
B( 18-C , 21-H ) :   0.9792 B( 19-C , 20-C ) :   1.6518 B( 19-C , 22-C ) :   1.0283
B( 22-C , 23-H ) :   0.9305 B( 22-C , 24-H ) :   0.9284 B( 22-C , 25-C ) :   1.0582
B( 25-C , 26-H ) :   0.9626 B( 25-C , 27-H ) :   0.9575 B( 25-C , 28-C ) :   1.0658
B( 28-C , 29-H ) :   0.9791 B( 28-C , 30-H ) :   0.9777 B( 28-C , 31-H ) :   0.9791

Dispersion correction           -0.013428563
FINAL SINGLE POINT ENERGY     -1339.861917700008

DIPOLE MOMENT
-------------
                                X             Y             Z
Electronic contribution:    -18.41752      20.05753      12.42557
Nuclear contribution   :     18.92732     -20.38235     -12.61363
                        -----------------------------------------
Total Dipole Moment    :      0.50981      -0.32482      -0.18806
                        -----------------------------------------
Magnitude (a.u.)       :      0.63307
Magnitude (Debye)      :      1.60914

Rotational constants in cm-1:     0.016799     0.008464     0.006521
Rotational constants in MHz :   503.625939   253.741465   195.488569

                             ****ORCA TERMINATED NORMALLY****
TOTAL RUN TIME: 0 days 0 hours 0 minutes 34 seconds 247 msec
