                         Program Version 4.2.1 -  RELEASE  -
|  1> ! wB97X-D3 SP def2-SVP
|  2> %pal
|  3> nprocs 16
|  4> end
|  5>
|  6> * xyz 0 1
|  7> S 	 -42.7879 	 24.0497 	 80.2791
|  8> C 	 -43.6655 	 25.5369 	 80.5559
|  9> C 	 -45.0187 	 25.261 	 80.7588
| 10> C 	 -45.3022 	 23.8506 	 80.6909
| 11> C 	 -44.2588 	 23.029 	 80.6381
| 12> H 	 -46.3355 	 23.4592 	 80.7002
| 13> C 	 -46.1713 	 26.1854 	 80.8597
| 14> H 	 -47.1305 	 25.6511 	 80.5651
| 15> H 	 -46.0321 	 27.0167 	 80.2369
| 16> C 	 -46.4075 	 26.6521 	 82.3256
| 17> H 	 -46.5952 	 25.7101 	 82.9525
| 18> H 	 -45.5654 	 27.2229 	 82.675
| 19> C 	 -47.6289 	 27.5823 	 82.4768
| 20> H 	 -47.5136 	 28.6278 	 82.0975
| 21> H 	 -48.5143 	 27.1307 	 81.9237
| 22> H 	 -47.9722 	 27.7244 	 83.5059
| 23> S 	 -44.5553 	 20.7994 	 78.8912
| 24> C 	 -44.6452 	 19.2437 	 79.5931
| 25> C 	 -44.4322 	 19.2955 	 80.9437
| 26> C 	 -44.3529 	 20.61 	 81.4465
| 27> C 	 -44.4003 	 21.5678 	 80.4614
| 28> H 	 -44.3808 	 18.3652 	 81.5172
| 29> C 	 -44.2137 	 21 	 82.9374
| 30> H 	 -44.9392 	 21.7802 	 83.2518
| 31> H 	 -43.1754 	 21.5425 	 82.9138
| 32> C 	 -44.3487 	 19.8979 	 83.9525
| 33> H 	 -43.5071 	 19.1576 	 83.8778
| 34> H 	 -45.229 	 19.3633 	 83.5942
| 35> C 	 -44.3957 	 20.4081 	 85.4336
| 36> H 	 -44.8995 	 19.6502 	 86.1223
| 37> H 	 -44.9414 	 21.2908 	 85.6101
| 38> H 	 -43.3249 	 20.5402 	 85.7143
| 39> H 	 -43.325 	 26.5216 	 80.5722
| 40> H 	 -44.6314 	 18.374 	 78.9966
| 41> *
| 42>
| 43>                          ****END OF INPUT****

CARTESIAN COORDINATES (ANGSTROEM)
---------------------------------
  S    -42.787900   24.049700   80.279100
  C    -43.665500   25.536900   80.555900
  C    -45.018700   25.261000   80.758800
  C    -45.302200   23.850600   80.690900
  C    -44.258800   23.029000   80.638100
  H    -46.335500   23.459200   80.700200
  C    -46.171300   26.185400   80.859700
  H    -47.130500   25.651100   80.565100
  H    -46.032100   27.016700   80.236900
  C    -46.407500   26.652100   82.325600
  H    -46.595200   25.710100   82.952500
  H    -45.565400   27.222900   82.675000
  C    -47.628900   27.582300   82.476800
  H    -47.513600   28.627800   82.097500
  H    -48.514300   27.130700   81.923700
  H    -47.972200   27.724400   83.505900
  S    -44.555300   20.799400   78.891200
  C    -44.645200   19.243700   79.593100
  C    -44.432200   19.295500   80.943700
  C    -44.352900   20.610000   81.446500
  C    -44.400300   21.567800   80.461400
  H    -44.380800   18.365200   81.517200
  C    -44.213700   21.000000   82.937400
  H    -44.939200   21.780200   83.251800
  H    -43.175400   21.542500   82.913800
  C    -44.348700   19.897900   83.952500
  H    -43.507100   19.157600   83.877800
  H    -45.229000   19.363300   83.594200
  C    -44.395700   20.408100   85.433600
  H    -44.899500   19.650200   86.122300
  H    -44.941400   21.290800   85.610100
  H    -43.324900   20.540200   85.714300
  H    -43.325000   26.521600   80.572200
  H    -44.631400   18.374000   78.996600

 Total Charge           Charge          ....    0
 Multiplicity           Mult            ....    1
 Number of Electrons    NEL             ....  134
 Basis Dimension        Dim             ....  322

ORBITAL ENERGIES
----------------

  NO   OCC          E(Eh)            E(eV)
   0   2.0000     -88.965982     -2420.8874
   1   2.0000     -88.964490     -2420.8469
   2   2.0000     -10.327923      -281.0371
   3   2.0000     -10.321676      -280.8671
   4   2.0000     -10.315544      -280.7002
   5   2.0000     -10.311098      -280.5792
   6   2.0000     -10.301322      -280.3132
   7   2.0000     -10.298206      -280.2284
   8   2.0000     -10.297502      -280.2093
   9   2.0000     -10.293906      -280.1114
  10   2.0000     -10.291677      -280.0508
  11   2.0000     -10.291455      -280.0447
  12   2.0000     -10.290345      -280.0145
  13   2.0000     -10.290310      -280.0136
  14   2.0000     -10.285527      -279.8834
  15   2.0000     -10.285452      -279.8814
  16   2.0000      -8.079914      -219.8656
  17   2.0000      -8.079353      -219.8504
  18   2.0000      -6.038293      -164.3103
  19   2.0000      -6.038193      -164.3076
  20   2.0000      -6.034264      -164.2007
  21   2.0000      -6.034125      -164.1969
  22   2.0000      -6.030835      -164.1074
  23   2.0000      -6.029750      -164.0778
  24   2.0000      -1.007541       -27.4166
  25   2.0000      -0.986167       -26.8350
  26   2.0000      -0.909942       -24.7608
  27   2.0000      -0.906338       -24.6627
  28   2.0000      -0.871721       -23.7207
  29   2.0000      -0.847256       -23.0550
  30   2.0000      -0.844543       -22.9812
  31   2.0000      -0.817629       -22.2488
  32   2.0000      -0.777790       -21.1647
  33   2.0000      -0.768204       -20.9039
  34   2.0000      -0.704910       -19.1816
  35   2.0000      -0.700933       -19.0734
  36   2.0000      -0.695054       -18.9134
  37   2.0000      -0.650154       -17.6916
  38   2.0000      -0.639939       -17.4136
  39   2.0000      -0.620493       -16.8845
  40   2.0000      -0.601307       -16.3624
  41   2.0000      -0.571731       -15.5576
  42   2.0000      -0.566864       -15.4252
  43   2.0000      -0.563657       -15.3379
  44   2.0000      -0.524219       -14.2647
  45   2.0000      -0.518196       -14.1008
  46   2.0000      -0.514757       -14.0073
  47   2.0000      -0.510295       -13.8858
  48   2.0000      -0.502223       -13.6662
  49   2.0000      -0.496868       -13.5205
  50   2.0000      -0.495041       -13.4708
  51   2.0000      -0.480580       -13.0772
  52   2.0000      -0.467141       -12.7116
  53   2.0000      -0.462908       -12.5964
  54   2.0000      -0.459676       -12.5084
  55   2.0000      -0.448706       -12.2099
  56   2.0000      -0.443040       -12.0557
  57   2.0000      -0.430115       -11.7040
  58   2.0000      -0.426841       -11.6149
  59   2.0000      -0.426562       -11.6073
  60   2.0000      -0.421835       -11.4787
  61   2.0000      -0.418505       -11.3881
  62   2.0000      -0.412059       -11.2127
  63   2.0000      -0.339127        -9.2281
  64   2.0000      -0.331639        -9.0244
  65   2.0000      -0.315577        -8.5873
  66   2.0000      -0.312166        -8.4945
  67   0.0000       0.043644         1.1876
  68   0.0000       0.049667         1.3515
  69   0.0000       0.108642         2.9563
  70   0.0000       0.130818         3.5597
  71   0.0000       0.134205         3.6519

MULLIKEN ATOMIC CHARGES
-----------------------
   0 S :    0.098107
   1 C :   -0.075569
   2 C :   -0.085017
   3 C :    0.011826
   4 C :   -0.138935
   5 H :    0.028803
   6 C :    0.064150
   7 H :    0.033022
   8 H :    0.014690
   9 C :   -0.088305
  10 H :    0.043844
  11 H :    0.031080
  12 C :   -0.074606
  13 H :    0.038216
  14 H :    0.028391
  15 H :    0.037206
  16 S :    0.120349
  17 C :   -0.072715
  18 C :   -0.059682
  19 C :   -0.029676
  20 C :   -0.189387
  21 H :    0.023794
  22 C :    0.036842
  23 H :    0.037949
  24 H :    0.051116
  25 C :   -0.092785
  26 H :    0.037182
  27 H :    0.031927
  28 C :   -0.044930
  29 H :    0.044095
  30 H :    0.026322
  31 H :    0.046665
  32 H :    0.020951
  33 H :    0.045081
Sum of atomic charges:    0.0000000

LOEWDIN ATOMIC CHARGES
----------------------
   0 S :    0.372196
   1 C :   -0.181196
   2 C :   -0.065854
   3 C :   -0.054442
   4 C :   -0.176713
   5 H :    0.037833
   6 C :   -0.031556
   7 H :    0.037947
   8 H :    0.021142
   9 C :   -0.040210
  10 H :    0.034295
  11 H :    0.020401
  12 C :   -0.080974
  13 H :    0.027385
  14 H :    0.027151
  15 H :    0.025859
  16 S :    0.424712
  17 C :   -0.186417
  18 C :   -0.082147
  19 C :   -0.053687
  20 C :   -0.208218
  21 H :    0.034773
  22 C :   -0.042184
  23 H :    0.035041
  24 H :    0.044165
  25 C :   -0.052995
  26 H :    0.027600
  27 H :    0.022694
  28 C :   -0.064896
  29 H :    0.036181
  30 H :    0.015725
  31 H :    0.034704
  32 H :    0.019819
  33 H :    0.021867

  Mayer bond orders larger than 0.100000
B(  0-S ,  1-C ) :   1.1341 B(  0-S ,  4-C ) :   1.0951 B(  1-C ,  2-C ) :   1.6188
B(  1-C , 32-H ) :   0.9747 B(  2-C ,  3-C ) :   1.2263 B(  2-C ,  6-C ) :   1.0332
B(  3-C ,  4-C ) :   1.6352 B(  3-C ,  5-H ) :   0.9823 B(  4-C , 20-C ) :   1.0314
B(  6-C ,  7-H ) :   0.9429 B(  6-C ,  8-H ) :   0.9369 B(  6-C ,  9-C ) :   1.0593
B(  9-C , 10-H ) :   0.9558 B(  9-C , 11-H ) :   0.9584 B(  9-C , 12-C ) :   1.0789
B( 12-C , 13-H ) :   0.9745 B( 12-C , 14-H ) :   0.9724 B( 12-C , 15-H ) :   0.9754
B( 16-S , 17-C ) :   1.1842 B( 16-S , 20-C ) :   1.1482 B( 17-C , 18-C ) :   1.5759
B( 17-C , 33-H ) :   0.9675 B( 18-C , 19-C ) :   1.2746 B( 18-C , 21-H ) :   0.9894
B( 19-C , 20-C ) :   1.5988 B( 19-C , 22-C ) :   1.0219 B( 22-C , 23-H ) :   0.9376
B( 22-C , 24-H ) :   0.9235 B( 22-C , 25-C ) :   1.0713 B( 25-C , 26-H ) :   0.9514
B( 25-C , 27-H ) :   0.9526 B( 25-C , 28-C ) :   1.0674 B( 28-C , 29-H ) :   0.9754
B( 28-C , 30-H ) :   0.9782 B( 28-C , 31-H ) :   0.9774

Dispersion correction           -0.013591695
FINAL SINGLE POINT ENERGY     -1339.872240798020

DIPOLE MOMENT
-------------
                                X             Y             Z
Electronic contribution:     13.00838      -8.39798     -23.56620
Nuclear contribution   :    -13.38774       8.49434      23.94634
                        -----------------------------------------
Total Dipole Moment    :     -0.37936       0.09636       0.38013
                        -----------------------------------------
Magnitude (a.u.)       :      0.54562
Magnitude (Debye)      :      1.38685

Rotational constants in cm-1:     0.016597     0.008012     0.006472
Rotational constants in MHz :   497.559734   240.199114   194.034852

                             ****ORCA TERMINATED NORMALLY****
TOTAL RUN TIME: 0 days 0 hours 0 minutes 27 seconds 210 msec
