                         Program Version 4.2.1 -  RELEASE  -
|  1> ! wB97X-D3 SP def2-SVP
|  2> %pal
|  3> nprocs 16
|  4> end
|  5>
|  6> * xyz 0 1
|  7> S 	 56.5861 	 15.1694 	 57.8196
|  8> C 	 57.346 	 16.3536 	 58.8989
|  9> C 	 57.7239 	 15.7352 	 60.1141
| 10> C 	 57.5176 	 14.3118 	 60.0709
| 11> C 	 56.9626 	 13.8371 	 58.9275
| 12> H 	 57.8596 	 13.5248 	 60.7438
| 13> C 	 58.3898 	 16.5207 	 61.2266
| 14> H 	 59.2732 	 16.931 	 60.7958
| 15> H 	 58.7403 	 15.8581 	 62.0815
| 16> C 	 57.6591 	 17.8005 	 61.8181
| 17> H 	 58.2653 	 18.3143 	 62.5001
| 18> H 	 57.4351 	 18.4974 	 61.0247
| 19> C 	 56.3395 	 17.4611 	 62.4432
| 20> H 	 55.725 	 16.8487 	 61.8766
| 21> H 	 56.4437 	 16.8894 	 63.3091
| 22> H 	 55.6953 	 18.2818 	 62.532
| 23> S 	 55.1316 	 11.9533 	 58.2301
| 24> C 	 55.6361 	 10.3047 	 58.0335
| 25> C 	 56.9392 	 10.1276 	 58.2473
| 26> C 	 57.6065 	 11.3358 	 58.6597
| 27> C 	 56.7801 	 12.4175 	 58.613
| 28> H 	 57.4205 	 9.15089 	 58.1042
| 29> C 	 59.0778 	 11.3803 	 58.8793
| 30> H 	 59.4109 	 10.6234 	 59.5443
| 31> H 	 59.4179 	 12.1437 	 59.6135
| 32> C 	 59.9535 	 11.1981 	 57.5946
| 33> H 	 59.5483 	 10.3416 	 56.994
| 34> H 	 60.901 	 10.8632 	 57.8954
| 35> C 	 60.2392 	 12.4583 	 56.8054
| 36> H 	 60.863 	 12.2554 	 55.8974
| 37> H 	 60.8303 	 13.163 	 57.3776
| 38> H 	 59.2977 	 12.8789 	 56.5196
| 39> H 	 57.5039 	 17.3609 	 58.4897
| 40> H 	 55.0764 	 9.41373 	 57.8843
| 41> *
| 42>
| 43>                          ****END OF INPUT****

CARTESIAN COORDINATES (ANGSTROEM)
---------------------------------
  S     56.586100   15.169400   57.819600
  C     57.346000   16.353600   58.898900
  C     57.723900   15.735200   60.114100
  C     57.517600   14.311800   60.070900
  C     56.962600   13.837100   58.927500
  H     57.859600   13.524800   60.743800
  C     58.389800   16.520700   61.226600
  H     59.273200   16.931000   60.795800
  H     58.740300   15.858100   62.081500
  C     57.659100   17.800500   61.818100
  H     58.265300   18.314300   62.500100
  H     57.435100   18.497400   61.024700
  C     56.339500   17.461100   62.443200
  H     55.725000   16.848700   61.876600
  H     56.443700   16.889400   63.309100
  H     55.695300   18.281800   62.532000
  S     55.131600   11.953300   58.230100
  C     55.636100   10.304700   58.033500
  C     56.939200   10.127600   58.247300
  C     57.606500   11.335800   58.659700
  C     56.780100   12.417500   58.613000
  H     57.420500    9.150890   58.104200
  C     59.077800   11.380300   58.879300
  H     59.410900   10.623400   59.544300
  H     59.417900   12.143700   59.613500
  C     59.953500   11.198100   57.594600
  H     59.548300   10.341600   56.994000
  H     60.901000   10.863200   57.895400
  C     60.239200   12.458300   56.805400
  H     60.863000   12.255400   55.897400
  H     60.830300   13.163000   57.377600
  H     59.297700   12.878900   56.519600
  H     57.503900   17.360900   58.489700
  H     55.076400    9.413730   57.884300

 Total Charge           Charge          ....    0
 Multiplicity           Mult            ....    1
 Number of Electrons    NEL             ....  134
 Basis Dimension        Dim             ....  322

ORBITAL ENERGIES
----------------

  NO   OCC          E(Eh)            E(eV)
   0   2.0000     -88.964784     -2420.8548
   1   2.0000     -88.962913     -2420.8039
   2   2.0000     -10.327437      -281.0238
   3   2.0000     -10.325046      -280.9588
   4   2.0000     -10.322767      -280.8968
   5   2.0000     -10.312514      -280.6178
   6   2.0000     -10.307826      -280.4902
   7   2.0000     -10.300712      -280.2966
   8   2.0000     -10.296893      -280.1927
   9   2.0000     -10.294383      -280.1244
  10   2.0000     -10.288980      -279.9774
  11   2.0000     -10.288559      -279.9659
  12   2.0000     -10.284247      -279.8486
  13   2.0000     -10.282341      -279.7967
  14   2.0000     -10.269863      -279.4572
  15   2.0000     -10.253068      -279.0002
  16   2.0000      -8.078906      -219.8382
  17   2.0000      -8.078170      -219.8182
  18   2.0000      -6.037506      -164.2889
  19   2.0000      -6.036788      -164.2694
  20   2.0000      -6.033399      -164.1771
  21   2.0000      -6.032703      -164.1582
  22   2.0000      -6.029703      -164.0766
  23   2.0000      -6.028676      -164.0486
  24   2.0000      -1.009020       -27.4568
  25   2.0000      -0.983277       -26.7563
  26   2.0000      -0.908568       -24.7234
  27   2.0000      -0.907542       -24.6955
  28   2.0000      -0.872384       -23.7388
  29   2.0000      -0.851961       -23.1830
  30   2.0000      -0.846320       -23.0295
  31   2.0000      -0.821060       -22.3422
  32   2.0000      -0.785130       -21.3645
  33   2.0000      -0.773748       -21.0548
  34   2.0000      -0.710332       -19.3291
  35   2.0000      -0.702321       -19.1111
  36   2.0000      -0.694798       -18.9064
  37   2.0000      -0.658981       -17.9318
  38   2.0000      -0.645766       -17.5722
  39   2.0000      -0.614420       -16.7192
  40   2.0000      -0.601927       -16.3793
  41   2.0000      -0.574566       -15.6347
  42   2.0000      -0.553476       -15.0609
  43   2.0000      -0.549809       -14.9611
  44   2.0000      -0.540770       -14.7151
  45   2.0000      -0.530237       -14.4285
  46   2.0000      -0.522072       -14.2063
  47   2.0000      -0.509530       -13.8650
  48   2.0000      -0.501286       -13.6407
  49   2.0000      -0.497449       -13.5363
  50   2.0000      -0.492699       -13.4070
  51   2.0000      -0.480480       -13.0745
  52   2.0000      -0.475407       -12.9365
  53   2.0000      -0.469677       -12.7805
  54   2.0000      -0.457881       -12.4596
  55   2.0000      -0.442809       -12.0495
  56   2.0000      -0.436959       -11.8903
  57   2.0000      -0.432379       -11.7656
  58   2.0000      -0.428417       -11.6578
  59   2.0000      -0.423744       -11.5307
  60   2.0000      -0.421813       -11.4781
  61   2.0000      -0.417621       -11.3640
  62   2.0000      -0.408608       -11.1188
  63   2.0000      -0.349593        -9.5129
  64   2.0000      -0.330130        -8.9833
  65   2.0000      -0.329922        -8.9776
  66   2.0000      -0.294898        -8.0246
  67   0.0000       0.035983         0.9791
  68   0.0000       0.065830         1.7913
  69   0.0000       0.114227         3.1083
  70   0.0000       0.122035         3.3207
  71   0.0000       0.131532         3.5792

MULLIKEN ATOMIC CHARGES
-----------------------
   0 S :    0.101484
   1 C :   -0.155413
   2 C :   -0.052718
   3 C :    0.032268
   4 C :   -0.144559
   5 H :    0.017075
   6 C :    0.035983
   7 H :    0.031277
   8 H :    0.034422
   9 C :   -0.040580
  10 H :    0.019871
  11 H :    0.015456
  12 C :    0.016201
  13 H :    0.003572
  14 H :    0.008314
  15 H :    0.012505
  16 S :    0.103938
  17 C :   -0.047030
  18 C :   -0.059872
  19 C :   -0.016142
  20 C :   -0.167015
  21 H :    0.025203
  22 C :    0.061290
  23 H :    0.000450
  24 H :    0.008835
  25 C :   -0.055054
  26 H :    0.032285
  27 H :    0.004100
  28 C :   -0.026070
  29 H :    0.033833
  30 H :    0.025831
  31 H :    0.030994
  32 H :    0.071540
  33 H :    0.037728
Sum of atomic charges:   -0.0000000

LOEWDIN ATOMIC CHARGES
----------------------
   0 S :    0.383505
   1 C :   -0.189200
   2 C :   -0.058355
   3 C :   -0.065195
   4 C :   -0.189700
   5 H :    0.035503
   6 C :   -0.034914
   7 H :    0.030882
   8 H :    0.035214
   9 C :   -0.026686
  10 H :    0.018330
  11 H :    0.021200
  12 C :   -0.059789
  13 H :    0.020753
  14 H :    0.017877
  15 H :    0.021816
  16 S :    0.401700
  17 C :   -0.183919
  18 C :   -0.071158
  19 C :   -0.059972
  20 C :   -0.188332
  21 H :    0.035952
  22 C :   -0.045068
  23 H :    0.029928
  24 H :    0.034976
  25 C :   -0.033983
  26 H :    0.029324
  27 H :    0.014468
  28 C :   -0.061893
  29 H :    0.030382
  30 H :    0.023740
  31 H :    0.020956
  32 H :    0.032509
  33 H :    0.029148

  Mayer bond orders larger than 0.100000
B(  0-S ,  1-C ) :   1.1416 B(  0-S ,  4-C ) :   1.1375 B(  1-C ,  2-C ) :   1.5770
B(  1-C ,  4-C ) :   0.1014 B(  1-C , 32-H ) :   0.9739 B(  2-C ,  3-C ) :   1.2137
B(  2-C ,  6-C ) :   1.0175 B(  3-C ,  4-C ) :   1.6150 B(  3-C ,  5-H ) :   0.9926
B(  4-C , 20-C ) :   1.0091 B(  6-C ,  7-H ) :   0.9365 B(  6-C ,  8-H ) :   0.9505
B(  6-C ,  9-C ) :   1.0757 B(  9-C , 10-H ) :   0.9564 B(  9-C , 11-H ) :   0.9539
B(  9-C , 12-C ) :   1.0860 B( 12-C , 13-H ) :   0.9658 B( 12-C , 14-H ) :   0.9718
B( 12-C , 15-H ) :   0.9693 B( 16-S , 17-C ) :   1.1282 B( 16-S , 20-C ) :   1.1291
B( 17-C , 18-C ) :   1.6737 B( 17-C , 33-H ) :   0.9618 B( 18-C , 19-C ) :   1.1987
B( 18-C , 21-H ) :   0.9840 B( 19-C , 20-C ) :   1.6468 B( 19-C , 22-C ) :   1.0675
B( 22-C , 23-H ) :   0.9134 B( 22-C , 24-H ) :   0.9257 B( 22-C , 25-C ) :   1.0678
B( 25-C , 26-H ) :   0.9546 B( 25-C , 27-H ) :   0.9499 B( 25-C , 28-C ) :   1.0856
B( 28-C , 29-H ) :   0.9716 B( 28-C , 30-H ) :   0.9734 B( 28-C , 31-H ) :   0.9772

Dispersion correction           -0.014822384
FINAL SINGLE POINT ENERGY     -1339.862458149262

DIPOLE MOMENT
-------------
                                X             Y             Z
Electronic contribution:    -16.77819      -7.03269     -10.16408
Nuclear contribution   :     17.40929       6.92258      10.49628
                        -----------------------------------------
Total Dipole Moment    :      0.63110      -0.11010       0.33220
                        -----------------------------------------
Magnitude (a.u.)       :      0.72164
Magnitude (Debye)      :      1.83427

Rotational constants in cm-1:     0.021416     0.008074     0.007075
Rotational constants in MHz :   642.020669   242.057410   212.098622

                             ****ORCA TERMINATED NORMALLY****
TOTAL RUN TIME: 0 days 0 hours 0 minutes 30 seconds 542 msec
