                         Program Version 4.2.1 -  RELEASE  -
|  1> ! wB97X-D3 SP def2-SVP
|  2> %pal
|  3> nprocs 16
|  4> end
|  5>
|  6> * xyz 0 1
|  7> S 	 48.1413 	 24.8286 	 44.9805
|  8> C 	 49.8221 	 24.4728 	 44.4833
|  9> C 	 50.6838 	 25.2152 	 45.2723
| 10> C 	 49.9564 	 25.9394 	 46.3228
| 11> C 	 48.6348 	 25.623 	 46.4102
| 12> H 	 50.4503 	 26.5947 	 46.9966
| 13> C 	 52.1297 	 25.3485 	 44.863
| 14> H 	 52.0194 	 25.5794 	 43.7933
| 15> H 	 52.7715 	 24.4441 	 44.8495
| 16> C 	 53.0224 	 26.2883 	 45.7341
| 17> H 	 52.5536 	 27.2857 	 45.734
| 18> H 	 53.1626 	 25.9995 	 46.8241
| 19> C 	 54.4582 	 26.4171 	 45.2167
| 20> H 	 54.9674 	 27.0776 	 45.8994
| 21> H 	 55.0163 	 25.423 	 45.3105
| 22> H 	 54.4478 	 26.8803 	 44.2432
| 23> S 	 47.286 	 27.9106 	 47.2915
| 24> C 	 45.9807 	 27.8915 	 48.4092
| 25> C 	 45.8096 	 26.6343 	 48.9611
| 26> C 	 46.6846 	 25.6422 	 48.2922
| 27> C 	 47.5554 	 26.1888 	 47.3149
| 28> H 	 44.9631 	 26.3815 	 49.5557
| 29> C 	 46.4512 	 24.104 	 48.5125
| 30> H 	 46.7691 	 23.7619 	 49.4937
| 31> H 	 47.1078 	 23.6206 	 47.8008
| 32> C 	 44.9537 	 23.698 	 48.2655
| 33> H 	 44.6538 	 24.1484 	 47.3118
| 34> H 	 44.4919 	 24.0971 	 49.1931
| 35> C 	 44.7565 	 22.2145 	 48.106
| 36> H 	 43.77 	 21.7526 	 47.8817
| 37> H 	 45.0175 	 21.5956 	 48.9562
| 38> H 	 45.3963 	 21.9019 	 47.3513
| 39> H 	 50.1136 	 24.0602 	 43.5399
| 40> H 	 45.5436 	 28.6827 	 48.8759
| 41> *
| 42>
| 43>                          ****END OF INPUT****

CARTESIAN COORDINATES (ANGSTROEM)
---------------------------------
  S     48.141300   24.828600   44.980500
  C     49.822100   24.472800   44.483300
  C     50.683800   25.215200   45.272300
  C     49.956400   25.939400   46.322800
  C     48.634800   25.623000   46.410200
  H     50.450300   26.594700   46.996600
  C     52.129700   25.348500   44.863000
  H     52.019400   25.579400   43.793300
  H     52.771500   24.444100   44.849500
  C     53.022400   26.288300   45.734100
  H     52.553600   27.285700   45.734000
  H     53.162600   25.999500   46.824100
  C     54.458200   26.417100   45.216700
  H     54.967400   27.077600   45.899400
  H     55.016300   25.423000   45.310500
  H     54.447800   26.880300   44.243200
  S     47.286000   27.910600   47.291500
  C     45.980700   27.891500   48.409200
  C     45.809600   26.634300   48.961100
  C     46.684600   25.642200   48.292200
  C     47.555400   26.188800   47.314900
  H     44.963100   26.381500   49.555700
  C     46.451200   24.104000   48.512500
  H     46.769100   23.761900   49.493700
  H     47.107800   23.620600   47.800800
  C     44.953700   23.698000   48.265500
  H     44.653800   24.148400   47.311800
  H     44.491900   24.097100   49.193100
  C     44.756500   22.214500   48.106000
  H     43.770000   21.752600   47.881700
  H     45.017500   21.595600   48.956200
  H     45.396300   21.901900   47.351300
  H     50.113600   24.060200   43.539900
  H     45.543600   28.682700   48.875900

 Total Charge           Charge          ....    0
 Multiplicity           Mult            ....    1
 Number of Electrons    NEL             ....  134
 Basis Dimension        Dim             ....  322

ORBITAL ENERGIES
----------------

  NO   OCC          E(Eh)            E(eV)
   0   2.0000     -88.965197     -2420.8661
   1   2.0000     -88.964014     -2420.8339
   2   2.0000     -10.335516      -281.2437
   3   2.0000     -10.334350      -281.2120
   4   2.0000     -10.314224      -280.6643
   5   2.0000     -10.313677      -280.6494
   6   2.0000     -10.311531      -280.5910
   7   2.0000     -10.307384      -280.4782
   8   2.0000     -10.299592      -280.2661
   9   2.0000     -10.297487      -280.2089
  10   2.0000     -10.296478      -280.1814
  11   2.0000     -10.295823      -280.1636
  12   2.0000     -10.290584      -280.0210
  13   2.0000     -10.289080      -279.9801
  14   2.0000     -10.283770      -279.8356
  15   2.0000     -10.268679      -279.4250
  16   2.0000      -8.080369      -219.8780
  17   2.0000      -8.078840      -219.8364
  18   2.0000      -6.038879      -164.3263
  19   2.0000      -6.037422      -164.2866
  20   2.0000      -6.034557      -164.2086
  21   2.0000      -6.033358      -164.1760
  22   2.0000      -6.031356      -164.1216
  23   2.0000      -6.029466      -164.0701
  24   2.0000      -1.005379       -27.3577
  25   2.0000      -0.984437       -26.7879
  26   2.0000      -0.911246       -24.7963
  27   2.0000      -0.902931       -24.5700
  28   2.0000      -0.870367       -23.6839
  29   2.0000      -0.845020       -22.9942
  30   2.0000      -0.842280       -22.9196
  31   2.0000      -0.822389       -22.3783
  32   2.0000      -0.781345       -21.2615
  33   2.0000      -0.769850       -20.9487
  34   2.0000      -0.708353       -19.2753
  35   2.0000      -0.698230       -18.9998
  36   2.0000      -0.683505       -18.5991
  37   2.0000      -0.659805       -17.9542
  38   2.0000      -0.639739       -17.4082
  39   2.0000      -0.622237       -16.9319
  40   2.0000      -0.591054       -16.0834
  41   2.0000      -0.578191       -15.7334
  42   2.0000      -0.571979       -15.5643
  43   2.0000      -0.567563       -15.4442
  44   2.0000      -0.532575       -14.4921
  45   2.0000      -0.517116       -14.0714
  46   2.0000      -0.512231       -13.9385
  47   2.0000      -0.511295       -13.9131
  48   2.0000      -0.507725       -13.8159
  49   2.0000      -0.498702       -13.5704
  50   2.0000      -0.493291       -13.4231
  51   2.0000      -0.478625       -13.0240
  52   2.0000      -0.470014       -12.7897
  53   2.0000      -0.467530       -12.7221
  54   2.0000      -0.459465       -12.5027
  55   2.0000      -0.453911       -12.3516
  56   2.0000      -0.445846       -12.1321
  57   2.0000      -0.434732       -11.8297
  58   2.0000      -0.425829       -11.5874
  59   2.0000      -0.424438       -11.5496
  60   2.0000      -0.414580       -11.2813
  61   2.0000      -0.410403       -11.1676
  62   2.0000      -0.406545       -11.0627
  63   2.0000      -0.336135        -9.1467
  64   2.0000      -0.329686        -8.9712
  65   2.0000      -0.322478        -8.7751
  66   2.0000      -0.309212        -8.4141
  67   0.0000       0.036942         1.0052
  68   0.0000       0.059549         1.6204
  69   0.0000       0.104927         2.8552
  70   0.0000       0.116573         3.1721
  71   0.0000       0.131160         3.5691

MULLIKEN ATOMIC CHARGES
-----------------------
   0 S :    0.101895
   1 C :   -0.109007
   2 C :   -0.082568
   3 C :    0.028826
   4 C :   -0.112636
   5 H :    0.004883
   6 C :    0.028143
   7 H :    0.040660
   8 H :    0.038177
   9 C :   -0.139586
  10 H :    0.034929
  11 H :    0.050862
  12 C :   -0.041371
  13 H :    0.028631
  14 H :    0.045150
  15 H :    0.037387
  16 S :    0.113118
  17 C :   -0.042695
  18 C :   -0.036226
  19 C :   -0.065539
  20 C :   -0.160061
  21 H :    0.025007
  22 C :    0.059018
  23 H :    0.030257
  24 H :    0.013465
  25 C :   -0.081241
  26 H :    0.045760
  27 H :    0.039180
  28 C :   -0.026664
  29 H :    0.034663
  30 H :    0.013007
  31 H :    0.012861
  32 H :    0.042827
  33 H :    0.028884
Sum of atomic charges:   -0.0000000

LOEWDIN ATOMIC CHARGES
----------------------
   0 S :    0.410188
   1 C :   -0.186298
   2 C :   -0.056433
   3 C :   -0.061479
   4 C :   -0.202570
   5 H :    0.025070
   6 C :   -0.044877
   7 H :    0.039162
   8 H :    0.036961
   9 C :   -0.051550
  10 H :    0.021697
  11 H :    0.034340
  12 C :   -0.066038
  13 H :    0.025273
  14 H :    0.033520
  15 H :    0.023529
  16 S :    0.426779
  17 C :   -0.178994
  18 C :   -0.070066
  19 C :   -0.046643
  20 C :   -0.215791
  21 H :    0.027443
  22 C :   -0.027473
  23 H :    0.027414
  24 H :    0.019884
  25 C :   -0.037684
  26 H :    0.031579
  27 H :    0.025313
  28 C :   -0.073285
  29 H :    0.031828
  30 H :    0.022737
  31 H :    0.018328
  32 H :    0.024234
  33 H :    0.013904

  Mayer bond orders larger than 0.100000
B(  0-S ,  1-C ) :   1.1283 B(  0-S ,  4-C ) :   1.1719 B(  1-C ,  2-C ) :   1.6196
B(  1-C , 32-H ) :   0.9752 B(  2-C ,  3-C ) :   1.2380 B(  2-C ,  6-C ) :   1.0064
B(  3-C ,  4-C ) :   1.5764 B(  3-C ,  5-H ) :   1.0073 B(  4-C , 20-C ) :   0.9760
B(  6-C ,  7-H ) :   0.9433 B(  6-C ,  8-H ) :   0.9441 B(  6-C ,  9-C ) :   1.0614
B(  9-C , 10-H ) :   0.9502 B(  9-C , 11-H ) :   0.9571 B(  9-C , 12-C ) :   1.0951
B( 12-C , 13-H ) :   0.9721 B( 12-C , 14-H ) :   0.9709 B( 12-C , 15-H ) :   0.9747
B( 16-S , 17-C ) :   1.1750 B( 16-S , 20-C ) :   1.1461 B( 17-C , 18-C ) :   1.6105
B( 17-C , 33-H ) :   0.9701 B( 18-C , 19-C ) :   1.2484 B( 18-C , 21-H ) :   0.9853
B( 19-C , 20-C ) :   1.6003 B( 19-C , 22-C ) :   1.0388 B( 22-C , 23-H ) :   0.9396
B( 22-C , 24-H ) :   0.9419 B( 22-C , 25-C ) :   1.0484 B( 25-C , 26-H ) :   0.9592
B( 25-C , 27-H ) :   0.9548 B( 25-C , 28-C ) :   1.0854 B( 28-C , 29-H ) :   0.9742
B( 28-C , 30-H ) :   0.9700 B( 28-C , 31-H ) :   0.9717

Dispersion correction           -0.013394484
FINAL SINGLE POINT ENERGY     -1339.849089088882

DIPOLE MOMENT
-------------
                                X             Y             Z
Electronic contribution:    -10.45723      11.15195      -3.10155
Nuclear contribution   :     10.79310     -11.18486       3.17559
                        -----------------------------------------
Total Dipole Moment    :      0.33587      -0.03292       0.07404
                        -----------------------------------------
Magnitude (a.u.)       :      0.34551
Magnitude (Debye)      :      0.87821

Rotational constants in cm-1:     0.021705     0.007003     0.005912
Rotational constants in MHz :   650.703757   209.947325   177.242543

                             ****ORCA TERMINATED NORMALLY****
TOTAL RUN TIME: 0 days 0 hours 0 minutes 32 seconds 470 msec
