                         Program Version 4.2.1 -  RELEASE  -
|  1> ! wB97X-D3 SP def2-SVP
|  2> %pal
|  3> nprocs 16
|  4> end
|  5>
|  6> * xyz 0 1
|  7> S 	 37.6699 	 8.60419 	 90.0516
|  8> C 	 38.5122 	 7.09497 	 89.5649
|  9> C 	 38.0637 	 6.64656 	 88.3515
| 10> C 	 37.2041 	 7.58465 	 87.6959
| 11> C 	 36.9472 	 8.72414 	 88.4608
| 12> H 	 36.7333 	 7.50879 	 86.7769
| 13> C 	 38.555 	 5.31988 	 87.5619
| 14> H 	 37.7368 	 4.95869 	 86.9545
| 15> H 	 38.7841 	 4.56121 	 88.3334
| 16> C 	 39.6937 	 5.55481 	 86.6102
| 17> H 	 39.3408 	 6.16582 	 85.8201
| 18> H 	 40.5187 	 6.07644 	 87.0756
| 19> C 	 40.1874 	 4.19281 	 86.0282
| 20> H 	 39.3234 	 3.7453 	 85.5273
| 21> H 	 41.1203 	 4.18044 	 85.5778
| 22> H 	 40.4161 	 3.61265 	 86.8609
| 23> S 	 34.576 	 10.0507 	 89.0521
| 24> C 	 34.09 	 11.2912 	 87.9631
| 25> C 	 34.9294 	 11.517 	 86.8646
| 26> C 	 36.0581 	 10.5922 	 86.9422
| 27> C 	 36.0673 	 9.78334 	 88.0855
| 28> H 	 34.711 	 12.3274 	 86.1682
| 29> C 	 37.221 	 10.5748 	 85.9349
| 30> H 	 36.8145 	 10.9712 	 85.0346
| 31> H 	 37.5266 	 9.5441 	 85.6994
| 32> C 	 38.4571 	 11.4175 	 86.2002
| 33> H 	 38.133 	 12.4724 	 86.2004
| 34> H 	 39.1822 	 11.2747 	 85.3326
| 35> C 	 39.1811 	 11.1354 	 87.5
| 36> H 	 39.7154 	 10.1563 	 87.6433
| 37> H 	 38.5224 	 11.2372 	 88.2704
| 38> H 	 39.9865 	 11.8969 	 87.5668
| 39> H 	 39.21 	 6.54018 	 90.194
| 40> H 	 33.0902 	 11.7695 	 88.046
| 41> *
| 42>
| 43>                          ****END OF INPUT****

CARTESIAN COORDINATES (ANGSTROEM)
---------------------------------
  S     37.669900    8.604190   90.051600
  C     38.512200    7.094970   89.564900
  C     38.063700    6.646560   88.351500
  C     37.204100    7.584650   87.695900
  C     36.947200    8.724140   88.460800
  H     36.733300    7.508790   86.776900
  C     38.555000    5.319880   87.561900
  H     37.736800    4.958690   86.954500
  H     38.784100    4.561210   88.333400
  C     39.693700    5.554810   86.610200
  H     39.340800    6.165820   85.820100
  H     40.518700    6.076440   87.075600
  C     40.187400    4.192810   86.028200
  H     39.323400    3.745300   85.527300
  H     41.120300    4.180440   85.577800
  H     40.416100    3.612650   86.860900
  S     34.576000   10.050700   89.052100
  C     34.090000   11.291200   87.963100
  C     34.929400   11.517000   86.864600
  C     36.058100   10.592200   86.942200
  C     36.067300    9.783340   88.085500
  H     34.711000   12.327400   86.168200
  C     37.221000   10.574800   85.934900
  H     36.814500   10.971200   85.034600
  H     37.526600    9.544100   85.699400
  C     38.457100   11.417500   86.200200
  H     38.133000   12.472400   86.200400
  H     39.182200   11.274700   85.332600
  C     39.181100   11.135400   87.500000
  H     39.715400   10.156300   87.643300
  H     38.522400   11.237200   88.270400
  H     39.986500   11.896900   87.566800
  H     39.210000    6.540180   90.194000
  H     33.090200   11.769500   88.046000

 Total Charge           Charge          ....    0
 Multiplicity           Mult            ....    1
 Number of Electrons    NEL             ....  134
 Basis Dimension        Dim             ....  322

ORBITAL ENERGIES
----------------

  NO   OCC          E(Eh)            E(eV)
   0   2.0000     -88.968612     -2420.9590
   1   2.0000     -88.967814     -2420.9373
   2   2.0000     -10.328519      -281.0533
   3   2.0000     -10.327092      -281.0145
   4   2.0000     -10.321565      -280.8641
   5   2.0000     -10.318673      -280.7854
   6   2.0000     -10.311486      -280.5898
   7   2.0000     -10.307486      -280.4810
   8   2.0000     -10.302623      -280.3486
   9   2.0000     -10.299543      -280.2648
  10   2.0000     -10.290549      -280.0201
  11   2.0000     -10.286258      -279.9033
  12   2.0000     -10.285493      -279.8825
  13   2.0000     -10.281684      -279.7789
  14   2.0000     -10.270515      -279.4749
  15   2.0000     -10.263099      -279.2731
  16   2.0000      -8.082446      -219.9345
  17   2.0000      -8.082406      -219.9334
  18   2.0000      -6.040999      -164.3839
  19   2.0000      -6.040877      -164.3806
  20   2.0000      -6.037121      -164.2784
  21   2.0000      -6.036981      -164.2746
  22   2.0000      -6.033270      -164.1736
  23   2.0000      -6.033064      -164.1680
  24   2.0000      -1.002456       -27.2782
  25   2.0000      -0.977497       -26.5990
  26   2.0000      -0.912258       -24.8238
  27   2.0000      -0.906389       -24.6641
  28   2.0000      -0.870659       -23.6918
  29   2.0000      -0.848845       -23.0983
  30   2.0000      -0.842365       -22.9219
  31   2.0000      -0.808539       -22.0015
  32   2.0000      -0.787325       -21.4242
  33   2.0000      -0.775437       -21.1007
  34   2.0000      -0.706058       -19.2128
  35   2.0000      -0.701138       -19.0789
  36   2.0000      -0.683937       -18.6109
  37   2.0000      -0.657803       -17.8997
  38   2.0000      -0.643905       -17.5215
  39   2.0000      -0.615824       -16.7574
  40   2.0000      -0.589742       -16.0477
  41   2.0000      -0.580772       -15.8036
  42   2.0000      -0.561095       -15.2682
  43   2.0000      -0.547710       -14.9040
  44   2.0000      -0.543060       -14.7774
  45   2.0000      -0.527372       -14.3505
  46   2.0000      -0.513901       -13.9840
  47   2.0000      -0.504966       -13.7408
  48   2.0000      -0.500547       -13.6206
  49   2.0000      -0.497531       -13.5385
  50   2.0000      -0.490628       -13.3507
  51   2.0000      -0.480536       -13.0760
  52   2.0000      -0.473697       -12.8900
  53   2.0000      -0.464885       -12.6502
  54   2.0000      -0.459924       -12.5152
  55   2.0000      -0.448517       -12.2048
  56   2.0000      -0.442805       -12.0493
  57   2.0000      -0.436709       -11.8835
  58   2.0000      -0.429859       -11.6971
  59   2.0000      -0.426857       -11.6154
  60   2.0000      -0.418667       -11.3925
  61   2.0000      -0.413502       -11.2520
  62   2.0000      -0.406848       -11.0709
  63   2.0000      -0.343644        -9.3510
  64   2.0000      -0.335150        -9.1199
  65   2.0000      -0.332066        -9.0360
  66   2.0000      -0.291033        -7.9194
  67   0.0000       0.029336         0.7983
  68   0.0000       0.061015         1.6603
  69   0.0000       0.107377         2.9219
  70   0.0000       0.114774         3.1232
  71   0.0000       0.125296         3.4095

MULLIKEN ATOMIC CHARGES
-----------------------
   0 S :    0.108420
   1 C :   -0.133464
   2 C :   -0.056685
   3 C :    0.061632
   4 C :   -0.173445
   5 H :   -0.010605
   6 C :    0.035671
   7 H :    0.022705
   8 H :    0.028646
   9 C :   -0.052114
  10 H :    0.019275
  11 H :    0.025072
  12 C :    0.006055
  13 H :    0.033778
  14 H :    0.022157
  15 H :   -0.000005
  16 S :    0.114481
  17 C :   -0.108987
  18 C :   -0.037144
  19 C :   -0.062868
  20 C :   -0.155807
  21 H :    0.032308
  22 C :    0.104745
  23 H :    0.001987
  24 H :    0.018920
  25 C :   -0.083915
  26 H :    0.025240
  27 H :    0.036826
  28 C :   -0.028269
  29 H :    0.040633
  30 H :    0.014374
  31 H :    0.028461
  32 H :    0.049928
  33 H :    0.071995
Sum of atomic charges:    0.0000000

LOEWDIN ATOMIC CHARGES
----------------------
   0 S :    0.389608
   1 C :   -0.187042
   2 C :   -0.056229
   3 C :   -0.051256
   4 C :   -0.191313
   5 H :    0.019354
   6 C :   -0.021803
   7 H :    0.028076
   8 H :    0.028293
   9 C :   -0.035701
  10 H :    0.017510
  11 H :    0.021639
  12 C :   -0.056622
  13 H :    0.029848
  14 H :    0.020291
  15 H :    0.017968
  16 S :    0.400893
  17 C :   -0.193639
  18 C :   -0.077259
  19 C :   -0.046625
  20 C :   -0.196176
  21 H :    0.037954
  22 C :   -0.035611
  23 H :    0.025005
  24 H :    0.028820
  25 C :   -0.039964
  26 H :    0.025298
  27 H :    0.031162
  28 C :   -0.066423
  29 H :    0.032054
  30 H :    0.007130
  31 H :    0.029367
  32 H :    0.030530
  33 H :    0.034862

  Mayer bond orders larger than 0.100000
B(  0-S ,  1-C ) :   1.1166 B(  0-S ,  4-C ) :   1.1399 B(  1-C ,  2-C ) :   1.6420
B(  1-C , 32-H ) :   0.9692 B(  2-C ,  3-C ) :   1.2167 B(  2-C ,  6-C ) :   1.0073
B(  3-C ,  4-C ) :   1.5801 B(  3-C ,  5-H ) :   1.0013 B(  4-C , 20-C ) :   1.0693
B(  6-C ,  7-H ) :   0.9436 B(  6-C ,  8-H ) :   0.9487 B(  6-C ,  9-C ) :   1.0683
B(  9-C , 10-H ) :   0.9554 B(  9-C , 11-H ) :   0.9564 B(  9-C , 12-C ) :   1.0761
B( 12-C , 13-H ) :   0.9751 B( 12-C , 14-H ) :   0.9715 B( 12-C , 15-H ) :   0.9708
B( 16-S , 17-C ) :   1.1731 B( 16-S , 20-C ) :   1.1201 B( 17-C , 18-C ) :   1.6133
B( 17-C , 33-H ) :   0.9573 B( 18-C , 19-C ) :   1.2221 B( 18-C , 21-H ) :   0.9909
B( 19-C , 20-C ) :   1.6039 B( 19-C , 22-C ) :   1.0404 B( 22-C , 23-H ) :   0.9233
B( 22-C , 24-H ) :   0.9309 B( 22-C , 25-C ) :   1.0846 B( 25-C , 26-H ) :   0.9510
B( 25-C , 27-H ) :   0.9513 B( 25-C , 28-C ) :   1.0902 B( 28-C , 29-H ) :   0.9716
B( 28-C , 30-H ) :   0.9698 B( 28-C , 31-H ) :   0.9710

Dispersion correction           -0.015387163
FINAL SINGLE POINT ENERGY     -1339.869874151746

DIPOLE MOMENT
-------------
                                X             Y             Z
Electronic contribution:    -19.50112       8.84922      17.78864
Nuclear contribution   :     19.68832      -9.05681     -18.33645
                        -----------------------------------------
Total Dipole Moment    :      0.18720      -0.20759      -0.54781
                        -----------------------------------------
Magnitude (a.u.)       :      0.61501
Magnitude (Debye)      :      1.56323

Rotational constants in cm-1:     0.020888     0.008329     0.007326
Rotational constants in MHz :   626.207843   249.683071   219.629111

                             ****ORCA TERMINATED NORMALLY****
TOTAL RUN TIME: 0 days 0 hours 0 minutes 29 seconds 967 msec
