                         Program Version 4.2.1 -  RELEASE  -
|  1> ! wB97X-D3 SP def2-SVP
|  2> %pal
|  3> nprocs 16
|  4> end
|  5>
|  6> * xyz 0 1
|  7> S 	 4.7001 	 24.0473 	 67.2172
|  8> C 	 3.91215 	 23.5282 	 65.7433
|  9> C 	 4.12054 	 24.4246 	 64.7244
| 10> C 	 4.86092 	 25.5961 	 65.1561
| 11> C 	 5.30584 	 25.5043 	 66.4868
| 12> H 	 5.29157 	 26.4165 	 64.5239
| 13> C 	 3.68298 	 24.1999 	 63.3378
| 14> H 	 3.26573 	 25.1423 	 62.9245
| 15> H 	 2.72892 	 23.5735 	 63.2874
| 16> C 	 4.72179 	 23.6795 	 62.3408
| 17> H 	 4.22377 	 23.6714 	 61.3403
| 18> H 	 5.63599 	 24.3091 	 62.3181
| 19> C 	 5.15144 	 22.1875 	 62.8171
| 20> H 	 4.33531 	 21.5329 	 62.712
| 21> H 	 5.93465 	 21.9704 	 62.1512
| 22> H 	 5.49287 	 22.0986 	 63.8987
| 23> S 	 7.6644 	 26.0638 	 67.8248
| 24> C 	 7.99956 	 27.6661 	 68.3213
| 25> C 	 6.96168 	 28.4339 	 68.007
| 26> C 	 5.80396 	 27.7594 	 67.5614
| 27> C 	 6.02043 	 26.454 	 67.2761
| 28> H 	 7.05173 	 29.4267 	 68.2798
| 29> C 	 4.51856 	 28.5137 	 67.2427
| 30> H 	 3.71854 	 27.8502 	 67.1281
| 31> H 	 4.64312 	 29.0356 	 66.2501
| 32> C 	 4.16601 	 29.481 	 68.3272
| 33> H 	 4.97425 	 30.1766 	 68.4586
| 34> H 	 4.1906 	 29.0661 	 69.3507
| 35> C 	 2.94473 	 30.3228 	 68.0524
| 36> H 	 2.81381 	 30.7782 	 67.0038
| 37> H 	 2.97708 	 31.1343 	 68.765
| 38> H 	 2.02758 	 29.7474 	 68.181
| 39> H 	 3.53581 	 22.5701 	 65.4362
| 40> H 	 8.8994 	 28.0342 	 68.755
| 41> *
| 42>
| 43>                          ****END OF INPUT****

CARTESIAN COORDINATES (ANGSTROEM)
---------------------------------
  S      4.700100   24.047300   67.217200
  C      3.912150   23.528200   65.743300
  C      4.120540   24.424600   64.724400
  C      4.860920   25.596100   65.156100
  C      5.305840   25.504300   66.486800
  H      5.291570   26.416500   64.523900
  C      3.682980   24.199900   63.337800
  H      3.265730   25.142300   62.924500
  H      2.728920   23.573500   63.287400
  C      4.721790   23.679500   62.340800
  H      4.223770   23.671400   61.340300
  H      5.635990   24.309100   62.318100
  C      5.151440   22.187500   62.817100
  H      4.335310   21.532900   62.712000
  H      5.934650   21.970400   62.151200
  H      5.492870   22.098600   63.898700
  S      7.664400   26.063800   67.824800
  C      7.999560   27.666100   68.321300
  C      6.961680   28.433900   68.007000
  C      5.803960   27.759400   67.561400
  C      6.020430   26.454000   67.276100
  H      7.051730   29.426700   68.279800
  C      4.518560   28.513700   67.242700
  H      3.718540   27.850200   67.128100
  H      4.643120   29.035600   66.250100
  C      4.166010   29.481000   68.327200
  H      4.974250   30.176600   68.458600
  H      4.190600   29.066100   69.350700
  C      2.944730   30.322800   68.052400
  H      2.813810   30.778200   67.003800
  H      2.977080   31.134300   68.765000
  H      2.027580   29.747400   68.181000
  H      3.535810   22.570100   65.436200
  H      8.899400   28.034200   68.755000

 Total Charge           Charge          ....    0
 Multiplicity           Mult            ....    1
 Number of Electrons    NEL             ....  134
 Basis Dimension        Dim             ....  322

ORBITAL ENERGIES
----------------

  NO   OCC          E(Eh)            E(eV)
   0   2.0000     -88.966184     -2420.8929
   1   2.0000     -88.957078     -2420.6452
   2   2.0000     -10.330139      -281.0974
   3   2.0000     -10.320929      -280.8468
   4   2.0000     -10.310912      -280.5742
   5   2.0000     -10.309690      -280.5409
   6   2.0000     -10.303113      -280.3619
   7   2.0000     -10.299867      -280.2736
   8   2.0000     -10.298288      -280.2307
   9   2.0000     -10.298239      -280.2293
  10   2.0000     -10.293910      -280.1115
  11   2.0000     -10.285791      -279.8906
  12   2.0000     -10.279805      -279.7277
  13   2.0000     -10.279609      -279.7224
  14   2.0000     -10.278947      -279.7044
  15   2.0000     -10.276615      -279.6409
  16   2.0000      -8.080974      -219.8945
  17   2.0000      -8.072866      -219.6738
  18   2.0000      -6.039485      -164.3427
  19   2.0000      -6.035350      -164.2302
  20   2.0000      -6.031830      -164.1345
  21   2.0000      -6.031331      -164.1208
  22   2.0000      -6.027162      -164.0074
  23   2.0000      -6.023634      -163.9114
  24   2.0000      -1.013852       -27.5883
  25   2.0000      -0.989613       -26.9288
  26   2.0000      -0.915501       -24.9121
  27   2.0000      -0.912501       -24.8304
  28   2.0000      -0.874804       -23.8046
  29   2.0000      -0.849415       -23.1138
  30   2.0000      -0.839594       -22.8465
  31   2.0000      -0.817177       -22.2365
  32   2.0000      -0.783000       -21.3065
  33   2.0000      -0.776331       -21.1250
  34   2.0000      -0.715792       -19.4777
  35   2.0000      -0.702810       -19.1244
  36   2.0000      -0.693885       -18.8816
  37   2.0000      -0.656052       -17.8521
  38   2.0000      -0.638095       -17.3635
  39   2.0000      -0.616577       -16.7779
  40   2.0000      -0.605097       -16.4655
  41   2.0000      -0.578450       -15.7404
  42   2.0000      -0.562213       -15.2986
  43   2.0000      -0.545656       -14.8480
  44   2.0000      -0.537037       -14.6135
  45   2.0000      -0.533393       -14.5144
  46   2.0000      -0.518916       -14.1204
  47   2.0000      -0.515674       -14.0322
  48   2.0000      -0.508862       -13.8468
  49   2.0000      -0.501924       -13.6581
  50   2.0000      -0.485229       -13.2037
  51   2.0000      -0.477778       -13.0010
  52   2.0000      -0.471657       -12.8344
  53   2.0000      -0.468981       -12.7616
  54   2.0000      -0.462140       -12.5755
  55   2.0000      -0.450792       -12.2667
  56   2.0000      -0.446562       -12.1516
  57   2.0000      -0.438184       -11.9236
  58   2.0000      -0.437592       -11.9075
  59   2.0000      -0.423819       -11.5327
  60   2.0000      -0.409014       -11.1299
  61   2.0000      -0.405809       -11.0426
  62   2.0000      -0.403124       -10.9696
  63   2.0000      -0.340546        -9.2667
  64   2.0000      -0.331100        -9.0097
  65   2.0000      -0.326561        -8.8862
  66   2.0000      -0.305307        -8.3078
  67   0.0000       0.033583         0.9138
  68   0.0000       0.068289         1.8582
  69   0.0000       0.117101         3.1865
  70   0.0000       0.126688         3.4474
  71   0.0000       0.130314         3.5460

MULLIKEN ATOMIC CHARGES
-----------------------
   0 S :    0.117332
   1 C :   -0.083821
   2 C :   -0.103653
   3 C :    0.032024
   4 C :   -0.185608
   5 H :    0.037597
   6 C :    0.011617
   7 H :    0.024803
   8 H :    0.032060
   9 C :   -0.083486
  10 H :    0.045722
  11 H :    0.043483
  12 C :   -0.064598
  13 H :    0.020118
  14 H :    0.031343
  15 H :    0.060586
  16 S :    0.090560
  17 C :   -0.063822
  18 C :   -0.025002
  19 C :   -0.030639
  20 C :   -0.151148
  21 H :   -0.009853
  22 C :    0.132069
  23 H :    0.011492
  24 H :    0.039963
  25 C :   -0.111008
  26 H :    0.008853
  27 H :    0.031652
  28 C :   -0.040162
  29 H :    0.036849
  30 H :    0.029593
  31 H :    0.031551
  32 H :    0.038006
  33 H :    0.045528
Sum of atomic charges:    0.0000000

LOEWDIN ATOMIC CHARGES
----------------------
   0 S :    0.416557
   1 C :   -0.199706
   2 C :   -0.066793
   3 C :   -0.061208
   4 C :   -0.200203
   5 H :    0.041712
   6 C :   -0.051497
   7 H :    0.031520
   8 H :    0.036315
   9 C :   -0.033949
  10 H :    0.031302
  11 H :    0.026554
  12 C :   -0.064420
  13 H :    0.013984
  14 H :    0.018754
  15 H :    0.037222
  16 S :    0.399880
  17 C :   -0.176158
  18 C :   -0.075448
  19 C :   -0.049559
  20 C :   -0.201552
  21 H :    0.018463
  22 C :   -0.023754
  23 H :    0.021547
  24 H :    0.040112
  25 C :   -0.051776
  26 H :    0.016689
  27 H :    0.032681
  28 C :   -0.067587
  29 H :    0.033741
  30 H :    0.025402
  31 H :    0.022992
  32 H :    0.028081
  33 H :    0.030103

  Mayer bond orders larger than 0.100000
B(  0-S ,  1-C ) :   1.1302 B(  0-S ,  4-C ) :   1.1618 B(  1-C ,  2-C ) :   1.6277
B(  1-C , 32-H ) :   0.9607 B(  2-C ,  3-C ) :   1.2281 B(  2-C ,  6-C ) :   1.0385
B(  3-C ,  4-C ) :   1.5770 B(  3-C ,  5-H ) :   0.9861 B(  4-C , 20-C ) :   1.0265
B(  6-C ,  7-H ) :   0.9323 B(  6-C ,  8-H ) :   0.9442 B(  6-C ,  9-C ) :   1.0688
B(  9-C , 10-H ) :   0.9548 B(  9-C , 11-H ) :   0.9595 B(  9-C , 12-C ) :   1.0575
B( 12-C , 13-H ) :   0.9782 B( 12-C , 14-H ) :   0.9782 B( 12-C , 15-H ) :   0.9749
B( 16-S , 17-C ) :   1.1559 B( 16-S , 20-C ) :   1.1246 B( 17-C , 18-C ) :   1.6310
B( 17-C , 33-H ) :   0.9689 B( 18-C , 19-C ) :   1.2169 B( 18-C , 21-H ) :   0.9990
B( 19-C , 20-C ) :   1.6172 B( 19-C , 22-C ) :   1.0446 B( 22-C , 23-H ) :   0.9316
B( 22-C , 24-H ) :   0.9296 B( 22-C , 25-C ) :   1.0627 B( 25-C , 26-H ) :   0.9502
B( 25-C , 27-H ) :   0.9501 B( 25-C , 28-C ) :   1.0887 B( 28-C , 29-H ) :   0.9717
B( 28-C , 30-H ) :   0.9730 B( 28-C , 31-H ) :   0.9735

Dispersion correction           -0.014203648
FINAL SINGLE POINT ENERGY     -1339.866756918687

DIPOLE MOMENT
-------------
                                X             Y             Z
Electronic contribution:     12.36941      -8.06336      13.62795
Nuclear contribution   :    -12.48981       8.52505     -14.06598
                        -----------------------------------------
Total Dipole Moment    :     -0.12040       0.46169      -0.43802
                        -----------------------------------------
Magnitude (a.u.)       :      0.64771
Magnitude (Debye)      :      1.64634

Rotational constants in cm-1:     0.020571     0.007745     0.006580
Rotational constants in MHz :   616.712876   232.203952   197.272741

                             ****ORCA TERMINATED NORMALLY****
TOTAL RUN TIME: 0 days 0 hours 0 minutes 35 seconds 414 msec
