                         Program Version 4.2.1 -  RELEASE  -
|  1> ! wB97X-D3 SP def2-SVP
|  2> %pal
|  3> nprocs 16
|  4> end
|  5>
|  6> * xyz 0 1
|  7> S 	 -73.1013 	 40.5664 	 122.847
|  8> C 	 -73.8356 	 40.2492 	 124.359
|  9> C 	 -73.8458 	 38.8887 	 124.674
| 10> C 	 -72.9463 	 38.2069 	 123.868
| 11> C 	 -72.4515 	 38.9434 	 122.81
| 12> H 	 -72.5659 	 37.211 	 123.921
| 13> C 	 -74.4268 	 38.314 	 125.989
| 14> H 	 -74.5526 	 37.2345 	 125.829
| 15> H 	 -75.5235 	 38.6465 	 126.02
| 16> C 	 -73.5658 	 38.724 	 127.186
| 17> H 	 -72.6931 	 38.0607 	 127.342
| 18> H 	 -73.183 	 39.7204 	 127.134
| 19> C 	 -74.2472 	 38.827 	 128.51
| 20> H 	 -75.032 	 38.0971 	 128.72
| 21> H 	 -73.6503 	 38.8782 	 129.385
| 22> H 	 -74.7291 	 39.7978 	 128.501
| 23> S 	 -70.122 	 39.6493 	 121.609
| 24> C 	 -69.5694 	 38.7433 	 120.198
| 25> C 	 -70.2146 	 37.5702 	 120.076
| 26> C 	 -71.3148 	 37.4755 	 120.975
| 27> C 	 -71.4569 	 38.5853 	 121.788
| 28> H 	 -69.8223 	 36.7696 	 119.472
| 29> C 	 -72.2062 	 36.2376 	 120.851
| 30> H 	 -72.5543 	 35.979 	 121.879
| 31> H 	 -71.6098 	 35.4057 	 120.526
| 32> C 	 -73.3957 	 36.3849 	 119.931
| 33> H 	 -72.9946 	 36.5964 	 118.963
| 34> H 	 -74.0394 	 37.1711 	 120.23
| 35> C 	 -74.1549 	 35.1144 	 119.821
| 36> H 	 -73.6064 	 34.3861 	 119.35
| 37> H 	 -75.1836 	 35.2753 	 119.322
| 38> H 	 -74.4452 	 34.7312 	 120.786
| 39> H 	 -74.4603 	 41.1112 	 124.734
| 40> H 	 -68.7417 	 39.0177 	 119.622
| 41> *
| 42>
| 43>                          ****END OF INPUT****

CARTESIAN COORDINATES (ANGSTROEM)
---------------------------------
  S    -73.101300   40.566400  122.847000
  C    -73.835600   40.249200  124.359000
  C    -73.845800   38.888700  124.674000
  C    -72.946300   38.206900  123.868000
  C    -72.451500   38.943400  122.810000
  H    -72.565900   37.211000  123.921000
  C    -74.426800   38.314000  125.989000
  H    -74.552600   37.234500  125.829000
  H    -75.523500   38.646500  126.020000
  C    -73.565800   38.724000  127.186000
  H    -72.693100   38.060700  127.342000
  H    -73.183000   39.720400  127.134000
  C    -74.247200   38.827000  128.510000
  H    -75.032000   38.097100  128.720000
  H    -73.650300   38.878200  129.385000
  H    -74.729100   39.797800  128.501000
  S    -70.122000   39.649300  121.609000
  C    -69.569400   38.743300  120.198000
  C    -70.214600   37.570200  120.076000
  C    -71.314800   37.475500  120.975000
  C    -71.456900   38.585300  121.788000
  H    -69.822300   36.769600  119.472000
  C    -72.206200   36.237600  120.851000
  H    -72.554300   35.979000  121.879000
  H    -71.609800   35.405700  120.526000
  C    -73.395700   36.384900  119.931000
  H    -72.994600   36.596400  118.963000
  H    -74.039400   37.171100  120.230000
  C    -74.154900   35.114400  119.821000
  H    -73.606400   34.386100  119.350000
  H    -75.183600   35.275300  119.322000
  H    -74.445200   34.731200  120.786000
  H    -74.460300   41.111200  124.734000
  H    -68.741700   39.017700  119.622000

 Total Charge           Charge          ....    0
 Multiplicity           Mult            ....    1
 Number of Electrons    NEL             ....  134
 Basis Dimension        Dim             ....  322

ORBITAL ENERGIES
----------------

  NO   OCC          E(Eh)            E(eV)
   0   2.0000     -88.964544     -2420.8483
   1   2.0000     -88.962456     -2420.7915
   2   2.0000     -10.324522      -280.9445
   3   2.0000     -10.322533      -280.8904
   4   2.0000     -10.315259      -280.6925
   5   2.0000     -10.308522      -280.5092
   6   2.0000     -10.302922      -280.3568
   7   2.0000     -10.302529      -280.3461
   8   2.0000     -10.298222      -280.2289
   9   2.0000     -10.289165      -279.9824
  10   2.0000     -10.288338      -279.9599
  11   2.0000     -10.287121      -279.9268
  12   2.0000     -10.283250      -279.8214
  13   2.0000     -10.271689      -279.5069
  14   2.0000     -10.269840      -279.4566
  15   2.0000     -10.268366      -279.4164
  16   2.0000      -8.080221      -219.8740
  17   2.0000      -8.077786      -219.8077
  18   2.0000      -6.038342      -164.3116
  19   2.0000      -6.036259      -164.2550
  20   2.0000      -6.034562      -164.2088
  21   2.0000      -6.032307      -164.1474
  22   2.0000      -6.031373      -164.1220
  23   2.0000      -6.028446      -164.0423
  24   2.0000      -1.012133       -27.5415
  25   2.0000      -0.990785       -26.9606
  26   2.0000      -0.916280       -24.9332
  27   2.0000      -0.911889       -24.8137
  28   2.0000      -0.872085       -23.7306
  29   2.0000      -0.857624       -23.3371
  30   2.0000      -0.850715       -23.1491
  31   2.0000      -0.817641       -22.2491
  32   2.0000      -0.781308       -21.2605
  33   2.0000      -0.768306       -20.9067
  34   2.0000      -0.702786       -19.1238
  35   2.0000      -0.699558       -19.0359
  36   2.0000      -0.690351       -18.7854
  37   2.0000      -0.667615       -18.1667
  38   2.0000      -0.647951       -17.6316
  39   2.0000      -0.617810       -16.8115
  40   2.0000      -0.596284       -16.2257
  41   2.0000      -0.577805       -15.7229
  42   2.0000      -0.572510       -15.5788
  43   2.0000      -0.554244       -15.0817
  44   2.0000      -0.533040       -14.5048
  45   2.0000      -0.522820       -14.2266
  46   2.0000      -0.518582       -14.1113
  47   2.0000      -0.512906       -13.9569
  48   2.0000      -0.508579       -13.8391
  49   2.0000      -0.501717       -13.6524
  50   2.0000      -0.487685       -13.2706
  51   2.0000      -0.481528       -13.1030
  52   2.0000      -0.474533       -12.9127
  53   2.0000      -0.460530       -12.5316
  54   2.0000      -0.457931       -12.4609
  55   2.0000      -0.451194       -12.2776
  56   2.0000      -0.441556       -12.0153
  57   2.0000      -0.437647       -11.9090
  58   2.0000      -0.429892       -11.6980
  59   2.0000      -0.423497       -11.5239
  60   2.0000      -0.420170       -11.4334
  61   2.0000      -0.417086       -11.3495
  62   2.0000      -0.410379       -11.1670
  63   2.0000      -0.348219        -9.4755
  64   2.0000      -0.333243        -9.0680
  65   2.0000      -0.328960        -8.9515
  66   2.0000      -0.290188        -7.8964
  67   0.0000       0.029320         0.7978
  68   0.0000       0.072660         1.9772
  69   0.0000       0.107210         2.9173
  70   0.0000       0.117205         3.1893
  71   0.0000       0.142997         3.8911

MULLIKEN ATOMIC CHARGES
-----------------------
   0 S :    0.121310
   1 C :   -0.163044
   2 C :   -0.068856
   3 C :    0.040439
   4 C :   -0.180427
   5 H :    0.003583
   6 C :    0.048335
   7 H :    0.028511
   8 H :    0.039583
   9 C :   -0.031247
  10 H :    0.034570
  11 H :    0.027649
  12 C :   -0.050084
  13 H :    0.025348
  14 H :    0.022528
  15 H :    0.015552
  16 S :    0.106847
  17 C :   -0.064684
  18 C :   -0.028451
  19 C :   -0.034710
  20 C :   -0.155539
  21 H :    0.019925
  22 C :    0.053479
  23 H :    0.007263
  24 H :    0.007708
  25 C :   -0.009443
  26 H :    0.011430
  27 H :    0.025258
  28 C :   -0.022366
  29 H :    0.011426
  30 H :    0.040308
  31 H :    0.011117
  32 H :    0.074956
  33 H :    0.031729
Sum of atomic charges:   -0.0000000

LOEWDIN ATOMIC CHARGES
----------------------
   0 S :    0.428682
   1 C :   -0.213910
   2 C :   -0.067814
   3 C :   -0.061301
   4 C :   -0.198121
   5 H :    0.029626
   6 C :   -0.031812
   7 H :    0.032043
   8 H :    0.039100
   9 C :   -0.043694
  10 H :    0.029555
  11 H :    0.027754
  12 C :   -0.067302
  13 H :    0.020892
  14 H :    0.022053
  15 H :    0.023000
  16 S :    0.411196
  17 C :   -0.165842
  18 C :   -0.069681
  19 C :   -0.058085
  20 C :   -0.213267
  21 H :    0.033583
  22 C :   -0.028012
  23 H :    0.025170
  24 H :    0.025139
  25 C :   -0.033923
  26 H :    0.021636
  27 H :    0.023253
  28 C :   -0.058795
  29 H :    0.010989
  30 H :    0.037663
  31 H :    0.019335
  32 H :    0.034538
  33 H :    0.016352

  Mayer bond orders larger than 0.100000
B(  0-S ,  1-C ) :   1.1828 B(  0-S ,  4-C ) :   1.1721 B(  1-C ,  2-C ) :   1.5435
B(  1-C ,  4-C ) :   0.1116 B(  1-C , 32-H ) :   0.9632 B(  2-C ,  3-C ) :   1.2613
B(  2-C ,  6-C ) :   1.0312 B(  3-C ,  4-C ) :   1.5702 B(  3-C ,  5-H ) :   0.9958
B(  4-C , 20-C ) :   1.0215 B(  6-C ,  7-H ) :   0.9390 B(  6-C ,  8-H ) :   0.9465
B(  6-C ,  9-C ) :   1.0444 B(  9-C , 10-H ) :   0.9553 B(  9-C , 11-H ) :   0.9669
B(  9-C , 12-C ) :   1.0743 B( 12-C , 13-H ) :   0.9748 B( 12-C , 14-H ) :   0.9724
B( 12-C , 15-H ) :   0.9810 B( 16-S , 17-C ) :   1.1434 B( 16-S , 20-C ) :   1.1556
B( 17-C , 18-C ) :   1.6202 B( 17-C , 33-H ) :   0.9737 B( 18-C , 19-C ) :   1.2403
B( 18-C , 21-H ) :   0.9905 B( 19-C , 20-C ) :   1.6030 B( 19-C , 22-C ) :   1.0439
B( 22-C , 23-H ) :   0.9273 B( 22-C , 24-H ) :   0.9329 B( 22-C , 25-C ) :   1.0814
B( 25-C , 26-H ) :   0.9477 B( 25-C , 27-H ) :   0.9514 B( 25-C , 28-C ) :   1.0964
B( 28-C , 29-H ) :   0.9729 B( 28-C , 30-H ) :   0.9707 B( 28-C , 31-H ) :   0.9697

Dispersion correction           -0.013655168
FINAL SINGLE POINT ENERGY     -1339.865484855088

DIPOLE MOMENT
-------------
                                X             Y             Z
Electronic contribution:     14.16361      17.58606     -10.73090
Nuclear contribution   :    -14.27837     -18.04498      10.88319
                        -----------------------------------------
Total Dipole Moment    :     -0.11476      -0.45892       0.15229
                        -----------------------------------------
Magnitude (a.u.)       :      0.49696
Magnitude (Debye)      :      1.26318

Rotational constants in cm-1:     0.019352     0.007833     0.006425
Rotational constants in MHz :   580.165305   234.820491   192.618261

                             ****ORCA TERMINATED NORMALLY****
TOTAL RUN TIME: 0 days 0 hours 0 minutes 33 seconds 186 msec
