                         Program Version 4.2.1 -  RELEASE  -
|  1> ! wB97X-D3 SP def2-SVP
|  2> %pal
|  3> nprocs 16
|  4> end
|  5>
|  6> * xyz 0 1
|  7> S 	 -29.7599 	 59.695 	 106.347
|  8> C 	 -28.8103 	 60.0411 	 107.751
|  9> C 	 -29.2915 	 61.1021 	 108.509
| 10> C 	 -30.4072 	 61.6989 	 107.835
| 11> C 	 -30.6632 	 61.1922 	 106.593
| 12> H 	 -30.9306 	 62.6476 	 108.133
| 13> C 	 -28.8356 	 61.4657 	 109.922
| 14> H 	 -27.7273 	 61.5586 	 109.837
| 15> H 	 -28.9858 	 60.6221 	 110.559
| 16> C 	 -29.3051 	 62.8092 	 110.509
| 17> H 	 -30.3787 	 62.8213 	 110.434
| 18> H 	 -28.9984 	 62.6477 	 111.539
| 19> C 	 -28.6696 	 64.0797 	 109.893
| 20> H 	 -27.6153 	 64.1309 	 110.047
| 21> H 	 -28.9167 	 64.289 	 108.882
| 22> H 	 -29.0671 	 64.889 	 110.382
| 23> S 	 -32.9134 	 60.4076 	 105.145
| 24> C 	 -33.8578 	 61.7009 	 104.432
| 25> C 	 -33.2471 	 62.9036 	 104.481
| 26> C 	 -32.0025 	 62.8608 	 105.182
| 27> C 	 -31.7362 	 61.6132 	 105.723
| 28> H 	 -33.5649 	 63.7891 	 103.923
| 29> C 	 -31.0134 	 64.0494 	 105.262
| 30> H 	 -30.3855 	 64.12 	 106.208
| 31> H 	 -31.6573 	 64.9395 	 105.214
| 32> C 	 -29.9687 	 64.0854 	 104.135
| 33> H 	 -30.4813 	 63.9478 	 103.11
| 34> H 	 -29.2548 	 63.1974 	 104.188
| 35> C 	 -29.112 	 65.3064 	 104.148
| 36> H 	 -28.5518 	 65.3635 	 105.086
| 37> H 	 -29.7316 	 66.1712 	 104.036
| 38> H 	 -28.4159 	 65.266 	 103.321
| 39> H 	 -28.0147 	 59.4196 	 108.089
| 40> H 	 -34.6117 	 61.44 	 103.728
| 41> *
| 42>
| 43>                          ****END OF INPUT****

CARTESIAN COORDINATES (ANGSTROEM)
---------------------------------
  S    -29.759900   59.695000  106.347000
  C    -28.810300   60.041100  107.751000
  C    -29.291500   61.102100  108.509000
  C    -30.407200   61.698900  107.835000
  C    -30.663200   61.192200  106.593000
  H    -30.930600   62.647600  108.133000
  C    -28.835600   61.465700  109.922000
  H    -27.727300   61.558600  109.837000
  H    -28.985800   60.622100  110.559000
  C    -29.305100   62.809200  110.509000
  H    -30.378700   62.821300  110.434000
  H    -28.998400   62.647700  111.539000
  C    -28.669600   64.079700  109.893000
  H    -27.615300   64.130900  110.047000
  H    -28.916700   64.289000  108.882000
  H    -29.067100   64.889000  110.382000
  S    -32.913400   60.407600  105.145000
  C    -33.857800   61.700900  104.432000
  C    -33.247100   62.903600  104.481000
  C    -32.002500   62.860800  105.182000
  C    -31.736200   61.613200  105.723000
  H    -33.564900   63.789100  103.923000
  C    -31.013400   64.049400  105.262000
  H    -30.385500   64.120000  106.208000
  H    -31.657300   64.939500  105.214000
  C    -29.968700   64.085400  104.135000
  H    -30.481300   63.947800  103.110000
  H    -29.254800   63.197400  104.188000
  C    -29.112000   65.306400  104.148000
  H    -28.551800   65.363500  105.086000
  H    -29.731600   66.171200  104.036000
  H    -28.415900   65.266000  103.321000
  H    -28.014700   59.419600  108.089000
  H    -34.611700   61.440000  103.728000

 Total Charge           Charge          ....    0
 Multiplicity           Mult            ....    1
 Number of Electrons    NEL             ....  134
 Basis Dimension        Dim             ....  322

ORBITAL ENERGIES
----------------

  NO   OCC          E(Eh)            E(eV)
   0   2.0000     -88.966315     -2420.8965
   1   2.0000     -88.962732     -2420.7990
   2   2.0000     -10.324834      -280.9530
   3   2.0000     -10.324015      -280.9307
   4   2.0000     -10.311902      -280.6011
   5   2.0000     -10.308886      -280.5190
   6   2.0000     -10.303159      -280.3632
   7   2.0000     -10.300663      -280.2953
   8   2.0000     -10.299155      -280.2543
   9   2.0000     -10.294340      -280.1232
  10   2.0000     -10.294136      -280.1177
  11   2.0000     -10.292921      -280.0846
  12   2.0000     -10.290188      -280.0103
  13   2.0000     -10.289913      -280.0028
  14   2.0000     -10.271984      -279.5149
  15   2.0000     -10.271063      -279.4898
  16   2.0000      -8.081090      -219.8976
  17   2.0000      -8.077353      -219.7959
  18   2.0000      -6.039506      -164.3433
  19   2.0000      -6.035855      -164.2440
  20   2.0000      -6.035775      -164.2418
  21   2.0000      -6.032079      -164.1412
  22   2.0000      -6.031790      -164.1334
  23   2.0000      -6.027935      -164.0284
  24   2.0000      -1.005695       -27.3663
  25   2.0000      -0.983427       -26.7604
  26   2.0000      -0.911542       -24.8043
  27   2.0000      -0.906672       -24.6718
  28   2.0000      -0.871835       -23.7238
  29   2.0000      -0.852697       -23.2031
  30   2.0000      -0.844926       -22.9916
  31   2.0000      -0.816951       -22.2304
  32   2.0000      -0.788585       -21.4585
  33   2.0000      -0.772382       -21.0176
  34   2.0000      -0.711766       -19.3681
  35   2.0000      -0.694632       -18.9019
  36   2.0000      -0.682985       -18.5850
  37   2.0000      -0.659626       -17.9493
  38   2.0000      -0.638568       -17.3763
  39   2.0000      -0.620998       -16.8982
  40   2.0000      -0.600243       -16.3335
  41   2.0000      -0.566923       -15.4267
  42   2.0000      -0.560367       -15.2484
  43   2.0000      -0.555495       -15.1158
  44   2.0000      -0.534921       -14.5559
  45   2.0000      -0.525303       -14.2942
  46   2.0000      -0.515033       -14.0148
  47   2.0000      -0.513294       -13.9674
  48   2.0000      -0.499313       -13.5870
  49   2.0000      -0.494674       -13.4608
  50   2.0000      -0.493750       -13.4356
  51   2.0000      -0.486887       -13.2489
  52   2.0000      -0.472081       -12.8460
  53   2.0000      -0.464806       -12.6480
  54   2.0000      -0.458228       -12.4690
  55   2.0000      -0.453298       -12.3349
  56   2.0000      -0.450532       -12.2596
  57   2.0000      -0.439932       -11.9712
  58   2.0000      -0.430539       -11.7156
  59   2.0000      -0.425596       -11.5811
  60   2.0000      -0.421568       -11.4714
  61   2.0000      -0.416040       -11.3210
  62   2.0000      -0.406523       -11.0621
  63   2.0000      -0.348424        -9.4811
  64   2.0000      -0.332772        -9.0552
  65   2.0000      -0.327278        -8.9057
  66   2.0000      -0.288678        -7.8553
  67   0.0000       0.028319         0.7706
  68   0.0000       0.067164         1.8276
  69   0.0000       0.107381         2.9220
  70   0.0000       0.120476         3.2783
  71   0.0000       0.130502         3.5511

MULLIKEN ATOMIC CHARGES
-----------------------
   0 S :    0.111341
   1 C :   -0.111579
   2 C :   -0.089245
   3 C :    0.002142
   4 C :   -0.153709
   5 H :    0.036545
   6 C :    0.045389
   7 H :    0.026048
   8 H :    0.039828
   9 C :   -0.074219
  10 H :    0.033392
  11 H :    0.031559
  12 C :    0.013600
  13 H :    0.026414
  14 H :    0.022589
  15 H :    0.009117
  16 S :    0.089917
  17 C :   -0.071876
  18 C :   -0.026523
  19 C :   -0.039111
  20 C :   -0.160595
  21 H :    0.024364
  22 C :    0.049182
  23 H :    0.034899
  24 H :    0.019231
  25 C :   -0.126603
  26 H :    0.031078
  27 H :    0.042102
  28 C :   -0.003251
  29 H :    0.029026
  30 H :    0.019222
  31 H :    0.033765
  32 H :    0.032574
  33 H :    0.053387
Sum of atomic charges:    0.0000000

LOEWDIN ATOMIC CHARGES
----------------------
   0 S :    0.403928
   1 C :   -0.197387
   2 C :   -0.065240
   3 C :   -0.065473
   4 C :   -0.193596
   5 H :    0.038970
   6 C :   -0.035496
   7 H :    0.036350
   8 H :    0.029992
   9 C :   -0.035297
  10 H :    0.020909
  11 H :    0.031342
  12 C :   -0.053276
  13 H :    0.025485
  14 H :    0.022458
  15 H :    0.019832
  16 S :    0.382063
  17 C :   -0.176564
  18 C :   -0.070449
  19 C :   -0.057331
  20 C :   -0.183802
  21 H :    0.036412
  22 C :   -0.036452
  23 H :    0.035317
  24 H :    0.026803
  25 C :   -0.052835
  26 H :    0.026387
  27 H :    0.031321
  28 C :   -0.061672
  29 H :    0.026143
  30 H :    0.019291
  31 H :    0.028269
  32 H :    0.020290
  33 H :    0.023309

  Mayer bond orders larger than 0.100000
B(  0-S ,  1-C ) :   1.1464 B(  0-S ,  4-C ) :   1.1327 B(  1-C ,  2-C ) :   1.6146
B(  1-C , 32-H ) :   0.9736 B(  2-C ,  3-C ) :   1.2496 B(  2-C ,  6-C ) :   0.9952
B(  3-C ,  4-C ) :   1.5934 B(  3-C ,  5-H ) :   0.9727 B(  4-C , 20-C ) :   1.0555
B(  6-C ,  7-H ) :   0.9356 B(  6-C ,  8-H ) :   0.9436 B(  6-C ,  9-C ) :   1.0810
B(  9-C , 10-H ) :   0.9511 B(  9-C , 11-H ) :   0.9513 B(  9-C , 12-C ) :   1.0843
B( 12-C , 13-H ) :   0.9715 B( 12-C , 14-H ) :   0.9736 B( 12-C , 15-H ) :   0.9675
B( 16-S , 17-C ) :   1.1450 B( 16-S , 20-C ) :   1.1248 B( 17-C , 18-C ) :   1.6227
B( 17-C , 33-H ) :   0.9651 B( 18-C , 19-C ) :   1.2453 B( 18-C , 21-H ) :   0.9847
B( 19-C , 20-C ) :   1.6166 B( 19-C , 22-C ) :   1.0351 B( 22-C , 23-H ) :   0.9354
B( 22-C , 24-H ) :   0.9344 B( 22-C , 25-C ) :   1.0618 B( 25-C , 26-H ) :   0.9527
B( 25-C , 27-H ) :   0.9531 B( 25-C , 28-C ) :   1.0886 B( 28-C , 29-H ) :   0.9704
B( 28-C , 30-H ) :   0.9727 B( 28-C , 31-H ) :   0.9710

Dispersion correction           -0.014541803
FINAL SINGLE POINT ENERGY     -1339.880575750472

DIPOLE MOMENT
-------------
                                X             Y             Z
Electronic contribution:    -13.49080     -24.34819      -8.77047
Nuclear contribution   :     13.78260      24.92093       9.02562
                        -----------------------------------------
Total Dipole Moment    :      0.29179       0.57275       0.25515
                        -----------------------------------------
Magnitude (a.u.)       :      0.69158
Magnitude (Debye)      :      1.75786

Rotational constants in cm-1:     0.016319     0.009768     0.007546
Rotational constants in MHz :   489.235851   292.843299   226.231457

                             ****ORCA TERMINATED NORMALLY****
TOTAL RUN TIME: 0 days 0 hours 0 minutes 29 seconds 196 msec
