                         Program Version 4.2.1 -  RELEASE  -
|  1> ! wB97X-D3 SP def2-SVP
|  2> %pal
|  3> nprocs 16
|  4> end
|  5>
|  6> * xyz 0 1
|  7> S 	 -109.274 	 55.2122 	 118.627
|  8> C 	 -109.916 	 53.5975 	 118.855
|  9> C 	 -108.901 	 52.6808 	 118.684
| 10> C 	 -107.608 	 53.2602 	 118.431
| 11> C 	 -107.667 	 54.6488 	 118.279
| 12> H 	 -106.703 	 52.7629 	 118.355
| 13> C 	 -109.031 	 51.1455 	 118.873
| 14> H 	 -109.675 	 50.752 	 118.096
| 15> H 	 -109.416 	 50.9212 	 119.841
| 16> C 	 -107.79 	 50.2599 	 118.874
| 17> H 	 -107.277 	 50.4247 	 117.978
| 18> H 	 -107.152 	 50.5866 	 119.726
| 19> C 	 -108.192 	 48.7679 	 118.88
| 20> H 	 -108.747 	 48.6498 	 117.94
| 21> H 	 -107.37 	 48.0934 	 119.091
| 22> H 	 -108.918 	 48.636 	 119.694
| 23> S 	 -105.714 	 56.2534 	 119.486
| 24> C 	 -104.5 	 56.982 	 118.453
| 25> C 	 -104.674 	 56.5748 	 117.149
| 26> C 	 -105.789 	 55.7007 	 116.902
| 27> C 	 -106.557 	 55.5977 	 118.021
| 28> H 	 -103.904 	 56.7686 	 116.409
| 29> C 	 -106.033 	 54.9924 	 115.625
| 30> H 	 -105.617 	 55.6071 	 114.807
| 31> H 	 -107.085 	 54.8626 	 115.428
| 32> C 	 -105.229 	 53.5858 	 115.457
| 33> H 	 -105.308 	 53.3711 	 114.389
| 34> H 	 -105.832 	 52.8608 	 116.012
| 35> C 	 -103.818 	 53.5383 	 115.944
| 36> H 	 -103.453 	 54.5284 	 115.876
| 37> H 	 -103.106 	 52.9076 	 115.439
| 38> H 	 -103.657 	 53.1544 	 116.918
| 39> H 	 -110.969 	 53.3689 	 119.087
| 40> H 	 -103.628 	 57.5353 	 118.709
| 41> *
| 42>
| 43>                          ****END OF INPUT****

CARTESIAN COORDINATES (ANGSTROEM)
---------------------------------
  S    -109.274000   55.212200  118.627000
  C    -109.916000   53.597500  118.855000
  C    -108.901000   52.680800  118.684000
  C    -107.608000   53.260200  118.431000
  C    -107.667000   54.648800  118.279000
  H    -106.703000   52.762900  118.355000
  C    -109.031000   51.145500  118.873000
  H    -109.675000   50.752000  118.096000
  H    -109.416000   50.921200  119.841000
  C    -107.790000   50.259900  118.874000
  H    -107.277000   50.424700  117.978000
  H    -107.152000   50.586600  119.726000
  C    -108.192000   48.767900  118.880000
  H    -108.747000   48.649800  117.940000
  H    -107.370000   48.093400  119.091000
  H    -108.918000   48.636000  119.694000
  S    -105.714000   56.253400  119.486000
  C    -104.500000   56.982000  118.453000
  C    -104.674000   56.574800  117.149000
  C    -105.789000   55.700700  116.902000
  C    -106.557000   55.597700  118.021000
  H    -103.904000   56.768600  116.409000
  C    -106.033000   54.992400  115.625000
  H    -105.617000   55.607100  114.807000
  H    -107.085000   54.862600  115.428000
  C    -105.229000   53.585800  115.457000
  H    -105.308000   53.371100  114.389000
  H    -105.832000   52.860800  116.012000
  C    -103.818000   53.538300  115.944000
  H    -103.453000   54.528400  115.876000
  H    -103.106000   52.907600  115.439000
  H    -103.657000   53.154400  116.918000
  H    -110.969000   53.368900  119.087000
  H    -103.628000   57.535300  118.709000

 Total Charge           Charge          ....    0
 Multiplicity           Mult            ....    1
 Number of Electrons    NEL             ....  134
 Basis Dimension        Dim             ....  322

ORBITAL ENERGIES
----------------

  NO   OCC          E(Eh)            E(eV)
   0   2.0000     -88.964932     -2420.8589
   1   2.0000     -88.964507     -2420.8473
   2   2.0000     -10.329314      -281.0749
   3   2.0000     -10.326008      -280.9850
   4   2.0000     -10.317092      -280.7424
   5   2.0000     -10.316618      -280.7295
   6   2.0000     -10.304352      -280.3957
   7   2.0000     -10.301648      -280.3221
   8   2.0000     -10.295241      -280.1478
   9   2.0000     -10.292242      -280.0661
  10   2.0000     -10.291883      -280.0564
  11   2.0000     -10.291183      -280.0373
  12   2.0000     -10.287925      -279.9487
  13   2.0000     -10.283636      -279.8320
  14   2.0000     -10.283424      -279.8262
  15   2.0000     -10.267910      -279.4040
  16   2.0000      -8.079272      -219.8482
  17   2.0000      -8.078703      -219.8327
  18   2.0000      -6.037720      -164.2947
  19   2.0000      -6.037389      -164.2857
  20   2.0000      -6.033583      -164.1821
  21   2.0000      -6.033511      -164.1802
  22   2.0000      -6.030288      -164.0925
  23   2.0000      -6.029152      -164.0616
  24   2.0000      -1.002652       -27.2836
  25   2.0000      -0.981863       -26.7178
  26   2.0000      -0.914296       -24.8792
  27   2.0000      -0.906337       -24.6627
  28   2.0000      -0.868423       -23.6310
  29   2.0000      -0.851722       -23.1765
  30   2.0000      -0.844089       -22.9688
  31   2.0000      -0.812887       -22.1198
  32   2.0000      -0.786208       -21.3938
  33   2.0000      -0.773731       -21.0543
  34   2.0000      -0.711888       -19.3715
  35   2.0000      -0.700172       -19.0527
  36   2.0000      -0.686949       -18.6928
  37   2.0000      -0.659402       -17.9432
  38   2.0000      -0.645151       -17.5554
  39   2.0000      -0.617897       -16.8138
  40   2.0000      -0.590778       -16.0759
  41   2.0000      -0.584576       -15.9071
  42   2.0000      -0.566250       -15.4084
  43   2.0000      -0.563336       -15.3291
  44   2.0000      -0.542084       -14.7509
  45   2.0000      -0.525705       -14.3052
  46   2.0000      -0.517686       -14.0870
  47   2.0000      -0.510405       -13.8888
  48   2.0000      -0.501611       -13.6495
  49   2.0000      -0.496431       -13.5086
  50   2.0000      -0.491143       -13.3647
  51   2.0000      -0.480855       -13.0847
  52   2.0000      -0.469142       -12.7660
  53   2.0000      -0.468090       -12.7374
  54   2.0000      -0.457998       -12.4628
  55   2.0000      -0.454218       -12.3599
  56   2.0000      -0.448501       -12.2043
  57   2.0000      -0.436135       -11.8678
  58   2.0000      -0.432830       -11.7779
  59   2.0000      -0.420996       -11.4559
  60   2.0000      -0.417083       -11.3494
  61   2.0000      -0.414642       -11.2830
  62   2.0000      -0.414300       -11.2737
  63   2.0000      -0.335041        -9.1169
  64   2.0000      -0.325879        -8.8676
  65   2.0000      -0.324245        -8.8232
  66   2.0000      -0.310174        -8.4403
  67   0.0000       0.040134         1.0921
  68   0.0000       0.053381         1.4526
  69   0.0000       0.108459         2.9513
  70   0.0000       0.125653         3.4192
  71   0.0000       0.132182         3.5969

MULLIKEN ATOMIC CHARGES
-----------------------
   0 S :    0.114065
   1 C :   -0.141186
   2 C :   -0.063238
   3 C :    0.060770
   4 C :   -0.183706
   5 H :   -0.008461
   6 C :    0.031336
   7 H :    0.029603
   8 H :    0.027234
   9 C :   -0.099224
  10 H :    0.018558
  11 H :    0.039167
  12 C :   -0.024525
  13 H :    0.035562
  14 H :    0.045360
  15 H :    0.021338
  16 S :    0.101171
  17 C :   -0.064499
  18 C :   -0.045831
  19 C :   -0.021301
  20 C :   -0.159228
  21 H :    0.022328
  22 C :    0.059375
  23 H :    0.024075
  24 H :    0.040710
  25 C :   -0.078676
  26 H :    0.036332
  27 H :    0.024708
  28 C :    0.007213
  29 H :    0.000739
  30 H :    0.022323
  31 H :    0.021453
  32 H :    0.060408
  33 H :    0.046048
Sum of atomic charges:    0.0000000

LOEWDIN ATOMIC CHARGES
----------------------
   0 S :    0.418074
   1 C :   -0.202961
   2 C :   -0.062224
   3 C :   -0.055995
   4 C :   -0.201618
   5 H :    0.018565
   6 C :   -0.032364
   7 H :    0.028625
   8 H :    0.027253
   9 C :   -0.043267
  10 H :    0.010400
  11 H :    0.025607
  12 C :   -0.057923
  13 H :    0.030383
  14 H :    0.028703
  15 H :    0.023452
  16 S :    0.379599
  17 C :   -0.176437
  18 C :   -0.073866
  19 C :   -0.052393
  20 C :   -0.186674
  21 H :    0.026890
  22 C :   -0.027861
  23 H :    0.031931
  24 H :    0.035170
  25 C :   -0.030126
  26 H :    0.026533
  27 H :    0.019778
  28 C :   -0.068313
  29 H :    0.020195
  30 H :    0.029272
  31 H :    0.025836
  32 H :    0.037173
  33 H :    0.028582

  Mayer bond orders larger than 0.100000
B(  0-S ,  1-C ) :   1.1451 B(  0-S ,  4-C ) :   1.1765 B(  1-C ,  2-C ) :   1.6042
B(  1-C , 32-H ) :   0.9753 B(  2-C ,  3-C ) :   1.2593 B(  2-C ,  6-C ) :   0.9897
B(  3-C ,  4-C ) :   1.5491 B(  3-C ,  5-H ) :   1.0002 B(  4-C , 20-C ) :   0.9920
B(  6-C ,  7-H ) :   0.9417 B(  6-C ,  8-H ) :   0.9458 B(  6-C ,  9-C ) :   1.0925
B(  9-C , 10-H ) :   0.9480 B(  9-C , 11-H ) :   0.9506 B(  9-C , 12-C ) :   1.0740
B( 12-C , 13-H ) :   0.9737 B( 12-C , 14-H ) :   0.9719 B( 12-C , 15-H ) :   0.9758
B( 16-S , 17-C ) :   1.1404 B( 16-S , 20-C ) :   1.1247 B( 17-C , 18-C ) :   1.6421
B( 17-C , 33-H ) :   0.9671 B( 18-C , 19-C ) :   1.2168 B( 18-C , 21-H ) :   0.9759
B( 19-C , 20-C ) :   1.6291 B( 19-C , 22-C ) :   1.0691 B( 22-C , 23-H ) :   0.9311
B( 22-C , 24-H ) :   0.9341 B( 22-C , 25-C ) :   1.0592 B( 25-C , 26-H ) :   0.9590
B( 25-C , 27-H ) :   0.9567 B( 25-C , 28-C ) :   1.0792 B( 28-C , 29-H ) :   0.9708
B( 28-C , 30-H ) :   0.9673 B( 28-C , 31-H ) :   0.9679

Dispersion correction           -0.015008586
FINAL SINGLE POINT ENERGY     -1339.868584180438

DIPOLE MOMENT
-------------
                                X             Y             Z
Electronic contribution:     -7.07131      25.95046      10.29830
Nuclear contribution   :      7.42758     -26.61236     -10.61247
                        -----------------------------------------
Total Dipole Moment    :      0.35627      -0.66190      -0.31417
                        -----------------------------------------
Magnitude (a.u.)       :      0.81471
Magnitude (Debye)      :      2.07082

Rotational constants in cm-1:     0.018045     0.009066     0.007223
Rotational constants in MHz :   540.961125   271.794999   216.551687

                             ****ORCA TERMINATED NORMALLY****
TOTAL RUN TIME: 0 days 0 hours 0 minutes 34 seconds 708 msec
