                         Program Version 4.2.1 -  RELEASE  -
|  1> ! wB97X-D3 SP def2-SVP
|  2> %pal
|  3> nprocs 16
|  4> end
|  5>
|  6> * xyz 0 1
|  7> S 	 -75.4082 	 48.4092 	 138.333
|  8> C 	 -75.845 	 49.9102 	 137.566
|  9> C 	 -74.7142 	 50.7458 	 137.539
| 10> C 	 -73.5094 	 50.0159 	 137.764
| 11> C 	 -73.7193 	 48.7638 	 137.914
| 12> H 	 -72.5029 	 50.3153 	 137.679
| 13> C 	 -74.7461 	 52.2189 	 137.087
| 14> H 	 -75.7666 	 52.5727 	 137.44
| 15> H 	 -74.7903 	 52.2794 	 135.93
| 16> C 	 -73.5009 	 53.0837 	 137.54
| 17> H 	 -73.5934 	 53.2823 	 138.66
| 18> H 	 -72.5267 	 52.6315 	 137.292
| 19> C 	 -73.6983 	 54.3715 	 136.806
| 20> H 	 -72.8463 	 55.015 	 136.877
| 21> H 	 -73.7882 	 54.2919 	 135.747
| 22> H 	 -74.5485 	 54.9396 	 137.326
| 23> S 	 -72.7273 	 46.9803 	 139.723
| 24> C 	 -71.1871 	 46.2452 	 139.447
| 25> C 	 -70.7482 	 46.5451 	 138.185
| 26> C 	 -71.5586 	 47.4191 	 137.428
| 27> C 	 -72.6787 	 47.8228 	 138.178
| 28> H 	 -69.8593 	 46.1383 	 137.803
| 29> C 	 -71.187 	 47.8747 	 136.046
| 30> H 	 -70.1019 	 47.8484 	 135.869
| 31> H 	 -71.5799 	 48.9555 	 135.845
| 32> C 	 -71.7547 	 47.0921 	 134.808
| 33> H 	 -72.8299 	 47.0047 	 134.707
| 34> H 	 -71.2744 	 46.0696 	 134.901
| 35> C 	 -71.2721 	 47.7133 	 133.478
| 36> H 	 -71.5253 	 48.7659 	 133.299
| 37> H 	 -71.5642 	 47.1108 	 132.594
| 38> H 	 -70.2113 	 47.6877 	 133.481
| 39> H 	 -76.906 	 50.1289 	 137.459
| 40> H 	 -70.7303 	 45.5582 	 140.136
| 41> *
| 42>
| 43>                          ****END OF INPUT****

CARTESIAN COORDINATES (ANGSTROEM)
---------------------------------
  S    -75.408200   48.409200  138.333000
  C    -75.845000   49.910200  137.566000
  C    -74.714200   50.745800  137.539000
  C    -73.509400   50.015900  137.764000
  C    -73.719300   48.763800  137.914000
  H    -72.502900   50.315300  137.679000
  C    -74.746100   52.218900  137.087000
  H    -75.766600   52.572700  137.440000
  H    -74.790300   52.279400  135.930000
  C    -73.500900   53.083700  137.540000
  H    -73.593400   53.282300  138.660000
  H    -72.526700   52.631500  137.292000
  C    -73.698300   54.371500  136.806000
  H    -72.846300   55.015000  136.877000
  H    -73.788200   54.291900  135.747000
  H    -74.548500   54.939600  137.326000
  S    -72.727300   46.980300  139.723000
  C    -71.187100   46.245200  139.447000
  C    -70.748200   46.545100  138.185000
  C    -71.558600   47.419100  137.428000
  C    -72.678700   47.822800  138.178000
  H    -69.859300   46.138300  137.803000
  C    -71.187000   47.874700  136.046000
  H    -70.101900   47.848400  135.869000
  H    -71.579900   48.955500  135.845000
  C    -71.754700   47.092100  134.808000
  H    -72.829900   47.004700  134.707000
  H    -71.274400   46.069600  134.901000
  C    -71.272100   47.713300  133.478000
  H    -71.525300   48.765900  133.299000
  H    -71.564200   47.110800  132.594000
  H    -70.211300   47.687700  133.481000
  H    -76.906000   50.128900  137.459000
  H    -70.730300   45.558200  140.136000

 Total Charge           Charge          ....    0
 Multiplicity           Mult            ....    1
 Number of Electrons    NEL             ....  134
 Basis Dimension        Dim             ....  322

ORBITAL ENERGIES
----------------

  NO   OCC          E(Eh)            E(eV)
   0   2.0000     -88.963021     -2420.8069
   1   2.0000     -88.956895     -2420.6402
   2   2.0000     -10.323619      -280.9199
   3   2.0000     -10.314676      -280.6766
   4   2.0000     -10.313890      -280.6552
   5   2.0000     -10.312398      -280.6146
   6   2.0000     -10.306367      -280.4505
   7   2.0000     -10.304512      -280.4000
   8   2.0000     -10.302722      -280.3513
   9   2.0000     -10.302358      -280.3414
  10   2.0000     -10.298508      -280.2367
  11   2.0000     -10.290978      -280.0318
  12   2.0000     -10.286292      -279.9042
  13   2.0000     -10.280232      -279.7393
  14   2.0000     -10.277408      -279.6625
  15   2.0000     -10.276819      -279.6465
  16   2.0000      -8.078212      -219.8193
  17   2.0000      -8.072455      -219.6627
  18   2.0000      -6.036633      -164.2651
  19   2.0000      -6.032637      -164.1564
  20   2.0000      -6.030947      -164.1104
  21   2.0000      -6.029064      -164.0592
  22   2.0000      -6.027383      -164.0134
  23   2.0000      -6.022646      -163.8845
  24   2.0000      -1.015148       -27.6236
  25   2.0000      -0.987336       -26.8668
  26   2.0000      -0.908793       -24.7295
  27   2.0000      -0.903948       -24.5977
  28   2.0000      -0.878065       -23.8934
  29   2.0000      -0.855177       -23.2706
  30   2.0000      -0.847687       -23.0667
  31   2.0000      -0.817063       -22.2334
  32   2.0000      -0.776931       -21.1414
  33   2.0000      -0.760125       -20.6841
  34   2.0000      -0.708244       -19.2723
  35   2.0000      -0.692858       -18.8536
  36   2.0000      -0.689623       -18.7656
  37   2.0000      -0.661698       -18.0057
  38   2.0000      -0.649589       -17.6762
  39   2.0000      -0.623017       -16.9532
  40   2.0000      -0.599721       -16.3192
  41   2.0000      -0.571190       -15.5429
  42   2.0000      -0.566726       -15.4214
  43   2.0000      -0.556693       -15.1484
  44   2.0000      -0.526911       -14.3380
  45   2.0000      -0.520232       -14.1562
  46   2.0000      -0.517745       -14.0886
  47   2.0000      -0.510989       -13.9047
  48   2.0000      -0.504140       -13.7183
  49   2.0000      -0.499289       -13.5863
  50   2.0000      -0.486597       -13.2410
  51   2.0000      -0.481645       -13.1062
  52   2.0000      -0.465858       -12.6766
  53   2.0000      -0.463270       -12.6062
  54   2.0000      -0.459536       -12.5046
  55   2.0000      -0.448844       -12.2137
  56   2.0000      -0.445130       -12.1126
  57   2.0000      -0.435165       -11.8414
  58   2.0000      -0.432585       -11.7712
  59   2.0000      -0.429799       -11.6954
  60   2.0000      -0.424311       -11.5461
  61   2.0000      -0.414023       -11.2661
  62   2.0000      -0.405917       -11.0456
  63   2.0000      -0.352193        -9.5837
  64   2.0000      -0.331421        -9.0184
  65   2.0000      -0.320811        -8.7297
  66   2.0000      -0.286937        -7.8080
  67   0.0000       0.031207         0.8492
  68   0.0000       0.058663         1.5963
  69   0.0000       0.105531         2.8717
  70   0.0000       0.122491         3.3332
  71   0.0000       0.132644         3.6094

MULLIKEN ATOMIC CHARGES
-----------------------
   0 S :    0.080796
   1 C :   -0.119045
   2 C :   -0.040472
   3 C :    0.030039
   4 C :   -0.112018
   5 H :    0.003248
   6 C :   -0.021796
   7 H :    0.038541
   8 H :    0.055022
   9 C :   -0.094695
  10 H :    0.054465
  11 H :    0.046854
  12 C :   -0.034784
  13 H :    0.015295
  14 H :    0.026012
  15 H :    0.042565
  16 S :    0.102490
  17 C :   -0.083063
  18 C :   -0.015310
  19 C :    0.019235
  20 C :   -0.184193
  21 H :   -0.009268
  22 C :   -0.001342
  23 H :    0.026426
  24 H :    0.035562
  25 C :   -0.076930
  26 H :    0.044651
  27 H :    0.032368
  28 C :   -0.051222
  29 H :    0.033338
  30 H :    0.041039
  31 H :    0.008991
  32 H :    0.052565
  33 H :    0.054636
Sum of atomic charges:   -0.0000000

LOEWDIN ATOMIC CHARGES
----------------------
   0 S :    0.372401
   1 C :   -0.191664
   2 C :   -0.060582
   3 C :   -0.056861
   4 C :   -0.176902
   5 H :    0.030539
   6 C :   -0.042202
   7 H :    0.036294
   8 H :    0.040194
   9 C :   -0.045342
  10 H :    0.037933
  11 H :    0.025857
  12 C :   -0.069524
  13 H :    0.018625
  14 H :    0.019708
  15 H :    0.037908
  16 S :    0.409346
  17 C :   -0.191367
  18 C :   -0.065368
  19 C :   -0.065134
  20 C :   -0.182689
  21 H :    0.021003
  22 C :   -0.041270
  23 H :    0.031439
  24 H :    0.037787
  25 C :   -0.038642
  26 H :    0.023696
  27 H :    0.028214
  28 C :   -0.070751
  29 H :    0.024767
  30 H :    0.032078
  31 H :    0.015573
  32 H :    0.026299
  33 H :    0.028640

  Mayer bond orders larger than 0.100000
B(  0-S ,  1-C ) :   1.1255 B(  0-S ,  4-C ) :   1.1087 B(  1-C ,  2-C ) :   1.6161
B(  1-C , 32-H ) :   0.9790 B(  2-C ,  3-C ) :   1.1700 B(  2-C ,  6-C ) :   1.0086
B(  3-C ,  4-C ) :   1.6532 B(  3-C ,  5-H ) :   1.0068 B(  4-C , 20-C ) :   1.0473
B(  6-C ,  7-H ) :   0.9444 B(  6-C ,  8-H ) :   0.9490 B(  6-C ,  9-C ) :   1.0559
B(  9-C , 10-H ) :   0.9546 B(  9-C , 11-H ) :   0.9503 B(  9-C , 12-C ) :   1.0943
B( 12-C , 13-H ) :   0.9689 B( 12-C , 14-H ) :   0.9731 B( 12-C , 15-H ) :   0.9721
B( 16-S , 17-C ) :   1.1519 B( 16-S , 20-C ) :   1.1578 B( 17-C , 18-C ) :   1.5841
B( 17-C , 20-C ) :   0.1054 B( 17-C , 33-H ) :   0.9728 B( 18-C , 19-C ) :   1.2624
B( 18-C , 21-H ) :   0.9978 B( 19-C , 20-C ) :   1.5667 B( 19-C , 22-C ) :   1.0515
B( 22-C , 23-H ) :   0.9374 B( 22-C , 24-H ) :   0.9338 B( 22-C , 25-C ) :   1.0561
B( 25-C , 26-H ) :   0.9612 B( 25-C , 27-H ) :   0.9533 B( 25-C , 28-C ) :   1.0774
B( 28-C , 29-H ) :   0.9748 B( 28-C , 30-H ) :   0.9735 B( 28-C , 31-H ) :   0.9727

Dispersion correction           -0.013433152
FINAL SINGLE POINT ENERGY     -1339.847045114086

DIPOLE MOMENT
-------------
                                X             Y             Z
Electronic contribution:     -8.90871     -18.34553      21.18033
Nuclear contribution   :      9.28565      18.80126     -21.57454
                        -----------------------------------------
Total Dipole Moment    :      0.37694       0.45573      -0.39421
                        -----------------------------------------
Magnitude (a.u.)       :      0.71075
Magnitude (Debye)      :      1.80659

Rotational constants in cm-1:     0.016007     0.008868     0.007082
Rotational constants in MHz :   479.883995   265.852004   212.304596

                             ****ORCA TERMINATED NORMALLY****
TOTAL RUN TIME: 0 days 0 hours 0 minutes 34 seconds 730 msec
