                         Program Version 4.2.1 -  RELEASE  -
|  1> ! wB97X-D3 SP def2-SVP
|  2> %pal
|  3> nprocs 16
|  4> end
|  5>
|  6> * xyz 0 1
|  7> S 	 39.8773 	 14.4278 	 71.3983
|  8> C 	 38.1078 	 14.3111 	 71.292
|  9> C 	 37.5424 	 15.4856 	 70.7748
| 10> C 	 38.5751 	 16.3661 	 70.2703
| 11> C 	 39.8874 	 15.9392 	 70.5053
| 12> H 	 38.4166 	 17.3899 	 69.868
| 13> C 	 36.0381 	 15.7308 	 70.6357
| 14> H 	 35.8156 	 16.1706 	 69.6902
| 15> H 	 35.8659 	 16.444 	 71.4549
| 16> C 	 35.0523 	 14.6743 	 70.9958
| 17> H 	 35.2591 	 14.4884 	 72.0884
| 18> H 	 34.0814 	 15.2306 	 70.9396
| 19> C 	 35.013 	 13.4116 	 70.0104
| 20> H 	 34.3785 	 12.6211 	 70.5306
| 21> H 	 34.6953 	 13.5308 	 68.9708
| 22> H 	 36.0442 	 13.0005 	 69.7404
| 23> S 	 41.9985 	 16.6855 	 68.9125
| 24> C 	 43.3135 	 17.5442 	 69.4682
| 25> C 	 43.1642 	 17.9321 	 70.841
| 26> C 	 41.8459 	 17.4973 	 71.3818
| 27> C 	 41.111 	 16.7434 	 70.4473
| 28> H 	 43.9082 	 18.4865 	 71.4089
| 29> C 	 41.4037 	 17.7528 	 72.8644
| 30> H 	 42.1879 	 18.3118 	 73.3489
| 31> H 	 41.4894 	 16.831 	 73.412
| 32> C 	 40.1697 	 18.5816 	 73.1459
| 33> H 	 39.3274 	 18.2584 	 72.463
| 34> H 	 40.3034 	 19.5671 	 72.7774
| 35> C 	 39.69 	 18.6153 	 74.5029
| 36> H 	 40.4243 	 19.0747 	 75.1424
| 37> H 	 39.6791 	 17.5725 	 74.9025
| 38> H 	 38.7686 	 19.0728 	 74.7188
| 39> H 	 37.4942 	 13.6454 	 71.7903
| 40> H 	 44.2103 	 17.9702 	 68.9323
| 41> *
| 42>
| 43>                          ****END OF INPUT****

CARTESIAN COORDINATES (ANGSTROEM)
---------------------------------
  S     39.877300   14.427800   71.398300
  C     38.107800   14.311100   71.292000
  C     37.542400   15.485600   70.774800
  C     38.575100   16.366100   70.270300
  C     39.887400   15.939200   70.505300
  H     38.416600   17.389900   69.868000
  C     36.038100   15.730800   70.635700
  H     35.815600   16.170600   69.690200
  H     35.865900   16.444000   71.454900
  C     35.052300   14.674300   70.995800
  H     35.259100   14.488400   72.088400
  H     34.081400   15.230600   70.939600
  C     35.013000   13.411600   70.010400
  H     34.378500   12.621100   70.530600
  H     34.695300   13.530800   68.970800
  H     36.044200   13.000500   69.740400
  S     41.998500   16.685500   68.912500
  C     43.313500   17.544200   69.468200
  C     43.164200   17.932100   70.841000
  C     41.845900   17.497300   71.381800
  C     41.111000   16.743400   70.447300
  H     43.908200   18.486500   71.408900
  C     41.403700   17.752800   72.864400
  H     42.187900   18.311800   73.348900
  H     41.489400   16.831000   73.412000
  C     40.169700   18.581600   73.145900
  H     39.327400   18.258400   72.463000
  H     40.303400   19.567100   72.777400
  C     39.690000   18.615300   74.502900
  H     40.424300   19.074700   75.142400
  H     39.679100   17.572500   74.902500
  H     38.768600   19.072800   74.718800
  H     37.494200   13.645400   71.790300
  H     44.210300   17.970200   68.932300

 Total Charge           Charge          ....    0
 Multiplicity           Mult            ....    1
 Number of Electrons    NEL             ....  134
 Basis Dimension        Dim             ....  322

ORBITAL ENERGIES
----------------

  NO   OCC          E(Eh)            E(eV)
   0   2.0000     -88.967202     -2420.9206
   1   2.0000     -88.966224     -2420.8940
   2   2.0000     -10.331820      -281.1431
   3   2.0000     -10.328829      -281.0617
   4   2.0000     -10.321759      -280.8693
   5   2.0000     -10.316713      -280.7320
   6   2.0000     -10.312464      -280.6164
   7   2.0000     -10.307292      -280.4757
   8   2.0000     -10.303100      -280.3616
   9   2.0000     -10.302367      -280.3417
  10   2.0000     -10.302263      -280.3388
  11   2.0000     -10.293821      -280.1091
  12   2.0000     -10.292090      -280.0620
  13   2.0000     -10.290054      -280.0066
  14   2.0000     -10.275441      -279.6090
  15   2.0000     -10.267423      -279.3908
  16   2.0000      -8.081837      -219.9180
  17   2.0000      -8.081043      -219.8964
  18   2.0000      -6.040205      -164.3623
  19   2.0000      -6.039594      -164.3457
  20   2.0000      -6.035934      -164.2461
  21   2.0000      -6.035650      -164.2384
  22   2.0000      -6.032948      -164.1649
  23   2.0000      -6.031819      -164.1342
  24   2.0000      -0.999784       -27.2055
  25   2.0000      -0.978285       -26.6205
  26   2.0000      -0.916150       -24.9297
  27   2.0000      -0.914744       -24.8915
  28   2.0000      -0.862912       -23.4810
  29   2.0000      -0.850518       -23.1438
  30   2.0000      -0.840273       -22.8650
  31   2.0000      -0.804548       -21.8929
  32   2.0000      -0.787086       -21.4177
  33   2.0000      -0.777403       -21.1542
  34   2.0000      -0.707033       -19.2393
  35   2.0000      -0.702023       -19.1030
  36   2.0000      -0.689205       -18.7542
  37   2.0000      -0.656106       -17.8536
  38   2.0000      -0.636155       -17.3107
  39   2.0000      -0.606167       -16.4946
  40   2.0000      -0.591203       -16.0874
  41   2.0000      -0.578273       -15.7356
  42   2.0000      -0.561295       -15.2736
  43   2.0000      -0.555126       -15.1057
  44   2.0000      -0.535345       -14.5675
  45   2.0000      -0.531130       -14.4528
  46   2.0000      -0.517678       -14.0867
  47   2.0000      -0.513509       -13.9733
  48   2.0000      -0.503059       -13.6889
  49   2.0000      -0.500617       -13.6225
  50   2.0000      -0.485137       -13.2013
  51   2.0000      -0.480274       -13.0689
  52   2.0000      -0.470802       -12.8112
  53   2.0000      -0.466086       -12.6828
  54   2.0000      -0.460906       -12.5419
  55   2.0000      -0.441832       -12.0229
  56   2.0000      -0.440460       -11.9855
  57   2.0000      -0.436598       -11.8804
  58   2.0000      -0.431778       -11.7493
  59   2.0000      -0.429392       -11.6843
  60   2.0000      -0.422495       -11.4967
  61   2.0000      -0.405881       -11.0446
  62   2.0000      -0.395502       -10.7621
  63   2.0000      -0.333143        -9.0653
  64   2.0000      -0.326011        -8.8712
  65   2.0000      -0.318533        -8.6677
  66   2.0000      -0.310243        -8.4421
  67   0.0000       0.039395         1.0720
  68   0.0000       0.053729         1.4620
  69   0.0000       0.110781         3.0145
  70   0.0000       0.120137         3.2691
  71   0.0000       0.124959         3.4003

MULLIKEN ATOMIC CHARGES
-----------------------
   0 S :    0.115634
   1 C :   -0.075290
   2 C :   -0.131836
   3 C :    0.039597
   4 C :   -0.150012
   5 H :    0.030091
   6 C :    0.073846
   7 H :    0.031409
   8 H :    0.039162
   9 C :   -0.102368
  10 H :    0.041539
  11 H :    0.045042
  12 C :   -0.098426
  13 H :    0.055494
  14 H :    0.038092
  15 H :    0.044633
  16 S :    0.133515
  17 C :   -0.101141
  18 C :   -0.065865
  19 C :   -0.040522
  20 C :   -0.202269
  21 H :    0.025711
  22 C :    0.090186
  23 H :   -0.004782
  24 H :    0.027729
  25 C :   -0.053406
  26 H :    0.025906
  27 H :    0.010344
  28 C :   -0.005888
  29 H :    0.008847
  30 H :    0.021577
  31 H :    0.027204
  32 H :    0.023372
  33 H :    0.082875
Sum of atomic charges:   -0.0000000

LOEWDIN ATOMIC CHARGES
----------------------
   0 S :    0.402842
   1 C :   -0.186961
   2 C :   -0.057957
   3 C :   -0.058126
   4 C :   -0.206426
   5 H :    0.037397
   6 C :   -0.037798
   7 H :    0.026405
   8 H :    0.043525
   9 C :   -0.048935
  10 H :    0.031789
  11 H :    0.037108
  12 C :   -0.089857
  13 H :    0.035527
  14 H :    0.028527
  15 H :    0.034323
  16 S :    0.446245
  17 C :   -0.229387
  18 C :   -0.082564
  19 C :   -0.041534
  20 C :   -0.211582
  21 H :    0.029330
  22 C :   -0.029563
  23 H :    0.026946
  24 H :    0.029918
  25 C :   -0.050235
  26 H :    0.027982
  27 H :    0.019502
  28 C :   -0.060981
  29 H :    0.020614
  30 H :    0.030739
  31 H :    0.022692
  32 H :    0.011727
  33 H :    0.048768

  Mayer bond orders larger than 0.100000
B(  0-S ,  1-C ) :   1.1357 B(  0-S ,  4-C ) :   1.1479 B(  1-C ,  2-C ) :   1.6258
B(  1-C , 32-H ) :   0.9595 B(  2-C ,  3-C ) :   1.2469 B(  2-C ,  6-C ) :   1.0029
B(  3-C ,  4-C ) :   1.5865 B(  3-C ,  5-H ) :   0.9830 B(  4-C , 20-C ) :   1.0138
B(  6-C ,  7-H ) :   0.9486 B(  6-C ,  8-H ) :   0.9283 B(  6-C ,  9-C ) :   1.0911
B(  9-C , 10-H ) :   0.9543 B(  9-C , 11-H ) :   0.9516 B(  9-C , 12-C ) :   1.0473
B( 12-C , 13-H ) :   0.9778 B( 12-C , 14-H ) :   0.9742 B( 12-C , 15-H ) :   0.9761
B( 16-S , 17-C ) :   1.2009 B( 16-S , 20-C ) :   1.1487 B( 17-C , 18-C ) :   1.5630
B( 17-C , 33-H ) :   0.9573 B( 18-C , 19-C ) :   1.2719 B( 18-C , 21-H ) :   0.9854
B( 19-C , 20-C ) :   1.5816 B( 19-C , 22-C ) :   1.0314 B( 22-C , 23-H ) :   0.9254
B( 22-C , 24-H ) :   0.9373 B( 22-C , 25-C ) :   1.0572 B( 25-C , 26-H ) :   0.9496
B( 25-C , 27-H ) :   0.9444 B( 25-C , 28-C ) :   1.1038 B( 28-C , 29-H ) :   0.9665
B( 28-C , 30-H ) :   0.9683 B( 28-C , 31-H ) :   0.9682

Dispersion correction           -0.014685908
FINAL SINGLE POINT ENERGY     -1339.847633258780

DIPOLE MOMENT
-------------
                                X             Y             Z
Electronic contribution:     20.40615      -4.59529     -13.14395
Nuclear contribution   :    -20.82979       5.03431      13.49945
                        -----------------------------------------
Total Dipole Moment    :     -0.42364       0.43902       0.35550
                        -----------------------------------------
Magnitude (a.u.)       :      0.70610
Magnitude (Debye)      :      1.79477

Rotational constants in cm-1:     0.020481     0.008113     0.006605
Rotational constants in MHz :   613.992885   243.225094   198.015014

                             ****ORCA TERMINATED NORMALLY****
TOTAL RUN TIME: 0 days 0 hours 0 minutes 31 seconds 503 msec
