                         Program Version 4.2.1 -  RELEASE  -
|  1> ! wB97X-D3 SP def2-SVP
|  2> %pal
|  3> nprocs 16
|  4> end
|  5>
|  6> * xyz 0 1
|  7> S 	 8.91152 	 18.1646 	 41.497
|  8> C 	 10.2866 	 17.2964 	 42.2002
|  9> C 	 11.1872 	 18.2145 	 42.7437
| 10> C 	 10.7597 	 19.5769 	 42.5323
| 11> C 	 9.55715 	 19.7027 	 41.8571
| 12> H 	 11.3533 	 20.351 	 42.8932
| 13> C 	 12.5542 	 17.9598 	 43.3715
| 14> H 	 12.4103 	 17.4324 	 44.2994
| 15> H 	 12.8943 	 18.9589 	 43.4798
| 16> C 	 13.7162 	 17.285 	 42.5355
| 17> H 	 13.7705 	 17.9625 	 41.6785
| 18> H 	 14.6739 	 17.2777 	 43.0198
| 19> C 	 13.425 	 15.9315 	 41.9679
| 20> H 	 12.5384 	 15.8758 	 41.3058
| 21> H 	 14.27 	 15.5906 	 41.3928
| 22> H 	 13.1767 	 15.321 	 42.8353
| 23> S 	 7.11363 	 20.966 	 41.6454
| 24> C 	 6.96831 	 22.5986 	 40.9814
| 25> C 	 8.21979 	 23.1892 	 40.8776
| 26> C 	 9.31615 	 22.2554 	 41.1775
| 27> C 	 8.84002 	 20.9448 	 41.4757
| 28> H 	 8.28908 	 24.2018 	 40.589
| 29> C 	 10.766 	 22.6542 	 40.9009
| 30> H 	 11.3273 	 22.2557 	 41.6471
| 31> H 	 10.8167 	 23.6997 	 40.9839
| 32> C 	 11.2896 	 22.1204 	 39.5664
| 33> H 	 10.8453 	 22.6637 	 38.6893
| 34> H 	 10.9576 	 21.1014 	 39.5181
| 35> C 	 12.856 	 22.0895 	 39.4177
| 36> H 	 13.2512 	 23.0741 	 39.6318
| 37> H 	 13.1065 	 21.6758 	 38.4107
| 38> H 	 13.3718 	 21.4212 	 40.1935
| 39> H 	 10.4926 	 16.2064 	 42.0913
| 40> H 	 6.09719 	 23.2629 	 41.0234
| 41> *
| 42>
| 43>                          ****END OF INPUT****

CARTESIAN COORDINATES (ANGSTROEM)
---------------------------------
  S      8.911520   18.164600   41.497000
  C     10.286600   17.296400   42.200200
  C     11.187200   18.214500   42.743700
  C     10.759700   19.576900   42.532300
  C      9.557150   19.702700   41.857100
  H     11.353300   20.351000   42.893200
  C     12.554200   17.959800   43.371500
  H     12.410300   17.432400   44.299400
  H     12.894300   18.958900   43.479800
  C     13.716200   17.285000   42.535500
  H     13.770500   17.962500   41.678500
  H     14.673900   17.277700   43.019800
  C     13.425000   15.931500   41.967900
  H     12.538400   15.875800   41.305800
  H     14.270000   15.590600   41.392800
  H     13.176700   15.321000   42.835300
  S      7.113630   20.966000   41.645400
  C      6.968310   22.598600   40.981400
  C      8.219790   23.189200   40.877600
  C      9.316150   22.255400   41.177500
  C      8.840020   20.944800   41.475700
  H      8.289080   24.201800   40.589000
  C     10.766000   22.654200   40.900900
  H     11.327300   22.255700   41.647100
  H     10.816700   23.699700   40.983900
  C     11.289600   22.120400   39.566400
  H     10.845300   22.663700   38.689300
  H     10.957600   21.101400   39.518100
  C     12.856000   22.089500   39.417700
  H     13.251200   23.074100   39.631800
  H     13.106500   21.675800   38.410700
  H     13.371800   21.421200   40.193500
  H     10.492600   16.206400   42.091300
  H      6.097190   23.262900   41.023400

 Total Charge           Charge          ....    0
 Multiplicity           Mult            ....    1
 Number of Electrons    NEL             ....  134
 Basis Dimension        Dim             ....  322

ORBITAL ENERGIES
----------------

  NO   OCC          E(Eh)            E(eV)
   0   2.0000     -88.970073     -2420.9988
   1   2.0000     -88.968095     -2420.9449
   2   2.0000     -10.335818      -281.2519
   3   2.0000     -10.335183      -281.2346
   4   2.0000     -10.321385      -280.8592
   5   2.0000     -10.319264      -280.8014
   6   2.0000     -10.311506      -280.5903
   7   2.0000     -10.306033      -280.4414
   8   2.0000     -10.297301      -280.2038
   9   2.0000     -10.292781      -280.0808
  10   2.0000     -10.292596      -280.0758
  11   2.0000     -10.287236      -279.9299
  12   2.0000     -10.287102      -279.9263
  13   2.0000     -10.286494      -279.9097
  14   2.0000     -10.281144      -279.7642
  15   2.0000     -10.276656      -279.6420
  16   2.0000      -8.085005      -220.0042
  17   2.0000      -8.082563      -219.9377
  18   2.0000      -6.043597      -164.4546
  19   2.0000      -6.041148      -164.3880
  20   2.0000      -6.039276      -164.3370
  21   2.0000      -6.037067      -164.2770
  22   2.0000      -6.035860      -164.2441
  23   2.0000      -6.033280      -164.1739
  24   2.0000      -1.007398       -27.4127
  25   2.0000      -0.981673       -26.7127
  26   2.0000      -0.913475       -24.8569
  27   2.0000      -0.907517       -24.6948
  28   2.0000      -0.869377       -23.6570
  29   2.0000      -0.853005       -23.2115
  30   2.0000      -0.841445       -22.8969
  31   2.0000      -0.814754       -22.1706
  32   2.0000      -0.787091       -21.4178
  33   2.0000      -0.772866       -21.0307
  34   2.0000      -0.705744       -19.2043
  35   2.0000      -0.699671       -19.0390
  36   2.0000      -0.691619       -18.8199
  37   2.0000      -0.663483       -18.0543
  38   2.0000      -0.638697       -17.3798
  39   2.0000      -0.625161       -17.0115
  40   2.0000      -0.589327       -16.0364
  41   2.0000      -0.574650       -15.6370
  42   2.0000      -0.565779       -15.3956
  43   2.0000      -0.555930       -15.1276
  44   2.0000      -0.544524       -14.8173
  45   2.0000      -0.526434       -14.3250
  46   2.0000      -0.524857       -14.2821
  47   2.0000      -0.507518       -13.8103
  48   2.0000      -0.504397       -13.7253
  49   2.0000      -0.498731       -13.5712
  50   2.0000      -0.492107       -13.3909
  51   2.0000      -0.488440       -13.2911
  52   2.0000      -0.472261       -12.8509
  53   2.0000      -0.467665       -12.7258
  54   2.0000      -0.460771       -12.5382
  55   2.0000      -0.452652       -12.3173
  56   2.0000      -0.440221       -11.9790
  57   2.0000      -0.436471       -11.8770
  58   2.0000      -0.429429       -11.6854
  59   2.0000      -0.423779       -11.5316
  60   2.0000      -0.420023       -11.4294
  61   2.0000      -0.417098       -11.3498
  62   2.0000      -0.411609       -11.2004
  63   2.0000      -0.355325        -9.6689
  64   2.0000      -0.333164        -9.0659
  65   2.0000      -0.328749        -8.9457
  66   2.0000      -0.289324        -7.8729
  67   0.0000       0.021141         0.5753
  68   0.0000       0.072596         1.9755
  69   0.0000       0.103075         2.8048
  70   0.0000       0.114266         3.1093
  71   0.0000       0.127976         3.4824

MULLIKEN ATOMIC CHARGES
-----------------------
   0 S :    0.113047
   1 C :   -0.145962
   2 C :   -0.120810
   3 C :    0.019489
   4 C :   -0.110340
   5 H :   -0.010687
   6 C :    0.086706
   7 H :    0.042979
   8 H :    0.008639
   9 C :   -0.067125
  10 H :    0.019900
  11 H :    0.035996
  12 C :   -0.056339
  13 H :    0.033366
  14 H :    0.039362
  15 H :    0.024441
  16 S :    0.103459
  17 C :   -0.087343
  18 C :   -0.038685
  19 C :   -0.090318
  20 C :   -0.130585
  21 H :    0.010691
  22 C :    0.174271
  23 H :   -0.027658
  24 H :    0.003119
  25 C :   -0.079467
  26 H :    0.037000
  27 H :    0.032696
  28 C :   -0.073180
  29 H :    0.030852
  30 H :    0.050395
  31 H :    0.033701
  32 H :    0.070572
  33 H :    0.067815
Sum of atomic charges:    0.0000000

LOEWDIN ATOMIC CHARGES
----------------------
   0 S :    0.424144
   1 C :   -0.205279
   2 C :   -0.058197
   3 C :   -0.065632
   4 C :   -0.203650
   5 H :    0.017266
   6 C :   -0.025712
   7 H :    0.029270
   8 H :    0.027071
   9 C :   -0.036942
  10 H :    0.023505
  11 H :    0.025230
  12 C :   -0.069071
  13 H :    0.025288
  14 H :    0.027718
  15 H :    0.022431
  16 S :    0.408518
  17 C :   -0.193507
  18 C :   -0.062286
  19 C :   -0.049035
  20 C :   -0.201536
  21 H :    0.025528
  22 C :   -0.021650
  23 H :    0.012389
  24 H :    0.023198
  25 C :   -0.036158
  26 H :    0.029455
  27 H :    0.023780
  28 C :   -0.072019
  29 H :    0.019364
  30 H :    0.033055
  31 H :    0.028482
  32 H :    0.037805
  33 H :    0.037178

  Mayer bond orders larger than 0.100000
B(  0-S ,  1-C ) :   1.1344 B(  0-S ,  4-C ) :   1.1756 B(  1-C ,  2-C ) :   1.5916
B(  1-C , 32-H ) :   0.9625 B(  2-C ,  3-C ) :   1.2813 B(  2-C ,  6-C ) :   1.0094
B(  3-C ,  4-C ) :   1.5311 B(  3-C ,  5-H ) :   1.0009 B(  4-C , 20-C ) :   1.0324
B(  6-C ,  7-H ) :   0.9375 B(  6-C ,  8-H ) :   0.9411 B(  6-C ,  9-C ) :   1.0655
B(  9-C , 10-H ) :   0.9534 B(  9-C , 11-H ) :   0.9569 B(  9-C , 12-C ) :   1.0905
B( 12-C , 13-H ) :   0.9678 B( 12-C , 14-H ) :   0.9701 B( 12-C , 15-H ) :   0.9766
B( 16-S , 17-C ) :   1.1415 B( 16-S , 20-C ) :   1.1592 B( 17-C , 18-C ) :   1.6213
B( 17-C , 33-H ) :   0.9604 B( 18-C , 19-C ) :   1.2452 B( 18-C , 21-H ) :   0.9923
B( 19-C , 20-C ) :   1.5611 B( 19-C , 22-C ) :   1.0568 B( 22-C , 23-H ) :   0.9180
B( 22-C , 24-H ) :   0.9207 B( 22-C , 25-C ) :   1.0652 B( 25-C , 26-H ) :   0.9556
B( 25-C , 27-H ) :   0.9581 B( 25-C , 28-C ) :   1.0738 B( 28-C , 29-H ) :   0.9772
B( 28-C , 30-H ) :   0.9747 B( 28-C , 31-H ) :   0.9745

Dispersion correction           -0.014574919
FINAL SINGLE POINT ENERGY     -1339.866720920993

DIPOLE MOMENT
-------------
                                X             Y             Z
Electronic contribution:    -29.40847       1.28787       3.73403
Nuclear contribution   :     30.09930      -1.02121      -3.68710
                        -----------------------------------------
Total Dipole Moment    :      0.69083       0.26666       0.04693
                        -----------------------------------------
Magnitude (a.u.)       :      0.74200
Magnitude (Debye)      :      1.88601

Rotational constants in cm-1:     0.020244     0.008780     0.006672
Rotational constants in MHz :   606.906544   263.218975   200.016518

                             ****ORCA TERMINATED NORMALLY****
TOTAL RUN TIME: 0 days 0 hours 0 minutes 35 seconds 163 msec
