                         Program Version 4.2.1 -  RELEASE  -
|  1> ! wB97X-D3 SP def2-SVP
|  2> %pal
|  3> nprocs 16
|  4> end
|  5>
|  6> * xyz 0 1
|  7> S 	 -0.764575 	 -18.1602 	 67.5989
|  8> C 	 -0.490446 	 -19.2119 	 66.2361
|  9> C 	 -1.4692 	 -19.0863 	 65.2609
| 10> C 	 -2.53667 	 -18.2528 	 65.6895
| 11> C 	 -2.32679 	 -17.6882 	 66.8869
| 12> H 	 -3.44963 	 -18.1221 	 65.2269
| 13> C 	 -1.34306 	 -19.8686 	 63.9865
| 14> H 	 -0.278785 	 -19.8531 	 63.6377
| 15> H 	 -1.95659 	 -19.3435 	 63.2203
| 16> C 	 -1.81505 	 -21.3377 	 64.121
| 17> H 	 -1.42259 	 -22.0095 	 63.3345
| 18> H 	 -1.32126 	 -21.6993 	 64.9933
| 19> C 	 -3.28629 	 -21.5174 	 64.3875
| 20> H 	 -3.47562 	 -22.551 	 64.5266
| 21> H 	 -3.55805 	 -20.9746 	 65.2941
| 22> H 	 -3.98207 	 -21.0749 	 63.5948
| 23> S 	 -4.79122 	 -16.8319 	 67.6089
| 24> C 	 -4.98727 	 -15.3312 	 68.4758
| 25> C 	 -3.7738 	 -14.6895 	 68.6958
| 26> C 	 -2.63411 	 -15.4572 	 68.2416
| 27> C 	 -3.06135 	 -16.5963 	 67.5344
| 28> H 	 -3.72169 	 -13.7854 	 69.2697
| 29> C 	 -1.19812 	 -14.9446 	 68.3815
| 30> H 	 -0.775609 	 -15.109 	 67.4463
| 31> H 	 -0.588234 	 -15.619 	 69.0605
| 32> C 	 -1.06786 	 -13.4541 	 68.8184
| 33> H 	 -1.61927 	 -13.2662 	 69.7594
| 34> H 	 -1.53672 	 -12.7621 	 68.0971
| 35> C 	 0.280872 	 -12.9158 	 69.2192
| 36> H 	 0.658671 	 -13.6605 	 69.9141
| 37> H 	 0.126739 	 -11.9352 	 69.6197
| 38> H 	 0.920836 	 -12.755 	 68.3223
| 39> H 	 0.320426 	 -19.8127 	 66.0986
| 40> H 	 -5.91154 	 -14.9064 	 68.6479
| 41> *
| 42>
| 43>                          ****END OF INPUT****

CARTESIAN COORDINATES (ANGSTROEM)
---------------------------------
  S     -0.764575  -18.160200   67.598900
  C     -0.490446  -19.211900   66.236100
  C     -1.469200  -19.086300   65.260900
  C     -2.536670  -18.252800   65.689500
  C     -2.326790  -17.688200   66.886900
  H     -3.449630  -18.122100   65.226900
  C     -1.343060  -19.868600   63.986500
  H     -0.278785  -19.853100   63.637700
  H     -1.956590  -19.343500   63.220300
  C     -1.815050  -21.337700   64.121000
  H     -1.422590  -22.009500   63.334500
  H     -1.321260  -21.699300   64.993300
  C     -3.286290  -21.517400   64.387500
  H     -3.475620  -22.551000   64.526600
  H     -3.558050  -20.974600   65.294100
  H     -3.982070  -21.074900   63.594800
  S     -4.791220  -16.831900   67.608900
  C     -4.987270  -15.331200   68.475800
  C     -3.773800  -14.689500   68.695800
  C     -2.634110  -15.457200   68.241600
  C     -3.061350  -16.596300   67.534400
  H     -3.721690  -13.785400   69.269700
  C     -1.198120  -14.944600   68.381500
  H     -0.775609  -15.109000   67.446300
  H     -0.588234  -15.619000   69.060500
  C     -1.067860  -13.454100   68.818400
  H     -1.619270  -13.266200   69.759400
  H     -1.536720  -12.762100   68.097100
  C      0.280872  -12.915800   69.219200
  H      0.658671  -13.660500   69.914100
  H      0.126739  -11.935200   69.619700
  H      0.920836  -12.755000   68.322300
  H      0.320426  -19.812700   66.098600
  H     -5.911540  -14.906400   68.647900

 Total Charge           Charge          ....    0
 Multiplicity           Mult            ....    1
 Number of Electrons    NEL             ....  134
 Basis Dimension        Dim             ....  322

ORBITAL ENERGIES
----------------

  NO   OCC          E(Eh)            E(eV)
   0   2.0000     -88.966748     -2420.9083
   1   2.0000     -88.965872     -2420.8844
   2   2.0000     -10.327919      -281.0370
   3   2.0000     -10.327551      -281.0270
   4   2.0000     -10.311020      -280.5771
   5   2.0000     -10.308232      -280.5013
   6   2.0000     -10.306385      -280.4510
   7   2.0000     -10.299368      -280.2601
   8   2.0000     -10.296291      -280.1763
   9   2.0000     -10.295236      -280.1476
  10   2.0000     -10.293991      -280.1137
  11   2.0000     -10.288283      -279.9584
  12   2.0000     -10.288031      -279.9515
  13   2.0000     -10.283347      -279.8241
  14   2.0000     -10.277480      -279.6644
  15   2.0000     -10.276101      -279.6269
  16   2.0000      -8.080893      -219.8923
  17   2.0000      -8.080701      -219.8870
  18   2.0000      -6.039324      -164.3384
  19   2.0000      -6.039159      -164.3339
  20   2.0000      -6.035573      -164.2363
  21   2.0000      -6.035195      -164.2260
  22   2.0000      -6.031701      -164.1309
  23   2.0000      -6.031541      -164.1266
  24   2.0000      -1.007494       -27.4153
  25   2.0000      -0.983128       -26.7523
  26   2.0000      -0.912865       -24.8403
  27   2.0000      -0.908475       -24.7209
  28   2.0000      -0.869688       -23.6654
  29   2.0000      -0.857661       -23.3381
  30   2.0000      -0.848052       -23.0767
  31   2.0000      -0.819735       -22.3061
  32   2.0000      -0.784786       -21.3551
  33   2.0000      -0.769054       -20.9270
  34   2.0000      -0.705790       -19.2055
  35   2.0000      -0.699674       -19.0391
  36   2.0000      -0.696994       -18.9662
  37   2.0000      -0.661178       -17.9916
  38   2.0000      -0.642719       -17.4893
  39   2.0000      -0.616688       -16.7809
  40   2.0000      -0.599484       -16.3128
  41   2.0000      -0.572836       -15.5877
  42   2.0000      -0.569577       -15.4990
  43   2.0000      -0.553843       -15.0708
  44   2.0000      -0.538853       -14.6629
  45   2.0000      -0.534027       -14.5316
  46   2.0000      -0.517839       -14.0911
  47   2.0000      -0.514072       -13.9886
  48   2.0000      -0.510479       -13.8908
  49   2.0000      -0.491720       -13.3804
  50   2.0000      -0.491427       -13.3724
  51   2.0000      -0.482688       -13.1346
  52   2.0000      -0.467501       -12.7214
  53   2.0000      -0.462637       -12.5890
  54   2.0000      -0.460988       -12.5441
  55   2.0000      -0.457713       -12.4550
  56   2.0000      -0.442173       -12.0322
  57   2.0000      -0.437622       -11.9083
  58   2.0000      -0.433500       -11.7961
  59   2.0000      -0.426054       -11.5935
  60   2.0000      -0.423839       -11.5332
  61   2.0000      -0.411032       -11.1847
  62   2.0000      -0.410601       -11.1730
  63   2.0000      -0.353409        -9.6168
  64   2.0000      -0.333333        -9.0705
  65   2.0000      -0.329251        -8.9594
  66   2.0000      -0.286218        -7.7884
  67   0.0000       0.027199         0.7401
  68   0.0000       0.076059         2.0697
  69   0.0000       0.107983         2.9384
  70   0.0000       0.113926         3.1001
  71   0.0000       0.132053         3.5933

MULLIKEN ATOMIC CHARGES
-----------------------
   0 S :    0.096871
   1 C :   -0.067934
   2 C :   -0.100866
   3 C :    0.047342
   4 C :   -0.123239
   5 H :   -0.015965
   6 C :    0.044402
   7 H :    0.039176
   8 H :    0.027612
   9 C :   -0.046569
  10 H :    0.031999
  11 H :    0.007807
  12 C :   -0.056783
  13 H :    0.032127
  14 H :    0.036673
  15 H :    0.034734
  16 S :    0.100419
  17 C :   -0.048476
  18 C :   -0.042393
  19 C :   -0.067663
  20 C :   -0.151413
  21 H :    0.016169
  22 C :    0.102025
  23 H :    0.020960
  24 H :    0.042193
  25 C :   -0.144863
  26 H :    0.031106
  27 H :    0.033776
  28 C :   -0.014263
  29 H :    0.036688
  30 H :    0.030750
  31 H :    0.033683
  32 H :    0.005367
  33 H :    0.028547
Sum of atomic charges:    0.0000000

LOEWDIN ATOMIC CHARGES
----------------------
   0 S :    0.402388
   1 C :   -0.178338
   2 C :   -0.059491
   3 C :   -0.057932
   4 C :   -0.175679
   5 H :    0.019873
   6 C :   -0.034988
   7 H :    0.037963
   8 H :    0.030246
   9 C :   -0.043627
  10 H :    0.025169
  11 H :    0.019719
  12 C :   -0.066102
  13 H :    0.023297
  14 H :    0.027314
  15 H :    0.028926
  16 S :    0.412523
  17 C :   -0.177741
  18 C :   -0.064784
  19 C :   -0.056476
  20 C :   -0.198637
  21 H :    0.028891
  22 C :   -0.036297
  23 H :    0.022632
  24 H :    0.034329
  25 C :   -0.050320
  26 H :    0.024809
  27 H :    0.024612
  28 C :   -0.059008
  29 H :    0.027085
  30 H :    0.025937
  31 H :    0.025920
  32 H :    0.006066
  33 H :    0.011720

  Mayer bond orders larger than 0.100000
B(  0-S ,  1-C ) :   1.1382 B(  0-S ,  4-C ) :   1.1342 B(  1-C ,  2-C ) :   1.6178
B(  1-C , 32-H ) :   0.9760 B(  2-C ,  3-C ) :   1.2256 B(  2-C ,  6-C ) :   1.0279
B(  3-C ,  4-C ) :   1.5912 B(  3-C ,  5-H ) :   1.0048 B(  4-C , 20-C ) :   1.0170
B(  6-C ,  7-H ) :   0.9397 B(  6-C ,  8-H ) :   0.9430 B(  6-C ,  9-C ) :   1.0638
B(  9-C , 10-H ) :   0.9564 B(  9-C , 11-H ) :   0.9494 B(  9-C , 12-C ) :   1.0819
B( 12-C , 13-H ) :   0.9712 B( 12-C , 14-H ) :   0.9711 B( 12-C , 15-H ) :   0.9752
B( 16-S , 17-C ) :   1.1532 B( 16-S , 20-C ) :   1.1561 B( 17-C , 18-C ) :   1.5999
B( 17-C , 33-H ) :   0.9720 B( 18-C , 19-C ) :   1.2549 B( 18-C , 21-H ) :   0.9862
B( 19-C , 20-C ) :   1.5814 B( 19-C , 22-C ) :   1.0204 B( 22-C , 23-H ) :   0.9297
B( 22-C , 24-H ) :   0.9255 B( 22-C , 25-C ) :   1.0752 B( 25-C , 26-H ) :   0.9513
B( 25-C , 27-H ) :   0.9516 B( 25-C , 28-C ) :   1.0875 B( 28-C , 29-H ) :   0.9743
B( 28-C , 30-H ) :   0.9717 B( 28-C , 31-H ) :   0.9734

Dispersion correction           -0.013987859
FINAL SINGLE POINT ENERGY     -1339.876758706146

DIPOLE MOMENT
-------------
                                X             Y             Z
Electronic contribution:     -8.44599      -1.10720       5.95895
Nuclear contribution   :      8.63191       1.24471      -6.13756
                        -----------------------------------------
Total Dipole Moment    :      0.18592       0.13751      -0.17861
                        -----------------------------------------
Magnitude (a.u.)       :      0.29219
Magnitude (Debye)      :      0.74270

Rotational constants in cm-1:     0.023088     0.007683     0.006101
Rotational constants in MHz :   692.149193   230.317434   182.917987

                             ****ORCA TERMINATED NORMALLY****
TOTAL RUN TIME: 0 days 0 hours 0 minutes 34 seconds 367 msec
