                         Program Version 4.2.1 -  RELEASE  -
|  1> ! wB97X-D3 SP def2-SVP
|  2> %pal
|  3> nprocs 16
|  4> end
|  5>
|  6> * xyz 0 1
|  7> S 	 -65.6242 	 51.315 	 124.113
|  8> C 	 -65.9492 	 49.7886 	 124.81
|  9> C 	 -65.2602 	 48.8188 	 124.143
| 10> C 	 -64.5271 	 49.2867 	 123.025
| 11> C 	 -64.7869 	 50.5696 	 122.75
| 12> H 	 -63.9756 	 48.674 	 122.316
| 13> C 	 -65.2857 	 47.3086 	 124.364
| 14> H 	 -65.4698 	 47.039 	 125.441
| 15> H 	 -64.261 	 46.8999 	 124.231
| 16> C 	 -66.2027 	 46.5751 	 123.348
| 17> H 	 -67.1172 	 46.9428 	 123.679
| 18> H 	 -66.1318 	 46.9454 	 122.346
| 19> C 	 -66.1036 	 45.0581 	 123.46
| 20> H 	 -65.1349 	 44.719 	 123.202
| 21> H 	 -66.2495 	 44.8027 	 124.5
| 22> H 	 -66.7554 	 44.4399 	 122.728
| 23> S 	 -63.8265 	 52.9382 	 121.866
| 24> C 	 -63.8763 	 53.3492 	 120.187
| 25> C 	 -64.155 	 52.1998 	 119.415
| 26> C 	 -64.5778 	 51.0942 	 120.186
| 27> C 	 -64.4097 	 51.3655 	 121.566
| 28> H 	 -64.0587 	 52.2383 	 118.37
| 29> C 	 -65.0065 	 49.7963 	 119.514
| 30> H 	 -65.9992 	 49.9972 	 119.071
| 31> H 	 -65.132 	 49.1372 	 120.338
| 32> C 	 -64.1562 	 49.1922 	 118.366
| 33> H 	 -63.2882 	 48.7111 	 118.866
| 34> H 	 -63.7152 	 49.9162 	 117.666
| 35> C 	 -64.9631 	 48.1596 	 117.643
| 36> H 	 -64.5104 	 47.6353 	 116.831
| 37> H 	 -65.8721 	 48.6442 	 117.238
| 38> H 	 -65.2721 	 47.319 	 118.342
| 39> H 	 -66.7016 	 49.6747 	 125.583
| 40> H 	 -63.3481 	 54.198 	 119.813
| 41> *
| 42>
| 43>                          ****END OF INPUT****

CARTESIAN COORDINATES (ANGSTROEM)
---------------------------------
  S    -65.624200   51.315000  124.113000
  C    -65.949200   49.788600  124.810000
  C    -65.260200   48.818800  124.143000
  C    -64.527100   49.286700  123.025000
  C    -64.786900   50.569600  122.750000
  H    -63.975600   48.674000  122.316000
  C    -65.285700   47.308600  124.364000
  H    -65.469800   47.039000  125.441000
  H    -64.261000   46.899900  124.231000
  C    -66.202700   46.575100  123.348000
  H    -67.117200   46.942800  123.679000
  H    -66.131800   46.945400  122.346000
  C    -66.103600   45.058100  123.460000
  H    -65.134900   44.719000  123.202000
  H    -66.249500   44.802700  124.500000
  H    -66.755400   44.439900  122.728000
  S    -63.826500   52.938200  121.866000
  C    -63.876300   53.349200  120.187000
  C    -64.155000   52.199800  119.415000
  C    -64.577800   51.094200  120.186000
  C    -64.409700   51.365500  121.566000
  H    -64.058700   52.238300  118.370000
  C    -65.006500   49.796300  119.514000
  H    -65.999200   49.997200  119.071000
  H    -65.132000   49.137200  120.338000
  C    -64.156200   49.192200  118.366000
  H    -63.288200   48.711100  118.866000
  H    -63.715200   49.916200  117.666000
  C    -64.963100   48.159600  117.643000
  H    -64.510400   47.635300  116.831000
  H    -65.872100   48.644200  117.238000
  H    -65.272100   47.319000  118.342000
  H    -66.701600   49.674700  125.583000
  H    -63.348100   54.198000  119.813000

 Total Charge           Charge          ....    0
 Multiplicity           Mult            ....    1
 Number of Electrons    NEL             ....  134
 Basis Dimension        Dim             ....  322

ORBITAL ENERGIES
----------------

  NO   OCC          E(Eh)            E(eV)
   0   2.0000     -88.967867     -2420.9387
   1   2.0000     -88.960776     -2420.7458
   2   2.0000     -10.327641      -281.0294
   3   2.0000     -10.326634      -281.0020
   4   2.0000     -10.313333      -280.6400
   5   2.0000     -10.310437      -280.5613
   6   2.0000     -10.305370      -280.4234
   7   2.0000     -10.298731      -280.2427
   8   2.0000     -10.297067      -280.1974
   9   2.0000     -10.293713      -280.1062
  10   2.0000     -10.293386      -280.0973
  11   2.0000     -10.292135      -280.0632
  12   2.0000     -10.288123      -279.9541
  13   2.0000     -10.282781      -279.8087
  14   2.0000     -10.281862      -279.7837
  15   2.0000     -10.280223      -279.7391
  16   2.0000      -8.083603      -219.9660
  17   2.0000      -8.076587      -219.7751
  18   2.0000      -6.041912      -164.4088
  19   2.0000      -6.037837      -164.2979
  20   2.0000      -6.035101      -164.2234
  21   2.0000      -6.034664      -164.2116
  22   2.0000      -6.031021      -164.1124
  23   2.0000      -6.027186      -164.0081
  24   2.0000      -1.014842       -27.6153
  25   2.0000      -0.991970       -26.9929
  26   2.0000      -0.914763       -24.8920
  27   2.0000      -0.910540       -24.7770
  28   2.0000      -0.870943       -23.6996
  29   2.0000      -0.859624       -23.3916
  30   2.0000      -0.849796       -23.1241
  31   2.0000      -0.816040       -22.2056
  32   2.0000      -0.780305       -21.2332
  33   2.0000      -0.768430       -20.9100
  34   2.0000      -0.708939       -19.2912
  35   2.0000      -0.704295       -19.1648
  36   2.0000      -0.696373       -18.9493
  37   2.0000      -0.664712       -18.0877
  38   2.0000      -0.646618       -17.5954
  39   2.0000      -0.625512       -17.0211
  40   2.0000      -0.598616       -16.2892
  41   2.0000      -0.573061       -15.5938
  42   2.0000      -0.564488       -15.3605
  43   2.0000      -0.559740       -15.2313
  44   2.0000      -0.530642       -14.4395
  45   2.0000      -0.526941       -14.3388
  46   2.0000      -0.522286       -14.2121
  47   2.0000      -0.512119       -13.9355
  48   2.0000      -0.507366       -13.8061
  49   2.0000      -0.496379       -13.5072
  50   2.0000      -0.494387       -13.4529
  51   2.0000      -0.483372       -13.1532
  52   2.0000      -0.469268       -12.7694
  53   2.0000      -0.465047       -12.6546
  54   2.0000      -0.459446       -12.5022
  55   2.0000      -0.452013       -12.2999
  56   2.0000      -0.448157       -12.1950
  57   2.0000      -0.442185       -12.0325
  58   2.0000      -0.434199       -11.8152
  59   2.0000      -0.432226       -11.7615
  60   2.0000      -0.422445       -11.4953
  61   2.0000      -0.418248       -11.3811
  62   2.0000      -0.409438       -11.1414
  63   2.0000      -0.353211        -9.6114
  64   2.0000      -0.332947        -9.0599
  65   2.0000      -0.328325        -8.9342
  66   2.0000      -0.289004        -7.8642
  67   0.0000       0.029902         0.8137
  68   0.0000       0.070562         1.9201
  69   0.0000       0.104164         2.8344
  70   0.0000       0.124928         3.3995
  71   0.0000       0.126587         3.4446

MULLIKEN ATOMIC CHARGES
-----------------------
   0 S :    0.100626
   1 C :   -0.121982
   2 C :   -0.067683
   3 C :    0.027151
   4 C :   -0.138382
   5 H :    0.018901
   6 C :    0.003657
   7 H :    0.029913
   8 H :    0.021230
   9 C :   -0.023478
  10 H :    0.005170
  11 H :    0.023149
  12 C :   -0.028897
  13 H :    0.013523
  14 H :    0.027414
  15 H :    0.046677
  16 S :    0.117591
  17 C :   -0.092819
  18 C :   -0.039073
  19 C :   -0.033040
  20 C :   -0.164422
  21 H :    0.003597
  22 C :    0.084748
  23 H :    0.032904
  24 H :    0.001869
  25 C :   -0.062164
  26 H :    0.032014
  27 H :    0.036419
  28 C :   -0.061519
  29 H :    0.029968
  30 H :    0.032643
  31 H :    0.035539
  32 H :    0.051782
  33 H :    0.056973
Sum of atomic charges:    0.0000000

LOEWDIN ATOMIC CHARGES
----------------------
   0 S :    0.401973
   1 C :   -0.205134
   2 C :   -0.065747
   3 C :   -0.066268
   4 C :   -0.179810
   5 H :    0.033991
   6 C :   -0.034393
   7 H :    0.030964
   8 H :    0.026638
   9 C :   -0.036921
  10 H :    0.016496
  11 H :    0.020627
  12 C :   -0.065154
  13 H :    0.016203
  14 H :    0.025237
  15 H :    0.037947
  16 S :    0.443786
  17 C :   -0.199495
  18 C :   -0.058167
  19 C :   -0.056442
  20 C :   -0.213930
  21 H :    0.021305
  22 C :   -0.028471
  23 H :    0.035891
  24 H :    0.022335
  25 C :   -0.042708
  26 H :    0.028125
  27 H :    0.025168
  28 C :   -0.069551
  29 H :    0.021488
  30 H :    0.027013
  31 H :    0.033109
  32 H :    0.031075
  33 H :    0.022822

  Mayer bond orders larger than 0.100000
B(  0-S ,  1-C ) :   1.1324 B(  0-S ,  4-C ) :   1.1450 B(  1-C ,  2-C ) :   1.6241
B(  1-C , 32-H ) :   0.9753 B(  2-C ,  3-C ) :   1.2140 B(  2-C ,  6-C ) :   1.0297
B(  3-C ,  4-C ) :   1.6023 B(  3-C ,  5-H ) :   0.9958 B(  4-C , 20-C ) :   1.0161
B(  6-C ,  7-H ) :   0.9465 B(  6-C ,  8-H ) :   0.9440 B(  6-C ,  9-C ) :   1.0375
B(  9-C , 10-H ) :   0.9516 B(  9-C , 11-H ) :   0.9600 B(  9-C , 12-C ) :   1.0757
B( 12-C , 13-H ) :   0.9747 B( 12-C , 14-H ) :   0.9723 B( 12-C , 15-H ) :   0.9734
B( 16-S , 17-C ) :   1.1742 B( 16-S , 20-C ) :   1.1864 B( 17-C , 18-C ) :   1.5638
B( 17-C , 20-C ) :   0.1077 B( 17-C , 33-H ) :   0.9673 B( 18-C , 19-C ) :   1.2840
B( 18-C , 21-H ) :   0.9944 B( 19-C , 20-C ) :   1.5372 B( 19-C , 22-C ) :   1.0330
B( 22-C , 23-H ) :   0.9303 B( 22-C , 24-H ) :   0.9308 B( 22-C , 25-C ) :   1.0521
B( 25-C , 26-H ) :   0.9516 B( 25-C , 27-H ) :   0.9556 B( 25-C , 28-C ) :   1.0847
B( 28-C , 29-H ) :   0.9730 B( 28-C , 30-H ) :   0.9739 B( 28-C , 31-H ) :   0.9723

Dispersion correction           -0.013805713
FINAL SINGLE POINT ENERGY     -1339.872800072693

DIPOLE MOMENT
-------------
                                X             Y             Z
Electronic contribution:      4.43152      30.56947      13.09333
Nuclear contribution   :     -4.40177     -31.19475     -13.54386
                        -----------------------------------------
Total Dipole Moment    :      0.02975      -0.62527      -0.45052
                        -----------------------------------------
Magnitude (a.u.)       :      0.77125
Magnitude (Debye)      :      1.96035

Rotational constants in cm-1:     0.015783     0.009979     0.006366
Rotational constants in MHz :   473.149614   299.152830   190.840326

                             ****ORCA TERMINATED NORMALLY****
TOTAL RUN TIME: 0 days 0 hours 0 minutes 32 seconds 239 msec
