                         Program Version 4.2.1 -  RELEASE  -
|  1> ! wB97X-D3 SP def2-SVP
|  2> %pal
|  3> nprocs 16
|  4> end
|  5>
|  6> * xyz 0 1
|  7> S 	 -63.0299 	 42.5244 	 131.643
|  8> C 	 -64.2852 	 43.0981 	 132.688
|  9> C 	 -63.8928 	 44.2488 	 133.439
| 10> C 	 -62.4779 	 44.6068 	 133.177
| 11> C 	 -61.9259 	 43.784 	 132.133
| 12> H 	 -61.9603 	 45.385 	 133.607
| 13> C 	 -64.8125 	 45.0874 	 134.288
| 14> H 	 -65.7467 	 44.4999 	 134.46
| 15> H 	 -65.1515 	 45.869 	 133.639
| 16> C 	 -64.3315 	 45.5917 	 135.685
| 17> H 	 -63.8611 	 44.6665 	 136.09
| 18> H 	 -63.6608 	 46.4502 	 135.652
| 19> C 	 -65.5352 	 45.9919 	 136.564
| 20> H 	 -66.1006 	 45.1404 	 136.858
| 21> H 	 -65.1363 	 46.4587 	 137.507
| 22> H 	 -66.2114 	 46.7945 	 136.212
| 23> S 	 -59.768 	 42.1295 	 131.488
| 24> C 	 -58.1974 	 42.8911 	 131.304
| 25> C 	 -58.2828 	 44.2235 	 131.209
| 26> C 	 -59.5721 	 44.7557 	 131.484
| 27> C 	 -60.4944 	 43.7202 	 131.726
| 28> H 	 -57.3682 	 44.768 	 130.893
| 29> C 	 -59.9154 	 46.2176 	 131.255
| 30> H 	 -59.1141 	 46.7724 	 131.769
| 31> H 	 -60.8361 	 46.5003 	 131.755
| 32> C 	 -59.9187 	 46.7327 	 129.74
| 33> H 	 -58.955 	 46.7769 	 129.293
| 34> H 	 -60.3083 	 47.6671 	 129.811
| 35> C 	 -60.851 	 46.0517 	 128.838
| 36> H 	 -61.719 	 45.7758 	 129.344
| 37> H 	 -60.4021 	 45.1178 	 128.385
| 38> H 	 -61.2392 	 46.638 	 128.022
| 39> H 	 -65.3117 	 42.6782 	 132.641
| 40> H 	 -57.2125 	 42.3452 	 131.145
| 41> *
| 42>
| 43>                          ****END OF INPUT****

CARTESIAN COORDINATES (ANGSTROEM)
---------------------------------
  S    -63.029900   42.524400  131.643000
  C    -64.285200   43.098100  132.688000
  C    -63.892800   44.248800  133.439000
  C    -62.477900   44.606800  133.177000
  C    -61.925900   43.784000  132.133000
  H    -61.960300   45.385000  133.607000
  C    -64.812500   45.087400  134.288000
  H    -65.746700   44.499900  134.460000
  H    -65.151500   45.869000  133.639000
  C    -64.331500   45.591700  135.685000
  H    -63.861100   44.666500  136.090000
  H    -63.660800   46.450200  135.652000
  C    -65.535200   45.991900  136.564000
  H    -66.100600   45.140400  136.858000
  H    -65.136300   46.458700  137.507000
  H    -66.211400   46.794500  136.212000
  S    -59.768000   42.129500  131.488000
  C    -58.197400   42.891100  131.304000
  C    -58.282800   44.223500  131.209000
  C    -59.572100   44.755700  131.484000
  C    -60.494400   43.720200  131.726000
  H    -57.368200   44.768000  130.893000
  C    -59.915400   46.217600  131.255000
  H    -59.114100   46.772400  131.769000
  H    -60.836100   46.500300  131.755000
  C    -59.918700   46.732700  129.740000
  H    -58.955000   46.776900  129.293000
  H    -60.308300   47.667100  129.811000
  C    -60.851000   46.051700  128.838000
  H    -61.719000   45.775800  129.344000
  H    -60.402100   45.117800  128.385000
  H    -61.239200   46.638000  128.022000
  H    -65.311700   42.678200  132.641000
  H    -57.212500   42.345200  131.145000

 Total Charge           Charge          ....    0
 Multiplicity           Mult            ....    1
 Number of Electrons    NEL             ....  134
 Basis Dimension        Dim             ....  322

ORBITAL ENERGIES
----------------

  NO   OCC          E(Eh)            E(eV)
   0   2.0000     -88.969408     -2420.9807
   1   2.0000     -88.964887     -2420.8577
   2   2.0000     -10.337256      -281.2910
   3   2.0000     -10.330749      -281.1140
   4   2.0000     -10.318916      -280.7920
   5   2.0000     -10.315987      -280.7123
   6   2.0000     -10.311805      -280.5985
   7   2.0000     -10.303214      -280.3647
   8   2.0000     -10.299588      -280.2660
   9   2.0000     -10.296073      -280.1704
  10   2.0000     -10.295683      -280.1598
  11   2.0000     -10.293150      -280.0908
  12   2.0000     -10.290126      -280.0086
  13   2.0000     -10.283001      -279.8147
  14   2.0000     -10.274153      -279.5739
  15   2.0000     -10.261864      -279.2395
  16   2.0000      -8.084186      -219.9819
  17   2.0000      -8.079446      -219.8529
  18   2.0000      -6.042653      -164.4290
  19   2.0000      -6.038607      -164.3188
  20   2.0000      -6.038046      -164.3036
  21   2.0000      -6.035099      -164.2234
  22   2.0000      -6.034175      -164.1982
  23   2.0000      -6.029922      -164.0825
  24   2.0000      -1.001125       -27.2420
  25   2.0000      -0.977964       -26.6118
  26   2.0000      -0.908853       -24.7311
  27   2.0000      -0.907556       -24.6959
  28   2.0000      -0.864375       -23.5208
  29   2.0000      -0.854284       -23.2462
  30   2.0000      -0.845404       -23.0046
  31   2.0000      -0.812450       -22.1079
  32   2.0000      -0.780568       -21.2403
  33   2.0000      -0.767410       -20.8823
  34   2.0000      -0.709401       -19.3038
  35   2.0000      -0.698677       -19.0120
  36   2.0000      -0.686366       -18.6770
  37   2.0000      -0.654484       -17.8094
  38   2.0000      -0.636448       -17.3186
  39   2.0000      -0.617954       -16.8154
  40   2.0000      -0.593486       -16.1496
  41   2.0000      -0.575211       -15.6523
  42   2.0000      -0.558138       -15.1877
  43   2.0000      -0.552124       -15.0241
  44   2.0000      -0.545035       -14.8312
  45   2.0000      -0.518381       -14.1059
  46   2.0000      -0.513861       -13.9829
  47   2.0000      -0.506676       -13.7874
  48   2.0000      -0.503912       -13.7121
  49   2.0000      -0.492697       -13.4070
  50   2.0000      -0.489890       -13.3306
  51   2.0000      -0.476208       -12.9583
  52   2.0000      -0.470303       -12.7976
  53   2.0000      -0.462408       -12.5828
  54   2.0000      -0.460405       -12.5283
  55   2.0000      -0.448759       -12.2114
  56   2.0000      -0.443878       -12.0785
  57   2.0000      -0.435580       -11.8527
  58   2.0000      -0.429046       -11.6749
  59   2.0000      -0.428212       -11.6522
  60   2.0000      -0.425900       -11.5893
  61   2.0000      -0.418553       -11.3894
  62   2.0000      -0.410879       -11.1806
  63   2.0000      -0.353128        -9.6091
  64   2.0000      -0.331208        -9.0126
  65   2.0000      -0.323813        -8.8114
  66   2.0000      -0.281786        -7.6678
  67   0.0000       0.025039         0.6814
  68   0.0000       0.074435         2.0255
  69   0.0000       0.103060         2.8044
  70   0.0000       0.117463         3.1963
  71   0.0000       0.138073         3.7572

MULLIKEN ATOMIC CHARGES
-----------------------
   0 S :    0.107668
   1 C :   -0.137944
   2 C :   -0.103113
   3 C :    0.054345
   4 C :   -0.141191
   5 H :   -0.007861
   6 C :    0.046552
   7 H :    0.017188
   8 H :    0.038255
   9 C :   -0.075752
  10 H :    0.048333
  11 H :    0.040756
  12 C :   -0.074324
  13 H :    0.033984
  14 H :    0.032606
  15 H :    0.039813
  16 S :    0.100907
  17 C :   -0.115419
  18 C :   -0.044372
  19 C :   -0.040348
  20 C :   -0.141320
  21 H :    0.030382
  22 C :    0.052251
  23 H :    0.026975
  24 H :    0.016065
  25 C :   -0.004358
  26 H :    0.022344
  27 H :    0.003791
  28 C :   -0.037953
  29 H :    0.009590
  30 H :    0.037408
  31 H :    0.022811
  32 H :    0.066777
  33 H :    0.075155
Sum of atomic charges:    0.0000000

LOEWDIN ATOMIC CHARGES
----------------------
   0 S :    0.418639
   1 C :   -0.221438
   2 C :   -0.055265
   3 C :   -0.053060
   4 C :   -0.190683
   5 H :    0.014512
   6 C :   -0.042568
   7 H :    0.033764
   8 H :    0.031000
   9 C :   -0.039173
  10 H :    0.036063
  11 H :    0.023878
  12 C :   -0.071581
  13 H :    0.020176
  14 H :    0.031804
  15 H :    0.028497
  16 S :    0.388521
  17 C :   -0.192618
  18 C :   -0.079719
  19 C :   -0.063223
  20 C :   -0.191059
  21 H :    0.039883
  22 C :   -0.026198
  23 H :    0.033622
  24 H :    0.026274
  25 C :   -0.027555
  26 H :    0.020655
  27 H :    0.016174
  28 C :   -0.064198
  29 H :    0.018523
  30 H :    0.031814
  31 H :    0.024977
  32 H :    0.034651
  33 H :    0.044909

  Mayer bond orders larger than 0.100000
B(  0-S ,  1-C ) :   1.1452 B(  0-S ,  4-C ) :   1.1692 B(  1-C ,  2-C ) :   1.5838
B(  1-C , 32-H ) :   0.9634 B(  2-C ,  3-C ) :   1.2472 B(  2-C ,  6-C ) :   1.0338
B(  3-C ,  4-C ) :   1.5322 B(  3-C ,  5-H ) :   0.9978 B(  4-C , 20-C ) :   1.0473
B(  6-C ,  7-H ) :   0.9442 B(  6-C ,  8-H ) :   0.9299 B(  6-C ,  9-C ) :   1.0479
B(  9-C , 10-H ) :   0.9603 B(  9-C , 11-H ) :   0.9542 B(  9-C , 12-C ) :   1.0886
B( 12-C , 13-H ) :   0.9753 B( 12-C , 14-H ) :   0.9741 B( 12-C , 15-H ) :   0.9751
B( 16-S , 17-C ) :   1.1330 B( 16-S , 20-C ) :   1.1370 B( 17-C , 18-C ) :   1.6535
B( 17-C , 33-H ) :   0.9554 B( 18-C , 19-C ) :   1.2228 B( 18-C , 21-H ) :   0.9837
B( 19-C , 20-C ) :   1.5846 B( 19-C , 22-C ) :   1.0564 B( 22-C , 23-H ) :   0.9304
B( 22-C , 24-H ) :   0.9343 B( 22-C , 25-C ) :   1.0773 B( 25-C , 26-H ) :   0.9563
B( 25-C , 27-H ) :   0.9465 B( 25-C , 28-C ) :   1.0889 B( 28-C , 29-H ) :   0.9703
B( 28-C , 30-H ) :   0.9717 B( 28-C , 31-H ) :   0.9708

Dispersion correction           -0.014169493
FINAL SINGLE POINT ENERGY     -1339.864648111739

DIPOLE MOMENT
-------------
                                X             Y             Z
Electronic contribution:      9.10129     -22.38486      -6.96712
Nuclear contribution   :     -9.19425      23.06287       7.08072
                        -----------------------------------------
Total Dipole Moment    :     -0.09297       0.67801       0.11360
                        -----------------------------------------
Magnitude (a.u.)       :      0.69372
Magnitude (Debye)      :      1.76329

Rotational constants in cm-1:     0.020084     0.007596     0.006738
Rotational constants in MHz :   602.101492   227.727288   201.990055

                             ****ORCA TERMINATED NORMALLY****
TOTAL RUN TIME: 0 days 0 hours 0 minutes 35 seconds 217 msec
