                         Program Version 4.2.1 -  RELEASE  -
|  1> ! wB97X-D3 SP def2-SVP
|  2> %pal
|  3> nprocs 16
|  4> end
|  5>
|  6> * xyz 0 1
|  7> S 	 -16.3225 	 37.1675 	 38.7942
|  8> C 	 -17.152 	 36.7072 	 37.2448
|  9> C 	 -16.1989 	 36.1562 	 36.3293
| 10> C 	 -14.9568 	 36.0731 	 36.9539
| 11> C 	 -14.8124 	 36.643 	 38.2119
| 12> H 	 -14.0026 	 35.906 	 36.479
| 13> C 	 -16.4654 	 35.7804 	 34.8975
| 14> H 	 -15.5264 	 35.6182 	 34.39
| 15> H 	 -16.9546 	 36.6157 	 34.5278
| 16> C 	 -17.3245 	 34.5076 	 34.7382
| 17> H 	 -18.1134 	 34.6249 	 35.4484
| 18> H 	 -17.8138 	 34.2789 	 33.7348
| 19> C 	 -16.5807 	 33.2145 	 34.9569
| 20> H 	 -15.9591 	 33.1854 	 35.7802
| 21> H 	 -17.2994 	 32.3804 	 35.1
| 22> H 	 -15.9134 	 33.0134 	 34.1856
| 23> S 	 -13.2259 	 37.7715 	 39.9969
| 24> C 	 -11.6728 	 37.1254 	 40.429
| 25> C 	 -11.5149 	 35.899 	 39.8752
| 26> C 	 -12.5887 	 35.5722 	 39.0172
| 27> C 	 -13.6251 	 36.4562 	 39.0318
| 28> H 	 -10.663 	 35.3019 	 40.1109
| 29> C 	 -12.5264 	 34.3115 	 38.2412
| 30> H 	 -12.0379 	 34.496 	 37.261
| 31> H 	 -13.6054 	 34.0648 	 37.8766
| 32> C 	 -11.991 	 32.9997 	 38.9462
| 33> H 	 -12.522 	 32.9963 	 39.9107
| 34> H 	 -10.9651 	 33.1881 	 39.3083
| 35> C 	 -12.2785 	 31.7394 	 38.0656
| 36> H 	 -12.2908 	 30.8067 	 38.6557
| 37> H 	 -11.5527 	 31.5184 	 37.2443
| 38> H 	 -13.2804 	 31.8467 	 37.6251
| 39> H 	 -18.181 	 36.8074 	 36.9197
| 40> H 	 -10.9586 	 37.6476 	 41.0224
| 41> *
| 42>
| 43>                          ****END OF INPUT****

CARTESIAN COORDINATES (ANGSTROEM)
---------------------------------
  S    -16.322500   37.167500   38.794200
  C    -17.152000   36.707200   37.244800
  C    -16.198900   36.156200   36.329300
  C    -14.956800   36.073100   36.953900
  C    -14.812400   36.643000   38.211900
  H    -14.002600   35.906000   36.479000
  C    -16.465400   35.780400   34.897500
  H    -15.526400   35.618200   34.390000
  H    -16.954600   36.615700   34.527800
  C    -17.324500   34.507600   34.738200
  H    -18.113400   34.624900   35.448400
  H    -17.813800   34.278900   33.734800
  C    -16.580700   33.214500   34.956900
  H    -15.959100   33.185400   35.780200
  H    -17.299400   32.380400   35.100000
  H    -15.913400   33.013400   34.185600
  S    -13.225900   37.771500   39.996900
  C    -11.672800   37.125400   40.429000
  C    -11.514900   35.899000   39.875200
  C    -12.588700   35.572200   39.017200
  C    -13.625100   36.456200   39.031800
  H    -10.663000   35.301900   40.110900
  C    -12.526400   34.311500   38.241200
  H    -12.037900   34.496000   37.261000
  H    -13.605400   34.064800   37.876600
  C    -11.991000   32.999700   38.946200
  H    -12.522000   32.996300   39.910700
  H    -10.965100   33.188100   39.308300
  C    -12.278500   31.739400   38.065600
  H    -12.290800   30.806700   38.655700
  H    -11.552700   31.518400   37.244300
  H    -13.280400   31.846700   37.625100
  H    -18.181000   36.807400   36.919700
  H    -10.958600   37.647600   41.022400

 Total Charge           Charge          ....    0
 Multiplicity           Mult            ....    1
 Number of Electrons    NEL             ....  134
 Basis Dimension        Dim             ....  322

ORBITAL ENERGIES
----------------

  NO   OCC          E(Eh)            E(eV)
   0   2.0000     -88.973942     -2421.1040
   1   2.0000     -88.960480     -2420.7377
   2   2.0000     -10.326943      -281.0104
   3   2.0000     -10.322859      -280.8993
   4   2.0000     -10.319981      -280.8209
   5   2.0000     -10.313153      -280.6352
   6   2.0000     -10.304835      -280.4088
   7   2.0000     -10.297208      -280.2013
   8   2.0000     -10.296674      -280.1867
   9   2.0000     -10.295086      -280.1435
  10   2.0000     -10.289499      -279.9915
  11   2.0000     -10.289158      -279.9822
  12   2.0000     -10.289067      -279.9797
  13   2.0000     -10.288749      -279.9711
  14   2.0000     -10.286457      -279.9087
  15   2.0000     -10.265244      -279.3315
  16   2.0000      -8.087837      -220.0812
  17   2.0000      -8.077430      -219.7980
  18   2.0000      -6.046420      -164.5314
  19   2.0000      -6.042299      -164.4193
  20   2.0000      -6.038723      -164.3220
  21   2.0000      -6.035784      -164.2420
  22   2.0000      -6.031517      -164.1259
  23   2.0000      -6.028322      -164.0390
  24   2.0000      -1.021431       -27.7946
  25   2.0000      -0.989912       -26.9369
  26   2.0000      -0.920071       -25.0364
  27   2.0000      -0.903254       -24.5788
  28   2.0000      -0.875404       -23.8209
  29   2.0000      -0.853825       -23.2338
  30   2.0000      -0.848108       -23.0782
  31   2.0000      -0.817155       -22.2359
  32   2.0000      -0.788243       -21.4492
  33   2.0000      -0.769224       -20.9317
  34   2.0000      -0.710996       -19.3472
  35   2.0000      -0.709872       -19.3166
  36   2.0000      -0.699467       -19.0335
  37   2.0000      -0.665095       -18.0981
  38   2.0000      -0.638286       -17.3686
  39   2.0000      -0.618048       -16.8179
  40   2.0000      -0.600315       -16.3354
  41   2.0000      -0.580309       -15.7910
  42   2.0000      -0.559532       -15.2256
  43   2.0000      -0.555087       -15.1047
  44   2.0000      -0.550605       -14.9827
  45   2.0000      -0.521929       -14.2024
  46   2.0000      -0.518626       -14.1125
  47   2.0000      -0.514256       -13.9936
  48   2.0000      -0.508607       -13.8399
  49   2.0000      -0.504870       -13.7382
  50   2.0000      -0.488650       -13.2968
  51   2.0000      -0.476010       -12.9529
  52   2.0000      -0.472610       -12.8604
  53   2.0000      -0.465545       -12.6681
  54   2.0000      -0.461596       -12.5607
  55   2.0000      -0.451273       -12.2798
  56   2.0000      -0.446929       -12.1616
  57   2.0000      -0.435865       -11.8605
  58   2.0000      -0.430980       -11.7276
  59   2.0000      -0.426112       -11.5951
  60   2.0000      -0.418545       -11.3892
  61   2.0000      -0.416864       -11.3434
  62   2.0000      -0.413092       -11.2408
  63   2.0000      -0.357868        -9.7381
  64   2.0000      -0.336350        -9.1526
  65   2.0000      -0.326864        -8.8944
  66   2.0000      -0.287338        -7.8189
  67   0.0000       0.024517         0.6671
  68   0.0000       0.075169         2.0454
  69   0.0000       0.102150         2.7796
  70   0.0000       0.120057         3.2669
  71   0.0000       0.133470         3.6319

MULLIKEN ATOMIC CHARGES
-----------------------
   0 S :    0.122206
   1 C :   -0.125538
   2 C :   -0.110198
   3 C :   -0.034551
   4 C :   -0.099076
   5 H :    0.017634
   6 C :    0.139039
   7 H :    0.017178
   8 H :    0.020503
   9 C :   -0.080645
  10 H :    0.015182
  11 H :    0.040495
  12 C :   -0.014218
  13 H :    0.001275
  14 H :    0.036303
  15 H :    0.011796
  16 S :    0.090060
  17 C :   -0.073956
  18 C :   -0.019875
  19 C :   -0.059683
  20 C :   -0.107263
  21 H :    0.010218
  22 C :   -0.038092
  23 H :    0.043721
  24 H :    0.041648
  25 C :   -0.070998
  26 H :    0.035290
  27 H :    0.033461
  28 C :   -0.054315
  29 H :    0.038330
  30 H :    0.045379
  31 H :    0.036904
  32 H :    0.045856
  33 H :    0.045931
Sum of atomic charges:    0.0000000

LOEWDIN ATOMIC CHARGES
----------------------
   0 S :    0.418277
   1 C :   -0.193150
   2 C :   -0.052046
   3 C :   -0.079577
   4 C :   -0.210038
   5 H :    0.029801
   6 C :   -0.019466
   7 H :    0.029425
   8 H :    0.028025
   9 C :   -0.039243
  10 H :    0.016359
  11 H :    0.033928
  12 C :   -0.059713
  13 H :    0.011202
  14 H :    0.034467
  15 H :    0.016565
  16 S :    0.435354
  17 C :   -0.175384
  18 C :   -0.067710
  19 C :   -0.068834
  20 C :   -0.216359
  21 H :    0.030299
  22 C :   -0.048385
  23 H :    0.030110
  24 H :    0.036793
  25 C :   -0.044097
  26 H :    0.029437
  27 H :    0.021117
  28 C :   -0.070275
  29 H :    0.029844
  30 H :    0.031654
  31 H :    0.028996
  32 H :    0.028129
  33 H :    0.024497

  Mayer bond orders larger than 0.100000
B(  0-S ,  1-C ) :   1.1452 B(  0-S ,  4-C ) :   1.1621 B(  1-C ,  2-C ) :   1.5575
B(  1-C ,  4-C ) :   0.1151 B(  1-C , 32-H ) :   0.9651 B(  2-C ,  3-C ) :   1.2932
B(  2-C ,  6-C ) :   1.0107 B(  3-C ,  4-C ) :   1.5497 B(  3-C ,  5-H ) :   0.9846
B(  4-C , 20-C ) :   1.0100 B(  6-C ,  7-H ) :   0.9470 B(  6-C ,  8-H ) :   0.9275
B(  6-C ,  9-C ) :   1.0655 B(  9-C , 10-H ) :   0.9584 B(  9-C , 11-H ) :   0.9588
B(  9-C , 12-C ) :   1.0782 B( 12-C , 13-H ) :   0.9747 B( 12-C , 14-H ) :   0.9705
B( 12-C , 15-H ) :   0.9717 B( 16-S , 17-C ) :   1.1757 B( 16-S , 20-C ) :   1.1385
B( 17-C , 18-C ) :   1.5834 B( 17-C , 33-H ) :   0.9724 B( 18-C , 19-C ) :   1.2504
B( 18-C , 21-H ) :   1.0018 B( 19-C , 20-C ) :   1.5975 B( 19-C , 22-C ) :   1.0457
B( 22-C , 23-H ) :   0.9245 B( 22-C , 24-H ) :   0.9380 B( 22-C , 25-C ) :   1.0469
B( 25-C , 26-H ) :   0.9593 B( 25-C , 27-H ) :   0.9515 B( 25-C , 28-C ) :   1.0661
B( 28-C , 29-H ) :   0.9758 B( 28-C , 30-H ) :   0.9767 B( 28-C , 31-H ) :   0.9746

Dispersion correction           -0.014190313
FINAL SINGLE POINT ENERGY     -1339.857517236545

DIPOLE MOMENT
-------------
                                X             Y             Z
Electronic contribution:     -1.17939      26.55642      17.61481
Nuclear contribution   :      1.44910     -27.02431     -18.04196
                        -----------------------------------------
Total Dipole Moment    :      0.26972      -0.46789      -0.42715
                        -----------------------------------------
Magnitude (a.u.)       :      0.68857
Magnitude (Debye)      :      1.75021

Rotational constants in cm-1:     0.016817     0.009962     0.006688
Rotational constants in MHz :   504.174204   298.658755   200.491838

                             ****ORCA TERMINATED NORMALLY****
TOTAL RUN TIME: 0 days 0 hours 0 minutes 34 seconds 876 msec
