                         Program Version 4.2.1 -  RELEASE  -
|  1> ! wB97X-D3 SP def2-SVP
|  2> %pal
|  3> nprocs 16
|  4> end
|  5>
|  6> * xyz 0 1
|  7> S 	 -38.5663 	 28.2459 	 82.638
|  8> C 	 -39.0803 	 27.386 	 81.1949
|  9> C 	 -38.4215 	 26.1449 	 81.1064
| 10> C 	 -37.6987 	 25.8045 	 82.3176
| 11> C 	 -37.6024 	 26.8597 	 83.1764
| 12> H 	 -37.1713 	 24.8167 	 82.485
| 13> C 	 -38.4999 	 25.1231 	 79.9184
| 14> H 	 -37.3851 	 24.9706 	 79.5724
| 15> H 	 -38.9395 	 25.5202 	 78.9107
| 16> C 	 -39.0804 	 23.7268 	 80.1577
| 17> H 	 -38.5051 	 23.1204 	 79.5524
| 18> H 	 -38.6877 	 23.3728 	 81.0936
| 19> C 	 -40.6379 	 23.5223 	 80.1152
| 20> H 	 -41.0465 	 24.2781 	 80.7874
| 21> H 	 -40.904 	 23.6512 	 79.1651
| 22> H 	 -40.9362 	 22.5031 	 80.4441
| 23> S 	 -37.6962 	 27.4576 	 85.8392
| 24> C 	 -36.4453 	 26.8837 	 86.886
| 25> C 	 -35.4959 	 26.2084 	 86.1675
| 26> C 	 -35.6429 	 26.242 	 84.7473
| 27> C 	 -36.8485 	 26.8549 	 84.4147
| 28> H 	 -34.7027 	 25.7876 	 86.7013
| 29> C 	 -34.6357 	 25.5896 	 83.8227
| 30> H 	 -35.2416 	 24.7913 	 83.4041
| 31> H 	 -33.8713 	 25.1667 	 84.3993
| 32> C 	 -34.1182 	 26.5486 	 82.6623
| 33> H 	 -34.9489 	 26.8877 	 81.9881
| 34> H 	 -33.3798 	 25.9822 	 82.0415
| 35> C 	 -33.4514 	 27.786 	 83.2689
| 36> H 	 -34.2102 	 28.5513 	 83.3708
| 37> H 	 -32.6056 	 28.2074 	 82.7073
| 38> H 	 -33.1497 	 27.6263 	 84.3258
| 39> H 	 -39.7099 	 27.8291 	 80.3855
| 40> H 	 -36.438 	 26.8511 	 87.9911
| 41> *
| 42>
| 43>                          ****END OF INPUT****

CARTESIAN COORDINATES (ANGSTROEM)
---------------------------------
  S    -38.566300   28.245900   82.638000
  C    -39.080300   27.386000   81.194900
  C    -38.421500   26.144900   81.106400
  C    -37.698700   25.804500   82.317600
  C    -37.602400   26.859700   83.176400
  H    -37.171300   24.816700   82.485000
  C    -38.499900   25.123100   79.918400
  H    -37.385100   24.970600   79.572400
  H    -38.939500   25.520200   78.910700
  C    -39.080400   23.726800   80.157700
  H    -38.505100   23.120400   79.552400
  H    -38.687700   23.372800   81.093600
  C    -40.637900   23.522300   80.115200
  H    -41.046500   24.278100   80.787400
  H    -40.904000   23.651200   79.165100
  H    -40.936200   22.503100   80.444100
  S    -37.696200   27.457600   85.839200
  C    -36.445300   26.883700   86.886000
  C    -35.495900   26.208400   86.167500
  C    -35.642900   26.242000   84.747300
  C    -36.848500   26.854900   84.414700
  H    -34.702700   25.787600   86.701300
  C    -34.635700   25.589600   83.822700
  H    -35.241600   24.791300   83.404100
  H    -33.871300   25.166700   84.399300
  C    -34.118200   26.548600   82.662300
  H    -34.948900   26.887700   81.988100
  H    -33.379800   25.982200   82.041500
  C    -33.451400   27.786000   83.268900
  H    -34.210200   28.551300   83.370800
  H    -32.605600   28.207400   82.707300
  H    -33.149700   27.626300   84.325800
  H    -39.709900   27.829100   80.385500
  H    -36.438000   26.851100   87.991100

 Total Charge           Charge          ....    0
 Multiplicity           Mult            ....    1
 Number of Electrons    NEL             ....  134
 Basis Dimension        Dim             ....  322

ORBITAL ENERGIES
----------------

  NO   OCC          E(Eh)            E(eV)
   0   2.0000     -88.967873     -2420.9389
   1   2.0000     -88.965420     -2420.8721
   2   2.0000     -10.330743      -281.1138
   3   2.0000     -10.325679      -280.9760
   4   2.0000     -10.322253      -280.8828
   5   2.0000     -10.316298      -280.7207
   6   2.0000     -10.312496      -280.6173
   7   2.0000     -10.311779      -280.5978
   8   2.0000     -10.305056      -280.4148
   9   2.0000     -10.300523      -280.2915
  10   2.0000     -10.294211      -280.1197
  11   2.0000     -10.293931      -280.1121
  12   2.0000     -10.286872      -279.9200
  13   2.0000     -10.279882      -279.7298
  14   2.0000     -10.274274      -279.5772
  15   2.0000     -10.272279      -279.5229
  16   2.0000      -8.082093      -219.9249
  17   2.0000      -8.080350      -219.8775
  18   2.0000      -6.040688      -164.3755
  19   2.0000      -6.038860      -164.3257
  20   2.0000      -6.036738      -164.2680
  21   2.0000      -6.034800      -164.2153
  22   2.0000      -6.032729      -164.1589
  23   2.0000      -6.031119      -164.1151
  24   2.0000      -1.006935       -27.4001
  25   2.0000      -0.981579       -26.7101
  26   2.0000      -0.906029       -24.6543
  27   2.0000      -0.903444       -24.5840
  28   2.0000      -0.869621       -23.6636
  29   2.0000      -0.849245       -23.1091
  30   2.0000      -0.842158       -22.9163
  31   2.0000      -0.811722       -22.0881
  32   2.0000      -0.784265       -21.3409
  33   2.0000      -0.774592       -21.0777
  34   2.0000      -0.709341       -19.3021
  35   2.0000      -0.699487       -19.0340
  36   2.0000      -0.686261       -18.6741
  37   2.0000      -0.663064       -18.0429
  38   2.0000      -0.634061       -17.2537
  39   2.0000      -0.620084       -16.8733
  40   2.0000      -0.587561       -15.9883
  41   2.0000      -0.565780       -15.3957
  42   2.0000      -0.553351       -15.0574
  43   2.0000      -0.546778       -14.8786
  44   2.0000      -0.545381       -14.8406
  45   2.0000      -0.532540       -14.4912
  46   2.0000      -0.511818       -13.9273
  47   2.0000      -0.505048       -13.7430
  48   2.0000      -0.500997       -13.6328
  49   2.0000      -0.497143       -13.5279
  50   2.0000      -0.489143       -13.3103
  51   2.0000      -0.479058       -13.0358
  52   2.0000      -0.471221       -12.8226
  53   2.0000      -0.468131       -12.7385
  54   2.0000      -0.461462       -12.5570
  55   2.0000      -0.450395       -12.2559
  56   2.0000      -0.441305       -12.0085
  57   2.0000      -0.434855       -11.8330
  58   2.0000      -0.432593       -11.7715
  59   2.0000      -0.425331       -11.5738
  60   2.0000      -0.416380       -11.3303
  61   2.0000      -0.414178       -11.2704
  62   2.0000      -0.410188       -11.1618
  63   2.0000      -0.352313        -9.5869
  64   2.0000      -0.331610        -9.0236
  65   2.0000      -0.328504        -8.9391
  66   2.0000      -0.288793        -7.8585
  67   0.0000       0.025797         0.7020
  68   0.0000       0.074425         2.0252
  69   0.0000       0.104131         2.8336
  70   0.0000       0.114544         3.1169
  71   0.0000       0.137425         3.7395

MULLIKEN ATOMIC CHARGES
-----------------------
   0 S :    0.105514
   1 C :   -0.134785
   2 C :   -0.062686
   3 C :   -0.014418
   4 C :   -0.135476
   5 H :    0.048178
   6 C :   -0.057008
   7 H :    0.048578
   8 H :    0.035504
   9 C :   -0.025266
  10 H :   -0.004218
  11 H :   -0.001152
  12 C :    0.013154
  13 H :    0.043425
  14 H :    0.005752
  15 H :    0.039358
  16 S :    0.107943
  17 C :   -0.084918
  18 C :   -0.044304
  19 C :   -0.057801
  20 C :   -0.153619
  21 H :   -0.006422
  22 C :    0.114864
  23 H :    0.024585
  24 H :    0.007920
  25 C :   -0.095294
  26 H :    0.060552
  27 H :    0.037196
  28 C :   -0.052738
  29 H :    0.032988
  30 H :    0.041456
  31 H :    0.026865
  32 H :    0.070560
  33 H :    0.065713
Sum of atomic charges:    0.0000000

LOEWDIN ATOMIC CHARGES
----------------------
   0 S :    0.387955
   1 C :   -0.206188
   2 C :   -0.064821
   3 C :   -0.069824
   4 C :   -0.188065
   5 H :    0.043107
   6 C :   -0.046708
   7 H :    0.043879
   8 H :    0.034711
   9 C :   -0.045041
  10 H :    0.014234
  11 H :    0.018451
  12 C :   -0.045051
  13 H :    0.033145
  14 H :    0.003898
  15 H :    0.033730
  16 S :    0.410753
  17 C :   -0.195491
  18 C :   -0.072473
  19 C :   -0.050836
  20 C :   -0.197964
  21 H :    0.019891
  22 C :   -0.021345
  23 H :    0.030995
  24 H :    0.022256
  25 C :   -0.040546
  26 H :    0.034017
  27 H :    0.025465
  28 C :   -0.073993
  29 H :    0.027785
  30 H :    0.027430
  31 H :    0.026643
  32 H :    0.040270
  33 H :    0.039729

  Mayer bond orders larger than 0.100000
B(  0-S ,  1-C ) :   1.1213 B(  0-S ,  4-C ) :   1.1393 B(  1-C ,  2-C ) :   1.6242
B(  1-C , 32-H ) :   0.9633 B(  2-C ,  3-C ) :   1.2183 B(  2-C ,  6-C ) :   1.0135
B(  3-C ,  4-C ) :   1.5979 B(  3-C ,  5-H ) :   0.9738 B(  4-C , 20-C ) :   1.0505
B(  6-C ,  7-H ) :   0.9429 B(  6-C ,  8-H ) :   0.9512 B(  6-C ,  9-C ) :   1.0683
B(  9-C , 10-H ) :   0.9470 B(  9-C , 11-H ) :   0.9489 B(  9-C , 12-C ) :   1.0560
B( 12-C , 13-H ) :   0.9783 B( 12-C , 14-H ) :   0.9786 B( 12-C , 15-H ) :   0.9750
B( 16-S , 17-C ) :   1.1512 B( 16-S , 20-C ) :   1.1460 B( 17-C , 18-C ) :   1.6213
B( 17-C , 33-H ) :   0.9610 B( 18-C , 19-C ) :   1.2413 B( 18-C , 21-H ) :   0.9947
B( 19-C , 20-C ) :   1.5725 B( 19-C , 22-C ) :   1.0240 B( 22-C , 23-H ) :   0.9302
B( 22-C , 24-H ) :   0.9332 B( 22-C , 25-C ) :   1.0682 B( 25-C , 26-H ) :   0.9580
B( 25-C , 27-H ) :   0.9633 B( 25-C , 28-C ) :   1.0570 B( 28-C , 29-H ) :   0.9723
B( 28-C , 30-H ) :   0.9766 B( 28-C , 31-H ) :   0.9791

Dispersion correction           -0.015182042
FINAL SINGLE POINT ENERGY     -1339.861847389646

DIPOLE MOMENT
-------------
                                X             Y             Z
Electronic contribution:     -7.93574      15.05694      16.26941
Nuclear contribution   :      8.29200     -15.67452     -16.53232
                        -----------------------------------------
Total Dipole Moment    :      0.35626      -0.61757      -0.26292
                        -----------------------------------------
Magnitude (a.u.)       :      0.75990
Magnitude (Debye)      :      1.93150

Rotational constants in cm-1:     0.019757     0.008430     0.007557
Rotational constants in MHz :   592.307778   252.727153   226.549733

                             ****ORCA TERMINATED NORMALLY****
TOTAL RUN TIME: 0 days 0 hours 0 minutes 31 seconds 177 msec
