                         Program Version 4.2.1 -  RELEASE  -
|  1> ! wB97X-D3 SP def2-SVP
|  2> %pal
|  3> nprocs 16
|  4> end
|  5>
|  6> * xyz 0 1
|  7> S 	 -43.8443 	 29.3636 	 90.1285
|  8> C 	 -44.3571 	 28.3271 	 91.3955
|  9> C 	 -45.7324 	 28.2712 	 91.5478
| 10> C 	 -46.3403 	 29.3586 	 90.7585
| 11> C 	 -45.4241 	 29.9737 	 89.9218
| 12> H 	 -47.3448 	 29.6243 	 90.8295
| 13> C 	 -46.52 	 27.5802 	 92.6598
| 14> H 	 -46.0589 	 27.8895 	 93.6297
| 15> H 	 -46.3057 	 26.5034 	 92.5452
| 16> C 	 -48.038 	 27.7667 	 92.7001
| 17> H 	 -48.3346 	 28.8119 	 92.5243
| 18> H 	 -48.3966 	 27.2947 	 91.8212
| 19> C 	 -48.789 	 27.1998 	 93.8858
| 20> H 	 -48.6349 	 26.0916 	 93.926
| 21> H 	 -48.5805 	 27.688 	 94.8107
| 22> H 	 -49.8327 	 27.3787 	 93.6559
| 23> S 	 -45.277 	 30.8925 	 87.2612
| 24> C 	 -45.7041 	 32.6075 	 86.9489
| 25> C 	 -46.319 	 33.1446 	 88.063
| 26> C 	 -46.203 	 32.4132 	 89.258
| 27> C 	 -45.7406 	 31.1348 	 89.0351
| 28> H 	 -46.7709 	 34.1411 	 88.0886
| 29> C 	 -46.6557 	 32.9884 	 90.5614
| 30> H 	 -47.3296 	 32.2864 	 91.0881
| 31> H 	 -47.2165 	 33.8723 	 90.4241
| 32> C 	 -45.5304 	 33.3556 	 91.553
| 33> H 	 -44.8147 	 34.0307 	 90.9797
| 34> H 	 -44.9834 	 32.4323 	 91.8152
| 35> C 	 -46.0922 	 34.0512 	 92.7313
| 36> H 	 -46.6073 	 34.9523 	 92.4081
| 37> H 	 -45.2844 	 34.2959 	 93.3563
| 38> H 	 -46.8326 	 33.434 	 93.2926
| 39> H 	 -43.6893 	 27.751 	 91.9241
| 40> H 	 -45.5715 	 33.0422 	 85.9322
| 41> *
| 42>
| 43>                          ****END OF INPUT****

CARTESIAN COORDINATES (ANGSTROEM)
---------------------------------
  S    -43.844300   29.363600   90.128500
  C    -44.357100   28.327100   91.395500
  C    -45.732400   28.271200   91.547800
  C    -46.340300   29.358600   90.758500
  C    -45.424100   29.973700   89.921800
  H    -47.344800   29.624300   90.829500
  C    -46.520000   27.580200   92.659800
  H    -46.058900   27.889500   93.629700
  H    -46.305700   26.503400   92.545200
  C    -48.038000   27.766700   92.700100
  H    -48.334600   28.811900   92.524300
  H    -48.396600   27.294700   91.821200
  C    -48.789000   27.199800   93.885800
  H    -48.634900   26.091600   93.926000
  H    -48.580500   27.688000   94.810700
  H    -49.832700   27.378700   93.655900
  S    -45.277000   30.892500   87.261200
  C    -45.704100   32.607500   86.948900
  C    -46.319000   33.144600   88.063000
  C    -46.203000   32.413200   89.258000
  C    -45.740600   31.134800   89.035100
  H    -46.770900   34.141100   88.088600
  C    -46.655700   32.988400   90.561400
  H    -47.329600   32.286400   91.088100
  H    -47.216500   33.872300   90.424100
  C    -45.530400   33.355600   91.553000
  H    -44.814700   34.030700   90.979700
  H    -44.983400   32.432300   91.815200
  C    -46.092200   34.051200   92.731300
  H    -46.607300   34.952300   92.408100
  H    -45.284400   34.295900   93.356300
  H    -46.832600   33.434000   93.292600
  H    -43.689300   27.751000   91.924100
  H    -45.571500   33.042200   85.932200

 Total Charge           Charge          ....    0
 Multiplicity           Mult            ....    1
 Number of Electrons    NEL             ....  134
 Basis Dimension        Dim             ....  322

ORBITAL ENERGIES
----------------

  NO   OCC          E(Eh)            E(eV)
   0   2.0000     -88.967420     -2420.9266
   1   2.0000     -88.960511     -2420.7386
   2   2.0000     -10.331956      -281.1468
   3   2.0000     -10.326144      -280.9887
   4   2.0000     -10.324009      -280.9306
   5   2.0000     -10.306552      -280.4555
   6   2.0000     -10.305069      -280.4152
   7   2.0000     -10.299415      -280.2613
   8   2.0000     -10.297747      -280.2159
   9   2.0000     -10.292973      -280.0860
  10   2.0000     -10.291593      -280.0485
  11   2.0000     -10.286709      -279.9156
  12   2.0000     -10.285789      -279.8906
  13   2.0000     -10.285059      -279.8707
  14   2.0000     -10.281773      -279.7813
  15   2.0000     -10.272850      -279.5385
  16   2.0000      -8.083363      -219.9595
  17   2.0000      -8.073555      -219.6926
  18   2.0000      -6.041706      -164.4032
  19   2.0000      -6.037673      -164.2934
  20   2.0000      -6.034246      -164.2002
  21   2.0000      -6.032152      -164.1432
  22   2.0000      -6.028464      -164.0428
  23   2.0000      -6.024163      -163.9258
  24   2.0000      -1.004304       -27.3285
  25   2.0000      -0.978533       -26.6272
  26   2.0000      -0.914213       -24.8770
  27   2.0000      -0.912236       -24.8232
  28   2.0000      -0.865997       -23.5650
  29   2.0000      -0.854476       -23.2515
  30   2.0000      -0.848642       -23.0927
  31   2.0000      -0.809965       -22.0403
  32   2.0000      -0.783151       -21.3106
  33   2.0000      -0.773632       -21.0516
  34   2.0000      -0.709337       -19.3020
  35   2.0000      -0.695782       -18.9332
  36   2.0000      -0.683653       -18.6032
  37   2.0000      -0.660039       -17.9606
  38   2.0000      -0.646607       -17.5951
  39   2.0000      -0.620037       -16.8721
  40   2.0000      -0.599331       -16.3086
  41   2.0000      -0.571384       -15.5482
  42   2.0000      -0.569759       -15.5039
  43   2.0000      -0.559575       -15.2268
  44   2.0000      -0.527000       -14.3404
  45   2.0000      -0.525995       -14.3131
  46   2.0000      -0.518849       -14.1186
  47   2.0000      -0.513569       -13.9749
  48   2.0000      -0.507809       -13.8182
  49   2.0000      -0.498247       -13.5580
  50   2.0000      -0.491863       -13.3843
  51   2.0000      -0.483607       -13.1596
  52   2.0000      -0.469562       -12.7774
  53   2.0000      -0.464053       -12.6275
  54   2.0000      -0.459146       -12.4940
  55   2.0000      -0.452286       -12.3073
  56   2.0000      -0.447433       -12.1753
  57   2.0000      -0.433365       -11.7925
  58   2.0000      -0.428442       -11.6585
  59   2.0000      -0.426205       -11.5976
  60   2.0000      -0.419927       -11.4268
  61   2.0000      -0.416968       -11.3463
  62   2.0000      -0.416148       -11.3240
  63   2.0000      -0.336675        -9.1614
  64   2.0000      -0.331361        -9.0168
  65   2.0000      -0.326478        -8.8839
  66   2.0000      -0.294914        -8.0250
  67   0.0000       0.034186         0.9302
  68   0.0000       0.062098         1.6898
  69   0.0000       0.102864         2.7991
  70   0.0000       0.118690         3.2297
  71   0.0000       0.134752         3.6668

MULLIKEN ATOMIC CHARGES
-----------------------
   0 S :    0.141758
   1 C :   -0.105963
   2 C :   -0.065927
   3 C :    0.019742
   4 C :   -0.127653
   5 H :   -0.009848
   6 C :    0.045918
   7 H :    0.042849
   8 H :    0.032868
   9 C :   -0.108330
  10 H :    0.028068
  11 H :    0.019183
  12 C :   -0.014058
  13 H :    0.038718
  14 H :    0.033325
  15 H :    0.031227
  16 S :    0.066245
  17 C :   -0.111668
  18 C :   -0.019949
  19 C :   -0.005781
  20 C :   -0.178167
  21 H :    0.020848
  22 C :    0.074706
  23 H :    0.022224
  24 H :   -0.008362
  25 C :   -0.116601
  26 H :    0.035034
  27 H :    0.043931
  28 C :    0.001259
  29 H :    0.022855
  30 H :    0.028639
  31 H :    0.029598
  32 H :    0.014558
  33 H :    0.078754
Sum of atomic charges:   -0.0000000

LOEWDIN ATOMIC CHARGES
----------------------
   0 S :    0.445839
   1 C :   -0.193716
   2 C :   -0.057196
   3 C :   -0.053897
   4 C :   -0.217920
   5 H :    0.016841
   6 C :   -0.038744
   7 H :    0.035735
   8 H :    0.034637
   9 C :   -0.048194
  10 H :    0.022074
  11 H :    0.022101
  12 C :   -0.056849
  13 H :    0.031930
  14 H :    0.020909
  15 H :    0.030740
  16 S :    0.337068
  17 C :   -0.171296
  18 C :   -0.073096
  19 C :   -0.059305
  20 C :   -0.158562
  21 H :    0.032564
  22 C :   -0.029193
  23 H :    0.030850
  24 H :    0.019453
  25 C :   -0.040347
  26 H :    0.029581
  27 H :    0.026815
  28 C :   -0.061542
  29 H :    0.024451
  30 H :    0.022732
  31 H :    0.028854
  32 H :    0.008816
  33 H :    0.037869

  Mayer bond orders larger than 0.100000
B(  0-S ,  1-C ) :   1.1570 B(  0-S ,  4-C ) :   1.1633 B(  1-C ,  2-C ) :   1.6053
B(  1-C , 32-H ) :   0.9823 B(  2-C ,  3-C ) :   1.2343 B(  2-C ,  6-C ) :   1.0123
B(  3-C ,  4-C ) :   1.5690 B(  3-C ,  5-H ) :   1.0013 B(  4-C , 20-C ) :   1.0084
B(  6-C ,  7-H ) :   0.9468 B(  6-C ,  8-H ) :   0.9316 B(  6-C ,  9-C ) :   1.0787
B(  9-C , 10-H ) :   0.9450 B(  9-C , 11-H ) :   0.9515 B(  9-C , 12-C ) :   1.0944
B( 12-C , 13-H ) :   0.9725 B( 12-C , 14-H ) :   0.9752 B( 12-C , 15-H ) :   0.9697
B( 16-S , 17-C ) :   1.1392 B( 16-S , 20-C ) :   1.1192 B( 17-C , 18-C ) :   1.6070
B( 17-C , 20-C ) :   0.1049 B( 17-C , 33-H ) :   0.9649 B( 18-C , 19-C ) :   1.2417
B( 18-C , 21-H ) :   0.9777 B( 19-C , 20-C ) :   1.6280 B( 19-C , 22-C ) :   1.0444
B( 22-C , 23-H ) :   0.9320 B( 22-C , 24-H ) :   0.9301 B( 22-C , 25-C ) :   1.0593
B( 25-C , 26-H ) :   0.9523 B( 25-C , 27-H ) :   0.9529 B( 25-C , 28-C ) :   1.0957
B( 28-C , 29-H ) :   0.9685 B( 28-C , 30-H ) :   0.9693 B( 28-C , 31-H ) :   0.9686

Dispersion correction           -0.013996672
FINAL SINGLE POINT ENERGY     -1339.878068070470

DIPOLE MOMENT
-------------
                                X             Y             Z
Electronic contribution:     15.78875      -2.70532     -24.93398
Nuclear contribution   :    -16.20290       2.87157      25.57353
                        -----------------------------------------
Total Dipole Moment    :     -0.41415       0.16625       0.63954
                        -----------------------------------------
Magnitude (a.u.)       :      0.77985
Magnitude (Debye)      :      1.98222

Rotational constants in cm-1:     0.017086     0.008578     0.007073
Rotational constants in MHz :   512.215462   257.163083   212.051881

                             ****ORCA TERMINATED NORMALLY****
TOTAL RUN TIME: 0 days 0 hours 0 minutes 29 seconds 963 msec
