                         Program Version 4.2.1 -  RELEASE  -
|  1> ! wB97X-D3 SP def2-SVP
|  2> %pal
|  3> nprocs 16
|  4> end
|  5>
|  6> * xyz 0 1
|  7> S 	 -62.5507 	 51.9036 	 126.287
|  8> C 	 -63.9822 	 52.6421 	 127.171
|  9> C 	 -63.5172 	 53.3676 	 128.277
| 10> C 	 -62.097 	 53.2289 	 128.478
| 11> C 	 -61.4052 	 52.5639 	 127.424
| 12> H 	 -61.4717 	 53.5315 	 129.312
| 13> C 	 -64.5132 	 54.1381 	 129.2
| 14> H 	 -65.6036 	 53.9119 	 128.949
| 15> H 	 -64.3399 	 55.1733 	 128.899
| 16> C 	 -64.2633 	 54.0945 	 130.712
| 17> H 	 -64.6883 	 53.1036 	 131.104
| 18> H 	 -63.218 	 54.0621 	 130.912
| 19> C 	 -64.8798 	 55.2595 	 131.519
| 20> H 	 -64.7121 	 54.9749 	 132.623
| 21> H 	 -64.3244 	 56.1237 	 131.13
| 22> H 	 -65.9583 	 55.4294 	 131.229
| 23> S 	 -59.1226 	 51.6638 	 128.605
| 24> C 	 -57.6038 	 51.5559 	 127.733
| 25> C 	 -57.8673 	 51.9063 	 126.432
| 26> C 	 -59.1696 	 52.3992 	 126.144
| 27> C 	 -59.9287 	 52.4699 	 127.273
| 28> H 	 -57.07 	 51.6299 	 125.758
| 29> C 	 -59.6408 	 52.8826 	 124.782
| 30> H 	 -58.9636 	 53.6996 	 124.387
| 31> H 	 -60.6798 	 53.2957 	 124.919
| 32> C 	 -59.7724 	 51.6941 	 123.752
| 33> H 	 -60.4221 	 50.9489 	 124.253
| 34> H 	 -58.8458 	 51.3742 	 123.495
| 35> C 	 -60.4371 	 51.9849 	 122.356
| 36> H 	 -60.1018 	 52.8464 	 121.861
| 37> H 	 -61.5327 	 52.1192 	 122.658
| 38> H 	 -60.3326 	 51.0649 	 121.637
| 39> H 	 -64.9997 	 52.5429 	 126.961
| 40> H 	 -56.7392 	 50.9758 	 128.033
| 41> *
| 42>
| 43>                          ****END OF INPUT****

CARTESIAN COORDINATES (ANGSTROEM)
---------------------------------
  S    -62.550700   51.903600  126.287000
  C    -63.982200   52.642100  127.171000
  C    -63.517200   53.367600  128.277000
  C    -62.097000   53.228900  128.478000
  C    -61.405200   52.563900  127.424000
  H    -61.471700   53.531500  129.312000
  C    -64.513200   54.138100  129.200000
  H    -65.603600   53.911900  128.949000
  H    -64.339900   55.173300  128.899000
  C    -64.263300   54.094500  130.712000
  H    -64.688300   53.103600  131.104000
  H    -63.218000   54.062100  130.912000
  C    -64.879800   55.259500  131.519000
  H    -64.712100   54.974900  132.623000
  H    -64.324400   56.123700  131.130000
  H    -65.958300   55.429400  131.229000
  S    -59.122600   51.663800  128.605000
  C    -57.603800   51.555900  127.733000
  C    -57.867300   51.906300  126.432000
  C    -59.169600   52.399200  126.144000
  C    -59.928700   52.469900  127.273000
  H    -57.070000   51.629900  125.758000
  C    -59.640800   52.882600  124.782000
  H    -58.963600   53.699600  124.387000
  H    -60.679800   53.295700  124.919000
  C    -59.772400   51.694100  123.752000
  H    -60.422100   50.948900  124.253000
  H    -58.845800   51.374200  123.495000
  C    -60.437100   51.984900  122.356000
  H    -60.101800   52.846400  121.861000
  H    -61.532700   52.119200  122.658000
  H    -60.332600   51.064900  121.637000
  H    -64.999700   52.542900  126.961000
  H    -56.739200   50.975800  128.033000

 Total Charge           Charge          ....    0
 Multiplicity           Mult            ....    1
 Number of Electrons    NEL             ....  134
 Basis Dimension        Dim             ....  322

ORBITAL ENERGIES
----------------

  NO   OCC          E(Eh)            E(eV)
   0   2.0000     -88.973311     -2421.0869
   1   2.0000     -88.964101     -2420.8363
   2   2.0000     -10.339197      -281.3438
   3   2.0000     -10.329415      -281.0777
   4   2.0000     -10.320097      -280.8241
   5   2.0000     -10.318663      -280.7851
   6   2.0000     -10.314510      -280.6721
   7   2.0000     -10.305232      -280.4196
   8   2.0000     -10.304182      -280.3910
   9   2.0000     -10.302092      -280.3342
  10   2.0000     -10.300422      -280.2887
  11   2.0000     -10.294002      -280.1140
  12   2.0000     -10.293231      -280.0930
  13   2.0000     -10.290383      -280.0156
  14   2.0000     -10.285948      -279.8949
  15   2.0000     -10.283032      -279.8155
  16   2.0000      -8.085781      -220.0253
  17   2.0000      -8.078923      -219.8387
  18   2.0000      -6.044500      -164.4792
  19   2.0000      -6.040504      -164.3705
  20   2.0000      -6.037520      -164.2893
  21   2.0000      -6.036567      -164.2633
  22   2.0000      -6.033436      -164.1781
  23   2.0000      -6.029527      -164.0718
  24   2.0000      -1.007887       -27.4260
  25   2.0000      -0.977644       -26.6030
  26   2.0000      -0.908876       -24.7318
  27   2.0000      -0.900452       -24.5025
  28   2.0000      -0.869849       -23.6698
  29   2.0000      -0.847218       -23.0540
  30   2.0000      -0.841723       -22.9044
  31   2.0000      -0.813693       -22.1417
  32   2.0000      -0.777731       -21.1631
  33   2.0000      -0.770136       -20.9565
  34   2.0000      -0.707444       -19.2505
  35   2.0000      -0.693997       -18.8846
  36   2.0000      -0.688431       -18.7332
  37   2.0000      -0.665030       -18.0964
  38   2.0000      -0.633937       -17.2503
  39   2.0000      -0.614136       -16.7115
  40   2.0000      -0.591700       -16.1010
  41   2.0000      -0.573092       -15.5946
  42   2.0000      -0.568119       -15.4593
  43   2.0000      -0.563187       -15.3251
  44   2.0000      -0.529003       -14.3949
  45   2.0000      -0.523387       -14.2421
  46   2.0000      -0.515643       -14.0313
  47   2.0000      -0.507626       -13.8132
  48   2.0000      -0.505941       -13.7674
  49   2.0000      -0.499093       -13.5810
  50   2.0000      -0.488830       -13.3017
  51   2.0000      -0.477124       -12.9832
  52   2.0000      -0.472969       -12.8701
  53   2.0000      -0.466437       -12.6924
  54   2.0000      -0.456453       -12.4207
  55   2.0000      -0.444494       -12.0953
  56   2.0000      -0.441989       -12.0271
  57   2.0000      -0.434779       -11.8309
  58   2.0000      -0.429540       -11.6884
  59   2.0000      -0.422807       -11.5052
  60   2.0000      -0.417572       -11.3627
  61   2.0000      -0.411158       -11.1882
  62   2.0000      -0.408473       -11.1151
  63   2.0000      -0.349004        -9.4969
  64   2.0000      -0.331894        -9.0313
  65   2.0000      -0.329565        -8.9679
  66   2.0000      -0.294306        -8.0085
  67   0.0000       0.022644         0.6162
  68   0.0000       0.064813         1.7637
  69   0.0000       0.101629         2.7655
  70   0.0000       0.112865         3.0712
  71   0.0000       0.123030         3.3478

MULLIKEN ATOMIC CHARGES
-----------------------
   0 S :    0.095885
   1 C :   -0.107937
   2 C :   -0.058426
   3 C :    0.010681
   4 C :   -0.155226
   5 H :    0.019467
   6 C :    0.049251
   7 H :    0.038905
   8 H :    0.033547
   9 C :   -0.101657
  10 H :    0.038125
  11 H :    0.029131
  12 C :   -0.087527
  13 H :    0.066535
  14 H :    0.038294
  15 H :    0.045597
  16 S :    0.085570
  17 C :   -0.092673
  18 C :   -0.042858
  19 C :   -0.043340
  20 C :   -0.110328
  21 H :    0.019516
  22 C :    0.026487
  23 H :    0.049681
  24 H :    0.034915
  25 C :   -0.066287
  26 H :    0.040143
  27 H :    0.011134
  28 C :   -0.086187
  29 H :    0.029803
  30 H :    0.040813
  31 H :    0.055056
  32 H :    0.027334
  33 H :    0.066574
Sum of atomic charges:    0.0000000

LOEWDIN ATOMIC CHARGES
----------------------
   0 S :    0.391234
   1 C :   -0.172973
   2 C :   -0.050495
   3 C :   -0.072722
   4 C :   -0.191172
   5 H :    0.028695
   6 C :   -0.035378
   7 H :    0.036931
   8 H :    0.032203
   9 C :   -0.050736
  10 H :    0.028226
  11 H :    0.017956
  12 C :   -0.073029
  13 H :    0.043509
  14 H :    0.025942
  15 H :    0.029867
  16 S :    0.403493
  17 C :   -0.184765
  18 C :   -0.068832
  19 C :   -0.064046
  20 C :   -0.191318
  21 H :    0.031022
  22 C :   -0.037343
  23 H :    0.037600
  24 H :    0.025460
  25 C :   -0.034121
  26 H :    0.025626
  27 H :    0.003704
  28 C :   -0.072301
  29 H :    0.012198
  30 H :    0.032326
  31 H :    0.039789
  32 H :    0.017936
  33 H :    0.035514

  Mayer bond orders larger than 0.100000
B(  0-S ,  1-C ) :   1.1118 B(  0-S ,  4-C ) :   1.1513 B(  1-C ,  2-C ) :   1.6141
B(  1-C , 32-H ) :   0.9794 B(  2-C ,  3-C ) :   1.2329 B(  2-C ,  6-C ) :   1.0044
B(  3-C ,  4-C ) :   1.5535 B(  3-C ,  5-H ) :   0.9897 B(  4-C , 20-C ) :   1.0256
B(  6-C ,  7-H ) :   0.9476 B(  6-C ,  8-H ) :   0.9381 B(  6-C ,  9-C ) :   1.0565
B(  9-C , 10-H ) :   0.9554 B(  9-C , 11-H ) :   0.9571 B(  9-C , 12-C ) :   1.0692
B( 12-C , 13-H ) :   0.9722 B( 12-C , 14-H ) :   0.9756 B( 12-C , 15-H ) :   0.9767
B( 16-S , 17-C ) :   1.1454 B( 16-S , 20-C ) :   1.1479 B( 17-C , 18-C ) :   1.6229
B( 17-C , 33-H ) :   0.9663 B( 18-C , 19-C ) :   1.2234 B( 18-C , 21-H ) :   0.9922
B( 19-C , 20-C ) :   1.5983 B( 19-C , 22-C ) :   1.0414 B( 22-C , 23-H ) :   0.9394
B( 22-C , 24-H ) :   0.9339 B( 22-C , 25-C ) :   1.0471 B( 25-C , 26-H ) :   0.9593
B( 25-C , 27-H ) :   0.9618 B( 25-C , 28-C ) :   1.0733 B( 28-C , 29-H ) :   0.9765
B( 28-C , 30-H ) :   0.9781 B( 28-C , 31-H ) :   0.9753

Dispersion correction           -0.013804956
FINAL SINGLE POINT ENERGY     -1339.850505810714

DIPOLE MOMENT
-------------
                                X             Y             Z
Electronic contribution:     10.50509      -9.14032       2.69333
Nuclear contribution   :    -10.54482       9.21880      -2.72820
                        -----------------------------------------
Total Dipole Moment    :     -0.03973       0.07848      -0.03487
                        -----------------------------------------
Magnitude (a.u.)       :      0.09463
Magnitude (Debye)      :      0.24052

Rotational constants in cm-1:     0.021060     0.007671     0.005980
Rotational constants in MHz :   631.377400   229.970779   179.275046

                             ****ORCA TERMINATED NORMALLY****
TOTAL RUN TIME: 0 days 0 hours 0 minutes 30 seconds 724 msec
