                         Program Version 4.2.1 -  RELEASE  -
|  1> ! wB97X-D3 SP def2-SVP
|  2> %pal
|  3> nprocs 16
|  4> end
|  5>
|  6> * xyz 0 1
|  7> S 	 -88.6796 	 54.7757 	 128.956
|  8> C 	 -89.2322 	 53.1687 	 129.428
|  9> C 	 -90.5568 	 53.2621 	 129.807
| 10> C 	 -90.9899 	 54.6401 	 130.032
| 11> C 	 -90.0879 	 55.5751 	 129.508
| 12> H 	 -91.9208 	 55.0626 	 130.456
| 13> C 	 -91.4793 	 52.1676 	 130.243
| 14> H 	 -91.185 	 51.4095 	 129.543
| 15> H 	 -92.4546 	 52.3644 	 130.004
| 16> C 	 -91.3912 	 51.548 	 131.66
| 17> H 	 -90.3756 	 51.1369 	 131.742
| 18> H 	 -91.471 	 52.3065 	 132.384
| 19> C 	 -92.4512 	 50.394 	 131.787
| 20> H 	 -93.4363 	 50.6717 	 131.506
| 21> H 	 -92.1946 	 49.5768 	 131.069
| 22> H 	 -92.5901 	 50.0146 	 132.77
| 23> S 	 -89.2148 	 58.2222 	 129.792
| 24> C 	 -90.1282 	 59.4551 	 129.02
| 25> C 	 -91.0935 	 58.894 	 128.232
| 26> C 	 -91.2256 	 57.4893 	 128.383
| 27> C 	 -90.3694 	 56.9999 	 129.268
| 28> H 	 -91.6622 	 59.5393 	 127.583
| 29> C 	 -92.3292 	 56.8029 	 127.671
| 30> H 	 -93.0134 	 57.518 	 127.241
| 31> H 	 -92.737 	 56.2303 	 128.445
| 32> C 	 -91.9623 	 55.932 	 126.455
| 33> H 	 -91.2783 	 55.1359 	 126.779
| 34> H 	 -91.4112 	 56.4878 	 125.723
| 35> C 	 -93.2551 	 55.3032 	 125.814
| 36> H 	 -93.2022 	 55.0467 	 124.757
| 37> H 	 -94.1884 	 55.8488 	 125.854
| 38> H 	 -93.4999 	 54.3826 	 126.37
| 39> H 	 -88.5792 	 52.333 	 129.271
| 40> H 	 -89.8745 	 60.5004 	 128.841
| 41> *
| 42>
| 43>                          ****END OF INPUT****

CARTESIAN COORDINATES (ANGSTROEM)
---------------------------------
  S    -88.679600   54.775700  128.956000
  C    -89.232200   53.168700  129.428000
  C    -90.556800   53.262100  129.807000
  C    -90.989900   54.640100  130.032000
  C    -90.087900   55.575100  129.508000
  H    -91.920800   55.062600  130.456000
  C    -91.479300   52.167600  130.243000
  H    -91.185000   51.409500  129.543000
  H    -92.454600   52.364400  130.004000
  C    -91.391200   51.548000  131.660000
  H    -90.375600   51.136900  131.742000
  H    -91.471000   52.306500  132.384000
  C    -92.451200   50.394000  131.787000
  H    -93.436300   50.671700  131.506000
  H    -92.194600   49.576800  131.069000
  H    -92.590100   50.014600  132.770000
  S    -89.214800   58.222200  129.792000
  C    -90.128200   59.455100  129.020000
  C    -91.093500   58.894000  128.232000
  C    -91.225600   57.489300  128.383000
  C    -90.369400   56.999900  129.268000
  H    -91.662200   59.539300  127.583000
  C    -92.329200   56.802900  127.671000
  H    -93.013400   57.518000  127.241000
  H    -92.737000   56.230300  128.445000
  C    -91.962300   55.932000  126.455000
  H    -91.278300   55.135900  126.779000
  H    -91.411200   56.487800  125.723000
  C    -93.255100   55.303200  125.814000
  H    -93.202200   55.046700  124.757000
  H    -94.188400   55.848800  125.854000
  H    -93.499900   54.382600  126.370000
  H    -88.579200   52.333000  129.271000
  H    -89.874500   60.500400  128.841000

 Total Charge           Charge          ....    0
 Multiplicity           Mult            ....    1
 Number of Electrons    NEL             ....  134
 Basis Dimension        Dim             ....  322

ORBITAL ENERGIES
----------------

  NO   OCC          E(Eh)            E(eV)
   0   2.0000     -88.964216     -2420.8394
   1   2.0000     -88.963600     -2420.8226
   2   2.0000     -10.327664      -281.0300
   3   2.0000     -10.319853      -280.8175
   4   2.0000     -10.317941      -280.7655
   5   2.0000     -10.312929      -280.6291
   6   2.0000     -10.307320      -280.4764
   7   2.0000     -10.296964      -280.1946
   8   2.0000     -10.293274      -280.0942
   9   2.0000     -10.288413      -279.9620
  10   2.0000     -10.286206      -279.9019
  11   2.0000     -10.285885      -279.8932
  12   2.0000     -10.281722      -279.7799
  13   2.0000     -10.279386      -279.7163
  14   2.0000     -10.279214      -279.7116
  15   2.0000     -10.277504      -279.6651
  16   2.0000      -8.079473      -219.8536
  17   2.0000      -8.078814      -219.8357
  18   2.0000      -6.038058      -164.3039
  19   2.0000      -6.037355      -164.2848
  20   2.0000      -6.033981      -164.1930
  21   2.0000      -6.033027      -164.1670
  22   2.0000      -6.030044      -164.0858
  23   2.0000      -6.029730      -164.0773
  24   2.0000      -1.014326       -27.6012
  25   2.0000      -0.989115       -26.9152
  26   2.0000      -0.912566       -24.8322
  27   2.0000      -0.910538       -24.7770
  28   2.0000      -0.870117       -23.6771
  29   2.0000      -0.850885       -23.1538
  30   2.0000      -0.843677       -22.9576
  31   2.0000      -0.814803       -22.1719
  32   2.0000      -0.783386       -21.3170
  33   2.0000      -0.775836       -21.1116
  34   2.0000      -0.714214       -19.4348
  35   2.0000      -0.709605       -19.3093
  36   2.0000      -0.695026       -18.9126
  37   2.0000      -0.664618       -18.0852
  38   2.0000      -0.649717       -17.6797
  39   2.0000      -0.613309       -16.6890
  40   2.0000      -0.593970       -16.1627
  41   2.0000      -0.574053       -15.6208
  42   2.0000      -0.569480       -15.4963
  43   2.0000      -0.558326       -15.1928
  44   2.0000      -0.526975       -14.3397
  45   2.0000      -0.521941       -14.2027
  46   2.0000      -0.516368       -14.0511
  47   2.0000      -0.513203       -13.9650
  48   2.0000      -0.507527       -13.8105
  49   2.0000      -0.499699       -13.5975
  50   2.0000      -0.495053       -13.4711
  51   2.0000      -0.477806       -13.0018
  52   2.0000      -0.473242       -12.8776
  53   2.0000      -0.462440       -12.5836
  54   2.0000      -0.459124       -12.4934
  55   2.0000      -0.450391       -12.2558
  56   2.0000      -0.446367       -12.1463
  57   2.0000      -0.440005       -11.9731
  58   2.0000      -0.437324       -11.9002
  59   2.0000      -0.426286       -11.5998
  60   2.0000      -0.419862       -11.4250
  61   2.0000      -0.416818       -11.3422
  62   2.0000      -0.410240       -11.1632
  63   2.0000      -0.341003        -9.2792
  64   2.0000      -0.330398        -8.9906
  65   2.0000      -0.326096        -8.8735
  66   2.0000      -0.304615        -8.2890
  67   0.0000       0.035642         0.9699
  68   0.0000       0.066623         1.8129
  69   0.0000       0.113017         3.0753
  70   0.0000       0.123985         3.3738
  71   0.0000       0.133927         3.6444

MULLIKEN ATOMIC CHARGES
-----------------------
   0 S :    0.105743
   1 C :   -0.127873
   2 C :   -0.078356
   3 C :   -0.001437
   4 C :   -0.143865
   5 H :    0.032567
   6 C :    0.074221
   7 H :    0.008913
   8 H :   -0.006122
   9 C :   -0.018104
  10 H :    0.026078
  11 H :    0.020227
  12 C :   -0.039380
  13 H :    0.014172
  14 H :    0.033900
  15 H :    0.030947
  16 S :    0.106430
  17 C :   -0.072246
  18 C :   -0.057163
  19 C :   -0.008550
  20 C :   -0.194033
  21 H :    0.009631
  22 C :    0.125583
  23 H :    0.012401
  24 H :    0.005841
  25 C :   -0.062900
  26 H :    0.043118
  27 H :    0.022341
  28 C :   -0.058546
  29 H :    0.033425
  30 H :    0.020372
  31 H :    0.030054
  32 H :    0.053377
  33 H :    0.059237
Sum of atomic charges:    0.0000000

LOEWDIN ATOMIC CHARGES
----------------------
   0 S :    0.415582
   1 C :   -0.190826
   2 C :   -0.057310
   3 C :   -0.074699
   4 C :   -0.203361
   5 H :    0.036527
   6 C :   -0.033295
   7 H :    0.030182
   8 H :    0.015340
   9 C :   -0.022946
  10 H :    0.026609
  11 H :    0.015207
  12 C :   -0.062792
  13 H :    0.018212
  14 H :    0.032394
  15 H :    0.022634
  16 S :    0.410227
  17 C :   -0.193780
  18 C :   -0.071546
  19 C :   -0.051074
  20 C :   -0.204219
  21 H :    0.027421
  22 C :   -0.022221
  23 H :    0.029777
  24 H :    0.024759
  25 C :   -0.029528
  26 H :    0.027879
  27 H :    0.019075
  28 C :   -0.074675
  29 H :    0.026351
  30 H :    0.021394
  31 H :    0.029038
  32 H :    0.026862
  33 H :    0.036804

  Mayer bond orders larger than 0.100000
B(  0-S ,  1-C ) :   1.1320 B(  0-S ,  4-C ) :   1.1723 B(  1-C ,  2-C ) :   1.5872
B(  1-C , 32-H ) :   0.9829 B(  2-C ,  3-C ) :   1.2160 B(  2-C ,  6-C ) :   1.0355
B(  3-C ,  4-C ) :   1.5810 B(  3-C ,  5-H ) :   0.9868 B(  4-C , 20-C ) :   1.0150
B(  6-C ,  7-H ) :   0.9333 B(  6-C ,  8-H ) :   0.9386 B(  6-C ,  9-C ) :   1.0581
B(  9-C , 10-H ) :   0.9561 B(  9-C , 11-H ) :   0.9613 B(  9-C , 12-C ) :   1.0666
B( 12-C , 13-H ) :   0.9768 B( 12-C , 14-H ) :   0.9768 B( 12-C , 15-H ) :   0.9757
B( 16-S , 17-C ) :   1.1580 B( 16-S , 20-C ) :   1.1190 B( 17-C , 18-C ) :   1.6301
B( 17-C , 33-H ) :   0.9598 B( 18-C , 19-C ) :   1.2416 B( 18-C , 21-H ) :   0.9906
B( 19-C , 20-C ) :   1.6253 B( 19-C , 22-C ) :   1.0291 B( 22-C , 23-H ) :   0.9319
B( 22-C , 24-H ) :   0.9252 B( 22-C , 25-C ) :   1.0648 B( 25-C , 26-H ) :   0.9581
B( 25-C , 27-H ) :   0.9594 B( 25-C , 28-C ) :   1.0634 B( 28-C , 29-H ) :   0.9779
B( 28-C , 30-H ) :   0.9767 B( 28-C , 31-H ) :   0.9775

Dispersion correction           -0.014490140
FINAL SINGLE POINT ENERGY     -1339.862837748412

DIPOLE MOMENT
-------------
                                X             Y             Z
Electronic contribution:     21.21627      20.17646       3.85026
Nuclear contribution   :    -21.76696     -20.42738      -4.13576
                        -----------------------------------------
Total Dipole Moment    :     -0.55070      -0.25091      -0.28550
                        -----------------------------------------
Magnitude (a.u.)       :      0.66913
Magnitude (Debye)      :      1.70079

Rotational constants in cm-1:     0.019503     0.008156     0.006782
Rotational constants in MHz :   584.683190   244.511455   203.318672

                             ****ORCA TERMINATED NORMALLY****
TOTAL RUN TIME: 0 days 0 hours 0 minutes 33 seconds 701 msec
