                         Program Version 4.2.1 -  RELEASE  -
|  1> ! wB97X-D3 SP def2-SVP
|  2> %pal
|  3> nprocs 16
|  4> end
|  5>
|  6> * xyz 0 1
|  7> S 	 36.8502 	 -7.36551 	 70.1473
|  8> C 	 36.9283 	 -6.06435 	 71.3053
|  9> C 	 38.1765 	 -6.00552 	 71.9112
| 10> C 	 39.121 	 -6.89146 	 71.304
| 11> C 	 38.6037 	 -7.65139 	 70.2669
| 12> H 	 40.1246 	 -7.03389 	 71.4845
| 13> C 	 38.5721 	 -5.01178 	 72.9812
| 14> H 	 39.0081 	 -5.60786 	 73.7881
| 15> H 	 37.6972 	 -4.66195 	 73.5194
| 16> C 	 39.6019 	 -3.99713 	 72.4963
| 17> H 	 40.5412 	 -4.42275 	 72.1006
| 18> H 	 39.0846 	 -3.34697 	 71.8014
| 19> C 	 40.0124 	 -3.04784 	 73.5776
| 20> H 	 39.1354 	 -2.55594 	 73.9547
| 21> H 	 40.4868 	 -3.62545 	 74.3999
| 22> H 	 40.7872 	 -2.39382 	 73.1563
| 23> S 	 38.7887 	 -10.4396 	 69.5324
| 24> C 	 40.0816 	 -10.9656 	 68.4488
| 25> C 	 40.8261 	 -9.83868 	 68.1066
| 26> C 	 40.4746 	 -8.6052 	 68.7438
| 27> C 	 39.3914 	 -8.71913 	 69.5781
| 28> H 	 41.5749 	 -9.96563 	 67.2469
| 29> C 	 41.2874 	 -7.34801 	 68.4859
| 30> H 	 42.3075 	 -7.6436 	 68.2409
| 31> H 	 41.2785 	 -6.91883 	 69.4415
| 32> C 	 40.5648 	 -6.49282 	 67.4604
| 33> H 	 39.5562 	 -6.55483 	 67.866
| 34> H 	 40.4265 	 -6.81903 	 66.3926
| 35> C 	 41.1017 	 -5.07553 	 67.5644
| 36> H 	 40.5034 	 -4.35608 	 67.111
| 37> H 	 42.029 	 -5.10535 	 67.0233
| 38> H 	 41.2722 	 -4.76623 	 68.5958
| 39> H 	 36.0358 	 -5.54479 	 71.659
| 40> H 	 40.4458 	 -11.9211 	 68.0653
| 41> *
| 42>
| 43>                          ****END OF INPUT****

CARTESIAN COORDINATES (ANGSTROEM)
---------------------------------
  S     36.850200   -7.365510   70.147300
  C     36.928300   -6.064350   71.305300
  C     38.176500   -6.005520   71.911200
  C     39.121000   -6.891460   71.304000
  C     38.603700   -7.651390   70.266900
  H     40.124600   -7.033890   71.484500
  C     38.572100   -5.011780   72.981200
  H     39.008100   -5.607860   73.788100
  H     37.697200   -4.661950   73.519400
  C     39.601900   -3.997130   72.496300
  H     40.541200   -4.422750   72.100600
  H     39.084600   -3.346970   71.801400
  C     40.012400   -3.047840   73.577600
  H     39.135400   -2.555940   73.954700
  H     40.486800   -3.625450   74.399900
  H     40.787200   -2.393820   73.156300
  S     38.788700  -10.439600   69.532400
  C     40.081600  -10.965600   68.448800
  C     40.826100   -9.838680   68.106600
  C     40.474600   -8.605200   68.743800
  C     39.391400   -8.719130   69.578100
  H     41.574900   -9.965630   67.246900
  C     41.287400   -7.348010   68.485900
  H     42.307500   -7.643600   68.240900
  H     41.278500   -6.918830   69.441500
  C     40.564800   -6.492820   67.460400
  H     39.556200   -6.554830   67.866000
  H     40.426500   -6.819030   66.392600
  C     41.101700   -5.075530   67.564400
  H     40.503400   -4.356080   67.111000
  H     42.029000   -5.105350   67.023300
  H     41.272200   -4.766230   68.595800
  H     36.035800   -5.544790   71.659000
  H     40.445800  -11.921100   68.065300

 Total Charge           Charge          ....    0
 Multiplicity           Mult            ....    1
 Number of Electrons    NEL             ....  134
 Basis Dimension        Dim             ....  322

ORBITAL ENERGIES
----------------

  NO   OCC          E(Eh)            E(eV)
   0   2.0000     -88.968419     -2420.9537
   1   2.0000     -88.965558     -2420.8759
   2   2.0000     -10.336180      -281.2618
   3   2.0000     -10.333558      -281.1904
   4   2.0000     -10.321272      -280.8561
   5   2.0000     -10.317733      -280.7598
   6   2.0000     -10.304552      -280.4011
   7   2.0000     -10.301545      -280.3193
   8   2.0000     -10.296809      -280.1904
   9   2.0000     -10.292788      -280.0810
  10   2.0000     -10.291973      -280.0588
  11   2.0000     -10.286540      -279.9110
  12   2.0000     -10.286444      -279.9084
  13   2.0000     -10.283001      -279.8147
  14   2.0000     -10.277163      -279.6558
  15   2.0000     -10.265497      -279.3384
  16   2.0000      -8.082569      -219.9379
  17   2.0000      -8.078604      -219.8300
  18   2.0000      -6.041139      -164.3877
  19   2.0000      -6.037464      -164.2877
  20   2.0000      -6.037114      -164.2782
  21   2.0000      -6.033331      -164.1753
  22   2.0000      -6.033295      -164.1743
  23   2.0000      -6.029116      -164.0606
  24   2.0000      -1.000604       -27.2278
  25   2.0000      -0.980074       -26.6692
  26   2.0000      -0.918575       -24.9957
  27   2.0000      -0.914670       -24.8894
  28   2.0000      -0.868866       -23.6431
  29   2.0000      -0.854541       -23.2532
  30   2.0000      -0.845144       -22.9975
  31   2.0000      -0.814889       -22.1743
  32   2.0000      -0.780653       -21.2427
  33   2.0000      -0.770810       -20.9748
  34   2.0000      -0.707514       -19.2524
  35   2.0000      -0.696892       -18.9634
  36   2.0000      -0.693273       -18.8649
  37   2.0000      -0.656424       -17.8622
  38   2.0000      -0.649617       -17.6770
  39   2.0000      -0.618142       -16.8205
  40   2.0000      -0.587962       -15.9993
  41   2.0000      -0.575967       -15.6729
  42   2.0000      -0.567318       -15.4375
  43   2.0000      -0.564991       -15.3742
  44   2.0000      -0.537297       -14.6206
  45   2.0000      -0.528084       -14.3699
  46   2.0000      -0.516865       -14.0646
  47   2.0000      -0.510056       -13.8793
  48   2.0000      -0.508434       -13.8352
  49   2.0000      -0.499290       -13.5864
  50   2.0000      -0.494891       -13.4667
  51   2.0000      -0.484063       -13.1720
  52   2.0000      -0.468432       -12.7467
  53   2.0000      -0.464857       -12.6494
  54   2.0000      -0.458854       -12.4860
  55   2.0000      -0.448864       -12.2142
  56   2.0000      -0.443348       -12.0641
  57   2.0000      -0.438677       -11.9370
  58   2.0000      -0.428717       -11.6660
  59   2.0000      -0.424564       -11.5530
  60   2.0000      -0.416243       -11.3266
  61   2.0000      -0.411118       -11.1871
  62   2.0000      -0.409749       -11.1498
  63   2.0000      -0.347061        -9.4440
  64   2.0000      -0.330015        -8.9802
  65   2.0000      -0.326445        -8.8830
  66   2.0000      -0.296580        -8.0703
  67   0.0000       0.030228         0.8225
  68   0.0000       0.060626         1.6497
  69   0.0000       0.115016         3.1297
  70   0.0000       0.122919         3.3448
  71   0.0000       0.125357         3.4111

MULLIKEN ATOMIC CHARGES
-----------------------
   0 S :    0.111335
   1 C :   -0.127160
   2 C :   -0.061749
   3 C :    0.045060
   4 C :   -0.162237
   5 H :   -0.010247
   6 C :    0.072547
   7 H :    0.018355
   8 H :    0.011256
   9 C :   -0.072992
  10 H :    0.039899
  11 H :    0.029743
  12 C :   -0.039759
  13 H :    0.028449
  14 H :    0.023785
  15 H :    0.040607
  16 S :    0.094406
  17 C :   -0.086475
  18 C :   -0.079954
  19 C :   -0.084824
  20 C :   -0.165255
  21 H :    0.044111
  22 C :    0.156151
  23 H :    0.021339
  24 H :   -0.011133
  25 C :   -0.101130
  26 H :    0.031635
  27 H :    0.043549
  28 C :    0.009398
  29 H :    0.018205
  30 H :    0.019809
  31 H :    0.024360
  32 H :    0.057213
  33 H :    0.061702
Sum of atomic charges:   -0.0000000

LOEWDIN ATOMIC CHARGES
----------------------
   0 S :    0.396905
   1 C :   -0.199348
   2 C :   -0.059298
   3 C :   -0.050051
   4 C :   -0.184442
   5 H :    0.017310
   6 C :   -0.037291
   7 H :    0.031955
   8 H :    0.029496
   9 C :   -0.040589
  10 H :    0.028944
  11 H :    0.026278
  12 C :   -0.062098
  13 H :    0.020994
  14 H :    0.023063
  15 H :    0.029411
  16 S :    0.368988
  17 C :   -0.189912
  18 C :   -0.086617
  19 C :   -0.055051
  20 C :   -0.181836
  21 H :    0.040800
  22 C :   -0.017405
  23 H :    0.027189
  24 H :    0.022949
  25 C :   -0.042235
  26 H :    0.026151
  27 H :    0.033419
  28 C :   -0.056235
  29 H :    0.015698
  30 H :    0.024066
  31 H :    0.025177
  32 H :    0.032144
  33 H :    0.041471

  Mayer bond orders larger than 0.100000
B(  0-S ,  1-C ) :   1.1389 B(  0-S ,  4-C ) :   1.1345 B(  1-C ,  2-C ) :   1.6070
B(  1-C , 32-H ) :   0.9666 B(  2-C ,  3-C ) :   1.2222 B(  2-C ,  6-C ) :   1.0359
B(  3-C ,  4-C ) :   1.5793 B(  3-C ,  5-H ) :   1.0006 B(  4-C , 20-C ) :   1.0395
B(  6-C ,  7-H ) :   0.9289 B(  6-C ,  8-H ) :   0.9384 B(  6-C ,  9-C ) :   1.0616
B(  9-C , 10-H ) :   0.9532 B(  9-C , 11-H ) :   0.9548 B(  9-C , 12-C ) :   1.0930
B( 12-C , 13-H ) :   0.9740 B( 12-C , 14-H ) :   0.9733 B( 12-C , 15-H ) :   0.9736
B( 16-S , 17-C ) :   1.1406 B( 16-S , 20-C ) :   1.1057 B( 17-C , 18-C ) :   1.6380
B( 17-C , 33-H ) :   0.9612 B( 18-C , 19-C ) :   1.2484 B( 18-C , 21-H ) :   0.9703
B( 19-C , 20-C ) :   1.6206 B( 19-C , 22-C ) :   1.0220 B( 22-C , 23-H ) :   0.9303
B( 22-C , 24-H ) :   0.9236 B( 22-C , 25-C ) :   1.0525 B( 25-C , 26-H ) :   0.9548
B( 25-C , 27-H ) :   0.9564 B( 25-C , 28-C ) :   1.0847 B( 28-C , 29-H ) :   0.9721
B( 28-C , 30-H ) :   0.9705 B( 28-C , 31-H ) :   0.9748

Dispersion correction           -0.014556739
FINAL SINGLE POINT ENERGY     -1339.860249891157

DIPOLE MOMENT
-------------
                                X             Y             Z
Electronic contribution:    -15.30366     -25.75081      -3.88166
Nuclear contribution   :     15.76319      26.27120       3.98854
                        -----------------------------------------
Total Dipole Moment    :      0.45954       0.52039       0.10688
                        -----------------------------------------
Magnitude (a.u.)       :      0.70243
Magnitude (Debye)      :      1.78543

Rotational constants in cm-1:     0.018848     0.008733     0.007027
Rotational constants in MHz :   565.058751   261.817384   210.669701

                             ****ORCA TERMINATED NORMALLY****
TOTAL RUN TIME: 0 days 0 hours 0 minutes 30 seconds 713 msec
