                         Program Version 4.2.1 -  RELEASE  -
|  1> ! wB97X-D3 SP def2-SVP
|  2> %pal
|  3> nprocs 16
|  4> end
|  5>
|  6> * xyz 0 1
|  7> S 	 53.859 	 18.5362 	 48.9526
|  8> C 	 52.1664 	 19.0336 	 48.6343
|  9> C 	 51.6732 	 18.636 	 47.3627
| 10> C 	 52.681 	 17.9199 	 46.6643
| 11> C 	 53.9068 	 17.7967 	 47.3034
| 12> H 	 52.5239 	 17.5815 	 45.6829
| 13> C 	 50.3163 	 18.8334 	 46.821
| 14> H 	 49.5703 	 18.8446 	 47.6163
| 15> H 	 49.9903 	 17.9169 	 46.2167
| 16> C 	 50.1061 	 20.1061 	 45.941
| 17> H 	 50.9904 	 20.2135 	 45.2941
| 18> H 	 49.1531 	 20.018 	 45.2762
| 19> C 	 50.0046 	 21.341 	 46.8349
| 20> H 	 50.1058 	 22.2701 	 46.1949
| 21> H 	 49.063 	 21.282 	 47.4299
| 22> H 	 50.7769 	 21.3283 	 47.5773
| 23> S 	 56.3383 	 18.6975 	 46.533
| 24> C 	 57.3648 	 17.5985 	 45.6542
| 25> C 	 56.9292 	 16.2904 	 45.7638
| 26> C 	 55.6158 	 16.2002 	 46.2257
| 27> C 	 55.1614 	 17.3885 	 46.6858
| 28> H 	 57.5481 	 15.5634 	 45.3055
| 29> C 	 54.8367 	 14.9469 	 46.2712
| 30> H 	 54.0103 	 14.9538 	 47.0347
| 31> H 	 55.5537 	 14.1383 	 46.6484
| 32> C 	 54.2099 	 14.5955 	 44.8388
| 33> H 	 54.9814 	 14.4122 	 44.1753
| 34> H 	 53.5599 	 15.3878 	 44.4447
| 35> C 	 53.3623 	 13.3861 	 45.0327
| 36> H 	 53.8258 	 12.591 	 45.5897
| 37> H 	 52.9817 	 12.9073 	 44.1265
| 38> H 	 52.4677 	 13.6723 	 45.5192
| 39> H 	 51.6669 	 19.6514 	 49.3628
| 40> H 	 58.4083 	 17.9215 	 45.2382
| 41> *
| 42>
| 43>                          ****END OF INPUT****

CARTESIAN COORDINATES (ANGSTROEM)
---------------------------------
  S     53.859000   18.536200   48.952600
  C     52.166400   19.033600   48.634300
  C     51.673200   18.636000   47.362700
  C     52.681000   17.919900   46.664300
  C     53.906800   17.796700   47.303400
  H     52.523900   17.581500   45.682900
  C     50.316300   18.833400   46.821000
  H     49.570300   18.844600   47.616300
  H     49.990300   17.916900   46.216700
  C     50.106100   20.106100   45.941000
  H     50.990400   20.213500   45.294100
  H     49.153100   20.018000   45.276200
  C     50.004600   21.341000   46.834900
  H     50.105800   22.270100   46.194900
  H     49.063000   21.282000   47.429900
  H     50.776900   21.328300   47.577300
  S     56.338300   18.697500   46.533000
  C     57.364800   17.598500   45.654200
  C     56.929200   16.290400   45.763800
  C     55.615800   16.200200   46.225700
  C     55.161400   17.388500   46.685800
  H     57.548100   15.563400   45.305500
  C     54.836700   14.946900   46.271200
  H     54.010300   14.953800   47.034700
  H     55.553700   14.138300   46.648400
  C     54.209900   14.595500   44.838800
  H     54.981400   14.412200   44.175300
  H     53.559900   15.387800   44.444700
  C     53.362300   13.386100   45.032700
  H     53.825800   12.591000   45.589700
  H     52.981700   12.907300   44.126500
  H     52.467700   13.672300   45.519200
  H     51.666900   19.651400   49.362800
  H     58.408300   17.921500   45.238200

 Total Charge           Charge          ....    0
 Multiplicity           Mult            ....    1
 Number of Electrons    NEL             ....  134
 Basis Dimension        Dim             ....  322

ORBITAL ENERGIES
----------------

  NO   OCC          E(Eh)            E(eV)
   0   2.0000     -88.969221     -2420.9756
   1   2.0000     -88.962534     -2420.7936
   2   2.0000     -10.331860      -281.1442
   3   2.0000     -10.322789      -280.8974
   4   2.0000     -10.321779      -280.8699
   5   2.0000     -10.318906      -280.7917
   6   2.0000     -10.305330      -280.4223
   7   2.0000     -10.299526      -280.2644
   8   2.0000     -10.297654      -280.2134
   9   2.0000     -10.296300      -280.1766
  10   2.0000     -10.295314      -280.1497
  11   2.0000     -10.291400      -280.0432
  12   2.0000     -10.288335      -279.9598
  13   2.0000     -10.284294      -279.8499
  14   2.0000     -10.280402      -279.7440
  15   2.0000     -10.267622      -279.3962
  16   2.0000      -8.082324      -219.9312
  17   2.0000      -8.077533      -219.8008
  18   2.0000      -6.040834      -164.3795
  19   2.0000      -6.037165      -164.2796
  20   2.0000      -6.035876      -164.2445
  21   2.0000      -6.033085      -164.1686
  22   2.0000      -6.032146      -164.1430
  23   2.0000      -6.028299      -164.0384
  24   2.0000      -1.006862       -27.3981
  25   2.0000      -0.978120       -26.6160
  26   2.0000      -0.911132       -24.7932
  27   2.0000      -0.909714       -24.7546
  28   2.0000      -0.863888       -23.5076
  29   2.0000      -0.859765       -23.3954
  30   2.0000      -0.847723       -23.0677
  31   2.0000      -0.809651       -22.0317
  32   2.0000      -0.778288       -21.1783
  33   2.0000      -0.765716       -20.8362
  34   2.0000      -0.707743       -19.2587
  35   2.0000      -0.697290       -18.9742
  36   2.0000      -0.690241       -18.7824
  37   2.0000      -0.662050       -18.0153
  38   2.0000      -0.642231       -17.4760
  39   2.0000      -0.624373       -16.9901
  40   2.0000      -0.594921       -16.1886
  41   2.0000      -0.572058       -15.5665
  42   2.0000      -0.565571       -15.3900
  43   2.0000      -0.542304       -14.7568
  44   2.0000      -0.535915       -14.5830
  45   2.0000      -0.523703       -14.2507
  46   2.0000      -0.521411       -14.1883
  47   2.0000      -0.513838       -13.9822
  48   2.0000      -0.503634       -13.7046
  49   2.0000      -0.488276       -13.2867
  50   2.0000      -0.485239       -13.2040
  51   2.0000      -0.473648       -12.8886
  52   2.0000      -0.467358       -12.7175
  53   2.0000      -0.462624       -12.5886
  54   2.0000      -0.454921       -12.3790
  55   2.0000      -0.451807       -12.2943
  56   2.0000      -0.444403       -12.0928
  57   2.0000      -0.437356       -11.9011
  58   2.0000      -0.431369       -11.7381
  59   2.0000      -0.430053       -11.7023
  60   2.0000      -0.422968       -11.5095
  61   2.0000      -0.418669       -11.3926
  62   2.0000      -0.415850       -11.3158
  63   2.0000      -0.342452        -9.3186
  64   2.0000      -0.330343        -8.9891
  65   2.0000      -0.326572        -8.8865
  66   2.0000      -0.293056        -7.9744
  67   0.0000       0.033205         0.9035
  68   0.0000       0.054643         1.4869
  69   0.0000       0.103994         2.8298
  70   0.0000       0.117639         3.2011
  71   0.0000       0.124672         3.3925

MULLIKEN ATOMIC CHARGES
-----------------------
   0 S :    0.100787
   1 C :   -0.131750
   2 C :   -0.061869
   3 C :    0.065113
   4 C :   -0.154912
   5 H :   -0.012588
   6 C :    0.017140
   7 H :    0.022008
   8 H :    0.039936
   9 C :   -0.085936
  10 H :    0.035665
  11 H :    0.049220
  12 C :   -0.056511
  13 H :    0.050794
  14 H :    0.030545
  15 H :    0.019491
  16 S :    0.110383
  17 C :   -0.140785
  18 C :   -0.022478
  19 C :    0.026518
  20 C :   -0.173112
  21 H :    0.006405
  22 C :   -0.017325
  23 H :    0.040357
  24 H :    0.042333
  25 C :   -0.033641
  26 H :    0.014603
  27 H :    0.035526
  28 C :   -0.017239
  29 H :    0.022170
  30 H :    0.021844
  31 H :    0.017025
  32 H :    0.052373
  33 H :    0.087911
Sum of atomic charges:    0.0000000

LOEWDIN ATOMIC CHARGES
----------------------
   0 S :    0.366918
   1 C :   -0.179402
   2 C :   -0.062853
   3 C :   -0.048595
   4 C :   -0.177893
   5 H :    0.022202
   6 C :   -0.042858
   7 H :    0.028684
   8 H :    0.040437
   9 C :   -0.044929
  10 H :    0.024202
  11 H :    0.033674
  12 C :   -0.071276
  13 H :    0.034845
  14 H :    0.027045
  15 H :    0.017626
  16 S :    0.399348
  17 C :   -0.194801
  18 C :   -0.071741
  19 C :   -0.062817
  20 C :   -0.193812
  21 H :    0.026933
  22 C :   -0.031734
  23 H :    0.034423
  24 H :    0.040759
  25 C :   -0.024932
  26 H :    0.012322
  27 H :    0.028633
  28 C :   -0.065171
  29 H :    0.021911
  30 H :    0.024502
  31 H :    0.020946
  32 H :    0.020299
  33 H :    0.047106

  Mayer bond orders larger than 0.100000
B(  0-S ,  1-C ) :   1.1394 B(  0-S ,  4-C ) :   1.1299 B(  1-C ,  2-C ) :   1.5838
B(  1-C , 32-H ) :   0.9661 B(  2-C ,  3-C ) :   1.2541 B(  2-C ,  6-C ) :   1.0352
B(  3-C ,  4-C ) :   1.5812 B(  3-C ,  5-H ) :   0.9941 B(  4-C , 20-C ) :   1.0299
B(  6-C ,  7-H ) :   0.9426 B(  6-C ,  8-H ) :   0.9423 B(  6-C ,  9-C ) :   1.0491
B(  9-C , 10-H ) :   0.9577 B(  9-C , 11-H ) :   0.9565 B(  9-C , 12-C ) :   1.0723
B( 12-C , 13-H ) :   0.9728 B( 12-C , 14-H ) :   0.9740 B( 12-C , 15-H ) :   0.9746
B( 16-S , 17-C ) :   1.1621 B( 16-S , 20-C ) :   1.1317 B( 17-C , 18-C ) :   1.6165
B( 17-C , 33-H ) :   0.9525 B( 18-C , 19-C ) :   1.2171 B( 18-C , 21-H ) :   0.9952
B( 19-C , 20-C ) :   1.6259 B( 19-C , 22-C ) :   1.0492 B( 22-C , 23-H ) :   0.9391
B( 22-C , 24-H ) :   0.9358 B( 22-C , 25-C ) :   1.0457 B( 25-C , 26-H ) :   0.9562
B( 25-C , 27-H ) :   0.9562 B( 25-C , 28-C ) :   1.0951 B( 28-C , 29-H ) :   0.9692
B( 28-C , 30-H ) :   0.9693 B( 28-C , 31-H ) :   0.9725

Dispersion correction           -0.014378237
FINAL SINGLE POINT ENERGY     -1339.871241999722

DIPOLE MOMENT
-------------
                                X             Y             Z
Electronic contribution:     19.93964       7.62434      11.43457
Nuclear contribution   :    -20.21666      -7.91192     -11.84309
                        -----------------------------------------
Total Dipole Moment    :     -0.27703      -0.28757      -0.40853
                        -----------------------------------------
Magnitude (a.u.)       :      0.57126
Magnitude (Debye)      :      1.45202

Rotational constants in cm-1:     0.018288     0.008602     0.006967
Rotational constants in MHz :   548.249396   257.884195   208.870695

                             ****ORCA TERMINATED NORMALLY****
TOTAL RUN TIME: 0 days 0 hours 0 minutes 29 seconds 2 msec
