                         Program Version 4.2.1 -  RELEASE  -
|  1> ! wB97X-D3 SP def2-SVP
|  2> %pal
|  3> nprocs 16
|  4> end
|  5>
|  6> * xyz 0 1
|  7> S 	 54.7934 	 5.80622 	 65.0437
|  8> C 	 55.093 	 7.34991 	 65.9096
|  9> C 	 54.772 	 8.43878 	 65.1361
| 10> C 	 54.3277 	 7.99381 	 63.8556
| 11> C 	 54.3046 	 6.60459 	 63.6152
| 12> H 	 53.9306 	 8.64783 	 63.0707
| 13> C 	 54.9196 	 9.90691 	 65.5268
| 14> H 	 55.1569 	 9.8414 	 66.6156
| 15> H 	 53.9318 	 10.3452 	 65.4489
| 16> C 	 55.9743 	 10.7515 	 64.7374
| 17> H 	 57.0656 	 10.4042 	 65.1094
| 18> H 	 56.0419 	 10.6347 	 63.6765
| 19> C 	 55.8385 	 12.3185 	 64.9958
| 20> H 	 54.7136 	 12.6368 	 64.86
| 21> H 	 56.0123 	 12.5562 	 66.0205
| 22> H 	 56.4612 	 12.9679 	 64.3406
| 23> S 	 53.1574 	 4.3607 	 62.7862
| 24> C 	 52.8917 	 3.99971 	 61.1871
| 25> C 	 53.3171 	 5.02197 	 60.3331
| 26> C 	 53.7931 	 6.12448 	 61.1217
| 27> C 	 53.8689 	 5.86964 	 62.4476
| 28> H 	 53.2469 	 4.87925 	 59.2427
| 29> C 	 54.1346 	 7.40821 	 60.4657
| 30> H 	 54.7169 	 7.18894 	 59.5273
| 31> H 	 54.8355 	 7.90827 	 61.2077
| 32> C 	 52.9308 	 8.34151 	 60.1219
| 33> H 	 52.5927 	 8.86446 	 61.0447
| 34> H 	 52.1109 	 7.73114 	 59.8278
| 35> C 	 53.1603 	 9.29867 	 58.9688
| 36> H 	 52.2613 	 9.78626 	 58.6526
| 37> H 	 53.6028 	 8.71792 	 58.1363
| 38> H 	 53.7762 	 10.2047 	 59.2309
| 39> H 	 55.4129 	 7.39009 	 66.9342
| 40> H 	 52.55 	 3.09862 	 60.729
| 41> *
| 42>
| 43>                          ****END OF INPUT****

CARTESIAN COORDINATES (ANGSTROEM)
---------------------------------
  S     54.793400    5.806220   65.043700
  C     55.093000    7.349910   65.909600
  C     54.772000    8.438780   65.136100
  C     54.327700    7.993810   63.855600
  C     54.304600    6.604590   63.615200
  H     53.930600    8.647830   63.070700
  C     54.919600    9.906910   65.526800
  H     55.156900    9.841400   66.615600
  H     53.931800   10.345200   65.448900
  C     55.974300   10.751500   64.737400
  H     57.065600   10.404200   65.109400
  H     56.041900   10.634700   63.676500
  C     55.838500   12.318500   64.995800
  H     54.713600   12.636800   64.860000
  H     56.012300   12.556200   66.020500
  H     56.461200   12.967900   64.340600
  S     53.157400    4.360700   62.786200
  C     52.891700    3.999710   61.187100
  C     53.317100    5.021970   60.333100
  C     53.793100    6.124480   61.121700
  C     53.868900    5.869640   62.447600
  H     53.246900    4.879250   59.242700
  C     54.134600    7.408210   60.465700
  H     54.716900    7.188940   59.527300
  H     54.835500    7.908270   61.207700
  C     52.930800    8.341510   60.121900
  H     52.592700    8.864460   61.044700
  H     52.110900    7.731140   59.827800
  C     53.160300    9.298670   58.968800
  H     52.261300    9.786260   58.652600
  H     53.602800    8.717920   58.136300
  H     53.776200   10.204700   59.230900
  H     55.412900    7.390090   66.934200
  H     52.550000    3.098620   60.729000

 Total Charge           Charge          ....    0
 Multiplicity           Mult            ....    1
 Number of Electrons    NEL             ....  134
 Basis Dimension        Dim             ....  322

ORBITAL ENERGIES
----------------

  NO   OCC          E(Eh)            E(eV)
   0   2.0000     -88.966805     -2420.9098
   1   2.0000     -88.964450     -2420.8458
   2   2.0000     -10.331395      -281.1316
   3   2.0000     -10.320036      -280.8225
   4   2.0000     -10.316441      -280.7246
   5   2.0000     -10.310251      -280.5562
   6   2.0000     -10.306578      -280.4562
   7   2.0000     -10.304668      -280.4043
   8   2.0000     -10.304556      -280.4012
   9   2.0000     -10.298181      -280.2277
  10   2.0000     -10.294992      -280.1410
  11   2.0000     -10.294538      -280.1286
  12   2.0000     -10.294361      -280.1238
  13   2.0000     -10.292745      -280.0798
  14   2.0000     -10.287042      -279.9246
  15   2.0000     -10.281380      -279.7706
  16   2.0000      -8.081978      -219.9218
  17   2.0000      -8.081592      -219.9113
  18   2.0000      -6.040280      -164.3644
  19   2.0000      -6.040128      -164.3602
  20   2.0000      -6.036089      -164.2503
  21   2.0000      -6.035986      -164.2475
  22   2.0000      -6.032876      -164.1629
  23   2.0000      -6.032315      -164.1476
  24   2.0000      -1.022803       -27.8319
  25   2.0000      -0.989974       -26.9386
  26   2.0000      -0.911270       -24.7969
  27   2.0000      -0.907401       -24.6916
  28   2.0000      -0.870601       -23.6902
  29   2.0000      -0.858784       -23.3687
  30   2.0000      -0.840251       -22.8644
  31   2.0000      -0.813122       -22.1262
  32   2.0000      -0.782071       -21.2812
  33   2.0000      -0.773837       -21.0572
  34   2.0000      -0.709346       -19.3023
  35   2.0000      -0.699258       -19.0278
  36   2.0000      -0.695447       -18.9241
  37   2.0000      -0.669421       -18.2159
  38   2.0000      -0.639148       -17.3921
  39   2.0000      -0.620974       -16.8976
  40   2.0000      -0.591843       -16.1049
  41   2.0000      -0.569132       -15.4869
  42   2.0000      -0.565319       -15.3831
  43   2.0000      -0.552306       -15.0290
  44   2.0000      -0.531165       -14.4537
  45   2.0000      -0.526791       -14.3347
  46   2.0000      -0.516216       -14.0470
  47   2.0000      -0.515693       -14.0327
  48   2.0000      -0.505410       -13.7529
  49   2.0000      -0.499304       -13.5868
  50   2.0000      -0.493793       -13.4368
  51   2.0000      -0.484868       -13.1939
  52   2.0000      -0.466026       -12.6812
  53   2.0000      -0.464586       -12.6420
  54   2.0000      -0.459641       -12.5075
  55   2.0000      -0.453041       -12.3279
  56   2.0000      -0.444877       -12.1057
  57   2.0000      -0.440782       -11.9943
  58   2.0000      -0.433480       -11.7956
  59   2.0000      -0.427584       -11.6352
  60   2.0000      -0.416000       -11.3199
  61   2.0000      -0.413617       -11.2551
  62   2.0000      -0.411678       -11.2023
  63   2.0000      -0.359504        -9.7826
  64   2.0000      -0.332450        -9.0464
  65   2.0000      -0.329092        -8.9550
  66   2.0000      -0.287634        -7.8269
  67   0.0000       0.027329         0.7437
  68   0.0000       0.083199         2.2640
  69   0.0000       0.109961         2.9922
  70   0.0000       0.117467         3.1964
  71   0.0000       0.131272         3.5721

MULLIKEN ATOMIC CHARGES
-----------------------
   0 S :    0.098549
   1 C :   -0.134677
   2 C :   -0.067299
   3 C :   -0.008218
   4 C :   -0.121257
   5 H :    0.001557
   6 C :    0.085025
   7 H :    0.028552
   8 H :    0.035782
   9 C :   -0.098627
  10 H :    0.046152
  11 H :    0.039534
  12 C :   -0.084329
  13 H :    0.035279
  14 H :    0.030376
  15 H :    0.050904
  16 S :    0.118076
  17 C :   -0.064786
  18 C :   -0.064457
  19 C :   -0.060897
  20 C :   -0.103261
  21 H :    0.029404
  22 C :    0.000556
  23 H :    0.028761
  24 H :    0.036577
  25 C :   -0.038956
  26 H :    0.031537
  27 H :    0.019360
  28 C :   -0.054039
  29 H :    0.026830
  30 H :    0.037121
  31 H :    0.035249
  32 H :    0.042465
  33 H :    0.043158
Sum of atomic charges:    0.0000000

LOEWDIN ATOMIC CHARGES
----------------------
   0 S :    0.403924
   1 C :   -0.183417
   2 C :   -0.062701
   3 C :   -0.076383
   4 C :   -0.201209
   5 H :    0.026346
   6 C :   -0.029603
   7 H :    0.037593
   8 H :    0.031785
   9 C :   -0.044480
  10 H :    0.038279
  11 H :    0.019702
  12 C :   -0.075379
  13 H :    0.032592
  14 H :    0.017607
  15 H :    0.030658
  16 S :    0.461828
  17 C :   -0.209068
  18 C :   -0.075099
  19 C :   -0.063531
  20 C :   -0.214151
  21 H :    0.037232
  22 C :   -0.040709
  23 H :    0.033393
  24 H :    0.034464
  25 C :   -0.040716
  26 H :    0.025710
  27 H :    0.020850
  28 C :   -0.068861
  29 H :    0.023315
  30 H :    0.028223
  31 H :    0.029667
  32 H :    0.024589
  33 H :    0.027548

  Mayer bond orders larger than 0.100000
B(  0-S ,  1-C ) :   1.1287 B(  0-S ,  4-C ) :   1.1588 B(  1-C ,  2-C ) :   1.6111
B(  1-C ,  4-C ) :   0.1006 B(  1-C , 32-H ) :   0.9680 B(  2-C ,  3-C ) :   1.2521
B(  2-C ,  6-C ) :   1.0212 B(  3-C ,  4-C ) :   1.5488 B(  3-C ,  5-H ) :   0.9868
B(  4-C , 20-C ) :   1.0501 B(  6-C ,  7-H ) :   0.9394 B(  6-C ,  8-H ) :   0.9389
B(  6-C ,  9-C ) :   1.0411 B(  9-C , 10-H ) :   0.9553 B(  9-C , 11-H ) :   0.9673
B(  9-C , 12-C ) :   1.0604 B( 12-C , 13-H ) :   0.9752 B( 12-C , 14-H ) :   0.9789
B( 12-C , 15-H ) :   0.9773 B( 16-S , 17-C ) :   1.1891 B( 16-S , 20-C ) :   1.1407
B( 17-C , 18-C ) :   1.5874 B( 17-C , 33-H ) :   0.9680 B( 18-C , 19-C ) :   1.2367
B( 18-C , 21-H ) :   0.9925 B( 19-C , 20-C ) :   1.6033 B( 19-C , 22-C ) :   1.0600
B( 22-C , 23-H ) :   0.9352 B( 22-C , 24-H ) :   0.9302 B( 22-C , 25-C ) :   1.0531
B( 25-C , 26-H ) :   0.9474 B( 25-C , 27-H ) :   0.9549 B( 25-C , 28-C ) :   1.0881
B( 28-C , 29-H ) :   0.9720 B( 28-C , 30-H ) :   0.9732 B( 28-C , 31-H ) :   0.9748

Dispersion correction           -0.013637464
FINAL SINGLE POINT ENERGY     -1339.874302530324

DIPOLE MOMENT
-------------
                                X             Y             Z
Electronic contribution:     -3.11254     -31.51826       9.79340
Nuclear contribution   :      3.01072      32.05065     -10.09471
                        -----------------------------------------
Total Dipole Moment    :     -0.10182       0.53239      -0.30131
                        -----------------------------------------
Magnitude (a.u.)       :      0.62015
Magnitude (Debye)      :      1.57631

Rotational constants in cm-1:     0.016999     0.009220     0.006167
Rotational constants in MHz :   509.611131   276.397425   184.892818

                             ****ORCA TERMINATED NORMALLY****
TOTAL RUN TIME: 0 days 0 hours 0 minutes 29 seconds 716 msec
