                         Program Version 4.2.1 -  RELEASE  -
|  1> ! wB97X-D3 SP def2-SVP
|  2> %pal
|  3> nprocs 16
|  4> end
|  5>
|  6> * xyz 0 1
|  7> S 	 7.32513 	 -4.75993 	 92.8585
|  8> C 	 7.8727 	 -3.2021 	 93.4782
|  9> C 	 8.63315 	 -2.57372 	 92.4504
| 10> C 	 8.59997 	 -3.26381 	 91.222
| 11> C 	 7.83125 	 -4.38453 	 91.2719
| 12> H 	 9.09945 	 -2.94274 	 90.3141
| 13> C 	 9.52947 	 -1.34785 	 92.578
| 14> H 	 9.96479 	 -1.32208 	 93.5912
| 15> H 	 8.86861 	 -0.550585 	 92.5659
| 16> C 	 10.5435 	 -0.984189 	 91.4297
| 17> H 	 11.223 	 -0.203789 	 91.8163
| 18> H 	 11.3328 	 -1.71729 	 91.1383
| 19> C 	 10.0704 	 -0.166456 	 90.1849
| 20> H 	 10.9084 	 0.0849552 	 89.5288
| 21> H 	 9.40822 	 -0.680557 	 89.5555
| 22> H 	 9.44088 	 0.73857 	 90.5615
| 23> S 	 8.40323 	 -6.95645 	 90.3961
| 24> C 	 8.01667 	 -7.45781 	 88.7835
| 25> C 	 7.42725 	 -6.4217 	 88.0832
| 26> C 	 7.1596 	 -5.24822 	 88.835
| 27> C 	 7.74425 	 -5.36716 	 90.1556
| 28> H 	 7.02148 	 -6.53072 	 87.0776
| 29> C 	 6.45485 	 -3.99885 	 88.3782
| 30> H 	 6.12073 	 -4.10215 	 87.3137
| 31> H 	 7.12575 	 -3.14774 	 88.3646
| 32> C 	 5.20423 	 -3.68265 	 89.1705
| 33> H 	 5.39622 	 -3.22492 	 90.1494
| 34> H 	 4.68606 	 -4.67686 	 89.2877
| 35> C 	 4.1737 	 -2.71729 	 88.5151
| 36> H 	 3.277 	 -2.72538 	 89.0674
| 37> H 	 3.92234 	 -2.98477 	 87.4451
| 38> H 	 4.61391 	 -1.72245 	 88.4816
| 39> H 	 7.89235 	 -2.8651 	 94.5038
| 40> H 	 8.08268 	 -8.47019 	 88.4709
| 41> *
| 42>
| 43>                          ****END OF INPUT****

CARTESIAN COORDINATES (ANGSTROEM)
---------------------------------
  S      7.325130   -4.759930   92.858500
  C      7.872700   -3.202100   93.478200
  C      8.633150   -2.573720   92.450400
  C      8.599970   -3.263810   91.222000
  C      7.831250   -4.384530   91.271900
  H      9.099450   -2.942740   90.314100
  C      9.529470   -1.347850   92.578000
  H      9.964790   -1.322080   93.591200
  H      8.868610   -0.550585   92.565900
  C     10.543500   -0.984189   91.429700
  H     11.223000   -0.203789   91.816300
  H     11.332800   -1.717290   91.138300
  C     10.070400   -0.166456   90.184900
  H     10.908400    0.084955   89.528800
  H      9.408220   -0.680557   89.555500
  H      9.440880    0.738570   90.561500
  S      8.403230   -6.956450   90.396100
  C      8.016670   -7.457810   88.783500
  C      7.427250   -6.421700   88.083200
  C      7.159600   -5.248220   88.835000
  C      7.744250   -5.367160   90.155600
  H      7.021480   -6.530720   87.077600
  C      6.454850   -3.998850   88.378200
  H      6.120730   -4.102150   87.313700
  H      7.125750   -3.147740   88.364600
  C      5.204230   -3.682650   89.170500
  H      5.396220   -3.224920   90.149400
  H      4.686060   -4.676860   89.287700
  C      4.173700   -2.717290   88.515100
  H      3.277000   -2.725380   89.067400
  H      3.922340   -2.984770   87.445100
  H      4.613910   -1.722450   88.481600
  H      7.892350   -2.865100   94.503800
  H      8.082680   -8.470190   88.470900

 Total Charge           Charge          ....    0
 Multiplicity           Mult            ....    1
 Number of Electrons    NEL             ....  134
 Basis Dimension        Dim             ....  322

ORBITAL ENERGIES
----------------

  NO   OCC          E(Eh)            E(eV)
   0   2.0000     -88.969293     -2420.9775
   1   2.0000     -88.966933     -2420.9133
   2   2.0000     -10.329055      -281.0679
   3   2.0000     -10.325311      -280.9660
   4   2.0000     -10.317137      -280.7436
   5   2.0000     -10.313042      -280.6321
   6   2.0000     -10.305541      -280.4280
   7   2.0000     -10.303972      -280.3853
   8   2.0000     -10.299176      -280.2548
   9   2.0000     -10.296087      -280.1708
  10   2.0000     -10.294094      -280.1165
  11   2.0000     -10.291378      -280.0426
  12   2.0000     -10.288792      -279.9723
  13   2.0000     -10.286878      -279.9202
  14   2.0000     -10.283445      -279.8268
  15   2.0000     -10.275342      -279.6063
  16   2.0000      -8.084049      -219.9782
  17   2.0000      -8.081842      -219.9181
  18   2.0000      -6.042551      -164.4262
  19   2.0000      -6.040192      -164.3620
  20   2.0000      -6.038493      -164.3158
  21   2.0000      -6.036087      -164.2503
  22   2.0000      -6.034881      -164.2175
  23   2.0000      -6.033029      -164.1671
  24   2.0000      -1.007816       -27.4241
  25   2.0000      -0.984427       -26.7876
  26   2.0000      -0.907271       -24.6881
  27   2.0000      -0.906938       -24.6790
  28   2.0000      -0.864378       -23.5209
  29   2.0000      -0.849260       -23.1095
  30   2.0000      -0.846249       -23.0276
  31   2.0000      -0.815255       -22.1842
  32   2.0000      -0.785361       -21.3708
  33   2.0000      -0.770148       -20.9568
  34   2.0000      -0.707245       -19.2451
  35   2.0000      -0.698221       -18.9996
  36   2.0000      -0.683569       -18.6009
  37   2.0000      -0.656724       -17.8704
  38   2.0000      -0.638512       -17.3748
  39   2.0000      -0.624342       -16.9892
  40   2.0000      -0.599425       -16.3112
  41   2.0000      -0.566900       -15.4261
  42   2.0000      -0.563552       -15.3350
  43   2.0000      -0.548496       -14.9253
  44   2.0000      -0.529245       -14.4015
  45   2.0000      -0.524668       -14.2769
  46   2.0000      -0.518268       -14.1028
  47   2.0000      -0.514176       -13.9914
  48   2.0000      -0.503777       -13.7085
  49   2.0000      -0.495380       -13.4800
  50   2.0000      -0.491578       -13.3765
  51   2.0000      -0.486753       -13.2452
  52   2.0000      -0.469162       -12.7666
  53   2.0000      -0.462898       -12.5961
  54   2.0000      -0.454390       -12.3646
  55   2.0000      -0.446149       -12.1403
  56   2.0000      -0.443483       -12.0678
  57   2.0000      -0.439982       -11.9725
  58   2.0000      -0.435175       -11.8417
  59   2.0000      -0.431036       -11.7291
  60   2.0000      -0.415428       -11.3044
  61   2.0000      -0.413181       -11.2432
  62   2.0000      -0.406991       -11.0748
  63   2.0000      -0.341487        -9.2923
  64   2.0000      -0.331566        -9.0224
  65   2.0000      -0.324890        -8.8407
  66   2.0000      -0.292733        -7.9657
  67   0.0000       0.030561         0.8316
  68   0.0000       0.064489         1.7548
  69   0.0000       0.113098         3.0776
  70   0.0000       0.123993         3.3740
  71   0.0000       0.133993         3.6461

MULLIKEN ATOMIC CHARGES
-----------------------
   0 S :    0.122176
   1 C :   -0.128119
   2 C :   -0.101607
   3 C :    0.025608
   4 C :   -0.136874
   5 H :    0.021012
   6 C :    0.127343
   7 H :    0.035176
   8 H :    0.011431
   9 C :   -0.127084
  10 H :    0.031392
  11 H :    0.041857
  12 C :   -0.066973
  13 H :    0.045634
  14 H :    0.014272
  15 H :    0.043996
  16 S :    0.120062
  17 C :   -0.091700
  18 C :   -0.026615
  19 C :   -0.049498
  20 C :   -0.180311
  21 H :    0.019032
  22 C :    0.098056
  23 H :    0.010963
  24 H :    0.027317
  25 C :   -0.121986
  26 H :    0.051154
  27 H :    0.039069
  28 C :   -0.045636
  29 H :    0.034753
  30 H :    0.027007
  31 H :    0.029045
  32 H :    0.047328
  33 H :    0.052720
Sum of atomic charges:    0.0000000

LOEWDIN ATOMIC CHARGES
----------------------
   0 S :    0.429746
   1 C :   -0.212098
   2 C :   -0.053705
   3 C :   -0.066218
   4 C :   -0.210587
   5 H :    0.035336
   6 C :   -0.028682
   7 H :    0.037726
   8 H :    0.027360
   9 C :   -0.058851
  10 H :    0.035593
  11 H :    0.028884
  12 C :   -0.068533
  13 H :    0.032704
  14 H :    0.005959
  15 H :    0.036729
  16 S :    0.429717
  17 C :   -0.195830
  18 C :   -0.072967
  19 C :   -0.056063
  20 C :   -0.203377
  21 H :    0.032287
  22 C :   -0.038350
  23 H :    0.033232
  24 H :    0.028287
  25 C :   -0.044285
  26 H :    0.028530
  27 H :    0.030104
  28 C :   -0.064920
  29 H :    0.021554
  30 H :    0.025051
  31 H :    0.022778
  32 H :    0.028155
  33 H :    0.024738

  Mayer bond orders larger than 0.100000
B(  0-S ,  1-C ) :   1.1405 B(  0-S ,  4-C ) :   1.1781 B(  1-C ,  2-C ) :   1.5700
B(  1-C ,  4-C ) :   0.1023 B(  1-C , 32-H ) :   0.9748 B(  2-C ,  3-C ) :   1.2935
B(  2-C ,  6-C ) :   1.0022 B(  3-C ,  4-C ) :   1.5355 B(  3-C ,  5-H ) :   0.9869
B(  4-C , 20-C ) :   1.0139 B(  6-C ,  7-H ) :   0.9430 B(  6-C ,  8-H ) :   0.9239
B(  6-C ,  9-C ) :   1.0637 B(  9-C , 10-H ) :   0.9504 B(  9-C , 11-H ) :   0.9561
B(  9-C , 12-C ) :   1.0677 B( 12-C , 13-H ) :   0.9721 B( 12-C , 14-H ) :   0.9801
B( 12-C , 15-H ) :   0.9695 B( 16-S , 17-C ) :   1.1722 B( 16-S , 20-C ) :   1.1867
B( 17-C , 18-C ) :   1.5493 B( 17-C , 20-C ) :   0.1111 B( 17-C , 33-H ) :   0.9742
B( 18-C , 19-C ) :   1.3167 B( 18-C , 21-H ) :   0.9816 B( 19-C , 20-C ) :   1.5142
B( 19-C , 22-C ) :   1.0541 B( 22-C , 23-H ) :   0.9300 B( 22-C , 24-H ) :   0.9264
B( 22-C , 25-C ) :   1.0550 B( 25-C , 26-H ) :   0.9494 B( 25-C , 27-H ) :   0.9601
B( 25-C , 28-C ) :   1.0905 B( 28-C , 29-H ) :   0.9761 B( 28-C , 30-H ) :   0.9733
B( 28-C , 31-H ) :   0.9745

Dispersion correction           -0.014611598
FINAL SINGLE POINT ENERGY     -1339.865989227132

DIPOLE MOMENT
-------------
                                X             Y             Z
Electronic contribution:      2.23303     -25.11407      11.22885
Nuclear contribution   :     -2.08372      25.65333     -11.43541
                        -----------------------------------------
Total Dipole Moment    :      0.14931       0.53927      -0.20656
                        -----------------------------------------
Magnitude (a.u.)       :      0.59646
Magnitude (Debye)      :      1.51609

Rotational constants in cm-1:     0.015856     0.009482     0.008093
Rotational constants in MHz :   475.350106   284.277599   242.633647

                             ****ORCA TERMINATED NORMALLY****
TOTAL RUN TIME: 0 days 0 hours 0 minutes 33 seconds 7 msec
