                         Program Version 4.2.1 -  RELEASE  -
|  1> ! wB97X-D3 SP def2-SVP
|  2> %pal
|  3> nprocs 16
|  4> end
|  5>
|  6> * xyz 0 1
|  7> S 	 -111.047 	 54.4447 	 113.031
|  8> C 	 -111.338 	 54.4458 	 111.275
|  9> C 	 -110.344 	 53.6136 	 110.64
| 10> C 	 -109.59 	 52.8944 	 111.615
| 11> C 	 -109.912 	 53.0692 	 112.909
| 12> H 	 -108.809 	 52.1988 	 111.389
| 13> C 	 -110.034 	 53.5055 	 109.156
| 14> H 	 -110.621 	 52.7405 	 108.647
| 15> H 	 -109.007 	 53.2461 	 108.893
| 16> C 	 -110.223 	 54.8006 	 108.355
| 17> H 	 -110.143 	 54.424 	 107.369
| 18> H 	 -111.275 	 55.1576 	 108.262
| 19> C 	 -109.2 	 55.9856 	 108.646
| 20> H 	 -109.692 	 56.4962 	 109.524
| 21> H 	 -108.26 	 55.5285 	 108.97
| 22> H 	 -109.198 	 56.6718 	 107.798
| 23> S 	 -108.486 	 53.064 	 115.214
| 24> C 	 -108.277 	 51.6349 	 116.127
| 25> C 	 -108.857 	 50.5118 	 115.546
| 26> C 	 -109.393 	 50.9053 	 114.28
| 27> C 	 -109.397 	 52.2933 	 114.031
| 28> H 	 -108.766 	 49.5033 	 115.897
| 29> C 	 -110.104 	 49.8539 	 113.378
| 30> H 	 -109.424 	 49.0573 	 113
| 31> H 	 -110.593 	 50.3369 	 112.505
| 32> C 	 -111.27 	 49.2961 	 114.165
| 33> H 	 -110.815 	 48.7503 	 114.963
| 34> H 	 -111.786 	 48.5801 	 113.549
| 35> C 	 -112.235 	 50.4483 	 114.739
| 36> H 	 -112.58 	 51.1904 	 113.958
| 37> H 	 -111.644 	 51.027 	 115.445
| 38> H 	 -113.068 	 50.0586 	 115.204
| 39> H 	 -111.717 	 55.3055 	 110.8
| 40> H 	 -107.683 	 51.5251 	 116.996
| 41> *
| 42>
| 43>                          ****END OF INPUT****

CARTESIAN COORDINATES (ANGSTROEM)
---------------------------------
  S    -111.047000   54.444700  113.031000
  C    -111.338000   54.445800  111.275000
  C    -110.344000   53.613600  110.640000
  C    -109.590000   52.894400  111.615000
  C    -109.912000   53.069200  112.909000
  H    -108.809000   52.198800  111.389000
  C    -110.034000   53.505500  109.156000
  H    -110.621000   52.740500  108.647000
  H    -109.007000   53.246100  108.893000
  C    -110.223000   54.800600  108.355000
  H    -110.143000   54.424000  107.369000
  H    -111.275000   55.157600  108.262000
  C    -109.200000   55.985600  108.646000
  H    -109.692000   56.496200  109.524000
  H    -108.260000   55.528500  108.970000
  H    -109.198000   56.671800  107.798000
  S    -108.486000   53.064000  115.214000
  C    -108.277000   51.634900  116.127000
  C    -108.857000   50.511800  115.546000
  C    -109.393000   50.905300  114.280000
  C    -109.397000   52.293300  114.031000
  H    -108.766000   49.503300  115.897000
  C    -110.104000   49.853900  113.378000
  H    -109.424000   49.057300  113.000000
  H    -110.593000   50.336900  112.505000
  C    -111.270000   49.296100  114.165000
  H    -110.815000   48.750300  114.963000
  H    -111.786000   48.580100  113.549000
  C    -112.235000   50.448300  114.739000
  H    -112.580000   51.190400  113.958000
  H    -111.644000   51.027000  115.445000
  H    -113.068000   50.058600  115.204000
  H    -111.717000   55.305500  110.800000
  H    -107.683000   51.525100  116.996000

 Total Charge           Charge          ....    0
 Multiplicity           Mult            ....    1
 Number of Electrons    NEL             ....  134
 Basis Dimension        Dim             ....  322

ORBITAL ENERGIES
----------------

  NO   OCC          E(Eh)            E(eV)
   0   2.0000     -88.968981     -2420.9690
   1   2.0000     -88.965539     -2420.8754
   2   2.0000     -10.329609      -281.0830
   3   2.0000     -10.322644      -280.8934
   4   2.0000     -10.318995      -280.7941
   5   2.0000     -10.315681      -280.7039
   6   2.0000     -10.310979      -280.5760
   7   2.0000     -10.306379      -280.4508
   8   2.0000     -10.296771      -280.1894
   9   2.0000     -10.296136      -280.1721
  10   2.0000     -10.290082      -280.0074
  11   2.0000     -10.288057      -279.9523
  12   2.0000     -10.287613      -279.9402
  13   2.0000     -10.286276      -279.9038
  14   2.0000     -10.280026      -279.7337
  15   2.0000     -10.269774      -279.4548
  16   2.0000      -8.085501      -220.0177
  17   2.0000      -8.079170      -219.8454
  18   2.0000      -6.043804      -164.4603
  19   2.0000      -6.039558      -164.3447
  20   2.0000      -6.037795      -164.2968
  21   2.0000      -6.036572      -164.2635
  22   2.0000      -6.033871      -164.1900
  23   2.0000      -6.029819      -164.0797
  24   2.0000      -1.013809       -27.5871
  25   2.0000      -0.983458       -26.7612
  26   2.0000      -0.909212       -24.7409
  27   2.0000      -0.906404       -24.6645
  28   2.0000      -0.870041       -23.6750
  29   2.0000      -0.844971       -22.9928
  30   2.0000      -0.836931       -22.7741
  31   2.0000      -0.810787       -22.0626
  32   2.0000      -0.782729       -21.2991
  33   2.0000      -0.773355       -21.0441
  34   2.0000      -0.706206       -19.2169
  35   2.0000      -0.701022       -19.0758
  36   2.0000      -0.691603       -18.8195
  37   2.0000      -0.659816       -17.9545
  38   2.0000      -0.643035       -17.4979
  39   2.0000      -0.615799       -16.7567
  40   2.0000      -0.598438       -16.2843
  41   2.0000      -0.578077       -15.7303
  42   2.0000      -0.557269       -15.1641
  43   2.0000      -0.550690       -14.9850
  44   2.0000      -0.543455       -14.7882
  45   2.0000      -0.528866       -14.3912
  46   2.0000      -0.516149       -14.0451
  47   2.0000      -0.507950       -13.8220
  48   2.0000      -0.498854       -13.5745
  49   2.0000      -0.495656       -13.4875
  50   2.0000      -0.487480       -13.2650
  51   2.0000      -0.479867       -13.0579
  52   2.0000      -0.469599       -12.7784
  53   2.0000      -0.461865       -12.5680
  54   2.0000      -0.456255       -12.4153
  55   2.0000      -0.452463       -12.3121
  56   2.0000      -0.437007       -11.8916
  57   2.0000      -0.436631       -11.8813
  58   2.0000      -0.431979       -11.7548
  59   2.0000      -0.423944       -11.5361
  60   2.0000      -0.413258       -11.2453
  61   2.0000      -0.410893       -11.1810
  62   2.0000      -0.410699       -11.1757
  63   2.0000      -0.346308        -9.4235
  64   2.0000      -0.331880        -9.0309
  65   2.0000      -0.325833        -8.8664
  66   2.0000      -0.296936        -8.0800
  67   0.0000       0.028180         0.7668
  68   0.0000       0.060548         1.6476
  69   0.0000       0.109501         2.9797
  70   0.0000       0.119235         3.2446
  71   0.0000       0.133149         3.6232

MULLIKEN ATOMIC CHARGES
-----------------------
   0 S :    0.093565
   1 C :   -0.086190
   2 C :   -0.100887
   3 C :    0.053121
   4 C :   -0.149205
   5 H :    0.004937
   6 C :    0.053227
   7 H :    0.042970
   8 H :    0.026264
   9 C :   -0.123664
  10 H :    0.005470
  11 H :    0.024448
  12 C :   -0.038338
  13 H :    0.041163
  14 H :    0.040580
  15 H :    0.049934
  16 S :    0.139008
  17 C :   -0.069825
  18 C :   -0.035122
  19 C :   -0.075198
  20 C :   -0.169412
  21 H :    0.024626
  22 C :    0.050200
  23 H :    0.041653
  24 H :    0.032631
  25 C :   -0.078219
  26 H :    0.013795
  27 H :    0.024197
  28 C :   -0.038231
  29 H :    0.041377
  30 H :    0.043861
  31 H :    0.020844
  32 H :    0.053238
  33 H :    0.043181
Sum of atomic charges:   -0.0000000

LOEWDIN ATOMIC CHARGES
----------------------
   0 S :    0.378231
   1 C :   -0.191092
   2 C :   -0.052162
   3 C :   -0.060735
   4 C :   -0.182850
   5 H :    0.030067
   6 C :   -0.034015
   7 H :    0.038295
   8 H :    0.033098
   9 C :   -0.052787
  10 H :    0.015488
  11 H :    0.021803
  12 C :   -0.063527
  13 H :    0.033189
  14 H :    0.027267
  15 H :    0.029358
  16 S :    0.465167
  17 C :   -0.189152
  18 C :   -0.070021
  19 C :   -0.047669
  20 C :   -0.236381
  21 H :    0.032679
  22 C :   -0.037497
  23 H :    0.032747
  24 H :    0.030121
  25 C :   -0.034574
  26 H :    0.012735
  27 H :    0.018045
  28 C :   -0.057790
  29 H :    0.033442
  30 H :    0.027473
  31 H :    0.011686
  32 H :    0.016978
  33 H :    0.022382

  Mayer bond orders larger than 0.100000
B(  0-S ,  1-C ) :   1.1364 B(  0-S ,  4-C ) :   1.1322 B(  1-C ,  2-C ) :   1.5876
B(  1-C ,  4-C ) :   0.1095 B(  1-C , 32-H ) :   0.9615 B(  2-C ,  3-C ) :   1.2446
B(  2-C ,  6-C ) :   1.0146 B(  3-C ,  4-C ) :   1.5885 B(  3-C ,  5-H ) :   1.0024
B(  4-C , 20-C ) :   1.0239 B(  6-C ,  7-H ) :   0.9335 B(  6-C ,  8-H ) :   0.9507
B(  6-C ,  9-C ) :   1.0869 B(  9-C , 10-H ) :   0.9536 B(  9-C , 11-H ) :   0.9510
B(  9-C , 12-C ) :   1.0508 B( 12-C , 13-H ) :   0.9778 B( 12-C , 14-H ) :   0.9765
B( 12-C , 15-H ) :   0.9770 B( 16-S , 17-C ) :   1.1948 B( 16-S , 20-C ) :   1.1739
B( 17-C , 18-C ) :   1.5562 B( 17-C , 20-C ) :   0.1003 B( 17-C , 33-H ) :   0.9711
B( 18-C , 19-C ) :   1.2799 B( 18-C , 21-H ) :   0.9928 B( 19-C , 20-C ) :   1.5553
B( 19-C , 22-C ) :   1.0330 B( 22-C , 23-H ) :   0.9409 B( 22-C , 24-H ) :   0.9415
B( 22-C , 25-C ) :   1.0682 B( 25-C , 26-H ) :   0.9567 B( 25-C , 27-H ) :   0.9599
B( 25-C , 28-C ) :   1.0586 B( 28-C , 29-H ) :   0.9768 B( 28-C , 30-H ) :   0.9709
B( 28-C , 31-H ) :   0.9777

Dispersion correction           -0.015556017
FINAL SINGLE POINT ENERGY     -1339.856777868978

DIPOLE MOMENT
-------------
                                X             Y             Z
Electronic contribution:      5.59191       6.44256      16.82318
Nuclear contribution   :     -5.30193      -6.85907     -17.27228
                        -----------------------------------------
Total Dipole Moment    :      0.28998      -0.41651      -0.44910
                        -----------------------------------------
Magnitude (a.u.)       :      0.67768
Magnitude (Debye)      :      1.72253

Rotational constants in cm-1:     0.024202     0.007788     0.007068
Rotational constants in MHz :   725.564277   233.470407   211.890963

                             ****ORCA TERMINATED NORMALLY****
TOTAL RUN TIME: 0 days 0 hours 0 minutes 34 seconds 603 msec
