                         Program Version 4.2.1 -  RELEASE  -
|  1> ! wB97X-D3 SP def2-SVP
|  2> %pal
|  3> nprocs 16
|  4> end
|  5>
|  6> * xyz 0 1
|  7> S 	 -31.509 	 61.1433 	 108.146
|  8> C 	 -30.7694 	 61.6376 	 109.668
|  9> C 	 -31.5079 	 62.5512 	 110.38
| 10> C 	 -32.8292 	 62.7631 	 109.826
| 11> C 	 -32.9939 	 62.0704 	 108.628
| 12> H 	 -33.6671 	 63.2643 	 110.258
| 13> C 	 -31.1142 	 63.2268 	 111.678
| 14> H 	 -31.852 	 64.0802 	 111.827
| 15> H 	 -30.1614 	 63.826 	 111.54
| 16> C 	 -31.1198 	 62.4235 	 112.937
| 17> H 	 -30.3829 	 61.6132 	 112.945
| 18> H 	 -30.6924 	 63.0243 	 113.75
| 19> C 	 -32.4307 	 61.9603 	 113.452
| 20> H 	 -33.1197 	 62.7543 	 113.394
| 21> H 	 -32.8602 	 61.1719 	 112.836
| 22> H 	 -32.2561 	 61.5631 	 114.438
| 23> S 	 -34.5735 	 60.2953 	 107.39
| 24> C 	 -35.9734 	 60.9051 	 106.481
| 25> C 	 -36.2117 	 62.2317 	 106.654
| 26> C 	 -35.21 	 62.852 	 107.431
| 27> C 	 -34.2377 	 61.9166 	 107.857
| 28> H 	 -37.116 	 62.6683 	 106.195
| 29> C 	 -35.3309 	 64.305 	 107.793
| 30> H 	 -35.1998 	 64.8461 	 106.835
| 31> H 	 -34.4055 	 64.5299 	 108.38
| 32> C 	 -36.6223 	 64.7716 	 108.469
| 33> H 	 -37.4685 	 64.4393 	 107.837
| 34> H 	 -36.5225 	 65.8256 	 108.538
| 35> C 	 -36.7831 	 64.0911 	 109.883
| 36> H 	 -36.8194 	 63.0468 	 109.626
| 37> H 	 -37.707 	 64.4078 	 110.351
| 38> H 	 -36.0392 	 64.3426 	 110.624
| 39> H 	 -29.892 	 61.2753 	 110.143
| 40> H 	 -36.628 	 60.2031 	 105.997
| 41> *
| 42>
| 43>                          ****END OF INPUT****

CARTESIAN COORDINATES (ANGSTROEM)
---------------------------------
  S    -31.509000   61.143300  108.146000
  C    -30.769400   61.637600  109.668000
  C    -31.507900   62.551200  110.380000
  C    -32.829200   62.763100  109.826000
  C    -32.993900   62.070400  108.628000
  H    -33.667100   63.264300  110.258000
  C    -31.114200   63.226800  111.678000
  H    -31.852000   64.080200  111.827000
  H    -30.161400   63.826000  111.540000
  C    -31.119800   62.423500  112.937000
  H    -30.382900   61.613200  112.945000
  H    -30.692400   63.024300  113.750000
  C    -32.430700   61.960300  113.452000
  H    -33.119700   62.754300  113.394000
  H    -32.860200   61.171900  112.836000
  H    -32.256100   61.563100  114.438000
  S    -34.573500   60.295300  107.390000
  C    -35.973400   60.905100  106.481000
  C    -36.211700   62.231700  106.654000
  C    -35.210000   62.852000  107.431000
  C    -34.237700   61.916600  107.857000
  H    -37.116000   62.668300  106.195000
  C    -35.330900   64.305000  107.793000
  H    -35.199800   64.846100  106.835000
  H    -34.405500   64.529900  108.380000
  C    -36.622300   64.771600  108.469000
  H    -37.468500   64.439300  107.837000
  H    -36.522500   65.825600  108.538000
  C    -36.783100   64.091100  109.883000
  H    -36.819400   63.046800  109.626000
  H    -37.707000   64.407800  110.351000
  H    -36.039200   64.342600  110.624000
  H    -29.892000   61.275300  110.143000
  H    -36.628000   60.203100  105.997000

 Total Charge           Charge          ....    0
 Multiplicity           Mult            ....    1
 Number of Electrons    NEL             ....  134
 Basis Dimension        Dim             ....  322

ORBITAL ENERGIES
----------------

  NO   OCC          E(Eh)            E(eV)
   0   2.0000     -88.969676     -2420.9880
   1   2.0000     -88.966117     -2420.8911
   2   2.0000     -10.333614      -281.1919
   3   2.0000     -10.326323      -280.9935
   4   2.0000     -10.314454      -280.6706
   5   2.0000     -10.310030      -280.5502
   6   2.0000     -10.303085      -280.3612
   7   2.0000     -10.300577      -280.2930
   8   2.0000     -10.297798      -280.2173
   9   2.0000     -10.294895      -280.1383
  10   2.0000     -10.294043      -280.1152
  11   2.0000     -10.292004      -280.0597
  12   2.0000     -10.291585      -280.0483
  13   2.0000     -10.281005      -279.7604
  14   2.0000     -10.276856      -279.6475
  15   2.0000     -10.267846      -279.4023
  16   2.0000      -8.082891      -219.9466
  17   2.0000      -8.081168      -219.8998
  18   2.0000      -6.041603      -164.4004
  19   2.0000      -6.039451      -164.3418
  20   2.0000      -6.037731      -164.2950
  21   2.0000      -6.035764      -164.2415
  22   2.0000      -6.033405      -164.1773
  23   2.0000      -6.031998      -164.1390
  24   2.0000      -1.004326       -27.3291
  25   2.0000      -0.978629       -26.6298
  26   2.0000      -0.916936       -24.9511
  27   2.0000      -0.910101       -24.7651
  28   2.0000      -0.870891       -23.6981
  29   2.0000      -0.849793       -23.1240
  30   2.0000      -0.846083       -23.0231
  31   2.0000      -0.814902       -22.1746
  32   2.0000      -0.783328       -21.3154
  33   2.0000      -0.772646       -21.0248
  34   2.0000      -0.709163       -19.2973
  35   2.0000      -0.703095       -19.1322
  36   2.0000      -0.691418       -18.8144
  37   2.0000      -0.659691       -17.9511
  38   2.0000      -0.636166       -17.3109
  39   2.0000      -0.612325       -16.6622
  40   2.0000      -0.596244       -16.2246
  41   2.0000      -0.571754       -15.5582
  42   2.0000      -0.561029       -15.2664
  43   2.0000      -0.555564       -15.1177
  44   2.0000      -0.545154       -14.8344
  45   2.0000      -0.535431       -14.5698
  46   2.0000      -0.517730       -14.0882
  47   2.0000      -0.511063       -13.9067
  48   2.0000      -0.494669       -13.4606
  49   2.0000      -0.493403       -13.4262
  50   2.0000      -0.488971       -13.3056
  51   2.0000      -0.475626       -12.9424
  52   2.0000      -0.470364       -12.7993
  53   2.0000      -0.468586       -12.7509
  54   2.0000      -0.461431       -12.5562
  55   2.0000      -0.454238       -12.3605
  56   2.0000      -0.444320       -12.0906
  57   2.0000      -0.439780       -11.9670
  58   2.0000      -0.433844       -11.8055
  59   2.0000      -0.426436       -11.6039
  60   2.0000      -0.420409       -11.4399
  61   2.0000      -0.417171       -11.3518
  62   2.0000      -0.405704       -11.0398
  63   2.0000      -0.350841        -9.5469
  64   2.0000      -0.332082        -9.0364
  65   2.0000      -0.329494        -8.9660
  66   2.0000      -0.285879        -7.7792
  67   0.0000       0.025021         0.6809
  68   0.0000       0.072050         1.9606
  69   0.0000       0.099402         2.7049
  70   0.0000       0.111355         3.0301
  71   0.0000       0.132180         3.5968

MULLIKEN ATOMIC CHARGES
-----------------------
   0 S :    0.108750
   1 C :   -0.090445
   2 C :   -0.083386
   3 C :    0.038968
   4 C :   -0.145093
   5 H :    0.000939
   6 C :    0.021740
   7 H :    0.021580
   8 H :    0.046250
   9 C :   -0.063948
  10 H :    0.015082
  11 H :    0.017856
  12 C :   -0.002735
  13 H :    0.007890
  14 H :    0.034035
  15 H :    0.032565
  16 S :    0.107401
  17 C :   -0.093312
  18 C :   -0.045936
  19 C :   -0.049483
  20 C :   -0.166863
  21 H :    0.034468
  22 C :    0.047670
  23 H :    0.038094
  24 H :    0.020745
  25 C :   -0.054449
  26 H :    0.037126
  27 H :    0.032593
  28 C :   -0.059718
  29 H :    0.049310
  30 H :    0.029679
  31 H :    0.036829
  32 H :    0.027619
  33 H :    0.048177
Sum of atomic charges:   -0.0000000

LOEWDIN ATOMIC CHARGES
----------------------
   0 S :    0.371394
   1 C :   -0.189222
   2 C :   -0.062939
   3 C :   -0.059862
   4 C :   -0.168687
   5 H :    0.027347
   6 C :   -0.043478
   7 H :    0.034004
   8 H :    0.041175
   9 C :   -0.050989
  10 H :    0.020761
  11 H :    0.027022
  12 C :   -0.055063
  13 H :    0.016036
  14 H :    0.026786
  15 H :    0.029322
  16 S :    0.409037
  17 C :   -0.170090
  18 C :   -0.074399
  19 C :   -0.061191
  20 C :   -0.209851
  21 H :    0.040498
  22 C :   -0.041532
  23 H :    0.037034
  24 H :    0.031712
  25 C :   -0.029594
  26 H :    0.027442
  27 H :    0.021035
  28 C :   -0.063645
  29 H :    0.028985
  30 H :    0.024520
  31 H :    0.021456
  32 H :    0.023762
  33 H :    0.021212

  Mayer bond orders larger than 0.100000
B(  0-S ,  1-C ) :   1.1121 B(  0-S ,  4-C ) :   1.1246 B(  1-C ,  2-C ) :   1.6622
B(  1-C , 32-H ) :   0.9647 B(  2-C ,  3-C ) :   1.2010 B(  2-C ,  6-C ) :   1.0140
B(  3-C ,  4-C ) :   1.6058 B(  3-C ,  5-H ) :   0.9886 B(  4-C , 20-C ) :   1.0421
B(  6-C ,  7-H ) :   0.9422 B(  6-C ,  8-H ) :   0.9364 B(  6-C ,  9-C ) :   1.0881
B(  9-C , 10-H ) :   0.9486 B(  9-C , 11-H ) :   0.9465 B(  9-C , 12-C ) :   1.0862
B( 12-C , 13-H ) :   0.9709 B( 12-C , 14-H ) :   0.9728 B( 12-C , 15-H ) :   0.9699
B( 16-S , 17-C ) :   1.1469 B( 16-S , 20-C ) :   1.1616 B( 17-C , 18-C ) :   1.6211
B( 17-C , 33-H ) :   0.9687 B( 18-C , 19-C ) :   1.2291 B( 18-C , 21-H ) :   0.9870
B( 19-C , 20-C ) :   1.5656 B( 19-C , 22-C ) :   1.0448 B( 22-C , 23-H ) :   0.9252
B( 22-C , 24-H ) :   0.9315 B( 22-C , 25-C ) :   1.0717 B( 25-C , 26-H ) :   0.9536
B( 25-C , 27-H ) :   0.9545 B( 25-C , 28-C ) :   1.0681 B( 28-C , 29-H ) :   0.9773
B( 28-C , 30-H ) :   0.9741 B( 28-C , 31-H ) :   0.9733

Dispersion correction           -0.015003647
FINAL SINGLE POINT ENERGY     -1339.877308281627

DIPOLE MOMENT
-------------
                                X             Y             Z
Electronic contribution:      6.84498     -15.53994     -21.27196
Nuclear contribution   :     -7.18757      15.93475      21.70105
                        -----------------------------------------
Total Dipole Moment    :     -0.34259       0.39481       0.42909
                        -----------------------------------------
Magnitude (a.u.)       :      0.67628
Magnitude (Debye)      :      1.71897

Rotational constants in cm-1:     0.018764     0.009260     0.007167
Rotational constants in MHz :   562.522426   277.602150   214.865495

                             ****ORCA TERMINATED NORMALLY****
TOTAL RUN TIME: 0 days 0 hours 0 minutes 30 seconds 863 msec
