                         Program Version 4.2.1 -  RELEASE  -
|  1> ! wB97X-D3 SP def2-SVP
|  2> %pal
|  3> nprocs 16
|  4> end
|  5>
|  6> * xyz 0 1
|  7> S 	 36.961 	 30.3074 	 54.4363
|  8> C 	 37.5097 	 31.8651 	 54.8739
|  9> C 	 36.7939 	 32.3961 	 55.9635
| 10> C 	 35.9089 	 31.4318 	 56.5391
| 11> C 	 35.9236 	 30.2369 	 55.8444
| 12> H 	 35.2056 	 31.4607 	 57.4043
| 13> C 	 37.0494 	 33.7602 	 56.4875
| 14> H 	 37.4141 	 33.6621 	 57.5437
| 15> H 	 36.0168 	 34.1899 	 56.4328
| 16> C 	 37.881 	 34.7313 	 55.6395
| 17> H 	 38.908 	 34.3486 	 55.4264
| 18> H 	 37.4371 	 34.7933 	 54.6575
| 19> C 	 37.864 	 36.1039 	 56.323
| 20> H 	 36.8804 	 36.5603 	 56.3191
| 21> H 	 38.239 	 36.1814 	 57.3428
| 22> H 	 38.4938 	 36.7762 	 55.8293
| 23> S 	 34.1209 	 28.5907 	 54.7134
| 24> C 	 33.4034 	 27.342 	 55.694
| 25> C 	 33.7319 	 27.4114 	 57.0301
| 26> C 	 34.7531 	 28.3921 	 57.2915
| 27> C 	 35.1051 	 29.0399 	 56.1185
| 28> H 	 33.1826 	 26.7641 	 57.7171
| 29> C 	 35.2633 	 28.7113 	 58.689
| 30> H 	 34.5101 	 29.2952 	 59.1188
| 31> H 	 36.2389 	 29.181 	 58.5058
| 32> C 	 35.4338 	 27.5181 	 59.63
| 33> H 	 36.224 	 26.8296 	 59.2608
| 34> H 	 34.5156 	 26.8254 	 59.6567
| 35> C 	 35.7905 	 27.9097 	 61.0547
| 36> H 	 36.2949 	 27.1546 	 61.7423
| 37> H 	 34.8513 	 28.0515 	 61.5762
| 38> H 	 36.4015 	 28.8121 	 61.1194
| 39> H 	 38.1342 	 32.39 	 54.2726
| 40> H 	 32.7484 	 26.5037 	 55.3029
| 41> *
| 42>
| 43>                          ****END OF INPUT****

CARTESIAN COORDINATES (ANGSTROEM)
---------------------------------
  S     36.961000   30.307400   54.436300
  C     37.509700   31.865100   54.873900
  C     36.793900   32.396100   55.963500
  C     35.908900   31.431800   56.539100
  C     35.923600   30.236900   55.844400
  H     35.205600   31.460700   57.404300
  C     37.049400   33.760200   56.487500
  H     37.414100   33.662100   57.543700
  H     36.016800   34.189900   56.432800
  C     37.881000   34.731300   55.639500
  H     38.908000   34.348600   55.426400
  H     37.437100   34.793300   54.657500
  C     37.864000   36.103900   56.323000
  H     36.880400   36.560300   56.319100
  H     38.239000   36.181400   57.342800
  H     38.493800   36.776200   55.829300
  S     34.120900   28.590700   54.713400
  C     33.403400   27.342000   55.694000
  C     33.731900   27.411400   57.030100
  C     34.753100   28.392100   57.291500
  C     35.105100   29.039900   56.118500
  H     33.182600   26.764100   57.717100
  C     35.263300   28.711300   58.689000
  H     34.510100   29.295200   59.118800
  H     36.238900   29.181000   58.505800
  C     35.433800   27.518100   59.630000
  H     36.224000   26.829600   59.260800
  H     34.515600   26.825400   59.656700
  C     35.790500   27.909700   61.054700
  H     36.294900   27.154600   61.742300
  H     34.851300   28.051500   61.576200
  H     36.401500   28.812100   61.119400
  H     38.134200   32.390000   54.272600
  H     32.748400   26.503700   55.302900

 Total Charge           Charge          ....    0
 Multiplicity           Mult            ....    1
 Number of Electrons    NEL             ....  134
 Basis Dimension        Dim             ....  322

ORBITAL ENERGIES
----------------

  NO   OCC          E(Eh)            E(eV)
   0   2.0000     -88.964657     -2420.8514
   1   2.0000     -88.962861     -2420.8025
   2   2.0000     -10.325724      -280.9772
   3   2.0000     -10.325322      -280.9663
   4   2.0000     -10.317458      -280.7523
   5   2.0000     -10.306037      -280.4415
   6   2.0000     -10.302890      -280.3559
   7   2.0000     -10.301938      -280.3300
   8   2.0000     -10.296579      -280.1842
   9   2.0000     -10.294402      -280.1249
  10   2.0000     -10.293700      -280.1058
  11   2.0000     -10.293388      -280.0973
  12   2.0000     -10.293112      -280.0898
  13   2.0000     -10.292209      -280.0652
  14   2.0000     -10.281616      -279.7770
  15   2.0000     -10.274333      -279.5788
  16   2.0000      -8.079318      -219.8494
  17   2.0000      -8.078395      -219.8243
  18   2.0000      -6.037770      -164.2961
  19   2.0000      -6.036686      -164.2666
  20   2.0000      -6.034056      -164.1950
  21   2.0000      -6.032742      -164.1593
  22   2.0000      -6.029913      -164.0823
  23   2.0000      -6.029404      -164.0684
  24   2.0000      -1.006024       -27.3753
  25   2.0000      -0.983191       -26.7540
  26   2.0000      -0.914683       -24.8898
  27   2.0000      -0.911304       -24.7978
  28   2.0000      -0.865551       -23.5528
  29   2.0000      -0.856003       -23.2930
  30   2.0000      -0.848818       -23.0975
  31   2.0000      -0.814246       -22.1567
  32   2.0000      -0.783032       -21.3074
  33   2.0000      -0.767225       -20.8773
  34   2.0000      -0.715987       -19.4830
  35   2.0000      -0.699262       -19.0279
  36   2.0000      -0.687712       -18.7136
  37   2.0000      -0.655638       -17.8408
  38   2.0000      -0.643301       -17.5051
  39   2.0000      -0.606673       -16.5084
  40   2.0000      -0.591554       -16.0970
  41   2.0000      -0.574725       -15.6391
  42   2.0000      -0.573240       -15.5986
  43   2.0000      -0.565341       -15.3837
  44   2.0000      -0.525585       -14.3019
  45   2.0000      -0.518585       -14.1114
  46   2.0000      -0.517649       -14.0859
  47   2.0000      -0.513097       -13.9621
  48   2.0000      -0.506277       -13.7765
  49   2.0000      -0.497155       -13.5283
  50   2.0000      -0.487509       -13.2658
  51   2.0000      -0.480687       -13.0801
  52   2.0000      -0.476468       -12.9654
  53   2.0000      -0.466412       -12.6917
  54   2.0000      -0.452909       -12.3243
  55   2.0000      -0.451001       -12.2724
  56   2.0000      -0.450198       -12.2505
  57   2.0000      -0.433595       -11.7987
  58   2.0000      -0.430981       -11.7276
  59   2.0000      -0.429426       -11.6853
  60   2.0000      -0.422829       -11.5058
  61   2.0000      -0.416730       -11.3398
  62   2.0000      -0.411390       -11.1945
  63   2.0000      -0.344724        -9.3804
  64   2.0000      -0.330940        -9.0053
  65   2.0000      -0.325475        -8.8566
  66   2.0000      -0.289750        -7.8845
  67   0.0000       0.033449         0.9102
  68   0.0000       0.073801         2.0082
  69   0.0000       0.105247         2.8639
  70   0.0000       0.128537         3.4977
  71   0.0000       0.133421         3.6306

MULLIKEN ATOMIC CHARGES
-----------------------
   0 S :    0.116121
   1 C :   -0.076867
   2 C :   -0.093634
   3 C :    0.020229
   4 C :   -0.181618
   5 H :    0.028736
   6 C :    0.028567
   7 H :    0.054627
   8 H :    0.040012
   9 C :   -0.094118
  10 H :    0.037517
  11 H :    0.028373
  12 C :   -0.005038
  13 H :    0.027756
  14 H :    0.027226
  15 H :    0.010742
  16 S :    0.104479
  17 C :   -0.108306
  18 C :   -0.058848
  19 C :   -0.041128
  20 C :   -0.154497
  21 H :    0.025160
  22 C :    0.119708
  23 H :    0.028708
  24 H :    0.047437
  25 C :   -0.128848
  26 H :    0.036587
  27 H :    0.036719
  28 C :   -0.062385
  29 H :    0.042262
  30 H :    0.027799
  31 H :    0.036135
  32 H :    0.007600
  33 H :    0.072789
Sum of atomic charges:    0.0000000

LOEWDIN ATOMIC CHARGES
----------------------
   0 S :    0.419916
   1 C :   -0.202166
   2 C :   -0.061738
   3 C :   -0.068785
   4 C :   -0.200376
   5 H :    0.042235
   6 C :   -0.041766
   7 H :    0.040029
   8 H :    0.043344
   9 C :   -0.042054
  10 H :    0.024802
  11 H :    0.025215
  12 C :   -0.061032
  13 H :    0.026918
  14 H :    0.027639
  15 H :    0.018480
  16 S :    0.395932
  17 C :   -0.194731
  18 C :   -0.077729
  19 C :   -0.052794
  20 C :   -0.191743
  21 H :    0.033531
  22 C :   -0.025183
  23 H :    0.028063
  24 H :    0.040884
  25 C :   -0.051624
  26 H :    0.026560
  27 H :    0.028292
  28 C :   -0.077088
  29 H :    0.035751
  30 H :    0.023945
  31 H :    0.025251
  32 H :    0.001872
  33 H :    0.040153

  Mayer bond orders larger than 0.100000
B(  0-S ,  1-C ) :   1.1451 B(  0-S ,  4-C ) :   1.1646 B(  1-C ,  2-C ) :   1.5898
B(  1-C , 32-H ) :   0.9736 B(  2-C ,  3-C ) :   1.2342 B(  2-C ,  6-C ) :   1.0127
B(  3-C ,  4-C ) :   1.5744 B(  3-C ,  5-H ) :   0.9915 B(  4-C , 20-C ) :   1.0101
B(  6-C ,  7-H ) :   0.9392 B(  6-C ,  8-H ) :   0.9356 B(  6-C ,  9-C ) :   1.0874
B(  9-C , 10-H ) :   0.9472 B(  9-C , 11-H ) :   0.9500 B(  9-C , 12-C ) :   1.0864
B( 12-C , 13-H ) :   0.9729 B( 12-C , 14-H ) :   0.9739 B( 12-C , 15-H ) :   0.9691
B( 16-S , 17-C ) :   1.1428 B( 16-S , 20-C ) :   1.1396 B( 17-C , 18-C ) :   1.6521
B( 17-C , 33-H ) :   0.9554 B( 18-C , 19-C ) :   1.1981 B( 18-C , 21-H ) :   0.9868
B( 19-C , 20-C ) :   1.6392 B( 19-C , 22-C ) :   1.0327 B( 22-C , 23-H ) :   0.9280
B( 22-C , 24-H ) :   0.9282 B( 22-C , 25-C ) :   1.0666 B( 25-C , 26-H ) :   0.9585
B( 25-C , 27-H ) :   0.9557 B( 25-C , 28-C ) :   1.0699 B( 28-C , 29-H ) :   0.9750
B( 28-C , 30-H ) :   0.9764 B( 28-C , 31-H ) :   0.9743

Dispersion correction           -0.013268615
FINAL SINGLE POINT ENERGY     -1339.872567550849

DIPOLE MOMENT
-------------
                                X             Y             Z
Electronic contribution:     -6.59879     -13.75490     -22.20559
Nuclear contribution   :      6.50424      14.09383      22.76828
                        -----------------------------------------
Total Dipole Moment    :     -0.09455       0.33893       0.56269
                        -----------------------------------------
Magnitude (a.u.)       :      0.66365
Magnitude (Debye)      :      1.68686

Rotational constants in cm-1:     0.019151     0.007376     0.005759
Rotational constants in MHz :   574.125039   221.121179   172.664252

                             ****ORCA TERMINATED NORMALLY****
TOTAL RUN TIME: 0 days 0 hours 0 minutes 33 seconds 200 msec
