                         Program Version 4.2.1 -  RELEASE  -
|  1> ! wB97X-D3 SP def2-SVP
|  2> %pal
|  3> nprocs 16
|  4> end
|  5>
|  6> * xyz 0 1
|  7> S 	 -33.3973 	 71.3897 	 169.661
|  8> C 	 -32.5472 	 72.8069 	 169.088
|  9> C 	 -33.2809 	 73.9868 	 169.145
| 10> C 	 -34.5855 	 73.7123 	 169.722
| 11> C 	 -34.7963 	 72.3544 	 170.044
| 12> H 	 -35.2321 	 74.5563 	 169.886
| 13> C 	 -32.875 	 75.4003 	 168.778
| 14> H 	 -33.6821 	 76.1395 	 168.654
| 15> H 	 -32.3475 	 75.4519 	 167.812
| 16> C 	 -31.8663 	 75.9779 	 169.745
| 17> H 	 -32.225 	 75.8871 	 170.761
| 18> H 	 -31.0298 	 75.3762 	 169.732
| 19> C 	 -31.5056 	 77.4831 	 169.401
| 20> H 	 -30.4558 	 77.7047 	 169.775
| 21> H 	 -31.6458 	 77.7594 	 168.354
| 22> H 	 -32.0828 	 78.2117 	 170.022
| 23> S 	 -36.5977 	 70.2032 	 170.07
| 24> C 	 -37.7244 	 70.0495 	 171.436
| 25> C 	 -37.6497 	 71.1738 	 172.235
| 26> C 	 -36.7793 	 72.1745 	 171.781
| 27> C 	 -36.0118 	 71.7981 	 170.669
| 28> H 	 -38.1963 	 71.2402 	 173.186
| 29> C 	 -36.563 	 73.4455 	 172.597
| 30> H 	 -35.8442 	 74.0624 	 172.051
| 31> H 	 -36.1973 	 73.2135 	 173.624
| 32> C 	 -37.8711 	 74.2814 	 172.804
| 33> H 	 -37.6519 	 75.072 	 173.536
| 34> H 	 -38.7408 	 73.743 	 173.228
| 35> C 	 -38.3104 	 74.9984 	 171.499
| 36> H 	 -38.5553 	 74.3779 	 170.637
| 37> H 	 -37.4076 	 75.5843 	 171.247
| 38> H 	 -39.1563 	 75.6612 	 171.714
| 39> H 	 -31.5 	 72.7643 	 168.801
| 40> H 	 -38.4246 	 69.2895 	 171.683
| 41> *
| 42>
| 43>                          ****END OF INPUT****

CARTESIAN COORDINATES (ANGSTROEM)
---------------------------------
  S    -33.397300   71.389700  169.661000
  C    -32.547200   72.806900  169.088000
  C    -33.280900   73.986800  169.145000
  C    -34.585500   73.712300  169.722000
  C    -34.796300   72.354400  170.044000
  H    -35.232100   74.556300  169.886000
  C    -32.875000   75.400300  168.778000
  H    -33.682100   76.139500  168.654000
  H    -32.347500   75.451900  167.812000
  C    -31.866300   75.977900  169.745000
  H    -32.225000   75.887100  170.761000
  H    -31.029800   75.376200  169.732000
  C    -31.505600   77.483100  169.401000
  H    -30.455800   77.704700  169.775000
  H    -31.645800   77.759400  168.354000
  H    -32.082800   78.211700  170.022000
  S    -36.597700   70.203200  170.070000
  C    -37.724400   70.049500  171.436000
  C    -37.649700   71.173800  172.235000
  C    -36.779300   72.174500  171.781000
  C    -36.011800   71.798100  170.669000
  H    -38.196300   71.240200  173.186000
  C    -36.563000   73.445500  172.597000
  H    -35.844200   74.062400  172.051000
  H    -36.197300   73.213500  173.624000
  C    -37.871100   74.281400  172.804000
  H    -37.651900   75.072000  173.536000
  H    -38.740800   73.743000  173.228000
  C    -38.310400   74.998400  171.499000
  H    -38.555300   74.377900  170.637000
  H    -37.407600   75.584300  171.247000
  H    -39.156300   75.661200  171.714000
  H    -31.500000   72.764300  168.801000
  H    -38.424600   69.289500  171.683000

 Total Charge           Charge          ....    0
 Multiplicity           Mult            ....    1
 Number of Electrons    NEL             ....  134
 Basis Dimension        Dim             ....  322

ORBITAL ENERGIES
----------------

  NO   OCC          E(Eh)            E(eV)
   0   2.0000     -88.973785     -2421.0998
   1   2.0000     -88.966966     -2420.9142
   2   2.0000     -10.337229      -281.2903
   3   2.0000     -10.334667      -281.2206
   4   2.0000     -10.318014      -280.7674
   5   2.0000     -10.317409      -280.7510
   6   2.0000     -10.306617      -280.4573
   7   2.0000     -10.303127      -280.3623
   8   2.0000     -10.298823      -280.2452
   9   2.0000     -10.296528      -280.1828
  10   2.0000     -10.296203      -280.1739
  11   2.0000     -10.292113      -280.0626
  12   2.0000     -10.291656      -280.0502
  13   2.0000     -10.290738      -280.0252
  14   2.0000     -10.282246      -279.7941
  15   2.0000     -10.278091      -279.6811
  16   2.0000      -8.088270      -220.0930
  17   2.0000      -8.080244      -219.8746
  18   2.0000      -6.046859      -164.5434
  19   2.0000      -6.042786      -164.4326
  20   2.0000      -6.038986      -164.3292
  21   2.0000      -6.038896      -164.3267
  22   2.0000      -6.034909      -164.2182
  23   2.0000      -6.030980      -164.1113
  24   2.0000      -1.001587       -27.2546
  25   2.0000      -0.980160       -26.6715
  26   2.0000      -0.915388       -24.9090
  27   2.0000      -0.902707       -24.5639
  28   2.0000      -0.864983       -23.5374
  29   2.0000      -0.849188       -23.1076
  30   2.0000      -0.842506       -22.9258
  31   2.0000      -0.808799       -22.0086
  32   2.0000      -0.780039       -21.2259
  33   2.0000      -0.770306       -20.9611
  34   2.0000      -0.708566       -19.2811
  35   2.0000      -0.703647       -19.1472
  36   2.0000      -0.694224       -18.8908
  37   2.0000      -0.657902       -17.9024
  38   2.0000      -0.640329       -17.4242
  39   2.0000      -0.624924       -17.0050
  40   2.0000      -0.593776       -16.1575
  41   2.0000      -0.571202       -15.5432
  42   2.0000      -0.560099       -15.2411
  43   2.0000      -0.549068       -14.9409
  44   2.0000      -0.537455       -14.6249
  45   2.0000      -0.523475       -14.2445
  46   2.0000      -0.521412       -14.1883
  47   2.0000      -0.509539       -13.8653
  48   2.0000      -0.497427       -13.5357
  49   2.0000      -0.496819       -13.5191
  50   2.0000      -0.491876       -13.3846
  51   2.0000      -0.474629       -12.9153
  52   2.0000      -0.469436       -12.7740
  53   2.0000      -0.460292       -12.5252
  54   2.0000      -0.455034       -12.3821
  55   2.0000      -0.451520       -12.2865
  56   2.0000      -0.445259       -12.1161
  57   2.0000      -0.443030       -12.0554
  58   2.0000      -0.433753       -11.8030
  59   2.0000      -0.430543       -11.7157
  60   2.0000      -0.423627       -11.5275
  61   2.0000      -0.415543       -11.3075
  62   2.0000      -0.411551       -11.1989
  63   2.0000      -0.349236        -9.5032
  64   2.0000      -0.333853        -9.0846
  65   2.0000      -0.331791        -9.0285
  66   2.0000      -0.286372        -7.7926
  67   0.0000       0.023718         0.6454
  68   0.0000       0.068048         1.8517
  69   0.0000       0.108564         2.9542
  70   0.0000       0.121717         3.3121
  71   0.0000       0.125625         3.4184

MULLIKEN ATOMIC CHARGES
-----------------------
   0 S :    0.135214
   1 C :   -0.140184
   2 C :   -0.068101
   3 C :    0.026107
   4 C :   -0.135315
   5 H :    0.003320
   6 C :    0.043242
   7 H :    0.029181
   8 H :    0.029894
   9 C :   -0.041968
  10 H :    0.023076
  11 H :    0.007300
  12 C :   -0.082552
  13 H :    0.041350
  14 H :    0.041369
  15 H :    0.037641
  16 S :    0.090070
  17 C :   -0.070164
  18 C :   -0.054870
  19 C :   -0.016098
  20 C :   -0.157238
  21 H :    0.028929
  22 C :    0.068226
  23 H :    0.010454
  24 H :    0.045636
  25 C :   -0.103358
  26 H :    0.030934
  27 H :    0.035494
  28 C :   -0.069786
  29 H :    0.051921
  30 H :    0.024896
  31 H :    0.039081
  32 H :    0.050109
  33 H :    0.046189
Sum of atomic charges:   -0.0000000

LOEWDIN ATOMIC CHARGES
----------------------
   0 S :    0.423965
   1 C :   -0.200471
   2 C :   -0.056464
   3 C :   -0.059778
   4 C :   -0.199331
   5 H :    0.025720
   6 C :   -0.036112
   7 H :    0.030876
   8 H :    0.034173
   9 C :   -0.032971
  10 H :    0.023142
  11 H :    0.010482
  12 C :   -0.075511
  13 H :    0.034905
  14 H :    0.024087
  15 H :    0.029621
  16 S :    0.372484
  17 C :   -0.174418
  18 C :   -0.072203
  19 C :   -0.059536
  20 C :   -0.180439
  21 H :    0.035733
  22 C :   -0.027365
  23 H :    0.026330
  24 H :    0.037447
  25 C :   -0.043343
  26 H :    0.025492
  27 H :    0.021173
  28 C :   -0.069461
  29 H :    0.027010
  30 H :    0.023157
  31 H :    0.027046
  32 H :    0.026500
  33 H :    0.028062

  Mayer bond orders larger than 0.100000
B(  0-S ,  1-C ) :   1.1437 B(  0-S ,  4-C ) :   1.1612 B(  1-C ,  2-C ) :   1.5987
B(  1-C , 32-H ) :   0.9646 B(  2-C ,  3-C ) :   1.2735 B(  2-C ,  6-C ) :   1.0250
B(  3-C ,  4-C ) :   1.5292 B(  3-C ,  5-H ) :   0.9905 B(  4-C , 20-C ) :   1.0542
B(  6-C ,  7-H ) :   0.9505 B(  6-C ,  8-H ) :   0.9342 B(  6-C ,  9-C ) :   1.0611
B(  9-C , 10-H ) :   0.9563 B(  9-C , 11-H ) :   0.9614 B(  9-C , 12-C ) :   1.0596
B( 12-C , 13-H ) :   0.9762 B( 12-C , 14-H ) :   0.9776 B( 12-C , 15-H ) :   0.9780
B( 16-S , 17-C ) :   1.1358 B( 16-S , 20-C ) :   1.1293 B( 17-C , 18-C ) :   1.6168
B( 17-C , 20-C ) :   0.1025 B( 17-C , 33-H ) :   0.9693 B( 18-C , 19-C ) :   1.2597
B( 18-C , 21-H ) :   0.9813 B( 19-C , 20-C ) :   1.5706 B( 19-C , 22-C ) :   1.0408
B( 22-C , 23-H ) :   0.9370 B( 22-C , 24-H ) :   0.9377 B( 22-C , 25-C ) :   1.0653
B( 25-C , 26-H ) :   0.9571 B( 25-C , 27-H ) :   0.9588 B( 25-C , 28-C ) :   1.0640
B( 28-C , 29-H ) :   0.9792 B( 28-C , 30-H ) :   0.9745 B( 28-C , 31-H ) :   0.9743

Dispersion correction           -0.014089881
FINAL SINGLE POINT ENERGY     -1339.882594777461

DIPOLE MOMENT
-------------
                                X             Y             Z
Electronic contribution:     -1.51529     -30.74920      -5.77043
Nuclear contribution   :      1.57273      31.39040       6.16580
                        -----------------------------------------
Total Dipole Moment    :      0.05744       0.64120       0.39537
                        -----------------------------------------
Magnitude (a.u.)       :      0.75548
Magnitude (Debye)      :      1.92028

Rotational constants in cm-1:     0.019333     0.008386     0.006230
Rotational constants in MHz :   579.581659   251.406609   186.759352

                             ****ORCA TERMINATED NORMALLY****
TOTAL RUN TIME: 0 days 0 hours 0 minutes 34 seconds 30 msec
