                         Program Version 4.2.1 -  RELEASE  -
|  1> ! wB97X-D3 SP def2-SVP
|  2> %pal
|  3> nprocs 16
|  4> end
|  5>
|  6> * xyz 0 1
|  7> S 	 -69.3173 	 36.2025 	 136.355
|  8> C 	 -68.4545 	 36.7787 	 134.998
|  9> C 	 -67.0939 	 36.5956 	 135.133
| 10> C 	 -66.8495 	 35.7614 	 136.283
| 11> C 	 -67.9697 	 35.4515 	 137.017
| 12> H 	 -65.8481 	 35.3441 	 136.488
| 13> C 	 -66.0738 	 36.9665 	 134.102
| 14> H 	 -66.4901 	 37.0541 	 133.168
| 15> H 	 -65.2952 	 36.157 	 133.959
| 16> C 	 -65.2933 	 38.261 	 134.417
| 17> H 	 -64.7196 	 38.6453 	 133.606
| 18> H 	 -65.9506 	 39.0908 	 134.514
| 19> C 	 -64.2702 	 38.0661 	 135.508
| 20> H 	 -64.7407 	 37.9729 	 136.487
| 21> H 	 -63.719 	 37.3326 	 135.174
| 22> H 	 -63.5893 	 38.9399 	 135.501
| 23> S 	 -67.0204 	 35.0478 	 139.543
| 24> C 	 -67.31 	 33.5176 	 140.413
| 25> C 	 -68.3085 	 32.7755 	 139.736
| 26> C 	 -68.7154 	 33.3637 	 138.472
| 27> C 	 -68.0796 	 34.5869 	 138.191
| 28> H 	 -68.6193 	 31.8069 	 140.102
| 29> C 	 -69.7415 	 32.6833 	 137.588
| 30> H 	 -70.436 	 33.3799 	 137.239
| 31> H 	 -70.453 	 31.9905 	 138.149
| 32> C 	 -69.0278 	 32.019 	 136.397
| 33> H 	 -68.5416 	 32.8133 	 135.869
| 34> H 	 -69.8735 	 31.6709 	 135.75
| 35> C 	 -68.1691 	 30.781 	 136.763
| 36> H 	 -67.3148 	 30.8896 	 137.382
| 37> H 	 -67.9515 	 30.3385 	 135.849
| 38> H 	 -68.8056 	 30.0674 	 137.187
| 39> H 	 -68.9092 	 37.2569 	 134.15
| 40> H 	 -66.929 	 33.2586 	 141.373
| 41> *
| 42>
| 43>                          ****END OF INPUT****

CARTESIAN COORDINATES (ANGSTROEM)
---------------------------------
  S    -69.317300   36.202500  136.355000
  C    -68.454500   36.778700  134.998000
  C    -67.093900   36.595600  135.133000
  C    -66.849500   35.761400  136.283000
  C    -67.969700   35.451500  137.017000
  H    -65.848100   35.344100  136.488000
  C    -66.073800   36.966500  134.102000
  H    -66.490100   37.054100  133.168000
  H    -65.295200   36.157000  133.959000
  C    -65.293300   38.261000  134.417000
  H    -64.719600   38.645300  133.606000
  H    -65.950600   39.090800  134.514000
  C    -64.270200   38.066100  135.508000
  H    -64.740700   37.972900  136.487000
  H    -63.719000   37.332600  135.174000
  H    -63.589300   38.939900  135.501000
  S    -67.020400   35.047800  139.543000
  C    -67.310000   33.517600  140.413000
  C    -68.308500   32.775500  139.736000
  C    -68.715400   33.363700  138.472000
  C    -68.079600   34.586900  138.191000
  H    -68.619300   31.806900  140.102000
  C    -69.741500   32.683300  137.588000
  H    -70.436000   33.379900  137.239000
  H    -70.453000   31.990500  138.149000
  C    -69.027800   32.019000  136.397000
  H    -68.541600   32.813300  135.869000
  H    -69.873500   31.670900  135.750000
  C    -68.169100   30.781000  136.763000
  H    -67.314800   30.889600  137.382000
  H    -67.951500   30.338500  135.849000
  H    -68.805600   30.067400  137.187000
  H    -68.909200   37.256900  134.150000
  H    -66.929000   33.258600  141.373000

 Total Charge           Charge          ....    0
 Multiplicity           Mult            ....    1
 Number of Electrons    NEL             ....  134
 Basis Dimension        Dim             ....  322

ORBITAL ENERGIES
----------------

  NO   OCC          E(Eh)            E(eV)
   0   2.0000     -88.965658     -2420.8786
   1   2.0000     -88.964683     -2420.8521
   2   2.0000     -10.330367      -281.1036
   3   2.0000     -10.324905      -280.9550
   4   2.0000     -10.322221      -280.8819
   5   2.0000     -10.309874      -280.5459
   6   2.0000     -10.308524      -280.5092
   7   2.0000     -10.300707      -280.2965
   8   2.0000     -10.299521      -280.2642
   9   2.0000     -10.295176      -280.1460
  10   2.0000     -10.289495      -279.9914
  11   2.0000     -10.286873      -279.9200
  12   2.0000     -10.284354      -279.8515
  13   2.0000     -10.274959      -279.5959
  14   2.0000     -10.263236      -279.2769
  15   2.0000     -10.262446      -279.2554
  16   2.0000      -8.082401      -219.9333
  17   2.0000      -8.078151      -219.8177
  18   2.0000      -6.040677      -164.3752
  19   2.0000      -6.036753      -164.2684
  20   2.0000      -6.036521      -164.2621
  21   2.0000      -6.033391      -164.1769
  22   2.0000      -6.032703      -164.1582
  23   2.0000      -6.029017      -164.0579
  24   2.0000      -1.014567       -27.6078
  25   2.0000      -0.978107       -26.6156
  26   2.0000      -0.918542       -24.9948
  27   2.0000      -0.904973       -24.6256
  28   2.0000      -0.871058       -23.7027
  29   2.0000      -0.851691       -23.1757
  30   2.0000      -0.841045       -22.8860
  31   2.0000      -0.814067       -22.1519
  32   2.0000      -0.789355       -21.4794
  33   2.0000      -0.776221       -21.1220
  34   2.0000      -0.708124       -19.2690
  35   2.0000      -0.703847       -19.1527
  36   2.0000      -0.686438       -18.6789
  37   2.0000      -0.664972       -18.0948
  38   2.0000      -0.643723       -17.5166
  39   2.0000      -0.619299       -16.8520
  40   2.0000      -0.594310       -16.1720
  41   2.0000      -0.576239       -15.6802
  42   2.0000      -0.554920       -15.1001
  43   2.0000      -0.552203       -15.0262
  44   2.0000      -0.548936       -14.9373
  45   2.0000      -0.542972       -14.7750
  46   2.0000      -0.517226       -14.0744
  47   2.0000      -0.509229       -13.8568
  48   2.0000      -0.504689       -13.7333
  49   2.0000      -0.498012       -13.5516
  50   2.0000      -0.490373       -13.3437
  51   2.0000      -0.480353       -13.0711
  52   2.0000      -0.473046       -12.8722
  53   2.0000      -0.466559       -12.6957
  54   2.0000      -0.462254       -12.5786
  55   2.0000      -0.442332       -12.0365
  56   2.0000      -0.436034       -11.8651
  57   2.0000      -0.434924       -11.8349
  58   2.0000      -0.431088       -11.7305
  59   2.0000      -0.424548       -11.5525
  60   2.0000      -0.420539       -11.4434
  61   2.0000      -0.416578       -11.3357
  62   2.0000      -0.413520       -11.2524
  63   2.0000      -0.338103        -9.2003
  64   2.0000      -0.332349        -9.0437
  65   2.0000      -0.326683        -8.8895
  66   2.0000      -0.297448        -8.0940
  67   0.0000       0.030301         0.8245
  68   0.0000       0.072143         1.9631
  69   0.0000       0.107868         2.9352
  70   0.0000       0.118628         3.2280
  71   0.0000       0.132430         3.6036

MULLIKEN ATOMIC CHARGES
-----------------------
   0 S :    0.134749
   1 C :   -0.127020
   2 C :   -0.069056
   3 C :    0.023359
   4 C :   -0.167529
   5 H :    0.020790
   6 C :    0.069231
   7 H :   -0.003607
   8 H :    0.031340
   9 C :   -0.065969
  10 H :    0.006712
  11 H :    0.009785
  12 C :    0.013655
  13 H :    0.051600
  14 H :   -0.013733
  15 H :    0.023650
  16 S :    0.101421
  17 C :   -0.089584
  18 C :   -0.034958
  19 C :   -0.024075
  20 C :   -0.157890
  21 H :    0.020355
  22 C :    0.064510
  23 H :    0.006615
  24 H :    0.026067
  25 C :   -0.091100
  26 H :    0.038721
  27 H :    0.027249
  28 C :    0.026041
  29 H :    0.042323
  30 H :    0.011279
  31 H :    0.000891
  32 H :    0.041285
  33 H :    0.052892
Sum of atomic charges:    0.0000000

LOEWDIN ATOMIC CHARGES
----------------------
   0 S :    0.457892
   1 C :   -0.204529
   2 C :   -0.061555
   3 C :   -0.064843
   4 C :   -0.231997
   5 H :    0.034161
   6 C :   -0.025864
   7 H :    0.018482
   8 H :    0.036417
   9 C :   -0.037428
  10 H :    0.020337
  11 H :    0.016365
  12 C :   -0.048186
  13 H :    0.029786
  14 H :    0.000725
  15 H :    0.031676
  16 S :    0.391323
  17 C :   -0.174910
  18 C :   -0.067775
  19 C :   -0.048070
  20 C :   -0.195385
  21 H :    0.029485
  22 C :   -0.038310
  23 H :    0.017158
  24 H :    0.034411
  25 C :   -0.029482
  26 H :    0.021642
  27 H :    0.028363
  28 C :   -0.054222
  29 H :    0.023474
  30 H :    0.021851
  31 H :    0.019694
  32 H :    0.024886
  33 H :    0.024426

  Mayer bond orders larger than 0.100000
B(  0-S ,  1-C ) :   1.1650 B(  0-S ,  4-C ) :   1.1791 B(  1-C ,  2-C ) :   1.5878
B(  1-C , 32-H ) :   0.9709 B(  2-C ,  3-C ) :   1.2584 B(  2-C ,  6-C ) :   1.0255
B(  3-C ,  4-C ) :   1.5558 B(  3-C ,  5-H ) :   0.9935 B(  4-C , 20-C ) :   1.0047
B(  6-C ,  7-H ) :   0.9349 B(  6-C ,  8-H ) :   0.9496 B(  6-C ,  9-C ) :   1.0751
B(  9-C , 10-H ) :   0.9528 B(  9-C , 11-H ) :   0.9519 B(  9-C , 12-C ) :   1.0781
B( 12-C , 13-H ) :   0.9762 B( 12-C , 14-H ) :   0.9693 B( 12-C , 15-H ) :   0.9706
B( 16-S , 17-C ) :   1.1556 B( 16-S , 20-C ) :   1.1412 B( 17-C , 18-C ) :   1.5906
B( 17-C , 20-C ) :   0.1056 B( 17-C , 33-H ) :   0.9718 B( 18-C , 19-C ) :   1.2487
B( 18-C , 21-H ) :   0.9876 B( 19-C , 20-C ) :   1.5806 B( 19-C , 22-C ) :   1.0359
B( 22-C , 23-H ) :   0.9317 B( 22-C , 24-H ) :   0.9409 B( 22-C , 25-C ) :   1.0727
B( 25-C , 26-H ) :   0.9595 B( 25-C , 27-H ) :   0.9537 B( 25-C , 28-C ) :   1.0695
B( 28-C , 29-H ) :   0.9770 B( 28-C , 30-H ) :   0.9693 B( 28-C , 31-H ) :   0.9675

Dispersion correction           -0.015204953
FINAL SINGLE POINT ENERGY     -1339.858650730586

DIPOLE MOMENT
-------------
                                X             Y             Z
Electronic contribution:     -9.03651       5.74654      13.52439
Nuclear contribution   :      9.13997      -6.01369     -13.96950
                        -----------------------------------------
Total Dipole Moment    :      0.10346      -0.26715      -0.44511
                        -----------------------------------------
Magnitude (a.u.)       :      0.52933
Magnitude (Debye)      :      1.34546

Rotational constants in cm-1:     0.020851     0.008480     0.007414
Rotational constants in MHz :   625.103528   254.227775   222.266726

                             ****ORCA TERMINATED NORMALLY****
TOTAL RUN TIME: 0 days 0 hours 0 minutes 35 seconds 903 msec
