                         Program Version 4.2.1 -  RELEASE  -
|  1> ! wB97X-D3 SP def2-SVP
|  2> %pal
|  3> nprocs 16
|  4> end
|  5>
|  6> * xyz 0 1
|  7> S 	 5.12796 	 -26.1435 	 78.1211
|  8> C 	 3.81266 	 -27.0494 	 78.8606
|  9> C 	 4.23261 	 -27.9035 	 79.8982
| 10> C 	 5.66913 	 -27.9293 	 79.9211
| 11> C 	 6.28778 	 -27.0523 	 79.0527
| 12> H 	 6.25567 	 -28.6481 	 80.4657
| 13> C 	 3.36615 	 -28.8008 	 80.7421
| 14> H 	 3.51432 	 -29.8363 	 80.4084
| 15> H 	 2.32113 	 -28.8303 	 80.3466
| 16> C 	 3.26921 	 -28.5902 	 82.2623
| 17> H 	 2.46329 	 -29.3084 	 82.6363
| 18> H 	 4.20517 	 -28.9161 	 82.7923
| 19> C 	 2.98274 	 -27.0706 	 82.5246
| 20> H 	 2.61043 	 -26.8232 	 83.5636
| 21> H 	 3.88065 	 -26.4276 	 82.3931
| 22> H 	 2.1651 	 -26.6012 	 81.9411
| 23> S 	 8.15613 	 -25.0681 	 79.5477
| 24> C 	 9.9446 	 -25.4092 	 79.5079
| 25> C 	 10.098 	 -26.7771 	 79.311
| 26> C 	 8.89319 	 -27.5413 	 79.1103
| 27> C 	 7.74193 	 -26.706 	 79.0203
| 28> H 	 11.0428 	 -27.1967 	 79.4249
| 29> C 	 8.93583 	 -29.0237 	 79.1761
| 30> H 	 9.74111 	 -29.4887 	 78.53
| 31> H 	 8.13891 	 -29.4704 	 78.5374
| 32> C 	 8.93352 	 -29.6818 	 80.571
| 33> H 	 8.57339 	 -28.9491 	 81.3244
| 34> H 	 9.97451 	 -30.0017 	 80.7098
| 35> C 	 8.13068 	 -30.996 	 80.4931
| 36> H 	 8.53234 	 -31.5254 	 79.5627
| 37> H 	 7.06883 	 -30.6875 	 80.4326
| 38> H 	 8.2522 	 -31.7037 	 81.3683
| 39> H 	 2.7784 	 -26.8148 	 78.546
| 40> H 	 10.7391 	 -24.6493 	 79.7159
| 41> *
| 42>
| 43>                          ****END OF INPUT****

CARTESIAN COORDINATES (ANGSTROEM)
---------------------------------
  S      5.127960  -26.143500   78.121100
  C      3.812660  -27.049400   78.860600
  C      4.232610  -27.903500   79.898200
  C      5.669130  -27.929300   79.921100
  C      6.287780  -27.052300   79.052700
  H      6.255670  -28.648100   80.465700
  C      3.366150  -28.800800   80.742100
  H      3.514320  -29.836300   80.408400
  H      2.321130  -28.830300   80.346600
  C      3.269210  -28.590200   82.262300
  H      2.463290  -29.308400   82.636300
  H      4.205170  -28.916100   82.792300
  C      2.982740  -27.070600   82.524600
  H      2.610430  -26.823200   83.563600
  H      3.880650  -26.427600   82.393100
  H      2.165100  -26.601200   81.941100
  S      8.156130  -25.068100   79.547700
  C      9.944600  -25.409200   79.507900
  C     10.098000  -26.777100   79.311000
  C      8.893190  -27.541300   79.110300
  C      7.741930  -26.706000   79.020300
  H     11.042800  -27.196700   79.424900
  C      8.935830  -29.023700   79.176100
  H      9.741110  -29.488700   78.530000
  H      8.138910  -29.470400   78.537400
  C      8.933520  -29.681800   80.571000
  H      8.573390  -28.949100   81.324400
  H      9.974510  -30.001700   80.709800
  C      8.130680  -30.996000   80.493100
  H      8.532340  -31.525400   79.562700
  H      7.068830  -30.687500   80.432600
  H      8.252200  -31.703700   81.368300
  H      2.778400  -26.814800   78.546000
  H     10.739100  -24.649300   79.715900

 Total Charge           Charge          ....    0
 Multiplicity           Mult            ....    1
 Number of Electrons    NEL             ....  134
 Basis Dimension        Dim             ....  322

ORBITAL ENERGIES
----------------

  NO   OCC          E(Eh)            E(eV)
   0   2.0000     -88.968257     -2420.9493
   1   2.0000     -88.964333     -2420.8426
   2   2.0000     -10.335508      -281.2435
   3   2.0000     -10.331686      -281.1395
   4   2.0000     -10.327858      -281.0353
   5   2.0000     -10.321866      -280.8723
   6   2.0000     -10.309070      -280.5241
   7   2.0000     -10.307702      -280.4868
   8   2.0000     -10.305441      -280.4253
   9   2.0000     -10.297693      -280.2145
  10   2.0000     -10.295894      -280.1655
  11   2.0000     -10.294664      -280.1320
  12   2.0000     -10.294042      -280.1151
  13   2.0000     -10.293177      -280.0916
  14   2.0000     -10.292967      -280.0859
  15   2.0000     -10.286228      -279.9025
  16   2.0000      -8.082989      -219.9493
  17   2.0000      -8.077633      -219.8036
  18   2.0000      -6.041454      -164.3963
  19   2.0000      -6.037459      -164.2876
  20   2.0000      -6.036325      -164.2568
  21   2.0000      -6.033851      -164.1894
  22   2.0000      -6.032382      -164.1495
  23   2.0000      -6.028214      -164.0360
  24   2.0000      -1.000217       -27.2173
  25   2.0000      -0.975329       -26.5401
  26   2.0000      -0.910559       -24.7776
  27   2.0000      -0.907236       -24.6871
  28   2.0000      -0.861529       -23.4434
  29   2.0000      -0.846689       -23.0396
  30   2.0000      -0.842997       -22.9391
  31   2.0000      -0.810856       -22.0645
  32   2.0000      -0.779490       -21.2110
  33   2.0000      -0.763848       -20.7854
  34   2.0000      -0.705684       -19.2026
  35   2.0000      -0.696262       -18.9462
  36   2.0000      -0.688316       -18.7300
  37   2.0000      -0.659840       -17.9552
  38   2.0000      -0.643061       -17.4986
  39   2.0000      -0.622589       -16.9415
  40   2.0000      -0.600744       -16.3471
  41   2.0000      -0.568426       -15.4677
  42   2.0000      -0.563045       -15.3212
  43   2.0000      -0.546250       -14.8642
  44   2.0000      -0.536605       -14.6018
  45   2.0000      -0.519963       -14.1489
  46   2.0000      -0.515087       -14.0162
  47   2.0000      -0.509852       -13.8738
  48   2.0000      -0.500671       -13.6240
  49   2.0000      -0.490197       -13.3389
  50   2.0000      -0.481597       -13.1049
  51   2.0000      -0.479776       -13.0554
  52   2.0000      -0.469186       -12.7672
  53   2.0000      -0.458980       -12.4895
  54   2.0000      -0.454096       -12.3566
  55   2.0000      -0.448017       -12.1912
  56   2.0000      -0.444441       -12.0939
  57   2.0000      -0.433489       -11.7958
  58   2.0000      -0.431772       -11.7491
  59   2.0000      -0.426326       -11.6009
  60   2.0000      -0.422312       -11.4917
  61   2.0000      -0.411466       -11.1966
  62   2.0000      -0.402103       -10.9418
  63   2.0000      -0.345746        -9.4082
  64   2.0000      -0.331136        -9.0107
  65   2.0000      -0.323775        -8.8104
  66   2.0000      -0.293981        -7.9996
  67   0.0000       0.027201         0.7402
  68   0.0000       0.061945         1.6856
  69   0.0000       0.106828         2.9069
  70   0.0000       0.112101         3.0504
  71   0.0000       0.119114         3.2413

MULLIKEN ATOMIC CHARGES
-----------------------
   0 S :    0.113341
   1 C :   -0.137932
   2 C :   -0.060332
   3 C :    0.053935
   4 C :   -0.159631
   5 H :   -0.024767
   6 C :    0.023700
   7 H :    0.031877
   8 H :    0.015058
   9 C :   -0.059543
  10 H :    0.047036
  11 H :    0.044579
  12 C :   -0.091777
  13 H :    0.034100
  14 H :    0.056852
  15 H :    0.032950
  16 S :    0.081239
  17 C :   -0.121137
  18 C :    0.009552
  19 C :   -0.037710
  20 C :   -0.108824
  21 H :   -0.002510
  22 C :   -0.025267
  23 H :    0.031236
  24 H :    0.029230
  25 C :   -0.047658
  26 H :    0.058889
  27 H :    0.033427
  28 C :   -0.107233
  29 H :    0.048983
  30 H :    0.043221
  31 H :    0.049633
  32 H :    0.061871
  33 H :    0.083613
Sum of atomic charges:   -0.0000000

LOEWDIN ATOMIC CHARGES
----------------------
   0 S :    0.409575
   1 C :   -0.190522
   2 C :   -0.060817
   3 C :   -0.055533
   4 C :   -0.200985
   5 H :    0.025371
   6 C :   -0.053183
   7 H :    0.035660
   8 H :    0.036517
   9 C :   -0.043561
  10 H :    0.035849
  11 H :    0.028175
  12 C :   -0.081525
  13 H :    0.029224
  14 H :    0.034864
  15 H :    0.027386
  16 S :    0.372292
  17 C :   -0.174406
  18 C :   -0.060129
  19 C :   -0.060723
  20 C :   -0.188868
  21 H :    0.020730
  22 C :   -0.056872
  23 H :    0.037966
  24 H :    0.033505
  25 C :   -0.044653
  26 H :    0.028482
  27 H :    0.028200
  28 C :   -0.073030
  29 H :    0.035052
  30 H :    0.023337
  31 H :    0.029703
  32 H :    0.029767
  33 H :    0.043152

  Mayer bond orders larger than 0.100000
B(  0-S ,  1-C ) :   1.1550 B(  0-S ,  4-C ) :   1.1543 B(  1-C ,  2-C ) :   1.5896
B(  1-C , 32-H ) :   0.9631 B(  2-C ,  3-C ) :   1.2443 B(  2-C ,  6-C ) :   1.0257
B(  3-C ,  4-C ) :   1.5773 B(  3-C ,  5-H ) :   0.9931 B(  4-C , 20-C ) :   1.0049
B(  6-C ,  7-H ) :   0.9365 B(  6-C ,  8-H ) :   0.9365 B(  6-C ,  9-C ) :   1.0612
B(  9-C , 10-H ) :   0.9567 B(  9-C , 11-H ) :   0.9583 B(  9-C , 12-C ) :   1.0552
B( 12-C , 13-H ) :   0.9762 B( 12-C , 14-H ) :   0.9711 B( 12-C , 15-H ) :   0.9787
B( 16-S , 17-C ) :   1.1341 B( 16-S , 20-C ) :   1.1512 B( 17-C , 18-C ) :   1.5971
B( 17-C , 20-C ) :   0.1036 B( 17-C , 33-H ) :   0.9645 B( 18-C , 19-C ) :   1.2446
B( 18-C , 21-H ) :   0.9993 B( 19-C , 20-C ) :   1.5708 B( 19-C , 22-C ) :   1.0742
B( 22-C , 23-H ) :   0.9268 B( 22-C , 24-H ) :   0.9403 B( 22-C , 25-C ) :   1.0168
B( 25-C , 26-H ) :   0.9626 B( 25-C , 27-H ) :   0.9520 B( 25-C , 28-C ) :   1.0729
B( 28-C , 29-H ) :   0.9699 B( 28-C , 30-H ) :   0.9763 B( 28-C , 31-H ) :   0.9720

Dispersion correction           -0.015197945
FINAL SINGLE POINT ENERGY     -1339.860949312168

DIPOLE MOMENT
-------------
                                X             Y             Z
Electronic contribution:      5.80509      21.35494     -15.35103
Nuclear contribution   :     -5.79625     -21.98069      15.77969
                        -----------------------------------------
Total Dipole Moment    :      0.00884      -0.62575       0.42867
                        -----------------------------------------
Magnitude (a.u.)       :      0.75855
Magnitude (Debye)      :      1.92809

Rotational constants in cm-1:     0.017355     0.009652     0.007510
Rotational constants in MHz :   520.295257   289.359155   225.153538

                             ****ORCA TERMINATED NORMALLY****
TOTAL RUN TIME: 0 days 0 hours 0 minutes 34 seconds 828 msec
