                         Program Version 4.2.1 -  RELEASE  -
|  1> ! wB97X-D3 SP def2-SVP
|  2> %pal
|  3> nprocs 16
|  4> end
|  5>
|  6> * xyz 0 1
|  7> S 	 -1.28128 	 75.1312 	 54.1209
|  8> C 	 -0.913672 	 73.4852 	 54.404
|  9> C 	 -1.98215 	 72.642 	 54.1276
| 10> C 	 -3.10963 	 73.3858 	 53.6111
| 11> C 	 -2.89879 	 74.7625 	 53.6978
| 12> H 	 -4.02765 	 72.9246 	 53.3319
| 13> C 	 -1.95889 	 71.1604 	 54.2106
| 14> H 	 -0.92668 	 70.9081 	 54.0993
| 15> H 	 -2.58845 	 70.6725 	 53.4494
| 16> C 	 -2.48291 	 70.7404 	 55.6088
| 17> H 	 -2.13304 	 71.475 	 56.2895
| 18> H 	 -3.57709 	 70.787 	 55.6597
| 19> C 	 -1.95191 	 69.4015 	 56.0359
| 20> H 	 -2.46667 	 68.6594 	 55.4188
| 21> H 	 -0.900394 	 69.2746 	 56.1193
| 22> H 	 -2.27115 	 69.121 	 57.0298
| 23> S 	 -4.45129 	 76.9981 	 54.5476
| 24> C 	 -5.39402 	 77.7884 	 53.3289
| 25> C 	 -5.4261 	 77.1917 	 52.1112
| 26> C 	 -4.50793 	 76.0299 	 52.1125
| 27> C 	 -3.91171 	 75.7902 	 53.3143
| 28> H 	 -6.10739 	 77.5621 	 51.3635
| 29> C 	 -4.26225 	 75.2628 	 50.8205
| 30> H 	 -5.16385 	 74.7743 	 50.433
| 31> H 	 -3.60908 	 74.4127 	 51.0824
| 32> C 	 -3.53563 	 76.0082 	 49.7027
| 33> H 	 -4.20551 	 76.8487 	 49.4118
| 34> H 	 -3.32714 	 75.3106 	 48.8858
| 35> C 	 -2.21001 	 76.711 	 50.1186
| 36> H 	 -2.36991 	 77.4603 	 50.9241
| 37> H 	 -1.78103 	 77.1999 	 49.2588
| 38> H 	 -1.4057 	 76.0111 	 50.2751
| 39> H 	 0.0396495 	 73.1231 	 54.7147
| 40> H 	 -5.82899 	 78.7837 	 53.4733
| 41> *
| 42>
| 43>                          ****END OF INPUT****

CARTESIAN COORDINATES (ANGSTROEM)
---------------------------------
  S     -1.281280   75.131200   54.120900
  C     -0.913672   73.485200   54.404000
  C     -1.982150   72.642000   54.127600
  C     -3.109630   73.385800   53.611100
  C     -2.898790   74.762500   53.697800
  H     -4.027650   72.924600   53.331900
  C     -1.958890   71.160400   54.210600
  H     -0.926680   70.908100   54.099300
  H     -2.588450   70.672500   53.449400
  C     -2.482910   70.740400   55.608800
  H     -2.133040   71.475000   56.289500
  H     -3.577090   70.787000   55.659700
  C     -1.951910   69.401500   56.035900
  H     -2.466670   68.659400   55.418800
  H     -0.900394   69.274600   56.119300
  H     -2.271150   69.121000   57.029800
  S     -4.451290   76.998100   54.547600
  C     -5.394020   77.788400   53.328900
  C     -5.426100   77.191700   52.111200
  C     -4.507930   76.029900   52.112500
  C     -3.911710   75.790200   53.314300
  H     -6.107390   77.562100   51.363500
  C     -4.262250   75.262800   50.820500
  H     -5.163850   74.774300   50.433000
  H     -3.609080   74.412700   51.082400
  C     -3.535630   76.008200   49.702700
  H     -4.205510   76.848700   49.411800
  H     -3.327140   75.310600   48.885800
  C     -2.210010   76.711000   50.118600
  H     -2.369910   77.460300   50.924100
  H     -1.781030   77.199900   49.258800
  H     -1.405700   76.011100   50.275100
  H      0.039649   73.123100   54.714700
  H     -5.828990   78.783700   53.473300

 Total Charge           Charge          ....    0
 Multiplicity           Mult            ....    1
 Number of Electrons    NEL             ....  134
 Basis Dimension        Dim             ....  322

ORBITAL ENERGIES
----------------

  NO   OCC          E(Eh)            E(eV)
   0   2.0000     -88.967941     -2420.9408
   1   2.0000     -88.961946     -2420.7776
   2   2.0000     -10.328396      -281.0499
   3   2.0000     -10.328258      -281.0462
   4   2.0000     -10.314538      -280.6728
   5   2.0000     -10.308317      -280.5036
   6   2.0000     -10.306030      -280.4413
   7   2.0000     -10.297861      -280.2190
   8   2.0000     -10.293498      -280.1003
   9   2.0000     -10.292662      -280.0776
  10   2.0000     -10.288323      -279.9595
  11   2.0000     -10.286812      -279.9184
  12   2.0000     -10.286711      -279.9156
  13   2.0000     -10.280949      -279.7588
  14   2.0000     -10.271647      -279.5057
  15   2.0000     -10.270188      -279.4660
  16   2.0000      -8.083721      -219.9692
  17   2.0000      -8.076575      -219.7748
  18   2.0000      -6.042075      -164.4132
  19   2.0000      -6.038008      -164.3025
  20   2.0000      -6.035146      -164.2247
  21   2.0000      -6.034669      -164.2117
  22   2.0000      -6.031293      -164.1198
  23   2.0000      -6.027083      -164.0053
  24   2.0000      -1.006135       -27.3783
  25   2.0000      -0.983495       -26.7623
  26   2.0000      -0.917758       -24.9735
  27   2.0000      -0.902480       -24.5577
  28   2.0000      -0.866452       -23.5774
  29   2.0000      -0.853275       -23.2188
  30   2.0000      -0.839274       -22.8378
  31   2.0000      -0.815017       -22.1777
  32   2.0000      -0.783529       -21.3209
  33   2.0000      -0.772399       -21.0180
  34   2.0000      -0.704461       -19.1694
  35   2.0000      -0.697645       -18.9839
  36   2.0000      -0.685033       -18.6407
  37   2.0000      -0.654307       -17.8046
  38   2.0000      -0.643901       -17.5214
  39   2.0000      -0.618752       -16.8371
  40   2.0000      -0.594160       -16.1679
  41   2.0000      -0.580552       -15.7976
  42   2.0000      -0.562090       -15.2952
  43   2.0000      -0.546988       -14.8843
  44   2.0000      -0.541901       -14.7459
  45   2.0000      -0.523859       -14.2549
  46   2.0000      -0.519245       -14.1294
  47   2.0000      -0.508074       -13.8254
  48   2.0000      -0.503135       -13.6910
  49   2.0000      -0.497234       -13.5304
  50   2.0000      -0.486314       -13.2333
  51   2.0000      -0.479218       -13.0402
  52   2.0000      -0.471069       -12.8184
  53   2.0000      -0.462909       -12.5964
  54   2.0000      -0.459494       -12.5035
  55   2.0000      -0.446610       -12.1529
  56   2.0000      -0.442963       -12.0536
  57   2.0000      -0.437222       -11.8974
  58   2.0000      -0.432272       -11.7627
  59   2.0000      -0.424674       -11.5560
  60   2.0000      -0.419040       -11.4027
  61   2.0000      -0.416210       -11.3257
  62   2.0000      -0.402424       -10.9505
  63   2.0000      -0.338171        -9.2021
  64   2.0000      -0.330712        -8.9991
  65   2.0000      -0.325184        -8.8487
  66   2.0000      -0.301691        -8.2094
  67   0.0000       0.040005         1.0886
  68   0.0000       0.070468         1.9175
  69   0.0000       0.114659         3.1200
  70   0.0000       0.117621         3.2006
  71   0.0000       0.132398         3.6027

MULLIKEN ATOMIC CHARGES
-----------------------
   0 S :    0.141086
   1 C :   -0.111414
   2 C :   -0.123813
   3 C :    0.054923
   4 C :   -0.163886
   5 H :    0.002831
   6 C :    0.097618
   7 H :    0.010858
   8 H :    0.032130
   9 C :   -0.074807
  10 H :    0.020814
  11 H :    0.031856
  12 C :   -0.017251
  13 H :    0.023531
  14 H :    0.028803
  15 H :    0.015263
  16 S :    0.096579
  17 C :   -0.092112
  18 C :   -0.032161
  19 C :   -0.044185
  20 C :   -0.166403
  21 H :    0.025793
  22 C :    0.081503
  23 H :    0.033470
  24 H :    0.015260
  25 C :   -0.093990
  26 H :    0.030239
  27 H :    0.037006
  28 C :   -0.050981
  29 H :    0.057430
  30 H :    0.018012
  31 H :    0.022809
  32 H :    0.030867
  33 H :    0.062321
Sum of atomic charges:    0.0000000

LOEWDIN ATOMIC CHARGES
----------------------
   0 S :    0.448093
   1 C :   -0.213305
   2 C :   -0.058624
   3 C :   -0.054006
   4 C :   -0.209801
   5 H :    0.026216
   6 C :   -0.026579
   7 H :    0.026914
   8 H :    0.033350
   9 C :   -0.035934
  10 H :    0.018205
  11 H :    0.027449
  12 C :   -0.065526
  13 H :    0.026860
  14 H :    0.021167
  15 H :    0.024659
  16 S :    0.374063
  17 C :   -0.181299
  18 C :   -0.076884
  19 C :   -0.047723
  20 C :   -0.184310
  21 H :    0.034539
  22 C :   -0.040806
  23 H :    0.032283
  24 H :    0.029228
  25 C :   -0.039821
  26 H :    0.022933
  27 H :    0.027332
  28 C :   -0.070677
  29 H :    0.032998
  30 H :    0.024184
  31 H :    0.022048
  32 H :    0.020688
  33 H :    0.032088

  Mayer bond orders larger than 0.100000
B(  0-S ,  1-C ) :   1.1502 B(  0-S ,  4-C ) :   1.1867 B(  1-C ,  2-C ) :   1.5860
B(  1-C , 32-H ) :   0.9701 B(  2-C ,  3-C ) :   1.2628 B(  2-C ,  6-C ) :   1.0381
B(  3-C ,  4-C ) :   1.5409 B(  3-C ,  5-H ) :   0.9996 B(  4-C , 20-C ) :   1.0097
B(  6-C ,  7-H ) :   0.9394 B(  6-C ,  8-H ) :   0.9392 B(  6-C ,  9-C ) :   1.0496
B(  9-C , 10-H ) :   0.9599 B(  9-C , 11-H ) :   0.9524 B(  9-C , 12-C ) :   1.0956
B( 12-C , 13-H ) :   0.9698 B( 12-C , 14-H ) :   0.9761 B( 12-C , 15-H ) :   0.9684
B( 16-S , 17-C ) :   1.1457 B( 16-S , 20-C ) :   1.1034 B( 17-C , 18-C ) :   1.6743
B( 17-C , 33-H ) :   0.9561 B( 18-C , 19-C ) :   1.1604 B( 18-C , 21-H ) :   0.9929
B( 19-C , 20-C ) :   1.6820 B( 19-C , 22-C ) :   1.0441 B( 22-C , 23-H ) :   0.9359
B( 22-C , 24-H ) :   0.9270 B( 22-C , 25-C ) :   1.0723 B( 25-C , 26-H ) :   0.9570
B( 25-C , 27-H ) :   0.9556 B( 25-C , 28-C ) :   1.0840 B( 28-C , 29-H ) :   0.9719
B( 28-C , 30-H ) :   0.9702 B( 28-C , 31-H ) :   0.9728

Dispersion correction           -0.014845352
FINAL SINGLE POINT ENERGY     -1339.885959150718

DIPOLE MOMENT
-------------
                                X             Y             Z
Electronic contribution:     -2.69370      17.92692       8.89150
Nuclear contribution   :      2.64588     -18.36017      -9.21866
                        -----------------------------------------
Total Dipole Moment    :     -0.04782      -0.43325      -0.32716
                        -----------------------------------------
Magnitude (a.u.)       :      0.54500
Magnitude (Debye)      :      1.38527

Rotational constants in cm-1:     0.022487     0.007495     0.006862
Rotational constants in MHz :   674.135910   224.686892   205.730315

                             ****ORCA TERMINATED NORMALLY****
TOTAL RUN TIME: 0 days 0 hours 0 minutes 33 seconds 744 msec
