                         Program Version 4.2.1 -  RELEASE  -
|  1> ! wB97X-D3 SP def2-SVP
|  2> %pal
|  3> nprocs 16
|  4> end
|  5>
|  6> * xyz 0 1
|  7> S 	 -67.8824 	 42.2747 	 119.96
|  8> C 	 -69.2336 	 42.8618 	 119.124
|  9> C 	 -70.4725 	 42.758 	 119.821
| 10> C 	 -70.2726 	 42.238 	 121.142
| 11> C 	 -68.8977 	 41.9624 	 121.41
| 12> H 	 -70.9686 	 42.3401 	 121.951
| 13> C 	 -71.7877 	 43.2877 	 119.262
| 14> H 	 -72.589 	 42.606 	 119.638
| 15> H 	 -71.7009 	 43.3196 	 118.181
| 16> C 	 -72.1501 	 44.6857 	 119.797
| 17> H 	 -72.2737 	 44.8167 	 120.887
| 18> H 	 -71.313 	 45.3895 	 119.576
| 19> C 	 -73.4273 	 45.1504 	 119.139
| 20> H 	 -73.6789 	 46.18 	 119.482
| 21> H 	 -73.4659 	 45.1359 	 118.111
| 22> H 	 -74.31 	 44.5628 	 119.419
| 23> S 	 -66.8375 	 40.5578 	 122.716
| 24> C 	 -66.626 	 40.801 	 124.353
| 25> C 	 -67.6365 	 41.5178 	 125.004
| 26> C 	 -68.5569 	 42.0179 	 124.097
| 27> C 	 -68.295 	 41.5532 	 122.786
| 28> H 	 -67.4974 	 41.6968 	 126.082
| 29> C 	 -69.6252 	 42.9845 	 124.613
| 30> H 	 -69.6925 	 43.8742 	 123.942
| 31> H 	 -69.3019 	 43.4855 	 125.498
| 32> C 	 -70.9408 	 42.362 	 124.968
| 33> H 	 -70.9604 	 41.9758 	 126.009
| 34> H 	 -71.1344 	 41.3626 	 124.548
| 35> C 	 -72.0939 	 43.3204 	 124.642
| 36> H 	 -72.0853 	 43.6249 	 123.586
| 37> H 	 -72.2516 	 44.0663 	 125.475
| 38> H 	 -73.0035 	 42.6609 	 124.571
| 39> H 	 -69.1275 	 43.4034 	 118.189
| 40> H 	 -65.792 	 40.2713 	 124.885
| 41> *
| 42>
| 43>                          ****END OF INPUT****

CARTESIAN COORDINATES (ANGSTROEM)
---------------------------------
  S    -67.882400   42.274700  119.960000
  C    -69.233600   42.861800  119.124000
  C    -70.472500   42.758000  119.821000
  C    -70.272600   42.238000  121.142000
  C    -68.897700   41.962400  121.410000
  H    -70.968600   42.340100  121.951000
  C    -71.787700   43.287700  119.262000
  H    -72.589000   42.606000  119.638000
  H    -71.700900   43.319600  118.181000
  C    -72.150100   44.685700  119.797000
  H    -72.273700   44.816700  120.887000
  H    -71.313000   45.389500  119.576000
  C    -73.427300   45.150400  119.139000
  H    -73.678900   46.180000  119.482000
  H    -73.465900   45.135900  118.111000
  H    -74.310000   44.562800  119.419000
  S    -66.837500   40.557800  122.716000
  C    -66.626000   40.801000  124.353000
  C    -67.636500   41.517800  125.004000
  C    -68.556900   42.017900  124.097000
  C    -68.295000   41.553200  122.786000
  H    -67.497400   41.696800  126.082000
  C    -69.625200   42.984500  124.613000
  H    -69.692500   43.874200  123.942000
  H    -69.301900   43.485500  125.498000
  C    -70.940800   42.362000  124.968000
  H    -70.960400   41.975800  126.009000
  H    -71.134400   41.362600  124.548000
  C    -72.093900   43.320400  124.642000
  H    -72.085300   43.624900  123.586000
  H    -72.251600   44.066300  125.475000
  H    -73.003500   42.660900  124.571000
  H    -69.127500   43.403400  118.189000
  H    -65.792000   40.271300  124.885000

 Total Charge           Charge          ....    0
 Multiplicity           Mult            ....    1
 Number of Electrons    NEL             ....  134
 Basis Dimension        Dim             ....  322

ORBITAL ENERGIES
----------------

  NO   OCC          E(Eh)            E(eV)
   0   2.0000     -88.970588     -2421.0128
   1   2.0000     -88.969636     -2420.9869
   2   2.0000     -10.340940      -281.3913
   3   2.0000     -10.334553      -281.2175
   4   2.0000     -10.313342      -280.6403
   5   2.0000     -10.311208      -280.5822
   6   2.0000     -10.305411      -280.4245
   7   2.0000     -10.303838      -280.3817
   8   2.0000     -10.297309      -280.2040
   9   2.0000     -10.297275      -280.2031
  10   2.0000     -10.291161      -280.0367
  11   2.0000     -10.290576      -280.0208
  12   2.0000     -10.289913      -280.0028
  13   2.0000     -10.289550      -279.9929
  14   2.0000     -10.286770      -279.9173
  15   2.0000     -10.272996      -279.5424
  16   2.0000      -8.085588      -220.0200
  17   2.0000      -8.085107      -220.0070
  18   2.0000      -6.043631      -164.4556
  19   2.0000      -6.043550      -164.4533
  20   2.0000      -6.039961      -164.3557
  21   2.0000      -6.039593      -164.3457
  22   2.0000      -6.036755      -164.2685
  23   2.0000      -6.036025      -164.2486
  24   2.0000      -1.004063       -27.3220
  25   2.0000      -0.982490       -26.7349
  26   2.0000      -0.915217       -24.9043
  27   2.0000      -0.911292       -24.7975
  28   2.0000      -0.859656       -23.3924
  29   2.0000      -0.852709       -23.2034
  30   2.0000      -0.851096       -23.1595
  31   2.0000      -0.807428       -21.9712
  32   2.0000      -0.783609       -21.3231
  33   2.0000      -0.764482       -20.8026
  34   2.0000      -0.704262       -19.1640
  35   2.0000      -0.700341       -19.0572
  36   2.0000      -0.682909       -18.5829
  37   2.0000      -0.659370       -17.9424
  38   2.0000      -0.636660       -17.3244
  39   2.0000      -0.621590       -16.9143
  40   2.0000      -0.600136       -16.3305
  41   2.0000      -0.568620       -15.4729
  42   2.0000      -0.562532       -15.3073
  43   2.0000      -0.554367       -15.0851
  44   2.0000      -0.527595       -14.3566
  45   2.0000      -0.521428       -14.1888
  46   2.0000      -0.516464       -14.0537
  47   2.0000      -0.506206       -13.7746
  48   2.0000      -0.499459       -13.5910
  49   2.0000      -0.495628       -13.4867
  50   2.0000      -0.485343       -13.2068
  51   2.0000      -0.482783       -13.1372
  52   2.0000      -0.473904       -12.8956
  53   2.0000      -0.467623       -12.7247
  54   2.0000      -0.464760       -12.6468
  55   2.0000      -0.452389       -12.3101
  56   2.0000      -0.444695       -12.1008
  57   2.0000      -0.443891       -12.0789
  58   2.0000      -0.434701       -11.8288
  59   2.0000      -0.423514       -11.5244
  60   2.0000      -0.417532       -11.3616
  61   2.0000      -0.414148       -11.2695
  62   2.0000      -0.401339       -10.9210
  63   2.0000      -0.347476        -9.4553
  64   2.0000      -0.339250        -9.2315
  65   2.0000      -0.328728        -8.9452
  66   2.0000      -0.277995        -7.5646
  67   0.0000       0.027633         0.7519
  68   0.0000       0.070410         1.9159
  69   0.0000       0.107388         2.9222
  70   0.0000       0.118269         3.2183
  71   0.0000       0.123079         3.3491

MULLIKEN ATOMIC CHARGES
-----------------------
   0 S :    0.122515
   1 C :   -0.126550
   2 C :   -0.098963
   3 C :    0.049235
   4 C :   -0.138808
   5 H :   -0.009927
   6 C :    0.062565
   7 H :    0.038050
   8 H :    0.029076
   9 C :   -0.095568
  10 H :    0.036277
  11 H :    0.030274
  12 C :   -0.018481
  13 H :    0.030703
  14 H :    0.010505
  15 H :    0.020277
  16 S :    0.125163
  17 C :   -0.124056
  18 C :   -0.048871
  19 C :   -0.024662
  20 C :   -0.166695
  21 H :    0.030771
  22 C :    0.070570
  23 H :    0.041282
  24 H :    0.011063
  25 C :   -0.085306
  26 H :    0.023705
  27 H :    0.032237
  28 C :   -0.076048
  29 H :    0.041854
  30 H :    0.062035
  31 H :    0.024671
  32 H :    0.051384
  33 H :    0.069724
Sum of atomic charges:   -0.0000000

LOEWDIN ATOMIC CHARGES
----------------------
   0 S :    0.415117
   1 C :   -0.224836
   2 C :   -0.060956
   3 C :   -0.065575
   4 C :   -0.178706
   5 H :    0.026603
   6 C :   -0.030314
   7 H :    0.038003
   8 H :    0.032151
   9 C :   -0.046006
  10 H :    0.026823
  11 H :    0.026824
  12 C :   -0.064984
  13 H :    0.030678
  14 H :    0.011090
  15 H :    0.025934
  16 S :    0.441674
  17 C :   -0.217647
  18 C :   -0.081754
  19 C :   -0.052025
  20 C :   -0.198307
  21 H :    0.039055
  22 C :   -0.035549
  23 H :    0.037253
  24 H :    0.029624
  25 C :   -0.057513
  26 H :    0.029439
  27 H :    0.026043
  28 C :   -0.075493
  29 H :    0.025430
  30 H :    0.036765
  31 H :    0.031461
  32 H :    0.026326
  33 H :    0.033372

  Mayer bond orders larger than 0.100000
B(  0-S ,  1-C ) :   1.1622 B(  0-S ,  4-C ) :   1.1646 B(  1-C ,  2-C ) :   1.5765
B(  1-C , 32-H ) :   0.9632 B(  2-C ,  3-C ) :   1.2694 B(  2-C ,  6-C ) :   1.0351
B(  3-C ,  4-C ) :   1.5541 B(  3-C ,  5-H ) :   0.9912 B(  4-C , 20-C ) :   1.0183
B(  6-C ,  7-H ) :   0.9379 B(  6-C ,  8-H ) :   0.9420 B(  6-C ,  9-C ) :   1.0611
B(  9-C , 10-H ) :   0.9542 B(  9-C , 11-H ) :   0.9528 B(  9-C , 12-C ) :   1.0856
B( 12-C , 13-H ) :   0.9712 B( 12-C , 14-H ) :   0.9743 B( 12-C , 15-H ) :   0.9704
B( 16-S , 17-C ) :   1.2064 B( 16-S , 20-C ) :   1.1633 B( 17-C , 18-C ) :   1.5616
B( 17-C , 20-C ) :   0.1006 B( 17-C , 33-H ) :   0.9571 B( 18-C , 19-C ) :   1.2909
B( 18-C , 21-H ) :   0.9899 B( 19-C , 20-C ) :   1.5492 B( 19-C , 22-C ) :   1.0356
B( 22-C , 23-H ) :   0.9496 B( 22-C , 24-H ) :   0.9293 B( 22-C , 25-C ) :   1.0326
B( 25-C , 26-H ) :   0.9458 B( 25-C , 27-H ) :   0.9645 B( 25-C , 28-C ) :   1.0783
B( 28-C , 29-H ) :   0.9729 B( 28-C , 30-H ) :   0.9734 B( 28-C , 31-H ) :   0.9717

Dispersion correction           -0.014491340
FINAL SINGLE POINT ENERGY     -1339.857293280905

DIPOLE MOMENT
-------------
                                X             Y             Z
Electronic contribution:     29.51269     -16.03303      -4.32522
Nuclear contribution   :    -29.92315      16.44292       4.65692
                        -----------------------------------------
Total Dipole Moment    :     -0.41047       0.40989       0.33170
                        -----------------------------------------
Magnitude (a.u.)       :      0.66822
Magnitude (Debye)      :      1.69848

Rotational constants in cm-1:     0.018629     0.009104     0.006358
Rotational constants in MHz :   558.469497   272.945769   190.617529

                             ****ORCA TERMINATED NORMALLY****
TOTAL RUN TIME: 0 days 0 hours 0 minutes 34 seconds 175 msec
