                         Program Version 4.2.1 -  RELEASE  -
|  1> ! wB97X-D3 SP def2-SVP
|  2> %pal
|  3> nprocs 16
|  4> end
|  5>
|  6> * xyz 0 1
|  7> S 	 11.7747 	 25.3007 	 45.7433
|  8> C 	 12.1126 	 25.3546 	 47.4763
|  9> C 	 10.9455 	 25.4415 	 48.2162
| 10> C 	 9.75247 	 25.3665 	 47.3589
| 11> C 	 10.121 	 25.4482 	 46.0042
| 12> H 	 8.75008 	 25.2817 	 47.7135
| 13> C 	 10.9047 	 25.2305 	 49.6515
| 14> H 	 9.93248 	 24.8757 	 49.9078
| 15> H 	 10.8681 	 26.3104 	 49.9724
| 16> C 	 11.9487 	 24.3091 	 50.3229
| 17> H 	 11.6707 	 23.2783 	 50.1142
| 18> H 	 12.9873 	 24.4214 	 50.0072
| 19> C 	 11.7862 	 24.4214 	 51.884
| 20> H 	 10.7 	 24.4117 	 52.122
| 21> H 	 12.1839 	 23.5473 	 52.3923
| 22> H 	 12.2445 	 25.282 	 52.3791
| 23> S 	 9.69038 	 26.5498 	 43.4109
| 24> C 	 8.21537 	 26.1538 	 42.5721
| 25> C 	 7.43454 	 25.2457 	 43.2568
| 26> C 	 7.98352 	 24.8884 	 44.5394
| 27> C 	 9.26651 	 25.4508 	 44.7683
| 28> H 	 6.48346 	 24.9214 	 42.8966
| 29> C 	 7.23893 	 23.8979 	 45.4267
| 30> H 	 6.41246 	 23.4235 	 44.905
| 31> H 	 6.66384 	 24.4638 	 46.1378
| 32> C 	 8.12397 	 22.7744 	 46.0309
| 33> H 	 7.50679 	 22.1844 	 46.6559
| 34> H 	 8.86608 	 23.2796 	 46.6652
| 35> C 	 8.77659 	 21.9086 	 44.9806
| 36> H 	 9.46079 	 22.5295 	 44.4381
| 37> H 	 8.02102 	 21.5745 	 44.2294
| 38> H 	 9.20978 	 20.9854 	 45.307
| 39> H 	 13.0629 	 25.3285 	 48.0049
| 40> H 	 7.80977 	 26.5266 	 41.6337
| 41> *
| 42>
| 43>                          ****END OF INPUT****

CARTESIAN COORDINATES (ANGSTROEM)
---------------------------------
  S     11.774700   25.300700   45.743300
  C     12.112600   25.354600   47.476300
  C     10.945500   25.441500   48.216200
  C      9.752470   25.366500   47.358900
  C     10.121000   25.448200   46.004200
  H      8.750080   25.281700   47.713500
  C     10.904700   25.230500   49.651500
  H      9.932480   24.875700   49.907800
  H     10.868100   26.310400   49.972400
  C     11.948700   24.309100   50.322900
  H     11.670700   23.278300   50.114200
  H     12.987300   24.421400   50.007200
  C     11.786200   24.421400   51.884000
  H     10.700000   24.411700   52.122000
  H     12.183900   23.547300   52.392300
  H     12.244500   25.282000   52.379100
  S      9.690380   26.549800   43.410900
  C      8.215370   26.153800   42.572100
  C      7.434540   25.245700   43.256800
  C      7.983520   24.888400   44.539400
  C      9.266510   25.450800   44.768300
  H      6.483460   24.921400   42.896600
  C      7.238930   23.897900   45.426700
  H      6.412460   23.423500   44.905000
  H      6.663840   24.463800   46.137800
  C      8.123970   22.774400   46.030900
  H      7.506790   22.184400   46.655900
  H      8.866080   23.279600   46.665200
  C      8.776590   21.908600   44.980600
  H      9.460790   22.529500   44.438100
  H      8.021020   21.574500   44.229400
  H      9.209780   20.985400   45.307000
  H     13.062900   25.328500   48.004900
  H      7.809770   26.526600   41.633700

 Total Charge           Charge          ....    0
 Multiplicity           Mult            ....    1
 Number of Electrons    NEL             ....  134
 Basis Dimension        Dim             ....  322

ORBITAL ENERGIES
----------------

  NO   OCC          E(Eh)            E(eV)
   0   2.0000     -88.970673     -2421.0151
   1   2.0000     -88.967698     -2420.9341
   2   2.0000     -10.335149      -281.2337
   3   2.0000     -10.332721      -281.1676
   4   2.0000     -10.318039      -280.7681
   5   2.0000     -10.308979      -280.5216
   6   2.0000     -10.308021      -280.4955
   7   2.0000     -10.299525      -280.2643
   8   2.0000     -10.298001      -280.2229
   9   2.0000     -10.297299      -280.2038
  10   2.0000     -10.291752      -280.0528
  11   2.0000     -10.291736      -280.0524
  12   2.0000     -10.290194      -280.0104
  13   2.0000     -10.284071      -279.8438
  14   2.0000     -10.276050      -279.6255
  15   2.0000     -10.266295      -279.3601
  16   2.0000      -8.084291      -219.9847
  17   2.0000      -8.083101      -219.9524
  18   2.0000      -6.042974      -164.4377
  19   2.0000      -6.041621      -164.4009
  20   2.0000      -6.038901      -164.3269
  21   2.0000      -6.037456      -164.2875
  22   2.0000      -6.034982      -164.2202
  23   2.0000      -6.033864      -164.1898
  24   2.0000      -1.004839       -27.3431
  25   2.0000      -0.980573       -26.6827
  26   2.0000      -0.918667       -24.9982
  27   2.0000      -0.907132       -24.6843
  28   2.0000      -0.864071       -23.5126
  29   2.0000      -0.845899       -23.0181
  30   2.0000      -0.845141       -22.9974
  31   2.0000      -0.812526       -22.1100
  32   2.0000      -0.783766       -21.3274
  33   2.0000      -0.771421       -20.9914
  34   2.0000      -0.717547       -19.5255
  35   2.0000      -0.705300       -19.1922
  36   2.0000      -0.684969       -18.6389
  37   2.0000      -0.660190       -17.9647
  38   2.0000      -0.633815       -17.2470
  39   2.0000      -0.612913       -16.6782
  40   2.0000      -0.593471       -16.1492
  41   2.0000      -0.580568       -15.7981
  42   2.0000      -0.557603       -15.1732
  43   2.0000      -0.551328       -15.0024
  44   2.0000      -0.546917       -14.8824
  45   2.0000      -0.526294       -14.3212
  46   2.0000      -0.515982       -14.0406
  47   2.0000      -0.508685       -13.8420
  48   2.0000      -0.495959       -13.4957
  49   2.0000      -0.494255       -13.4494
  50   2.0000      -0.489113       -13.3094
  51   2.0000      -0.477417       -12.9912
  52   2.0000      -0.475115       -12.9285
  53   2.0000      -0.461547       -12.5593
  54   2.0000      -0.459621       -12.5069
  55   2.0000      -0.451352       -12.2819
  56   2.0000      -0.444975       -12.1084
  57   2.0000      -0.439312       -11.9543
  58   2.0000      -0.436676       -11.8826
  59   2.0000      -0.428216       -11.6523
  60   2.0000      -0.422789       -11.5047
  61   2.0000      -0.415977       -11.3193
  62   2.0000      -0.409496       -11.1430
  63   2.0000      -0.345512        -9.4019
  64   2.0000      -0.331029        -9.0078
  65   2.0000      -0.324376        -8.8267
  66   2.0000      -0.287455        -7.8221
  67   0.0000       0.027054         0.7362
  68   0.0000       0.073222         1.9925
  69   0.0000       0.106502         2.8981
  70   0.0000       0.118039         3.2120
  71   0.0000       0.132858         3.6153

MULLIKEN ATOMIC CHARGES
-----------------------
   0 S :    0.120052
   1 C :   -0.125017
   2 C :   -0.104589
   3 C :    0.017356
   4 C :   -0.139046
   5 H :    0.010462
   6 C :    0.059103
   7 H :    0.006651
   8 H :    0.049712
   9 C :   -0.057424
  10 H :    0.037168
  11 H :    0.038383
  12 C :   -0.072540
  13 H :    0.029035
  14 H :    0.029514
  15 H :    0.042285
  16 S :    0.113473
  17 C :   -0.071856
  18 C :   -0.032381
  19 C :   -0.064078
  20 C :   -0.142800
  21 H :    0.007296
  22 C :    0.062323
  23 H :    0.006187
  24 H :    0.027737
  25 C :   -0.045842
  26 H :    0.009000
  27 H :    0.038479
  28 C :   -0.025940
  29 H :    0.034970
  30 H :    0.014908
  31 H :    0.031030
  32 H :    0.041342
  33 H :    0.055048
Sum of atomic charges:   -0.0000000

LOEWDIN ATOMIC CHARGES
----------------------
   0 S :    0.435522
   1 C :   -0.211599
   2 C :   -0.058643
   3 C :   -0.067404
   4 C :   -0.205534
   5 H :    0.025307
   6 C :   -0.042564
   7 H :    0.026984
   8 H :    0.047821
   9 C :   -0.031589
  10 H :    0.031297
  11 H :    0.022520
  12 C :   -0.067771
  13 H :    0.027664
  14 H :    0.023629
  15 H :    0.024876
  16 S :    0.397031
  17 C :   -0.188647
  18 C :   -0.069969
  19 C :   -0.049123
  20 C :   -0.200016
  21 H :    0.026870
  22 C :   -0.032454
  23 H :    0.027538
  24 H :    0.029920
  25 C :   -0.038729
  26 H :    0.015121
  27 H :    0.026402
  28 C :   -0.060885
  29 H :    0.024093
  30 H :    0.026010
  31 H :    0.022779
  32 H :    0.028261
  33 H :    0.035281

  Mayer bond orders larger than 0.100000
B(  0-S ,  1-C ) :   1.1167 B(  0-S ,  4-C ) :   1.1963 B(  1-C ,  2-C ) :   1.6277
B(  1-C , 32-H ) :   0.9673 B(  2-C ,  3-C ) :   1.2368 B(  2-C ,  6-C ) :   1.0259
B(  3-C ,  4-C ) :   1.5450 B(  3-C ,  5-H ) :   0.9925 B(  4-C , 20-C ) :   1.0098
B(  6-C ,  7-H ) :   0.9408 B(  6-C ,  8-H ) :   0.9194 B(  6-C ,  9-C ) :   1.0623
B(  9-C , 10-H ) :   0.9555 B(  9-C , 11-H ) :   0.9588 B(  9-C , 12-C ) :   1.0706
B( 12-C , 13-H ) :   0.9747 B( 12-C , 14-H ) :   0.9767 B( 12-C , 15-H ) :   0.9799
B( 16-S , 17-C ) :   1.1507 B( 16-S , 20-C ) :   1.1280 B( 17-C , 18-C ) :   1.6167
B( 17-C , 33-H ) :   0.9609 B( 18-C , 19-C ) :   1.2547 B( 18-C , 21-H ) :   0.9895
B( 19-C , 20-C ) :   1.5868 B( 19-C , 22-C ) :   1.0278 B( 22-C , 23-H ) :   0.9371
B( 22-C , 24-H ) :   0.9253 B( 22-C , 25-C ) :   1.0743 B( 25-C , 26-H ) :   0.9498
B( 25-C , 27-H ) :   0.9480 B( 25-C , 28-C ) :   1.0784 B( 28-C , 29-H ) :   0.9723
B( 28-C , 30-H ) :   0.9729 B( 28-C , 31-H ) :   0.9750

Dispersion correction           -0.015082506
FINAL SINGLE POINT ENERGY     -1339.871509768390

DIPOLE MOMENT
-------------
                                X             Y             Z
Electronic contribution:      4.63742      15.52091     -22.74316
Nuclear contribution   :     -5.08632     -15.84736      23.28313
                        -----------------------------------------
Total Dipole Moment    :     -0.44890      -0.32645       0.53997
                        -----------------------------------------
Magnitude (a.u.)       :      0.77437
Magnitude (Debye)      :      1.96829

Rotational constants in cm-1:     0.024466     0.007848     0.006700
Rotational constants in MHz :   733.463614   235.270373   200.859139

                             ****ORCA TERMINATED NORMALLY****
TOTAL RUN TIME: 0 days 0 hours 0 minutes 36 seconds 509 msec
