                         Program Version 4.2.1 -  RELEASE  -
|  1> ! wB97X-D3 SP def2-SVP
|  2> %pal
|  3> nprocs 16
|  4> end
|  5>
|  6> * xyz 0 1
|  7> S 	 -30.6325 	 75.6092 	 157.39
|  8> C 	 -29.2679 	 76.6533 	 157.936
|  9> C 	 -28.8626 	 76.2912 	 159.192
| 10> C 	 -29.5706 	 75.1109 	 159.672
| 11> C 	 -30.4665 	 74.587 	 158.758
| 12> H 	 -29.4177 	 74.5923 	 160.581
| 13> C 	 -27.7535 	 76.9574 	 160.035
| 14> H 	 -28.0795 	 77.935 	 160.353
| 15> H 	 -26.7895 	 77.0458 	 159.402
| 16> C 	 -27.2433 	 76.1837 	 161.268
| 17> H 	 -27.964 	 75.9636 	 162.049
| 18> H 	 -26.7511 	 75.278 	 160.924
| 19> C 	 -26.1601 	 77.0305 	 162.021
| 20> H 	 -25.263 	 77.1165 	 161.501
| 21> H 	 -26.5289 	 77.9868 	 162.443
| 22> H 	 -25.8824 	 76.4413 	 162.929
| 23> S 	 -30.4206 	 71.9576 	 158.9
| 24> C 	 -31.8241 	 70.9355 	 159.131
| 25> C 	 -32.894 	 71.777 	 159.105
| 26> C 	 -32.6556 	 73.158 	 158.909
| 27> C 	 -31.3142 	 73.4249 	 158.814
| 28> H 	 -33.9008 	 71.2716 	 159.307
| 29> C 	 -33.7534 	 74.3175 	 158.999
| 30> H 	 -33.3304 	 75.3516 	 158.801
| 31> H 	 -34.1408 	 74.2817 	 160.033
| 32> C 	 -35.0101 	 74.294 	 158.127
| 33> H 	 -35.7649 	 74.9959 	 158.379
| 34> H 	 -35.4949 	 73.3499 	 158.288
| 35> C 	 -34.7518 	 74.268 	 156.653
| 36> H 	 -34.4091 	 73.2799 	 156.435
| 37> H 	 -33.9727 	 75 	 156.37
| 38> H 	 -35.6238 	 74.5436 	 156.129
| 39> H 	 -28.8214 	 77.4407 	 157.362
| 40> H 	 -31.8968 	 69.8621 	 159.073
| 41> *
| 42>
| 43>                          ****END OF INPUT****

CARTESIAN COORDINATES (ANGSTROEM)
---------------------------------
  S    -30.632500   75.609200  157.390000
  C    -29.267900   76.653300  157.936000
  C    -28.862600   76.291200  159.192000
  C    -29.570600   75.110900  159.672000
  C    -30.466500   74.587000  158.758000
  H    -29.417700   74.592300  160.581000
  C    -27.753500   76.957400  160.035000
  H    -28.079500   77.935000  160.353000
  H    -26.789500   77.045800  159.402000
  C    -27.243300   76.183700  161.268000
  H    -27.964000   75.963600  162.049000
  H    -26.751100   75.278000  160.924000
  C    -26.160100   77.030500  162.021000
  H    -25.263000   77.116500  161.501000
  H    -26.528900   77.986800  162.443000
  H    -25.882400   76.441300  162.929000
  S    -30.420600   71.957600  158.900000
  C    -31.824100   70.935500  159.131000
  C    -32.894000   71.777000  159.105000
  C    -32.655600   73.158000  158.909000
  C    -31.314200   73.424900  158.814000
  H    -33.900800   71.271600  159.307000
  C    -33.753400   74.317500  158.999000
  H    -33.330400   75.351600  158.801000
  H    -34.140800   74.281700  160.033000
  C    -35.010100   74.294000  158.127000
  H    -35.764900   74.995900  158.379000
  H    -35.494900   73.349900  158.288000
  C    -34.751800   74.268000  156.653000
  H    -34.409100   73.279900  156.435000
  H    -33.972700   75.000000  156.370000
  H    -35.623800   74.543600  156.129000
  H    -28.821400   77.440700  157.362000
  H    -31.896800   69.862100  159.073000

 Total Charge           Charge          ....    0
 Multiplicity           Mult            ....    1
 Number of Electrons    NEL             ....  134
 Basis Dimension        Dim             ....  322

ORBITAL ENERGIES
----------------

  NO   OCC          E(Eh)            E(eV)
   0   2.0000     -88.965017     -2420.8612
   1   2.0000     -88.961476     -2420.7648
   2   2.0000     -10.327751      -281.0324
   3   2.0000     -10.325041      -280.9586
   4   2.0000     -10.315496      -280.6989
   5   2.0000     -10.315024      -280.6861
   6   2.0000     -10.309861      -280.5456
   7   2.0000     -10.306709      -280.4598
   8   2.0000     -10.302257      -280.3387
   9   2.0000     -10.299965      -280.2763
  10   2.0000     -10.298163      -280.2273
  11   2.0000     -10.294376      -280.1242
  12   2.0000     -10.290785      -280.0265
  13   2.0000     -10.279900      -279.7303
  14   2.0000     -10.272345      -279.5247
  15   2.0000     -10.261745      -279.2363
  16   2.0000      -8.079395      -219.8515
  17   2.0000      -8.076936      -219.7846
  18   2.0000      -6.037957      -164.3012
  19   2.0000      -6.035465      -164.2334
  20   2.0000      -6.033930      -164.1916
  21   2.0000      -6.031126      -164.1153
  22   2.0000      -6.030133      -164.0882
  23   2.0000      -6.027788      -164.0245
  24   2.0000      -1.014098       -27.5950
  25   2.0000      -0.985293       -26.8112
  26   2.0000      -0.909612       -24.7518
  27   2.0000      -0.906240       -24.6600
  28   2.0000      -0.875735       -23.8300
  29   2.0000      -0.847642       -23.0655
  30   2.0000      -0.841684       -22.9034
  31   2.0000      -0.815548       -22.1922
  32   2.0000      -0.781996       -21.2792
  33   2.0000      -0.775169       -21.0934
  34   2.0000      -0.713439       -19.4137
  35   2.0000      -0.693474       -18.8704
  36   2.0000      -0.688145       -18.7254
  37   2.0000      -0.658800       -17.9269
  38   2.0000      -0.639467       -17.4008
  39   2.0000      -0.617256       -16.7964
  40   2.0000      -0.595761       -16.2115
  41   2.0000      -0.578661       -15.7462
  42   2.0000      -0.569014       -15.4836
  43   2.0000      -0.556310       -15.1380
  44   2.0000      -0.543949       -14.8016
  45   2.0000      -0.523739       -14.2517
  46   2.0000      -0.519176       -14.1275
  47   2.0000      -0.509239       -13.8571
  48   2.0000      -0.505448       -13.7539
  49   2.0000      -0.501078       -13.6350
  50   2.0000      -0.486029       -13.2255
  51   2.0000      -0.473887       -12.8951
  52   2.0000      -0.470594       -12.8055
  53   2.0000      -0.465546       -12.6682
  54   2.0000      -0.460106       -12.5201
  55   2.0000      -0.448797       -12.2124
  56   2.0000      -0.441207       -12.0059
  57   2.0000      -0.435754       -11.8575
  58   2.0000      -0.427413       -11.6305
  59   2.0000      -0.423697       -11.5294
  60   2.0000      -0.417464       -11.3598
  61   2.0000      -0.411458       -11.1963
  62   2.0000      -0.403852       -10.9894
  63   2.0000      -0.344049        -9.3621
  64   2.0000      -0.333011        -9.0617
  65   2.0000      -0.328292        -8.9333
  66   2.0000      -0.302156        -8.2221
  67   0.0000       0.038114         1.0371
  68   0.0000       0.063959         1.7404
  69   0.0000       0.106474         2.8973
  70   0.0000       0.128501         3.4967
  71   0.0000       0.135408         3.6846

MULLIKEN ATOMIC CHARGES
-----------------------
   0 S :    0.109331
   1 C :   -0.125602
   2 C :   -0.053839
   3 C :    0.055445
   4 C :   -0.159440
   5 H :   -0.002320
   6 C :    0.036280
   7 H :    0.038128
   8 H :    0.049240
   9 C :   -0.108818
  10 H :    0.041663
  11 H :    0.038177
  12 C :   -0.048157
  13 H :    0.023649
  14 H :    0.038523
  15 H :    0.027964
  16 S :    0.101725
  17 C :   -0.088797
  18 C :   -0.090920
  19 C :    0.025110
  20 C :   -0.181673
  21 H :    0.043403
  22 C :    0.033656
  23 H :    0.040846
  24 H :    0.041710
  25 C :   -0.065624
  26 H :    0.021077
  27 H :    0.005520
  28 C :   -0.022290
  29 H :    0.031376
  30 H :    0.021972
  31 H :    0.021733
  32 H :    0.039860
  33 H :    0.061091
Sum of atomic charges:   -0.0000000

LOEWDIN ATOMIC CHARGES
----------------------
   0 S :    0.406343
   1 C :   -0.180005
   2 C :   -0.059647
   3 C :   -0.059866
   4 C :   -0.204244
   5 H :    0.024824
   6 C :   -0.035188
   7 H :    0.028840
   8 H :    0.045448
   9 C :   -0.042173
  10 H :    0.022919
  11 H :    0.026602
  12 C :   -0.062400
  13 H :    0.013114
  14 H :    0.027569
  15 H :    0.031413
  16 S :    0.425224
  17 C :   -0.192941
  18 C :   -0.084121
  19 C :   -0.066457
  20 C :   -0.205300
  21 H :    0.041680
  22 C :   -0.029109
  23 H :    0.031708
  24 H :    0.036134
  25 C :   -0.048785
  26 H :    0.020785
  27 H :    0.017921
  28 C :   -0.057883
  29 H :    0.023922
  30 H :    0.022261
  31 H :    0.020269
  32 H :    0.026026
  33 H :    0.035116

  Mayer bond orders larger than 0.100000
B(  0-S ,  1-C ) :   1.1179 B(  0-S ,  4-C ) :   1.1578 B(  1-C ,  2-C ) :   1.6480
B(  1-C , 32-H ) :   0.9791 B(  2-C ,  3-C ) :   1.2144 B(  2-C ,  6-C ) :   0.9970
B(  3-C ,  4-C ) :   1.5938 B(  3-C ,  5-H ) :   0.9976 B(  4-C , 20-C ) :   0.9883
B(  6-C ,  7-H ) :   0.9406 B(  6-C ,  8-H ) :   0.9487 B(  6-C ,  9-C ) :   1.0843
B(  9-C , 10-H ) :   0.9498 B(  9-C , 11-H ) :   0.9545 B(  9-C , 12-C ) :   1.0878
B( 12-C , 13-H ) :   0.9764 B( 12-C , 14-H ) :   0.9751 B( 12-C , 15-H ) :   0.9731
B( 16-S , 17-C ) :   1.1431 B( 16-S , 20-C ) :   1.1756 B( 17-C , 18-C ) :   1.6192
B( 17-C , 20-C ) :   0.1051 B( 17-C , 33-H ) :   0.9703 B( 18-C , 19-C ) :   1.2429
B( 18-C , 21-H ) :   0.9738 B( 19-C , 20-C ) :   1.5868 B( 19-C , 22-C ) :   1.0108
B( 22-C , 23-H ) :   0.9450 B( 22-C , 24-H ) :   0.9415 B( 22-C , 25-C ) :   1.0775
B( 25-C , 26-H ) :   0.9564 B( 25-C , 27-H ) :   0.9516 B( 25-C , 28-C ) :   1.0773
B( 28-C , 29-H ) :   0.9765 B( 28-C , 30-H ) :   0.9761 B( 28-C , 31-H ) :   0.9722

Dispersion correction           -0.014039175
FINAL SINGLE POINT ENERGY     -1339.867038408491

DIPOLE MOMENT
-------------
                                X             Y             Z
Electronic contribution:      0.59907     -10.72317      -8.49917
Nuclear contribution   :     -0.60908      10.86925       8.89495
                        -----------------------------------------
Total Dipole Moment    :     -0.01001       0.14608       0.39577
                        -----------------------------------------
Magnitude (a.u.)       :      0.42199
Magnitude (Debye)      :      1.07261

Rotational constants in cm-1:     0.022399     0.007512     0.006365
Rotational constants in MHz :   671.492717   225.215539   190.828458

                             ****ORCA TERMINATED NORMALLY****
TOTAL RUN TIME: 0 days 0 hours 0 minutes 31 seconds 813 msec
