                         Program Version 4.2.1 -  RELEASE  -
|  1> ! wB97X-D3 SP def2-SVP
|  2> %pal
|  3> nprocs 16
|  4> end
|  5>
|  6> * xyz 0 1
|  7> S 	 -101.367 	 43.1694 	 121.316
|  8> C 	 -103.029 	 43.8748 	 121.496
|  9> C 	 -102.978 	 45.1852 	 120.986
| 10> C 	 -101.706 	 45.5395 	 120.446
| 11> C 	 -100.746 	 44.5281 	 120.427
| 12> H 	 -101.612 	 46.4611 	 119.897
| 13> C 	 -104.175 	 46.1691 	 121.105
| 14> H 	 -105.185 	 45.58 	 121.148
| 15> H 	 -104.123 	 46.615 	 120.095
| 16> C 	 -104.142 	 47.2676 	 122.172
| 17> H 	 -104.016 	 46.9166 	 123.145
| 18> H 	 -103.282 	 47.9247 	 122.02
| 19> C 	 -105.427 	 48.0791 	 122.192
| 20> H 	 -106.212 	 47.3887 	 122.413
| 21> H 	 -105.468 	 48.8561 	 122.974
| 22> H 	 -105.577 	 48.5458 	 121.201
| 23> S 	 -98.3575 	 45.8291 	 120.288
| 24> C 	 -97.1141 	 45.3252 	 119.236
| 25> C 	 -97.5188 	 44.1737 	 118.622
| 26> C 	 -98.8498 	 43.6489 	 118.919
| 27> C 	 -99.4469 	 44.5193 	 119.879
| 28> H 	 -96.8618 	 43.7168 	 117.897
| 29> C 	 -99.4225 	 42.3548 	 118.352
| 30> H 	 -100.524 	 42.3542 	 118.37
| 31> H 	 -99.1339 	 41.5406 	 119.129
| 32> C 	 -98.9552 	 41.8915 	 116.938
| 33> H 	 -99.008 	 40.7655 	 116.946
| 34> H 	 -97.8925 	 42.031 	 116.841
| 35> C 	 -99.7796 	 42.5838 	 115.712
| 36> H 	 -99.8075 	 43.6158 	 115.809
| 37> H 	 -100.849 	 42.2924 	 115.773
| 38> H 	 -99.2757 	 42.2497 	 114.822
| 39> H 	 -103.833 	 43.4684 	 122.082
| 40> H 	 -96.2533 	 45.8126 	 118.942
| 41> *
| 42>
| 43>                          ****END OF INPUT****

CARTESIAN COORDINATES (ANGSTROEM)
---------------------------------
  S    -101.367000   43.169400  121.316000
  C    -103.029000   43.874800  121.496000
  C    -102.978000   45.185200  120.986000
  C    -101.706000   45.539500  120.446000
  C    -100.746000   44.528100  120.427000
  H    -101.612000   46.461100  119.897000
  C    -104.175000   46.169100  121.105000
  H    -105.185000   45.580000  121.148000
  H    -104.123000   46.615000  120.095000
  C    -104.142000   47.267600  122.172000
  H    -104.016000   46.916600  123.145000
  H    -103.282000   47.924700  122.020000
  C    -105.427000   48.079100  122.192000
  H    -106.212000   47.388700  122.413000
  H    -105.468000   48.856100  122.974000
  H    -105.577000   48.545800  121.201000
  S    -98.357500   45.829100  120.288000
  C    -97.114100   45.325200  119.236000
  C    -97.518800   44.173700  118.622000
  C    -98.849800   43.648900  118.919000
  C    -99.446900   44.519300  119.879000
  H    -96.861800   43.716800  117.897000
  C    -99.422500   42.354800  118.352000
  H    -100.524000   42.354200  118.370000
  H    -99.133900   41.540600  119.129000
  C    -98.955200   41.891500  116.938000
  H    -99.008000   40.765500  116.946000
  H    -97.892500   42.031000  116.841000
  C    -99.779600   42.583800  115.712000
  H    -99.807500   43.615800  115.809000
  H    -100.849000   42.292400  115.773000
  H    -99.275700   42.249700  114.822000
  H    -103.833000   43.468400  122.082000
  H    -96.253300   45.812600  118.942000

 Total Charge           Charge          ....    0
 Multiplicity           Mult            ....    1
 Number of Electrons    NEL             ....  134
 Basis Dimension        Dim             ....  322

ORBITAL ENERGIES
----------------

  NO   OCC          E(Eh)            E(eV)
   0   2.0000     -88.965656     -2420.8786
   1   2.0000     -88.965540     -2420.8754
   2   2.0000     -10.330632      -281.1108
   3   2.0000     -10.327283      -281.0196
   4   2.0000     -10.319437      -280.8061
   5   2.0000     -10.313585      -280.6469
   6   2.0000     -10.309100      -280.5249
   7   2.0000     -10.306678      -280.4590
   8   2.0000     -10.304971      -280.4125
   9   2.0000     -10.303181      -280.3638
  10   2.0000     -10.297358      -280.2054
  11   2.0000     -10.294694      -280.1329
  12   2.0000     -10.292083      -280.0618
  13   2.0000     -10.281441      -279.7722
  14   2.0000     -10.280643      -279.7505
  15   2.0000     -10.278117      -279.6818
  16   2.0000      -8.080867      -219.8916
  17   2.0000      -8.079181      -219.8457
  18   2.0000      -6.039369      -164.3396
  19   2.0000      -6.037775      -164.2962
  20   2.0000      -6.035145      -164.2247
  21   2.0000      -6.033683      -164.1848
  22   2.0000      -6.031738      -164.1319
  23   2.0000      -6.030053      -164.0861
  24   2.0000      -1.006472       -27.3875
  25   2.0000      -0.979983       -26.6667
  26   2.0000      -0.911064       -24.7913
  27   2.0000      -0.898336       -24.4450
  28   2.0000      -0.875231       -23.8162
  29   2.0000      -0.844990       -22.9934
  30   2.0000      -0.839393       -22.8411
  31   2.0000      -0.811628       -22.0855
  32   2.0000      -0.782489       -21.2926
  33   2.0000      -0.770700       -20.9718
  34   2.0000      -0.714882       -19.4529
  35   2.0000      -0.704554       -19.1719
  36   2.0000      -0.698475       -19.0065
  37   2.0000      -0.654728       -17.8161
  38   2.0000      -0.632807       -17.2196
  39   2.0000      -0.618501       -16.8303
  40   2.0000      -0.600708       -16.3461
  41   2.0000      -0.569938       -15.5088
  42   2.0000      -0.564922       -15.3723
  43   2.0000      -0.543765       -14.7966
  44   2.0000      -0.528984       -14.3944
  45   2.0000      -0.526646       -14.3308
  46   2.0000      -0.523462       -14.2441
  47   2.0000      -0.510770       -13.8988
  48   2.0000      -0.507708       -13.8154
  49   2.0000      -0.500288       -13.6135
  50   2.0000      -0.490958       -13.3596
  51   2.0000      -0.481852       -13.1119
  52   2.0000      -0.469381       -12.7725
  53   2.0000      -0.464293       -12.6340
  54   2.0000      -0.456798       -12.4301
  55   2.0000      -0.449645       -12.2355
  56   2.0000      -0.441163       -12.0047
  57   2.0000      -0.435941       -11.8625
  58   2.0000      -0.431096       -11.7307
  59   2.0000      -0.425965       -11.5911
  60   2.0000      -0.424065       -11.5394
  61   2.0000      -0.413236       -11.2447
  62   2.0000      -0.406911       -11.0726
  63   2.0000      -0.343644        -9.3510
  64   2.0000      -0.331014        -9.0073
  65   2.0000      -0.325253        -8.8506
  66   2.0000      -0.293044        -7.9741
  67   0.0000       0.023390         0.6365
  68   0.0000       0.072982         1.9859
  69   0.0000       0.115603         3.1457
  70   0.0000       0.118076         3.2130
  71   0.0000       0.122761         3.3405

MULLIKEN ATOMIC CHARGES
-----------------------
   0 S :    0.097332
   1 C :   -0.120427
   2 C :   -0.096836
   3 C :    0.037593
   4 C :   -0.158517
   5 H :    0.010169
   6 C :   -0.002270
   7 H :    0.038368
   8 H :    0.031874
   9 C :   -0.014659
  10 H :    0.012551
  11 H :    0.023874
  12 C :   -0.053335
  13 H :    0.022562
  14 H :    0.038656
  15 H :    0.033113
  16 S :    0.124817
  17 C :   -0.047407
  18 C :   -0.058624
  19 C :   -0.007112
  20 C :   -0.163165
  21 H :    0.010369
  22 C :    0.014417
  23 H :    0.035760
  24 H :    0.061146
  25 C :   -0.092443
  26 H :    0.034858
  27 H :    0.022282
  28 C :   -0.026541
  29 H :    0.029620
  30 H :    0.038724
  31 H :    0.043096
  32 H :    0.050536
  33 H :    0.029621
Sum of atomic charges:   -0.0000000

LOEWDIN ATOMIC CHARGES
----------------------
   0 S :    0.395020
   1 C :   -0.184874
   2 C :   -0.061624
   3 C :   -0.070398
   4 C :   -0.197074
   5 H :    0.028515
   6 C :   -0.037347
   7 H :    0.038435
   8 H :    0.033167
   9 C :   -0.039754
  10 H :    0.016435
  11 H :    0.025317
  12 C :   -0.060914
  13 H :    0.019995
  14 H :    0.028746
  15 H :    0.026414
  16 S :    0.433827
  17 C :   -0.194513
  18 C :   -0.074143
  19 C :   -0.047762
  20 C :   -0.211529
  21 H :    0.023656
  22 C :   -0.045989
  23 H :    0.030692
  24 H :    0.049229
  25 C :   -0.042239
  26 H :    0.031667
  27 H :    0.015783
  28 C :   -0.053732
  29 H :    0.017231
  30 H :    0.031671
  31 H :    0.026633
  32 H :    0.027940
  33 H :    0.021518

  Mayer bond orders larger than 0.100000
B(  0-S ,  1-C ) :   1.1259 B(  0-S ,  4-C ) :   1.1573 B(  1-C ,  2-C ) :   1.5909
B(  1-C ,  4-C ) :   0.1062 B(  1-C , 32-H ) :   0.9743 B(  2-C ,  3-C ) :   1.2757
B(  2-C ,  6-C ) :   1.0092 B(  3-C ,  4-C ) :   1.5374 B(  3-C ,  5-H ) :   0.9925
B(  4-C , 20-C ) :   1.0670 B(  6-C ,  7-H ) :   0.9503 B(  6-C ,  8-H ) :   0.9375
B(  6-C ,  9-C ) :   1.0607 B(  9-C , 10-H ) :   0.9551 B(  9-C , 11-H ) :   0.9491
B(  9-C , 12-C ) :   1.0836 B( 12-C , 13-H ) :   0.9752 B( 12-C , 14-H ) :   0.9740
B( 12-C , 15-H ) :   0.9768 B( 16-S , 17-C ) :   1.1542 B( 16-S , 20-C ) :   1.1579
B( 17-C , 18-C ) :   1.6047 B( 17-C , 33-H ) :   0.9753 B( 18-C , 19-C ) :   1.2551
B( 18-C , 21-H ) :   0.9835 B( 19-C , 20-C ) :   1.5280 B( 19-C , 22-C ) :   1.0429
B( 22-C , 23-H ) :   0.9356 B( 22-C , 24-H ) :   0.9321 B( 22-C , 25-C ) :   1.0677
B( 25-C , 26-H ) :   0.9564 B( 25-C , 27-H ) :   0.9584 B( 25-C , 28-C ) :   1.0526
B( 28-C , 29-H ) :   0.9818 B( 28-C , 30-H ) :   0.9769 B( 28-C , 31-H ) :   0.9783

Dispersion correction           -0.013603564
FINAL SINGLE POINT ENERGY     -1339.868394350349

DIPOLE MOMENT
-------------
                                X             Y             Z
Electronic contribution:     14.86622      -2.65913       9.47728
Nuclear contribution   :    -15.04148       2.74507      -9.79875
                        -----------------------------------------
Total Dipole Moment    :     -0.17526       0.08594      -0.32147
                        -----------------------------------------
Magnitude (a.u.)       :      0.37609
Magnitude (Debye)      :      0.95594

Rotational constants in cm-1:     0.021721     0.006927     0.006150
Rotational constants in MHz :   651.193340   207.668391   184.372830

                             ****ORCA TERMINATED NORMALLY****
TOTAL RUN TIME: 0 days 0 hours 0 minutes 29 seconds 418 msec
