                         Program Version 4.2.1 -  RELEASE  -
|  1> ! wB97X-D3 SP def2-SVP
|  2> %pal
|  3> nprocs 16
|  4> end
|  5>
|  6> * xyz 0 1
|  7> S 	 19.2399 	 -12.2782 	 77.1648
|  8> C 	 19.5448 	 -13.2276 	 78.601
|  9> C 	 19.9749 	 -12.4972 	 79.7005
| 10> C 	 19.7951 	 -11.101 	 79.4231
| 11> C 	 19.6422 	 -10.789 	 78.0816
| 12> H 	 19.9011 	 -10.2297 	 80.0905
| 13> C 	 20.4472 	 -13.1161 	 80.9781
| 14> H 	 21.5651 	 -13.0889 	 80.9233
| 15> H 	 20.3194 	 -14.2361 	 80.9027
| 16> C 	 19.894 	 -12.6042 	 82.3426
| 17> H 	 19.947 	 -11.505 	 82.3244
| 18> H 	 18.8285 	 -12.9637 	 82.5306
| 19> C 	 20.7386 	 -13.1193 	 83.5378
| 20> H 	 21.8245 	 -12.9632 	 83.4615
| 21> H 	 20.5523 	 -12.5933 	 84.5085
| 22> H 	 20.4271 	 -14.1257 	 83.8648
| 23> S 	 17.7322 	 -9.37963 	 76.9888
| 24> C 	 17.7403 	 -7.6754 	 76.7341
| 25> C 	 18.9783 	 -7.17826 	 77.2486
| 26> C 	 19.8392 	 -8.21342 	 77.7165
| 27> C 	 19.272 	 -9.46805 	 77.6254
| 28> H 	 19.1646 	 -6.13721 	 77.2404
| 29> C 	 21.1258 	 -7.8885 	 78.4559
| 30> H 	 21.603 	 -7.08022 	 77.7465
| 31> H 	 21.7392 	 -8.76936 	 78.4613
| 32> C 	 20.9035 	 -7.23859 	 79.7698
| 33> H 	 20.3737 	 -7.88738 	 80.4472
| 34> H 	 20.4207 	 -6.25633 	 79.6885
| 35> C 	 22.2366 	 -6.95799 	 80.4381
| 36> H 	 22.7589 	 -6.10311 	 79.994
| 37> H 	 22.9082 	 -7.85341 	 80.3136
| 38> H 	 22.1478 	 -6.70534 	 81.4697
| 39> H 	 19.5942 	 -14.344 	 78.6192
| 40> H 	 16.9669 	 -7.04293 	 76.2983
| 41> *
| 42>
| 43>                          ****END OF INPUT****

CARTESIAN COORDINATES (ANGSTROEM)
---------------------------------
  S     19.239900  -12.278200   77.164800
  C     19.544800  -13.227600   78.601000
  C     19.974900  -12.497200   79.700500
  C     19.795100  -11.101000   79.423100
  C     19.642200  -10.789000   78.081600
  H     19.901100  -10.229700   80.090500
  C     20.447200  -13.116100   80.978100
  H     21.565100  -13.088900   80.923300
  H     20.319400  -14.236100   80.902700
  C     19.894000  -12.604200   82.342600
  H     19.947000  -11.505000   82.324400
  H     18.828500  -12.963700   82.530600
  C     20.738600  -13.119300   83.537800
  H     21.824500  -12.963200   83.461500
  H     20.552300  -12.593300   84.508500
  H     20.427100  -14.125700   83.864800
  S     17.732200   -9.379630   76.988800
  C     17.740300   -7.675400   76.734100
  C     18.978300   -7.178260   77.248600
  C     19.839200   -8.213420   77.716500
  C     19.272000   -9.468050   77.625400
  H     19.164600   -6.137210   77.240400
  C     21.125800   -7.888500   78.455900
  H     21.603000   -7.080220   77.746500
  H     21.739200   -8.769360   78.461300
  C     20.903500   -7.238590   79.769800
  H     20.373700   -7.887380   80.447200
  H     20.420700   -6.256330   79.688500
  C     22.236600   -6.957990   80.438100
  H     22.758900   -6.103110   79.994000
  H     22.908200   -7.853410   80.313600
  H     22.147800   -6.705340   81.469700
  H     19.594200  -14.344000   78.619200
  H     16.966900   -7.042930   76.298300

 Total Charge           Charge          ....    0
 Multiplicity           Mult            ....    1
 Number of Electrons    NEL             ....  134
 Basis Dimension        Dim             ....  322

ORBITAL ENERGIES
----------------

  NO   OCC          E(Eh)            E(eV)
   0   2.0000     -88.969949     -2420.9954
   1   2.0000     -88.961459     -2420.7644
   2   2.0000     -10.330328      -281.1025
   3   2.0000     -10.319126      -280.7977
   4   2.0000     -10.316304      -280.7209
   5   2.0000     -10.315985      -280.7122
   6   2.0000     -10.305759      -280.4340
   7   2.0000     -10.303816      -280.3811
   8   2.0000     -10.303385      -280.3694
   9   2.0000     -10.300202      -280.2827
  10   2.0000     -10.296844      -280.1914
  11   2.0000     -10.293308      -280.0952
  12   2.0000     -10.292052      -280.0610
  13   2.0000     -10.287349      -279.9330
  14   2.0000     -10.283350      -279.8242
  15   2.0000     -10.275847      -279.6200
  16   2.0000      -8.083790      -219.9711
  17   2.0000      -8.078004      -219.8137
  18   2.0000      -6.042379      -164.4215
  19   2.0000      -6.038538      -164.3170
  20   2.0000      -6.036366      -164.2579
  21   2.0000      -6.034397      -164.2043
  22   2.0000      -6.031945      -164.1376
  23   2.0000      -6.029069      -164.0593
  24   2.0000      -1.014440       -27.6043
  25   2.0000      -0.984767       -26.7969
  26   2.0000      -0.919478       -25.0203
  27   2.0000      -0.907572       -24.6963
  28   2.0000      -0.870920       -23.6990
  29   2.0000      -0.853719       -23.2309
  30   2.0000      -0.846830       -23.0434
  31   2.0000      -0.814332       -22.1591
  32   2.0000      -0.777910       -21.1680
  33   2.0000      -0.768552       -20.9134
  34   2.0000      -0.709154       -19.2971
  35   2.0000      -0.696951       -18.9650
  36   2.0000      -0.690879       -18.7998
  37   2.0000      -0.666864       -18.1463
  38   2.0000      -0.639809       -17.4101
  39   2.0000      -0.617908       -16.8141
  40   2.0000      -0.594794       -16.1852
  41   2.0000      -0.572552       -15.5799
  42   2.0000      -0.566657       -15.4195
  43   2.0000      -0.561869       -15.2892
  44   2.0000      -0.529839       -14.4177
  45   2.0000      -0.522411       -14.2155
  46   2.0000      -0.516569       -14.0566
  47   2.0000      -0.510563       -13.8931
  48   2.0000      -0.507945       -13.8219
  49   2.0000      -0.502232       -13.6664
  50   2.0000      -0.492056       -13.3895
  51   2.0000      -0.475552       -12.9404
  52   2.0000      -0.468493       -12.7483
  53   2.0000      -0.464084       -12.6284
  54   2.0000      -0.458257       -12.4698
  55   2.0000      -0.450896       -12.2695
  56   2.0000      -0.444423       -12.0934
  57   2.0000      -0.437249       -11.8981
  58   2.0000      -0.433340       -11.7918
  59   2.0000      -0.428143       -11.6504
  60   2.0000      -0.424261       -11.5447
  61   2.0000      -0.414727       -11.2853
  62   2.0000      -0.409897       -11.1539
  63   2.0000      -0.347729        -9.4622
  64   2.0000      -0.327031        -8.8990
  65   2.0000      -0.325030        -8.8445
  66   2.0000      -0.293384        -7.9834
  67   0.0000       0.031366         0.8535
  68   0.0000       0.070025         1.9055
  69   0.0000       0.113559         3.0901
  70   0.0000       0.118537         3.2256
  71   0.0000       0.127264         3.4630

MULLIKEN ATOMIC CHARGES
-----------------------
   0 S :    0.109537
   1 C :   -0.134466
   2 C :   -0.050960
   3 C :    0.008648
   4 C :   -0.150642
   5 H :    0.020131
   6 C :    0.033150
   7 H :    0.045223
   8 H :    0.019388
   9 C :   -0.073068
  10 H :    0.041250
  11 H :    0.055824
  12 C :   -0.084887
  13 H :    0.040260
  14 H :    0.027630
  15 H :    0.038411
  16 S :    0.122708
  17 C :   -0.108358
  18 C :   -0.049584
  19 C :   -0.027828
  20 C :   -0.151144
  21 H :    0.004542
  22 C :    0.022616
  23 H :    0.037001
  24 H :    0.026797
  25 C :   -0.046058
  26 H :    0.026584
  27 H :    0.033416
  28 C :   -0.045106
  29 H :    0.026243
  30 H :    0.029383
  31 H :    0.026451
  32 H :    0.062736
  33 H :    0.064173
Sum of atomic charges:    0.0000000

LOEWDIN ATOMIC CHARGES
----------------------
   0 S :    0.387458
   1 C :   -0.197061
   2 C :   -0.068040
   3 C :   -0.052382
   4 C :   -0.190469
   5 H :    0.032870
   6 C :   -0.045163
   7 H :    0.040604
   8 H :    0.034582
   9 C :   -0.041374
  10 H :    0.024909
  11 H :    0.039044
  12 C :   -0.081520
  13 H :    0.027027
  14 H :    0.031196
  15 H :    0.028097
  16 S :    0.462754
  17 C :   -0.208052
  18 C :   -0.066574
  19 C :   -0.067400
  20 C :   -0.230683
  21 H :    0.021825
  22 C :   -0.034449
  23 H :    0.043427
  24 H :    0.025724
  25 C :   -0.041700
  26 H :    0.019352
  27 H :    0.030130
  28 C :   -0.064708
  29 H :    0.023619
  30 H :    0.028081
  31 H :    0.019661
  32 H :    0.035227
  33 H :    0.033985

  Mayer bond orders larger than 0.100000
B(  0-S ,  1-C ) :   1.1425 B(  0-S ,  4-C ) :   1.1255 B(  1-C ,  2-C ) :   1.6237
B(  1-C , 32-H ) :   0.9523 B(  2-C ,  3-C ) :   1.2128 B(  2-C ,  6-C ) :   1.0321
B(  3-C ,  4-C ) :   1.6014 B(  3-C ,  5-H ) :   0.9804 B(  4-C , 20-C ) :   1.0221
B(  6-C ,  7-H ) :   0.9332 B(  6-C ,  8-H ) :   0.9361 B(  6-C ,  9-C ) :   1.0480
B(  9-C , 10-H ) :   0.9580 B(  9-C , 11-H ) :   0.9567 B(  9-C , 12-C ) :   1.0777
B( 12-C , 13-H ) :   0.9753 B( 12-C , 14-H ) :   0.9725 B( 12-C , 15-H ) :   0.9768
B( 16-S , 17-C ) :   1.1819 B( 16-S , 20-C ) :   1.1860 B( 17-C , 18-C ) :   1.5465
B( 17-C , 20-C ) :   0.1024 B( 17-C , 33-H ) :   0.9724 B( 18-C , 19-C ) :   1.2769
B( 18-C , 21-H ) :   0.9995 B( 19-C , 20-C ) :   1.5612 B( 19-C , 22-C ) :   1.0497
B( 22-C , 23-H ) :   0.9307 B( 22-C , 24-H ) :   0.9333 B( 22-C , 25-C ) :   1.0856
B( 25-C , 26-H ) :   0.9492 B( 25-C , 27-H ) :   0.9450 B( 25-C , 28-C ) :   1.0886
B( 28-C , 29-H ) :   0.9745 B( 28-C , 30-H ) :   0.9720 B( 28-C , 31-H ) :   0.9731

Dispersion correction           -0.013785991
FINAL SINGLE POINT ENERGY     -1339.869562728886

DIPOLE MOMENT
-------------
                                X             Y             Z
Electronic contribution:    -15.87192      -4.43215     -27.31856
Nuclear contribution   :     16.11607       4.58754      28.04440
                        -----------------------------------------
Total Dipole Moment    :      0.24415       0.15539       0.72584
                        -----------------------------------------
Magnitude (a.u.)       :      0.78141
Magnitude (Debye)      :      1.98619

Rotational constants in cm-1:     0.016354     0.009331     0.006592
Rotational constants in MHz :   490.284650   279.750005   197.636239

                             ****ORCA TERMINATED NORMALLY****
TOTAL RUN TIME: 0 days 0 hours 0 minutes 28 seconds 462 msec
