                         Program Version 4.2.1 -  RELEASE  -
|  1> ! wB97X-D3 SP def2-SVP
|  2> %pal
|  3> nprocs 16
|  4> end
|  5>
|  6> * xyz 0 1
|  7> S 	 -29.8733 	 63.2998 	 110.599
|  8> C 	 -29.9352 	 61.8379 	 109.66
|  9> C 	 -30.5904 	 60.8417 	 110.309
| 10> C 	 -30.9406 	 61.2693 	 111.671
| 11> C 	 -30.4561 	 62.477 	 112.058
| 12> H 	 -31.3619 	 60.7475 	 112.488
| 13> C 	 -30.8225 	 59.4869 	 109.72
| 14> H 	 -30.2307 	 59.212 	 108.866
| 15> H 	 -31.8142 	 59.4987 	 109.402
| 16> C 	 -30.7064 	 58.3453 	 110.827
| 17> H 	 -31.5407 	 58.4345 	 111.506
| 18> H 	 -30.9801 	 57.4855 	 110.325
| 19> C 	 -29.342 	 58.2067 	 111.495
| 20> H 	 -29.0666 	 59.0077 	 112.143
| 21> H 	 -29.3218 	 57.2855 	 112.107
| 22> H 	 -28.4373 	 58.1675 	 110.849
| 23> S 	 -31.1556 	 64.8034 	 113.21
| 24> C 	 -30.7967 	 65.0191 	 114.929
| 25> C 	 -30.3624 	 63.8648 	 115.524
| 26> C 	 -30.2677 	 62.7696 	 114.671
| 27> C 	 -30.5873 	 63.177 	 113.332
| 28> H 	 -30.2255 	 63.8941 	 116.642
| 29> C 	 -29.8216 	 61.4588 	 115.101
| 30> H 	 -29.9102 	 60.8072 	 114.332
| 31> H 	 -30.4323 	 61.2046 	 115.977
| 32> C 	 -28.3533 	 61.4592 	 115.566
| 33> H 	 -28.2589 	 62.1583 	 116.387
| 34> H 	 -27.8139 	 61.7907 	 114.71
| 35> C 	 -27.8388 	 60.078 	 116.14
| 36> H 	 -27.4021 	 59.4918 	 115.351
| 37> H 	 -28.5575 	 59.5308 	 116.741
| 38> H 	 -26.947 	 60.1859 	 116.78
| 39> H 	 -29.6944 	 61.7445 	 108.616
| 40> H 	 -31.0008 	 65.9954 	 115.426
| 41> *
| 42>
| 43>                          ****END OF INPUT****

CARTESIAN COORDINATES (ANGSTROEM)
---------------------------------
  S    -29.873300   63.299800  110.599000
  C    -29.935200   61.837900  109.660000
  C    -30.590400   60.841700  110.309000
  C    -30.940600   61.269300  111.671000
  C    -30.456100   62.477000  112.058000
  H    -31.361900   60.747500  112.488000
  C    -30.822500   59.486900  109.720000
  H    -30.230700   59.212000  108.866000
  H    -31.814200   59.498700  109.402000
  C    -30.706400   58.345300  110.827000
  H    -31.540700   58.434500  111.506000
  H    -30.980100   57.485500  110.325000
  C    -29.342000   58.206700  111.495000
  H    -29.066600   59.007700  112.143000
  H    -29.321800   57.285500  112.107000
  H    -28.437300   58.167500  110.849000
  S    -31.155600   64.803400  113.210000
  C    -30.796700   65.019100  114.929000
  C    -30.362400   63.864800  115.524000
  C    -30.267700   62.769600  114.671000
  C    -30.587300   63.177000  113.332000
  H    -30.225500   63.894100  116.642000
  C    -29.821600   61.458800  115.101000
  H    -29.910200   60.807200  114.332000
  H    -30.432300   61.204600  115.977000
  C    -28.353300   61.459200  115.566000
  H    -28.258900   62.158300  116.387000
  H    -27.813900   61.790700  114.710000
  C    -27.838800   60.078000  116.140000
  H    -27.402100   59.491800  115.351000
  H    -28.557500   59.530800  116.741000
  H    -26.947000   60.185900  116.780000
  H    -29.694400   61.744500  108.616000
  H    -31.000800   65.995400  115.426000

 Total Charge           Charge          ....    0
 Multiplicity           Mult            ....    1
 Number of Electrons    NEL             ....  134
 Basis Dimension        Dim             ....  322

ORBITAL ENERGIES
----------------

  NO   OCC          E(Eh)            E(eV)
   0   2.0000     -88.968166     -2420.9469
   1   2.0000     -88.956733     -2420.6358
   2   2.0000     -10.328525      -281.0534
   3   2.0000     -10.326116      -280.9879
   4   2.0000     -10.319028      -280.7950
   5   2.0000     -10.305922      -280.4384
   6   2.0000     -10.302715      -280.3511
   7   2.0000     -10.300190      -280.2824
   8   2.0000     -10.295300      -280.1494
   9   2.0000     -10.289665      -279.9960
  10   2.0000     -10.287877      -279.9474
  11   2.0000     -10.285613      -279.8858
  12   2.0000     -10.283984      -279.8414
  13   2.0000     -10.280901      -279.7575
  14   2.0000     -10.279768      -279.7267
  15   2.0000     -10.278166      -279.6831
  16   2.0000      -8.082994      -219.9494
  17   2.0000      -8.071771      -219.6440
  18   2.0000      -6.041283      -164.3917
  19   2.0000      -6.037575      -164.2908
  20   2.0000      -6.033888      -164.1905
  21   2.0000      -6.030413      -164.0959
  22   2.0000      -6.026395      -163.9865
  23   2.0000      -6.022187      -163.8720
  24   2.0000      -1.008386       -27.4396
  25   2.0000      -0.985180       -26.8081
  26   2.0000      -0.917891       -24.9771
  27   2.0000      -0.908997       -24.7351
  28   2.0000      -0.872037       -23.7293
  29   2.0000      -0.851149       -23.1609
  30   2.0000      -0.838389       -22.8137
  31   2.0000      -0.820226       -22.3195
  32   2.0000      -0.786573       -21.4037
  33   2.0000      -0.773196       -21.0397
  34   2.0000      -0.714751       -19.4494
  35   2.0000      -0.704417       -19.1682
  36   2.0000      -0.694452       -18.8970
  37   2.0000      -0.658607       -17.9216
  38   2.0000      -0.644963       -17.5503
  39   2.0000      -0.619779       -16.8650
  40   2.0000      -0.600442       -16.3388
  41   2.0000      -0.575342       -15.6559
  42   2.0000      -0.561146       -15.2696
  43   2.0000      -0.554547       -15.0900
  44   2.0000      -0.531637       -14.4666
  45   2.0000      -0.519894       -14.1470
  46   2.0000      -0.518271       -14.1029
  47   2.0000      -0.511041       -13.9061
  48   2.0000      -0.502683       -13.6787
  49   2.0000      -0.498106       -13.5542
  50   2.0000      -0.492014       -13.3884
  51   2.0000      -0.488989       -13.3061
  52   2.0000      -0.472135       -12.8474
  53   2.0000      -0.468512       -12.7489
  54   2.0000      -0.462833       -12.5943
  55   2.0000      -0.449576       -12.2336
  56   2.0000      -0.447761       -12.1842
  57   2.0000      -0.436959       -11.8903
  58   2.0000      -0.436089       -11.8666
  59   2.0000      -0.427838       -11.6421
  60   2.0000      -0.422702       -11.5023
  61   2.0000      -0.418435       -11.3862
  62   2.0000      -0.408969       -11.1286
  63   2.0000      -0.351442        -9.5632
  64   2.0000      -0.334457        -9.1010
  65   2.0000      -0.320365        -8.7176
  66   2.0000      -0.286825        -7.8049
  67   0.0000       0.028362         0.7718
  68   0.0000       0.074780         2.0349
  69   0.0000       0.105111         2.8602
  70   0.0000       0.125331         3.4104
  71   0.0000       0.136549         3.7157

MULLIKEN ATOMIC CHARGES
-----------------------
   0 S :    0.084360
   1 C :   -0.111026
   2 C :   -0.090115
   3 C :    0.044712
   4 C :   -0.156446
   5 H :   -0.003660
   6 C :    0.104807
   7 H :    0.022191
   8 H :    0.020572
   9 C :   -0.050217
  10 H :    0.022607
  11 H :    0.002304
  12 C :   -0.048253
  13 H :    0.030693
  14 H :    0.035429
  15 H :    0.031197
  16 S :    0.115212
  17 C :   -0.118124
  18 C :   -0.055679
  19 C :   -0.036980
  20 C :   -0.179012
  21 H :    0.039885
  22 C :    0.167167
  23 H :   -0.024009
  24 H :    0.026255
  25 C :   -0.095043
  26 H :    0.026323
  27 H :    0.033854
  28 C :   -0.039793
  29 H :    0.029132
  30 H :    0.033787
  31 H :    0.027975
  32 H :    0.040520
  33 H :    0.069374
Sum of atomic charges:   -0.0000000

LOEWDIN ATOMIC CHARGES
----------------------
   0 S :    0.377170
   1 C :   -0.196035
   2 C :   -0.061618
   3 C :   -0.065477
   4 C :   -0.183677
   5 H :    0.022391
   6 C :   -0.020565
   7 H :    0.028828
   8 H :    0.028319
   9 C :   -0.033267
  10 H :    0.023502
  11 H :    0.014540
  12 C :   -0.071000
  13 H :    0.020503
  14 H :    0.031000
  15 H :    0.031300
  16 S :    0.414944
  17 C :   -0.185537
  18 C :   -0.076313
  19 C :   -0.052349
  20 C :   -0.205226
  21 H :    0.043969
  22 C :   -0.024157
  23 H :    0.012218
  24 H :    0.037693
  25 C :   -0.025266
  26 H :    0.019711
  27 H :    0.024388
  28 C :   -0.071190
  29 H :    0.024263
  30 H :    0.024276
  31 H :    0.029773
  32 H :    0.028325
  33 H :    0.034566

  Mayer bond orders larger than 0.100000
B(  0-S ,  1-C ) :   1.1198 B(  0-S ,  4-C ) :   1.1187 B(  1-C ,  2-C ) :   1.6588
B(  1-C , 32-H ) :   0.9688 B(  2-C ,  3-C ) :   1.1708 B(  2-C ,  6-C ) :   1.0234
B(  3-C ,  4-C ) :   1.6311 B(  3-C ,  5-H ) :   0.9936 B(  4-C , 20-C ) :   1.0491
B(  6-C ,  7-H ) :   0.9487 B(  6-C ,  8-H ) :   0.9214 B(  6-C ,  9-C ) :   1.0896
B(  9-C , 10-H ) :   0.9482 B(  9-C , 11-H ) :   0.9525 B(  9-C , 12-C ) :   1.0684
B( 12-C , 13-H ) :   0.9736 B( 12-C , 14-H ) :   0.9740 B( 12-C , 15-H ) :   0.9733
B( 16-S , 17-C ) :   1.1476 B( 16-S , 20-C ) :   1.1742 B( 17-C , 18-C ) :   1.6027
B( 17-C , 20-C ) :   0.1056 B( 17-C , 33-H ) :   0.9637 B( 18-C , 19-C ) :   1.2561
B( 18-C , 21-H ) :   0.9795 B( 19-C , 20-C ) :   1.5255 B( 19-C , 22-C ) :   1.0773
B( 22-C , 23-H ) :   0.9132 B( 22-C , 24-H ) :   0.9128 B( 22-C , 25-C ) :   1.0659
B( 25-C , 26-H ) :   0.9614 B( 25-C , 27-H ) :   0.9595 B( 25-C , 28-C ) :   1.0732
B( 28-C , 29-H ) :   0.9763 B( 28-C , 30-H ) :   0.9755 B( 28-C , 31-H ) :   0.9756

Dispersion correction           -0.014704243
FINAL SINGLE POINT ENERGY     -1339.863133592934

DIPOLE MOMENT
-------------
                                X             Y             Z
Electronic contribution:     -9.03085      27.65591      -9.31951
Nuclear contribution   :      9.00595     -28.29107       9.63467
                        -----------------------------------------
Total Dipole Moment    :     -0.02490      -0.63516       0.31517
                        -----------------------------------------
Magnitude (a.u.)       :      0.70949
Magnitude (Debye)      :      1.80338

Rotational constants in cm-1:     0.016361     0.010612     0.007098
Rotational constants in MHz :   490.502040   318.129036   212.787275

                             ****ORCA TERMINATED NORMALLY****
TOTAL RUN TIME: 0 days 0 hours 0 minutes 30 seconds 989 msec
