                         Program Version 4.2.1 -  RELEASE  -
|  1> ! wB97X-D3 SP def2-SVP
|  2> %pal
|  3> nprocs 16
|  4> end
|  5>
|  6> * xyz 0 1
|  7> S 	 -3.07036 	 -13.1173 	 69.0011
|  8> C 	 -3.84978 	 -14.5492 	 68.3458
|  9> C 	 -5.00623 	 -14.286 	 67.5882
| 10> C 	 -5.28813 	 -12.9004 	 67.6628
| 11> C 	 -4.36737 	 -12.1715 	 68.3785
| 12> H 	 -6.06431 	 -12.4112 	 67.0505
| 13> C 	 -5.71792 	 -15.2144 	 66.6679
| 14> H 	 -5.00178 	 -15.9302 	 66.2802
| 15> H 	 -6.02943 	 -14.8014 	 65.7013
| 16> C 	 -6.83405 	 -16.1181 	 67.308
| 17> H 	 -7.40626 	 -16.524 	 66.4996
| 18> H 	 -6.41844 	 -16.9877 	 67.8509
| 19> C 	 -7.77011 	 -15.3465 	 68.2368
| 20> H 	 -7.89701 	 -14.3494 	 67.7832
| 21> H 	 -8.79791 	 -15.6295 	 68.3046
| 22> H 	 -7.35525 	 -15.2698 	 69.209
| 23> S 	 -5.6585 	 -9.98013 	 69.468
| 24> C 	 -4.95956 	 -8.41353 	 69.2724
| 25> C 	 -3.93497 	 -8.36048 	 68.328
| 26> C 	 -3.58552 	 -9.72824 	 67.9347
| 27> C 	 -4.37492 	 -10.7266 	 68.496
| 28> H 	 -3.57063 	 -7.43086 	 67.9578
| 29> C 	 -2.649 	 -10.0079 	 66.7721
| 30> H 	 -2.68851 	 -9.20875 	 66.0715
| 31> H 	 -3.02831 	 -10.8179 	 66.167
| 32> C 	 -1.12684 	 -10.0367 	 67.0528
| 33> H 	 -1.02995 	 -10.7737 	 67.9008
| 34> H 	 -0.841617 	 -9.03431 	 67.2702
| 35> C 	 -0.27317 	 -10.5504 	 65.8672
| 36> H 	 -0.48921 	 -11.6247 	 65.7231
| 37> H 	 0.77249 	 -10.5961 	 65.9905
| 38> H 	 -0.413402 	 -9.95818 	 64.925
| 39> H 	 -3.4174 	 -15.5608 	 68.4435
| 40> H 	 -5.32612 	 -7.54283 	 69.7865
| 41> *
| 42>
| 43>                          ****END OF INPUT****

CARTESIAN COORDINATES (ANGSTROEM)
---------------------------------
  S     -3.070360  -13.117300   69.001100
  C     -3.849780  -14.549200   68.345800
  C     -5.006230  -14.286000   67.588200
  C     -5.288130  -12.900400   67.662800
  C     -4.367370  -12.171500   68.378500
  H     -6.064310  -12.411200   67.050500
  C     -5.717920  -15.214400   66.667900
  H     -5.001780  -15.930200   66.280200
  H     -6.029430  -14.801400   65.701300
  C     -6.834050  -16.118100   67.308000
  H     -7.406260  -16.524000   66.499600
  H     -6.418440  -16.987700   67.850900
  C     -7.770110  -15.346500   68.236800
  H     -7.897010  -14.349400   67.783200
  H     -8.797910  -15.629500   68.304600
  H     -7.355250  -15.269800   69.209000
  S     -5.658500   -9.980130   69.468000
  C     -4.959560   -8.413530   69.272400
  C     -3.934970   -8.360480   68.328000
  C     -3.585520   -9.728240   67.934700
  C     -4.374920  -10.726600   68.496000
  H     -3.570630   -7.430860   67.957800
  C     -2.649000  -10.007900   66.772100
  H     -2.688510   -9.208750   66.071500
  H     -3.028310  -10.817900   66.167000
  C     -1.126840  -10.036700   67.052800
  H     -1.029950  -10.773700   67.900800
  H     -0.841617   -9.034310   67.270200
  C     -0.273170  -10.550400   65.867200
  H     -0.489210  -11.624700   65.723100
  H      0.772490  -10.596100   65.990500
  H     -0.413402   -9.958180   64.925000
  H     -3.417400  -15.560800   68.443500
  H     -5.326120   -7.542830   69.786500

 Total Charge           Charge          ....    0
 Multiplicity           Mult            ....    1
 Number of Electrons    NEL             ....  134
 Basis Dimension        Dim             ....  322

ORBITAL ENERGIES
----------------

  NO   OCC          E(Eh)            E(eV)
   0   2.0000     -88.973623     -2421.0954
   1   2.0000     -88.962971     -2420.8055
   2   2.0000     -10.324594      -280.9465
   3   2.0000     -10.324037      -280.9313
   4   2.0000     -10.319209      -280.7999
   5   2.0000     -10.316138      -280.7164
   6   2.0000     -10.306167      -280.4451
   7   2.0000     -10.303121      -280.3622
   8   2.0000     -10.296765      -280.1892
   9   2.0000     -10.294171      -280.1186
  10   2.0000     -10.292949      -280.0854
  11   2.0000     -10.287112      -279.9265
  12   2.0000     -10.285999      -279.8963
  13   2.0000     -10.281271      -279.7676
  14   2.0000     -10.276616      -279.6409
  15   2.0000     -10.267372      -279.3894
  16   2.0000      -8.088189      -220.0908
  17   2.0000      -8.077901      -219.8109
  18   2.0000      -6.046543      -164.5348
  19   2.0000      -6.042809      -164.4332
  20   2.0000      -6.039031      -164.3304
  21   2.0000      -6.036365      -164.2578
  22   2.0000      -6.032404      -164.1500
  23   2.0000      -6.028683      -164.0488
  24   2.0000      -1.007097       -27.4045
  25   2.0000      -0.981914       -26.7192
  26   2.0000      -0.911742       -24.8098
  27   2.0000      -0.902882       -24.5687
  28   2.0000      -0.866048       -23.5664
  29   2.0000      -0.851761       -23.1776
  30   2.0000      -0.844513       -22.9804
  31   2.0000      -0.811598       -22.0847
  32   2.0000      -0.786547       -21.4030
  33   2.0000      -0.770188       -20.9579
  34   2.0000      -0.704091       -19.1593
  35   2.0000      -0.700474       -19.0609
  36   2.0000      -0.689080       -18.7508
  37   2.0000      -0.662427       -18.0256
  38   2.0000      -0.639483       -17.4012
  39   2.0000      -0.616797       -16.7839
  40   2.0000      -0.593780       -16.1576
  41   2.0000      -0.575851       -15.6697
  42   2.0000      -0.566900       -15.4261
  43   2.0000      -0.550269       -14.9736
  44   2.0000      -0.542326       -14.7574
  45   2.0000      -0.521361       -14.1869
  46   2.0000      -0.511293       -13.9130
  47   2.0000      -0.507997       -13.8233
  48   2.0000      -0.499502       -13.5921
  49   2.0000      -0.492023       -13.3886
  50   2.0000      -0.489760       -13.3270
  51   2.0000      -0.477851       -13.0030
  52   2.0000      -0.471238       -12.8230
  53   2.0000      -0.464957       -12.6521
  54   2.0000      -0.458434       -12.4746
  55   2.0000      -0.452081       -12.3018
  56   2.0000      -0.443895       -12.0790
  57   2.0000      -0.438302       -11.9268
  58   2.0000      -0.425324       -11.5737
  59   2.0000      -0.421666       -11.4741
  60   2.0000      -0.421016       -11.4564
  61   2.0000      -0.416289       -11.3278
  62   2.0000      -0.406778       -11.0690
  63   2.0000      -0.339791        -9.2462
  64   2.0000      -0.332443        -9.0462
  65   2.0000      -0.325244        -8.8503
  66   2.0000      -0.296254        -8.0615
  67   0.0000       0.037881         1.0308
  68   0.0000       0.058727         1.5980
  69   0.0000       0.093322         2.5394
  70   0.0000       0.118107         3.2138
  71   0.0000       0.127999         3.4830

MULLIKEN ATOMIC CHARGES
-----------------------
   0 S :    0.143212
   1 C :   -0.136906
   2 C :   -0.061262
   3 C :    0.019089
   4 C :   -0.162320
   5 H :    0.026304
   6 C :    0.047316
   7 H :    0.017062
   8 H :    0.032598
   9 C :   -0.066217
  10 H :    0.020149
  11 H :    0.033853
  12 C :   -0.035712
  13 H :    0.013739
  14 H :    0.026544
  15 H :    0.040278
  16 S :    0.113255
  17 C :   -0.094023
  18 C :   -0.013066
  19 C :   -0.010322
  20 C :   -0.178766
  21 H :    0.014976
  22 C :    0.046446
  23 H :   -0.000825
  24 H :    0.024907
  25 C :   -0.057711
  26 H :    0.032105
  27 H :    0.024493
  28 C :   -0.054841
  29 H :    0.030282
  30 H :    0.023130
  31 H :    0.033665
  32 H :    0.053478
  33 H :    0.055089
Sum of atomic charges:    0.0000000

LOEWDIN ATOMIC CHARGES
----------------------
   0 S :    0.433253
   1 C :   -0.197565
   2 C :   -0.061995
   3 C :   -0.061087
   4 C :   -0.212491
   5 H :    0.036466
   6 C :   -0.038849
   7 H :    0.034465
   8 H :    0.035636
   9 C :   -0.035224
  10 H :    0.020805
  11 H :    0.024206
  12 C :   -0.068623
  13 H :    0.027476
  14 H :    0.023151
  15 H :    0.024292
  16 S :    0.406450
  17 C :   -0.184533
  18 C :   -0.066769
  19 C :   -0.050517
  20 C :   -0.198500
  21 H :    0.028886
  22 C :   -0.037646
  23 H :    0.024321
  24 H :    0.028327
  25 C :   -0.033661
  26 H :    0.023892
  27 H :    0.017444
  28 C :   -0.072771
  29 H :    0.029713
  30 H :    0.019324
  31 H :    0.027801
  32 H :    0.028972
  33 H :    0.025350

  Mayer bond orders larger than 0.100000
B(  0-S ,  1-C ) :   1.1554 B(  0-S ,  4-C ) :   1.1607 B(  1-C ,  2-C ) :   1.5898
B(  1-C , 32-H ) :   0.9614 B(  2-C ,  3-C ) :   1.2597 B(  2-C ,  6-C ) :   1.0276
B(  3-C ,  4-C ) :   1.5681 B(  3-C ,  5-H ) :   0.9869 B(  4-C , 20-C ) :   1.0272
B(  6-C ,  7-H ) :   0.9355 B(  6-C ,  8-H ) :   0.9466 B(  6-C ,  9-C ) :   1.0689
B(  9-C , 10-H ) :   0.9553 B(  9-C , 11-H ) :   0.9622 B(  9-C , 12-C ) :   1.0804
B( 12-C , 13-H ) :   0.9741 B( 12-C , 14-H ) :   0.9747 B( 12-C , 15-H ) :   0.9717
B( 16-S , 17-C ) :   1.1732 B( 16-S , 20-C ) :   1.1247 B( 17-C , 18-C ) :   1.6069
B( 17-C , 33-H ) :   0.9670 B( 18-C , 19-C ) :   1.2194 B( 18-C , 21-H ) :   0.9970
B( 19-C , 20-C ) :   1.6108 B( 19-C , 22-C ) :   1.0455 B( 22-C , 23-H ) :   0.9359
B( 22-C , 24-H ) :   0.9450 B( 22-C , 25-C ) :   1.0407 B( 25-C , 26-H ) :   0.9578
B( 25-C , 27-H ) :   0.9598 B( 25-C , 28-C ) :   1.0830 B( 28-C , 29-H ) :   0.9738
B( 28-C , 30-H ) :   0.9748 B( 28-C , 31-H ) :   0.9737

Dispersion correction           -0.014741484
FINAL SINGLE POINT ENERGY     -1339.870459891896

DIPOLE MOMENT
-------------
                                X             Y             Z
Electronic contribution:     -2.00932       8.90902      14.63890
Nuclear contribution   :      1.99449      -8.99621     -15.22122
                        -----------------------------------------
Total Dipole Moment    :     -0.01483      -0.08718      -0.58232
                        -----------------------------------------
Magnitude (a.u.)       :      0.58900
Magnitude (Debye)      :      1.49711

Rotational constants in cm-1:     0.018980     0.008761     0.006803
Rotational constants in MHz :   569.003323   262.637638   203.937761

                             ****ORCA TERMINATED NORMALLY****
TOTAL RUN TIME: 0 days 0 hours 0 minutes 34 seconds 138 msec
