                         Program Version 4.2.1 -  RELEASE  -
|  1> ! wB97X-D3 SP def2-SVP
|  2> %pal
|  3> nprocs 16
|  4> end
|  5>
|  6> * xyz 0 1
|  7> S 	 7.57053 	 26.7654 	 63.3864
|  8> C 	 8.56042 	 25.5184 	 64.2008
|  9> C 	 7.88261 	 24.4402 	 64.6277
| 10> C 	 6.45583 	 24.567 	 64.4251
| 11> C 	 6.16589 	 25.7292 	 63.7547
| 12> H 	 5.73944 	 23.8068 	 64.7959
| 13> C 	 8.57354 	 23.2332 	 65.1942
| 14> H 	 8.54059 	 23.4037 	 66.291
| 15> H 	 9.59243 	 23.1403 	 64.8382
| 16> C 	 7.91843 	 21.8901 	 64.9169
| 17> H 	 8.40434 	 21.1366 	 65.5516
| 18> H 	 6.90344 	 21.8955 	 65.2871
| 19> C 	 8.05974 	 21.5806 	 63.3902
| 20> H 	 7.78329 	 20.5314 	 63.1534
| 21> H 	 7.35023 	 22.1565 	 62.8426
| 22> H 	 8.98613 	 21.6652 	 62.9312
| 23> S 	 4.61904 	 27.9605 	 63.7201
| 24> C 	 2.93064 	 27.9649 	 63.2511
| 25> C 	 2.63384 	 26.6773 	 62.8258
| 26> C 	 3.7416 	 25.7418 	 62.9084
| 27> C 	 4.89565 	 26.283 	 63.3959
| 28> H 	 1.59607 	 26.3746 	 62.5464
| 29> C 	 3.57742 	 24.3163 	 62.6361
| 30> H 	 4.55578 	 23.892 	 62.6026
| 31> H 	 3.2662 	 24.198 	 61.5956
| 32> C 	 2.61681 	 23.5019 	 63.508
| 33> H 	 1.63092 	 23.9076 	 63.4759
| 34> H 	 2.95925 	 23.6473 	 64.5816
| 35> C 	 2.66969 	 22.0288 	 63.3157
| 36> H 	 3.76723 	 21.7091 	 63.3059
| 37> H 	 2.19026 	 21.731 	 62.3762
| 38> H 	 2.18406 	 21.415 	 64.0614
| 39> H 	 9.62898 	 25.6837 	 64.3363
| 40> H 	 2.19697 	 28.7125 	 63.3875
| 41> *
| 42>
| 43>                          ****END OF INPUT****

CARTESIAN COORDINATES (ANGSTROEM)
---------------------------------
  S      7.570530   26.765400   63.386400
  C      8.560420   25.518400   64.200800
  C      7.882610   24.440200   64.627700
  C      6.455830   24.567000   64.425100
  C      6.165890   25.729200   63.754700
  H      5.739440   23.806800   64.795900
  C      8.573540   23.233200   65.194200
  H      8.540590   23.403700   66.291000
  H      9.592430   23.140300   64.838200
  C      7.918430   21.890100   64.916900
  H      8.404340   21.136600   65.551600
  H      6.903440   21.895500   65.287100
  C      8.059740   21.580600   63.390200
  H      7.783290   20.531400   63.153400
  H      7.350230   22.156500   62.842600
  H      8.986130   21.665200   62.931200
  S      4.619040   27.960500   63.720100
  C      2.930640   27.964900   63.251100
  C      2.633840   26.677300   62.825800
  C      3.741600   25.741800   62.908400
  C      4.895650   26.283000   63.395900
  H      1.596070   26.374600   62.546400
  C      3.577420   24.316300   62.636100
  H      4.555780   23.892000   62.602600
  H      3.266200   24.198000   61.595600
  C      2.616810   23.501900   63.508000
  H      1.630920   23.907600   63.475900
  H      2.959250   23.647300   64.581600
  C      2.669690   22.028800   63.315700
  H      3.767230   21.709100   63.305900
  H      2.190260   21.731000   62.376200
  H      2.184060   21.415000   64.061400
  H      9.628980   25.683700   64.336300
  H      2.196970   28.712500   63.387500

 Total Charge           Charge          ....    0
 Multiplicity           Mult            ....    1
 Number of Electrons    NEL             ....  134
 Basis Dimension        Dim             ....  322

ORBITAL ENERGIES
----------------

  NO   OCC          E(Eh)            E(eV)
   0   2.0000     -88.965794     -2420.8823
   1   2.0000     -88.960610     -2420.7413
   2   2.0000     -10.333884      -281.1993
   3   2.0000     -10.320006      -280.8216
   4   2.0000     -10.317613      -280.7565
   5   2.0000     -10.310187      -280.5544
   6   2.0000     -10.302803      -280.3535
   7   2.0000     -10.298531      -280.2373
   8   2.0000     -10.298268      -280.2301
   9   2.0000     -10.296269      -280.1757
  10   2.0000     -10.292374      -280.0697
  11   2.0000     -10.291998      -280.0595
  12   2.0000     -10.287018      -279.9240
  13   2.0000     -10.282470      -279.8002
  14   2.0000     -10.281120      -279.7635
  15   2.0000     -10.274214      -279.5756
  16   2.0000      -8.079872      -219.8645
  17   2.0000      -8.075794      -219.7535
  18   2.0000      -6.038463      -164.3149
  19   2.0000      -6.034772      -164.2145
  20   2.0000      -6.034422      -164.2050
  21   2.0000      -6.030266      -164.0919
  22   2.0000      -6.030095      -164.0872
  23   2.0000      -6.026486      -163.9890
  24   2.0000      -1.010800       -27.5053
  25   2.0000      -0.983651       -26.7665
  26   2.0000      -0.917444       -24.9649
  27   2.0000      -0.915485       -24.9116
  28   2.0000      -0.873500       -23.7691
  29   2.0000      -0.856059       -23.2946
  30   2.0000      -0.841226       -22.8909
  31   2.0000      -0.819280       -22.2937
  32   2.0000      -0.784070       -21.3356
  33   2.0000      -0.773402       -21.0453
  34   2.0000      -0.717487       -19.5238
  35   2.0000      -0.702104       -19.1052
  36   2.0000      -0.696263       -18.9463
  37   2.0000      -0.660925       -17.9847
  38   2.0000      -0.638466       -17.3736
  39   2.0000      -0.627954       -17.0875
  40   2.0000      -0.599641       -16.3171
  41   2.0000      -0.566997       -15.4288
  42   2.0000      -0.565157       -15.3787
  43   2.0000      -0.559245       -15.2178
  44   2.0000      -0.538842       -14.6626
  45   2.0000      -0.530138       -14.4258
  46   2.0000      -0.519644       -14.1402
  47   2.0000      -0.516465       -14.0537
  48   2.0000      -0.511046       -13.9063
  49   2.0000      -0.496595       -13.5130
  50   2.0000      -0.487837       -13.2747
  51   2.0000      -0.482464       -13.1285
  52   2.0000      -0.478705       -13.0262
  53   2.0000      -0.465353       -12.6629
  54   2.0000      -0.457400       -12.4465
  55   2.0000      -0.455244       -12.3878
  56   2.0000      -0.448580       -12.2065
  57   2.0000      -0.439169       -11.9504
  58   2.0000      -0.431674       -11.7464
  59   2.0000      -0.426386       -11.6026
  60   2.0000      -0.419505       -11.4153
  61   2.0000      -0.415327       -11.3016
  62   2.0000      -0.406792       -11.0694
  63   2.0000      -0.353081        -9.6078
  64   2.0000      -0.331894        -9.0313
  65   2.0000      -0.324211        -8.8222
  66   2.0000      -0.291850        -7.9416
  67   0.0000       0.028862         0.7854
  68   0.0000       0.073694         2.0053
  69   0.0000       0.098874         2.6905
  70   0.0000       0.115961         3.1555
  71   0.0000       0.121425         3.3041

MULLIKEN ATOMIC CHARGES
-----------------------
   0 S :    0.096753
   1 C :   -0.144772
   2 C :   -0.067027
   3 C :    0.002155
   4 C :   -0.128926
   5 H :    0.029118
   6 C :    0.056137
   7 H :    0.045458
   8 H :    0.028386
   9 C :   -0.068546
  10 H :    0.031222
  11 H :    0.020730
  12 C :   -0.028924
  13 H :    0.025200
  14 H :    0.031543
  15 H :    0.020725
  16 S :    0.091099
  17 C :   -0.071236
  18 C :   -0.048974
  19 C :   -0.053007
  20 C :   -0.117873
  21 H :    0.031776
  22 C :    0.077721
  23 H :   -0.002875
  24 H :    0.017156
  25 C :   -0.061234
  26 H :    0.020812
  27 H :    0.025039
  28 C :   -0.048442
  29 H :    0.031804
  30 H :    0.028124
  31 H :    0.035493
  32 H :    0.046170
  33 H :    0.049213
Sum of atomic charges:   -0.0000000

LOEWDIN ATOMIC CHARGES
----------------------
   0 S :    0.369411
   1 C :   -0.180491
   2 C :   -0.064591
   3 C :   -0.062799
   4 C :   -0.165245
   5 H :    0.039284
   6 C :   -0.031976
   7 H :    0.038712
   8 H :    0.030169
   9 C :   -0.037706
  10 H :    0.027535
  11 H :    0.019193
  12 C :   -0.060781
  13 H :    0.029388
  14 H :    0.023672
  15 H :    0.017860
  16 S :    0.407975
  17 C :   -0.180891
  18 C :   -0.071441
  19 C :   -0.063461
  20 C :   -0.206780
  21 H :    0.034380
  22 C :   -0.038390
  23 H :    0.024101
  24 H :    0.032405
  25 C :   -0.042629
  26 H :    0.018120
  27 H :    0.027985
  28 C :   -0.068279
  29 H :    0.032432
  30 H :    0.023281
  31 H :    0.025769
  32 H :    0.026178
  33 H :    0.027609

  Mayer bond orders larger than 0.100000
B(  0-S ,  1-C ) :   1.0988 B(  0-S ,  4-C ) :   1.1337 B(  1-C ,  2-C ) :   1.6842
B(  1-C , 32-H ) :   0.9662 B(  2-C ,  3-C ) :   1.1879 B(  2-C ,  6-C ) :   1.0091
B(  3-C ,  4-C ) :   1.6038 B(  3-C ,  5-H ) :   0.9862 B(  4-C , 20-C ) :   1.0448
B(  6-C ,  7-H ) :   0.9264 B(  6-C ,  8-H ) :   0.9507 B(  6-C ,  9-C ) :   1.0938
B(  9-C , 10-H ) :   0.9542 B(  9-C , 11-H ) :   0.9492 B(  9-C , 12-C ) :   1.0628
B( 12-C , 13-H ) :   0.9739 B( 12-C , 14-H ) :   0.9751 B( 12-C , 15-H ) :   0.9779
B( 16-S , 17-C ) :   1.1493 B( 16-S , 20-C ) :   1.1279 B( 17-C , 18-C ) :   1.5990
B( 17-C , 33-H ) :   0.9764 B( 18-C , 19-C ) :   1.2330 B( 18-C , 21-H ) :   0.9832
B( 19-C , 20-C ) :   1.5993 B( 19-C , 22-C ) :   1.0829 B( 22-C , 23-H ) :   0.9224
B( 22-C , 24-H ) :   0.9114 B( 22-C , 25-C ) :   1.0581 B( 25-C , 26-H ) :   0.9503
B( 25-C , 27-H ) :   0.9512 B( 25-C , 28-C ) :   1.0915 B( 28-C , 29-H ) :   0.9708
B( 28-C , 30-H ) :   0.9721 B( 28-C , 31-H ) :   0.9734

Dispersion correction           -0.014973295
FINAL SINGLE POINT ENERGY     -1339.881980083223

DIPOLE MOMENT
-------------
                                X             Y             Z
Electronic contribution:      3.65065      31.27755      -1.18385
Nuclear contribution   :     -3.84183     -32.02788       1.38056
                        -----------------------------------------
Total Dipole Moment    :     -0.19119      -0.75034       0.19672
                        -----------------------------------------
Magnitude (a.u.)       :      0.79891
Magnitude (Debye)      :      2.03067

Rotational constants in cm-1:     0.017192     0.010723     0.007009
Rotational constants in MHz :   515.396278   321.452927   210.128376

                             ****ORCA TERMINATED NORMALLY****
TOTAL RUN TIME: 0 days 0 hours 0 minutes 36 seconds 800 msec
