                         Program Version 4.2.1 -  RELEASE  -
|  1> ! wB97X-D3 SP def2-SVP
|  2> %pal
|  3> nprocs 16
|  4> end
|  5>
|  6> * xyz 0 1
|  7> S 	 -35.0809 	 67.7178 	 142.108
|  8> C 	 -34.0138 	 68.9312 	 142.752
|  9> C 	 -34.6812 	 69.666 	 143.746
| 10> C 	 -35.8607 	 68.9651 	 144.127
| 11> C 	 -36.2507 	 67.9303 	 143.347
| 12> H 	 -36.5215 	 69.345 	 144.834
| 13> C 	 -34.1111 	 70.8489 	 144.48
| 14> H 	 -33.1468 	 70.5086 	 144.759
| 15> H 	 -34.7005 	 70.921 	 145.407
| 16> C 	 -34.0651 	 72.1944 	 143.713
| 17> H 	 -35.0881 	 72.4124 	 143.338
| 18> H 	 -33.7927 	 73.0385 	 144.373
| 19> C 	 -33.0614 	 72.2228 	 142.593
| 20> H 	 -32.0884 	 72.1427 	 142.94
| 21> H 	 -33.2908 	 71.43 	 141.872
| 22> H 	 -33.0966 	 73.2122 	 142.108
| 23> S 	 -38.7081 	 67.7229 	 142.179
| 24> C 	 -39.7312 	 66.3251 	 142.544
| 25> C 	 -39.2754 	 65.7081 	 143.713
| 26> C 	 -38.0526 	 66.2533 	 144.26
| 27> C 	 -37.5108 	 67.1756 	 143.35
| 28> H 	 -39.7735 	 64.8644 	 144.146
| 29> C 	 -37.3521 	 65.6376 	 145.465
| 30> H 	 -38.1227 	 65.189 	 146.122
| 31> H 	 -36.7376 	 66.4123 	 145.96
| 32> C 	 -36.3583 	 64.5159 	 145.194
| 33> H 	 -35.5914 	 64.7683 	 144.436
| 34> H 	 -36.8329 	 63.6113 	 144.736
| 35> C 	 -35.7106 	 64.1384 	 146.458
| 36> H 	 -35.2031 	 65.0826 	 146.814
| 37> H 	 -34.9722 	 63.3564 	 146.449
| 38> H 	 -36.3844 	 63.8103 	 147.254
| 39> H 	 -33.0759 	 69.1404 	 142.204
| 40> H 	 -40.8049 	 66.2293 	 142.226
| 41> *
| 42>
| 43>                          ****END OF INPUT****

CARTESIAN COORDINATES (ANGSTROEM)
---------------------------------
  S    -35.080900   67.717800  142.108000
  C    -34.013800   68.931200  142.752000
  C    -34.681200   69.666000  143.746000
  C    -35.860700   68.965100  144.127000
  C    -36.250700   67.930300  143.347000
  H    -36.521500   69.345000  144.834000
  C    -34.111100   70.848900  144.480000
  H    -33.146800   70.508600  144.759000
  H    -34.700500   70.921000  145.407000
  C    -34.065100   72.194400  143.713000
  H    -35.088100   72.412400  143.338000
  H    -33.792700   73.038500  144.373000
  C    -33.061400   72.222800  142.593000
  H    -32.088400   72.142700  142.940000
  H    -33.290800   71.430000  141.872000
  H    -33.096600   73.212200  142.108000
  S    -38.708100   67.722900  142.179000
  C    -39.731200   66.325100  142.544000
  C    -39.275400   65.708100  143.713000
  C    -38.052600   66.253300  144.260000
  C    -37.510800   67.175600  143.350000
  H    -39.773500   64.864400  144.146000
  C    -37.352100   65.637600  145.465000
  H    -38.122700   65.189000  146.122000
  H    -36.737600   66.412300  145.960000
  C    -36.358300   64.515900  145.194000
  H    -35.591400   64.768300  144.436000
  H    -36.832900   63.611300  144.736000
  C    -35.710600   64.138400  146.458000
  H    -35.203100   65.082600  146.814000
  H    -34.972200   63.356400  146.449000
  H    -36.384400   63.810300  147.254000
  H    -33.075900   69.140400  142.204000
  H    -40.804900   66.229300  142.226000

 Total Charge           Charge          ....    0
 Multiplicity           Mult            ....    1
 Number of Electrons    NEL             ....  134
 Basis Dimension        Dim             ....  322

ORBITAL ENERGIES
----------------

  NO   OCC          E(Eh)            E(eV)
   0   2.0000     -88.965616     -2420.8775
   1   2.0000     -88.962260     -2420.7862
   2   2.0000     -10.330525      -281.1079
   3   2.0000     -10.323492      -280.9165
   4   2.0000     -10.321611      -280.8653
   5   2.0000     -10.317624      -280.7568
   6   2.0000     -10.308434      -280.5068
   7   2.0000     -10.303136      -280.3626
   8   2.0000     -10.296737      -280.1885
   9   2.0000     -10.296731      -280.1883
  10   2.0000     -10.290557      -280.0203
  11   2.0000     -10.289897      -280.0023
  12   2.0000     -10.285508      -279.8829
  13   2.0000     -10.283137      -279.8184
  14   2.0000     -10.274248      -279.5765
  15   2.0000     -10.271881      -279.5121
  16   2.0000      -8.079812      -219.8629
  17   2.0000      -8.078008      -219.8138
  18   2.0000      -6.038325      -164.3112
  19   2.0000      -6.036344      -164.2573
  20   2.0000      -6.034535      -164.2080
  21   2.0000      -6.032209      -164.1448
  22   2.0000      -6.030452      -164.0969
  23   2.0000      -6.029043      -164.0586
  24   2.0000      -1.009428       -27.4679
  25   2.0000      -0.982495       -26.7350
  26   2.0000      -0.916094       -24.9282
  27   2.0000      -0.914131       -24.8748
  28   2.0000      -0.866857       -23.5884
  29   2.0000      -0.852914       -23.2090
  30   2.0000      -0.850518       -23.1438
  31   2.0000      -0.813708       -22.1421
  32   2.0000      -0.784004       -21.3338
  33   2.0000      -0.769184       -20.9305
  34   2.0000      -0.704339       -19.1660
  35   2.0000      -0.695561       -18.9272
  36   2.0000      -0.687026       -18.6949
  37   2.0000      -0.659783       -17.9536
  38   2.0000      -0.648805       -17.6549
  39   2.0000      -0.621286       -16.9060
  40   2.0000      -0.596276       -16.2255
  41   2.0000      -0.573742       -15.6123
  42   2.0000      -0.569631       -15.5004
  43   2.0000      -0.545313       -14.8387
  44   2.0000      -0.544022       -14.8036
  45   2.0000      -0.524911       -14.2836
  46   2.0000      -0.521252       -14.1840
  47   2.0000      -0.514388       -13.9972
  48   2.0000      -0.499828       -13.6010
  49   2.0000      -0.496381       -13.5072
  50   2.0000      -0.493007       -13.4154
  51   2.0000      -0.478731       -13.0269
  52   2.0000      -0.471661       -12.8345
  53   2.0000      -0.466133       -12.6841
  54   2.0000      -0.452432       -12.3113
  55   2.0000      -0.449326       -12.2268
  56   2.0000      -0.441199       -12.0056
  57   2.0000      -0.436059       -11.8658
  58   2.0000      -0.432846       -11.7783
  59   2.0000      -0.429292       -11.6816
  60   2.0000      -0.423672       -11.5287
  61   2.0000      -0.412912       -11.2359
  62   2.0000      -0.410654       -11.1745
  63   2.0000      -0.338243        -9.2041
  64   2.0000      -0.328730        -8.9452
  65   2.0000      -0.324815        -8.8387
  66   2.0000      -0.302373        -8.2280
  67   0.0000       0.035983         0.9791
  68   0.0000       0.052714         1.4344
  69   0.0000       0.103319         2.8114
  70   0.0000       0.122299         3.3279
  71   0.0000       0.129945         3.5360

MULLIKEN ATOMIC CHARGES
-----------------------
   0 S :    0.114911
   1 C :   -0.147370
   2 C :   -0.114811
   3 C :    0.067133
   4 C :   -0.171607
   5 H :   -0.015946
   6 C :    0.085056
   7 H :    0.023333
   8 H :    0.020771
   9 C :   -0.069225
  10 H :    0.033356
  11 H :    0.032053
  12 C :   -0.036638
  13 H :    0.012846
  14 H :    0.036996
  15 H :    0.034283
  16 S :    0.108811
  17 C :   -0.097636
  18 C :   -0.050537
  19 C :    0.015526
  20 C :   -0.182398
  21 H :    0.015078
  22 C :    0.042647
  23 H :    0.030139
  24 H :    0.028941
  25 C :   -0.062726
  26 H :    0.035007
  27 H :    0.022572
  28 C :   -0.043687
  29 H :    0.027097
  30 H :    0.028435
  31 H :    0.023049
  32 H :    0.072495
  33 H :    0.082044
Sum of atomic charges:    0.0000000

LOEWDIN ATOMIC CHARGES
----------------------
   0 S :    0.428970
   1 C :   -0.205110
   2 C :   -0.061900
   3 C :   -0.062168
   4 C :   -0.216170
   5 H :    0.020211
   6 C :   -0.030777
   7 H :    0.028512
   8 H :    0.033139
   9 C :   -0.039229
  10 H :    0.027580
  11 H :    0.027125
  12 C :   -0.063122
  13 H :    0.013568
  14 H :    0.025146
  15 H :    0.032338
  16 S :    0.398502
  17 C :   -0.199711
  18 C :   -0.064716
  19 C :   -0.051611
  20 C :   -0.191980
  21 H :    0.026308
  22 C :   -0.031595
  23 H :    0.036505
  24 H :    0.034772
  25 C :   -0.048674
  26 H :    0.028978
  27 H :    0.023663
  28 C :   -0.069492
  29 H :    0.030317
  30 H :    0.022767
  31 H :    0.023471
  32 H :    0.031495
  33 H :    0.042890

  Mayer bond orders larger than 0.100000
B(  0-S ,  1-C ) :   1.1696 B(  0-S ,  4-C ) :   1.1666 B(  1-C ,  2-C ) :   1.5545
B(  1-C ,  4-C ) :   0.1025 B(  1-C , 32-H ) :   0.9645 B(  2-C ,  3-C ) :   1.2756
B(  2-C ,  6-C ) :   1.0106 B(  3-C ,  4-C ) :   1.5782 B(  3-C ,  5-H ) :   1.0020
B(  4-C , 20-C ) :   1.0019 B(  6-C ,  7-H ) :   0.9428 B(  6-C ,  8-H ) :   0.9402
B(  6-C ,  9-C ) :   1.0616 B(  9-C , 10-H ) :   0.9562 B(  9-C , 11-H ) :   0.9553
B(  9-C , 12-C ) :   1.0879 B( 12-C , 13-H ) :   0.9737 B( 12-C , 14-H ) :   0.9713
B( 12-C , 15-H ) :   0.9686 B( 16-S , 17-C ) :   1.1363 B( 16-S , 20-C ) :   1.1700
B( 17-C , 18-C ) :   1.6132 B( 17-C , 20-C ) :   0.1062 B( 17-C , 33-H ) :   0.9574
B( 18-C , 19-C ) :   1.2400 B( 18-C , 21-H ) :   0.9866 B( 19-C , 20-C ) :   1.5735
B( 19-C , 22-C ) :   1.0596 B( 22-C , 23-H ) :   0.9316 B( 22-C , 24-H ) :   0.9309
B( 22-C , 25-C ) :   1.0684 B( 25-C , 26-H ) :   0.9505 B( 25-C , 27-H ) :   0.9478
B( 25-C , 28-C ) :   1.0878 B( 28-C , 29-H ) :   0.9705 B( 28-C , 30-H ) :   0.9705
B( 28-C , 31-H ) :   0.9706

Dispersion correction           -0.014094384
FINAL SINGLE POINT ENERGY     -1339.874933678532

DIPOLE MOMENT
-------------
                                X             Y             Z
Electronic contribution:    -13.06746      -3.54401     -14.74308
Nuclear contribution   :     13.18791       3.70542      15.26004
                        -----------------------------------------
Total Dipole Moment    :      0.12045       0.16141       0.51696
                        -----------------------------------------
Magnitude (a.u.)       :      0.55480
Magnitude (Debye)      :      1.41020

Rotational constants in cm-1:     0.020620     0.007908     0.006570
Rotational constants in MHz :   618.186661   237.073655   196.966908

                             ****ORCA TERMINATED NORMALLY****
TOTAL RUN TIME: 0 days 0 hours 0 minutes 33 seconds 485 msec
