                         Program Version 4.2.1 -  RELEASE  -
|  1> ! wB97X-D3 SP def2-SVP
|  2> %pal
|  3> nprocs 16
|  4> end
|  5>
|  6> * xyz 0 1
|  7> S 	 69.5436 	 19.3524 	 76.1599
|  8> C 	 68.5605 	 17.9187 	 76.0799
|  9> C 	 67.241 	 18.1957 	 76.0439
| 10> C 	 66.9828 	 19.6354 	 76.0832
| 11> C 	 68.1341 	 20.3821 	 76.0378
| 12> H 	 66.1284 	 20.119 	 75.7516
| 13> C 	 66.1837 	 17.1353 	 75.8717
| 14> H 	 66.5315 	 16.4425 	 75.1162
| 15> H 	 65.1863 	 17.5848 	 75.6962
| 16> C 	 65.8495 	 16.4458 	 77.1628
| 17> H 	 66.7525 	 15.9732 	 77.6263
| 18> H 	 65.6063 	 17.3104 	 77.8508
| 19> C 	 64.8229 	 15.2527 	 77.1067
| 20> H 	 63.8419 	 15.5908 	 76.6939
| 21> H 	 65.1783 	 14.4882 	 76.4019
| 22> H 	 64.6065 	 14.8382 	 78.111
| 23> S 	 67.6706 	 22.8289 	 77.0223
| 24> C 	 68.5111 	 24.2141 	 76.3283
| 25> C 	 69.128 	 23.9202 	 75.1866
| 26> C 	 68.9392 	 22.5519 	 74.7932
| 27> C 	 68.2366 	 21.8001 	 75.7781
| 28> H 	 69.7113 	 24.6719 	 74.7212
| 29> C 	 69.5832 	 21.9743 	 73.5582
| 30> H 	 69.6585 	 20.8666 	 73.7313
| 31> H 	 70.6727 	 22.2952 	 73.5703
| 32> C 	 68.907 	 22.0757 	 72.1888
| 33> H 	 68.0107 	 21.4461 	 72.0868
| 34> H 	 69.5879 	 21.6944 	 71.3957
| 35> C 	 68.549 	 23.5302 	 71.745
| 36> H 	 69.5443 	 23.8781 	 71.5585
| 37> H 	 68.1854 	 24.3035 	 72.4498
| 38> H 	 67.9518 	 23.5463 	 70.8183
| 39> H 	 68.9246 	 16.8406 	 76.0772
| 40> H 	 68.4318 	 25.2331 	 76.7684
| 41> *
| 42>
| 43>                          ****END OF INPUT****

CARTESIAN COORDINATES (ANGSTROEM)
---------------------------------
  S     69.543600   19.352400   76.159900
  C     68.560500   17.918700   76.079900
  C     67.241000   18.195700   76.043900
  C     66.982800   19.635400   76.083200
  C     68.134100   20.382100   76.037800
  H     66.128400   20.119000   75.751600
  C     66.183700   17.135300   75.871700
  H     66.531500   16.442500   75.116200
  H     65.186300   17.584800   75.696200
  C     65.849500   16.445800   77.162800
  H     66.752500   15.973200   77.626300
  H     65.606300   17.310400   77.850800
  C     64.822900   15.252700   77.106700
  H     63.841900   15.590800   76.693900
  H     65.178300   14.488200   76.401900
  H     64.606500   14.838200   78.111000
  S     67.670600   22.828900   77.022300
  C     68.511100   24.214100   76.328300
  C     69.128000   23.920200   75.186600
  C     68.939200   22.551900   74.793200
  C     68.236600   21.800100   75.778100
  H     69.711300   24.671900   74.721200
  C     69.583200   21.974300   73.558200
  H     69.658500   20.866600   73.731300
  H     70.672700   22.295200   73.570300
  C     68.907000   22.075700   72.188800
  H     68.010700   21.446100   72.086800
  H     69.587900   21.694400   71.395700
  C     68.549000   23.530200   71.745000
  H     69.544300   23.878100   71.558500
  H     68.185400   24.303500   72.449800
  H     67.951800   23.546300   70.818300
  H     68.924600   16.840600   76.077200
  H     68.431800   25.233100   76.768400

 Total Charge           Charge          ....    0
 Multiplicity           Mult            ....    1
 Number of Electrons    NEL             ....  134
 Basis Dimension        Dim             ....  322

ORBITAL ENERGIES
----------------

  NO   OCC          E(Eh)            E(eV)
   0   2.0000     -88.967008     -2420.9154
   1   2.0000     -88.963522     -2420.8205
   2   2.0000     -10.329071      -281.0683
   3   2.0000     -10.325871      -280.9812
   4   2.0000     -10.315853      -280.7086
   5   2.0000     -10.314912      -280.6830
   6   2.0000     -10.308621      -280.5118
   7   2.0000     -10.300305      -280.2856
   8   2.0000     -10.295103      -280.1440
   9   2.0000     -10.291522      -280.0466
  10   2.0000     -10.291371      -280.0425
  11   2.0000     -10.291317      -280.0410
  12   2.0000     -10.290740      -280.0253
  13   2.0000     -10.289473      -279.9908
  14   2.0000     -10.288301      -279.9589
  15   2.0000     -10.274092      -279.5723
  16   2.0000      -8.081633      -219.9124
  17   2.0000      -8.079082      -219.8430
  18   2.0000      -6.040247      -164.3635
  19   2.0000      -6.037520      -164.2893
  20   2.0000      -6.036125      -164.2513
  21   2.0000      -6.033426      -164.1779
  22   2.0000      -6.032293      -164.1470
  23   2.0000      -6.029894      -164.0818
  24   2.0000      -1.011478       -27.5237
  25   2.0000      -0.988638       -26.9022
  26   2.0000      -0.915761       -24.9191
  27   2.0000      -0.902623       -24.5616
  28   2.0000      -0.876844       -23.8601
  29   2.0000      -0.847387       -23.0586
  30   2.0000      -0.841804       -22.9067
  31   2.0000      -0.821348       -22.3500
  32   2.0000      -0.783020       -21.3071
  33   2.0000      -0.769309       -20.9340
  34   2.0000      -0.709396       -19.3036
  35   2.0000      -0.690951       -18.8017
  36   2.0000      -0.686188       -18.6721
  37   2.0000      -0.661456       -17.9991
  38   2.0000      -0.642855       -17.4930
  39   2.0000      -0.616228       -16.7684
  40   2.0000      -0.588334       -16.0094
  41   2.0000      -0.579997       -15.7825
  42   2.0000      -0.564231       -15.3535
  43   2.0000      -0.549079       -14.9412
  44   2.0000      -0.541329       -14.7303
  45   2.0000      -0.521248       -14.1839
  46   2.0000      -0.517925       -14.0935
  47   2.0000      -0.512382       -13.9426
  48   2.0000      -0.503237       -13.6938
  49   2.0000      -0.495649       -13.4873
  50   2.0000      -0.487979       -13.2786
  51   2.0000      -0.478784       -13.0284
  52   2.0000      -0.471656       -12.8344
  53   2.0000      -0.467700       -12.7268
  54   2.0000      -0.458320       -12.4715
  55   2.0000      -0.446987       -12.1631
  56   2.0000      -0.445480       -12.1221
  57   2.0000      -0.435448       -11.8492
  58   2.0000      -0.432616       -11.7721
  59   2.0000      -0.424405       -11.5486
  60   2.0000      -0.419959       -11.4277
  61   2.0000      -0.407296       -11.0831
  62   2.0000      -0.399133       -10.8610
  63   2.0000      -0.348817        -9.4918
  64   2.0000      -0.333775        -9.0825
  65   2.0000      -0.324352        -8.8261
  66   2.0000      -0.299303        -8.1445
  67   0.0000       0.032591         0.8868
  68   0.0000       0.068101         1.8531
  69   0.0000       0.112887         3.0718
  70   0.0000       0.118403         3.2219
  71   0.0000       0.127833         3.4785

MULLIKEN ATOMIC CHARGES
-----------------------
   0 S :    0.121948
   1 C :   -0.141892
   2 C :   -0.110913
   3 C :    0.079984
   4 C :   -0.161460
   5 H :   -0.001180
   6 C :    0.097377
   7 H :    0.029468
   8 H :    0.022678
   9 C :   -0.137201
  10 H :    0.024568
  11 H :    0.038338
  12 C :   -0.043273
  13 H :    0.026383
  14 H :    0.036479
  15 H :    0.049660
  16 S :    0.112788
  17 C :   -0.110121
  18 C :   -0.010539
  19 C :   -0.027657
  20 C :   -0.166834
  21 H :    0.010590
  22 C :    0.016100
  23 H :    0.028915
  24 H :    0.041817
  25 C :   -0.049639
  26 H :    0.032737
  27 H :    0.035551
  28 C :   -0.079852
  29 H :    0.011008
  30 H :    0.044928
  31 H :    0.041913
  32 H :    0.068203
  33 H :    0.069131
Sum of atomic charges:   -0.0000000

LOEWDIN ATOMIC CHARGES
----------------------
   0 S :    0.413590
   1 C :   -0.207555
   2 C :   -0.063944
   3 C :   -0.058535
   4 C :   -0.190654
   5 H :    0.021575
   6 C :   -0.035186
   7 H :    0.028819
   8 H :    0.036756
   9 C :   -0.052287
  10 H :    0.018837
  11 H :    0.030785
  12 C :   -0.070827
  13 H :    0.023082
  14 H :    0.027464
  15 H :    0.032596
  16 S :    0.420798
  17 C :   -0.181094
  18 C :   -0.070452
  19 C :   -0.052343
  20 C :   -0.215334
  21 H :    0.030538
  22 C :   -0.050008
  23 H :    0.031391
  24 H :    0.038420
  25 C :   -0.038169
  26 H :    0.022575
  27 H :    0.031955
  28 C :   -0.080919
  29 H :    0.019938
  30 H :    0.027517
  31 H :    0.028656
  32 H :    0.044809
  33 H :    0.037204

  Mayer bond orders larger than 0.100000
B(  0-S ,  1-C ) :   1.1222 B(  0-S ,  4-C ) :   1.1381 B(  1-C ,  2-C ) :   1.6636
B(  1-C , 32-H ) :   0.9543 B(  2-C ,  3-C ) :   1.2152 B(  2-C ,  6-C ) :   1.0292
B(  3-C ,  4-C ) :   1.6089 B(  3-C ,  5-H ) :   0.9864 B(  4-C , 20-C ) :   1.0268
B(  6-C ,  7-H ) :   0.9393 B(  6-C ,  8-H ) :   0.9388 B(  6-C ,  9-C ) :   1.0533
B(  9-C , 10-H ) :   0.9588 B(  9-C , 11-H ) :   0.9558 B(  9-C , 12-C ) :   1.0674
B( 12-C , 13-H ) :   0.9752 B( 12-C , 14-H ) :   0.9729 B( 12-C , 15-H ) :   0.9756
B( 16-S , 17-C ) :   1.1477 B( 16-S , 20-C ) :   1.1625 B( 17-C , 18-C ) :   1.6270
B( 17-C , 33-H ) :   0.9604 B( 18-C , 19-C ) :   1.2233 B( 18-C , 21-H ) :   1.0003
B( 19-C , 20-C ) :   1.5709 B( 19-C , 22-C ) :   1.0435 B( 22-C , 23-H ) :   0.9243
B( 22-C , 24-H ) :   0.9398 B( 22-C , 25-C ) :   1.0763 B( 25-C , 26-H ) :   0.9577
B( 25-C , 27-H ) :   0.9555 B( 25-C , 28-C ) :   1.0577 B( 28-C , 29-H ) :   0.9784
B( 28-C , 30-H ) :   0.9774 B( 28-C , 31-H ) :   0.9757

Dispersion correction           -0.014080320
FINAL SINGLE POINT ENERGY     -1339.867184023224

DIPOLE MOMENT
-------------
                                X             Y             Z
Electronic contribution:      8.94279      11.20945      12.87290
Nuclear contribution   :     -8.99687     -11.32924     -13.25978
                        -----------------------------------------
Total Dipole Moment    :     -0.05408      -0.11978      -0.38688
                        -----------------------------------------
Magnitude (a.u.)       :      0.40859
Magnitude (Debye)      :      1.03856

Rotational constants in cm-1:     0.023491     0.006906     0.006261
Rotational constants in MHz :   704.229888   207.039970   187.707631

                             ****ORCA TERMINATED NORMALLY****
TOTAL RUN TIME: 0 days 0 hours 0 minutes 28 seconds 994 msec
