                         Program Version 4.2.1 -  RELEASE  -
|  1> ! wB97X-D3 SP def2-SVP
|  2> %pal
|  3> nprocs 16
|  4> end
|  5>
|  6> * xyz 0 1
|  7> S 	 10.5756 	 -12.3956 	 88.6402
|  8> C 	 11.5651 	 -12.9912 	 87.3671
|  9> C 	 12.3941 	 -13.9661 	 87.9172
| 10> C 	 12.3089 	 -14.1099 	 89.3188
| 11> C 	 11.3758 	 -13.3168 	 89.8874
| 12> H 	 12.9045 	 -14.6883 	 90.0339
| 13> C 	 13.4392 	 -14.8007 	 87.1434
| 14> H 	 13.1245 	 -15.0547 	 86.1205
| 15> H 	 13.3582 	 -15.7685 	 87.5044
| 16> C 	 14.7926 	 -14.0913 	 87.19
| 17> H 	 15.3755 	 -14.7483 	 86.5414
| 18> H 	 14.6066 	 -13.117 	 86.813
| 19> C 	 15.4887 	 -13.9667 	 88.6539
| 20> H 	 15.7762 	 -14.985 	 88.9375
| 21> H 	 16.499 	 -13.5086 	 88.5177
| 22> H 	 14.9374 	 -13.4106 	 89.4586
| 23> S 	 9.29126 	 -13.2925 	 91.6053
| 24> C 	 9.53789 	 -13.1121 	 93.3523
| 25> C 	 10.8693 	 -12.904 	 93.656
| 26> C 	 11.69 	 -13.062 	 92.4744
| 27> C 	 10.9782 	 -13.1427 	 91.2825
| 28> H 	 11.1153 	 -12.6861 	 94.7487
| 29> C 	 13.1848 	 -12.9663 	 92.5508
| 30> H 	 13.7668 	 -13.2598 	 91.6623
| 31> H 	 13.4888 	 -13.7361 	 93.2395
| 32> C 	 13.6307 	 -11.4709 	 92.9814
| 33> H 	 13.2142 	 -11.1395 	 93.9031
| 34> H 	 13.3185 	 -10.777 	 92.2354
| 35> C 	 15.1092 	 -11.3739 	 93.2519
| 36> H 	 15.4198 	 -11.7918 	 94.2416
| 37> H 	 15.428 	 -10.365 	 93.1812
| 38> H 	 15.6787 	 -11.8618 	 92.4281
| 39> H 	 11.6426 	 -12.8052 	 86.2812
| 40> H 	 8.7532 	 -12.9511 	 94.1089
| 41> *
| 42>
| 43>                          ****END OF INPUT****

CARTESIAN COORDINATES (ANGSTROEM)
---------------------------------
  S     10.575600  -12.395600   88.640200
  C     11.565100  -12.991200   87.367100
  C     12.394100  -13.966100   87.917200
  C     12.308900  -14.109900   89.318800
  C     11.375800  -13.316800   89.887400
  H     12.904500  -14.688300   90.033900
  C     13.439200  -14.800700   87.143400
  H     13.124500  -15.054700   86.120500
  H     13.358200  -15.768500   87.504400
  C     14.792600  -14.091300   87.190000
  H     15.375500  -14.748300   86.541400
  H     14.606600  -13.117000   86.813000
  C     15.488700  -13.966700   88.653900
  H     15.776200  -14.985000   88.937500
  H     16.499000  -13.508600   88.517700
  H     14.937400  -13.410600   89.458600
  S      9.291260  -13.292500   91.605300
  C      9.537890  -13.112100   93.352300
  C     10.869300  -12.904000   93.656000
  C     11.690000  -13.062000   92.474400
  C     10.978200  -13.142700   91.282500
  H     11.115300  -12.686100   94.748700
  C     13.184800  -12.966300   92.550800
  H     13.766800  -13.259800   91.662300
  H     13.488800  -13.736100   93.239500
  C     13.630700  -11.470900   92.981400
  H     13.214200  -11.139500   93.903100
  H     13.318500  -10.777000   92.235400
  C     15.109200  -11.373900   93.251900
  H     15.419800  -11.791800   94.241600
  H     15.428000  -10.365000   93.181200
  H     15.678700  -11.861800   92.428100
  H     11.642600  -12.805200   86.281200
  H      8.753200  -12.951100   94.108900

 Total Charge           Charge          ....    0
 Multiplicity           Mult            ....    1
 Number of Electrons    NEL             ....  134
 Basis Dimension        Dim             ....  322

ORBITAL ENERGIES
----------------

  NO   OCC          E(Eh)            E(eV)
   0   2.0000     -88.964507     -2420.8473
   1   2.0000     -88.963685     -2420.8249
   2   2.0000     -10.326249      -280.9915
   3   2.0000     -10.325647      -280.9751
   4   2.0000     -10.319996      -280.8214
   5   2.0000     -10.314433      -280.6700
   6   2.0000     -10.307096      -280.4703
   7   2.0000     -10.303888      -280.3831
   8   2.0000     -10.297941      -280.2212
   9   2.0000     -10.294680      -280.1325
  10   2.0000     -10.292546      -280.0744
  11   2.0000     -10.291165      -280.0368
  12   2.0000     -10.289074      -279.9799
  13   2.0000     -10.285289      -279.8769
  14   2.0000     -10.283735      -279.8346
  15   2.0000     -10.276303      -279.6324
  16   2.0000      -8.079643      -219.8583
  17   2.0000      -8.078601      -219.8299
  18   2.0000      -6.038253      -164.3092
  19   2.0000      -6.037212      -164.2809
  20   2.0000      -6.033904      -164.1909
  21   2.0000      -6.033046      -164.1675
  22   2.0000      -6.030433      -164.0964
  23   2.0000      -6.029251      -164.0643
  24   2.0000      -1.012267       -27.5452
  25   2.0000      -0.987188       -26.8627
  26   2.0000      -0.907952       -24.7066
  27   2.0000      -0.903614       -24.5886
  28   2.0000      -0.870491       -23.6873
  29   2.0000      -0.852861       -23.2075
  30   2.0000      -0.838941       -22.8287
  31   2.0000      -0.818019       -22.2594
  32   2.0000      -0.782877       -21.3032
  33   2.0000      -0.767250       -20.8779
  34   2.0000      -0.704800       -19.1786
  35   2.0000      -0.703674       -19.1479
  36   2.0000      -0.697882       -18.9903
  37   2.0000      -0.659393       -17.9430
  38   2.0000      -0.642460       -17.4822
  39   2.0000      -0.617708       -16.8087
  40   2.0000      -0.595109       -16.1937
  41   2.0000      -0.577674       -15.7193
  42   2.0000      -0.562547       -15.3077
  43   2.0000      -0.545029       -14.8310
  44   2.0000      -0.527398       -14.3512
  45   2.0000      -0.524963       -14.2850
  46   2.0000      -0.515063       -14.0156
  47   2.0000      -0.510511       -13.8917
  48   2.0000      -0.504639       -13.7319
  49   2.0000      -0.501957       -13.6589
  50   2.0000      -0.490979       -13.3602
  51   2.0000      -0.482055       -13.1174
  52   2.0000      -0.476735       -12.9726
  53   2.0000      -0.461320       -12.5531
  54   2.0000      -0.457531       -12.4501
  55   2.0000      -0.450868       -12.2687
  56   2.0000      -0.445498       -12.1226
  57   2.0000      -0.434784       -11.8311
  58   2.0000      -0.432127       -11.7588
  59   2.0000      -0.425056       -11.5664
  60   2.0000      -0.414668       -11.2837
  61   2.0000      -0.413009       -11.2385
  62   2.0000      -0.407469       -11.0878
  63   2.0000      -0.353954        -9.6316
  64   2.0000      -0.331060        -9.0086
  65   2.0000      -0.325526        -8.8580
  66   2.0000      -0.292277        -7.9533
  67   0.0000       0.034039         0.9262
  68   0.0000       0.073960         2.0126
  69   0.0000       0.116675         3.1749
  70   0.0000       0.117732         3.2036
  71   0.0000       0.131362         3.5745

MULLIKEN ATOMIC CHARGES
-----------------------
   0 S :    0.112320
   1 C :   -0.098454
   2 C :   -0.148616
   3 C :    0.022980
   4 C :   -0.146444
   5 H :    0.019101
   6 C :    0.081329
   7 H :    0.012275
   8 H :    0.002433
   9 C :   -0.025947
  10 H :    0.034908
  11 H :    0.024852
  12 C :   -0.100992
  13 H :    0.028324
  14 H :    0.038915
  15 H :    0.074017
  16 S :    0.100639
  17 C :   -0.102371
  18 C :   -0.067211
  19 C :   -0.042056
  20 C :   -0.123698
  21 H :    0.054146
  22 C :    0.060248
  23 H :    0.006281
  24 H :    0.022992
  25 C :   -0.056800
  26 H :    0.020073
  27 H :    0.034385
  28 C :   -0.045667
  29 H :    0.040913
  30 H :    0.023076
  31 H :    0.021500
  32 H :    0.056797
  33 H :    0.065751
Sum of atomic charges:   -0.0000000

LOEWDIN ATOMIC CHARGES
----------------------
   0 S :    0.421247
   1 C :   -0.220821
   2 C :   -0.063876
   3 C :   -0.071560
   4 C :   -0.194044
   5 H :    0.036173
   6 C :   -0.035649
   7 H :    0.030190
   8 H :    0.019054
   9 C :   -0.025097
  10 H :    0.026975
  11 H :    0.019754
  12 C :   -0.077664
  13 H :    0.023904
  14 H :    0.031442
  15 H :    0.030747
  16 S :    0.405388
  17 C :   -0.185569
  18 C :   -0.076860
  19 C :   -0.059352
  20 C :   -0.208129
  21 H :    0.049581
  22 C :   -0.033351
  23 H :    0.026754
  24 H :    0.029816
  25 C :   -0.028827
  26 H :    0.019757
  27 H :    0.025143
  28 C :   -0.068299
  29 H :    0.029042
  30 H :    0.021432
  31 H :    0.023891
  32 H :    0.043623
  33 H :    0.035186

  Mayer bond orders larger than 0.100000
B(  0-S ,  1-C ) :   1.1390 B(  0-S ,  4-C ) :   1.1569 B(  1-C ,  2-C ) :   1.6062
B(  1-C ,  4-C ) :   0.1043 B(  1-C , 32-H ) :   0.9655 B(  2-C ,  3-C ) :   1.2376
B(  2-C ,  6-C ) :   1.0185 B(  3-C ,  4-C ) :   1.5906 B(  3-C ,  5-H ) :   0.9944
B(  4-C , 20-C ) :   1.0034 B(  6-C ,  7-H ) :   0.9404 B(  6-C ,  8-H ) :   0.9371
B(  6-C ,  9-C ) :   1.0566 B(  9-C , 10-H ) :   0.9581 B(  9-C , 11-H ) :   0.9553
B(  9-C , 12-C ) :   1.0740 B( 12-C , 13-H ) :   0.9756 B( 12-C , 14-H ) :   0.9724
B( 12-C , 15-H ) :   0.9672 B( 16-S , 17-C ) :   1.1460 B( 16-S , 20-C ) :   1.1407
B( 17-C , 18-C ) :   1.6439 B( 17-C , 33-H ) :   0.9606 B( 18-C , 19-C ) :   1.2074
B( 18-C , 21-H ) :   0.9781 B( 19-C , 20-C ) :   1.6115 B( 19-C , 22-C ) :   1.0597
B( 22-C , 23-H ) :   0.9392 B( 22-C , 24-H ) :   0.9267 B( 22-C , 25-C ) :   1.0465
B( 25-C , 26-H ) :   0.9580 B( 25-C , 27-H ) :   0.9588 B( 25-C , 28-C ) :   1.0888
B( 28-C , 29-H ) :   0.9765 B( 28-C , 30-H ) :   0.9713 B( 28-C , 31-H ) :   0.9716

Dispersion correction           -0.014979715
FINAL SINGLE POINT ENERGY     -1339.860453945363

DIPOLE MOMENT
-------------
                                X             Y             Z
Electronic contribution:    -29.80510       0.24783      -2.29560
Nuclear contribution   :     30.48192      -0.34828       2.45861
                        -----------------------------------------
Total Dipole Moment    :      0.67681      -0.10045       0.16300
                        -----------------------------------------
Magnitude (a.u.)       :      0.70337
Magnitude (Debye)      :      1.78784

Rotational constants in cm-1:     0.016966     0.010311     0.007142
Rotational constants in MHz :   508.641585   309.117655   214.109885

                             ****ORCA TERMINATED NORMALLY****
TOTAL RUN TIME: 0 days 0 hours 0 minutes 34 seconds 911 msec
