                         Program Version 4.2.1 -  RELEASE  -
|  1> ! wB97X-D3 SP def2-SVP
|  2> %pal
|  3> nprocs 16
|  4> end
|  5>
|  6> * xyz 0 1
|  7> S 	 47.2189 	 4.72418 	 89.7597
|  8> C 	 46.4106 	 6.10496 	 89.158
|  9> C 	 45.522 	 5.87817 	 88.1701
| 10> C 	 45.5597 	 4.48907 	 87.9006
| 11> C 	 46.2948 	 3.68992 	 88.7749
| 12> H 	 44.8473 	 4.14134 	 87.1844
| 13> C 	 44.8413 	 6.97159 	 87.3656
| 14> H 	 44.7758 	 7.92439 	 87.9401
| 15> H 	 43.8356 	 6.61537 	 87.4056
| 16> C 	 45.4697 	 7.19842 	 86.0738
| 17> H 	 46.5143 	 7.52248 	 86.26
| 18> H 	 45.5523 	 6.33949 	 85.4564
| 19> C 	 44.7534 	 8.30683 	 85.2732
| 20> H 	 44.6329 	 9.18074 	 85.9926
| 21> H 	 45.3383 	 8.60235 	 84.3649
| 22> H 	 43.7533 	 8.03885 	 84.9723
| 23> S 	 44.8561 	 1.36096 	 89.0278
| 24> C 	 45.7569 	 -0.154841 	 89.0566
| 25> C 	 47.1261 	 0.0662896 	 88.8897
| 26> C 	 47.4588 	 1.41672 	 88.675
| 27> C 	 46.3423 	 2.24068 	 88.7193
| 28> H 	 47.7393 	 -0.772958 	 88.7474
| 29> C 	 48.8195 	 2.02852 	 88.5324
| 30> H 	 49.0869 	 2.49903 	 89.4508
| 31> H 	 48.8186 	 2.88173 	 87.8406
| 32> C 	 49.9557 	 1.07309 	 88.2112
| 33> H 	 49.7481 	 0.276319 	 87.5033
| 34> H 	 50.1865 	 0.371251 	 89.0681
| 35> C 	 51.2902 	 1.75537 	 87.7373
| 36> H 	 51.2237 	 2.20821 	 86.7403
| 37> H 	 52.1468 	 1.139 	 87.8455
| 38> H 	 51.524 	 2.52471 	 88.5104
| 39> H 	 46.6473 	 7.00622 	 89.6736
| 40> H 	 45.3188 	 -1.14052 	 89.0918
| 41> *
| 42>
| 43>                          ****END OF INPUT****

CARTESIAN COORDINATES (ANGSTROEM)
---------------------------------
  S     47.218900    4.724180   89.759700
  C     46.410600    6.104960   89.158000
  C     45.522000    5.878170   88.170100
  C     45.559700    4.489070   87.900600
  C     46.294800    3.689920   88.774900
  H     44.847300    4.141340   87.184400
  C     44.841300    6.971590   87.365600
  H     44.775800    7.924390   87.940100
  H     43.835600    6.615370   87.405600
  C     45.469700    7.198420   86.073800
  H     46.514300    7.522480   86.260000
  H     45.552300    6.339490   85.456400
  C     44.753400    8.306830   85.273200
  H     44.632900    9.180740   85.992600
  H     45.338300    8.602350   84.364900
  H     43.753300    8.038850   84.972300
  S     44.856100    1.360960   89.027800
  C     45.756900   -0.154841   89.056600
  C     47.126100    0.066290   88.889700
  C     47.458800    1.416720   88.675000
  C     46.342300    2.240680   88.719300
  H     47.739300   -0.772958   88.747400
  C     48.819500    2.028520   88.532400
  H     49.086900    2.499030   89.450800
  H     48.818600    2.881730   87.840600
  C     49.955700    1.073090   88.211200
  H     49.748100    0.276319   87.503300
  H     50.186500    0.371251   89.068100
  C     51.290200    1.755370   87.737300
  H     51.223700    2.208210   86.740300
  H     52.146800    1.139000   87.845500
  H     51.524000    2.524710   88.510400
  H     46.647300    7.006220   89.673600
  H     45.318800   -1.140520   89.091800

 Total Charge           Charge          ....    0
 Multiplicity           Mult            ....    1
 Number of Electrons    NEL             ....  134
 Basis Dimension        Dim             ....  322

ORBITAL ENERGIES
----------------

  NO   OCC          E(Eh)            E(eV)
   0   2.0000     -88.966773     -2420.9090
   1   2.0000     -88.963458     -2420.8188
   2   2.0000     -10.323343      -280.9124
   3   2.0000     -10.320565      -280.8368
   4   2.0000     -10.317755      -280.7604
   5   2.0000     -10.303613      -280.3756
   6   2.0000     -10.299032      -280.2509
   7   2.0000     -10.292718      -280.0791
   8   2.0000     -10.290984      -280.0319
   9   2.0000     -10.290606      -280.0216
  10   2.0000     -10.288981      -279.9774
  11   2.0000     -10.288498      -279.9643
  12   2.0000     -10.288205      -279.9563
  13   2.0000     -10.285408      -279.8802
  14   2.0000     -10.283081      -279.8169
  15   2.0000     -10.279719      -279.7254
  16   2.0000      -8.080952      -219.8939
  17   2.0000      -8.079867      -219.8644
  18   2.0000      -6.039414      -164.3408
  19   2.0000      -6.038158      -164.3066
  20   2.0000      -6.035525      -164.2350
  21   2.0000      -6.034075      -164.1955
  22   2.0000      -6.031821      -164.1342
  23   2.0000      -6.030850      -164.1078
  24   2.0000      -1.014696       -27.6113
  25   2.0000      -0.988313       -26.8934
  26   2.0000      -0.925060       -25.1722
  27   2.0000      -0.907103       -24.6835
  28   2.0000      -0.871551       -23.7161
  29   2.0000      -0.852974       -23.2106
  30   2.0000      -0.846609       -23.0374
  31   2.0000      -0.812858       -22.1190
  32   2.0000      -0.784875       -21.3575
  33   2.0000      -0.773012       -21.0347
  34   2.0000      -0.706865       -19.2348
  35   2.0000      -0.706696       -19.2302
  36   2.0000      -0.696582       -18.9550
  37   2.0000      -0.658270       -17.9124
  38   2.0000      -0.645529       -17.5657
  39   2.0000      -0.624645       -16.9974
  40   2.0000      -0.602245       -16.3879
  41   2.0000      -0.570593       -15.5266
  42   2.0000      -0.568772       -15.4771
  43   2.0000      -0.559533       -15.2257
  44   2.0000      -0.533540       -14.5184
  45   2.0000      -0.529411       -14.4060
  46   2.0000      -0.522510       -14.2182
  47   2.0000      -0.509592       -13.8667
  48   2.0000      -0.499813       -13.6006
  49   2.0000      -0.497499       -13.5376
  50   2.0000      -0.491057       -13.3623
  51   2.0000      -0.476041       -12.9537
  52   2.0000      -0.472830       -12.8663
  53   2.0000      -0.464438       -12.6380
  54   2.0000      -0.456581       -12.4242
  55   2.0000      -0.451134       -12.2760
  56   2.0000      -0.448658       -12.2086
  57   2.0000      -0.443083       -12.0569
  58   2.0000      -0.432067       -11.7571
  59   2.0000      -0.426260       -11.5991
  60   2.0000      -0.422662       -11.5012
  61   2.0000      -0.413602       -11.2547
  62   2.0000      -0.408038       -11.1033
  63   2.0000      -0.343109        -9.3365
  64   2.0000      -0.333023        -9.0620
  65   2.0000      -0.330103        -8.9826
  66   2.0000      -0.292030        -7.9465
  67   0.0000       0.033389         0.9085
  68   0.0000       0.071733         1.9520
  69   0.0000       0.116715         3.1760
  70   0.0000       0.125309         3.4098
  71   0.0000       0.131360         3.5745

MULLIKEN ATOMIC CHARGES
-----------------------
   0 S :    0.114149
   1 C :   -0.138701
   2 C :   -0.072328
   3 C :    0.012294
   4 C :   -0.159399
   5 H :   -0.002237
   6 C :    0.087482
   7 H :    0.018962
   8 H :    0.019159
   9 C :   -0.046552
  10 H :    0.029537
  11 H :    0.024001
  12 C :   -0.054328
  13 H :    0.028485
  14 H :    0.046899
  15 H :    0.028733
  16 S :    0.118218
  17 C :   -0.095063
  18 C :   -0.033741
  19 C :   -0.028064
  20 C :   -0.145275
  21 H :    0.003320
  22 C :    0.101682
  23 H :    0.029042
  24 H :    0.038703
  25 C :   -0.123130
  26 H :    0.022991
  27 H :    0.026038
  28 C :   -0.037319
  29 H :    0.050379
  30 H :    0.022562
  31 H :    0.023843
  32 H :    0.034501
  33 H :    0.055158
Sum of atomic charges:   -0.0000000

LOEWDIN ATOMIC CHARGES
----------------------
   0 S :    0.444737
   1 C :   -0.194625
   2 C :   -0.067779
   3 C :   -0.059563
   4 C :   -0.217394
   5 H :    0.022012
   6 C :   -0.030061
   7 H :    0.035165
   8 H :    0.028516
   9 C :   -0.042119
  10 H :    0.032412
  11 H :    0.020750
  12 C :   -0.065468
  13 H :    0.028392
  14 H :    0.031559
  15 H :    0.019899
  16 S :    0.409498
  17 C :   -0.180627
  18 C :   -0.065793
  19 C :   -0.055283
  20 C :   -0.196119
  21 H :    0.023703
  22 C :   -0.037990
  23 H :    0.028349
  24 H :    0.035628
  25 C :   -0.051297
  26 H :    0.018030
  27 H :    0.028173
  28 C :   -0.065048
  29 H :    0.028500
  30 H :    0.021551
  31 H :    0.028227
  32 H :    0.015897
  33 H :    0.028169

  Mayer bond orders larger than 0.100000
B(  0-S ,  1-C ) :   1.1764 B(  0-S ,  4-C ) :   1.1584 B(  1-C ,  2-C ) :   1.5720
B(  1-C , 32-H ) :   0.9710 B(  2-C ,  3-C ) :   1.2882 B(  2-C ,  6-C ) :   1.0131
B(  3-C ,  4-C ) :   1.5307 B(  3-C ,  5-H ) :   0.9928 B(  4-C , 20-C ) :   1.0305
B(  6-C ,  7-H ) :   0.9365 B(  6-C ,  8-H ) :   0.9252 B(  6-C ,  9-C ) :   1.0776
B(  9-C , 10-H ) :   0.9471 B(  9-C , 11-H ) :   0.9529 B(  9-C , 12-C ) :   1.0814
B( 12-C , 13-H ) :   0.9728 B( 12-C , 14-H ) :   0.9742 B( 12-C , 15-H ) :   0.9759
B( 16-S , 17-C ) :   1.1598 B( 16-S , 20-C ) :   1.1532 B( 17-C , 18-C ) :   1.5899
B( 17-C , 20-C ) :   0.1090 B( 17-C , 33-H ) :   0.9659 B( 18-C , 19-C ) :   1.2563
B( 18-C , 21-H ) :   0.9936 B( 19-C , 20-C ) :   1.5732 B( 19-C , 22-C ) :   1.0451
B( 22-C , 23-H ) :   0.9139 B( 22-C , 24-H ) :   0.9321 B( 22-C , 25-C ) :   1.0599
B( 25-C , 26-H ) :   0.9626 B( 25-C , 27-H ) :   0.9458 B( 25-C , 28-C ) :   1.0827
B( 28-C , 29-H ) :   0.9768 B( 28-C , 30-H ) :   0.9725 B( 28-C , 31-H ) :   0.9735

Dispersion correction           -0.013650561
FINAL SINGLE POINT ENERGY     -1339.876407539500

DIPOLE MOMENT
-------------
                                X             Y             Z
Electronic contribution:    -10.92674     -10.92085      14.89827
Nuclear contribution   :     11.09236      11.08776     -15.18310
                        -----------------------------------------
Total Dipole Moment    :      0.16562       0.16692      -0.28483
                        -----------------------------------------
Magnitude (a.u.)       :      0.36935
Magnitude (Debye)      :      0.93882

Rotational constants in cm-1:     0.019152     0.007593     0.006374
Rotational constants in MHz :   574.166928   227.625838   191.101985

                             ****ORCA TERMINATED NORMALLY****
TOTAL RUN TIME: 0 days 0 hours 0 minutes 29 seconds 238 msec
