                         Program Version 4.2.1 -  RELEASE  -
|  1> ! wB97X-D3 SP def2-SVP
|  2> %pal
|  3> nprocs 16
|  4> end
|  5>
|  6> * xyz 0 1
|  7> S 	 69.9588 	 17.9411 	 75.0651
|  8> C 	 70.303 	 18.3262 	 73.4053
|  9> C 	 70.285 	 19.6767 	 73.1403
| 10> C 	 69.9014 	 20.3928 	 74.255
| 11> C 	 69.7116 	 19.6169 	 75.4096
| 12> H 	 69.8151 	 21.3935 	 74.4205
| 13> C 	 70.6924 	 20.3381 	 71.8269
| 14> H 	 70.0658 	 21.2051 	 71.8179
| 15> H 	 70.2091 	 19.6178 	 71.156
| 16> C 	 72.1997 	 20.5903 	 71.4445
| 17> H 	 72.7741 	 19.7141 	 71.6839
| 18> H 	 72.2886 	 20.6553 	 70.3647
| 19> C 	 72.8035 	 21.9422 	 71.9545
| 20> H 	 73.8005 	 22.0824 	 71.6184
| 21> H 	 72.1728 	 22.7925 	 71.8381
| 22> H 	 72.8325 	 21.9005 	 73.0613
| 23> S 	 67.9547 	 18.8405 	 77.3788
| 24> C 	 68.006 	 19.7321 	 78.8125
| 25> C 	 69.0422 	 20.6271 	 78.867
| 26> C 	 69.8185 	 20.7161 	 77.6827
| 27> C 	 69.2438 	 19.9029 	 76.7118
| 28> H 	 69.1454 	 21.307 	 79.7672
| 29> C 	 71.1004 	 21.5472 	 77.5645
| 30> H 	 71.2579 	 21.998 	 78.5724
| 31> H 	 70.8471 	 22.4237 	 76.9156
| 32> C 	 72.3586 	 20.8459 	 77.0225
| 33> H 	 72.3498 	 20.5343 	 75.8893
| 34> H 	 72.6677 	 20.0733 	 77.657
| 35> C 	 73.5555 	 21.8475 	 76.9638
| 36> H 	 74.4491 	 21.4606 	 76.4795
| 37> H 	 73.9384 	 21.9733 	 78.0175
| 38> H 	 73.1029 	 22.6703 	 76.4795
| 39> H 	 70.7965 	 17.7042 	 72.636
| 40> H 	 67.3685 	 19.6813 	 79.6785
| 41> *
| 42>
| 43>                          ****END OF INPUT****

CARTESIAN COORDINATES (ANGSTROEM)
---------------------------------
  S     69.958800   17.941100   75.065100
  C     70.303000   18.326200   73.405300
  C     70.285000   19.676700   73.140300
  C     69.901400   20.392800   74.255000
  C     69.711600   19.616900   75.409600
  H     69.815100   21.393500   74.420500
  C     70.692400   20.338100   71.826900
  H     70.065800   21.205100   71.817900
  H     70.209100   19.617800   71.156000
  C     72.199700   20.590300   71.444500
  H     72.774100   19.714100   71.683900
  H     72.288600   20.655300   70.364700
  C     72.803500   21.942200   71.954500
  H     73.800500   22.082400   71.618400
  H     72.172800   22.792500   71.838100
  H     72.832500   21.900500   73.061300
  S     67.954700   18.840500   77.378800
  C     68.006000   19.732100   78.812500
  C     69.042200   20.627100   78.867000
  C     69.818500   20.716100   77.682700
  C     69.243800   19.902900   76.711800
  H     69.145400   21.307000   79.767200
  C     71.100400   21.547200   77.564500
  H     71.257900   21.998000   78.572400
  H     70.847100   22.423700   76.915600
  C     72.358600   20.845900   77.022500
  H     72.349800   20.534300   75.889300
  H     72.667700   20.073300   77.657000
  C     73.555500   21.847500   76.963800
  H     74.449100   21.460600   76.479500
  H     73.938400   21.973300   78.017500
  H     73.102900   22.670300   76.479500
  H     70.796500   17.704200   72.636000
  H     67.368500   19.681300   79.678500

 Total Charge           Charge          ....    0
 Multiplicity           Mult            ....    1
 Number of Electrons    NEL             ....  134
 Basis Dimension        Dim             ....  322

ORBITAL ENERGIES
----------------

  NO   OCC          E(Eh)            E(eV)
   0   2.0000     -88.968248     -2420.9491
   1   2.0000     -88.965642     -2420.8782
   2   2.0000     -10.322790      -280.8974
   3   2.0000     -10.320435      -280.8333
   4   2.0000     -10.309622      -280.5391
   5   2.0000     -10.306379      -280.4508
   6   2.0000     -10.304290      -280.3940
   7   2.0000     -10.303965      -280.3851
   8   2.0000     -10.294664      -280.1321
   9   2.0000     -10.293293      -280.0948
  10   2.0000     -10.293161      -280.0911
  11   2.0000     -10.292478      -280.0726
  12   2.0000     -10.288627      -279.9678
  13   2.0000     -10.281043      -279.7614
  14   2.0000     -10.279245      -279.7125
  15   2.0000     -10.276739      -279.6443
  16   2.0000      -8.083337      -219.9588
  17   2.0000      -8.080797      -219.8897
  18   2.0000      -6.041770      -164.4049
  19   2.0000      -6.039130      -164.3331
  20   2.0000      -6.037952      -164.3010
  21   2.0000      -6.035195      -164.2260
  22   2.0000      -6.033970      -164.1927
  23   2.0000      -6.031752      -164.1323
  24   2.0000      -1.012870       -27.5616
  25   2.0000      -0.987608       -26.8742
  26   2.0000      -0.908246       -24.7146
  27   2.0000      -0.907175       -24.6855
  28   2.0000      -0.870195       -23.6792
  29   2.0000      -0.857097       -23.3228
  30   2.0000      -0.847600       -23.0644
  31   2.0000      -0.813201       -22.1283
  32   2.0000      -0.786106       -21.3910
  33   2.0000      -0.770460       -20.9653
  34   2.0000      -0.714727       -19.4487
  35   2.0000      -0.707800       -19.2602
  36   2.0000      -0.687794       -18.7158
  37   2.0000      -0.657720       -17.8975
  38   2.0000      -0.639030       -17.3889
  39   2.0000      -0.613708       -16.6998
  40   2.0000      -0.595250       -16.1976
  41   2.0000      -0.569880       -15.5072
  42   2.0000      -0.566992       -15.4286
  43   2.0000      -0.550067       -14.9681
  44   2.0000      -0.533830       -14.5263
  45   2.0000      -0.524623       -14.2757
  46   2.0000      -0.519329       -14.1317
  47   2.0000      -0.514018       -13.9871
  48   2.0000      -0.500820       -13.6280
  49   2.0000      -0.495850       -13.4928
  50   2.0000      -0.490694       -13.3525
  51   2.0000      -0.479325       -13.0431
  52   2.0000      -0.471474       -12.8295
  53   2.0000      -0.464592       -12.6422
  54   2.0000      -0.456969       -12.4348
  55   2.0000      -0.452231       -12.3058
  56   2.0000      -0.447284       -12.1712
  57   2.0000      -0.443011       -12.0549
  58   2.0000      -0.437150       -11.8954
  59   2.0000      -0.426453       -11.6044
  60   2.0000      -0.426067       -11.5939
  61   2.0000      -0.410056       -11.1582
  62   2.0000      -0.402706       -10.9582
  63   2.0000      -0.342514        -9.3203
  64   2.0000      -0.337201        -9.1757
  65   2.0000      -0.330945        -9.0055
  66   2.0000      -0.282772        -7.6946
  67   0.0000       0.027980         0.7614
  68   0.0000       0.062440         1.6991
  69   0.0000       0.108748         2.9592
  70   0.0000       0.118448         3.2231
  71   0.0000       0.130949         3.5633

MULLIKEN ATOMIC CHARGES
-----------------------
   0 S :    0.119082
   1 C :   -0.119579
   2 C :   -0.113224
   3 C :    0.076623
   4 C :   -0.193713
   5 H :   -0.045297
   6 C :    0.070250
   7 H :    0.016018
   8 H :    0.028873
   9 C :   -0.025383
  10 H :    0.022739
  11 H :    0.029053
  12 C :   -0.038834
  13 H :    0.037442
  14 H :    0.025163
  15 H :    0.021409
  16 S :    0.126906
  17 C :   -0.066635
  18 C :   -0.077035
  19 C :   -0.008960
  20 C :   -0.175355
  21 H :    0.033074
  22 C :    0.061952
  23 H :    0.023166
  24 H :    0.039663
  25 C :   -0.098932
  26 H :    0.072336
  27 H :    0.026688
  28 C :   -0.050148
  29 H :    0.034757
  30 H :    0.029397
  31 H :    0.027363
  32 H :    0.045643
  33 H :    0.045498
Sum of atomic charges:   -0.0000000

LOEWDIN ATOMIC CHARGES
----------------------
   0 S :    0.427384
   1 C :   -0.218677
   2 C :   -0.069228
   3 C :   -0.060385
   4 C :   -0.190739
   5 H :    0.012687
   6 C :   -0.030212
   7 H :    0.027469
   8 H :    0.037992
   9 C :   -0.032343
  10 H :    0.023190
  11 H :    0.025473
  12 C :   -0.063392
  13 H :    0.023816
  14 H :    0.022511
  15 H :    0.026737
  16 S :    0.414112
  17 C :   -0.205665
  18 C :   -0.084369
  19 C :   -0.052500
  20 C :   -0.193875
  21 H :    0.038037
  22 C :   -0.034634
  23 H :    0.036119
  24 H :    0.037345
  25 C :   -0.042493
  26 H :    0.044629
  27 H :    0.015167
  28 C :   -0.064810
  29 H :    0.024342
  30 H :    0.026683
  31 H :    0.016871
  32 H :    0.031962
  33 H :    0.030794

  Mayer bond orders larger than 0.100000
B(  0-S ,  1-C ) :   1.1441 B(  0-S ,  4-C ) :   1.1688 B(  1-C ,  2-C ) :   1.6061
B(  1-C ,  4-C ) :   0.1079 B(  1-C , 32-H ) :   0.9555 B(  2-C ,  3-C ) :   1.2587
B(  2-C ,  6-C ) :   0.9950 B(  3-C ,  4-C ) :   1.5414 B(  3-C ,  5-H ) :   1.0166
B(  4-C , 20-C ) :   1.0756 B(  6-C ,  7-H ) :   0.9447 B(  6-C ,  8-H ) :   0.9369
B(  6-C ,  9-C ) :   1.0537 B(  9-C , 10-H ) :   0.9568 B(  9-C , 11-H ) :   0.9570
B(  9-C , 12-C ) :   1.0720 B( 12-C , 13-H ) :   0.9748 B( 12-C , 14-H ) :   0.9758
B( 12-C , 15-H ) :   0.9764 B( 16-S , 17-C ) :   1.1519 B( 16-S , 20-C ) :   1.1284
B( 17-C , 18-C ) :   1.6304 B( 17-C , 33-H ) :   0.9608 B( 18-C , 19-C ) :   1.2544
B( 18-C , 21-H ) :   0.9740 B( 19-C , 20-C ) :   1.5783 B( 19-C , 22-C ) :   1.0315
B( 22-C , 23-H ) :   0.9347 B( 22-C , 24-H ) :   0.9267 B( 22-C , 25-C ) :   1.0600
B( 25-C , 26-H ) :   0.9498 B( 25-C , 27-H ) :   0.9618 B( 25-C , 28-C ) :   1.0693
B( 28-C , 29-H ) :   0.9770 B( 28-C , 30-H ) :   0.9755 B( 28-C , 31-H ) :   0.9776

Dispersion correction           -0.015051053
FINAL SINGLE POINT ENERGY     -1339.848995050471

DIPOLE MOMENT
-------------
                                X             Y             Z
Electronic contribution:    -22.81199     -18.33185      11.07486
Nuclear contribution   :     23.28388      18.80316     -11.11595
                        -----------------------------------------
Total Dipole Moment    :      0.47189       0.47131      -0.04109
                        -----------------------------------------
Magnitude (a.u.)       :      0.66821
Magnitude (Debye)      :      1.69845

Rotational constants in cm-1:     0.019495     0.009586     0.007176
Rotational constants in MHz :   584.446698   287.373254   215.129059

                             ****ORCA TERMINATED NORMALLY****
TOTAL RUN TIME: 0 days 0 hours 0 minutes 30 seconds 59 msec
