                         Program Version 4.2.1 -  RELEASE  -
|  1> ! wB97X-D3 SP def2-SVP
|  2> %pal
|  3> nprocs 16
|  4> end
|  5>
|  6> * xyz 0 1
|  7> S 	 -33.0411 	 40.794 	 96.7573
|  8> C 	 -33.2246 	 39.3673 	 95.8368
|  9> C 	 -33.8255 	 38.3485 	 96.5858
| 10> C 	 -34.0931 	 38.8032 	 97.921
| 11> C 	 -33.8431 	 40.1448 	 98.1611
| 12> H 	 -34.5909 	 38.2126 	 98.6208
| 13> C 	 -34.2444 	 36.9204 	 96.2489
| 14> H 	 -34.8905 	 36.89 	 95.3267
| 15> H 	 -34.8217 	 36.5602 	 97.1236
| 16> C 	 -33.0805 	 35.9316 	 95.9444
| 17> H 	 -32.6247 	 36.2152 	 95.0386
| 18> H 	 -32.3137 	 36.0251 	 96.7305
| 19> C 	 -33.491 	 34.4269 	 95.7292
| 20> H 	 -32.6462 	 33.7957 	 95.4537
| 21> H 	 -33.8873 	 33.8839 	 96.5907
| 22> H 	 -34.3007 	 34.3494 	 94.9312
| 23> S 	 -35.0682 	 42.5043 	 98.9504
| 24> C 	 -35.2378 	 42.8439 	 100.661
| 25> C 	 -34.611 	 41.9032 	 101.412
| 26> C 	 -33.9918 	 40.8599 	 100.707
| 27> C 	 -34.1435 	 40.9871 	 99.3039
| 28> H 	 -34.6942 	 42.1814 	 102.531
| 29> C 	 -33.3454 	 39.7636 	 101.517
| 30> H 	 -32.5105 	 40.134 	 102.142
| 31> H 	 -33.055 	 38.9697 	 100.904
| 32> C 	 -34.5034 	 39.0462 	 102.327
| 33> H 	 -35.2602 	 38.6217 	 101.642
| 34> H 	 -35.0429 	 39.765 	 103.043
| 35> C 	 -34.0735 	 37.802 	 103.164
| 36> H 	 -33.09 	 38.0346 	 103.612
| 37> H 	 -33.8618 	 36.9758 	 102.531
| 38> H 	 -34.855 	 37.5828 	 103.958
| 39> H 	 -32.7226 	 39.1655 	 94.8229
| 40> H 	 -35.7807 	 43.7284 	 101.116
| 41> *
| 42>
| 43>                          ****END OF INPUT****

CARTESIAN COORDINATES (ANGSTROEM)
---------------------------------
  S    -33.041100   40.794000   96.757300
  C    -33.224600   39.367300   95.836800
  C    -33.825500   38.348500   96.585800
  C    -34.093100   38.803200   97.921000
  C    -33.843100   40.144800   98.161100
  H    -34.590900   38.212600   98.620800
  C    -34.244400   36.920400   96.248900
  H    -34.890500   36.890000   95.326700
  H    -34.821700   36.560200   97.123600
  C    -33.080500   35.931600   95.944400
  H    -32.624700   36.215200   95.038600
  H    -32.313700   36.025100   96.730500
  C    -33.491000   34.426900   95.729200
  H    -32.646200   33.795700   95.453700
  H    -33.887300   33.883900   96.590700
  H    -34.300700   34.349400   94.931200
  S    -35.068200   42.504300   98.950400
  C    -35.237800   42.843900  100.661000
  C    -34.611000   41.903200  101.412000
  C    -33.991800   40.859900  100.707000
  C    -34.143500   40.987100   99.303900
  H    -34.694200   42.181400  102.531000
  C    -33.345400   39.763600  101.517000
  H    -32.510500   40.134000  102.142000
  H    -33.055000   38.969700  100.904000
  C    -34.503400   39.046200  102.327000
  H    -35.260200   38.621700  101.642000
  H    -35.042900   39.765000  103.043000
  C    -34.073500   37.802000  103.164000
  H    -33.090000   38.034600  103.612000
  H    -33.861800   36.975800  102.531000
  H    -34.855000   37.582800  103.958000
  H    -32.722600   39.165500   94.822900
  H    -35.780700   43.728400  101.116000

 Total Charge           Charge          ....    0
 Multiplicity           Mult            ....    1
 Number of Electrons    NEL             ....  134
 Basis Dimension        Dim             ....  322

ORBITAL ENERGIES
----------------

  NO   OCC          E(Eh)            E(eV)
   0   2.0000     -88.967434     -2420.9270
   1   2.0000     -88.964031     -2420.8343
   2   2.0000     -10.336444      -281.2689
   3   2.0000     -10.330654      -281.1114
   4   2.0000     -10.320677      -280.8399
   5   2.0000     -10.319214      -280.8001
   6   2.0000     -10.310012      -280.5497
   7   2.0000     -10.304256      -280.3931
   8   2.0000     -10.301741      -280.3246
   9   2.0000     -10.296809      -280.1904
  10   2.0000     -10.295311      -280.1497
  11   2.0000     -10.294352      -280.1236
  12   2.0000     -10.290570      -280.0206
  13   2.0000     -10.290212      -280.0109
  14   2.0000     -10.287521      -279.9377
  15   2.0000     -10.282408      -279.7985
  16   2.0000      -8.082870      -219.9461
  17   2.0000      -8.078005      -219.8137
  18   2.0000      -6.041304      -164.3922
  19   2.0000      -6.037103      -164.2779
  20   2.0000      -6.036537      -164.2625
  21   2.0000      -6.033818      -164.1885
  22   2.0000      -6.032647      -164.1567
  23   2.0000      -6.028733      -164.0502
  24   2.0000      -1.006971       -27.4011
  25   2.0000      -0.984742       -26.7962
  26   2.0000      -0.906585       -24.6694
  27   2.0000      -0.904095       -24.6017
  28   2.0000      -0.868537       -23.6341
  29   2.0000      -0.850572       -23.1452
  30   2.0000      -0.845022       -22.9942
  31   2.0000      -0.811626       -22.0855
  32   2.0000      -0.781113       -21.2552
  33   2.0000      -0.769740       -20.9457
  34   2.0000      -0.704985       -19.1836
  35   2.0000      -0.701588       -19.0912
  36   2.0000      -0.690089       -18.7783
  37   2.0000      -0.655097       -17.8261
  38   2.0000      -0.635776       -17.3003
  39   2.0000      -0.622342       -16.9348
  40   2.0000      -0.596015       -16.2184
  41   2.0000      -0.563963       -15.3462
  42   2.0000      -0.563154       -15.3242
  43   2.0000      -0.559659       -15.2291
  44   2.0000      -0.526020       -14.3137
  45   2.0000      -0.520784       -14.1713
  46   2.0000      -0.515003       -14.0139
  47   2.0000      -0.509046       -13.8518
  48   2.0000      -0.502685       -13.6788
  49   2.0000      -0.497356       -13.5337
  50   2.0000      -0.493247       -13.4219
  51   2.0000      -0.475302       -12.9336
  52   2.0000      -0.471820       -12.8389
  53   2.0000      -0.466116       -12.6837
  54   2.0000      -0.461528       -12.5588
  55   2.0000      -0.445501       -12.1227
  56   2.0000      -0.443015       -12.0551
  57   2.0000      -0.432078       -11.7574
  58   2.0000      -0.426648       -11.6097
  59   2.0000      -0.424105       -11.5405
  60   2.0000      -0.422281       -11.4909
  61   2.0000      -0.421146       -11.4600
  62   2.0000      -0.415027       -11.2935
  63   2.0000      -0.350828        -9.5465
  64   2.0000      -0.331536        -9.0216
  65   2.0000      -0.329744        -8.9728
  66   2.0000      -0.290088        -7.8937
  67   0.0000       0.027952         0.7606
  68   0.0000       0.065326         1.7776
  69   0.0000       0.117045         3.1849
  70   0.0000       0.122911         3.3446
  71   0.0000       0.127132         3.4594

MULLIKEN ATOMIC CHARGES
-----------------------
   0 S :    0.124588
   1 C :   -0.146803
   2 C :   -0.093836
   3 C :    0.046312
   4 C :   -0.157037
   5 H :   -0.018246
   6 C :    0.047318
   7 H :    0.044338
   8 H :    0.028471
   9 C :   -0.061630
  10 H :    0.019498
  11 H :    0.032863
  12 C :   -0.078888
  13 H :    0.038584
  14 H :    0.030606
  15 H :    0.036009
  16 S :    0.093257
  17 C :   -0.120277
  18 C :   -0.076865
  19 C :   -0.010198
  20 C :   -0.150752
  21 H :    0.051744
  22 C :    0.130554
  23 H :    0.051750
  24 H :   -0.000062
  25 C :   -0.173976
  26 H :    0.043378
  27 H :    0.044318
  28 C :   -0.038953
  29 H :    0.023424
  30 H :    0.025768
  31 H :    0.054890
  32 H :    0.081800
  33 H :    0.078053
Sum of atomic charges:    0.0000000

LOEWDIN ATOMIC CHARGES
----------------------
   0 S :    0.436142
   1 C :   -0.227419
   2 C :   -0.067953
   3 C :   -0.057940
   4 C :   -0.202024
   5 H :    0.017039
   6 C :   -0.033021
   7 H :    0.038237
   8 H :    0.031947
   9 C :   -0.037686
  10 H :    0.016461
  11 H :    0.024933
  12 C :   -0.075292
  13 H :    0.028051
  14 H :    0.022312
  15 H :    0.030363
  16 S :    0.379049
  17 C :   -0.193103
  18 C :   -0.090784
  19 C :   -0.051345
  20 C :   -0.183222
  21 H :    0.050795
  22 C :   -0.023221
  23 H :    0.039317
  24 H :    0.021002
  25 C :   -0.045140
  26 H :    0.026927
  27 H :    0.025777
  28 C :   -0.072578
  29 H :    0.023772
  30 H :    0.016758
  31 H :    0.037892
  32 H :    0.048442
  33 H :    0.045512

  Mayer bond orders larger than 0.100000
B(  0-S ,  1-C ) :   1.1629 B(  0-S ,  4-C ) :   1.1669 B(  1-C ,  2-C ) :   1.5771
B(  1-C ,  4-C ) :   0.1006 B(  1-C , 32-H ) :   0.9567 B(  2-C ,  3-C ) :   1.2808
B(  2-C ,  6-C ) :   1.0220 B(  3-C ,  4-C ) :   1.5471 B(  3-C ,  5-H ) :   1.0017
B(  4-C , 20-C ) :   1.0455 B(  6-C ,  7-H ) :   0.9387 B(  6-C ,  8-H ) :   0.9463
B(  6-C ,  9-C ) :   1.0575 B(  9-C , 10-H ) :   0.9572 B(  9-C , 11-H ) :   0.9596
B(  9-C , 12-C ) :   1.0735 B( 12-C , 13-H ) :   0.9756 B( 12-C , 14-H ) :   0.9779
B( 12-C , 15-H ) :   0.9745 B( 16-S , 17-C ) :   1.1447 B( 16-S , 20-C ) :   1.1315
B( 17-C , 18-C ) :   1.6500 B( 17-C , 20-C ) :   0.1051 B( 17-C , 33-H ) :   0.9553
B( 18-C , 19-C ) :   1.2109 B( 18-C , 21-H ) :   0.9728 B( 19-C , 20-C ) :   1.5828
B( 19-C , 22-C ) :   1.0636 B( 22-C , 23-H ) :   0.9341 B( 22-C , 24-H ) :   0.9269
B( 22-C , 25-C ) :   1.0453 B( 25-C , 26-H ) :   0.9592 B( 25-C , 27-H ) :   0.9596
B( 25-C , 28-C ) :   1.0738 B( 28-C , 29-H ) :   0.9734 B( 28-C , 30-H ) :   0.9761
B( 28-C , 31-H ) :   0.9749

Dispersion correction           -0.013361281
FINAL SINGLE POINT ENERGY     -1339.868006924491

DIPOLE MOMENT
-------------
                                X             Y             Z
Electronic contribution:     -0.92448      30.12963      -8.62139
Nuclear contribution   :      0.91862     -30.69607       8.97768
                        -----------------------------------------
Total Dipole Moment    :     -0.00586      -0.56643       0.35629
                        -----------------------------------------
Magnitude (a.u.)       :      0.66920
Magnitude (Debye)      :      1.70097

Rotational constants in cm-1:     0.017468     0.008112     0.005893
Rotational constants in MHz :   523.674136   243.178211   176.680689

                             ****ORCA TERMINATED NORMALLY****
TOTAL RUN TIME: 0 days 0 hours 0 minutes 36 seconds 161 msec
