                         Program Version 4.2.1 -  RELEASE  -
|  1> ! wB97X-D3 SP def2-SVP
|  2> %pal
|  3> nprocs 16
|  4> end
|  5>
|  6> * xyz 0 1
|  7> S 	 46.3669 	 11.4197 	 50.0797
|  8> C 	 46.7577 	 11.0982 	 48.4566
|  9> C 	 46.8888 	 12.2681 	 47.6909
| 10> C 	 46.89 	 13.4153 	 48.5433
| 11> C 	 46.6065 	 13.1324 	 49.8312
| 12> H 	 47.131 	 14.417 	 48.3635
| 13> C 	 47.2997 	 12.4259 	 46.1954
| 14> H 	 48.1427 	 11.7746 	 45.9186
| 15> H 	 47.7324 	 13.4168 	 46.0562
| 16> C 	 46.1551 	 12.2473 	 45.1973
| 17> H 	 45.4248 	 12.8905 	 45.4686
| 18> H 	 46.4814 	 12.4408 	 44.1296
| 19> C 	 45.6625 	 10.8245 	 45.0664
| 20> H 	 45.3517 	 10.5339 	 46.0531
| 21> H 	 44.822 	 10.7106 	 44.3928
| 22> H 	 46.472 	 10.1586 	 44.7908
| 23> S 	 47.3419 	 13.8256 	 52.4058
| 24> C 	 46.911 	 15.4497 	 52.9587
| 25> C 	 46.0441 	 16.0918 	 52.1256
| 26> C 	 45.9326 	 15.3621 	 50.9294
| 27> C 	 46.5019 	 14.1087 	 50.9092
| 28> H 	 45.6735 	 17.0305 	 52.3759
| 29> C 	 45.1796 	 16.0552 	 49.7692
| 30> H 	 44.8825 	 15.354 	 48.9785
| 31> H 	 45.9534 	 16.7055 	 49.3121
| 32> C 	 43.8945 	 16.7834 	 50.1467
| 33> H 	 44.0325 	 17.4909 	 50.9467
| 34> H 	 43.1289 	 16.0667 	 50.3705
| 35> C 	 43.3095 	 17.5214 	 48.99
| 36> H 	 42.8845 	 16.8073 	 48.3173
| 37> H 	 44.1132 	 18.0878 	 48.4817
| 38> H 	 42.4353 	 18.2065 	 49.3193
| 39> H 	 46.7477 	 10.1365 	 48.0108
| 40> H 	 47.3116 	 15.8927 	 53.9377
| 41> *
| 42>
| 43>                          ****END OF INPUT****

CARTESIAN COORDINATES (ANGSTROEM)
---------------------------------
  S     46.366900   11.419700   50.079700
  C     46.757700   11.098200   48.456600
  C     46.888800   12.268100   47.690900
  C     46.890000   13.415300   48.543300
  C     46.606500   13.132400   49.831200
  H     47.131000   14.417000   48.363500
  C     47.299700   12.425900   46.195400
  H     48.142700   11.774600   45.918600
  H     47.732400   13.416800   46.056200
  C     46.155100   12.247300   45.197300
  H     45.424800   12.890500   45.468600
  H     46.481400   12.440800   44.129600
  C     45.662500   10.824500   45.066400
  H     45.351700   10.533900   46.053100
  H     44.822000   10.710600   44.392800
  H     46.472000   10.158600   44.790800
  S     47.341900   13.825600   52.405800
  C     46.911000   15.449700   52.958700
  C     46.044100   16.091800   52.125600
  C     45.932600   15.362100   50.929400
  C     46.501900   14.108700   50.909200
  H     45.673500   17.030500   52.375900
  C     45.179600   16.055200   49.769200
  H     44.882500   15.354000   48.978500
  H     45.953400   16.705500   49.312100
  C     43.894500   16.783400   50.146700
  H     44.032500   17.490900   50.946700
  H     43.128900   16.066700   50.370500
  C     43.309500   17.521400   48.990000
  H     42.884500   16.807300   48.317300
  H     44.113200   18.087800   48.481700
  H     42.435300   18.206500   49.319300
  H     46.747700   10.136500   48.010800
  H     47.311600   15.892700   53.937700

 Total Charge           Charge          ....    0
 Multiplicity           Mult            ....    1
 Number of Electrons    NEL             ....  134
 Basis Dimension        Dim             ....  322

ORBITAL ENERGIES
----------------

  NO   OCC          E(Eh)            E(eV)
   0   2.0000     -88.967434     -2420.9269
   1   2.0000     -88.964840     -2420.8564
   2   2.0000     -10.323906      -280.9278
   3   2.0000     -10.322947      -280.9017
   4   2.0000     -10.322780      -280.8971
   5   2.0000     -10.312395      -280.6145
   6   2.0000     -10.305754      -280.4338
   7   2.0000     -10.302045      -280.3329
   8   2.0000     -10.294678      -280.1324
   9   2.0000     -10.293818      -280.1090
  10   2.0000     -10.288399      -279.9616
  11   2.0000     -10.285325      -279.8779
  12   2.0000     -10.280719      -279.7526
  13   2.0000     -10.279625      -279.7228
  14   2.0000     -10.278173      -279.6833
  15   2.0000     -10.269820      -279.4560
  16   2.0000      -8.083182      -219.9546
  17   2.0000      -8.079723      -219.8604
  18   2.0000      -6.041542      -164.3987
  19   2.0000      -6.038230      -164.3086
  20   2.0000      -6.037581      -164.2909
  21   2.0000      -6.034266      -164.2007
  22   2.0000      -6.034016      -164.1939
  23   2.0000      -6.030423      -164.0962
  24   2.0000      -1.013000       -27.5651
  25   2.0000      -0.990666       -26.9574
  26   2.0000      -0.915488       -24.9117
  27   2.0000      -0.911807       -24.8115
  28   2.0000      -0.874899       -23.8072
  29   2.0000      -0.858572       -23.3629
  30   2.0000      -0.849279       -23.1101
  31   2.0000      -0.815793       -22.1989
  32   2.0000      -0.783357       -21.3162
  33   2.0000      -0.769175       -20.9303
  34   2.0000      -0.702606       -19.1189
  35   2.0000      -0.695346       -18.9213
  36   2.0000      -0.693610       -18.8741
  37   2.0000      -0.663245       -18.0478
  38   2.0000      -0.650223       -17.6935
  39   2.0000      -0.620542       -16.8858
  40   2.0000      -0.597830       -16.2678
  41   2.0000      -0.578357       -15.7379
  42   2.0000      -0.577622       -15.7179
  43   2.0000      -0.550943       -14.9919
  44   2.0000      -0.547789       -14.9061
  45   2.0000      -0.527515       -14.3544
  46   2.0000      -0.518350       -14.1050
  47   2.0000      -0.514197       -13.9920
  48   2.0000      -0.500584       -13.6216
  49   2.0000      -0.498586       -13.5672
  50   2.0000      -0.485997       -13.2247
  51   2.0000      -0.479636       -13.0516
  52   2.0000      -0.472199       -12.8492
  53   2.0000      -0.466975       -12.7070
  54   2.0000      -0.462545       -12.5865
  55   2.0000      -0.456799       -12.4301
  56   2.0000      -0.442526       -12.0417
  57   2.0000      -0.436513       -11.8781
  58   2.0000      -0.432764       -11.7761
  59   2.0000      -0.429228       -11.6799
  60   2.0000      -0.422807       -11.5052
  61   2.0000      -0.414019       -11.2660
  62   2.0000      -0.406088       -11.0502
  63   2.0000      -0.355784        -9.6814
  64   2.0000      -0.334692        -9.1074
  65   2.0000      -0.330858        -9.0031
  66   2.0000      -0.290022        -7.8919
  67   0.0000       0.033247         0.9047
  68   0.0000       0.071675         1.9504
  69   0.0000       0.114463         3.1147
  70   0.0000       0.121944         3.3183
  71   0.0000       0.132906         3.6166

MULLIKEN ATOMIC CHARGES
-----------------------
   0 S :    0.124361
   1 C :   -0.097789
   2 C :   -0.081783
   3 C :    0.023148
   4 C :   -0.146889
   5 H :   -0.009257
   6 C :    0.049936
   7 H :    0.031197
   8 H :    0.021346
   9 C :   -0.040758
  10 H :    0.007102
  11 H :    0.031212
  12 C :   -0.040586
  13 H :    0.012377
  14 H :    0.036729
  15 H :    0.023045
  16 S :    0.101428
  17 C :   -0.122163
  18 C :    0.000021
  19 C :   -0.032570
  20 C :   -0.136631
  21 H :   -0.002012
  22 C :    0.014572
  23 H :    0.027517
  24 H :    0.042010
  25 C :   -0.049090
  26 H :    0.025596
  27 H :    0.032245
  28 C :   -0.066419
  29 H :    0.024427
  30 H :    0.029879
  31 H :    0.047252
  32 H :    0.041186
  33 H :    0.079359
Sum of atomic charges:    0.0000000

LOEWDIN ATOMIC CHARGES
----------------------
   0 S :    0.425963
   1 C :   -0.204775
   2 C :   -0.059993
   3 C :   -0.059002
   4 C :   -0.191447
   5 H :    0.024999
   6 C :   -0.028196
   7 H :    0.030786
   8 H :    0.030938
   9 C :   -0.034759
  10 H :    0.007805
  11 H :    0.030242
  12 C :   -0.062496
  13 H :    0.016523
  14 H :    0.026109
  15 H :    0.022636
  16 S :    0.397372
  17 C :   -0.175719
  18 C :   -0.066739
  19 C :   -0.053426
  20 C :   -0.209678
  21 H :    0.024737
  22 C :   -0.034564
  23 H :    0.029669
  24 H :    0.032827
  25 C :   -0.042927
  26 H :    0.016985
  27 H :    0.028783
  28 C :   -0.065609
  29 H :    0.018937
  30 H :    0.023559
  31 H :    0.037040
  32 H :    0.020772
  33 H :    0.042647

  Mayer bond orders larger than 0.100000
B(  0-S ,  1-C ) :   1.1582 B(  0-S ,  4-C ) :   1.1455 B(  1-C ,  2-C ) :   1.5959
B(  1-C , 32-H ) :   0.9689 B(  2-C ,  3-C ) :   1.2250 B(  2-C ,  6-C ) :   1.0043
B(  3-C ,  4-C ) :   1.6065 B(  3-C ,  5-H ) :   1.0031 B(  4-C , 20-C ) :   1.0282
B(  6-C ,  7-H ) :   0.9498 B(  6-C ,  8-H ) :   0.9456 B(  6-C ,  9-C ) :   1.0717
B(  9-C , 10-H ) :   0.9539 B(  9-C , 11-H ) :   0.9562 B(  9-C , 12-C ) :   1.0825
B( 12-C , 13-H ) :   0.9720 B( 12-C , 14-H ) :   0.9724 B( 12-C , 15-H ) :   0.9742
B( 16-S , 17-C ) :   1.1636 B( 16-S , 20-C ) :   1.1204 B( 17-C , 18-C ) :   1.6109
B( 17-C , 33-H ) :   0.9538 B( 18-C , 19-C ) :   1.2281 B( 18-C , 21-H ) :   1.0056
B( 19-C , 20-C ) :   1.6231 B( 19-C , 22-C ) :   1.0233 B( 22-C , 23-H ) :   0.9390
B( 22-C , 24-H ) :   0.9327 B( 22-C , 25-C ) :   1.0739 B( 25-C , 26-H ) :   0.9490
B( 25-C , 27-H ) :   0.9536 B( 25-C , 28-C ) :   1.0908 B( 28-C , 29-H ) :   0.9752
B( 28-C , 30-H ) :   0.9729 B( 28-C , 31-H ) :   0.9717

Dispersion correction           -0.013752287
FINAL SINGLE POINT ENERGY     -1339.871956391939

DIPOLE MOMENT
-------------
                                X             Y             Z
Electronic contribution:     11.70779     -10.21032      24.66299
Nuclear contribution   :    -11.83493      10.71024     -25.05065
                        -----------------------------------------
Total Dipole Moment    :     -0.12715       0.49992      -0.38766
                        -----------------------------------------
Magnitude (a.u.)       :      0.64527
Magnitude (Debye)      :      1.64014

Rotational constants in cm-1:     0.018153     0.008614     0.006321
Rotational constants in MHz :   544.198285   258.250151   189.507978

                             ****ORCA TERMINATED NORMALLY****
TOTAL RUN TIME: 0 days 0 hours 0 minutes 34 seconds 352 msec
