                         Program Version 4.2.1 -  RELEASE  -
|  1> ! wB97X-D3 SP def2-SVP
|  2> %pal
|  3> nprocs 16
|  4> end
|  5>
|  6> * xyz 0 1
|  7> S 	 -77.6854 	 43.793 	 127.758
|  8> C 	 -79.274 	 43.8468 	 127.071
|  9> C 	 -80.1961 	 44.1956 	 128.047
| 10> C 	 -79.6118 	 44.4316 	 129.325
| 11> C 	 -78.1974 	 44.2656 	 129.354
| 12> H 	 -80.126 	 44.6954 	 130.198
| 13> C 	 -81.6851 	 44.0556 	 127.79
| 14> H 	 -81.9062 	 43.926 	 126.722
| 15> H 	 -81.9901 	 45.119 	 127.914
| 16> C 	 -82.3961 	 43.2199 	 128.883
| 17> H 	 -81.8757 	 42.2563 	 128.885
| 18> H 	 -82.2945 	 43.6767 	 129.908
| 19> C 	 -83.9002 	 43.0599 	 128.576
| 20> H 	 -84.404 	 43.8558 	 128.118
| 21> H 	 -84.1078 	 42.2426 	 127.876
| 22> H 	 -84.4177 	 42.8669 	 129.486
| 23> S 	 -75.7098 	 45.274 	 130.194
| 24> C 	 -75.1074 	 44.9267 	 131.797
| 25> C 	 -76.1371 	 44.4393 	 132.555
| 26> C 	 -77.3554 	 44.1481 	 131.84
| 27> C 	 -77.2683 	 44.4762 	 130.519
| 28> H 	 -76.0664 	 44.1535 	 133.661
| 29> C 	 -78.5155 	 43.6384 	 132.598
| 30> H 	 -79.493 	 43.8458 	 132.174
| 31> H 	 -78.5378 	 44.021 	 133.628
| 32> C 	 -78.5075 	 42.0344 	 132.533
| 33> H 	 -77.5506 	 41.4817 	 132.772
| 34> H 	 -78.8788 	 41.8314 	 131.557
| 35> C 	 -79.6091 	 41.5445 	 133.481
| 36> H 	 -79.3554 	 41.6251 	 134.529
| 37> H 	 -79.7191 	 40.4663 	 133.359
| 38> H 	 -80.5659 	 42.0779 	 133.216
| 39> H 	 -79.5048 	 43.556 	 126.108
| 40> H 	 -74.1669 	 45.1794 	 132.349
| 41> *
| 42>
| 43>                          ****END OF INPUT****

CARTESIAN COORDINATES (ANGSTROEM)
---------------------------------
  S    -77.685400   43.793000  127.758000
  C    -79.274000   43.846800  127.071000
  C    -80.196100   44.195600  128.047000
  C    -79.611800   44.431600  129.325000
  C    -78.197400   44.265600  129.354000
  H    -80.126000   44.695400  130.198000
  C    -81.685100   44.055600  127.790000
  H    -81.906200   43.926000  126.722000
  H    -81.990100   45.119000  127.914000
  C    -82.396100   43.219900  128.883000
  H    -81.875700   42.256300  128.885000
  H    -82.294500   43.676700  129.908000
  C    -83.900200   43.059900  128.576000
  H    -84.404000   43.855800  128.118000
  H    -84.107800   42.242600  127.876000
  H    -84.417700   42.866900  129.486000
  S    -75.709800   45.274000  130.194000
  C    -75.107400   44.926700  131.797000
  C    -76.137100   44.439300  132.555000
  C    -77.355400   44.148100  131.840000
  C    -77.268300   44.476200  130.519000
  H    -76.066400   44.153500  133.661000
  C    -78.515500   43.638400  132.598000
  H    -79.493000   43.845800  132.174000
  H    -78.537800   44.021000  133.628000
  C    -78.507500   42.034400  132.533000
  H    -77.550600   41.481700  132.772000
  H    -78.878800   41.831400  131.557000
  C    -79.609100   41.544500  133.481000
  H    -79.355400   41.625100  134.529000
  H    -79.719100   40.466300  133.359000
  H    -80.565900   42.077900  133.216000
  H    -79.504800   43.556000  126.108000
  H    -74.166900   45.179400  132.349000

 Total Charge           Charge          ....    0
 Multiplicity           Mult            ....    1
 Number of Electrons    NEL             ....  134
 Basis Dimension        Dim             ....  322

ORBITAL ENERGIES
----------------

  NO   OCC          E(Eh)            E(eV)
   0   2.0000     -88.966573     -2420.9035
   1   2.0000     -88.965155     -2420.8649
   2   2.0000     -10.338930      -281.3366
   3   2.0000     -10.332196      -281.1533
   4   2.0000     -10.320433      -280.8333
   5   2.0000     -10.307208      -280.4734
   6   2.0000     -10.300629      -280.2944
   7   2.0000     -10.300101      -280.2800
   8   2.0000     -10.298397      -280.2336
   9   2.0000     -10.296575      -280.1841
  10   2.0000     -10.295755      -280.1618
  11   2.0000     -10.295449      -280.1534
  12   2.0000     -10.294699      -280.1330
  13   2.0000     -10.290123      -280.0085
  14   2.0000     -10.278930      -279.7039
  15   2.0000     -10.273654      -279.5603
  16   2.0000      -8.081358      -219.9049
  17   2.0000      -8.079335      -219.8499
  18   2.0000      -6.039811      -164.3516
  19   2.0000      -6.038171      -164.3070
  20   2.0000      -6.035630      -164.2378
  21   2.0000      -6.033902      -164.1908
  22   2.0000      -6.032397      -164.1499
  23   2.0000      -6.029778      -164.0786
  24   2.0000      -1.004351       -27.3298
  25   2.0000      -0.985953       -26.8291
  26   2.0000      -0.910295       -24.7704
  27   2.0000      -0.908854       -24.7312
  28   2.0000      -0.866302       -23.5733
  29   2.0000      -0.852057       -23.1856
  30   2.0000      -0.844884       -22.9905
  31   2.0000      -0.816099       -22.2072
  32   2.0000      -0.779707       -21.2169
  33   2.0000      -0.770803       -20.9746
  34   2.0000      -0.712583       -19.3904
  35   2.0000      -0.699216       -19.0266
  36   2.0000      -0.690083       -18.7781
  37   2.0000      -0.659406       -17.9434
  38   2.0000      -0.645596       -17.5676
  39   2.0000      -0.620776       -16.8922
  40   2.0000      -0.598509       -16.2862
  41   2.0000      -0.565989       -15.4013
  42   2.0000      -0.562794       -15.3144
  43   2.0000      -0.560209       -15.2441
  44   2.0000      -0.532564       -14.4918
  45   2.0000      -0.519422       -14.1342
  46   2.0000      -0.515626       -14.0309
  47   2.0000      -0.510907       -13.9025
  48   2.0000      -0.506905       -13.7936
  49   2.0000      -0.504262       -13.7217
  50   2.0000      -0.489711       -13.3257
  51   2.0000      -0.486300       -13.2329
  52   2.0000      -0.473937       -12.8965
  53   2.0000      -0.460196       -12.5226
  54   2.0000      -0.458895       -12.4872
  55   2.0000      -0.451901       -12.2969
  56   2.0000      -0.444052       -12.0833
  57   2.0000      -0.442198       -12.0328
  58   2.0000      -0.433238       -11.7890
  59   2.0000      -0.425856       -11.5881
  60   2.0000      -0.420959       -11.4549
  61   2.0000      -0.416125       -11.3233
  62   2.0000      -0.409238       -11.1359
  63   2.0000      -0.350691        -9.5428
  64   2.0000      -0.327096        -8.9007
  65   2.0000      -0.325163        -8.8481
  66   2.0000      -0.290877        -7.9152
  67   0.0000       0.026993         0.7345
  68   0.0000       0.078478         2.1355
  69   0.0000       0.107494         2.9250
  70   0.0000       0.118374         3.2211
  71   0.0000       0.129492         3.5237

MULLIKEN ATOMIC CHARGES
-----------------------
   0 S :    0.117562
   1 C :   -0.100935
   2 C :   -0.082615
   3 C :    0.030966
   4 C :   -0.141323
   5 H :   -0.012848
   6 C :    0.058105
   7 H :    0.023202
   8 H :    0.030686
   9 C :   -0.097710
  10 H :    0.045901
  11 H :    0.043710
  12 C :   -0.010882
  13 H :    0.014551
  14 H :    0.029453
  15 H :    0.024286
  16 S :    0.102021
  17 C :   -0.087429
  18 C :   -0.070844
  19 C :   -0.007789
  20 C :   -0.150388
  21 H :    0.041770
  22 C :    0.031529
  23 H :    0.006955
  24 H :    0.034313
  25 C :   -0.094752
  26 H :    0.051427
  27 H :    0.033657
  28 C :   -0.050308
  29 H :    0.030230
  30 H :    0.029857
  31 H :    0.032893
  32 H :    0.019478
  33 H :    0.075268
Sum of atomic charges:    0.0000000

LOEWDIN ATOMIC CHARGES
----------------------
   0 S :    0.425635
   1 C :   -0.198539
   2 C :   -0.061633
   3 C :   -0.065367
   4 C :   -0.193423
   5 H :    0.016416
   6 C :   -0.040154
   7 H :    0.031535
   8 H :    0.036754
   9 C :   -0.037581
  10 H :    0.028646
  11 H :    0.031018
  12 C :   -0.064029
  13 H :    0.018205
  14 H :    0.029273
  15 H :    0.023595
  16 S :    0.391902
  17 C :   -0.199750
  18 C :   -0.080926
  19 C :   -0.061538
  20 C :   -0.186526
  21 H :    0.040740
  22 C :   -0.028892
  23 H :    0.025146
  24 H :    0.031751
  25 C :   -0.030128
  26 H :    0.031106
  27 H :    0.022145
  28 C :   -0.071142
  29 H :    0.020098
  30 H :    0.024329
  31 H :    0.028152
  32 H :    0.013456
  33 H :    0.049726

  Mayer bond orders larger than 0.100000
B(  0-S ,  1-C ) :   1.1477 B(  0-S ,  4-C ) :   1.1839 B(  1-C ,  2-C ) :   1.5673
B(  1-C ,  4-C ) :   0.1039 B(  1-C , 32-H ) :   0.9831 B(  2-C ,  3-C ) :   1.2740
B(  2-C ,  6-C ) :   1.0202 B(  3-C ,  4-C ) :   1.5177 B(  3-C ,  5-H ) :   1.0005
B(  4-C , 20-C ) :   1.0282 B(  6-C ,  7-H ) :   0.9530 B(  6-C ,  8-H ) :   0.9244
B(  6-C ,  9-C ) :   1.0512 B(  9-C , 10-H ) :   0.9634 B(  9-C , 11-H ) :   0.9525
B(  9-C , 12-C ) :   1.0753 B( 12-C , 13-H ) :   0.9758 B( 12-C , 14-H ) :   0.9748
B( 12-C , 15-H ) :   0.9760 B( 16-S , 17-C ) :   1.1350 B( 16-S , 20-C ) :   1.1199
B( 17-C , 18-C ) :   1.6321 B( 17-C , 33-H ) :   0.9578 B( 18-C , 19-C ) :   1.2391
B( 18-C , 21-H ) :   0.9687 B( 19-C , 20-C ) :   1.6237 B( 19-C , 22-C ) :   1.0576
B( 22-C , 23-H ) :   0.9344 B( 22-C , 24-H ) :   0.9469 B( 22-C , 25-C ) :   1.0363
B( 25-C , 26-H ) :   0.9634 B( 25-C , 27-H ) :   0.9573 B( 25-C , 28-C ) :   1.0852
B( 28-C , 29-H ) :   0.9770 B( 28-C , 30-H ) :   0.9725 B( 28-C , 31-H ) :   0.9689

Dispersion correction           -0.014057833
FINAL SINGLE POINT ENERGY     -1339.865910472564

DIPOLE MOMENT
-------------
                                X             Y             Z
Electronic contribution:     27.95344      12.22343     -11.37164
Nuclear contribution   :    -28.61904     -12.49291      11.79084
                        -----------------------------------------
Total Dipole Moment    :     -0.66560      -0.26948       0.41920
                        -----------------------------------------
Magnitude (a.u.)       :      0.83149
Magnitude (Debye)      :      2.11348

Rotational constants in cm-1:     0.017784     0.009123     0.006516
Rotational constants in MHz :   533.165456   273.495984   195.329984

                             ****ORCA TERMINATED NORMALLY****
TOTAL RUN TIME: 0 days 0 hours 0 minutes 34 seconds 198 msec
