                         Program Version 4.2.1 -  RELEASE  -
|  1> ! wB97X-D3 SP def2-SVP
|  2> %pal
|  3> nprocs 16
|  4> end
|  5>
|  6> * xyz 0 1
|  7> S 	 -9.62538 	 -2.02454 	 78.3763
|  8> C 	 -8.30816 	 -2.17862 	 79.4654
|  9> C 	 -8.61927 	 -2.83938 	 80.632
| 10> C 	 -10.0261 	 -3.00618 	 80.696
| 11> C 	 -10.7652 	 -2.63757 	 79.5177
| 12> H 	 -10.691 	 -3.23251 	 81.5424
| 13> C 	 -7.7877 	 -3.05708 	 81.8846
| 14> H 	 -7.16184 	 -3.87842 	 81.7126
| 15> H 	 -8.54936 	 -3.41732 	 82.614
| 16> C 	 -6.99677 	 -1.84436 	 82.2696
| 17> H 	 -6.11487 	 -1.61979 	 81.6232
| 18> H 	 -7.53173 	 -0.899739 	 82.3899
| 19> C 	 -6.33609 	 -2.01143 	 83.6572
| 20> H 	 -5.96739 	 -3.08212 	 83.7911
| 21> H 	 -5.67983 	 -1.19666 	 83.8463
| 22> H 	 -7.1758 	 -1.87004 	 84.4109
| 23> S 	 -12.845 	 -0.942539 	 78.7131
| 24> C 	 -14.4218 	 -1.57737 	 78.7229
| 25> C 	 -14.4526 	 -2.79105 	 79.4433
| 26> C 	 -13.2332 	 -3.24474 	 79.9725
| 27> C 	 -12.2081 	 -2.42832 	 79.5389
| 28> H 	 -15.4047 	 -3.24752 	 79.6185
| 29> C 	 -13.195 	 -4.55056 	 80.6899
| 30> H 	 -12.145 	 -4.82911 	 80.9369
| 31> H 	 -13.484 	 -5.49866 	 80.1146
| 32> C 	 -13.8266 	 -4.7033 	 82.0354
| 33> H 	 -13.4781 	 -5.69755 	 82.4525
| 34> H 	 -14.9022 	 -4.71724 	 81.9483
| 35> C 	 -13.6274 	 -3.68791 	 83.1578
| 36> H 	 -14.4312 	 -3.98445 	 83.8543
| 37> H 	 -13.8303 	 -2.63777 	 82.8381
| 38> H 	 -12.5934 	 -3.8155 	 83.5371
| 39> H 	 -7.39914 	 -1.73665 	 79.3047
| 40> H 	 -15.2632 	 -1.01243 	 78.4102
| 41> *
| 42>
| 43>                          ****END OF INPUT****

CARTESIAN COORDINATES (ANGSTROEM)
---------------------------------
  S     -9.625380   -2.024540   78.376300
  C     -8.308160   -2.178620   79.465400
  C     -8.619270   -2.839380   80.632000
  C    -10.026100   -3.006180   80.696000
  C    -10.765200   -2.637570   79.517700
  H    -10.691000   -3.232510   81.542400
  C     -7.787700   -3.057080   81.884600
  H     -7.161840   -3.878420   81.712600
  H     -8.549360   -3.417320   82.614000
  C     -6.996770   -1.844360   82.269600
  H     -6.114870   -1.619790   81.623200
  H     -7.531730   -0.899739   82.389900
  C     -6.336090   -2.011430   83.657200
  H     -5.967390   -3.082120   83.791100
  H     -5.679830   -1.196660   83.846300
  H     -7.175800   -1.870040   84.410900
  S    -12.845000   -0.942539   78.713100
  C    -14.421800   -1.577370   78.722900
  C    -14.452600   -2.791050   79.443300
  C    -13.233200   -3.244740   79.972500
  C    -12.208100   -2.428320   79.538900
  H    -15.404700   -3.247520   79.618500
  C    -13.195000   -4.550560   80.689900
  H    -12.145000   -4.829110   80.936900
  H    -13.484000   -5.498660   80.114600
  C    -13.826600   -4.703300   82.035400
  H    -13.478100   -5.697550   82.452500
  H    -14.902200   -4.717240   81.948300
  C    -13.627400   -3.687910   83.157800
  H    -14.431200   -3.984450   83.854300
  H    -13.830300   -2.637770   82.838100
  H    -12.593400   -3.815500   83.537100
  H     -7.399140   -1.736650   79.304700
  H    -15.263200   -1.012430   78.410200

 Total Charge           Charge          ....    0
 Multiplicity           Mult            ....    1
 Number of Electrons    NEL             ....  134
 Basis Dimension        Dim             ....  322

ORBITAL ENERGIES
----------------

  NO   OCC          E(Eh)            E(eV)
   0   2.0000     -88.969055     -2420.9711
   1   2.0000     -88.966498     -2420.9015
   2   2.0000     -10.333661      -281.1932
   3   2.0000     -10.326249      -280.9915
   4   2.0000     -10.314217      -280.6641
   5   2.0000     -10.305540      -280.4280
   6   2.0000     -10.302524      -280.3459
   7   2.0000     -10.299670      -280.2683
   8   2.0000     -10.294719      -280.1336
   9   2.0000     -10.294267      -280.1212
  10   2.0000     -10.293915      -280.1117
  11   2.0000     -10.290730      -280.0250
  12   2.0000     -10.289979      -280.0046
  13   2.0000     -10.285960      -279.8952
  14   2.0000     -10.284914      -279.8667
  15   2.0000     -10.282199      -279.7929
  16   2.0000      -8.084263      -219.9840
  17   2.0000      -8.081228      -219.9014
  18   2.0000      -6.042712      -164.4305
  19   2.0000      -6.039635      -164.3468
  20   2.0000      -6.038481      -164.3154
  21   2.0000      -6.035728      -164.2405
  22   2.0000      -6.035290      -164.2286
  23   2.0000      -6.032096      -164.1417
  24   2.0000      -1.007649       -27.4195
  25   2.0000      -0.987698       -26.8766
  26   2.0000      -0.918671       -24.9983
  27   2.0000      -0.915521       -24.9126
  28   2.0000      -0.869102       -23.6495
  29   2.0000      -0.858202       -23.3529
  30   2.0000      -0.848497       -23.0888
  31   2.0000      -0.804250       -21.8847
  32   2.0000      -0.789322       -21.4785
  33   2.0000      -0.778477       -21.1834
  34   2.0000      -0.708703       -19.2848
  35   2.0000      -0.694686       -18.9034
  36   2.0000      -0.686274       -18.6745
  37   2.0000      -0.659513       -17.9463
  38   2.0000      -0.644359       -17.5339
  39   2.0000      -0.617121       -16.7927
  40   2.0000      -0.603780       -16.4297
  41   2.0000      -0.569776       -15.5044
  42   2.0000      -0.564987       -15.3741
  43   2.0000      -0.553052       -15.0493
  44   2.0000      -0.546119       -14.8607
  45   2.0000      -0.536023       -14.5859
  46   2.0000      -0.524123       -14.2621
  47   2.0000      -0.513892       -13.9837
  48   2.0000      -0.504117       -13.7177
  49   2.0000      -0.500577       -13.6214
  50   2.0000      -0.492679       -13.4065
  51   2.0000      -0.476253       -12.9595
  52   2.0000      -0.473288       -12.8788
  53   2.0000      -0.464870       -12.6497
  54   2.0000      -0.459561       -12.5053
  55   2.0000      -0.451570       -12.2878
  56   2.0000      -0.442271       -12.0348
  57   2.0000      -0.434800       -11.8315
  58   2.0000      -0.430249       -11.7077
  59   2.0000      -0.420723       -11.4485
  60   2.0000      -0.419644       -11.4191
  61   2.0000      -0.413696       -11.2572
  62   2.0000      -0.398697       -10.8491
  63   2.0000      -0.351515        -9.5652
  64   2.0000      -0.335002        -9.1159
  65   2.0000      -0.330035        -8.9807
  66   2.0000      -0.279857        -7.6153
  67   0.0000       0.018765         0.5106
  68   0.0000       0.075980         2.0675
  69   0.0000       0.107732         2.9315
  70   0.0000       0.119612         3.2548
  71   0.0000       0.127595         3.4720

MULLIKEN ATOMIC CHARGES
-----------------------
   0 S :    0.129873
   1 C :   -0.112823
   2 C :   -0.054989
   3 C :   -0.031913
   4 C :   -0.145467
   5 H :    0.021253
   6 C :    0.135842
   7 H :    0.022264
   8 H :    0.025556
   9 C :   -0.111521
  10 H :    0.038667
  11 H :    0.038811
  12 C :   -0.075053
  13 H :    0.043525
  14 H :    0.034921
  15 H :    0.030061
  16 S :    0.109652
  17 C :   -0.087308
  18 C :   -0.041958
  19 C :    0.024841
  20 C :   -0.173707
  21 H :    0.009538
  22 C :    0.048881
  23 H :    0.006247
  24 H :    0.052053
  25 C :   -0.125220
  26 H :    0.035575
  27 H :    0.017712
  28 C :   -0.066093
  29 H :    0.042457
  30 H :    0.050506
  31 H :    0.041733
  32 H :    0.013542
  33 H :    0.052543
Sum of atomic charges:    0.0000000

LOEWDIN ATOMIC CHARGES
----------------------
   0 S :    0.439765
   1 C :   -0.192422
   2 C :   -0.061882
   3 C :   -0.064997
   4 C :   -0.217575
   5 H :    0.028163
   6 C :   -0.024987
   7 H :    0.029270
   8 H :    0.038011
   9 C :   -0.047822
  10 H :    0.028303
  11 H :    0.028588
  12 C :   -0.069740
  13 H :    0.030630
  14 H :    0.020352
  15 H :    0.026916
  16 S :    0.402699
  17 C :   -0.197516
  18 C :   -0.065166
  19 C :   -0.063209
  20 C :   -0.167467
  21 H :    0.024772
  22 C :   -0.048851
  23 H :    0.029990
  24 H :    0.048534
  25 C :   -0.050412
  26 H :    0.033051
  27 H :    0.013359
  28 C :   -0.070589
  29 H :    0.034371
  30 H :    0.030360
  31 H :    0.023470
  32 H :    0.008694
  33 H :    0.023336

  Mayer bond orders larger than 0.100000
B(  0-S ,  1-C ) :   1.1699 B(  0-S ,  4-C ) :   1.1644 B(  1-C ,  2-C ) :   1.5566
B(  1-C , 32-H ) :   0.9794 B(  2-C ,  3-C ) :   1.2861 B(  2-C ,  6-C ) :   1.0142
B(  3-C ,  4-C ) :   1.5186 B(  3-C ,  5-H ) :   0.9772 B(  4-C , 20-C ) :   1.0849
B(  6-C ,  7-H ) :   0.9107 B(  6-C ,  8-H ) :   0.9487 B(  6-C ,  9-C ) :   1.0758
B(  9-C , 10-H ) :   0.9493 B(  9-C , 11-H ) :   0.9623 B(  9-C , 12-C ) :   1.0793
B( 12-C , 13-H ) :   0.9726 B( 12-C , 14-H ) :   0.9748 B( 12-C , 15-H ) :   0.9790
B( 16-S , 17-C ) :   1.1652 B( 16-S , 20-C ) :   1.1422 B( 17-C , 18-C ) :   1.5705
B( 17-C , 33-H ) :   0.9742 B( 18-C , 19-C ) :   1.2577 B( 18-C , 21-H ) :   0.9970
B( 19-C , 20-C ) :   1.5513 B( 19-C , 22-C ) :   1.0468 B( 22-C , 23-H ) :   0.9235
B( 22-C , 24-H ) :   0.9330 B( 22-C , 25-C ) :   1.0725 B( 25-C , 26-H ) :   0.9555
B( 25-C , 27-H ) :   0.9589 B( 25-C , 28-C ) :   1.0792 B( 28-C , 29-H ) :   0.9743
B( 28-C , 30-H ) :   0.9700 B( 28-C , 31-H ) :   0.9728

Dispersion correction           -0.014038425
FINAL SINGLE POINT ENERGY     -1339.849618647755

DIPOLE MOMENT
-------------
                                X             Y             Z
Electronic contribution:     -6.24040       9.72275     -26.76544
Nuclear contribution   :      6.26290      -9.85252      27.34260
                        -----------------------------------------
Total Dipole Moment    :      0.02250      -0.12977       0.57715
                        -----------------------------------------
Magnitude (a.u.)       :      0.59199
Magnitude (Debye)      :      1.50472

Rotational constants in cm-1:     0.018876     0.008436     0.006482
Rotational constants in MHz :   565.889331   252.905660   194.326416

                             ****ORCA TERMINATED NORMALLY****
TOTAL RUN TIME: 0 days 0 hours 0 minutes 33 seconds 926 msec
