                         Program Version 4.2.1 -  RELEASE  -
|  1> ! wB97X-D3 SP def2-SVP
|  2> %pal
|  3> nprocs 16
|  4> end
|  5>
|  6> * xyz 0 1
|  7> S 	 -48.5116 	 66.18 	 130.132
|  8> C 	 -48.1893 	 64.502 	 130.073
|  9> C 	 -47.0164 	 64.2053 	 130.816
| 10> C 	 -46.7781 	 65.2287 	 131.734
| 11> C 	 -47.5324 	 66.3527 	 131.575
| 12> H 	 -46.1316 	 65.1693 	 132.642
| 13> C 	 -46.2631 	 62.9003 	 130.85
| 14> H 	 -46.9104 	 62.2154 	 131.384
| 15> H 	 -45.3796 	 62.9851 	 131.41
| 16> C 	 -45.9025 	 62.1861 	 129.504
| 17> H 	 -45.44 	 61.2196 	 129.796
| 18> H 	 -46.8584 	 61.9234 	 128.976
| 19> C 	 -44.8368 	 62.8541 	 128.572
| 20> H 	 -44.7127 	 63.9406 	 128.753
| 21> H 	 -43.9305 	 62.3812 	 128.754
| 22> H 	 -45.076 	 62.8333 	 127.481
| 23> S 	 -47.1431 	 69.0711 	 131.863
| 24> C 	 -47.2535 	 69.6903 	 133.454
| 25> C 	 -47.5368 	 68.7466 	 134.404
| 26> C 	 -47.8402 	 67.4418 	 133.88
| 27> C 	 -47.6623 	 67.4759 	 132.517
| 28> H 	 -47.5209 	 69.2259 	 135.367
| 29> C 	 -47.9422 	 66.15 	 134.747
| 30> H 	 -46.935 	 65.7678 	 135.031
| 31> H 	 -48.3337 	 65.3245 	 134.142
| 32> C 	 -48.7855 	 66.2418 	 135.944
| 33> H 	 -49.8466 	 66.3443 	 135.728
| 34> H 	 -48.4035 	 67.151 	 136.418
| 35> C 	 -48.5732 	 65.0635 	 136.896
| 36> H 	 -48.6975 	 64.1151 	 136.351
| 37> H 	 -49.2791 	 65.1404 	 137.694
| 38> H 	 -47.5661 	 65.0061 	 137.367
| 39> H 	 -48.6412 	 63.8438 	 129.352
| 40> H 	 -47.1423 	 70.7006 	 133.762
| 41> *
| 42>
| 43>                          ****END OF INPUT****

CARTESIAN COORDINATES (ANGSTROEM)
---------------------------------
  S    -48.511600   66.180000  130.132000
  C    -48.189300   64.502000  130.073000
  C    -47.016400   64.205300  130.816000
  C    -46.778100   65.228700  131.734000
  C    -47.532400   66.352700  131.575000
  H    -46.131600   65.169300  132.642000
  C    -46.263100   62.900300  130.850000
  H    -46.910400   62.215400  131.384000
  H    -45.379600   62.985100  131.410000
  C    -45.902500   62.186100  129.504000
  H    -45.440000   61.219600  129.796000
  H    -46.858400   61.923400  128.976000
  C    -44.836800   62.854100  128.572000
  H    -44.712700   63.940600  128.753000
  H    -43.930500   62.381200  128.754000
  H    -45.076000   62.833300  127.481000
  S    -47.143100   69.071100  131.863000
  C    -47.253500   69.690300  133.454000
  C    -47.536800   68.746600  134.404000
  C    -47.840200   67.441800  133.880000
  C    -47.662300   67.475900  132.517000
  H    -47.520900   69.225900  135.367000
  C    -47.942200   66.150000  134.747000
  H    -46.935000   65.767800  135.031000
  H    -48.333700   65.324500  134.142000
  C    -48.785500   66.241800  135.944000
  H    -49.846600   66.344300  135.728000
  H    -48.403500   67.151000  136.418000
  C    -48.573200   65.063500  136.896000
  H    -48.697500   64.115100  136.351000
  H    -49.279100   65.140400  137.694000
  H    -47.566100   65.006100  137.367000
  H    -48.641200   63.843800  129.352000
  H    -47.142300   70.700600  133.762000

 Total Charge           Charge          ....    0
 Multiplicity           Mult            ....    1
 Number of Electrons    NEL             ....  134
 Basis Dimension        Dim             ....  322

ORBITAL ENERGIES
----------------

  NO   OCC          E(Eh)            E(eV)
   0   2.0000     -88.964189     -2420.8387
   1   2.0000     -88.963386     -2420.8168
   2   2.0000     -10.328242      -281.0457
   3   2.0000     -10.320537      -280.8361
   4   2.0000     -10.313486      -280.6442
   5   2.0000     -10.309324      -280.5310
   6   2.0000     -10.307615      -280.4845
   7   2.0000     -10.301255      -280.3114
   8   2.0000     -10.296281      -280.1761
   9   2.0000     -10.293605      -280.1032
  10   2.0000     -10.290525      -280.0194
  11   2.0000     -10.290004      -280.0053
  12   2.0000     -10.289797      -279.9996
  13   2.0000     -10.280212      -279.7388
  14   2.0000     -10.279338      -279.7150
  15   2.0000     -10.276892      -279.6484
  16   2.0000      -8.079173      -219.8455
  17   2.0000      -8.078951      -219.8394
  18   2.0000      -6.037586      -164.2911
  19   2.0000      -6.037273      -164.2825
  20   2.0000      -6.033872      -164.1900
  21   2.0000      -6.033463      -164.1789
  22   2.0000      -6.029796      -164.0791
  23   2.0000      -6.029737      -164.0775
  24   2.0000      -1.008604       -27.4455
  25   2.0000      -0.987247       -26.8644
  26   2.0000      -0.917644       -24.9704
  27   2.0000      -0.905216       -24.6322
  28   2.0000      -0.866956       -23.5911
  29   2.0000      -0.852319       -23.1928
  30   2.0000      -0.847556       -23.0632
  31   2.0000      -0.812774       -22.1167
  32   2.0000      -0.786810       -21.4102
  33   2.0000      -0.774865       -21.0851
  34   2.0000      -0.703699       -19.1486
  35   2.0000      -0.699116       -19.0239
  36   2.0000      -0.693795       -18.8791
  37   2.0000      -0.650029       -17.6882
  38   2.0000      -0.640135       -17.4190
  39   2.0000      -0.614240       -16.7143
  40   2.0000      -0.597748       -16.2655
  41   2.0000      -0.575129       -15.6500
  42   2.0000      -0.571245       -15.5444
  43   2.0000      -0.547565       -14.9000
  44   2.0000      -0.542117       -14.7517
  45   2.0000      -0.526551       -14.3282
  46   2.0000      -0.514122       -13.9900
  47   2.0000      -0.508205       -13.8290
  48   2.0000      -0.504108       -13.7175
  49   2.0000      -0.499510       -13.5924
  50   2.0000      -0.492750       -13.4084
  51   2.0000      -0.476006       -12.9528
  52   2.0000      -0.470421       -12.8008
  53   2.0000      -0.463041       -12.6000
  54   2.0000      -0.460127       -12.5207
  55   2.0000      -0.445043       -12.1102
  56   2.0000      -0.443727       -12.0744
  57   2.0000      -0.439156       -11.9500
  58   2.0000      -0.433202       -11.7880
  59   2.0000      -0.423966       -11.5367
  60   2.0000      -0.420967       -11.4551
  61   2.0000      -0.417690       -11.3659
  62   2.0000      -0.412305       -11.2194
  63   2.0000      -0.340184        -9.2569
  64   2.0000      -0.334534        -9.1031
  65   2.0000      -0.328235        -8.9317
  66   2.0000      -0.289636        -7.8814
  67   0.0000       0.033166         0.9025
  68   0.0000       0.060091         1.6352
  69   0.0000       0.109046         2.9673
  70   0.0000       0.122195         3.3251
  71   0.0000       0.125666         3.4195

MULLIKEN ATOMIC CHARGES
-----------------------
   0 S :    0.123566
   1 C :   -0.127710
   2 C :   -0.072832
   3 C :    0.001987
   4 C :   -0.161449
   5 H :    0.027203
   6 C :    0.077629
   7 H :    0.038501
   8 H :    0.009364
   9 C :   -0.106234
  10 H :    0.032015
  11 H :    0.034722
  12 C :   -0.050330
  13 H :    0.040096
  14 H :    0.023902
  15 H :    0.042670
  16 S :    0.106837
  17 C :   -0.079689
  18 C :   -0.065866
  19 C :    0.024579
  20 C :   -0.157467
  21 H :    0.015026
  22 C :    0.032405
  23 H :    0.038902
  24 H :    0.030048
  25 C :   -0.075710
  26 H :    0.039029
  27 H :    0.022613
  28 C :   -0.041650
  29 H :    0.027882
  30 H :    0.029992
  31 H :    0.033606
  32 H :    0.048318
  33 H :    0.038042
Sum of atomic charges:   -0.0000000

LOEWDIN ATOMIC CHARGES
----------------------
   0 S :    0.421537
   1 C :   -0.201733
   2 C :   -0.065645
   3 C :   -0.065346
   4 C :   -0.206174
   5 H :    0.039453
   6 C :   -0.030463
   7 H :    0.039113
   8 H :    0.022040
   9 C :   -0.043346
  10 H :    0.028288
  11 H :    0.023776
  12 C :   -0.071859
  13 H :    0.030823
  14 H :    0.016190
  15 H :    0.034578
  16 S :    0.394622
  17 C :   -0.190605
  18 C :   -0.078390
  19 C :   -0.051039
  20 C :   -0.173358
  21 H :    0.031472
  22 C :   -0.033750
  23 H :    0.034110
  24 H :    0.030462
  25 C :   -0.045713
  26 H :    0.028708
  27 H :    0.023784
  28 C :   -0.062600
  29 H :    0.025119
  30 H :    0.022880
  31 H :    0.028203
  32 H :    0.021868
  33 H :    0.022994

  Mayer bond orders larger than 0.100000
B(  0-S ,  1-C ) :   1.1777 B(  0-S ,  4-C ) :   1.1508 B(  1-C ,  2-C ) :   1.5466
B(  1-C ,  4-C ) :   0.1102 B(  1-C , 32-H ) :   0.9742 B(  2-C ,  3-C ) :   1.2544
B(  2-C ,  6-C ) :   1.0255 B(  3-C ,  4-C ) :   1.5778 B(  3-C ,  5-H ) :   0.9910
B(  4-C , 20-C ) :   1.0059 B(  6-C ,  7-H ) :   0.9317 B(  6-C ,  8-H ) :   0.9449
B(  6-C ,  9-C ) :   1.0806 B(  9-C , 10-H ) :   0.9628 B(  9-C , 11-H ) :   0.9613
B(  9-C , 12-C ) :   1.0488 B( 12-C , 13-H ) :   0.9819 B( 12-C , 14-H ) :   0.9814
B( 12-C , 15-H ) :   0.9780 B( 16-S , 17-C ) :   1.1387 B( 16-S , 20-C ) :   1.1404
B( 17-C , 18-C ) :   1.6835 B( 17-C , 33-H ) :   0.9647 B( 18-C , 19-C ) :   1.1599
B( 18-C , 21-H ) :   0.9878 B( 19-C , 20-C ) :   1.6453 B( 19-C , 22-C ) :   1.0337
B( 22-C , 23-H ) :   0.9420 B( 22-C , 24-H ) :   0.9257 B( 22-C , 25-C ) :   1.0662
B( 25-C , 26-H ) :   0.9528 B( 25-C , 27-H ) :   0.9528 B( 25-C , 28-C ) :   1.0908
B( 28-C , 29-H ) :   0.9724 B( 28-C , 30-H ) :   0.9734 B( 28-C , 31-H ) :   0.9726

Dispersion correction           -0.013762440
FINAL SINGLE POINT ENERGY     -1339.859484486313

DIPOLE MOMENT
-------------
                                X             Y             Z
Electronic contribution:     -5.97625      22.33155     -10.82798
Nuclear contribution   :      6.23174     -22.86429      11.29627
                        -----------------------------------------
Total Dipole Moment    :      0.25549      -0.53274       0.46829
                        -----------------------------------------
Magnitude (a.u.)       :      0.75391
Magnitude (Debye)      :      1.91628

Rotational constants in cm-1:     0.018350     0.008079     0.006354
Rotational constants in MHz :   550.106779   242.189784   190.502336

                             ****ORCA TERMINATED NORMALLY****
TOTAL RUN TIME: 0 days 0 hours 0 minutes 34 seconds 65 msec
