                         Program Version 4.2.1 -  RELEASE  -
|  1> ! wB97X-D3 SP def2-SVP
|  2> %pal
|  3> nprocs 16
|  4> end
|  5>
|  6> * xyz 0 1
|  7> S 	 -77.2171 	 48.5899 	 134.284
|  8> C 	 -76.7252 	 47.6005 	 135.624
|  9> C 	 -76.5823 	 48.3482 	 136.797
| 10> C 	 -76.8585 	 49.7134 	 136.674
| 11> C 	 -77.1753 	 50.0512 	 135.355
| 12> H 	 -76.9519 	 50.4546 	 137.482
| 13> C 	 -76.1255 	 47.8228 	 138.118
| 14> H 	 -76.0884 	 46.6975 	 138.095
| 15> H 	 -76.7552 	 48.1881 	 138.922
| 16> C 	 -74.7405 	 48.3357 	 138.488
| 17> H 	 -74.0902 	 48.0903 	 137.681
| 18> H 	 -74.7743 	 49.4457 	 138.555
| 19> C 	 -74.2133 	 47.7669 	 139.864
| 20> H 	 -73.1969 	 48.1344 	 140.04
| 21> H 	 -74.8274 	 48.2016 	 140.686
| 22> H 	 -74.1764 	 46.7132 	 139.902
| 23> S 	 -79.0364 	 51.6066 	 133.919
| 24> C 	 -78.6167 	 53.2305 	 133.607
| 25> C 	 -77.4447 	 53.6734 	 134.2
| 26> C 	 -76.8165 	 52.5942 	 135.004
| 27> C 	 -77.5162 	 51.3874 	 134.834
| 28> H 	 -76.9837 	 54.561 	 133.922
| 29> C 	 -75.3916 	 52.7212 	 135.645
| 30> H 	 -74.7808 	 53.5007 	 135.109
| 31> H 	 -74.8124 	 51.7429 	 135.432
| 32> C 	 -75.3157 	 53.0147 	 137.132
| 33> H 	 -74.1974 	 52.891 	 137.264
| 34> H 	 -75.805 	 52.321 	 137.82
| 35> C 	 -75.9093 	 54.404 	 137.362
| 36> H 	 -76.9433 	 54.4659 	 137.064
| 37> H 	 -75.3504 	 55.1546 	 136.756
| 38> H 	 -75.8964 	 54.8466 	 138.324
| 39> H 	 -76.4876 	 46.516 	 135.687
| 40> H 	 -79.1612 	 53.7736 	 132.941
| 41> *
| 42>
| 43>                          ****END OF INPUT****

CARTESIAN COORDINATES (ANGSTROEM)
---------------------------------
  S    -77.217100   48.589900  134.284000
  C    -76.725200   47.600500  135.624000
  C    -76.582300   48.348200  136.797000
  C    -76.858500   49.713400  136.674000
  C    -77.175300   50.051200  135.355000
  H    -76.951900   50.454600  137.482000
  C    -76.125500   47.822800  138.118000
  H    -76.088400   46.697500  138.095000
  H    -76.755200   48.188100  138.922000
  C    -74.740500   48.335700  138.488000
  H    -74.090200   48.090300  137.681000
  H    -74.774300   49.445700  138.555000
  C    -74.213300   47.766900  139.864000
  H    -73.196900   48.134400  140.040000
  H    -74.827400   48.201600  140.686000
  H    -74.176400   46.713200  139.902000
  S    -79.036400   51.606600  133.919000
  C    -78.616700   53.230500  133.607000
  C    -77.444700   53.673400  134.200000
  C    -76.816500   52.594200  135.004000
  C    -77.516200   51.387400  134.834000
  H    -76.983700   54.561000  133.922000
  C    -75.391600   52.721200  135.645000
  H    -74.780800   53.500700  135.109000
  H    -74.812400   51.742900  135.432000
  C    -75.315700   53.014700  137.132000
  H    -74.197400   52.891000  137.264000
  H    -75.805000   52.321000  137.820000
  C    -75.909300   54.404000  137.362000
  H    -76.943300   54.465900  137.064000
  H    -75.350400   55.154600  136.756000
  H    -75.896400   54.846600  138.324000
  H    -76.487600   46.516000  135.687000
  H    -79.161200   53.773600  132.941000

 Total Charge           Charge          ....    0
 Multiplicity           Mult            ....    1
 Number of Electrons    NEL             ....  134
 Basis Dimension        Dim             ....  322

ORBITAL ENERGIES
----------------

  NO   OCC          E(Eh)            E(eV)
   0   2.0000     -88.971946     -2421.0497
   1   2.0000     -88.966122     -2420.8912
   2   2.0000     -10.335685      -281.2483
   3   2.0000     -10.331065      -281.1226
   4   2.0000     -10.317208      -280.7455
   5   2.0000     -10.313163      -280.6354
   6   2.0000     -10.310104      -280.5522
   7   2.0000     -10.304928      -280.4113
   8   2.0000     -10.296862      -280.1919
   9   2.0000     -10.296232      -280.1747
  10   2.0000     -10.295527      -280.1555
  11   2.0000     -10.293405      -280.0978
  12   2.0000     -10.290577      -280.0208
  13   2.0000     -10.286891      -279.9205
  14   2.0000     -10.281726      -279.7800
  15   2.0000     -10.273515      -279.5565
  16   2.0000      -8.085432      -220.0158
  17   2.0000      -8.081329      -219.9041
  18   2.0000      -6.044010      -164.4659
  19   2.0000      -6.040171      -164.3614
  20   2.0000      -6.039734      -164.3495
  21   2.0000      -6.036138      -164.2517
  22   2.0000      -6.035848      -164.2438
  23   2.0000      -6.032097      -164.1417
  24   2.0000      -0.999861       -27.2076
  25   2.0000      -0.980615       -26.6839
  26   2.0000      -0.911677       -24.8080
  27   2.0000      -0.909851       -24.7583
  28   2.0000      -0.864771       -23.5316
  29   2.0000      -0.850132       -23.1333
  30   2.0000      -0.843456       -22.9516
  31   2.0000      -0.811108       -22.0714
  32   2.0000      -0.782714       -21.2987
  33   2.0000      -0.769868       -20.9492
  34   2.0000      -0.708226       -19.2718
  35   2.0000      -0.695832       -18.9345
  36   2.0000      -0.690485       -18.7891
  37   2.0000      -0.665057       -18.0971
  38   2.0000      -0.636770       -17.3274
  39   2.0000      -0.618713       -16.8360
  40   2.0000      -0.597318       -16.2539
  41   2.0000      -0.575021       -15.6471
  42   2.0000      -0.558973       -15.2104
  43   2.0000      -0.551843       -15.0164
  44   2.0000      -0.544395       -14.8137
  45   2.0000      -0.517589       -14.0843
  46   2.0000      -0.515395       -14.0246
  47   2.0000      -0.503524       -13.7016
  48   2.0000      -0.496138       -13.5006
  49   2.0000      -0.493338       -13.4244
  50   2.0000      -0.492153       -13.3922
  51   2.0000      -0.482586       -13.1318
  52   2.0000      -0.471692       -12.8354
  53   2.0000      -0.469517       -12.7762
  54   2.0000      -0.459540       -12.5047
  55   2.0000      -0.448505       -12.2045
  56   2.0000      -0.440875       -11.9968
  57   2.0000      -0.437699       -11.9104
  58   2.0000      -0.432437       -11.7672
  59   2.0000      -0.426222       -11.5981
  60   2.0000      -0.423995       -11.5375
  61   2.0000      -0.420850       -11.4519
  62   2.0000      -0.410564       -11.1720
  63   2.0000      -0.346763        -9.4359
  64   2.0000      -0.332946        -9.0599
  65   2.0000      -0.329195        -8.9578
  66   2.0000      -0.289272        -7.8715
  67   0.0000       0.025552         0.6953
  68   0.0000       0.069031         1.8784
  69   0.0000       0.109014         2.9664
  70   0.0000       0.114277         3.1096
  71   0.0000       0.125369         3.4115

MULLIKEN ATOMIC CHARGES
-----------------------
   0 S :    0.118467
   1 C :   -0.114553
   2 C :   -0.087579
   3 C :    0.020195
   4 C :   -0.158350
   5 H :    0.030911
   6 C :    0.067160
   7 H :    0.021559
   8 H :    0.023147
   9 C :   -0.110444
  10 H :    0.023565
  11 H :    0.031472
  12 C :   -0.030671
  13 H :    0.033236
  14 H :    0.034473
  15 H :    0.029210
  16 S :    0.112255
  17 C :   -0.054238
  18 C :   -0.001389
  19 C :   -0.021277
  20 C :   -0.168828
  21 H :    0.001017
  22 C :   -0.024039
  23 H :    0.038878
  24 H :    0.055882
  25 C :   -0.052109
  26 H :    0.041656
  27 H :    0.031365
  28 C :   -0.047337
  29 H :    0.039742
  30 H :    0.016676
  31 H :    0.022547
  32 H :    0.055152
  33 H :    0.022249
Sum of atomic charges:    0.0000000

LOEWDIN ATOMIC CHARGES
----------------------
   0 S :    0.394143
   1 C :   -0.215101
   2 C :   -0.068800
   3 C :   -0.056983
   4 C :   -0.171700
   5 H :    0.038112
   6 C :   -0.035218
   7 H :    0.030388
   8 H :    0.029140
   9 C :   -0.038484
  10 H :    0.017235
  11 H :    0.023919
  12 C :   -0.062346
  13 H :    0.028387
  14 H :    0.029538
  15 H :    0.017180
  16 S :    0.405085
  17 C :   -0.176820
  18 C :   -0.060863
  19 C :   -0.049907
  20 C :   -0.194137
  21 H :    0.020279
  22 C :   -0.038912
  23 H :    0.035121
  24 H :    0.041622
  25 C :   -0.044408
  26 H :    0.035100
  27 H :    0.019105
  28 C :   -0.069712
  29 H :    0.028085
  30 H :    0.026238
  31 H :    0.018395
  32 H :    0.039704
  33 H :    0.006614

  Mayer bond orders larger than 0.100000
B(  0-S ,  1-C ) :   1.1295 B(  0-S ,  4-C ) :   1.1457 B(  1-C ,  2-C ) :   1.6145
B(  1-C ,  4-C ) :   0.1018 B(  1-C , 32-H ) :   0.9557 B(  2-C ,  3-C ) :   1.2412
B(  2-C ,  6-C ) :   1.0454 B(  3-C ,  4-C ) :   1.5618 B(  3-C ,  5-H ) :   0.9854
B(  4-C , 20-C ) :   1.0476 B(  6-C ,  7-H ) :   0.9400 B(  6-C ,  8-H ) :   0.9338
B(  6-C ,  9-C ) :   1.0597 B(  9-C , 10-H ) :   0.9562 B(  9-C , 11-H ) :   0.9546
B(  9-C , 12-C ) :   1.0802 B( 12-C , 13-H ) :   0.9747 B( 12-C , 14-H ) :   0.9743
B( 12-C , 15-H ) :   0.9778 B( 16-S , 17-C ) :   1.1584 B( 16-S , 20-C ) :   1.1319
B( 17-C , 18-C ) :   1.6233 B( 17-C , 33-H ) :   0.9770 B( 18-C , 19-C ) :   1.2048
B( 18-C , 21-H ) :   0.9971 B( 19-C , 20-C ) :   1.6219 B( 19-C , 22-C ) :   1.0183
B( 22-C , 23-H ) :   0.9493 B( 22-C , 24-H ) :   0.9407 B( 22-C , 25-C ) :   1.0613
B( 25-C , 26-H ) :   0.9550 B( 25-C , 27-H ) :   0.9544 B( 25-C , 28-C ) :   1.0626
B( 28-C , 29-H ) :   0.9721 B( 28-C , 30-H ) :   0.9732 B( 28-C , 31-H ) :   0.9750

Dispersion correction           -0.014878970
FINAL SINGLE POINT ENERGY     -1339.875033136350

DIPOLE MOMENT
-------------
                                X             Y             Z
Electronic contribution:    -19.07653      -4.42817     -24.71599
Nuclear contribution   :     19.52206       4.62760      25.10744
                        -----------------------------------------
Total Dipole Moment    :      0.44553       0.19943       0.39145
                        -----------------------------------------
Magnitude (a.u.)       :      0.62570
Magnitude (Debye)      :      1.59041

Rotational constants in cm-1:     0.018301     0.009423     0.006631
Rotational constants in MHz :   548.655155   282.502506   198.778793

                             ****ORCA TERMINATED NORMALLY****
TOTAL RUN TIME: 0 days 0 hours 0 minutes 35 seconds 959 msec
