                         Program Version 4.2.1 -  RELEASE  -
|  1> ! wB97X-D3 SP def2-SVP
|  2> %pal
|  3> nprocs 16
|  4> end
|  5>
|  6> * xyz 0 1
|  7> S 	 57.6622 	 -5.55351 	 87.698
|  8> C 	 57.1013 	 -4.46369 	 88.9399
|  9> C 	 55.7234 	 -4.45778 	 88.7701
| 10> C 	 55.137 	 -5.36747 	 87.8044
| 11> C 	 56.061 	 -6.13372 	 87.1273
| 12> H 	 54.0869 	 -5.41573 	 87.4641
| 13> C 	 54.8046 	 -3.5493 	 89.5768
| 14> H 	 55.1992 	 -3.45687 	 90.6433
| 15> H 	 53.8217 	 -3.9881 	 89.6192
| 16> C 	 54.455 	 -2.20291 	 88.8747
| 17> H 	 54.0396 	 -1.53066 	 89.5747
| 18> H 	 55.3636 	 -1.79899 	 88.4208
| 19> C 	 53.5404 	 -2.38689 	 87.6806
| 20> H 	 53.9286 	 -3.14956 	 86.9348
| 21> H 	 52.5866 	 -2.70126 	 87.9454
| 22> H 	 53.3034 	 -1.40956 	 87.2035
| 23> S 	 54.7234 	 -8.43228 	 86.4714
| 24> C 	 55.0374 	 -9.14239 	 84.8653
| 25> C 	 55.7836 	 -8.25835 	 84.0371
| 26> C 	 56.2524 	 -7.12009 	 84.7587
| 27> C 	 55.7864 	 -7.06455 	 86.0385
| 28> H 	 56.067 	 -8.61859 	 83.061
| 29> C 	 57.1377 	 -6.1023 	 84.0087
| 30> H 	 57.0824 	 -5.07166 	 84.4553
| 31> H 	 56.8957 	 -6.08874 	 82.9682
| 32> C 	 58.6381 	 -6.55146 	 83.9865
| 33> H 	 58.729 	 -7.52083 	 83.4773
| 34> H 	 58.9277 	 -6.83173 	 84.9905
| 35> C 	 59.5911 	 -5.53164 	 83.424
| 36> H 	 59.2553 	 -4.49539 	 83.7847
| 37> H 	 59.6547 	 -5.5451 	 82.3729
| 38> H 	 60.6148 	 -5.53503 	 83.6709
| 39> H 	 57.7386 	 -3.83346 	 89.5323
| 40> H 	 54.6308 	 -10.0909 	 84.6139
| 41> *
| 42>
| 43>                          ****END OF INPUT****

CARTESIAN COORDINATES (ANGSTROEM)
---------------------------------
  S     57.662200   -5.553510   87.698000
  C     57.101300   -4.463690   88.939900
  C     55.723400   -4.457780   88.770100
  C     55.137000   -5.367470   87.804400
  C     56.061000   -6.133720   87.127300
  H     54.086900   -5.415730   87.464100
  C     54.804600   -3.549300   89.576800
  H     55.199200   -3.456870   90.643300
  H     53.821700   -3.988100   89.619200
  C     54.455000   -2.202910   88.874700
  H     54.039600   -1.530660   89.574700
  H     55.363600   -1.798990   88.420800
  C     53.540400   -2.386890   87.680600
  H     53.928600   -3.149560   86.934800
  H     52.586600   -2.701260   87.945400
  H     53.303400   -1.409560   87.203500
  S     54.723400   -8.432280   86.471400
  C     55.037400   -9.142390   84.865300
  C     55.783600   -8.258350   84.037100
  C     56.252400   -7.120090   84.758700
  C     55.786400   -7.064550   86.038500
  H     56.067000   -8.618590   83.061000
  C     57.137700   -6.102300   84.008700
  H     57.082400   -5.071660   84.455300
  H     56.895700   -6.088740   82.968200
  C     58.638100   -6.551460   83.986500
  H     58.729000   -7.520830   83.477300
  H     58.927700   -6.831730   84.990500
  C     59.591100   -5.531640   83.424000
  H     59.255300   -4.495390   83.784700
  H     59.654700   -5.545100   82.372900
  H     60.614800   -5.535030   83.670900
  H     57.738600   -3.833460   89.532300
  H     54.630800  -10.090900   84.613900

 Total Charge           Charge          ....    0
 Multiplicity           Mult            ....    1
 Number of Electrons    NEL             ....  134
 Basis Dimension        Dim             ....  322

ORBITAL ENERGIES
----------------

  NO   OCC          E(Eh)            E(eV)
   0   2.0000     -88.970820     -2421.0191
   1   2.0000     -88.962397     -2420.7899
   2   2.0000     -10.334984      -281.2292
   3   2.0000     -10.331803      -281.1426
   4   2.0000     -10.326737      -281.0048
   5   2.0000     -10.319453      -280.8066
   6   2.0000     -10.309465      -280.5348
   7   2.0000     -10.305333      -280.4224
   8   2.0000     -10.303075      -280.3609
   9   2.0000     -10.297797      -280.2173
  10   2.0000     -10.297741      -280.2158
  11   2.0000     -10.290495      -280.0186
  12   2.0000     -10.282997      -279.8146
  13   2.0000     -10.280848      -279.7561
  14   2.0000     -10.274457      -279.5822
  15   2.0000     -10.272354      -279.5250
  16   2.0000      -8.084488      -219.9901
  17   2.0000      -8.076239      -219.7656
  18   2.0000      -6.043015      -164.4388
  19   2.0000      -6.039220      -164.3355
  20   2.0000      -6.035214      -164.2265
  21   2.0000      -6.034886      -164.2176
  22   2.0000      -6.030722      -164.1043
  23   2.0000      -6.027002      -164.0031
  24   2.0000      -1.002925       -27.2910
  25   2.0000      -0.981239       -26.7009
  26   2.0000      -0.907764       -24.7015
  27   2.0000      -0.905640       -24.6437
  28   2.0000      -0.872942       -23.7540
  29   2.0000      -0.852753       -23.2046
  30   2.0000      -0.838023       -22.8038
  31   2.0000      -0.815104       -22.1801
  32   2.0000      -0.782890       -21.3035
  33   2.0000      -0.767277       -20.8787
  34   2.0000      -0.705791       -19.2056
  35   2.0000      -0.697977       -18.9929
  36   2.0000      -0.694767       -18.9056
  37   2.0000      -0.672676       -18.3045
  38   2.0000      -0.643990       -17.5239
  39   2.0000      -0.610200       -16.6044
  40   2.0000      -0.597522       -16.2594
  41   2.0000      -0.575463       -15.6591
  42   2.0000      -0.565159       -15.3788
  43   2.0000      -0.546168       -14.8620
  44   2.0000      -0.541717       -14.7409
  45   2.0000      -0.525846       -14.3090
  46   2.0000      -0.520795       -14.1716
  47   2.0000      -0.517255       -14.0752
  48   2.0000      -0.505431       -13.7535
  49   2.0000      -0.496183       -13.5018
  50   2.0000      -0.484607       -13.1868
  51   2.0000      -0.481722       -13.1083
  52   2.0000      -0.475891       -12.9497
  53   2.0000      -0.462866       -12.5952
  54   2.0000      -0.460337       -12.5264
  55   2.0000      -0.448258       -12.1977
  56   2.0000      -0.437746       -11.9117
  57   2.0000      -0.432693       -11.7742
  58   2.0000      -0.426721       -11.6117
  59   2.0000      -0.424437       -11.5495
  60   2.0000      -0.415317       -11.3014
  61   2.0000      -0.413023       -11.2389
  62   2.0000      -0.401569       -10.9272
  63   2.0000      -0.349562        -9.5121
  64   2.0000      -0.336829        -9.1656
  65   2.0000      -0.320886        -8.7317
  66   2.0000      -0.297189        -8.0869
  67   0.0000       0.027574         0.7503
  68   0.0000       0.058783         1.5996
  69   0.0000       0.097424         2.6510
  70   0.0000       0.115246         3.1360
  71   0.0000       0.132678         3.6104

MULLIKEN ATOMIC CHARGES
-----------------------
   0 S :    0.081459
   1 C :   -0.097442
   2 C :   -0.105185
   3 C :    0.005993
   4 C :   -0.117544
   5 H :    0.036644
   6 C :    0.032280
   7 H :    0.043059
   8 H :    0.013326
   9 C :   -0.024294
  10 H :    0.025741
  11 H :    0.024522
  12 C :   -0.079031
  13 H :    0.052490
  14 H :    0.004669
  15 H :    0.035280
  16 S :    0.108503
  17 C :   -0.097229
  18 C :   -0.028314
  19 C :   -0.009811
  20 C :   -0.188095
  21 H :    0.026528
  22 C :    0.066174
  23 H :    0.042899
  24 H :    0.021856
  25 C :   -0.075841
  26 H :    0.019856
  27 H :    0.019398
  28 C :   -0.016710
  29 H :    0.028117
  30 H :    0.018341
  31 H :    0.021349
  32 H :    0.057858
  33 H :    0.053155
Sum of atomic charges:    0.0000000

LOEWDIN ATOMIC CHARGES
----------------------
   0 S :    0.387894
   1 C :   -0.192883
   2 C :   -0.066214
   3 C :   -0.077102
   4 C :   -0.180502
   5 H :    0.037579
   6 C :   -0.039101
   7 H :    0.036801
   8 H :    0.024260
   9 C :   -0.034818
  10 H :    0.019034
  11 H :    0.023333
  12 C :   -0.070918
  13 H :    0.035199
  14 H :    0.008732
  15 H :    0.032443
  16 S :    0.387805
  17 C :   -0.160851
  18 C :   -0.063109
  19 C :   -0.050382
  20 C :   -0.187669
  21 H :    0.032239
  22 C :   -0.022584
  23 H :    0.034269
  24 H :    0.027664
  25 C :   -0.043857
  26 H :    0.022624
  27 H :    0.017402
  28 C :   -0.068171
  29 H :    0.034543
  30 H :    0.018586
  31 H :    0.023107
  32 H :    0.034626
  33 H :    0.020020

  Mayer bond orders larger than 0.100000
B(  0-S ,  1-C ) :   1.1282 B(  0-S ,  4-C ) :   1.1369 B(  1-C ,  2-C ) :   1.5840
B(  1-C , 32-H ) :   0.9823 B(  2-C ,  3-C ) :   1.2427 B(  2-C ,  6-C ) :   1.0355
B(  3-C ,  4-C ) :   1.5642 B(  3-C ,  5-H ) :   0.9823 B(  4-C , 20-C ) :   1.0388
B(  6-C ,  7-H ) :   0.9489 B(  6-C ,  8-H ) :   0.9445 B(  6-C ,  9-C ) :   1.0514
B(  9-C , 10-H ) :   0.9564 B(  9-C , 11-H ) :   0.9571 B(  9-C , 12-C ) :   1.0849
B( 12-C , 13-H ) :   0.9691 B( 12-C , 14-H ) :   0.9718 B( 12-C , 15-H ) :   0.9694
B( 16-S , 17-C ) :   1.1547 B( 16-S , 20-C ) :   1.1287 B( 17-C , 18-C ) :   1.6077
B( 17-C , 20-C ) :   0.1044 B( 17-C , 33-H ) :   0.9733 B( 18-C , 19-C ) :   1.2141
B( 18-C , 21-H ) :   0.9891 B( 19-C , 20-C ) :   1.6280 B( 19-C , 22-C ) :   1.0468
B( 22-C , 23-H ) :   0.9364 B( 22-C , 24-H ) :   0.9377 B( 22-C , 25-C ) :   1.0534
B( 25-C , 26-H ) :   0.9550 B( 25-C , 27-H ) :   0.9544 B( 25-C , 28-C ) :   1.0793
B( 28-C , 29-H ) :   0.9711 B( 28-C , 30-H ) :   0.9736 B( 28-C , 31-H ) :   0.9731

Dispersion correction           -0.014705670
FINAL SINGLE POINT ENERGY     -1339.863293534496

DIPOLE MOMENT
-------------
                                X             Y             Z
Electronic contribution:     -1.81354     -17.71636       6.81991
Nuclear contribution   :      1.72793      17.96889      -7.11472
                        -----------------------------------------
Total Dipole Moment    :     -0.08561       0.25253      -0.29481
                        -----------------------------------------
Magnitude (a.u.)       :      0.39751
Magnitude (Debye)      :      1.01038

Rotational constants in cm-1:     0.017999     0.008839     0.007221
Rotational constants in MHz :   539.583280   264.998507   216.468732

                             ****ORCA TERMINATED NORMALLY****
TOTAL RUN TIME: 0 days 0 hours 0 minutes 28 seconds 567 msec
