                         Program Version 4.2.1 -  RELEASE  -
|  1> ! wB97X-D3 SP def2-SVP
|  2> %pal
|  3> nprocs 16
|  4> end
|  5>
|  6> * xyz 0 1
|  7> S 	 -4.03159 	 -12.5986 	 70.3206
|  8> C 	 -2.91491 	 -13.0669 	 69.0658
|  9> C 	 -2.54724 	 -11.9892 	 68.2756
| 10> C 	 -2.99662 	 -10.7773 	 68.8961
| 11> C 	 -3.72143 	 -10.9203 	 70.0774
| 12> H 	 -3.01894 	 -9.73494 	 68.5168
| 13> C 	 -1.87594 	 -12.1046 	 66.9079
| 14> H 	 -0.85827 	 -12.4983 	 67.131
| 15> H 	 -1.64315 	 -11.0969 	 66.558
| 16> C 	 -2.67244 	 -13.0097 	 65.899
| 17> H 	 -2.15494 	 -13.1211 	 64.9624
| 18> H 	 -2.67512 	 -14.0944 	 66.2301
| 19> C 	 -4.18156 	 -12.6375 	 65.7505
| 20> H 	 -4.64873 	 -13.0374 	 64.8175
| 21> H 	 -4.8396 	 -13.0695 	 66.5533
| 22> H 	 -4.34847 	 -11.6052 	 65.6221
| 23> S 	 -5.45899 	 -10.467 	 72.0145
| 24> C 	 -5.52626 	 -8.9115 	 72.7865
| 25> C 	 -4.67147 	 -8.07198 	 72.2028
| 26> C 	 -3.87128 	 -8.60822 	 71.1733
| 27> C 	 -4.16556 	 -9.93682 	 70.9814
| 28> H 	 -4.59145 	 -7.15538 	 72.6435
| 29> C 	 -2.78844 	 -7.81248 	 70.5811
| 30> H 	 -1.95322 	 -8.45786 	 70.3535
| 31> H 	 -2.24288 	 -7.05578 	 71.1674
| 32> C 	 -3.07439 	 -6.95988 	 69.346
| 33> H 	 -3.65754 	 -6.11598 	 69.6802
| 34> H 	 -3.80177 	 -7.44707 	 68.7323
| 35> C 	 -1.76418 	 -6.71806 	 68.5363
| 36> H 	 -0.974358 	 -6.05814 	 69.0465
| 37> H 	 -1.96924 	 -6.27742 	 67.5181
| 38> H 	 -1.16341 	 -7.63079 	 68.3045
| 39> H 	 -2.81203 	 -14.0838 	 68.7192
| 40> H 	 -6.22742 	 -8.5482 	 73.5892
| 41> *
| 42>
| 43>                          ****END OF INPUT****

CARTESIAN COORDINATES (ANGSTROEM)
---------------------------------
  S     -4.031590  -12.598600   70.320600
  C     -2.914910  -13.066900   69.065800
  C     -2.547240  -11.989200   68.275600
  C     -2.996620  -10.777300   68.896100
  C     -3.721430  -10.920300   70.077400
  H     -3.018940   -9.734940   68.516800
  C     -1.875940  -12.104600   66.907900
  H     -0.858270  -12.498300   67.131000
  H     -1.643150  -11.096900   66.558000
  C     -2.672440  -13.009700   65.899000
  H     -2.154940  -13.121100   64.962400
  H     -2.675120  -14.094400   66.230100
  C     -4.181560  -12.637500   65.750500
  H     -4.648730  -13.037400   64.817500
  H     -4.839600  -13.069500   66.553300
  H     -4.348470  -11.605200   65.622100
  S     -5.458990  -10.467000   72.014500
  C     -5.526260   -8.911500   72.786500
  C     -4.671470   -8.071980   72.202800
  C     -3.871280   -8.608220   71.173300
  C     -4.165560   -9.936820   70.981400
  H     -4.591450   -7.155380   72.643500
  C     -2.788440   -7.812480   70.581100
  H     -1.953220   -8.457860   70.353500
  H     -2.242880   -7.055780   71.167400
  C     -3.074390   -6.959880   69.346000
  H     -3.657540   -6.115980   69.680200
  H     -3.801770   -7.447070   68.732300
  C     -1.764180   -6.718060   68.536300
  H     -0.974358   -6.058140   69.046500
  H     -1.969240   -6.277420   67.518100
  H     -1.163410   -7.630790   68.304500
  H     -2.812030  -14.083800   68.719200
  H     -6.227420   -8.548200   73.589200

 Total Charge           Charge          ....    0
 Multiplicity           Mult            ....    1
 Number of Electrons    NEL             ....  134
 Basis Dimension        Dim             ....  322

ORBITAL ENERGIES
----------------

  NO   OCC          E(Eh)            E(eV)
   0   2.0000     -88.963867     -2420.8299
   1   2.0000     -88.963182     -2420.8113
   2   2.0000     -10.324585      -280.9462
   3   2.0000     -10.323600      -280.9194
   4   2.0000     -10.313862      -280.6545
   5   2.0000     -10.310651      -280.5671
   6   2.0000     -10.304562      -280.4014
   7   2.0000     -10.302084      -280.3340
   8   2.0000     -10.299586      -280.2660
   9   2.0000     -10.299124      -280.2534
  10   2.0000     -10.296629      -280.1855
  11   2.0000     -10.294671      -280.1322
  12   2.0000     -10.287665      -279.9416
  13   2.0000     -10.285179      -279.8739
  14   2.0000     -10.280220      -279.7390
  15   2.0000     -10.278193      -279.6839
  16   2.0000      -8.079301      -219.8490
  17   2.0000      -8.078972      -219.8400
  18   2.0000      -6.037876      -164.2990
  19   2.0000      -6.037529      -164.2895
  20   2.0000      -6.033792      -164.1878
  21   2.0000      -6.033442      -164.1783
  22   2.0000      -6.029868      -164.0810
  23   2.0000      -6.029500      -164.0710
  24   2.0000      -1.018936       -27.7267
  25   2.0000      -0.989934       -26.9375
  26   2.0000      -0.915540       -24.9131
  27   2.0000      -0.908108       -24.7109
  28   2.0000      -0.874786       -23.8042
  29   2.0000      -0.853774       -23.2324
  30   2.0000      -0.840948       -22.8834
  31   2.0000      -0.815844       -22.2002
  32   2.0000      -0.783128       -21.3100
  33   2.0000      -0.773723       -21.0541
  34   2.0000      -0.714080       -19.4311
  35   2.0000      -0.709315       -19.3014
  36   2.0000      -0.701074       -19.0772
  37   2.0000      -0.669835       -18.2271
  38   2.0000      -0.635423       -17.2907
  39   2.0000      -0.614856       -16.7311
  40   2.0000      -0.604309       -16.4441
  41   2.0000      -0.571670       -15.5559
  42   2.0000      -0.559014       -15.2115
  43   2.0000      -0.546133       -14.8610
  44   2.0000      -0.538850       -14.6629
  45   2.0000      -0.525084       -14.2883
  46   2.0000      -0.514121       -13.9899
  47   2.0000      -0.509939       -13.8762
  48   2.0000      -0.507684       -13.8148
  49   2.0000      -0.498180       -13.5562
  50   2.0000      -0.493478       -13.4282
  51   2.0000      -0.478207       -13.0127
  52   2.0000      -0.473251       -12.8778
  53   2.0000      -0.468960       -12.7611
  54   2.0000      -0.457403       -12.4466
  55   2.0000      -0.448346       -12.2001
  56   2.0000      -0.444913       -12.1067
  57   2.0000      -0.441709       -12.0195
  58   2.0000      -0.429571       -11.6892
  59   2.0000      -0.426860       -11.6154
  60   2.0000      -0.422142       -11.4871
  61   2.0000      -0.411810       -11.2059
  62   2.0000      -0.408407       -11.1133
  63   2.0000      -0.366622        -9.9763
  64   2.0000      -0.336174        -9.1478
  65   2.0000      -0.325068        -8.8455
  66   2.0000      -0.279859        -7.6154
  67   0.0000       0.016204         0.4409
  68   0.0000       0.081881         2.2281
  69   0.0000       0.101956         2.7744
  70   0.0000       0.124132         3.3778
  71   0.0000       0.133223         3.6252

MULLIKEN ATOMIC CHARGES
-----------------------
   0 S :    0.100011
   1 C :   -0.111421
   2 C :   -0.096924
   3 C :   -0.024854
   4 C :   -0.129446
   5 H :    0.013445
   6 C :    0.085454
   7 H :    0.043828
   8 H :    0.021132
   9 C :   -0.080254
  10 H :    0.031043
  11 H :    0.031413
  12 C :   -0.057032
  13 H :    0.028934
  14 H :    0.051405
  15 H :    0.024751
  16 S :    0.083615
  17 C :   -0.086085
  18 C :   -0.003323
  19 C :   -0.005112
  20 C :   -0.090712
  21 H :   -0.023981
  22 C :   -0.001447
  23 H :    0.018186
  24 H :    0.022187
  25 C :   -0.026340
  26 H :    0.023061
  27 H :    0.017798
  28 C :   -0.110020
  29 H :    0.045018
  30 H :    0.047776
  31 H :    0.040674
  32 H :    0.046507
  33 H :    0.070711
Sum of atomic charges:    0.0000000

LOEWDIN ATOMIC CHARGES
----------------------
   0 S :    0.412221
   1 C :   -0.197712
   2 C :   -0.060737
   3 C :   -0.077021
   4 C :   -0.201787
   5 H :    0.035527
   6 C :   -0.032757
   7 H :    0.041511
   8 H :    0.029120
   9 C :   -0.043758
  10 H :    0.022656
  11 H :    0.030198
  12 C :   -0.073343
  13 H :    0.031227
  14 H :    0.035152
  15 H :    0.017177
  16 S :    0.404598
  17 C :   -0.189988
  18 C :   -0.063612
  19 C :   -0.058962
  20 C :   -0.182529
  21 H :    0.017583
  22 C :   -0.043825
  23 H :    0.027978
  24 H :    0.035538
  25 C :   -0.038979
  26 H :    0.024580
  27 H :    0.015646
  28 C :   -0.080439
  29 H :    0.032651
  30 H :    0.032405
  31 H :    0.029070
  32 H :    0.024399
  33 H :    0.046213

  Mayer bond orders larger than 0.100000
B(  0-S ,  1-C ) :   1.1451 B(  0-S ,  4-C ) :   1.1414 B(  1-C ,  2-C ) :   1.5916
B(  1-C ,  4-C ) :   0.1028 B(  1-C , 32-H ) :   0.9689 B(  2-C ,  3-C ) :   1.2519
B(  2-C ,  6-C ) :   1.0095 B(  3-C ,  4-C ) :   1.5562 B(  3-C ,  5-H ) :   0.9840
B(  4-C , 20-C ) :   1.1091 B(  6-C ,  7-H ) :   0.9384 B(  6-C ,  8-H ) :   0.9460
B(  6-C ,  9-C ) :   1.0605 B(  9-C , 10-H ) :   0.9611 B(  9-C , 11-H ) :   0.9562
B(  9-C , 12-C ) :   1.0627 B( 12-C , 13-H ) :   0.9734 B( 12-C , 14-H ) :   0.9741
B( 12-C , 15-H ) :   0.9809 B( 16-S , 17-C ) :   1.1299 B( 16-S , 20-C ) :   1.1273
B( 17-C , 18-C ) :   1.6509 B( 17-C , 33-H ) :   0.9569 B( 18-C , 19-C ) :   1.2198
B( 18-C , 21-H ) :   1.0038 B( 19-C , 20-C ) :   1.5833 B( 19-C , 22-C ) :   1.0489
B( 22-C , 23-H ) :   0.9404 B( 22-C , 24-H ) :   0.9403 B( 22-C , 25-C ) :   1.0407
B( 25-C , 26-H ) :   0.9520 B( 25-C , 27-H ) :   0.9566 B( 25-C , 28-C ) :   1.0610
B( 28-C , 29-H ) :   0.9753 B( 28-C , 30-H ) :   0.9754 B( 28-C , 31-H ) :   0.9741

Dispersion correction           -0.014812372
FINAL SINGLE POINT ENERGY     -1339.860643436258

DIPOLE MOMENT
-------------
                                X             Y             Z
Electronic contribution:    -11.62559     -10.05845      22.92615
Nuclear contribution   :     11.83863      10.45893     -23.40030
                        -----------------------------------------
Total Dipole Moment    :      0.21303       0.40047      -0.47415
                        -----------------------------------------
Magnitude (a.u.)       :      0.65619
Magnitude (Debye)      :      1.66790

Rotational constants in cm-1:     0.018484     0.009597     0.006900
Rotational constants in MHz :   554.143891   287.701602   206.848145

                             ****ORCA TERMINATED NORMALLY****
TOTAL RUN TIME: 0 days 0 hours 0 minutes 35 seconds 592 msec
