                         Program Version 4.2.1 -  RELEASE  -
|  1> ! wB97X-D3 SP def2-SVP
|  2> %pal
|  3> nprocs 16
|  4> end
|  5>
|  6> * xyz 0 1
|  7> S 	 -2.11773 	 -12.1132 	 86.2312
|  8> C 	 -0.490061 	 -12.5356 	 85.6972
|  9> C 	 0.139969 	 -13.4109 	 86.5542
| 10> C 	 -0.566126 	 -13.507 	 87.7666
| 11> C 	 -1.82142 	 -12.8556 	 87.7789
| 12> H 	 -0.325733 	 -14.0588 	 88.6462
| 13> C 	 1.4163 	 -14.198 	 86.3114
| 14> H 	 1.37239 	 -14.4162 	 85.2629
| 15> H 	 1.292 	 -15.1965 	 86.8861
| 16> C 	 2.68782 	 -13.4558 	 86.7253
| 17> H 	 2.80204 	 -13.2688 	 87.7685
| 18> H 	 3.5359 	 -14.1222 	 86.6602
| 19> C 	 3.03228 	 -12.2635 	 85.8051
| 20> H 	 3.03927 	 -12.6648 	 84.8337
| 21> H 	 2.17746 	 -11.552 	 85.9165
| 22> H 	 3.95303 	 -11.6061 	 85.9282
| 23> S 	 -4.50571 	 -13.1173 	 88.4902
| 24> C 	 -4.80695 	 -12.9967 	 90.2532
| 25> C 	 -3.72156 	 -12.8056 	 91.0118
| 26> C 	 -2.54643 	 -12.6939 	 90.2209
| 27> C 	 -2.80575 	 -12.8563 	 88.8639
| 28> H 	 -3.8342 	 -12.5545 	 92.0299
| 29> C 	 -1.40202 	 -12.1518 	 91.0044
| 30> H 	 -0.445617 	 -12.558 	 90.6921
| 31> H 	 -1.26845 	 -12.6114 	 91.9955
| 32> C 	 -1.43004 	 -10.5781 	 91.086
| 33> H 	 -2.44849 	 -10.1195 	 91.2255
| 34> H 	 -1.167 	 -10.2942 	 90.1202
| 35> C 	 -0.392822 	 -10.0069 	 92.0639
| 36> H 	 -0.668153 	 -10.2145 	 93.0684
| 37> H 	 -0.298558 	 -8.91088 	 91.9258
| 38> H 	 0.597897 	 -10.4261 	 92.0278
| 39> H 	 -0.123106 	 -12.2519 	 84.7369
| 40> H 	 -5.7378 	 -13.0184 	 90.7513
| 41> *
| 42>
| 43>                          ****END OF INPUT****

CARTESIAN COORDINATES (ANGSTROEM)
---------------------------------
  S     -2.117730  -12.113200   86.231200
  C     -0.490061  -12.535600   85.697200
  C      0.139969  -13.410900   86.554200
  C     -0.566126  -13.507000   87.766600
  C     -1.821420  -12.855600   87.778900
  H     -0.325733  -14.058800   88.646200
  C      1.416300  -14.198000   86.311400
  H      1.372390  -14.416200   85.262900
  H      1.292000  -15.196500   86.886100
  C      2.687820  -13.455800   86.725300
  H      2.802040  -13.268800   87.768500
  H      3.535900  -14.122200   86.660200
  C      3.032280  -12.263500   85.805100
  H      3.039270  -12.664800   84.833700
  H      2.177460  -11.552000   85.916500
  H      3.953030  -11.606100   85.928200
  S     -4.505710  -13.117300   88.490200
  C     -4.806950  -12.996700   90.253200
  C     -3.721560  -12.805600   91.011800
  C     -2.546430  -12.693900   90.220900
  C     -2.805750  -12.856300   88.863900
  H     -3.834200  -12.554500   92.029900
  C     -1.402020  -12.151800   91.004400
  H     -0.445617  -12.558000   90.692100
  H     -1.268450  -12.611400   91.995500
  C     -1.430040  -10.578100   91.086000
  H     -2.448490  -10.119500   91.225500
  H     -1.167000  -10.294200   90.120200
  C     -0.392822  -10.006900   92.063900
  H     -0.668153  -10.214500   93.068400
  H     -0.298558   -8.910880   91.925800
  H      0.597897  -10.426100   92.027800
  H     -0.123106  -12.251900   84.736900
  H     -5.737800  -13.018400   90.751300

 Total Charge           Charge          ....    0
 Multiplicity           Mult            ....    1
 Number of Electrons    NEL             ....  134
 Basis Dimension        Dim             ....  322

ORBITAL ENERGIES
----------------

  NO   OCC          E(Eh)            E(eV)
   0   2.0000     -88.969575     -2420.9852
   1   2.0000     -88.966525     -2420.9022
   2   2.0000     -10.329793      -281.0879
   3   2.0000     -10.328493      -281.0526
   4   2.0000     -10.311959      -280.6027
   5   2.0000     -10.310315      -280.5579
   6   2.0000     -10.301873      -280.3282
   7   2.0000     -10.299346      -280.2595
   8   2.0000     -10.298835      -280.2455
   9   2.0000     -10.291605      -280.0488
  10   2.0000     -10.289495      -279.9914
  11   2.0000     -10.286921      -279.9214
  12   2.0000     -10.285691      -279.8879
  13   2.0000     -10.281821      -279.7826
  14   2.0000     -10.280978      -279.7596
  15   2.0000     -10.275134      -279.6006
  16   2.0000      -8.083547      -219.9645
  17   2.0000      -8.081114      -219.8983
  18   2.0000      -6.042186      -164.4162
  19   2.0000      -6.039572      -164.3451
  20   2.0000      -6.038487      -164.3156
  21   2.0000      -6.035683      -164.2393
  22   2.0000      -6.033896      -164.1907
  23   2.0000      -6.031932      -164.1372
  24   2.0000      -1.004905       -27.3449
  25   2.0000      -0.984136       -26.7797
  26   2.0000      -0.913586       -24.8599
  27   2.0000      -0.904945       -24.6248
  28   2.0000      -0.869635       -23.6640
  29   2.0000      -0.851463       -23.1695
  30   2.0000      -0.846853       -23.0440
  31   2.0000      -0.812975       -22.1222
  32   2.0000      -0.782779       -21.3005
  33   2.0000      -0.771971       -21.0064
  34   2.0000      -0.714466       -19.4416
  35   2.0000      -0.707623       -19.2554
  36   2.0000      -0.696735       -18.9591
  37   2.0000      -0.662836       -18.0367
  38   2.0000      -0.641749       -17.4629
  39   2.0000      -0.619116       -16.8470
  40   2.0000      -0.600134       -16.3305
  41   2.0000      -0.567303       -15.4371
  42   2.0000      -0.552114       -15.0238
  43   2.0000      -0.547497       -14.8981
  44   2.0000      -0.538354       -14.6494
  45   2.0000      -0.529685       -14.4135
  46   2.0000      -0.521354       -14.1868
  47   2.0000      -0.506655       -13.7868
  48   2.0000      -0.503516       -13.7014
  49   2.0000      -0.494447       -13.4546
  50   2.0000      -0.487344       -13.2613
  51   2.0000      -0.480510       -13.0754
  52   2.0000      -0.467853       -12.7309
  53   2.0000      -0.463857       -12.6222
  54   2.0000      -0.458594       -12.4790
  55   2.0000      -0.448424       -12.2022
  56   2.0000      -0.446173       -12.1410
  57   2.0000      -0.442582       -12.0433
  58   2.0000      -0.437424       -11.9029
  59   2.0000      -0.431442       -11.7401
  60   2.0000      -0.425149       -11.5689
  61   2.0000      -0.405802       -11.0424
  62   2.0000      -0.402969       -10.9653
  63   2.0000      -0.352209        -9.5841
  64   2.0000      -0.333264        -9.0686
  65   2.0000      -0.332402        -9.0451
  66   2.0000      -0.283427        -7.7124
  67   0.0000       0.025979         0.7069
  68   0.0000       0.072733         1.9792
  69   0.0000       0.100695         2.7400
  70   0.0000       0.121094         3.2951
  71   0.0000       0.132614         3.6086

MULLIKEN ATOMIC CHARGES
-----------------------
   0 S :    0.105195
   1 C :   -0.121519
   2 C :   -0.076545
   3 C :    0.025363
   4 C :   -0.155381
   5 H :   -0.000712
   6 C :    0.052449
   7 H :    0.024990
   8 H :    0.050161
   9 C :   -0.020594
  10 H :    0.016024
  11 H :    0.014886
  12 C :   -0.079732
  13 H :    0.019485
  14 H :    0.040564
  15 H :    0.052033
  16 S :    0.106085
  17 C :   -0.058606
  18 C :   -0.017316
  19 C :   -0.036851
  20 C :   -0.144259
  21 H :    0.011717
  22 C :    0.056258
  23 H :   -0.006009
  24 H :    0.010510
  25 C :   -0.038453
  26 H :    0.041504
  27 H :    0.018505
  28 C :   -0.035543
  29 H :    0.017426
  30 H :    0.042236
  31 H :    0.022168
  32 H :    0.034178
  33 H :    0.029785
Sum of atomic charges:   -0.0000000

LOEWDIN ATOMIC CHARGES
----------------------
   0 S :    0.401495
   1 C :   -0.191199
   2 C :   -0.063950
   3 C :   -0.060375
   4 C :   -0.193914
   5 H :    0.024669
   6 C :   -0.025283
   7 H :    0.028488
   8 H :    0.047713
   9 C :   -0.042897
  10 H :    0.020948
  11 H :    0.022291
  12 C :   -0.072655
  13 H :    0.015951
  14 H :    0.028553
  15 H :    0.036740
  16 S :    0.378151
  17 C :   -0.159687
  18 C :   -0.059026
  19 C :   -0.058096
  20 C :   -0.193151
  21 H :    0.030498
  22 C :   -0.039499
  23 H :    0.024007
  24 H :    0.029826
  25 C :   -0.029325
  26 H :    0.033450
  27 H :    0.018765
  28 C :   -0.065923
  29 H :    0.018077
  30 H :    0.032863
  31 H :    0.023403
  32 H :    0.018252
  33 H :    0.020840

  Mayer bond orders larger than 0.100000
B(  0-S ,  1-C ) :   1.1414 B(  0-S ,  4-C ) :   1.1549 B(  1-C ,  2-C ) :   1.5913
B(  1-C ,  4-C ) :   0.1043 B(  1-C , 32-H ) :   0.9718 B(  2-C ,  3-C ) :   1.2530
B(  2-C ,  6-C ) :   1.0071 B(  3-C ,  4-C ) :   1.5597 B(  3-C ,  5-H ) :   0.9968
B(  4-C , 20-C ) :   1.0532 B(  6-C ,  7-H ) :   0.9416 B(  6-C ,  8-H ) :   0.9416
B(  6-C ,  9-C ) :   1.0710 B(  9-C , 10-H ) :   0.9562 B(  9-C , 11-H ) :   0.9515
B(  9-C , 12-C ) :   1.0541 B( 12-C , 13-H ) :   0.9762 B( 12-C , 14-H ) :   0.9769
B( 12-C , 15-H ) :   0.9753 B( 16-S , 17-C ) :   1.1156 B( 16-S , 20-C ) :   1.1183
B( 17-C , 18-C ) :   1.6807 B( 17-C , 33-H ) :   0.9620 B( 18-C , 19-C ) :   1.2056
B( 18-C , 21-H ) :   0.9904 B( 19-C , 20-C ) :   1.6214 B( 19-C , 22-C ) :   1.0646
B( 22-C , 23-H ) :   0.9176 B( 22-C , 24-H ) :   0.9356 B( 22-C , 25-C ) :   1.0348
B( 25-C , 26-H ) :   0.9617 B( 25-C , 27-H ) :   0.9541 B( 25-C , 28-C ) :   1.0763
B( 28-C , 29-H ) :   0.9758 B( 28-C , 30-H ) :   0.9740 B( 28-C , 31-H ) :   0.9732

Dispersion correction           -0.014301967
FINAL SINGLE POINT ENERGY     -1339.856135231729

DIPOLE MOMENT
-------------
                                X             Y             Z
Electronic contribution:    -26.32153      -6.06124      -9.35095
Nuclear contribution   :     26.85446       6.05261       9.75284
                        -----------------------------------------
Total Dipole Moment    :      0.53293      -0.00863       0.40190
                        -----------------------------------------
Magnitude (a.u.)       :      0.66754
Magnitude (Debye)      :      1.69675

Rotational constants in cm-1:     0.018422     0.008713     0.006708
Rotational constants in MHz :   552.270415   261.210507   201.097795

                             ****ORCA TERMINATED NORMALLY****
TOTAL RUN TIME: 0 days 0 hours 0 minutes 34 seconds 860 msec
