                         Program Version 4.2.1 -  RELEASE  -
|  1> ! wB97X-D3 SP def2-SVP
|  2> %pal
|  3> nprocs 16
|  4> end
|  5>
|  6> * xyz 0 1
|  7> S 	 -42.8881 	 25.9186 	 79.5772
|  8> C 	 -42.0694 	 27.4378 	 79.7384
|  9> C 	 -40.713 	 27.2975 	 79.8212
| 10> C 	 -40.262 	 25.9102 	 79.6039
| 11> C 	 -41.3219 	 25.0894 	 79.296
| 12> H 	 -39.2465 	 25.4879 	 79.5867
| 13> C 	 -39.6196 	 28.3466 	 80.0572
| 14> H 	 -40.0556 	 29.3198 	 79.9635
| 15> H 	 -38.8824 	 28.2138 	 79.1885
| 16> C 	 -39.0322 	 28.0879 	 81.4853
| 17> H 	 -39.7781 	 27.7039 	 82.1583
| 18> H 	 -38.3323 	 27.241 	 81.4061
| 19> C 	 -38.3601 	 29.3524 	 82.194
| 20> H 	 -39.16 	 30.0109 	 82.3988
| 21> H 	 -37.9471 	 29.1002 	 83.1922
| 22> H 	 -37.6692 	 29.8412 	 81.5268
| 23> S 	 -42.1132 	 22.6964 	 80.4558
| 24> C 	 -41.6906 	 21.1667 	 79.7118
| 25> C 	 -40.767 	 21.3446 	 78.722
| 26> C 	 -40.4665 	 22.7358 	 78.5003
| 27> C 	 -41.2481 	 23.6169 	 79.2033
| 28> H 	 -40.3761 	 20.5111 	 78.1386
| 29> C 	 -39.5075 	 23.1573 	 77.4462
| 30> H 	 -38.5616 	 22.6735 	 77.6064
| 31> H 	 -39.3321 	 24.2391 	 77.5749
| 32> C 	 -39.9848 	 22.9656 	 75.9743
| 33> H 	 -41.0141 	 23.3782 	 75.7609
| 34> H 	 -40.0739 	 21.9233 	 75.7693
| 35> C 	 -38.8584 	 23.4465 	 75.0615
| 36> H 	 -38.7151 	 24.516 	 75.1295
| 37> H 	 -39.0572 	 23.1177 	 74.0235
| 38> H 	 -37.9253 	 22.9296 	 75.1993
| 39> H 	 -42.5289 	 28.4338 	 79.7403
| 40> H 	 -42.1298 	 20.2596 	 80.0861
| 41> *
| 42>
| 43>                          ****END OF INPUT****

CARTESIAN COORDINATES (ANGSTROEM)
---------------------------------
  S    -42.888100   25.918600   79.577200
  C    -42.069400   27.437800   79.738400
  C    -40.713000   27.297500   79.821200
  C    -40.262000   25.910200   79.603900
  C    -41.321900   25.089400   79.296000
  H    -39.246500   25.487900   79.586700
  C    -39.619600   28.346600   80.057200
  H    -40.055600   29.319800   79.963500
  H    -38.882400   28.213800   79.188500
  C    -39.032200   28.087900   81.485300
  H    -39.778100   27.703900   82.158300
  H    -38.332300   27.241000   81.406100
  C    -38.360100   29.352400   82.194000
  H    -39.160000   30.010900   82.398800
  H    -37.947100   29.100200   83.192200
  H    -37.669200   29.841200   81.526800
  S    -42.113200   22.696400   80.455800
  C    -41.690600   21.166700   79.711800
  C    -40.767000   21.344600   78.722000
  C    -40.466500   22.735800   78.500300
  C    -41.248100   23.616900   79.203300
  H    -40.376100   20.511100   78.138600
  C    -39.507500   23.157300   77.446200
  H    -38.561600   22.673500   77.606400
  H    -39.332100   24.239100   77.574900
  C    -39.984800   22.965600   75.974300
  H    -41.014100   23.378200   75.760900
  H    -40.073900   21.923300   75.769300
  C    -38.858400   23.446500   75.061500
  H    -38.715100   24.516000   75.129500
  H    -39.057200   23.117700   74.023500
  H    -37.925300   22.929600   75.199300
  H    -42.528900   28.433800   79.740300
  H    -42.129800   20.259600   80.086100

 Total Charge           Charge          ....    0
 Multiplicity           Mult            ....    1
 Number of Electrons    NEL             ....  134
 Basis Dimension        Dim             ....  322

ORBITAL ENERGIES
----------------

  NO   OCC          E(Eh)            E(eV)
   0   2.0000     -88.966243     -2420.8945
   1   2.0000     -88.956874     -2420.6396
   2   2.0000     -10.333494      -281.1887
   3   2.0000     -10.325453      -280.9699
   4   2.0000     -10.315155      -280.6896
   5   2.0000     -10.315031      -280.6863
   6   2.0000     -10.305087      -280.4157
   7   2.0000     -10.301327      -280.3134
   8   2.0000     -10.300643      -280.2947
   9   2.0000     -10.297997      -280.2227
  10   2.0000     -10.293542      -280.1015
  11   2.0000     -10.292607      -280.0761
  12   2.0000     -10.286520      -279.9104
  13   2.0000     -10.286023      -279.8969
  14   2.0000     -10.281004      -279.7604
  15   2.0000     -10.275355      -279.6066
  16   2.0000      -8.080612      -219.8846
  17   2.0000      -8.071704      -219.6422
  18   2.0000      -6.039363      -164.3394
  19   2.0000      -6.035351      -164.2303
  20   2.0000      -6.030945      -164.1104
  21   2.0000      -6.030313      -164.0932
  22   2.0000      -6.026262      -163.9829
  23   2.0000      -6.022286      -163.8747
  24   2.0000      -1.003004       -27.2931
  25   2.0000      -0.981911       -26.7192
  26   2.0000      -0.907590       -24.6968
  27   2.0000      -0.903199       -24.5773
  28   2.0000      -0.868909       -23.6442
  29   2.0000      -0.848936       -23.1007
  30   2.0000      -0.841575       -22.9004
  31   2.0000      -0.814524       -22.1643
  32   2.0000      -0.777349       -21.1528
  33   2.0000      -0.768397       -20.9092
  34   2.0000      -0.707356       -19.2481
  35   2.0000      -0.700742       -19.0682
  36   2.0000      -0.693992       -18.8845
  37   2.0000      -0.661587       -18.0027
  38   2.0000      -0.640995       -17.4424
  39   2.0000      -0.615128       -16.7385
  40   2.0000      -0.597044       -16.2464
  41   2.0000      -0.566554       -15.4167
  42   2.0000      -0.562728       -15.3126
  43   2.0000      -0.553356       -15.0576
  44   2.0000      -0.526341       -14.3225
  45   2.0000      -0.523252       -14.2384
  46   2.0000      -0.514526       -14.0010
  47   2.0000      -0.511624       -13.9220
  48   2.0000      -0.503303       -13.6956
  49   2.0000      -0.498767       -13.5722
  50   2.0000      -0.495092       -13.4721
  51   2.0000      -0.474099       -12.9009
  52   2.0000      -0.470841       -12.8122
  53   2.0000      -0.462142       -12.5755
  54   2.0000      -0.456746       -12.4287
  55   2.0000      -0.450133       -12.2487
  56   2.0000      -0.446790       -12.1578
  57   2.0000      -0.441574       -12.0159
  58   2.0000      -0.430352       -11.7105
  59   2.0000      -0.425891       -11.5891
  60   2.0000      -0.418666       -11.3925
  61   2.0000      -0.413922       -11.2634
  62   2.0000      -0.411799       -11.2056
  63   2.0000      -0.351028        -9.5519
  64   2.0000      -0.325349        -8.8532
  65   2.0000      -0.323661        -8.8073
  66   2.0000      -0.295667        -8.0455
  67   0.0000       0.032390         0.8814
  68   0.0000       0.069726         1.8973
  69   0.0000       0.108315         2.9474
  70   0.0000       0.121785         3.3139
  71   0.0000       0.128216         3.4889

MULLIKEN ATOMIC CHARGES
-----------------------
   0 S :    0.102774
   1 C :   -0.108362
   2 C :   -0.122436
   3 C :    0.025101
   4 C :   -0.153038
   5 H :    0.040103
   6 C :    0.077646
   7 H :    0.008173
   8 H :    0.053189
   9 C :   -0.103141
  10 H :    0.040270
  11 H :    0.031981
  12 C :   -0.037685
  13 H :    0.024310
  14 H :    0.043132
  15 H :    0.037326
  16 S :    0.075384
  17 C :   -0.087954
  18 C :   -0.013586
  19 C :   -0.049987
  20 C :   -0.133442
  21 H :    0.023396
  22 C :    0.045499
  23 H :    0.020533
  24 H :    0.010359
  25 C :   -0.064229
  26 H :    0.048788
  27 H :    0.012311
  28 C :   -0.040044
  29 H :    0.038165
  30 H :    0.026952
  31 H :    0.019641
  32 H :    0.052775
  33 H :    0.056095
Sum of atomic charges:    0.0000000

LOEWDIN ATOMIC CHARGES
----------------------
   0 S :    0.387750
   1 C :   -0.206475
   2 C :   -0.061287
   3 C :   -0.055081
   4 C :   -0.180067
   5 H :    0.038273
   6 C :   -0.030913
   7 H :    0.019910
   8 H :    0.041551
   9 C :   -0.038196
  10 H :    0.025199
  11 H :    0.022780
  12 C :   -0.061848
  13 H :    0.019149
  14 H :    0.032335
  15 H :    0.023079
  16 S :    0.376989
  17 C :   -0.171782
  18 C :   -0.072119
  19 C :   -0.064252
  20 C :   -0.185863
  21 H :    0.034515
  22 C :   -0.035001
  23 H :    0.028609
  24 H :    0.027670
  25 C :   -0.036241
  26 H :    0.035025
  27 H :    0.015971
  28 C :   -0.066660
  29 H :    0.023188
  30 H :    0.028814
  31 H :    0.023265
  32 H :    0.035911
  33 H :    0.025804

  Mayer bond orders larger than 0.100000
B(  0-S ,  1-C ) :   1.1147 B(  0-S ,  4-C ) :   1.1295 B(  1-C ,  2-C ) :   1.6719
B(  1-C , 32-H ) :   0.9610 B(  2-C ,  3-C ) :   1.1789 B(  2-C ,  6-C ) :   1.0231
B(  3-C ,  4-C ) :   1.6188 B(  3-C ,  5-H ) :   0.9820 B(  4-C , 20-C ) :   1.0206
B(  6-C ,  7-H ) :   0.9471 B(  6-C ,  8-H ) :   0.9455 B(  6-C ,  9-C ) :   1.0291
B(  9-C , 10-H ) :   0.9639 B(  9-C , 11-H ) :   0.9574 B(  9-C , 12-C ) :   1.0749
B( 12-C , 13-H ) :   0.9781 B( 12-C , 14-H ) :   0.9764 B( 12-C , 15-H ) :   0.9780
B( 16-S , 17-C ) :   1.1489 B( 16-S , 20-C ) :   1.1214 B( 17-C , 18-C ) :   1.6121
B( 17-C , 33-H ) :   0.9723 B( 18-C , 19-C ) :   1.2062 B( 18-C , 21-H ) :   0.9957
B( 19-C , 20-C ) :   1.6383 B( 19-C , 22-C ) :   1.0656 B( 22-C , 23-H ) :   0.9278
B( 22-C , 24-H ) :   0.9337 B( 22-C , 25-C ) :   1.0640 B( 25-C , 26-H ) :   0.9563
B( 25-C , 27-H ) :   0.9525 B( 25-C , 28-C ) :   1.0840 B( 28-C , 29-H ) :   0.9781
B( 28-C , 30-H ) :   0.9711 B( 28-C , 31-H ) :   0.9699

Dispersion correction           -0.013683586
FINAL SINGLE POINT ENERGY     -1339.878100615521

DIPOLE MOMENT
-------------
                                X             Y             Z
Electronic contribution:    -21.47905     -10.67177       8.02310
Nuclear contribution   :     22.09025      10.80774      -8.18761
                        -----------------------------------------
Total Dipole Moment    :      0.61120       0.13597      -0.16451
                        -----------------------------------------
Magnitude (a.u.)       :      0.64739
Magnitude (Debye)      :      1.64554

Rotational constants in cm-1:     0.017681     0.007937     0.006684
Rotational constants in MHz :   530.061435   237.945332   200.372981

                             ****ORCA TERMINATED NORMALLY****
TOTAL RUN TIME: 0 days 0 hours 0 minutes 28 seconds 885 msec
