                         Program Version 4.2.1 -  RELEASE  -
|  1> ! wB97X-D3 SP def2-SVP
|  2> %pal
|  3> nprocs 16
|  4> end
|  5>
|  6> * xyz 0 1
|  7> S 	 -48.0956 	 64.5872 	 134.042
|  8> C 	 -49.1228 	 63.1946 	 133.408
|  9> C 	 -48.4433 	 62.2915 	 132.612
| 10> C 	 -47.0603 	 62.664 	 132.659
| 11> C 	 -46.7103 	 63.8782 	 133.253
| 12> H 	 -46.3081 	 62.1639 	 132.116
| 13> C 	 -48.9317 	 61.1163 	 131.754
| 14> H 	 -48.4567 	 61.1713 	 130.78
| 15> H 	 -50.0371 	 61.2178 	 131.602
| 16> C 	 -48.6928 	 59.744 	 132.381
| 17> H 	 -49.0258 	 59.0666 	 131.553
| 18> H 	 -47.6208 	 59.6216 	 132.497
| 19> C 	 -49.3372 	 59.4076 	 133.776
| 20> H 	 -49.2047 	 60.2104 	 134.412
| 21> H 	 -50.4087 	 59.0875 	 133.765
| 22> H 	 -48.8236 	 58.5284 	 134.048
| 23> S 	 -44.2657 	 64.102 	 131.949
| 24> C 	 -42.8922 	 64.8673 	 132.797
| 25> C 	 -43.2752 	 65.1705 	 134.073
| 26> C 	 -44.6582 	 64.8524 	 134.329
| 27> C 	 -45.3304 	 64.3135 	 133.29
| 28> H 	 -42.596 	 65.5097 	 134.775
| 29> C 	 -45.2707 	 64.8107 	 135.737
| 30> H 	 -45.2362 	 63.7704 	 136.029
| 31> H 	 -46.2936 	 65.1727 	 135.762
| 32> C 	 -44.5745 	 65.5527 	 136.939
| 33> H 	 -44.5021 	 66.6505 	 136.652
| 34> H 	 -43.6317 	 65.2 	 137.178
| 35> C 	 -45.3503 	 65.356 	 138.243
| 36> H 	 -45.4079 	 64.2967 	 138.52
| 37> H 	 -46.3375 	 65.5571 	 138.007
| 38> H 	 -45.0151 	 66.0495 	 138.985
| 39> H 	 -50.1902 	 63.1124 	 133.461
| 40> H 	 -41.9455 	 65.0909 	 132.302
| 41> *
| 42>
| 43>                          ****END OF INPUT****

CARTESIAN COORDINATES (ANGSTROEM)
---------------------------------
  S    -48.095600   64.587200  134.042000
  C    -49.122800   63.194600  133.408000
  C    -48.443300   62.291500  132.612000
  C    -47.060300   62.664000  132.659000
  C    -46.710300   63.878200  133.253000
  H    -46.308100   62.163900  132.116000
  C    -48.931700   61.116300  131.754000
  H    -48.456700   61.171300  130.780000
  H    -50.037100   61.217800  131.602000
  C    -48.692800   59.744000  132.381000
  H    -49.025800   59.066600  131.553000
  H    -47.620800   59.621600  132.497000
  C    -49.337200   59.407600  133.776000
  H    -49.204700   60.210400  134.412000
  H    -50.408700   59.087500  133.765000
  H    -48.823600   58.528400  134.048000
  S    -44.265700   64.102000  131.949000
  C    -42.892200   64.867300  132.797000
  C    -43.275200   65.170500  134.073000
  C    -44.658200   64.852400  134.329000
  C    -45.330400   64.313500  133.290000
  H    -42.596000   65.509700  134.775000
  C    -45.270700   64.810700  135.737000
  H    -45.236200   63.770400  136.029000
  H    -46.293600   65.172700  135.762000
  C    -44.574500   65.552700  136.939000
  H    -44.502100   66.650500  136.652000
  H    -43.631700   65.200000  137.178000
  C    -45.350300   65.356000  138.243000
  H    -45.407900   64.296700  138.520000
  H    -46.337500   65.557100  138.007000
  H    -45.015100   66.049500  138.985000
  H    -50.190200   63.112400  133.461000
  H    -41.945500   65.090900  132.302000

 Total Charge           Charge          ....    0
 Multiplicity           Mult            ....    1
 Number of Electrons    NEL             ....  134
 Basis Dimension        Dim             ....  322

ORBITAL ENERGIES
----------------

  NO   OCC          E(Eh)            E(eV)
   0   2.0000     -88.974045     -2421.1069
   1   2.0000     -88.962933     -2420.8045
   2   2.0000     -10.330763      -281.1144
   3   2.0000     -10.321525      -280.8630
   4   2.0000     -10.320612      -280.8381
   5   2.0000     -10.319997      -280.8214
   6   2.0000     -10.305017      -280.4138
   7   2.0000     -10.301221      -280.3105
   8   2.0000     -10.297292      -280.2036
   9   2.0000     -10.292729      -280.0794
  10   2.0000     -10.291329      -280.0413
  11   2.0000     -10.288726      -279.9705
  12   2.0000     -10.288563      -279.9660
  13   2.0000     -10.282949      -279.8133
  14   2.0000     -10.274734      -279.5897
  15   2.0000     -10.268429      -279.4181
  16   2.0000      -8.086671      -220.0495
  17   2.0000      -8.077661      -219.8043
  18   2.0000      -6.045498      -164.5064
  19   2.0000      -6.041649      -164.4016
  20   2.0000      -6.037032      -164.2760
  21   2.0000      -6.036283      -164.2556
  22   2.0000      -6.032197      -164.1444
  23   2.0000      -6.028271      -164.0376
  24   2.0000      -1.007859       -27.4252
  25   2.0000      -0.979502       -26.6536
  26   2.0000      -0.911801       -24.8114
  27   2.0000      -0.904019       -24.5996
  28   2.0000      -0.872000       -23.7283
  29   2.0000      -0.852554       -23.1992
  30   2.0000      -0.843351       -22.9487
  31   2.0000      -0.811847       -22.0915
  32   2.0000      -0.792381       -21.5618
  33   2.0000      -0.771969       -21.0063
  34   2.0000      -0.705509       -19.1979
  35   2.0000      -0.703306       -19.1379
  36   2.0000      -0.695304       -18.9202
  37   2.0000      -0.663970       -18.0676
  38   2.0000      -0.630201       -17.1486
  39   2.0000      -0.619029       -16.8446
  40   2.0000      -0.598678       -16.2909
  41   2.0000      -0.573790       -15.6136
  42   2.0000      -0.570959       -15.5366
  43   2.0000      -0.553619       -15.0647
  44   2.0000      -0.541974       -14.7479
  45   2.0000      -0.532655       -14.4943
  46   2.0000      -0.520303       -14.1582
  47   2.0000      -0.514999       -14.0138
  48   2.0000      -0.506310       -13.7774
  49   2.0000      -0.494164       -13.4469
  50   2.0000      -0.484964       -13.1966
  51   2.0000      -0.481872       -13.1124
  52   2.0000      -0.474092       -12.9007
  53   2.0000      -0.463651       -12.6166
  54   2.0000      -0.459272       -12.4974
  55   2.0000      -0.449844       -12.2409
  56   2.0000      -0.444194       -12.0871
  57   2.0000      -0.438992       -11.9456
  58   2.0000      -0.427588       -11.6353
  59   2.0000      -0.421633       -11.4732
  60   2.0000      -0.419859       -11.4249
  61   2.0000      -0.415798       -11.3144
  62   2.0000      -0.412653       -11.2289
  63   2.0000      -0.354855        -9.6561
  64   2.0000      -0.334744        -9.1088
  65   2.0000      -0.327722        -8.9178
  66   2.0000      -0.287611        -7.8263
  67   0.0000       0.024684         0.6717
  68   0.0000       0.075497         2.0544
  69   0.0000       0.097795         2.6611
  70   0.0000       0.112509         3.0615
  71   0.0000       0.135771         3.6945

MULLIKEN ATOMIC CHARGES
-----------------------
   0 S :    0.106643
   1 C :   -0.119365
   2 C :   -0.074627
   3 C :   -0.013788
   4 C :   -0.112336
   5 H :   -0.007666
   6 C :    0.074366
   7 H :    0.040511
   8 H :    0.027103
   9 C :   -0.114912
  10 H :    0.039446
  11 H :    0.030476
  12 C :   -0.011260
  13 H :    0.032743
  14 H :    0.034197
  15 H :    0.027638
  16 S :    0.086814
  17 C :   -0.097228
  18 C :    0.005054
  19 C :   -0.049587
  20 C :   -0.117116
  21 H :   -0.003818
  22 C :    0.014448
  23 H :    0.042032
  24 H :    0.030607
  25 C :   -0.093794
  26 H :    0.037223
  27 H :    0.014420
  28 C :    0.005873
  29 H :    0.028396
  30 H :   -0.002338
  31 H :    0.037913
  32 H :    0.033990
  33 H :    0.067941
Sum of atomic charges:   -0.0000000

LOEWDIN ATOMIC CHARGES
----------------------
   0 S :    0.389368
   1 C :   -0.170548
   2 C :   -0.057879
   3 C :   -0.061635
   4 C :   -0.184952
   5 H :    0.012193
   6 C :   -0.030301
   7 H :    0.036339
   8 H :    0.033627
   9 C :   -0.040720
  10 H :    0.030415
  11 H :    0.021749
  12 C :   -0.054985
  13 H :    0.016354
  14 H :    0.030732
  15 H :    0.025486
  16 S :    0.397028
  17 C :   -0.169272
  18 C :   -0.059132
  19 C :   -0.066200
  20 C :   -0.200206
  21 H :    0.021276
  22 C :   -0.035340
  23 H :    0.034803
  24 H :    0.014586
  25 C :   -0.039248
  26 H :    0.028006
  27 H :    0.007627
  28 C :   -0.055695
  29 H :    0.029628
  30 H :    0.013053
  31 H :    0.027622
  32 H :    0.021657
  33 H :    0.034559

  Mayer bond orders larger than 0.100000
B(  0-S ,  1-C ) :   1.1132 B(  0-S ,  4-C ) :   1.1228 B(  1-C ,  2-C ) :   1.6442
B(  1-C , 32-H ) :   0.9582 B(  2-C ,  3-C ) :   1.2164 B(  2-C ,  6-C ) :   1.0197
B(  3-C ,  4-C ) :   1.5876 B(  3-C ,  5-H ) :   0.9867 B(  4-C , 20-C ) :   1.0641
B(  6-C ,  7-H ) :   0.9395 B(  6-C ,  8-H ) :   0.9389 B(  6-C ,  9-C ) :   1.0728
B(  9-C , 10-H ) :   0.9555 B(  9-C , 11-H ) :   0.9614 B(  9-C , 12-C ) :   1.0647
B( 12-C , 13-H ) :   0.9761 B( 12-C , 14-H ) :   0.9759 B( 12-C , 15-H ) :   0.9745
B( 16-S , 17-C ) :   1.1420 B( 16-S , 20-C ) :   1.1271 B( 17-C , 18-C ) :   1.5991
B( 17-C , 33-H ) :   0.9682 B( 18-C , 19-C ) :   1.2381 B( 18-C , 21-H ) :   1.0058
B( 19-C , 20-C ) :   1.6067 B( 19-C , 22-C ) :   1.0297 B( 22-C , 23-H ) :   0.9367
B( 22-C , 24-H ) :   0.9321 B( 22-C , 25-C ) :   1.0743 B( 25-C , 26-H ) :   0.9581
B( 25-C , 27-H ) :   0.9502 B( 25-C , 28-C ) :   1.0851 B( 28-C , 29-H ) :   0.9707
B( 28-C , 30-H ) :   0.9716 B( 28-C , 31-H ) :   0.9705

Dispersion correction           -0.013818994
FINAL SINGLE POINT ENERGY     -1339.857995109477

DIPOLE MOMENT
-------------
                                X             Y             Z
Electronic contribution:      6.02785      11.88127     -13.93609
Nuclear contribution   :     -6.00210     -12.28071      14.08212
                        -----------------------------------------
Total Dipole Moment    :      0.02575      -0.39944       0.14603
                        -----------------------------------------
Magnitude (a.u.)       :      0.42608
Magnitude (Debye)      :      1.08300

Rotational constants in cm-1:     0.018654     0.008210     0.006630
Rotational constants in MHz :   559.232704   246.139838   198.750293

                             ****ORCA TERMINATED NORMALLY****
TOTAL RUN TIME: 0 days 0 hours 0 minutes 34 seconds 433 msec
