                         Program Version 4.2.1 -  RELEASE  -
|  1> ! wB97X-D3 SP def2-SVP
|  2> %pal
|  3> nprocs 16
|  4> end
|  5>
|  6> * xyz 0 1
|  7> S 	 25.9483 	 31.431 	 56.3746
|  8> C 	 24.9344 	 30.1564 	 55.7372
|  9> C 	 24.9566 	 30.1308 	 54.3383
| 10> C 	 25.9482 	 30.9778 	 53.8243
| 11> C 	 26.5535 	 31.7485 	 54.7923
| 12> H 	 26.2078 	 31.0671 	 52.8214
| 13> C 	 24.0918 	 29.1297 	 53.4689
| 14> H 	 23.1009 	 29.5045 	 53.4684
| 15> H 	 24.1294 	 28.1162 	 54.1055
| 16> C 	 24.6077 	 28.929 	 52.0252
| 17> H 	 24.5054 	 29.8826 	 51.475
| 18> H 	 25.5656 	 28.4881 	 51.9238
| 19> C 	 23.7207 	 27.9769 	 51.2101
| 20> H 	 24.0471 	 27.8143 	 50.237
| 21> H 	 23.4646 	 27.0909 	 51.7314
| 22> H 	 22.7615 	 28.4661 	 51.0064
| 23> S 	 27.081 	 34.4041 	 55.1902
| 24> C 	 28.6507 	 35.089 	 54.7864
| 25> C 	 29.3729 	 34.1905 	 54.0145
| 26> C 	 28.8202 	 32.8631 	 54.0429
| 27> C 	 27.5513 	 32.7775 	 54.6272
| 28> H 	 30.2903 	 34.4233 	 53.568
| 29> C 	 29.5794 	 31.6257 	 53.4692
| 30> H 	 29.1482 	 30.8118 	 53.9158
| 31> H 	 30.6051 	 31.8258 	 53.7662
| 32> C 	 29.6246 	 31.722 	 51.9671
| 33> H 	 30.2552 	 30.8875 	 51.5938
| 34> H 	 30.3404 	 32.4159 	 51.6257
| 35> C 	 28.3209 	 31.808 	 51.1452
| 36> H 	 27.7212 	 32.7373 	 51.3688
| 37> H 	 27.726 	 30.9255 	 51.3219
| 38> H 	 28.6222 	 31.8438 	 50.1028
| 39> H 	 24.4128 	 29.4335 	 56.3107
| 40> H 	 29.0855 	 36.0437 	 54.9975
| 41> *
| 42>
| 43>                          ****END OF INPUT****

CARTESIAN COORDINATES (ANGSTROEM)
---------------------------------
  S     25.948300   31.431000   56.374600
  C     24.934400   30.156400   55.737200
  C     24.956600   30.130800   54.338300
  C     25.948200   30.977800   53.824300
  C     26.553500   31.748500   54.792300
  H     26.207800   31.067100   52.821400
  C     24.091800   29.129700   53.468900
  H     23.100900   29.504500   53.468400
  H     24.129400   28.116200   54.105500
  C     24.607700   28.929000   52.025200
  H     24.505400   29.882600   51.475000
  H     25.565600   28.488100   51.923800
  C     23.720700   27.976900   51.210100
  H     24.047100   27.814300   50.237000
  H     23.464600   27.090900   51.731400
  H     22.761500   28.466100   51.006400
  S     27.081000   34.404100   55.190200
  C     28.650700   35.089000   54.786400
  C     29.372900   34.190500   54.014500
  C     28.820200   32.863100   54.042900
  C     27.551300   32.777500   54.627200
  H     30.290300   34.423300   53.568000
  C     29.579400   31.625700   53.469200
  H     29.148200   30.811800   53.915800
  H     30.605100   31.825800   53.766200
  C     29.624600   31.722000   51.967100
  H     30.255200   30.887500   51.593800
  H     30.340400   32.415900   51.625700
  C     28.320900   31.808000   51.145200
  H     27.721200   32.737300   51.368800
  H     27.726000   30.925500   51.321900
  H     28.622200   31.843800   50.102800
  H     24.412800   29.433500   56.310700
  H     29.085500   36.043700   54.997500

 Total Charge           Charge          ....    0
 Multiplicity           Mult            ....    1
 Number of Electrons    NEL             ....  134
 Basis Dimension        Dim             ....  322

ORBITAL ENERGIES
----------------

  NO   OCC          E(Eh)            E(eV)
   0   2.0000     -88.968598     -2420.9586
   1   2.0000     -88.960563     -2420.7400
   2   2.0000     -10.324315      -280.9389
   3   2.0000     -10.323605      -280.9196
   4   2.0000     -10.315637      -280.7028
   5   2.0000     -10.310832      -280.5720
   6   2.0000     -10.308543      -280.5097
   7   2.0000     -10.302851      -280.3548
   8   2.0000     -10.301779      -280.3257
   9   2.0000     -10.290438      -280.0170
  10   2.0000     -10.288914      -279.9756
  11   2.0000     -10.286895      -279.9206
  12   2.0000     -10.284975      -279.8684
  13   2.0000     -10.282636      -279.8047
  14   2.0000     -10.280502      -279.7467
  15   2.0000     -10.270082      -279.4631
  16   2.0000      -8.083527      -219.9639
  17   2.0000      -8.074579      -219.7205
  18   2.0000      -6.041832      -164.4066
  19   2.0000      -6.037953      -164.3011
  20   2.0000      -6.034539      -164.2082
  21   2.0000      -6.033314      -164.1748
  22   2.0000      -6.029127      -164.0609
  23   2.0000      -6.025203      -163.9541
  24   2.0000      -1.006729       -27.3945
  25   2.0000      -0.978732       -26.6327
  26   2.0000      -0.910391       -24.7730
  27   2.0000      -0.908321       -24.7167
  28   2.0000      -0.870543       -23.6887
  29   2.0000      -0.851678       -23.1753
  30   2.0000      -0.839882       -22.8543
  31   2.0000      -0.815066       -22.1791
  32   2.0000      -0.785341       -21.3702
  33   2.0000      -0.774127       -21.0651
  34   2.0000      -0.714505       -19.4427
  35   2.0000      -0.700743       -19.0682
  36   2.0000      -0.692184       -18.8353
  37   2.0000      -0.658004       -17.9052
  38   2.0000      -0.645157       -17.5556
  39   2.0000      -0.623149       -16.9567
  40   2.0000      -0.586215       -15.9517
  41   2.0000      -0.576549       -15.6887
  42   2.0000      -0.566153       -15.4058
  43   2.0000      -0.553873       -15.0717
  44   2.0000      -0.543765       -14.7966
  45   2.0000      -0.531130       -14.4528
  46   2.0000      -0.522190       -14.2095
  47   2.0000      -0.507039       -13.7972
  48   2.0000      -0.505014       -13.7421
  49   2.0000      -0.499472       -13.5913
  50   2.0000      -0.489335       -13.3155
  51   2.0000      -0.482629       -13.1330
  52   2.0000      -0.470668       -12.8075
  53   2.0000      -0.464017       -12.6265
  54   2.0000      -0.457461       -12.4481
  55   2.0000      -0.454978       -12.3806
  56   2.0000      -0.447348       -12.1730
  57   2.0000      -0.437820       -11.9137
  58   2.0000      -0.433419       -11.7939
  59   2.0000      -0.427915       -11.6442
  60   2.0000      -0.421657       -11.4739
  61   2.0000      -0.418302       -11.3826
  62   2.0000      -0.396267       -10.7830
  63   2.0000      -0.339872        -9.2484
  64   2.0000      -0.333980        -9.0881
  65   2.0000      -0.323848        -8.8123
  66   2.0000      -0.289703        -7.8832
  67   0.0000       0.031670         0.8618
  68   0.0000       0.064975         1.7681
  69   0.0000       0.116349         3.1660
  70   0.0000       0.125441         3.4134
  71   0.0000       0.131064         3.5664

MULLIKEN ATOMIC CHARGES
-----------------------
   0 S :    0.136873
   1 C :   -0.122083
   2 C :   -0.074083
   3 C :    0.072790
   4 C :   -0.156442
   5 H :   -0.053666
   6 C :    0.039181
   7 H :    0.038707
   8 H :    0.050810
   9 C :   -0.106043
  10 H :    0.046720
  11 H :    0.037649
  12 C :    0.002224
  13 H :    0.017295
  14 H :    0.020328
  15 H :    0.009679
  16 S :    0.092265
  17 C :   -0.073862
  18 C :   -0.021990
  19 C :   -0.090659
  20 C :   -0.162707
  21 H :   -0.003209
  22 C :    0.180193
  23 H :    0.011761
  24 H :    0.016427
  25 C :   -0.096799
  26 H :    0.012282
  27 H :    0.003654
  28 C :   -0.042371
  29 H :    0.059890
  30 H :    0.043398
  31 H :    0.031051
  32 H :    0.031184
  33 H :    0.049554
Sum of atomic charges:   -0.0000000

LOEWDIN ATOMIC CHARGES
----------------------
   0 S :    0.432933
   1 C :   -0.197872
   2 C :   -0.059920
   3 C :   -0.054748
   4 C :   -0.207413
   5 H :    0.018353
   6 C :   -0.027840
   7 H :    0.027725
   8 H :    0.045056
   9 C :   -0.043400
  10 H :    0.032352
  11 H :    0.021640
  12 C :   -0.056655
  13 H :    0.018040
  14 H :    0.018489
  15 H :    0.024365
  16 S :    0.381616
  17 C :   -0.178564
  18 C :   -0.067550
  19 C :   -0.051508
  20 C :   -0.198753
  21 H :    0.019647
  22 C :   -0.011545
  23 H :    0.017575
  24 H :    0.036834
  25 C :   -0.052237
  26 H :    0.028110
  27 H :    0.018200
  28 C :   -0.065969
  29 H :    0.035161
  30 H :    0.020302
  31 H :    0.029157
  32 H :    0.019025
  33 H :    0.029396

  Mayer bond orders larger than 0.100000
B(  0-S ,  1-C ) :   1.1538 B(  0-S ,  4-C ) :   1.1716 B(  1-C ,  2-C ) :   1.5905
B(  1-C ,  4-C ) :   0.1088 B(  1-C , 32-H ) :   0.9767 B(  2-C ,  3-C ) :   1.2806
B(  2-C ,  6-C ) :   0.9811 B(  3-C ,  4-C ) :   1.5303 B(  3-C ,  5-H ) :   1.0050
B(  4-C , 20-C ) :   1.0291 B(  6-C ,  7-H ) :   0.9386 B(  6-C ,  8-H ) :   0.9485
B(  6-C ,  9-C ) :   1.0868 B(  9-C , 10-H ) :   0.9458 B(  9-C , 11-H ) :   0.9591
B(  9-C , 12-C ) :   1.0893 B( 12-C , 13-H ) :   0.9717 B( 12-C , 14-H ) :   0.9736
B( 12-C , 15-H ) :   0.9716 B( 16-S , 17-C ) :   1.1455 B( 16-S , 20-C ) :   1.1218
B( 17-C , 18-C ) :   1.6156 B( 17-C , 20-C ) :   0.1021 B( 17-C , 33-H ) :   0.9697
B( 18-C , 19-C ) :   1.2358 B( 18-C , 21-H ) :   0.9906 B( 19-C , 20-C ) :   1.6069
B( 19-C , 22-C ) :   1.0316 B( 22-C , 23-H ) :   0.9424 B( 22-C , 24-H ) :   0.9226
B( 22-C , 25-C ) :   1.0810 B( 25-C , 26-H ) :   0.9440 B( 25-C , 27-H ) :   0.9477
B( 25-C , 28-C ) :   1.0760 B( 28-C , 29-H ) :   0.9699 B( 28-C , 30-H ) :   0.9664
B( 28-C , 31-H ) :   0.9641

Dispersion correction           -0.015092228
FINAL SINGLE POINT ENERGY     -1339.855140247541

DIPOLE MOMENT
-------------
                                X             Y             Z
Electronic contribution:      0.55831      17.48566      25.06446
Nuclear contribution   :     -0.34878     -17.92680     -25.70144
                        -----------------------------------------
Total Dipole Moment    :      0.20953      -0.44113      -0.63698
                        -----------------------------------------
Magnitude (a.u.)       :      0.80265
Magnitude (Debye)      :      2.04016

Rotational constants in cm-1:     0.019047     0.009253     0.006926
Rotational constants in MHz :   571.010083   277.388033   207.628025

                             ****ORCA TERMINATED NORMALLY****
TOTAL RUN TIME: 0 days 0 hours 0 minutes 34 seconds 602 msec
