                         Program Version 4.2.1 -  RELEASE  -
|  1> ! wB97X-D3 SP def2-SVP
|  2> %pal
|  3> nprocs 16
|  4> end
|  5>
|  6> * xyz 0 1
|  7> S 	 16.5535 	 -9.08527 	 82.6657
|  8> C 	 16.0248 	 -10.616 	 83.3357
|  9> C 	 17.0416 	 -11.5062 	 83.5127
| 10> C 	 18.3032 	 -10.9574 	 83.0644
| 11> C 	 18.2232 	 -9.61028 	 82.7046
| 12> H 	 19.2373 	 -11.4685 	 83.0904
| 13> C 	 16.8175 	 -12.9282 	 83.9882
| 14> H 	 16.5503 	 -12.9522 	 84.9943
| 15> H 	 17.7449 	 -13.4628 	 83.9557
| 16> C 	 15.7893 	 -13.791 	 83.1935
| 17> H 	 14.8047 	 -13.296 	 83.3572
| 18> H 	 16.0156 	 -13.7283 	 82.1134
| 19> C 	 15.6859 	 -15.2731 	 83.5951
| 20> H 	 15.3952 	 -15.4386 	 84.5759
| 21> H 	 14.8963 	 -15.732 	 82.9851
| 22> H 	 16.6056 	 -15.7275 	 83.613
| 23> S 	 19.2793 	 -7.08376 	 82.6831
| 24> C 	 20.852 	 -6.73467 	 82.0999
| 25> C 	 21.3742 	 -7.94712 	 81.6113
| 26> C 	 20.5091 	 -9.07983 	 81.6559
| 27> C 	 19.3448 	 -8.77324 	 82.3058
| 28> H 	 22.462 	 -7.97684 	 81.3249
| 29> C 	 20.9096 	 -10.4969 	 81.1982
| 30> H 	 21.2701 	 -10.4409 	 80.1645
| 31> H 	 19.8797 	 -10.9722 	 81.1453
| 32> C 	 21.9552 	 -11.2008 	 82.0696
| 33> H 	 21.8172 	 -11.0405 	 83.1454
| 34> H 	 22.8961 	 -10.9032 	 81.8308
| 35> C 	 21.9004 	 -12.7112 	 81.8855
| 36> H 	 22.6121 	 -13.155 	 82.5705
| 37> H 	 22.0553 	 -13.0911 	 80.8986
| 38> H 	 20.9369 	 -13.0204 	 82.2798
| 39> H 	 14.9578 	 -10.8864 	 83.5567
| 40> H 	 21.3086 	 -5.71783 	 82.121
| 41> *
| 42>
| 43>                          ****END OF INPUT****

CARTESIAN COORDINATES (ANGSTROEM)
---------------------------------
  S     16.553500   -9.085270   82.665700
  C     16.024800  -10.616000   83.335700
  C     17.041600  -11.506200   83.512700
  C     18.303200  -10.957400   83.064400
  C     18.223200   -9.610280   82.704600
  H     19.237300  -11.468500   83.090400
  C     16.817500  -12.928200   83.988200
  H     16.550300  -12.952200   84.994300
  H     17.744900  -13.462800   83.955700
  C     15.789300  -13.791000   83.193500
  H     14.804700  -13.296000   83.357200
  H     16.015600  -13.728300   82.113400
  C     15.685900  -15.273100   83.595100
  H     15.395200  -15.438600   84.575900
  H     14.896300  -15.732000   82.985100
  H     16.605600  -15.727500   83.613000
  S     19.279300   -7.083760   82.683100
  C     20.852000   -6.734670   82.099900
  C     21.374200   -7.947120   81.611300
  C     20.509100   -9.079830   81.655900
  C     19.344800   -8.773240   82.305800
  H     22.462000   -7.976840   81.324900
  C     20.909600  -10.496900   81.198200
  H     21.270100  -10.440900   80.164500
  H     19.879700  -10.972200   81.145300
  C     21.955200  -11.200800   82.069600
  H     21.817200  -11.040500   83.145400
  H     22.896100  -10.903200   81.830800
  C     21.900400  -12.711200   81.885500
  H     22.612100  -13.155000   82.570500
  H     22.055300  -13.091100   80.898600
  H     20.936900  -13.020400   82.279800
  H     14.957800  -10.886400   83.556700
  H     21.308600   -5.717830   82.121000

 Total Charge           Charge          ....    0
 Multiplicity           Mult            ....    1
 Number of Electrons    NEL             ....  134
 Basis Dimension        Dim             ....  322

ORBITAL ENERGIES
----------------

  NO   OCC          E(Eh)            E(eV)
   0   2.0000     -88.968968     -2420.9687
   1   2.0000     -88.962318     -2420.7878
   2   2.0000     -10.332249      -281.1548
   3   2.0000     -10.323629      -280.9202
   4   2.0000     -10.320780      -280.8427
   5   2.0000     -10.314654      -280.6760
   6   2.0000     -10.301302      -280.3127
   7   2.0000     -10.300539      -280.2919
   8   2.0000     -10.297770      -280.2166
   9   2.0000     -10.296546      -280.1833
  10   2.0000     -10.295822      -280.1636
  11   2.0000     -10.292542      -280.0743
  12   2.0000     -10.286841      -279.9192
  13   2.0000     -10.281538      -279.7749
  14   2.0000     -10.274987      -279.5966
  15   2.0000     -10.270239      -279.4674
  16   2.0000      -8.083402      -219.9606
  17   2.0000      -8.078146      -219.8175
  18   2.0000      -6.042005      -164.4113
  19   2.0000      -6.037996      -164.3022
  20   2.0000      -6.036523      -164.2621
  21   2.0000      -6.034043      -164.1947
  22   2.0000      -6.032340      -164.1483
  23   2.0000      -6.029134      -164.0611
  24   2.0000      -1.010732       -27.5034
  25   2.0000      -0.986302       -26.8387
  26   2.0000      -0.913017       -24.8445
  27   2.0000      -0.910588       -24.7783
  28   2.0000      -0.870650       -23.6916
  29   2.0000      -0.857459       -23.3327
  30   2.0000      -0.845839       -23.0165
  31   2.0000      -0.813235       -22.1292
  32   2.0000      -0.784544       -21.3485
  33   2.0000      -0.775712       -21.1082
  34   2.0000      -0.708446       -19.2778
  35   2.0000      -0.707740       -19.2586
  36   2.0000      -0.695456       -18.9243
  37   2.0000      -0.662735       -18.0339
  38   2.0000      -0.635253       -17.2861
  39   2.0000      -0.618687       -16.8353
  40   2.0000      -0.592491       -16.1225
  41   2.0000      -0.574874       -15.6431
  42   2.0000      -0.570137       -15.5142
  43   2.0000      -0.559102       -15.2139
  44   2.0000      -0.533972       -14.5301
  45   2.0000      -0.530730       -14.4419
  46   2.0000      -0.520777       -14.1711
  47   2.0000      -0.512282       -13.9399
  48   2.0000      -0.505818       -13.7640
  49   2.0000      -0.500687       -13.6244
  50   2.0000      -0.493752       -13.4357
  51   2.0000      -0.482620       -13.1328
  52   2.0000      -0.475724       -12.9451
  53   2.0000      -0.468387       -12.7455
  54   2.0000      -0.459942       -12.5157
  55   2.0000      -0.449973       -12.2444
  56   2.0000      -0.442025       -12.0281
  57   2.0000      -0.438487       -11.9318
  58   2.0000      -0.431774       -11.7492
  59   2.0000      -0.430463       -11.7135
  60   2.0000      -0.421198       -11.4614
  61   2.0000      -0.420125       -11.4322
  62   2.0000      -0.412242       -11.2177
  63   2.0000      -0.355301        -9.6682
  64   2.0000      -0.332125        -9.0376
  65   2.0000      -0.329077        -8.9546
  66   2.0000      -0.287757        -7.8303
  67   0.0000       0.027202         0.7402
  68   0.0000       0.079923         2.1748
  69   0.0000       0.110817         3.0155
  70   0.0000       0.123068         3.3489
  71   0.0000       0.131467         3.5774

MULLIKEN ATOMIC CHARGES
-----------------------
   0 S :    0.120170
   1 C :   -0.148826
   2 C :   -0.069951
   3 C :    0.016592
   4 C :   -0.125152
   5 H :   -0.018392
   6 C :    0.116601
   7 H :    0.018494
   8 H :   -0.000854
   9 C :   -0.124432
  10 H :    0.027346
  11 H :    0.041730
  12 C :    0.017659
  13 H :    0.000459
  14 H :    0.043182
  15 H :    0.009315
  16 S :    0.104044
  17 C :   -0.115721
  18 C :   -0.065014
  19 C :   -0.048428
  20 C :   -0.147871
  21 H :    0.034922
  22 C :    0.030023
  23 H :    0.031456
  24 H :    0.042960
  25 C :   -0.019162
  26 H :    0.035376
  27 H :    0.003686
  28 C :   -0.032231
  29 H :    0.026223
  30 H :    0.033273
  31 H :    0.014078
  32 H :    0.065402
  33 H :    0.083047
Sum of atomic charges:   -0.0000000

LOEWDIN ATOMIC CHARGES
----------------------
   0 S :    0.405535
   1 C :   -0.200705
   2 C :   -0.062225
   3 C :   -0.061779
   4 C :   -0.188032
   5 H :    0.023449
   6 C :   -0.028808
   7 H :    0.024837
   8 H :    0.023488
   9 C :   -0.036868
  10 H :    0.021520
  11 H :    0.027507
  12 C :   -0.057485
  13 H :    0.016882
  14 H :    0.036711
  15 H :    0.015419
  16 S :    0.426281
  17 C :   -0.209654
  18 C :   -0.081472
  19 C :   -0.065136
  20 C :   -0.204443
  21 H :    0.035750
  22 C :   -0.034627
  23 H :    0.033547
  24 H :    0.039476
  25 C :   -0.032131
  26 H :    0.029445
  27 H :    0.010567
  28 C :   -0.055324
  29 H :    0.025954
  30 H :    0.020826
  31 H :    0.019540
  32 H :    0.038343
  33 H :    0.043612

  Mayer bond orders larger than 0.100000
B(  0-S ,  1-C ) :   1.1276 B(  0-S ,  4-C ) :   1.1506 B(  1-C ,  2-C ) :   1.6273
B(  1-C , 32-H ) :   0.9607 B(  2-C ,  3-C ) :   1.2412 B(  2-C ,  6-C ) :   1.0263
B(  3-C ,  4-C ) :   1.5543 B(  3-C ,  5-H ) :   0.9984 B(  4-C , 20-C ) :   1.0595
B(  6-C ,  7-H ) :   0.9288 B(  6-C ,  8-H ) :   0.9384 B(  6-C ,  9-C ) :   1.0609
B(  9-C , 10-H ) :   0.9540 B(  9-C , 11-H ) :   0.9612 B(  9-C , 12-C ) :   1.0863
B( 12-C , 13-H ) :   0.9676 B( 12-C , 14-H ) :   0.9723 B( 12-C , 15-H ) :   0.9716
B( 16-S , 17-C ) :   1.1709 B( 16-S , 20-C ) :   1.1556 B( 17-C , 18-C ) :   1.5646
B( 17-C , 20-C ) :   0.1039 B( 17-C , 33-H ) :   0.9685 B( 18-C , 19-C ) :   1.2653
B( 18-C , 21-H ) :   0.9833 B( 19-C , 20-C ) :   1.5724 B( 19-C , 22-C ) :   1.0363
B( 22-C , 23-H ) :   0.9250 B( 22-C , 24-H ) :   0.9419 B( 22-C , 25-C ) :   1.0538
B( 25-C , 26-H ) :   0.9582 B( 25-C , 27-H ) :   0.9467 B( 25-C , 28-C ) :   1.0926
B( 28-C , 29-H ) :   0.9707 B( 28-C , 30-H ) :   0.9736 B( 28-C , 31-H ) :   0.9773

Dispersion correction           -0.014071369
FINAL SINGLE POINT ENERGY     -1339.877893341145

DIPOLE MOMENT
-------------
                                X             Y             Z
Electronic contribution:     -4.93820      32.26400      -0.54937
Nuclear contribution   :      5.27417     -32.93650       0.62304
                        -----------------------------------------
Total Dipole Moment    :      0.33596      -0.67250       0.07367
                        -----------------------------------------
Magnitude (a.u.)       :      0.75535
Magnitude (Debye)      :      1.91995

Rotational constants in cm-1:     0.019489     0.008527     0.006139
Rotational constants in MHz :   584.280076   255.644441   184.035169

                             ****ORCA TERMINATED NORMALLY****
TOTAL RUN TIME: 0 days 0 hours 0 minutes 28 seconds 112 msec
