                         Program Version 4.2.1 -  RELEASE  -
|  1> ! wB97X-D3 SP def2-SVP
|  2> %pal
|  3> nprocs 16
|  4> end
|  5>
|  6> * xyz 0 1
|  7> S 	 -36.288 	 51.8614 	 112.352
|  8> C 	 -37.7357 	 51.1341 	 113.045
|  9> C 	 -38.5633 	 50.577 	 112.086
| 10> C 	 -37.9778 	 50.7349 	 110.819
| 11> C 	 -36.7813 	 51.3937 	 110.726
| 12> H 	 -38.4296 	 50.4406 	 109.884
| 13> C 	 -39.865 	 49.8559 	 112.262
| 14> H 	 -40.1197 	 49.4531 	 113.266
| 15> H 	 -39.8241 	 49.0221 	 111.636
| 16> C 	 -41.1008 	 50.6734 	 111.805
| 17> H 	 -41.3315 	 51.4368 	 112.556
| 18> H 	 -40.9007 	 51.2426 	 110.913
| 19> C 	 -42.2573 	 49.7575 	 111.738
| 20> H 	 -43.1949 	 50.2923 	 111.378
| 21> H 	 -41.9995 	 48.9786 	 110.973
| 22> H 	 -42.5199 	 49.2171 	 112.639
| 23> S 	 -35.4448 	 50.4847 	 108.606
| 24> C 	 -34.8446 	 51.5959 	 107.374
| 25> C 	 -34.8751 	 52.8693 	 107.845
| 26> C 	 -35.5535 	 52.9973 	 109.137
| 27> C 	 -36.0099 	 51.7584 	 109.593
| 28> H 	 -34.619 	 53.7053 	 107.216
| 29> C 	 -36.0039 	 54.3185 	 109.745
| 30> H 	 -35.3504 	 55.1089 	 109.407
| 31> H 	 -35.7957 	 54.3064 	 110.785
| 32> C 	 -37.466 	 54.6472 	 109.668
| 33> H 	 -37.7129 	 55.6496 	 110.06
| 34> H 	 -38.1196 	 54.023 	 110.28
| 35> C 	 -38.1136 	 54.6858 	 108.266
| 36> H 	 -37.4949 	 55.4098 	 107.7
| 37> H 	 -39.068 	 55.1778 	 108.172
| 38> H 	 -38.101 	 53.7225 	 107.747
| 39> H 	 -37.9342 	 51.0248 	 114.084
| 40> H 	 -34.5614 	 51.3166 	 106.331
| 41> *
| 42>
| 43>                          ****END OF INPUT****

CARTESIAN COORDINATES (ANGSTROEM)
---------------------------------
  S    -36.288000   51.861400  112.352000
  C    -37.735700   51.134100  113.045000
  C    -38.563300   50.577000  112.086000
  C    -37.977800   50.734900  110.819000
  C    -36.781300   51.393700  110.726000
  H    -38.429600   50.440600  109.884000
  C    -39.865000   49.855900  112.262000
  H    -40.119700   49.453100  113.266000
  H    -39.824100   49.022100  111.636000
  C    -41.100800   50.673400  111.805000
  H    -41.331500   51.436800  112.556000
  H    -40.900700   51.242600  110.913000
  C    -42.257300   49.757500  111.738000
  H    -43.194900   50.292300  111.378000
  H    -41.999500   48.978600  110.973000
  H    -42.519900   49.217100  112.639000
  S    -35.444800   50.484700  108.606000
  C    -34.844600   51.595900  107.374000
  C    -34.875100   52.869300  107.845000
  C    -35.553500   52.997300  109.137000
  C    -36.009900   51.758400  109.593000
  H    -34.619000   53.705300  107.216000
  C    -36.003900   54.318500  109.745000
  H    -35.350400   55.108900  109.407000
  H    -35.795700   54.306400  110.785000
  C    -37.466000   54.647200  109.668000
  H    -37.712900   55.649600  110.060000
  H    -38.119600   54.023000  110.280000
  C    -38.113600   54.685800  108.266000
  H    -37.494900   55.409800  107.700000
  H    -39.068000   55.177800  108.172000
  H    -38.101000   53.722500  107.747000
  H    -37.934200   51.024800  114.084000
  H    -34.561400   51.316600  106.331000

 Total Charge           Charge          ....    0
 Multiplicity           Mult            ....    1
 Number of Electrons    NEL             ....  134
 Basis Dimension        Dim             ....  322

ORBITAL ENERGIES
----------------

  NO   OCC          E(Eh)            E(eV)
   0   2.0000     -88.965973     -2420.8872
   1   2.0000     -88.963809     -2420.8283
   2   2.0000     -10.326449      -280.9970
   3   2.0000     -10.321898      -280.8731
   4   2.0000     -10.318875      -280.7909
   5   2.0000     -10.314632      -280.6754
   6   2.0000     -10.305827      -280.4358
   7   2.0000     -10.300622      -280.2942
   8   2.0000     -10.295748      -280.1615
   9   2.0000     -10.291560      -280.0476
  10   2.0000     -10.291472      -280.0452
  11   2.0000     -10.285549      -279.8840
  12   2.0000     -10.283593      -279.8308
  13   2.0000     -10.282903      -279.8120
  14   2.0000     -10.281847      -279.7833
  15   2.0000     -10.270298      -279.4690
  16   2.0000      -8.080141      -219.8718
  17   2.0000      -8.079180      -219.8457
  18   2.0000      -6.038684      -164.3209
  19   2.0000      -6.037736      -164.2951
  20   2.0000      -6.034665      -164.2116
  21   2.0000      -6.033506      -164.1801
  22   2.0000      -6.030961      -164.1108
  23   2.0000      -6.029921      -164.0825
  24   2.0000      -1.011707       -27.5299
  25   2.0000      -0.986260       -26.8375
  26   2.0000      -0.921095       -25.0643
  27   2.0000      -0.907985       -24.7075
  28   2.0000      -0.878323       -23.9004
  29   2.0000      -0.853203       -23.2168
  30   2.0000      -0.840473       -22.8704
  31   2.0000      -0.817335       -22.2408
  32   2.0000      -0.784776       -21.3548
  33   2.0000      -0.772460       -21.0197
  34   2.0000      -0.710786       -19.3415
  35   2.0000      -0.702140       -19.1062
  36   2.0000      -0.687709       -18.7135
  37   2.0000      -0.666232       -18.1291
  38   2.0000      -0.643681       -17.5155
  39   2.0000      -0.624200       -16.9853
  40   2.0000      -0.591998       -16.1091
  41   2.0000      -0.573364       -15.6020
  42   2.0000      -0.566591       -15.4177
  43   2.0000      -0.550706       -14.9855
  44   2.0000      -0.549216       -14.9449
  45   2.0000      -0.524933       -14.2842
  46   2.0000      -0.519529       -14.1371
  47   2.0000      -0.513081       -13.9617
  48   2.0000      -0.504669       -13.7327
  49   2.0000      -0.501235       -13.6393
  50   2.0000      -0.487007       -13.2521
  51   2.0000      -0.481682       -13.1072
  52   2.0000      -0.473001       -12.8710
  53   2.0000      -0.464390       -12.6367
  54   2.0000      -0.458263       -12.4700
  55   2.0000      -0.455519       -12.3953
  56   2.0000      -0.443992       -12.0816
  57   2.0000      -0.436478       -11.8772
  58   2.0000      -0.432990       -11.7822
  59   2.0000      -0.423808       -11.5324
  60   2.0000      -0.416114       -11.3230
  61   2.0000      -0.412103       -11.2139
  62   2.0000      -0.406565       -11.0632
  63   2.0000      -0.344754        -9.3812
  64   2.0000      -0.334558        -9.1038
  65   2.0000      -0.327318        -8.9068
  66   2.0000      -0.295612        -8.0440
  67   0.0000       0.028270         0.7693
  68   0.0000       0.073750         2.0068
  69   0.0000       0.111391         3.0311
  70   0.0000       0.121568         3.3080
  71   0.0000       0.124566         3.3896

MULLIKEN ATOMIC CHARGES
-----------------------
   0 S :    0.111409
   1 C :   -0.114533
   2 C :   -0.048708
   3 C :    0.027528
   4 C :   -0.162987
   5 H :    0.001000
   6 C :    0.071710
   7 H :    0.024082
   8 H :    0.008406
   9 C :   -0.062436
  10 H :    0.025345
  11 H :    0.029742
  12 C :   -0.063031
  13 H :    0.043866
  14 H :    0.027328
  15 H :    0.032979
  16 S :    0.117325
  17 C :   -0.114629
  18 C :   -0.021194
  19 C :   -0.057807
  20 C :   -0.165352
  21 H :    0.019945
  22 C :    0.139423
  23 H :    0.012393
  24 H :    0.009859
  25 C :   -0.070882
  26 H :    0.021913
  27 H :    0.033266
  28 C :   -0.065510
  29 H :    0.009015
  30 H :    0.027610
  31 H :    0.046149
  32 H :    0.032789
  33 H :    0.073988
Sum of atomic charges:   -0.0000000

LOEWDIN ATOMIC CHARGES
----------------------
   0 S :    0.401974
   1 C :   -0.181639
   2 C :   -0.064675
   3 C :   -0.057242
   4 C :   -0.194977
   5 H :    0.027729
   6 C :   -0.024980
   7 H :    0.034209
   8 H :    0.022307
   9 C :   -0.040918
  10 H :    0.024762
  11 H :    0.023107
  12 C :   -0.070927
  13 H :    0.033676
  14 H :    0.027027
  15 H :    0.023695
  16 S :    0.421276
  17 C :   -0.191292
  18 C :   -0.067517
  19 C :   -0.055444
  20 C :   -0.214249
  21 H :    0.031224
  22 C :   -0.034581
  23 H :    0.030394
  24 H :    0.026431
  25 C :   -0.042716
  26 H :    0.029169
  27 H :    0.023705
  28 C :   -0.073196
  29 H :    0.021949
  30 H :    0.023818
  31 H :    0.024573
  32 H :    0.022227
  33 H :    0.041096

  Mayer bond orders larger than 0.100000
B(  0-S ,  1-C ) :   1.1462 B(  0-S ,  4-C ) :   1.1295 B(  1-C ,  2-C ) :   1.6056
B(  1-C , 32-H ) :   0.9709 B(  2-C ,  3-C ) :   1.2418 B(  2-C ,  6-C ) :   1.0213
B(  3-C ,  4-C ) :   1.5904 B(  3-C ,  5-H ) :   0.9925 B(  4-C , 20-C ) :   1.0522
B(  6-C ,  7-H ) :   0.9434 B(  6-C ,  8-H ) :   0.9401 B(  6-C ,  9-C ) :   1.0555
B(  9-C , 10-H ) :   0.9489 B(  9-C , 11-H ) :   0.9577 B(  9-C , 12-C ) :   1.0869
B( 12-C , 13-H ) :   0.9698 B( 12-C , 14-H ) :   0.9736 B( 12-C , 15-H ) :   0.9709
B( 16-S , 17-C ) :   1.1371 B( 16-S , 20-C ) :   1.1611 B( 17-C , 18-C ) :   1.6300
B( 17-C , 33-H ) :   0.9627 B( 18-C , 19-C ) :   1.2263 B( 18-C , 21-H ) :   0.9877
B( 19-C , 20-C ) :   1.5667 B( 19-C , 22-C ) :   1.0597 B( 22-C , 23-H ) :   0.9280
B( 22-C , 24-H ) :   0.9126 B( 22-C , 25-C ) :   1.0776 B( 25-C , 26-H ) :   0.9508
B( 25-C , 27-H ) :   0.9533 B( 25-C , 28-C ) :   1.0744 B( 28-C , 29-H ) :   0.9738
B( 28-C , 30-H ) :   0.9746 B( 28-C , 31-H ) :   0.9753

Dispersion correction           -0.015227777
FINAL SINGLE POINT ENERGY     -1339.883517961829

DIPOLE MOMENT
-------------
                                X             Y             Z
Electronic contribution:     24.05854      -7.31441       0.94810
Nuclear contribution   :    -24.61692       7.49023      -1.03292
                        -----------------------------------------
Total Dipole Moment    :     -0.55838       0.17583      -0.08482
                        -----------------------------------------
Magnitude (a.u.)       :      0.59152
Magnitude (Debye)      :      1.50353

Rotational constants in cm-1:     0.019853     0.008278     0.007863
Rotational constants in MHz :   595.188207   248.153565   235.733242

                             ****ORCA TERMINATED NORMALLY****
TOTAL RUN TIME: 0 days 0 hours 0 minutes 29 seconds 440 msec
