                         Program Version 4.2.1 -  RELEASE  -
|  1> ! wB97X-D3 SP def2-SVP
|  2> %pal
|  3> nprocs 16
|  4> end
|  5>
|  6> * xyz 0 1
|  7> S 	 -111.283 	 52.4617 	 110.492
|  8> C 	 -110.214 	 53.0896 	 109.217
|  9> C 	 -110.349 	 54.4876 	 109.221
| 10> C 	 -110.933 	 55.0831 	 110.35
| 11> C 	 -111.498 	 54.0633 	 111.169
| 12> H 	 -111.016 	 56.1458 	 110.583
| 13> C 	 -109.564 	 55.3397 	 108.219
| 14> H 	 -108.539 	 54.937 	 108.147
| 15> H 	 -109.42 	 56.2813 	 108.675
| 16> C 	 -110.071 	 55.4281 	 106.763
| 17> H 	 -109.398 	 56.1008 	 106.219
| 18> H 	 -109.88 	 54.5082 	 106.219
| 19> C 	 -111.508 	 56.0042 	 106.696
| 20> H 	 -111.571 	 56.9741 	 107.307
| 21> H 	 -111.926 	 56.1685 	 105.721
| 22> H 	 -112.142 	 55.237 	 107.068
| 23> S 	 -113.853 	 55.1923 	 112.228
| 24> C 	 -114.172 	 55.0276 	 113.93
| 25> C 	 -113.24 	 54.1687 	 114.548
| 26> C 	 -112.244 	 53.7111 	 113.622
| 27> C 	 -112.35 	 54.2196 	 112.334
| 28> H 	 -113.312 	 53.8975 	 115.572
| 29> C 	 -111.192 	 52.777 	 114.009
| 30> H 	 -110.609 	 53.2151 	 114.808
| 31> H 	 -110.483 	 52.6699 	 113.243
| 32> C 	 -111.485 	 51.3817 	 114.547
| 33> H 	 -112.005 	 51.2979 	 115.482
| 34> H 	 -110.55 	 50.8152 	 114.782
| 35> C 	 -112.324 	 50.5959 	 113.518
| 36> H 	 -112.155 	 49.5176 	 113.81
| 37> H 	 -112.039 	 50.805 	 112.503
| 38> H 	 -113.372 	 50.8316 	 113.757
| 39> H 	 -109.704 	 52.6241 	 108.413
| 40> H 	 -114.949 	 55.4819 	 114.58
| 41> *
| 42>
| 43>                          ****END OF INPUT****

CARTESIAN COORDINATES (ANGSTROEM)
---------------------------------
  S    -111.283000   52.461700  110.492000
  C    -110.214000   53.089600  109.217000
  C    -110.349000   54.487600  109.221000
  C    -110.933000   55.083100  110.350000
  C    -111.498000   54.063300  111.169000
  H    -111.016000   56.145800  110.583000
  C    -109.564000   55.339700  108.219000
  H    -108.539000   54.937000  108.147000
  H    -109.420000   56.281300  108.675000
  C    -110.071000   55.428100  106.763000
  H    -109.398000   56.100800  106.219000
  H    -109.880000   54.508200  106.219000
  C    -111.508000   56.004200  106.696000
  H    -111.571000   56.974100  107.307000
  H    -111.926000   56.168500  105.721000
  H    -112.142000   55.237000  107.068000
  S    -113.853000   55.192300  112.228000
  C    -114.172000   55.027600  113.930000
  C    -113.240000   54.168700  114.548000
  C    -112.244000   53.711100  113.622000
  C    -112.350000   54.219600  112.334000
  H    -113.312000   53.897500  115.572000
  C    -111.192000   52.777000  114.009000
  H    -110.609000   53.215100  114.808000
  H    -110.483000   52.669900  113.243000
  C    -111.485000   51.381700  114.547000
  H    -112.005000   51.297900  115.482000
  H    -110.550000   50.815200  114.782000
  C    -112.324000   50.595900  113.518000
  H    -112.155000   49.517600  113.810000
  H    -112.039000   50.805000  112.503000
  H    -113.372000   50.831600  113.757000
  H    -109.704000   52.624100  108.413000
  H    -114.949000   55.481900  114.580000

 Total Charge           Charge          ....    0
 Multiplicity           Mult            ....    1
 Number of Electrons    NEL             ....  134
 Basis Dimension        Dim             ....  322

ORBITAL ENERGIES
----------------

  NO   OCC          E(Eh)            E(eV)
   0   2.0000     -88.974985     -2421.1324
   1   2.0000     -88.968324     -2420.9512
   2   2.0000     -10.336126      -281.2603
   3   2.0000     -10.326879      -281.0087
   4   2.0000     -10.324695      -280.9492
   5   2.0000     -10.315554      -280.7005
   6   2.0000     -10.301975      -280.3310
   7   2.0000     -10.301629      -280.3216
   8   2.0000     -10.301254      -280.3114
   9   2.0000     -10.294276      -280.1215
  10   2.0000     -10.288126      -279.9541
  11   2.0000     -10.287595      -279.9397
  12   2.0000     -10.281428      -279.7719
  13   2.0000     -10.276833      -279.6469
  14   2.0000     -10.274965      -279.5960
  15   2.0000     -10.270334      -279.4700
  16   2.0000      -8.087853      -220.0817
  17   2.0000      -8.082145      -219.9264
  18   2.0000      -6.046332      -164.5291
  19   2.0000      -6.042529      -164.4256
  20   2.0000      -6.040764      -164.3775
  21   2.0000      -6.038836      -164.3251
  22   2.0000      -6.036702      -164.2670
  23   2.0000      -6.032904      -164.1637
  24   2.0000      -1.003170       -27.2976
  25   2.0000      -0.980526       -26.6815
  26   2.0000      -0.911782       -24.8109
  27   2.0000      -0.907209       -24.6864
  28   2.0000      -0.865128       -23.5413
  29   2.0000      -0.848625       -23.0923
  30   2.0000      -0.845882       -23.0176
  31   2.0000      -0.811318       -22.0771
  32   2.0000      -0.782969       -21.3057
  33   2.0000      -0.769372       -20.9357
  34   2.0000      -0.709348       -19.3023
  35   2.0000      -0.704144       -19.1607
  36   2.0000      -0.691193       -18.8083
  37   2.0000      -0.659083       -17.9346
  38   2.0000      -0.637435       -17.3455
  39   2.0000      -0.610891       -16.6232
  40   2.0000      -0.594435       -16.1754
  41   2.0000      -0.572788       -15.5864
  42   2.0000      -0.551432       -15.0052
  43   2.0000      -0.550640       -14.9837
  44   2.0000      -0.542418       -14.7600
  45   2.0000      -0.540681       -14.7127
  46   2.0000      -0.520104       -14.1527
  47   2.0000      -0.512350       -13.9417
  48   2.0000      -0.504144       -13.7184
  49   2.0000      -0.494708       -13.4617
  50   2.0000      -0.484247       -13.1770
  51   2.0000      -0.478464       -13.0197
  52   2.0000      -0.467916       -12.7326
  53   2.0000      -0.466308       -12.6889
  54   2.0000      -0.462288       -12.5795
  55   2.0000      -0.447438       -12.1754
  56   2.0000      -0.442338       -12.0366
  57   2.0000      -0.436352       -11.8737
  58   2.0000      -0.428070       -11.6484
  59   2.0000      -0.424226       -11.5438
  60   2.0000      -0.412560       -11.2263
  61   2.0000      -0.409834       -11.1522
  62   2.0000      -0.405722       -11.0403
  63   2.0000      -0.337448        -9.1824
  64   2.0000      -0.333270        -9.0687
  65   2.0000      -0.327014        -8.8985
  66   2.0000      -0.294726        -8.0199
  67   0.0000       0.021090         0.5739
  68   0.0000       0.062894         1.7114
  69   0.0000       0.102945         2.8013
  70   0.0000       0.114096         3.1047
  71   0.0000       0.122281         3.3274

MULLIKEN ATOMIC CHARGES
-----------------------
   0 S :    0.118236
   1 C :   -0.081864
   2 C :   -0.101900
   3 C :    0.031578
   4 C :   -0.173644
   5 H :    0.029947
   6 C :    0.038702
   7 H :    0.032360
   8 H :    0.006347
   9 C :   -0.057826
  10 H :    0.022583
  11 H :    0.021937
  12 C :   -0.053149
  13 H :    0.043908
  14 H :    0.027811
  15 H :    0.036635
  16 S :    0.119231
  17 C :   -0.100186
  18 C :   -0.032070
  19 C :   -0.000605
  20 C :   -0.159322
  21 H :    0.010001
  22 C :    0.077993
  23 H :    0.020445
  24 H :    0.006514
  25 C :   -0.085180
  26 H :    0.013907
  27 H :    0.028843
  28 C :   -0.062424
  29 H :    0.033560
  30 H :    0.034602
  31 H :    0.042924
  32 H :    0.038323
  33 H :    0.071786
Sum of atomic charges:    0.0000000

LOEWDIN ATOMIC CHARGES
----------------------
   0 S :    0.432574
   1 C :   -0.195378
   2 C :   -0.060929
   3 C :   -0.060004
   4 C :   -0.187262
   5 H :    0.039445
   6 C :   -0.032236
   7 H :    0.036088
   8 H :    0.020319
   9 C :   -0.042362
  10 H :    0.023620
  11 H :    0.020865
  12 C :   -0.069027
  13 H :    0.036075
  14 H :    0.021685
  15 H :    0.023736
  16 S :    0.399538
  17 C :   -0.191704
  18 C :   -0.068847
  19 C :   -0.047229
  20 C :   -0.203126
  21 H :    0.026745
  22 C :   -0.041438
  23 H :    0.035233
  24 H :    0.018886
  25 C :   -0.040523
  26 H :    0.015482
  27 H :    0.027527
  28 C :   -0.069854
  29 H :    0.030939
  30 H :    0.005247
  31 H :    0.028705
  32 H :    0.024901
  33 H :    0.042309

  Mayer bond orders larger than 0.100000
B(  0-S ,  1-C ) :   1.1307 B(  0-S ,  4-C ) :   1.1772 B(  1-C ,  2-C ) :   1.5744
B(  1-C ,  4-C ) :   0.1137 B(  1-C , 32-H ) :   0.9736 B(  2-C ,  3-C ) :   1.2659
B(  2-C ,  6-C ) :   1.0174 B(  3-C ,  4-C ) :   1.5158 B(  3-C ,  5-H ) :   0.9945
B(  4-C , 20-C ) :   1.0572 B(  6-C ,  7-H ) :   0.9447 B(  6-C ,  8-H ) :   0.9469
B(  6-C ,  9-C ) :   1.0741 B(  9-C , 10-H ) :   0.9535 B(  9-C , 11-H ) :   0.9564
B(  9-C , 12-C ) :   1.0639 B( 12-C , 13-H ) :   0.9753 B( 12-C , 14-H ) :   0.9755
B( 12-C , 15-H ) :   0.9749 B( 16-S , 17-C ) :   1.1676 B( 16-S , 20-C ) :   1.1092
B( 17-C , 18-C ) :   1.5916 B( 17-C , 33-H ) :   0.9604 B( 18-C , 19-C ) :   1.2417
B( 18-C , 21-H ) :   0.9963 B( 19-C , 20-C ) :   1.5667 B( 19-C , 22-C ) :   1.0749
B( 22-C , 23-H ) :   0.9168 B( 22-C , 24-H ) :   0.9237 B( 22-C , 25-C ) :   1.0770
B( 25-C , 26-H ) :   0.9547 B( 25-C , 27-H ) :   0.9577 B( 25-C , 28-C ) :   1.0645
B( 28-C , 29-H ) :   0.9748 B( 28-C , 30-H ) :   0.9759 B( 28-C , 31-H ) :   0.9750

Dispersion correction           -0.015171642
FINAL SINGLE POINT ENERGY     -1339.865146438361

DIPOLE MOMENT
-------------
                                X             Y             Z
Electronic contribution:     -7.91635       2.75438       5.95286
Nuclear contribution   :      8.20107      -2.65133      -5.88341
                        -----------------------------------------
Total Dipole Moment    :      0.28472       0.10305       0.06945
                        -----------------------------------------
Magnitude (a.u.)       :      0.31065
Magnitude (Debye)      :      0.78962

Rotational constants in cm-1:     0.023879     0.008268     0.006715
Rotational constants in MHz :   715.881914   247.855430   201.297636

                             ****ORCA TERMINATED NORMALLY****
TOTAL RUN TIME: 0 days 0 hours 0 minutes 33 seconds 3 msec
