                         Program Version 4.2.1 -  RELEASE  -
|  1> ! wB97X-D3 SP def2-SVP
|  2> %pal
|  3> nprocs 16
|  4> end
|  5>
|  6> * xyz 0 1
|  7> S 	 -16.4437 	 35.3046 	 37.7051
|  8> C 	 -15.8058 	 34.5402 	 36.2168
|  9> C 	 -14.6102 	 35.1568 	 35.8473
| 10> C 	 -14.1277 	 35.8971 	 36.95
| 11> C 	 -14.9775 	 36.0897 	 38.0049
| 12> H 	 -13.0982 	 36.2177 	 36.9263
| 13> C 	 -13.7842 	 34.8069 	 34.6996
| 14> H 	 -12.9733 	 35.4767 	 34.7132
| 15> H 	 -14.4004 	 34.8718 	 33.7823
| 16> C 	 -13.2301 	 33.3937 	 34.7295
| 17> H 	 -14.0523 	 32.7124 	 34.5985
| 18> H 	 -12.4843 	 33.2764 	 33.9282
| 19> C 	 -12.4153 	 33.0837 	 35.96
| 20> H 	 -12.1313 	 31.9812 	 35.9351
| 21> H 	 -11.5007 	 33.5737 	 36.0639
| 22> H 	 -12.9855 	 33.1546 	 36.8689
| 23> S 	 -15.1805 	 38.4967 	 39.3202
| 24> C 	 -14.6723 	 38.6171 	 41.001
| 25> C 	 -13.9267 	 37.4796 	 41.3911
| 26> C 	 -13.8857 	 36.4706 	 40.3635
| 27> C 	 -14.6064 	 36.8428 	 39.2588
| 28> H 	 -13.5609 	 37.3725 	 42.3807
| 29> C 	 -13.1611 	 35.124 	 40.4611
| 30> H 	 -12.897 	 34.8437 	 39.4445
| 31> H 	 -13.8689 	 34.3644 	 40.9175
| 32> C 	 -11.8427 	 35.1999 	 41.2143
| 33> H 	 -11.9434 	 35.5421 	 42.191
| 34> H 	 -11.2886 	 35.9834 	 40.8158
| 35> C 	 -10.9513 	 33.9813 	 41.2034
| 36> H 	 -9.92314 	 34.3082 	 41.4886
| 37> H 	 -10.8623 	 33.5015 	 40.1887
| 38> H 	 -11.3036 	 33.2139 	 41.9425
| 39> H 	 -16.3367 	 34.0718 	 35.4909
| 40> H 	 -14.9024 	 39.4179 	 41.6601
| 41> *
| 42>
| 43>                          ****END OF INPUT****

CARTESIAN COORDINATES (ANGSTROEM)
---------------------------------
  S    -16.443700   35.304600   37.705100
  C    -15.805800   34.540200   36.216800
  C    -14.610200   35.156800   35.847300
  C    -14.127700   35.897100   36.950000
  C    -14.977500   36.089700   38.004900
  H    -13.098200   36.217700   36.926300
  C    -13.784200   34.806900   34.699600
  H    -12.973300   35.476700   34.713200
  H    -14.400400   34.871800   33.782300
  C    -13.230100   33.393700   34.729500
  H    -14.052300   32.712400   34.598500
  H    -12.484300   33.276400   33.928200
  C    -12.415300   33.083700   35.960000
  H    -12.131300   31.981200   35.935100
  H    -11.500700   33.573700   36.063900
  H    -12.985500   33.154600   36.868900
  S    -15.180500   38.496700   39.320200
  C    -14.672300   38.617100   41.001000
  C    -13.926700   37.479600   41.391100
  C    -13.885700   36.470600   40.363500
  C    -14.606400   36.842800   39.258800
  H    -13.560900   37.372500   42.380700
  C    -13.161100   35.124000   40.461100
  H    -12.897000   34.843700   39.444500
  H    -13.868900   34.364400   40.917500
  C    -11.842700   35.199900   41.214300
  H    -11.943400   35.542100   42.191000
  H    -11.288600   35.983400   40.815800
  C    -10.951300   33.981300   41.203400
  H     -9.923140   34.308200   41.488600
  H    -10.862300   33.501500   40.188700
  H    -11.303600   33.213900   41.942500
  H    -16.336700   34.071800   35.490900
  H    -14.902400   39.417900   41.660100

 Total Charge           Charge          ....    0
 Multiplicity           Mult            ....    1
 Number of Electrons    NEL             ....  134
 Basis Dimension        Dim             ....  322

ORBITAL ENERGIES
----------------

  NO   OCC          E(Eh)            E(eV)
   0   2.0000     -88.968168     -2420.9469
   1   2.0000     -88.965747     -2420.8810
   2   2.0000     -10.325765      -280.9783
   3   2.0000     -10.325650      -280.9752
   4   2.0000     -10.319468      -280.8070
   5   2.0000     -10.307262      -280.4749
   6   2.0000     -10.304152      -280.3902
   7   2.0000     -10.297027      -280.1963
   8   2.0000     -10.294472      -280.1268
   9   2.0000     -10.293671      -280.1050
  10   2.0000     -10.285866      -279.8926
  11   2.0000     -10.285855      -279.8923
  12   2.0000     -10.285708      -279.8883
  13   2.0000     -10.285500      -279.8827
  14   2.0000     -10.272007      -279.5155
  15   2.0000     -10.271474      -279.5010
  16   2.0000      -8.082934      -219.9478
  17   2.0000      -8.080260      -219.8751
  18   2.0000      -6.041440      -164.3959
  19   2.0000      -6.038711      -164.3217
  20   2.0000      -6.037314      -164.2837
  21   2.0000      -6.034856      -164.2168
  22   2.0000      -6.033795      -164.1879
  23   2.0000      -6.031043      -164.1130
  24   2.0000      -1.007959       -27.4280
  25   2.0000      -0.984778       -26.7972
  26   2.0000      -0.925495       -25.1840
  27   2.0000      -0.911791       -24.8111
  28   2.0000      -0.864402       -23.5216
  29   2.0000      -0.851288       -23.1647
  30   2.0000      -0.846902       -23.0454
  31   2.0000      -0.813382       -22.1333
  32   2.0000      -0.788238       -21.4490
  33   2.0000      -0.773367       -21.0444
  34   2.0000      -0.709807       -19.3148
  35   2.0000      -0.703888       -19.1538
  36   2.0000      -0.695379       -18.9222
  37   2.0000      -0.659026       -17.9330
  38   2.0000      -0.638321       -17.3696
  39   2.0000      -0.616464       -16.7748
  40   2.0000      -0.595388       -16.2013
  41   2.0000      -0.583777       -15.8854
  42   2.0000      -0.570295       -15.5185
  43   2.0000      -0.555409       -15.1135
  44   2.0000      -0.549317       -14.9477
  45   2.0000      -0.525515       -14.3000
  46   2.0000      -0.517579       -14.0840
  47   2.0000      -0.512713       -13.9516
  48   2.0000      -0.509588       -13.8666
  49   2.0000      -0.496997       -13.5240
  50   2.0000      -0.493343       -13.4245
  51   2.0000      -0.475340       -12.9347
  52   2.0000      -0.466673       -12.6988
  53   2.0000      -0.465647       -12.6709
  54   2.0000      -0.460709       -12.5365
  55   2.0000      -0.451497       -12.2858
  56   2.0000      -0.441441       -12.0122
  57   2.0000      -0.435512       -11.8509
  58   2.0000      -0.431151       -11.7322
  59   2.0000      -0.425959       -11.5909
  60   2.0000      -0.422002       -11.4833
  61   2.0000      -0.418356       -11.3840
  62   2.0000      -0.415774       -11.3138
  63   2.0000      -0.334270        -9.0959
  64   2.0000      -0.328168        -8.9299
  65   2.0000      -0.321392        -8.7455
  66   2.0000      -0.310861        -8.4590
  67   0.0000       0.041544         1.1305
  68   0.0000       0.053050         1.4436
  69   0.0000       0.110142         2.9971
  70   0.0000       0.118147         3.2149
  71   0.0000       0.126189         3.4338

MULLIKEN ATOMIC CHARGES
-----------------------
   0 S :    0.124889
   1 C :   -0.080534
   2 C :   -0.126215
   3 C :    0.028174
   4 C :   -0.144344
   5 H :    0.000867
   6 C :    0.105557
   7 H :    0.001581
   8 H :    0.036672
   9 C :   -0.055717
  10 H :    0.025917
  11 H :    0.031785
  12 C :   -0.065915
  13 H :    0.030322
  14 H :    0.019799
  15 H :    0.043500
  16 S :    0.116000
  17 C :   -0.084677
  18 C :   -0.038451
  19 C :   -0.028003
  20 C :   -0.194888
  21 H :    0.011464
  22 C :    0.108292
  23 H :    0.020207
  24 H :    0.052256
  25 C :   -0.063598
  26 H :    0.005956
  27 H :    0.005498
  28 C :   -0.063418
  29 H :    0.036995
  30 H :    0.036394
  31 H :    0.041856
  32 H :    0.012711
  33 H :    0.049070
Sum of atomic charges:   -0.0000000

LOEWDIN ATOMIC CHARGES
----------------------
   0 S :    0.428336
   1 C :   -0.179553
   2 C :   -0.057476
   3 C :   -0.067239
   4 C :   -0.221494
   5 H :    0.025354
   6 C :   -0.032098
   7 H :    0.023289
   8 H :    0.039556
   9 C :   -0.032413
  10 H :    0.021450
  11 H :    0.028957
  12 C :   -0.067416
  13 H :    0.035687
  14 H :    0.014726
  15 H :    0.022897
  16 S :    0.405660
  17 C :   -0.176674
  18 C :   -0.066241
  19 C :   -0.054845
  20 C :   -0.196695
  21 H :    0.025145
  22 C :   -0.025279
  23 H :    0.030224
  24 H :    0.040912
  25 C :   -0.047589
  26 H :    0.014547
  27 H :    0.019403
  28 C :   -0.066616
  29 H :    0.031377
  30 H :    0.028331
  31 H :    0.028633
  32 H :    0.004405
  33 H :    0.022738

  Mayer bond orders larger than 0.100000
B(  0-S ,  1-C ) :   1.1452 B(  0-S ,  4-C ) :   1.1712 B(  1-C ,  2-C ) :   1.5742
B(  1-C ,  4-C ) :   0.1006 B(  1-C , 32-H ) :   0.9702 B(  2-C ,  3-C ) :   1.2682
B(  2-C ,  6-C ) :   1.0521 B(  3-C ,  4-C ) :   1.5615 B(  3-C ,  5-H ) :   0.9919
B(  4-C , 20-C ) :   0.9767 B(  6-C ,  7-H ) :   0.9303 B(  6-C ,  8-H ) :   0.9255
B(  6-C ,  9-C ) :   1.0864 B(  9-C , 10-H ) :   0.9516 B(  9-C , 11-H ) :   0.9549
B(  9-C , 12-C ) :   1.0881 B( 12-C , 13-H ) :   0.9680 B( 12-C , 14-H ) :   0.9753
B( 12-C , 15-H ) :   0.9703 B( 16-S , 17-C ) :   1.1560 B( 16-S , 20-C ) :   1.1539
B( 17-C , 18-C ) :   1.6070 B( 17-C , 33-H ) :   0.9719 B( 18-C , 19-C ) :   1.2215
B( 18-C , 21-H ) :   0.9949 B( 19-C , 20-C ) :   1.6387 B( 19-C , 22-C ) :   1.0338
B( 22-C , 23-H ) :   0.9318 B( 22-C , 24-H ) :   0.9293 B( 22-C , 25-C ) :   1.0708
B( 25-C , 26-H ) :   0.9419 B( 25-C , 27-H ) :   0.9517 B( 25-C , 28-C ) :   1.0969
B( 28-C , 29-H ) :   0.9731 B( 28-C , 30-H ) :   0.9728 B( 28-C , 31-H ) :   0.9742

Dispersion correction           -0.014865832
FINAL SINGLE POINT ENERGY     -1339.864360263146

DIPOLE MOMENT
-------------
                                X             Y             Z
Electronic contribution:    -22.83378      18.74920       1.82551
Nuclear contribution   :     23.38542     -19.01874      -1.87272
                        -----------------------------------------
Total Dipole Moment    :      0.55165      -0.26954      -0.04721
                        -----------------------------------------
Magnitude (a.u.)       :      0.61579
Magnitude (Debye)      :      1.56520

Rotational constants in cm-1:     0.016919     0.009860     0.007037
Rotational constants in MHz :   507.233107   295.592396   210.953619

                             ****ORCA TERMINATED NORMALLY****
TOTAL RUN TIME: 0 days 0 hours 0 minutes 35 seconds 141 msec
