                         Program Version 4.2.1 -  RELEASE  -
|  1> ! wB97X-D3 SP def2-SVP
|  2> %pal
|  3> nprocs 16
|  4> end
|  5>
|  6> * xyz 0 1
|  7> S 	 59.3803 	 -8.96583 	 86.2808
|  8> C 	 59.15 	 -7.51536 	 87.2189
|  9> C 	 59.2376 	 -6.44097 	 86.3846
| 10> C 	 59.5462 	 -6.74341 	 85.0506
| 11> C 	 59.7773 	 -8.07598 	 84.8013
| 12> H 	 59.6133 	 -6.09874 	 84.1595
| 13> C 	 59.0156 	 -5.02794 	 86.9376
| 14> H 	 59.946 	 -4.73223 	 87.4992
| 15> H 	 58.2925 	 -5.03956 	 87.6565
| 16> C 	 58.8512 	 -3.81299 	 85.9541
| 17> H 	 58.8371 	 -2.88683 	 86.4906
| 18> H 	 59.7611 	 -3.79144 	 85.42
| 19> C 	 57.5696 	 -3.86739 	 85.162
| 20> H 	 56.7594 	 -4.48267 	 85.6742
| 21> H 	 57.1757 	 -2.92985 	 84.782
| 22> H 	 57.8128 	 -4.49849 	 84.2959
| 23> S 	 58.8005 	 -10.0612 	 83.1885
| 24> C 	 59.366 	 -10.2213 	 81.5065
| 25> C 	 60.4915 	 -9.41317 	 81.3133
| 26> C 	 60.7674 	 -8.60526 	 82.419
| 27> C 	 59.9785 	 -8.78592 	 83.5417
| 28> H 	 60.813 	 -9.3921 	 80.271
| 29> C 	 61.8818 	 -7.55866 	 82.2785
| 30> H 	 61.6353 	 -6.62483 	 82.8296
| 31> H 	 61.8596 	 -7.25601 	 81.1985
| 32> C 	 63.3792 	 -8.06544 	 82.6187
| 33> H 	 64.0271 	 -7.24221 	 82.7005
| 34> H 	 63.7762 	 -8.69174 	 81.8092
| 35> C 	 63.6531 	 -8.76648 	 84.0356
| 36> H 	 64.7282 	 -8.66593 	 84.2311
| 37> H 	 63.2785 	 -9.88119 	 83.9921
| 38> H 	 63.0749 	 -8.23327 	 84.761
| 39> H 	 58.93 	 -7.47547 	 88.257
| 40> H 	 59.0779 	 -10.8535 	 80.7182
| 41> *
| 42>
| 43>                          ****END OF INPUT****

CARTESIAN COORDINATES (ANGSTROEM)
---------------------------------
  S     59.380300   -8.965830   86.280800
  C     59.150000   -7.515360   87.218900
  C     59.237600   -6.440970   86.384600
  C     59.546200   -6.743410   85.050600
  C     59.777300   -8.075980   84.801300
  H     59.613300   -6.098740   84.159500
  C     59.015600   -5.027940   86.937600
  H     59.946000   -4.732230   87.499200
  H     58.292500   -5.039560   87.656500
  C     58.851200   -3.812990   85.954100
  H     58.837100   -2.886830   86.490600
  H     59.761100   -3.791440   85.420000
  C     57.569600   -3.867390   85.162000
  H     56.759400   -4.482670   85.674200
  H     57.175700   -2.929850   84.782000
  H     57.812800   -4.498490   84.295900
  S     58.800500  -10.061200   83.188500
  C     59.366000  -10.221300   81.506500
  C     60.491500   -9.413170   81.313300
  C     60.767400   -8.605260   82.419000
  C     59.978500   -8.785920   83.541700
  H     60.813000   -9.392100   80.271000
  C     61.881800   -7.558660   82.278500
  H     61.635300   -6.624830   82.829600
  H     61.859600   -7.256010   81.198500
  C     63.379200   -8.065440   82.618700
  H     64.027100   -7.242210   82.700500
  H     63.776200   -8.691740   81.809200
  C     63.653100   -8.766480   84.035600
  H     64.728200   -8.665930   84.231100
  H     63.278500   -9.881190   83.992100
  H     63.074900   -8.233270   84.761000
  H     58.930000   -7.475470   88.257000
  H     59.077900  -10.853500   80.718200

 Total Charge           Charge          ....    0
 Multiplicity           Mult            ....    1
 Number of Electrons    NEL             ....  134
 Basis Dimension        Dim             ....  322

ORBITAL ENERGIES
----------------

  NO   OCC          E(Eh)            E(eV)
   0   2.0000     -88.967806     -2420.9371
   1   2.0000     -88.964892     -2420.8578
   2   2.0000     -10.334470      -281.2152
   3   2.0000     -10.332460      -281.1605
   4   2.0000     -10.319522      -280.8085
   5   2.0000     -10.311633      -280.5938
   6   2.0000     -10.306250      -280.4473
   7   2.0000     -10.302361      -280.3415
   8   2.0000     -10.301605      -280.3209
   9   2.0000     -10.296899      -280.1929
  10   2.0000     -10.294571      -280.1295
  11   2.0000     -10.289683      -279.9965
  12   2.0000     -10.288550      -279.9657
  13   2.0000     -10.282608      -279.8040
  14   2.0000     -10.282511      -279.8013
  15   2.0000     -10.278490      -279.6919
  16   2.0000      -8.081515      -219.9092
  17   2.0000      -8.079513      -219.8547
  18   2.0000      -6.040157      -164.3610
  19   2.0000      -6.038042      -164.3035
  20   2.0000      -6.036059      -164.2495
  21   2.0000      -6.033972      -164.1927
  22   2.0000      -6.032257      -164.1460
  23   2.0000      -6.030308      -164.0930
  24   2.0000      -1.009474       -27.4692
  25   2.0000      -0.986673       -26.8487
  26   2.0000      -0.910289       -24.7702
  27   2.0000      -0.889781       -24.2122
  28   2.0000      -0.875646       -23.8275
  29   2.0000      -0.846196       -23.0262
  30   2.0000      -0.840454       -22.8699
  31   2.0000      -0.822647       -22.3854
  32   2.0000      -0.780521       -21.2391
  33   2.0000      -0.768895       -20.9227
  34   2.0000      -0.715971       -19.4826
  35   2.0000      -0.697156       -18.9706
  36   2.0000      -0.690051       -18.7772
  37   2.0000      -0.661703       -18.0059
  38   2.0000      -0.649846       -17.6832
  39   2.0000      -0.624074       -16.9819
  40   2.0000      -0.585673       -15.9370
  41   2.0000      -0.570687       -15.5292
  42   2.0000      -0.550490       -14.9796
  43   2.0000      -0.542217       -14.7545
  44   2.0000      -0.538834       -14.6624
  45   2.0000      -0.536410       -14.5965
  46   2.0000      -0.523394       -14.2423
  47   2.0000      -0.514192       -13.9919
  48   2.0000      -0.512034       -13.9331
  49   2.0000      -0.494197       -13.4478
  50   2.0000      -0.488272       -13.2865
  51   2.0000      -0.484515       -13.1843
  52   2.0000      -0.469787       -12.7835
  53   2.0000      -0.466616       -12.6973
  54   2.0000      -0.458611       -12.4794
  55   2.0000      -0.442392       -12.0381
  56   2.0000      -0.439570       -11.9613
  57   2.0000      -0.437466       -11.9041
  58   2.0000      -0.428200       -11.6519
  59   2.0000      -0.421463       -11.4686
  60   2.0000      -0.414858       -11.2889
  61   2.0000      -0.408036       -11.1032
  62   2.0000      -0.404896       -11.0178
  63   2.0000      -0.353551        -9.6206
  64   2.0000      -0.334074        -9.0906
  65   2.0000      -0.329736        -8.9726
  66   2.0000      -0.291628        -7.9356
  67   0.0000       0.024378         0.6634
  68   0.0000       0.062874         1.7109
  69   0.0000       0.107983         2.9384
  70   0.0000       0.122709         3.3391
  71   0.0000       0.134607         3.6628

MULLIKEN ATOMIC CHARGES
-----------------------
   0 S :    0.096075
   1 C :   -0.111315
   2 C :   -0.052354
   3 C :    0.014934
   4 C :   -0.152867
   5 H :    0.027195
   6 C :    0.040559
   7 H :    0.042625
   8 H :    0.003347
   9 C :   -0.039334
  10 H :    0.019161
  11 H :    0.020305
  12 C :   -0.063718
  13 H :    0.045783
  14 H :    0.039966
  15 H :    0.021812
  16 S :    0.100180
  17 C :   -0.077513
  18 C :   -0.060503
  19 C :   -0.025766
  20 C :   -0.131757
  21 H :    0.031833
  22 C :    0.041037
  23 H :    0.025455
  24 H :    0.029801
  25 C :   -0.069549
  26 H :    0.019555
  27 H :    0.033211
  28 C :   -0.089263
  29 H :    0.044472
  30 H :    0.060322
  31 H :    0.037049
  32 H :    0.039584
  33 H :    0.039680
Sum of atomic charges:   -0.0000000

LOEWDIN ATOMIC CHARGES
----------------------
   0 S :    0.399876
   1 C :   -0.188510
   2 C :   -0.066455
   3 C :   -0.071333
   4 C :   -0.183295
   5 H :    0.036745
   6 C :   -0.023764
   7 H :    0.042204
   8 H :    0.011306
   9 C :   -0.039482
  10 H :    0.023574
  11 H :    0.017533
  12 C :   -0.074943
  13 H :    0.036739
  14 H :    0.024241
  15 H :    0.025695
  16 S :    0.392779
  17 C :   -0.167115
  18 C :   -0.075441
  19 C :   -0.063885
  20 C :   -0.192950
  21 H :    0.038669
  22 C :   -0.033923
  23 H :    0.027612
  24 H :    0.035507
  25 C :   -0.037914
  26 H :    0.015760
  27 H :    0.022492
  28 C :   -0.069685
  29 H :    0.027763
  30 H :    0.038893
  31 H :    0.020699
  32 H :    0.027177
  33 H :    0.023430

  Mayer bond orders larger than 0.100000
B(  0-S ,  1-C ) :   1.1369 B(  0-S ,  4-C ) :   1.1536 B(  1-C ,  2-C ) :   1.5997
B(  1-C ,  4-C ) :   0.1073 B(  1-C , 32-H ) :   0.9815 B(  2-C ,  3-C ) :   1.2490
B(  2-C ,  6-C ) :   0.9965 B(  3-C ,  4-C ) :   1.5721 B(  3-C ,  5-H ) :   0.9825
B(  4-C , 20-C ) :   1.0368 B(  6-C ,  7-H ) :   0.9397 B(  6-C ,  8-H ) :   0.9456
B(  6-C ,  9-C ) :   1.0899 B(  9-C , 10-H ) :   0.9544 B(  9-C , 11-H ) :   0.9530
B(  9-C , 12-C ) :   1.0636 B( 12-C , 13-H ) :   0.9760 B( 12-C , 14-H ) :   0.9768
B( 12-C , 15-H ) :   0.9740 B( 16-S , 17-C ) :   1.1554 B( 16-S , 20-C ) :   1.1268
B( 17-C , 18-C ) :   1.6187 B( 17-C , 20-C ) :   0.1086 B( 17-C , 33-H ) :   0.9686
B( 18-C , 19-C ) :   1.2465 B( 18-C , 21-H ) :   0.9874 B( 19-C , 20-C ) :   1.5968
B( 19-C , 22-C ) :   1.0347 B( 22-C , 23-H ) :   0.9432 B( 22-C , 24-H ) :   0.9399
B( 22-C , 25-C ) :   1.0604 B( 25-C , 26-H ) :   0.9621 B( 25-C , 27-H ) :   0.9611
B( 25-C , 28-C ) :   1.0635 B( 28-C , 29-H ) :   0.9775 B( 28-C , 30-H ) :   0.9758
B( 28-C , 31-H ) :   0.9787

Dispersion correction           -0.014687202
FINAL SINGLE POINT ENERGY     -1339.854010214415

DIPOLE MOMENT
-------------
                                X             Y             Z
Electronic contribution:     -9.83140     -20.58570       1.43068
Nuclear contribution   :     10.00197      21.22013      -1.67821
                        -----------------------------------------
Total Dipole Moment    :      0.17056       0.63443      -0.24752
                        -----------------------------------------
Magnitude (a.u.)       :      0.70204
Magnitude (Debye)      :      1.78444

Rotational constants in cm-1:     0.018190     0.008650     0.007950
Rotational constants in MHz :   545.325004   259.320646   238.340433

                             ****ORCA TERMINATED NORMALLY****
TOTAL RUN TIME: 0 days 0 hours 0 minutes 30 seconds 841 msec
