                         Program Version 4.2.1 -  RELEASE  -
|  1> ! wB97X-D3 SP def2-SVP
|  2> %pal
|  3> nprocs 16
|  4> end
|  5>
|  6> * xyz 0 1
|  7> S 	 67.9922 	 23.5995 	 75.2192
|  8> C 	 68.9666 	 22.1798 	 74.7242
|  9> C 	 70.2813 	 22.536 	 74.4346
| 10> C 	 70.3219 	 23.9267 	 74.1965
| 11> C 	 69.1539 	 24.5702 	 74.3472
| 12> H 	 71.09 	 24.4194 	 73.757
| 13> C 	 71.5481 	 21.6535 	 74.2332
| 14> H 	 71.2154 	 20.6586 	 73.9542
| 15> H 	 72.1458 	 21.6912 	 75.166
| 16> C 	 72.5647 	 22.0428 	 73.1344
| 17> H 	 72.9492 	 23.0245 	 73.3293
| 18> H 	 73.5262 	 21.507 	 73.2474
| 19> C 	 71.9787 	 22.043 	 71.7257
| 20> H 	 71.2038 	 22.7746 	 71.5
| 21> H 	 72.8061 	 22.3356 	 71.139
| 22> H 	 71.5153 	 21.0575 	 71.5169
| 23> S 	 69.3971 	 26.3471 	 72.3087
| 24> C 	 69.1541 	 28.0864 	 72.6153
| 25> C 	 68.4898 	 28.305 	 73.7895
| 26> C 	 68.2839 	 27.0546 	 74.5144
| 27> C 	 68.8263 	 25.9227 	 73.904
| 28> H 	 68.2401 	 29.3131 	 74.0461
| 29> C 	 67.7017 	 27.036 	 75.9647
| 30> H 	 66.9614 	 26.2235 	 76.0139
| 31> H 	 67.042 	 27.9077 	 76.1356
| 32> C 	 68.715 	 26.8576 	 77.1035
| 33> H 	 69.3405 	 27.7667 	 77.2848
| 34> H 	 69.4181 	 26.1111 	 76.841
| 35> C 	 68.0842 	 26.5499 	 78.3946
| 36> H 	 67.7408 	 25.5561 	 78.3904
| 37> H 	 67.195 	 27.1313 	 78.5585
| 38> H 	 68.8734 	 26.6635 	 79.1478
| 39> H 	 68.8057 	 21.2137 	 75.0445
| 40> H 	 69.3651 	 28.79 	 71.8381
| 41> *
| 42>
| 43>                          ****END OF INPUT****

CARTESIAN COORDINATES (ANGSTROEM)
---------------------------------
  S     67.992200   23.599500   75.219200
  C     68.966600   22.179800   74.724200
  C     70.281300   22.536000   74.434600
  C     70.321900   23.926700   74.196500
  C     69.153900   24.570200   74.347200
  H     71.090000   24.419400   73.757000
  C     71.548100   21.653500   74.233200
  H     71.215400   20.658600   73.954200
  H     72.145800   21.691200   75.166000
  C     72.564700   22.042800   73.134400
  H     72.949200   23.024500   73.329300
  H     73.526200   21.507000   73.247400
  C     71.978700   22.043000   71.725700
  H     71.203800   22.774600   71.500000
  H     72.806100   22.335600   71.139000
  H     71.515300   21.057500   71.516900
  S     69.397100   26.347100   72.308700
  C     69.154100   28.086400   72.615300
  C     68.489800   28.305000   73.789500
  C     68.283900   27.054600   74.514400
  C     68.826300   25.922700   73.904000
  H     68.240100   29.313100   74.046100
  C     67.701700   27.036000   75.964700
  H     66.961400   26.223500   76.013900
  H     67.042000   27.907700   76.135600
  C     68.715000   26.857600   77.103500
  H     69.340500   27.766700   77.284800
  H     69.418100   26.111100   76.841000
  C     68.084200   26.549900   78.394600
  H     67.740800   25.556100   78.390400
  H     67.195000   27.131300   78.558500
  H     68.873400   26.663500   79.147800
  H     68.805700   21.213700   75.044500
  H     69.365100   28.790000   71.838100

 Total Charge           Charge          ....    0
 Multiplicity           Mult            ....    1
 Number of Electrons    NEL             ....  134
 Basis Dimension        Dim             ....  322

ORBITAL ENERGIES
----------------

  NO   OCC          E(Eh)            E(eV)
   0   2.0000     -88.966673     -2420.9063
   1   2.0000     -88.962941     -2420.8047
   2   2.0000     -10.328193      -281.0444
   3   2.0000     -10.327757      -281.0325
   4   2.0000     -10.317300      -280.7480
   5   2.0000     -10.310887      -280.5735
   6   2.0000     -10.309985      -280.5490
   7   2.0000     -10.306360      -280.4503
   8   2.0000     -10.301140      -280.3083
   9   2.0000     -10.298689      -280.2416
  10   2.0000     -10.293991      -280.1137
  11   2.0000     -10.288509      -279.9646
  12   2.0000     -10.280985      -279.7598
  13   2.0000     -10.274764      -279.5905
  14   2.0000     -10.274631      -279.5869
  15   2.0000     -10.263904      -279.2950
  16   2.0000      -8.080787      -219.8894
  17   2.0000      -8.077420      -219.7978
  18   2.0000      -6.039408      -164.3407
  19   2.0000      -6.035968      -164.2470
  20   2.0000      -6.035838      -164.2435
  21   2.0000      -6.031967      -164.1382
  22   2.0000      -6.031024      -164.1125
  23   2.0000      -6.028154      -164.0344
  24   2.0000      -1.009009       -27.4565
  25   2.0000      -0.982258       -26.7286
  26   2.0000      -0.911362       -24.7994
  27   2.0000      -0.909140       -24.7390
  28   2.0000      -0.872662       -23.7463
  29   2.0000      -0.852715       -23.2035
  30   2.0000      -0.843587       -22.9552
  31   2.0000      -0.819321       -22.2949
  32   2.0000      -0.786648       -21.4058
  33   2.0000      -0.769955       -20.9515
  34   2.0000      -0.709205       -19.2985
  35   2.0000      -0.699916       -19.0457
  36   2.0000      -0.690374       -18.7860
  37   2.0000      -0.667737       -18.1700
  38   2.0000      -0.640487       -17.4285
  39   2.0000      -0.627512       -17.0755
  40   2.0000      -0.594578       -16.1793
  41   2.0000      -0.568602       -15.4725
  42   2.0000      -0.564509       -15.3611
  43   2.0000      -0.558515       -15.1980
  44   2.0000      -0.534263       -14.5380
  45   2.0000      -0.532141       -14.4803
  46   2.0000      -0.519222       -14.1288
  47   2.0000      -0.517218       -14.0742
  48   2.0000      -0.507519       -13.8103
  49   2.0000      -0.498720       -13.5709
  50   2.0000      -0.491953       -13.3867
  51   2.0000      -0.478602       -13.0234
  52   2.0000      -0.471798       -12.8383
  53   2.0000      -0.464711       -12.6454
  54   2.0000      -0.458540       -12.4775
  55   2.0000      -0.451611       -12.2890
  56   2.0000      -0.444327       -12.0908
  57   2.0000      -0.435713       -11.8564
  58   2.0000      -0.434872       -11.8335
  59   2.0000      -0.422235       -11.4896
  60   2.0000      -0.415525       -11.3070
  61   2.0000      -0.411191       -11.1891
  62   2.0000      -0.406399       -11.0587
  63   2.0000      -0.348678        -9.4880
  64   2.0000      -0.334760        -9.1093
  65   2.0000      -0.329398        -8.9634
  66   2.0000      -0.289675        -7.8824
  67   0.0000       0.021661         0.5894
  68   0.0000       0.068860         1.8738
  69   0.0000       0.091705         2.4954
  70   0.0000       0.111914         3.0453
  71   0.0000       0.131404         3.5757

MULLIKEN ATOMIC CHARGES
-----------------------
   0 S :    0.094034
   1 C :   -0.068691
   2 C :   -0.101050
   3 C :    0.058296
   4 C :   -0.139402
   5 H :   -0.037279
   6 C :    0.078011
   7 H :    0.024731
   8 H :    0.051912
   9 C :   -0.103904
  10 H :    0.012613
  11 H :    0.032822
  12 C :   -0.032070
  13 H :    0.039122
  14 H :    0.028734
  15 H :    0.035820
  16 S :    0.084804
  17 C :   -0.103786
  18 C :   -0.004530
  19 C :   -0.033325
  20 C :   -0.123985
  21 H :    0.017998
  22 C :    0.022614
  23 H :    0.021304
  24 H :    0.019912
  25 C :   -0.057628
  26 H :    0.024532
  27 H :    0.023204
  28 C :   -0.001018
  29 H :    0.011504
  30 H :    0.020221
  31 H :    0.034786
  32 H :    0.014226
  33 H :    0.055469
Sum of atomic charges:   -0.0000000

LOEWDIN ATOMIC CHARGES
----------------------
   0 S :    0.383029
   1 C :   -0.171151
   2 C :   -0.048039
   3 C :   -0.056442
   4 C :   -0.178853
   5 H :    0.008856
   6 C :   -0.027879
   7 H :    0.027743
   8 H :    0.041396
   9 C :   -0.049369
  10 H :    0.016796
  11 H :    0.032433
  12 C :   -0.063668
  13 H :    0.028504
  14 H :    0.024727
  15 H :    0.028302
  16 S :    0.392717
  17 C :   -0.169229
  18 C :   -0.064015
  19 C :   -0.055668
  20 C :   -0.192629
  21 H :    0.033073
  22 C :   -0.039072
  23 H :    0.022915
  24 H :    0.030407
  25 C :   -0.044447
  26 H :    0.026455
  27 H :    0.018800
  28 C :   -0.056878
  29 H :    0.016912
  30 H :    0.022054
  31 H :    0.031794
  32 H :    0.006988
  33 H :    0.023439

  Mayer bond orders larger than 0.100000
B(  0-S ,  1-C ) :   1.1137 B(  0-S ,  4-C ) :   1.1243 B(  1-C ,  2-C ) :   1.6596
B(  1-C , 32-H ) :   0.9669 B(  2-C ,  3-C ) :   1.1959 B(  2-C ,  6-C ) :   1.0049
B(  3-C ,  4-C ) :   1.6152 B(  3-C ,  5-H ) :   1.0071 B(  4-C , 20-C ) :   1.0313
B(  6-C ,  7-H ) :   0.9486 B(  6-C ,  8-H ) :   0.9353 B(  6-C ,  9-C ) :   1.0858
B(  9-C , 10-H ) :   0.9426 B(  9-C , 11-H ) :   0.9515 B(  9-C , 12-C ) :   1.0751
B( 12-C , 13-H ) :   0.9719 B( 12-C , 14-H ) :   0.9722 B( 12-C , 15-H ) :   0.9767
B( 16-S , 17-C ) :   1.1451 B( 16-S , 20-C ) :   1.1362 B( 17-C , 18-C ) :   1.6192
B( 17-C , 33-H ) :   0.9698 B( 18-C , 19-C ) :   1.2247 B( 18-C , 21-H ) :   0.9993
B( 19-C , 20-C ) :   1.5934 B( 19-C , 22-C ) :   1.0334 B( 22-C , 23-H ) :   0.9437
B( 22-C , 24-H ) :   0.9331 B( 22-C , 25-C ) :   1.0587 B( 25-C , 26-H ) :   0.9537
B( 25-C , 27-H ) :   0.9532 B( 25-C , 28-C ) :   1.0899 B( 28-C , 29-H ) :   0.9689
B( 28-C , 30-H ) :   0.9714 B( 28-C , 31-H ) :   0.9713

Dispersion correction           -0.015053463
FINAL SINGLE POINT ENERGY     -1339.850235659215

DIPOLE MOMENT
-------------
                                X             Y             Z
Electronic contribution:     -9.51877       4.08000      -8.13243
Nuclear contribution   :      9.99431      -3.98217       8.29305
                        -----------------------------------------
Total Dipole Moment    :      0.47554       0.09783       0.16062
                        -----------------------------------------
Magnitude (a.u.)       :      0.51137
Magnitude (Debye)      :      1.29981

Rotational constants in cm-1:     0.018682     0.009717     0.007272
Rotational constants in MHz :   560.068984   291.322082   218.011455

                             ****ORCA TERMINATED NORMALLY****
TOTAL RUN TIME: 0 days 0 hours 0 minutes 29 seconds 370 msec
