                         Program Version 4.2.1 -  RELEASE  -
|  1> ! wB97X-D3 SP def2-SVP
|  2> %pal
|  3> nprocs 16
|  4> end
|  5>
|  6> * xyz 0 1
|  7> S 	 6.87888 	 -9.62375 	 70.1194
|  8> C 	 6.99192 	 -10.1784 	 68.4869
|  9> C 	 7.52026 	 -9.15815 	 67.6807
| 10> C 	 8.02054 	 -8.03449 	 68.4163
| 11> C 	 7.78546 	 -8.0955 	 69.7915
| 12> H 	 8.36977 	 -7.17303 	 67.896
| 13> C 	 7.78583 	 -9.22293 	 66.2547
| 14> H 	 7.98173 	 -10.2686 	 66.1534
| 15> H 	 8.71862 	 -8.79999 	 65.9053
| 16> C 	 6.75932 	 -8.59976 	 65.3345
| 17> H 	 6.65188 	 -7.54867 	 65.5746
| 18> H 	 7.10095 	 -8.71063 	 64.3052
| 19> C 	 5.3402 	 -9.21391 	 65.5629
| 20> H 	 4.56043 	 -8.71068 	 64.9836
| 21> H 	 5.28995 	 -10.2917 	 65.4023
| 22> H 	 4.92972 	 -8.97623 	 66.5073
| 23> S 	 9.40311 	 -7.34727 	 71.8354
| 24> C 	 8.99043 	 -5.95832 	 72.7326
| 25> C 	 7.86587 	 -5.28087 	 72.3109
| 26> C 	 7.33173 	 -5.97613 	 71.2084
| 27> C 	 8.07742 	 -7.08815 	 70.8313
| 28> H 	 7.52837 	 -4.32324 	 72.7155
| 29> C 	 6.16579 	 -5.48484 	 70.3704
| 30> H 	 5.94972 	 -6.23858 	 69.6098
| 31> H 	 6.54825 	 -4.70052 	 69.7386
| 32> C 	 4.89114 	 -4.88126 	 71.0453
| 33> H 	 4.03756 	 -4.6879 	 70.3612
| 34> H 	 5.22235 	 -4.02001 	 71.5324
| 35> C 	 4.39145 	 -5.77747 	 72.1447
| 36> H 	 5.22381 	 -6.04902 	 72.8611
| 37> H 	 4.20398 	 -6.72896 	 71.6815
| 38> H 	 3.49599 	 -5.47329 	 72.7274
| 39> H 	 6.5107 	 -11.0782 	 68.0849
| 40> H 	 9.54929 	 -5.7723 	 73.6138
| 41> *
| 42>
| 43>                          ****END OF INPUT****

CARTESIAN COORDINATES (ANGSTROEM)
---------------------------------
  S      6.878880   -9.623750   70.119400
  C      6.991920  -10.178400   68.486900
  C      7.520260   -9.158150   67.680700
  C      8.020540   -8.034490   68.416300
  C      7.785460   -8.095500   69.791500
  H      8.369770   -7.173030   67.896000
  C      7.785830   -9.222930   66.254700
  H      7.981730  -10.268600   66.153400
  H      8.718620   -8.799990   65.905300
  C      6.759320   -8.599760   65.334500
  H      6.651880   -7.548670   65.574600
  H      7.100950   -8.710630   64.305200
  C      5.340200   -9.213910   65.562900
  H      4.560430   -8.710680   64.983600
  H      5.289950  -10.291700   65.402300
  H      4.929720   -8.976230   66.507300
  S      9.403110   -7.347270   71.835400
  C      8.990430   -5.958320   72.732600
  C      7.865870   -5.280870   72.310900
  C      7.331730   -5.976130   71.208400
  C      8.077420   -7.088150   70.831300
  H      7.528370   -4.323240   72.715500
  C      6.165790   -5.484840   70.370400
  H      5.949720   -6.238580   69.609800
  H      6.548250   -4.700520   69.738600
  C      4.891140   -4.881260   71.045300
  H      4.037560   -4.687900   70.361200
  H      5.222350   -4.020010   71.532400
  C      4.391450   -5.777470   72.144700
  H      5.223810   -6.049020   72.861100
  H      4.203980   -6.728960   71.681500
  H      3.495990   -5.473290   72.727400
  H      6.510700  -11.078200   68.084900
  H      9.549290   -5.772300   73.613800

 Total Charge           Charge          ....    0
 Multiplicity           Mult            ....    1
 Number of Electrons    NEL             ....  134
 Basis Dimension        Dim             ....  322

ORBITAL ENERGIES
----------------

  NO   OCC          E(Eh)            E(eV)
   0   2.0000     -88.967651     -2420.9329
   1   2.0000     -88.965190     -2420.8659
   2   2.0000     -10.333813      -281.1973
   3   2.0000     -10.318408      -280.7782
   4   2.0000     -10.317159      -280.7442
   5   2.0000     -10.312490      -280.6171
   6   2.0000     -10.303068      -280.3607
   7   2.0000     -10.296016      -280.1688
   8   2.0000     -10.295302      -280.1494
   9   2.0000     -10.292614      -280.0763
  10   2.0000     -10.288460      -279.9632
  11   2.0000     -10.286312      -279.9048
  12   2.0000     -10.282737      -279.8075
  13   2.0000     -10.278719      -279.6982
  14   2.0000     -10.272137      -279.5191
  15   2.0000     -10.269859      -279.4571
  16   2.0000      -8.084620      -219.9937
  17   2.0000      -8.079183      -219.8457
  18   2.0000      -6.042620      -164.4281
  19   2.0000      -6.038828      -164.3249
  20   2.0000      -6.037734      -164.2951
  21   2.0000      -6.035766      -164.2415
  22   2.0000      -6.033661      -164.1843
  23   2.0000      -6.030071      -164.0866
  24   2.0000      -1.014817       -27.6146
  25   2.0000      -0.985790       -26.8247
  26   2.0000      -0.916008       -24.9258
  27   2.0000      -0.909934       -24.7606
  28   2.0000      -0.868469       -23.6322
  29   2.0000      -0.854461       -23.2511
  30   2.0000      -0.845059       -22.9952
  31   2.0000      -0.814968       -22.1764
  32   2.0000      -0.782809       -21.3013
  33   2.0000      -0.771039       -20.9810
  34   2.0000      -0.709230       -19.2991
  35   2.0000      -0.698520       -19.0077
  36   2.0000      -0.693893       -18.8818
  37   2.0000      -0.661587       -18.0027
  38   2.0000      -0.638460       -17.3734
  39   2.0000      -0.622806       -16.9474
  40   2.0000      -0.602617       -16.3981
  41   2.0000      -0.572895       -15.5893
  42   2.0000      -0.552063       -15.0224
  43   2.0000      -0.549247       -14.9458
  44   2.0000      -0.548856       -14.9351
  45   2.0000      -0.537401       -14.6234
  46   2.0000      -0.521823       -14.1995
  47   2.0000      -0.516516       -14.0551
  48   2.0000      -0.500439       -13.6176
  49   2.0000      -0.496148       -13.5009
  50   2.0000      -0.490402       -13.3445
  51   2.0000      -0.478825       -13.0295
  52   2.0000      -0.464098       -12.6287
  53   2.0000      -0.460734       -12.5372
  54   2.0000      -0.455515       -12.3952
  55   2.0000      -0.448595       -12.2069
  56   2.0000      -0.445043       -12.1102
  57   2.0000      -0.437878       -11.9153
  58   2.0000      -0.435029       -11.8377
  59   2.0000      -0.424666       -11.5558
  60   2.0000      -0.420543       -11.4436
  61   2.0000      -0.412272       -11.2185
  62   2.0000      -0.406620       -11.0647
  63   2.0000      -0.339782        -9.2459
  64   2.0000      -0.331650        -9.0246
  65   2.0000      -0.316173        -8.6035
  66   2.0000      -0.307986        -8.3807
  67   0.0000       0.042712         1.1623
  68   0.0000       0.053603         1.4586
  69   0.0000       0.114750         3.1225
  70   0.0000       0.124942         3.3998
  71   0.0000       0.128763         3.5038

MULLIKEN ATOMIC CHARGES
-----------------------
   0 S :    0.111727
   1 C :   -0.113199
   2 C :   -0.118475
   3 C :    0.061472
   4 C :   -0.161793
   5 H :    0.006365
   6 C :    0.054817
   7 H :    0.013456
   8 H :    0.017193
   9 C :   -0.036530
  10 H :    0.023582
  11 H :    0.036307
  12 C :   -0.058527
  13 H :    0.020959
  14 H :    0.032224
  15 H :    0.024851
  16 S :    0.145873
  17 C :   -0.090869
  18 C :   -0.024477
  19 C :   -0.030887
  20 C :   -0.199447
  21 H :    0.030289
  22 C :    0.058971
  23 H :    0.025839
  24 H :    0.030520
  25 C :   -0.037076
  26 H :    0.043702
  27 H :    0.010928
  28 C :   -0.081421
  29 H :    0.037669
  30 H :    0.017632
  31 H :    0.043050
  32 H :    0.060838
  33 H :    0.044436
Sum of atomic charges:   -0.0000000

LOEWDIN ATOMIC CHARGES
----------------------
   0 S :    0.396782
   1 C :   -0.206132
   2 C :   -0.067924
   3 C :   -0.052043
   4 C :   -0.184463
   5 H :    0.027664
   6 C :   -0.044177
   7 H :    0.030108
   8 H :    0.031168
   9 C :   -0.029592
  10 H :    0.024646
  11 H :    0.025804
  12 C :   -0.071574
  13 H :    0.026675
  14 H :    0.022377
  15 H :    0.020825
  16 S :    0.469068
  17 C :   -0.185353
  18 C :   -0.072915
  19 C :   -0.048657
  20 C :   -0.240549
  21 H :    0.038782
  22 C :   -0.034167
  23 H :    0.030096
  24 H :    0.033910
  25 C :   -0.037544
  26 H :    0.034304
  27 H :    0.011523
  28 C :   -0.077971
  29 H :    0.030628
  30 H :    0.020329
  31 H :    0.026670
  32 H :    0.035107
  33 H :    0.016596

  Mayer bond orders larger than 0.100000
B(  0-S ,  1-C ) :   1.1530 B(  0-S ,  4-C ) :   1.1455 B(  1-C ,  2-C ) :   1.5780
B(  1-C ,  4-C ) :   0.1018 B(  1-C , 32-H ) :   0.9620 B(  2-C ,  3-C ) :   1.2655
B(  2-C ,  6-C ) :   1.0256 B(  3-C ,  4-C ) :   1.5628 B(  3-C ,  5-H ) :   0.9954
B(  4-C , 20-C ) :   1.0038 B(  6-C ,  7-H ) :   0.9416 B(  6-C ,  8-H ) :   0.9439
B(  6-C ,  9-C ) :   1.0670 B(  9-C , 10-H ) :   0.9520 B(  9-C , 11-H ) :   0.9582
B(  9-C , 12-C ) :   1.0788 B( 12-C , 13-H ) :   0.9708 B( 12-C , 14-H ) :   0.9790
B( 12-C , 15-H ) :   0.9689 B( 16-S , 17-C ) :   1.2062 B( 16-S , 20-C ) :   1.1793
B( 17-C , 18-C ) :   1.5553 B( 17-C , 33-H ) :   0.9705 B( 18-C , 19-C ) :   1.2684
B( 18-C , 21-H ) :   0.9949 B( 19-C , 20-C ) :   1.5740 B( 19-C , 22-C ) :   1.0361
B( 22-C , 23-H ) :   0.9286 B( 22-C , 24-H ) :   0.9355 B( 22-C , 25-C ) :   1.0632
B( 25-C , 26-H ) :   0.9563 B( 25-C , 27-H ) :   0.9513 B( 25-C , 28-C ) :   1.0881
B( 28-C , 29-H ) :   0.9646 B( 28-C , 30-H ) :   0.9739 B( 28-C , 31-H ) :   0.9748

Dispersion correction           -0.015238404
FINAL SINGLE POINT ENERGY     -1339.870485312349

DIPOLE MOMENT
-------------
                                X             Y             Z
Electronic contribution:     17.07480      -7.01597      15.28627
Nuclear contribution   :    -17.21266       7.39170     -15.65885
                        -----------------------------------------
Total Dipole Moment    :     -0.13785       0.37573      -0.37258
                        -----------------------------------------
Magnitude (a.u.)       :      0.54680
Magnitude (Debye)      :      1.38986

Rotational constants in cm-1:     0.020612     0.008508     0.007215
Rotational constants in MHz :   617.925428   255.076559   216.302748

                             ****ORCA TERMINATED NORMALLY****
TOTAL RUN TIME: 0 days 0 hours 0 minutes 35 seconds 838 msec
