                         Program Version 4.2.1 -  RELEASE  -
|  1> ! wB97X-D3 SP def2-SVP
|  2> %pal
|  3> nprocs 16
|  4> end
|  5>
|  6> * xyz 0 1
|  7> S 	 -67.2232 	 38.3431 	 116.254
|  8> C 	 -67.6572 	 37.3344 	 117.588
|  9> C 	 -68.3658 	 36.2369 	 117.149
| 10> C 	 -68.6778 	 36.2958 	 115.776
| 11> C 	 -68.022 	 37.3444 	 115.125
| 12> H 	 -69.2113 	 35.69 	 115.026
| 13> C 	 -68.7673 	 35.0684 	 118.033
| 14> H 	 -69.8146 	 35.1468 	 118.253
| 15> H 	 -68.3158 	 35.2548 	 119.008
| 16> C 	 -68.4925 	 33.6606 	 117.402
| 17> H 	 -68.675 	 32.9154 	 118.137
| 18> H 	 -69.2173 	 33.4861 	 116.634
| 19> C 	 -67.0874 	 33.5217 	 116.838
| 20> H 	 -66.3491 	 34.134 	 117.375
| 21> H 	 -66.7642 	 32.5088 	 116.627
| 22> H 	 -67.1477 	 34.0296 	 115.89
| 23> S 	 -68.9668 	 39.1708 	 113.447
| 24> C 	 -68.6899 	 39.0595 	 111.757
| 25> C 	 -68.2113 	 37.8447 	 111.43
| 26> C 	 -67.9335 	 36.9907 	 112.568
| 27> C 	 -68.2885 	 37.6204 	 113.722
| 28> H 	 -67.8342 	 37.7412 	 110.463
| 29> C 	 -67.2584 	 35.6639 	 112.457
| 30> H 	 -67.6149 	 35.189 	 111.541
| 31> H 	 -67.5879 	 34.9518 	 113.247
| 32> C 	 -65.7017 	 35.6388 	 112.361
| 33> H 	 -65.3484 	 36.3728 	 111.615
| 34> H 	 -65.4747 	 34.663 	 111.987
| 35> C 	 -65.1255 	 35.8844 	 113.769
| 36> H 	 -65.7547 	 35.4818 	 114.629
| 37> H 	 -65.0191 	 36.9733 	 113.924
| 38> H 	 -64.1619 	 35.3401 	 113.722
| 39> H 	 -67.363 	 37.4911 	 118.559
| 40> H 	 -68.9813 	 39.8306 	 111.08
| 41> *
| 42>
| 43>                          ****END OF INPUT****

CARTESIAN COORDINATES (ANGSTROEM)
---------------------------------
  S    -67.223200   38.343100  116.254000
  C    -67.657200   37.334400  117.588000
  C    -68.365800   36.236900  117.149000
  C    -68.677800   36.295800  115.776000
  C    -68.022000   37.344400  115.125000
  H    -69.211300   35.690000  115.026000
  C    -68.767300   35.068400  118.033000
  H    -69.814600   35.146800  118.253000
  H    -68.315800   35.254800  119.008000
  C    -68.492500   33.660600  117.402000
  H    -68.675000   32.915400  118.137000
  H    -69.217300   33.486100  116.634000
  C    -67.087400   33.521700  116.838000
  H    -66.349100   34.134000  117.375000
  H    -66.764200   32.508800  116.627000
  H    -67.147700   34.029600  115.890000
  S    -68.966800   39.170800  113.447000
  C    -68.689900   39.059500  111.757000
  C    -68.211300   37.844700  111.430000
  C    -67.933500   36.990700  112.568000
  C    -68.288500   37.620400  113.722000
  H    -67.834200   37.741200  110.463000
  C    -67.258400   35.663900  112.457000
  H    -67.614900   35.189000  111.541000
  H    -67.587900   34.951800  113.247000
  C    -65.701700   35.638800  112.361000
  H    -65.348400   36.372800  111.615000
  H    -65.474700   34.663000  111.987000
  C    -65.125500   35.884400  113.769000
  H    -65.754700   35.481800  114.629000
  H    -65.019100   36.973300  113.924000
  H    -64.161900   35.340100  113.722000
  H    -67.363000   37.491100  118.559000
  H    -68.981300   39.830600  111.080000

 Total Charge           Charge          ....    0
 Multiplicity           Mult            ....    1
 Number of Electrons    NEL             ....  134
 Basis Dimension        Dim             ....  322

ORBITAL ENERGIES
----------------

  NO   OCC          E(Eh)            E(eV)
   0   2.0000     -88.968638     -2420.9597
   1   2.0000     -88.958256     -2420.6772
   2   2.0000     -10.322725      -280.8956
   3   2.0000     -10.318439      -280.7790
   4   2.0000     -10.308176      -280.4997
   5   2.0000     -10.306674      -280.4588
   6   2.0000     -10.301263      -280.3116
   7   2.0000     -10.300615      -280.2940
   8   2.0000     -10.290865      -280.0287
   9   2.0000     -10.290425      -280.0167
  10   2.0000     -10.289886      -280.0020
  11   2.0000     -10.285646      -279.8867
  12   2.0000     -10.285456      -279.8815
  13   2.0000     -10.283527      -279.8290
  14   2.0000     -10.277939      -279.6769
  15   2.0000     -10.271761      -279.5088
  16   2.0000      -8.083997      -219.9767
  17   2.0000      -8.074933      -219.7301
  18   2.0000      -6.042420      -164.4226
  19   2.0000      -6.038211      -164.3081
  20   2.0000      -6.035014      -164.2211
  21   2.0000      -6.033313      -164.1748
  22   2.0000      -6.029132      -164.0610
  23   2.0000      -6.025734      -163.9686
  24   2.0000      -1.017800       -27.6958
  25   2.0000      -0.994032       -27.0490
  26   2.0000      -0.912053       -24.8182
  27   2.0000      -0.907418       -24.6921
  28   2.0000      -0.876008       -23.8374
  29   2.0000      -0.850131       -23.1332
  30   2.0000      -0.844525       -22.9807
  31   2.0000      -0.819431       -22.2978
  32   2.0000      -0.782999       -21.3065
  33   2.0000      -0.772482       -21.0203
  34   2.0000      -0.709557       -19.3080
  35   2.0000      -0.700980       -19.0746
  36   2.0000      -0.694266       -18.8919
  37   2.0000      -0.662676       -18.0323
  38   2.0000      -0.646933       -17.6040
  39   2.0000      -0.616447       -16.7744
  40   2.0000      -0.600267       -16.3341
  41   2.0000      -0.569911       -15.5081
  42   2.0000      -0.554514       -15.0891
  43   2.0000      -0.550952       -14.9922
  44   2.0000      -0.542558       -14.7637
  45   2.0000      -0.536845       -14.6083
  46   2.0000      -0.523153       -14.2357
  47   2.0000      -0.507720       -13.8158
  48   2.0000      -0.504122       -13.7179
  49   2.0000      -0.502774       -13.6812
  50   2.0000      -0.487711       -13.2713
  51   2.0000      -0.483687       -13.1618
  52   2.0000      -0.473147       -12.8750
  53   2.0000      -0.467320       -12.7164
  54   2.0000      -0.458833       -12.4855
  55   2.0000      -0.443850       -12.0778
  56   2.0000      -0.440742       -11.9932
  57   2.0000      -0.437671       -11.9096
  58   2.0000      -0.433774       -11.8036
  59   2.0000      -0.425116       -11.5680
  60   2.0000      -0.419018       -11.4021
  61   2.0000      -0.413685       -11.2569
  62   2.0000      -0.408497       -11.1158
  63   2.0000      -0.344855        -9.3840
  64   2.0000      -0.332044        -9.0354
  65   2.0000      -0.325912        -8.8685
  66   2.0000      -0.298941        -8.1346
  67   0.0000       0.039012         1.0616
  68   0.0000       0.074503         2.0273
  69   0.0000       0.116298         3.1646
  70   0.0000       0.124694         3.3931
  71   0.0000       0.132370         3.6020

MULLIKEN ATOMIC CHARGES
-----------------------
   0 S :    0.133670
   1 C :   -0.097438
   2 C :   -0.084559
   3 C :    0.000723
   4 C :   -0.163753
   5 H :    0.026622
   6 C :    0.105821
   7 H :    0.031697
   8 H :    0.008225
   9 C :   -0.069965
  10 H :    0.023218
  11 H :    0.025605
  12 C :   -0.029523
  13 H :    0.035550
  14 H :    0.036791
  15 H :    0.018023
  16 S :    0.104278
  17 C :   -0.091583
  18 C :   -0.005124
  19 C :   -0.015511
  20 C :   -0.191113
  21 H :    0.001400
  22 C :    0.024662
  23 H :    0.013731
  24 H :    0.024196
  25 C :   -0.045619
  26 H :    0.033220
  27 H :    0.021765
  28 C :   -0.079634
  29 H :    0.054723
  30 H :    0.046576
  31 H :    0.039164
  32 H :    0.013225
  33 H :    0.050940
Sum of atomic charges:   -0.0000000

LOEWDIN ATOMIC CHARGES
----------------------
   0 S :    0.440292
   1 C :   -0.195720
   2 C :   -0.062029
   3 C :   -0.070400
   4 C :   -0.214773
   5 H :    0.037848
   6 C :   -0.026485
   7 H :    0.032018
   8 H :    0.026664
   9 C :   -0.033987
  10 H :    0.019710
  11 H :    0.021108
  12 C :   -0.067519
  13 H :    0.029714
  14 H :    0.026168
  15 H :    0.021721
  16 S :    0.425044
  17 C :   -0.184797
  18 C :   -0.068280
  19 C :   -0.057755
  20 C :   -0.206627
  21 H :    0.022599
  22 C :   -0.038548
  23 H :    0.028506
  24 H :    0.029939
  25 C :   -0.033296
  26 H :    0.027314
  27 H :    0.017904
  28 C :   -0.074601
  29 H :    0.032323
  30 H :    0.028742
  31 H :    0.029644
  32 H :    0.011746
  33 H :    0.025813

  Mayer bond orders larger than 0.100000
B(  0-S ,  1-C ) :   1.1477 B(  0-S ,  4-C ) :   1.1758 B(  1-C ,  2-C ) :   1.5858
B(  1-C , 32-H ) :   0.9802 B(  2-C ,  3-C ) :   1.2294 B(  2-C ,  6-C ) :   1.0211
B(  3-C ,  4-C ) :   1.5544 B(  3-C ,  5-H ) :   0.9904 B(  4-C , 20-C ) :   1.0185
B(  6-C ,  7-H ) :   0.9339 B(  6-C ,  8-H ) :   0.9368 B(  6-C ,  9-C ) :   1.0695
B(  9-C , 10-H ) :   0.9576 B(  9-C , 11-H ) :   0.9537 B(  9-C , 12-C ) :   1.0812
B( 12-C , 13-H ) :   0.9756 B( 12-C , 14-H ) :   0.9687 B( 12-C , 15-H ) :   0.9636
B( 16-S , 17-C ) :   1.1528 B( 16-S , 20-C ) :   1.1552 B( 17-C , 18-C ) :   1.6365
B( 17-C , 33-H ) :   0.9693 B( 18-C , 19-C ) :   1.2171 B( 18-C , 21-H ) :   0.9941
B( 19-C , 20-C ) :   1.6222 B( 19-C , 22-C ) :   1.0501 B( 22-C , 23-H ) :   0.9240
B( 22-C , 24-H ) :   0.9395 B( 22-C , 25-C ) :   1.0808 B( 25-C , 26-H ) :   0.9543
B( 25-C , 27-H ) :   0.9586 B( 25-C , 28-C ) :   1.0596 B( 28-C , 29-H ) :   0.9719
B( 28-C , 30-H ) :   0.9746 B( 28-C , 31-H ) :   0.9738

Dispersion correction           -0.017104570
FINAL SINGLE POINT ENERGY     -1339.877806756986

DIPOLE MOMENT
-------------
                                X             Y             Z
Electronic contribution:     -8.95198      24.31486      -2.04729
Nuclear contribution   :      9.04440     -24.80195       1.91464
                        -----------------------------------------
Total Dipole Moment    :      0.09241      -0.48709      -0.13265
                        -----------------------------------------
Magnitude (a.u.)       :      0.51322
Magnitude (Debye)      :      1.30450

Rotational constants in cm-1:     0.020269     0.010412     0.008375
Rotational constants in MHz :   607.657342   312.142944   251.086562

                             ****ORCA TERMINATED NORMALLY****
TOTAL RUN TIME: 0 days 0 hours 0 minutes 32 seconds 313 msec
