                         Program Version 4.2.1 -  RELEASE  -
|  1> ! wB97X-D3 SP def2-SVP
|  2> %pal
|  3> nprocs 16
|  4> end
|  5>
|  6> * xyz 0 1
|  7> S 	 -6.36862 	 70.9359 	 53.5384
|  8> C 	 -6.62983 	 69.3785 	 54.1591
|  9> C 	 -7.69149 	 68.709 	 53.6212
| 10> C 	 -8.37851 	 69.6239 	 52.7541
| 11> C 	 -7.85329 	 70.8568 	 52.6209
| 12> H 	 -9.29456 	 69.4989 	 52.1295
| 13> C 	 -8.20881 	 67.28 	 53.8601
| 14> H 	 -7.7021 	 66.4411 	 53.2644
| 15> H 	 -9.27759 	 67.2322 	 53.5613
| 16> C 	 -8.12046 	 66.7622 	 55.3034
| 17> H 	 -7.1668 	 66.9554 	 55.7599
| 18> H 	 -8.76255 	 67.3284 	 56.0294
| 19> C 	 -8.46069 	 65.2218 	 55.5119
| 20> H 	 -8.39478 	 65.036 	 56.5664
| 21> H 	 -9.48396 	 65.1114 	 55.2277
| 22> H 	 -7.93045 	 64.4226 	 54.903
| 23> S 	 -8.85966 	 73.3983 	 52.9073
| 24> C 	 -9.38478 	 74.3403 	 51.4985
| 25> C 	 -9.16144 	 73.6301 	 50.3372
| 26> C 	 -8.55469 	 72.3055 	 50.5378
| 27> C 	 -8.31254 	 72.0308 	 51.9117
| 28> H 	 -9.38742 	 74.0778 	 49.3645
| 29> C 	 -8.22955 	 71.419 	 49.3699
| 30> H 	 -8.89174 	 71.3512 	 48.5449
| 31> H 	 -8.22823 	 70.4338 	 49.7239
| 32> C 	 -6.83917 	 71.8158 	 48.714
| 33> H 	 -6.0126 	 71.4826 	 49.2496
| 34> H 	 -6.84657 	 72.9267 	 48.7522
| 35> C 	 -6.5585 	 71.3648 	 47.2803
| 36> H 	 -5.56789 	 71.5783 	 46.9015
| 37> H 	 -7.34659 	 71.797 	 46.6551
| 38> H 	 -6.71459 	 70.3123 	 47.1349
| 39> H 	 -5.96405 	 68.8696 	 54.877
| 40> H 	 -9.78741 	 75.3911 	 51.4635
| 41> *
| 42>
| 43>                          ****END OF INPUT****

CARTESIAN COORDINATES (ANGSTROEM)
---------------------------------
  S     -6.368620   70.935900   53.538400
  C     -6.629830   69.378500   54.159100
  C     -7.691490   68.709000   53.621200
  C     -8.378510   69.623900   52.754100
  C     -7.853290   70.856800   52.620900
  H     -9.294560   69.498900   52.129500
  C     -8.208810   67.280000   53.860100
  H     -7.702100   66.441100   53.264400
  H     -9.277590   67.232200   53.561300
  C     -8.120460   66.762200   55.303400
  H     -7.166800   66.955400   55.759900
  H     -8.762550   67.328400   56.029400
  C     -8.460690   65.221800   55.511900
  H     -8.394780   65.036000   56.566400
  H     -9.483960   65.111400   55.227700
  H     -7.930450   64.422600   54.903000
  S     -8.859660   73.398300   52.907300
  C     -9.384780   74.340300   51.498500
  C     -9.161440   73.630100   50.337200
  C     -8.554690   72.305500   50.537800
  C     -8.312540   72.030800   51.911700
  H     -9.387420   74.077800   49.364500
  C     -8.229550   71.419000   49.369900
  H     -8.891740   71.351200   48.544900
  H     -8.228230   70.433800   49.723900
  C     -6.839170   71.815800   48.714000
  H     -6.012600   71.482600   49.249600
  H     -6.846570   72.926700   48.752200
  C     -6.558500   71.364800   47.280300
  H     -5.567890   71.578300   46.901500
  H     -7.346590   71.797000   46.655100
  H     -6.714590   70.312300   47.134900
  H     -5.964050   68.869600   54.877000
  H     -9.787410   75.391100   51.463500

 Total Charge           Charge          ....    0
 Multiplicity           Mult            ....    1
 Number of Electrons    NEL             ....  134
 Basis Dimension        Dim             ....  322

ORBITAL ENERGIES
----------------

  NO   OCC          E(Eh)            E(eV)
   0   2.0000     -88.965879     -2420.8846
   1   2.0000     -88.964253     -2420.8404
   2   2.0000     -10.333415      -281.1865
   3   2.0000     -10.324954      -280.9563
   4   2.0000     -10.322814      -280.8980
   5   2.0000     -10.314181      -280.6631
   6   2.0000     -10.313681      -280.6495
   7   2.0000     -10.306067      -280.4423
   8   2.0000     -10.304959      -280.4122
   9   2.0000     -10.298630      -280.2400
  10   2.0000     -10.294622      -280.1309
  11   2.0000     -10.293164      -280.0912
  12   2.0000     -10.286969      -279.9227
  13   2.0000     -10.283957      -279.8407
  14   2.0000     -10.281549      -279.7752
  15   2.0000     -10.274139      -279.5735
  16   2.0000      -8.080362      -219.8778
  17   2.0000      -8.079715      -219.8602
  18   2.0000      -6.038725      -164.3221
  19   2.0000      -6.038450      -164.3146
  20   2.0000      -6.034714      -164.2129
  21   2.0000      -6.034247      -164.2002
  22   2.0000      -6.031135      -164.1155
  23   2.0000      -6.030363      -164.0945
  24   2.0000      -1.011873       -27.5345
  25   2.0000      -0.980137       -26.6709
  26   2.0000      -0.905731       -24.6462
  27   2.0000      -0.904063       -24.6008
  28   2.0000      -0.870947       -23.6997
  29   2.0000      -0.850488       -23.1430
  30   2.0000      -0.845550       -23.0086
  31   2.0000      -0.815880       -22.2012
  32   2.0000      -0.783710       -21.3258
  33   2.0000      -0.770905       -20.9774
  34   2.0000      -0.706732       -19.2311
  35   2.0000      -0.703185       -19.1346
  36   2.0000      -0.693389       -18.8681
  37   2.0000      -0.657978       -17.9045
  38   2.0000      -0.646355       -17.5882
  39   2.0000      -0.614074       -16.7098
  40   2.0000      -0.596278       -16.2256
  41   2.0000      -0.571794       -15.5593
  42   2.0000      -0.563999       -15.3472
  43   2.0000      -0.551681       -15.0120
  44   2.0000      -0.520800       -14.1717
  45   2.0000      -0.519168       -14.1273
  46   2.0000      -0.516281       -14.0487
  47   2.0000      -0.513154       -13.9636
  48   2.0000      -0.509320       -13.8593
  49   2.0000      -0.500187       -13.6108
  50   2.0000      -0.491920       -13.3858
  51   2.0000      -0.480751       -13.0819
  52   2.0000      -0.476079       -12.9548
  53   2.0000      -0.461203       -12.5500
  54   2.0000      -0.456714       -12.4278
  55   2.0000      -0.446062       -12.1380
  56   2.0000      -0.441353       -12.0098
  57   2.0000      -0.436863       -11.8877
  58   2.0000      -0.427605       -11.6357
  59   2.0000      -0.426595       -11.6082
  60   2.0000      -0.424292       -11.5456
  61   2.0000      -0.415338       -11.3019
  62   2.0000      -0.414145       -11.2694
  63   2.0000      -0.343996        -9.3606
  64   2.0000      -0.329510        -8.9664
  65   2.0000      -0.326532        -8.8854
  66   2.0000      -0.304318        -8.2809
  67   0.0000       0.036710         0.9989
  68   0.0000       0.064199         1.7469
  69   0.0000       0.116710         3.1758
  70   0.0000       0.119211         3.2439
  71   0.0000       0.124875         3.3980

MULLIKEN ATOMIC CHARGES
-----------------------
   0 S :    0.125777
   1 C :   -0.128414
   2 C :   -0.055923
   3 C :    0.034620
   4 C :   -0.200759
   5 H :    0.021668
   6 C :    0.067548
   7 H :    0.052463
   8 H :    0.033518
   9 C :   -0.121480
  10 H :    0.019858
  11 H :    0.033601
  12 C :   -0.057395
  13 H :    0.035072
  14 H :    0.022746
  15 H :    0.045630
  16 S :    0.107129
  17 C :   -0.110296
  18 C :   -0.039177
  19 C :   -0.035143
  20 C :   -0.160202
  21 H :    0.027124
  22 C :    0.124729
  23 H :    0.007470
  24 H :    0.001248
  25 C :   -0.078712
  26 H :    0.021046
  27 H :    0.031292
  28 C :   -0.042176
  29 H :    0.041007
  30 H :    0.021024
  31 H :    0.020263
  32 H :    0.054066
  33 H :    0.080780
Sum of atomic charges:   -0.0000000

LOEWDIN ATOMIC CHARGES
----------------------
   0 S :    0.427503
   1 C :   -0.204328
   2 C :   -0.072203
   3 C :   -0.059824
   4 C :   -0.210054
   5 H :    0.039503
   6 C :   -0.037154
   7 H :    0.042948
   8 H :    0.034460
   9 C :   -0.046800
  10 H :    0.014260
  11 H :    0.029783
  12 C :   -0.068534
  13 H :    0.026199
  14 H :    0.019626
  15 H :    0.031883
  16 S :    0.390767
  17 C :   -0.190578
  18 C :   -0.075284
  19 C :   -0.043308
  20 C :   -0.198109
  21 H :    0.033175
  22 C :   -0.027492
  23 H :    0.025874
  24 H :    0.022927
  25 C :   -0.031282
  26 H :    0.014931
  27 H :    0.026486
  28 C :   -0.067356
  29 H :    0.028585
  30 H :    0.022767
  31 H :    0.021100
  32 H :    0.032453
  33 H :    0.047077

  Mayer bond orders larger than 0.100000
B(  0-S ,  1-C ) :   1.1619 B(  0-S ,  4-C ) :   1.1357 B(  1-C ,  2-C ) :   1.6280
B(  1-C , 32-H ) :   0.9589 B(  2-C ,  3-C ) :   1.2180 B(  2-C ,  6-C ) :   1.0076
B(  3-C ,  4-C ) :   1.6442 B(  3-C ,  5-H ) :   0.9847 B(  4-C , 20-C ) :   1.0155
B(  6-C ,  7-H ) :   0.9387 B(  6-C ,  8-H ) :   0.9476 B(  6-C ,  9-C ) :   1.0524
B(  9-C , 10-H ) :   0.9592 B(  9-C , 11-H ) :   0.9543 B(  9-C , 12-C ) :   1.0748
B( 12-C , 13-H ) :   0.9751 B( 12-C , 14-H ) :   0.9773 B( 12-C , 15-H ) :   0.9757
B( 16-S , 17-C ) :   1.1392 B( 16-S , 20-C ) :   1.1363 B( 17-C , 18-C ) :   1.6369
B( 17-C , 33-H ) :   0.9580 B( 18-C , 19-C ) :   1.2155 B( 18-C , 21-H ) :   0.9832
B( 19-C , 20-C ) :   1.5958 B( 19-C , 22-C ) :   1.0665 B( 22-C , 23-H ) :   0.9419
B( 22-C , 24-H ) :   0.9168 B( 22-C , 25-C ) :   1.0388 B( 25-C , 26-H ) :   0.9575
B( 25-C , 27-H ) :   0.9648 B( 25-C , 28-C ) :   1.0834 B( 28-C , 29-H ) :   0.9744
B( 28-C , 30-H ) :   0.9736 B( 28-C , 31-H ) :   0.9729

Dispersion correction           -0.013355414
FINAL SINGLE POINT ENERGY     -1339.869665162986

DIPOLE MOMENT
-------------
                                X             Y             Z
Electronic contribution:      0.13464      21.36180       9.70606
Nuclear contribution   :     -0.29587     -21.77863     -10.04859
                        -----------------------------------------
Total Dipole Moment    :     -0.16123      -0.41684      -0.34254
                        -----------------------------------------
Magnitude (a.u.)       :      0.56310
Magnitude (Debye)      :      1.43128

Rotational constants in cm-1:     0.020373     0.006906     0.005927
Rotational constants in MHz :   610.779273   207.037345   177.693212

                             ****ORCA TERMINATED NORMALLY****
TOTAL RUN TIME: 0 days 0 hours 0 minutes 32 seconds 867 msec
