                         Program Version 4.2.1 -  RELEASE  -
|  1> ! wB97X-D3 SP def2-SVP
|  2> %pal
|  3> nprocs 16
|  4> end
|  5>
|  6> * xyz 0 1
|  7> S 	 -14.4742 	 35.4024 	 34.4001
|  8> C 	 -13.2647 	 34.2283 	 34.4538
|  9> C 	 -13.1159 	 33.7507 	 35.7202
| 10> C 	 -13.8472 	 34.4665 	 36.7039
| 11> C 	 -14.8069 	 35.2611 	 36.1517
| 12> H 	 -13.6936 	 34.3475 	 37.7332
| 13> C 	 -11.9514 	 32.8678 	 36.2457
| 14> H 	 -11.535 	 33.2465 	 37.1813
| 15> H 	 -11.0948 	 32.9815 	 35.6025
| 16> C 	 -12.2424 	 31.4293 	 36.3615
| 17> H 	 -12.5253 	 31.1087 	 35.3304
| 18> H 	 -11.3718 	 30.9257 	 36.7499
| 19> C 	 -13.2567 	 30.9819 	 37.4477
| 20> H 	 -14.2123 	 31.552 	 37.2731
| 21> H 	 -13.522 	 29.9331 	 37.3427
| 22> H 	 -12.9679 	 31.1917 	 38.47
| 23> S 	 -16.8773 	 37.0168 	 35.6643
| 24> C 	 -17.6808 	 37.7483 	 37.0669
| 25> C 	 -17.1074 	 37.3988 	 38.2482
| 26> C 	 -16.2094 	 36.321 	 38.1091
| 27> C 	 -15.7995 	 36.1236 	 36.7706
| 28> H 	 -17.4252 	 37.8424 	 39.1542
| 29> C 	 -15.5649 	 35.833 	 39.4091
| 30> H 	 -15.5646 	 36.5828 	 40.1717
| 31> H 	 -14.4942 	 35.613 	 39.2424
| 32> C 	 -16.2269 	 34.5909 	 39.9676
| 33> H 	 -16.1029 	 33.7004 	 39.3731
| 34> H 	 -17.2721 	 34.7379 	 40.1029
| 35> C 	 -15.7787 	 34.1923 	 41.3386
| 36> H 	 -16.1431 	 33.2132 	 41.5665
| 37> H 	 -16.1146 	 34.9012 	 42.0848
| 38> H 	 -14.7755 	 34.2598 	 41.4427
| 39> H 	 -12.5421 	 34.0032 	 33.6626
| 40> H 	 -18.4859 	 38.4798 	 36.9109
| 41> *
| 42>
| 43>                          ****END OF INPUT****

CARTESIAN COORDINATES (ANGSTROEM)
---------------------------------
  S    -14.474200   35.402400   34.400100
  C    -13.264700   34.228300   34.453800
  C    -13.115900   33.750700   35.720200
  C    -13.847200   34.466500   36.703900
  C    -14.806900   35.261100   36.151700
  H    -13.693600   34.347500   37.733200
  C    -11.951400   32.867800   36.245700
  H    -11.535000   33.246500   37.181300
  H    -11.094800   32.981500   35.602500
  C    -12.242400   31.429300   36.361500
  H    -12.525300   31.108700   35.330400
  H    -11.371800   30.925700   36.749900
  C    -13.256700   30.981900   37.447700
  H    -14.212300   31.552000   37.273100
  H    -13.522000   29.933100   37.342700
  H    -12.967900   31.191700   38.470000
  S    -16.877300   37.016800   35.664300
  C    -17.680800   37.748300   37.066900
  C    -17.107400   37.398800   38.248200
  C    -16.209400   36.321000   38.109100
  C    -15.799500   36.123600   36.770600
  H    -17.425200   37.842400   39.154200
  C    -15.564900   35.833000   39.409100
  H    -15.564600   36.582800   40.171700
  H    -14.494200   35.613000   39.242400
  C    -16.226900   34.590900   39.967600
  H    -16.102900   33.700400   39.373100
  H    -17.272100   34.737900   40.102900
  C    -15.778700   34.192300   41.338600
  H    -16.143100   33.213200   41.566500
  H    -16.114600   34.901200   42.084800
  H    -14.775500   34.259800   41.442700
  H    -12.542100   34.003200   33.662600
  H    -18.485900   38.479800   36.910900

 Total Charge           Charge          ....    0
 Multiplicity           Mult            ....    1
 Number of Electrons    NEL             ....  134
 Basis Dimension        Dim             ....  322

ORBITAL ENERGIES
----------------

  NO   OCC          E(Eh)            E(eV)
   0   2.0000     -88.966128     -2420.8914
   1   2.0000     -88.965001     -2420.8607
   2   2.0000     -10.335294      -281.2376
   3   2.0000     -10.331611      -281.1374
   4   2.0000     -10.319129      -280.7978
   5   2.0000     -10.311936      -280.6021
   6   2.0000     -10.306774      -280.4616
   7   2.0000     -10.295845      -280.1642
   8   2.0000     -10.294263      -280.1211
   9   2.0000     -10.290262      -280.0123
  10   2.0000     -10.287914      -279.9484
  11   2.0000     -10.286145      -279.9002
  12   2.0000     -10.282449      -279.7997
  13   2.0000     -10.277186      -279.6564
  14   2.0000     -10.275371      -279.6070
  15   2.0000     -10.263073      -279.2724
  16   2.0000      -8.080523      -219.8822
  17   2.0000      -8.080230      -219.8742
  18   2.0000      -6.039124      -164.3329
  19   2.0000      -6.038787      -164.3238
  20   2.0000      -6.034976      -164.2200
  21   2.0000      -6.034926      -164.2187
  22   2.0000      -6.031129      -164.1154
  23   2.0000      -6.030841      -164.1075
  24   2.0000      -1.011253       -27.5176
  25   2.0000      -0.987682       -26.8762
  26   2.0000      -0.918182       -24.9850
  27   2.0000      -0.913348       -24.8535
  28   2.0000      -0.874584       -23.7987
  29   2.0000      -0.860045       -23.4030
  30   2.0000      -0.846426       -23.0324
  31   2.0000      -0.816738       -22.2246
  32   2.0000      -0.786729       -21.4080
  33   2.0000      -0.775042       -21.0900
  34   2.0000      -0.708830       -19.2882
  35   2.0000      -0.696446       -18.9513
  36   2.0000      -0.692055       -18.8318
  37   2.0000      -0.669432       -18.2162
  38   2.0000      -0.641277       -17.4500
  39   2.0000      -0.624198       -16.9853
  40   2.0000      -0.601682       -16.3726
  41   2.0000      -0.578432       -15.7399
  42   2.0000      -0.572720       -15.5845
  43   2.0000      -0.549526       -14.9534
  44   2.0000      -0.543671       -14.7940
  45   2.0000      -0.537205       -14.6181
  46   2.0000      -0.519150       -14.1268
  47   2.0000      -0.511724       -13.9247
  48   2.0000      -0.509475       -13.8635
  49   2.0000      -0.502673       -13.6784
  50   2.0000      -0.494166       -13.4469
  51   2.0000      -0.485307       -13.2059
  52   2.0000      -0.473378       -12.8813
  53   2.0000      -0.464926       -12.6513
  54   2.0000      -0.454313       -12.3625
  55   2.0000      -0.453635       -12.3440
  56   2.0000      -0.444009       -12.0821
  57   2.0000      -0.441415       -12.0115
  58   2.0000      -0.434724       -11.8294
  59   2.0000      -0.425421       -11.5763
  60   2.0000      -0.416279       -11.3275
  61   2.0000      -0.413448       -11.2505
  62   2.0000      -0.397808       -10.8249
  63   2.0000      -0.368625       -10.0308
  64   2.0000      -0.339580        -9.2404
  65   2.0000      -0.328266        -8.9326
  66   2.0000      -0.278402        -7.5757
  67   0.0000       0.015626         0.4252
  68   0.0000       0.077996         2.1224
  69   0.0000       0.096435         2.6241
  70   0.0000       0.117779         3.2049
  71   0.0000       0.127241         3.4624

MULLIKEN ATOMIC CHARGES
-----------------------
   0 S :    0.092998
   1 C :   -0.103063
   2 C :   -0.078553
   3 C :   -0.015214
   4 C :   -0.066427
   5 H :   -0.011412
   6 C :    0.053729
   7 H :    0.012212
   8 H :    0.011836
   9 C :   -0.051996
  10 H :    0.032899
  11 H :    0.024771
  12 C :   -0.078648
  13 H :    0.034544
  14 H :    0.039399
  15 H :    0.027504
  16 S :    0.080654
  17 C :   -0.090863
  18 C :   -0.002906
  19 C :   -0.038569
  20 C :   -0.104280
  21 H :    0.009183
  22 C :    0.033470
  23 H :    0.012436
  24 H :    0.024203
  25 C :   -0.068470
  26 H :    0.029100
  27 H :    0.016751
  28 C :    0.017373
  29 H :    0.030757
  30 H :    0.012837
  31 H :   -0.009522
  32 H :    0.058928
  33 H :    0.064340
Sum of atomic charges:    0.0000000

LOEWDIN ATOMIC CHARGES
----------------------
   0 S :    0.408138
   1 C :   -0.212304
   2 C :   -0.067915
   3 C :   -0.058393
   4 C :   -0.171168
   5 H :    0.020343
   6 C :   -0.032827
   7 H :    0.026437
   8 H :    0.026984
   9 C :   -0.044017
  10 H :    0.028894
  11 H :    0.023793
  12 C :   -0.071848
  13 H :    0.026578
  14 H :    0.027405
  15 H :    0.020490
  16 S :    0.374810
  17 C :   -0.169499
  18 C :   -0.064454
  19 C :   -0.051102
  20 C :   -0.177407
  21 H :    0.028693
  22 C :   -0.026062
  23 H :    0.026194
  24 H :    0.028537
  25 C :   -0.038953
  26 H :    0.024018
  27 H :    0.021394
  28 C :   -0.051998
  29 H :    0.027384
  30 H :    0.022835
  31 H :    0.006063
  32 H :    0.037991
  33 H :    0.030966

  Mayer bond orders larger than 0.100000
B(  0-S ,  1-C ) :   1.1490 B(  0-S ,  4-C ) :   1.1302 B(  1-C ,  2-C ) :   1.6219
B(  1-C , 32-H ) :   0.9619 B(  2-C ,  3-C ) :   1.2483 B(  2-C ,  6-C ) :   1.0021
B(  3-C ,  4-C ) :   1.5626 B(  3-C ,  5-H ) :   1.0020 B(  4-C , 20-C ) :   1.1000
B(  6-C ,  7-H ) :   0.9462 B(  6-C ,  8-H ) :   0.9418 B(  6-C ,  9-C ) :   1.0898
B(  9-C , 10-H ) :   0.9537 B(  9-C , 11-H ) :   0.9516 B(  9-C , 12-C ) :   1.0750
B( 12-C , 13-H ) :   0.9739 B( 12-C , 14-H ) :   0.9743 B( 12-C , 15-H ) :   0.9751
B( 16-S , 17-C ) :   1.1430 B( 16-S , 20-C ) :   1.1259 B( 17-C , 18-C ) :   1.6179
B( 17-C , 20-C ) :   0.1025 B( 17-C , 33-H ) :   0.9651 B( 18-C , 19-C ) :   1.2297
B( 18-C , 21-H ) :   0.9938 B( 19-C , 20-C ) :   1.5832 B( 19-C , 22-C ) :   1.0389
B( 22-C , 23-H ) :   0.9445 B( 22-C , 24-H ) :   0.9369 B( 22-C , 25-C ) :   1.0631
B( 25-C , 26-H ) :   0.9552 B( 25-C , 27-H ) :   0.9536 B( 25-C , 28-C ) :   1.0944
B( 28-C , 29-H ) :   0.9726 B( 28-C , 30-H ) :   0.9691 B( 28-C , 31-H ) :   0.9665

Dispersion correction           -0.014111797
FINAL SINGLE POINT ENERGY     -1339.861271665005

DIPOLE MOMENT
-------------
                                X             Y             Z
Electronic contribution:     -8.94214      19.92286     -23.46503
Nuclear contribution   :      9.25172     -20.01215      24.11841
                        -----------------------------------------
Total Dipole Moment    :      0.30958      -0.08928       0.65339
                        -----------------------------------------
Magnitude (a.u.)       :      0.72851
Magnitude (Debye)      :      1.85172

Rotational constants in cm-1:     0.016402     0.010356     0.006667
Rotational constants in MHz :   491.711152   310.477981   199.864465

                             ****ORCA TERMINATED NORMALLY****
TOTAL RUN TIME: 0 days 0 hours 0 minutes 34 seconds 966 msec
