                         Program Version 4.2.1 -  RELEASE  -
|  1> ! wB97X-D3 SP def2-SVP
|  2> %pal
|  3> nprocs 16
|  4> end
|  5>
|  6> * xyz 0 1
|  7> S 	 -47.2373 	 31.3779 	 90.7561
|  8> C 	 -48.1607 	 29.8955 	 90.686
|  9> C 	 -48.6851 	 29.8295 	 89.4305
| 10> C 	 -48.4169 	 31.0461 	 88.6605
| 11> C 	 -47.7389 	 32.0232 	 89.301
| 12> H 	 -48.8665 	 31.2602 	 87.6691
| 13> C 	 -49.7546 	 28.8744 	 88.9735
| 14> H 	 -49.4914 	 27.8775 	 89.4634
| 15> H 	 -49.6344 	 28.6944 	 87.914
| 16> C 	 -51.1257 	 29.2611 	 89.4745
| 17> H 	 -51.1883 	 29.3979 	 90.5483
| 18> H 	 -51.5349 	 30.2224 	 89.1084
| 19> C 	 -52.354 	 28.3303 	 89.2181
| 20> H 	 -52.1255 	 27.4156 	 89.7213
| 21> H 	 -53.1587 	 28.6381 	 89.8305
| 22> H 	 -52.8166 	 28.2147 	 88.1773
| 23> S 	 -45.8487 	 33.9787 	 89.4777
| 24> C 	 -46.1191 	 35.6097 	 88.8673
| 25> C 	 -47.3886 	 35.68 	 88.258
| 26> C 	 -48.0272 	 34.3622 	 88.1423
| 27> C 	 -47.4097 	 33.3901 	 88.9015
| 28> H 	 -47.7793 	 36.6063 	 87.8621
| 29> C 	 -49.4154 	 34.2866 	 87.4685
| 30> H 	 -49.3114 	 33.2796 	 86.9816
| 31> H 	 -49.5017 	 35.1169 	 86.8363
| 32> C 	 -50.6784 	 34.0699 	 88.3847
| 33> H 	 -50.8057 	 34.8196 	 89.1873
| 34> H 	 -50.5244 	 33.1918 	 88.9487
| 35> C 	 -51.9964 	 33.6807 	 87.5821
| 36> H 	 -51.9676 	 32.7913 	 86.9079
| 37> H 	 -52.4096 	 34.5251 	 86.9531
| 38> H 	 -52.8146 	 33.5489 	 88.2582
| 39> H 	 -48.3471 	 29.2474 	 91.5303
| 40> H 	 -45.371 	 36.3914 	 88.9616
| 41> *
| 42>
| 43>                          ****END OF INPUT****

CARTESIAN COORDINATES (ANGSTROEM)
---------------------------------
  S    -47.237300   31.377900   90.756100
  C    -48.160700   29.895500   90.686000
  C    -48.685100   29.829500   89.430500
  C    -48.416900   31.046100   88.660500
  C    -47.738900   32.023200   89.301000
  H    -48.866500   31.260200   87.669100
  C    -49.754600   28.874400   88.973500
  H    -49.491400   27.877500   89.463400
  H    -49.634400   28.694400   87.914000
  C    -51.125700   29.261100   89.474500
  H    -51.188300   29.397900   90.548300
  H    -51.534900   30.222400   89.108400
  C    -52.354000   28.330300   89.218100
  H    -52.125500   27.415600   89.721300
  H    -53.158700   28.638100   89.830500
  H    -52.816600   28.214700   88.177300
  S    -45.848700   33.978700   89.477700
  C    -46.119100   35.609700   88.867300
  C    -47.388600   35.680000   88.258000
  C    -48.027200   34.362200   88.142300
  C    -47.409700   33.390100   88.901500
  H    -47.779300   36.606300   87.862100
  C    -49.415400   34.286600   87.468500
  H    -49.311400   33.279600   86.981600
  H    -49.501700   35.116900   86.836300
  C    -50.678400   34.069900   88.384700
  H    -50.805700   34.819600   89.187300
  H    -50.524400   33.191800   88.948700
  C    -51.996400   33.680700   87.582100
  H    -51.967600   32.791300   86.907900
  H    -52.409600   34.525100   86.953100
  H    -52.814600   33.548900   88.258200
  H    -48.347100   29.247400   91.530300
  H    -45.371000   36.391400   88.961600

 Total Charge           Charge          ....    0
 Multiplicity           Mult            ....    1
 Number of Electrons    NEL             ....  134
 Basis Dimension        Dim             ....  322

ORBITAL ENERGIES
----------------

  NO   OCC          E(Eh)            E(eV)
   0   2.0000     -88.965478     -2420.8737
   1   2.0000     -88.959248     -2420.7042
   2   2.0000     -10.333706      -281.1944
   3   2.0000     -10.326980      -281.0114
   4   2.0000     -10.325780      -280.9788
   5   2.0000     -10.315152      -280.6895
   6   2.0000     -10.311475      -280.5895
   7   2.0000     -10.303561      -280.3742
   8   2.0000     -10.303451      -280.3712
   9   2.0000     -10.298395      -280.2336
  10   2.0000     -10.298201      -280.2283
  11   2.0000     -10.293365      -280.0967
  12   2.0000     -10.292226      -280.0657
  13   2.0000     -10.291273      -280.0398
  14   2.0000     -10.287860      -279.9469
  15   2.0000     -10.279159      -279.7101
  16   2.0000      -8.079940      -219.8664
  17   2.0000      -8.076153      -219.7633
  18   2.0000      -6.038598      -164.3186
  19   2.0000      -6.034713      -164.2129
  20   2.0000      -6.034355      -164.2032
  21   2.0000      -6.030687      -164.1033
  22   2.0000      -6.030162      -164.0891
  23   2.0000      -6.026855      -163.9991
  24   2.0000      -1.018714       -27.7206
  25   2.0000      -0.985458       -26.8157
  26   2.0000      -0.915895       -24.9228
  27   2.0000      -0.899485       -24.4762
  28   2.0000      -0.873107       -23.7584
  29   2.0000      -0.847814       -23.0702
  30   2.0000      -0.841641       -22.9022
  31   2.0000      -0.818873       -22.2827
  32   2.0000      -0.783671       -21.3248
  33   2.0000      -0.775905       -21.1134
  34   2.0000      -0.711096       -19.3499
  35   2.0000      -0.703117       -19.1328
  36   2.0000      -0.694547       -18.8996
  37   2.0000      -0.670604       -18.2481
  38   2.0000      -0.645003       -17.5514
  39   2.0000      -0.619452       -16.8561
  40   2.0000      -0.588398       -16.0111
  41   2.0000      -0.571596       -15.5539
  42   2.0000      -0.566415       -15.4129
  43   2.0000      -0.557290       -15.1646
  44   2.0000      -0.530525       -14.4363
  45   2.0000      -0.523132       -14.2351
  46   2.0000      -0.519367       -14.1327
  47   2.0000      -0.516274       -14.0485
  48   2.0000      -0.511113       -13.9081
  49   2.0000      -0.505456       -13.7542
  50   2.0000      -0.491394       -13.3715
  51   2.0000      -0.486819       -13.2470
  52   2.0000      -0.474477       -12.9112
  53   2.0000      -0.465110       -12.6563
  54   2.0000      -0.462304       -12.5799
  55   2.0000      -0.448404       -12.2017
  56   2.0000      -0.443957       -12.0807
  57   2.0000      -0.436060       -11.8658
  58   2.0000      -0.431018       -11.7286
  59   2.0000      -0.420407       -11.4398
  60   2.0000      -0.416706       -11.3391
  61   2.0000      -0.409469       -11.1422
  62   2.0000      -0.403565       -10.9816
  63   2.0000      -0.360274        -9.8036
  64   2.0000      -0.329387        -8.9631
  65   2.0000      -0.324692        -8.8353
  66   2.0000      -0.293915        -7.9978
  67   0.0000       0.025155         0.6845
  68   0.0000       0.075148         2.0449
  69   0.0000       0.107971         2.9380
  70   0.0000       0.110890         3.0175
  71   0.0000       0.128984         3.5098

MULLIKEN ATOMIC CHARGES
-----------------------
   0 S :    0.088122
   1 C :   -0.122422
   2 C :   -0.086129
   3 C :   -0.016548
   4 C :   -0.096103
   5 H :    0.013327
   6 C :    0.083277
   7 H :    0.025799
   8 H :    0.032141
   9 C :   -0.082320
  10 H :    0.020701
  11 H :    0.027681
  12 C :   -0.044980
  13 H :    0.012478
  14 H :    0.013295
  15 H :    0.052780
  16 S :    0.090881
  17 C :   -0.093947
  18 C :   -0.032002
  19 C :   -0.066682
  20 C :   -0.122287
  21 H :    0.024004
  22 C :    0.078421
  23 H :    0.028414
  24 H :    0.016552
  25 C :   -0.044470
  26 H :    0.036611
  27 H :    0.020762
  28 C :   -0.083314
  29 H :    0.043186
  30 H :    0.031233
  31 H :    0.027684
  32 H :    0.055387
  33 H :    0.068467
Sum of atomic charges:    0.0000000

LOEWDIN ATOMIC CHARGES
----------------------
   0 S :    0.430318
   1 C :   -0.191864
   2 C :   -0.063794
   3 C :   -0.081447
   4 C :   -0.214995
   5 H :    0.029036
   6 C :   -0.035691
   7 H :    0.037669
   8 H :    0.031627
   9 C :   -0.044974
  10 H :    0.027883
  11 H :    0.025562
  12 C :   -0.073329
  13 H :    0.018473
  14 H :    0.021974
  15 H :    0.033511
  16 S :    0.394293
  17 C :   -0.178645
  18 C :   -0.067776
  19 C :   -0.055462
  20 C :   -0.187061
  21 H :    0.030338
  22 C :   -0.024453
  23 H :    0.038810
  24 H :    0.020344
  25 C :   -0.037668
  26 H :    0.028665
  27 H :    0.020173
  28 C :   -0.075496
  29 H :    0.029297
  30 H :    0.026959
  31 H :    0.023092
  32 H :    0.033407
  33 H :    0.031223

  Mayer bond orders larger than 0.100000
B(  0-S ,  1-C ) :   1.1334 B(  0-S ,  4-C ) :   1.1667 B(  1-C ,  2-C ) :   1.5985
B(  1-C , 32-H ) :   0.9802 B(  2-C ,  3-C ) :   1.2282 B(  2-C ,  6-C ) :   1.0443
B(  3-C ,  4-C ) :   1.5738 B(  3-C ,  5-H ) :   0.9925 B(  4-C , 20-C ) :   1.0339
B(  6-C ,  7-H ) :   0.9328 B(  6-C ,  8-H ) :   0.9390 B(  6-C ,  9-C ) :   1.0584
B(  9-C , 10-H ) :   0.9532 B(  9-C , 11-H ) :   0.9568 B(  9-C , 12-C ) :   1.0857
B( 12-C , 13-H ) :   0.9709 B( 12-C , 14-H ) :   0.9699 B( 12-C , 15-H ) :   0.9758
B( 16-S , 17-C ) :   1.1537 B( 16-S , 20-C ) :   1.1341 B( 17-C , 18-C ) :   1.5971
B( 17-C , 20-C ) :   0.1008 B( 17-C , 33-H ) :   0.9715 B( 18-C , 19-C ) :   1.2271
B( 18-C , 21-H ) :   0.9887 B( 19-C , 20-C ) :   1.6066 B( 19-C , 22-C ) :   1.0434
B( 22-C , 23-H ) :   0.9329 B( 22-C , 24-H ) :   0.9389 B( 22-C , 25-C ) :   1.0598
B( 25-C , 26-H ) :   0.9570 B( 25-C , 27-H ) :   0.9518 B( 25-C , 28-C ) :   1.0673
B( 28-C , 29-H ) :   0.9762 B( 28-C , 30-H ) :   0.9773 B( 28-C , 31-H ) :   0.9746

Dispersion correction           -0.014664605
FINAL SINGLE POINT ENERGY     -1339.850643832078

DIPOLE MOMENT
-------------
                                X             Y             Z
Electronic contribution:     31.29657       9.03168       8.81070
Nuclear contribution   :    -32.02968      -8.99450      -8.95272
                        -----------------------------------------
Total Dipole Moment    :     -0.73311       0.03718      -0.14201
                        -----------------------------------------
Magnitude (a.u.)       :      0.74767
Magnitude (Debye)      :      1.90042

Rotational constants in cm-1:     0.019529     0.009328     0.006654
Rotational constants in MHz :   585.474687   279.646210   199.489002

                             ****ORCA TERMINATED NORMALLY****
TOTAL RUN TIME: 0 days 0 hours 0 minutes 31 seconds 129 msec
