                         Program Version 4.2.1 -  RELEASE  -
|  1> ! wB97X-D3 SP def2-SVP
|  2> %pal
|  3> nprocs 16
|  4> end
|  5>
|  6> * xyz 0 1
|  7> S 	 10.8633 	 -19.7061 	 79.1187
|  8> C 	 10.1961 	 -21.0446 	 80.0404
|  9> C 	 8.81037 	 -20.9477 	 80.2115
| 10> C 	 8.42957 	 -19.6233 	 79.884
| 11> C 	 9.32899 	 -18.9068 	 79.1772
| 12> H 	 7.44635 	 -19.1982 	 80.3031
| 13> C 	 7.99946 	 -21.8322 	 81.1934
| 14> H 	 7.56881 	 -21.1289 	 81.9067
| 15> H 	 8.57133 	 -22.4366 	 81.9019
| 16> C 	 6.95091 	 -22.7234 	 80.5615
| 17> H 	 6.12222 	 -22.1268 	 80.1288
| 18> H 	 7.44112 	 -23.2478 	 79.7756
| 19> C 	 6.5421 	 -23.8593 	 81.5134
| 20> H 	 7.36392 	 -24.6042 	 81.5456
| 21> H 	 6.29737 	 -23.4978 	 82.53
| 22> H 	 5.75044 	 -24.456 	 81.1277
| 23> S 	 8.03851 	 -17.0965 	 77.5695
| 24> C 	 8.16179 	 -15.3822 	 78.0421
| 25> C 	 9.16232 	 -15.1564 	 78.9946
| 26> C 	 9.78872 	 -16.4075 	 79.399
| 27> C 	 9.19966 	 -17.5138 	 78.8289
| 28> H 	 9.46817 	 -14.1346 	 79.1107
| 29> C 	 10.7949 	 -16.2248 	 80.4718
| 30> H 	 11.3774 	 -15.2799 	 80.3405
| 31> H 	 11.5945 	 -17.0102 	 80.4687
| 32> C 	 10.0859 	 -16.1077 	 81.8397
| 33> H 	 9.38224 	 -16.9835 	 81.8737
| 34> H 	 9.51324 	 -15.2149 	 81.7391
| 35> C 	 10.9796 	 -16.133 	 83.1266
| 36> H 	 11.5306 	 -15.2174 	 83.1961
| 37> H 	 11.5875 	 -17.0006 	 82.9859
| 38> H 	 10.3837 	 -16.2767 	 83.9813
| 39> H 	 10.7713 	 -21.932 	 80.3582
| 40> H 	 7.76381 	 -14.5166 	 77.4843
| 41> *
| 42>
| 43>                          ****END OF INPUT****

CARTESIAN COORDINATES (ANGSTROEM)
---------------------------------
  S     10.863300  -19.706100   79.118700
  C     10.196100  -21.044600   80.040400
  C      8.810370  -20.947700   80.211500
  C      8.429570  -19.623300   79.884000
  C      9.328990  -18.906800   79.177200
  H      7.446350  -19.198200   80.303100
  C      7.999460  -21.832200   81.193400
  H      7.568810  -21.128900   81.906700
  H      8.571330  -22.436600   81.901900
  C      6.950910  -22.723400   80.561500
  H      6.122220  -22.126800   80.128800
  H      7.441120  -23.247800   79.775600
  C      6.542100  -23.859300   81.513400
  H      7.363920  -24.604200   81.545600
  H      6.297370  -23.497800   82.530000
  H      5.750440  -24.456000   81.127700
  S      8.038510  -17.096500   77.569500
  C      8.161790  -15.382200   78.042100
  C      9.162320  -15.156400   78.994600
  C      9.788720  -16.407500   79.399000
  C      9.199660  -17.513800   78.828900
  H      9.468170  -14.134600   79.110700
  C     10.794900  -16.224800   80.471800
  H     11.377400  -15.279900   80.340500
  H     11.594500  -17.010200   80.468700
  C     10.085900  -16.107700   81.839700
  H      9.382240  -16.983500   81.873700
  H      9.513240  -15.214900   81.739100
  C     10.979600  -16.133000   83.126600
  H     11.530600  -15.217400   83.196100
  H     11.587500  -17.000600   82.985900
  H     10.383700  -16.276700   83.981300
  H     10.771300  -21.932000   80.358200
  H      7.763810  -14.516600   77.484300

 Total Charge           Charge          ....    0
 Multiplicity           Mult            ....    1
 Number of Electrons    NEL             ....  134
 Basis Dimension        Dim             ....  322

ORBITAL ENERGIES
----------------

  NO   OCC          E(Eh)            E(eV)
   0   2.0000     -88.968944     -2420.9680
   1   2.0000     -88.966633     -2420.9052
   2   2.0000     -10.325045      -280.9587
   3   2.0000     -10.321034      -280.8496
   4   2.0000     -10.320903      -280.8461
   5   2.0000     -10.320029      -280.8223
   6   2.0000     -10.304088      -280.3885
   7   2.0000     -10.302687      -280.3504
   8   2.0000     -10.296525      -280.1827
   9   2.0000     -10.294429      -280.1257
  10   2.0000     -10.293919      -280.1118
  11   2.0000     -10.291289      -280.0402
  12   2.0000     -10.283370      -279.8247
  13   2.0000     -10.283308      -279.8230
  14   2.0000     -10.280426      -279.7446
  15   2.0000     -10.270996      -279.4880
  16   2.0000      -8.083685      -219.9683
  17   2.0000      -8.080536      -219.8826
  18   2.0000      -6.042095      -164.4138
  19   2.0000      -6.039184      -164.3345
  20   2.0000      -6.038266      -164.3096
  21   2.0000      -6.035258      -164.2277
  22   2.0000      -6.034465      -164.2061
  23   2.0000      -6.031099      -164.1145
  24   2.0000      -1.009403       -27.4673
  25   2.0000      -0.981510       -26.7082
  26   2.0000      -0.913165       -24.8485
  27   2.0000      -0.906236       -24.6599
  28   2.0000      -0.869375       -23.6569
  29   2.0000      -0.851396       -23.1677
  30   2.0000      -0.844926       -22.9916
  31   2.0000      -0.811265       -22.0756
  32   2.0000      -0.784146       -21.3377
  33   2.0000      -0.769891       -20.9498
  34   2.0000      -0.703783       -19.1509
  35   2.0000      -0.698122       -18.9969
  36   2.0000      -0.686077       -18.6691
  37   2.0000      -0.663198       -18.0465
  38   2.0000      -0.639133       -17.3917
  39   2.0000      -0.620804       -16.8929
  40   2.0000      -0.592456       -16.1215
  41   2.0000      -0.569201       -15.4887
  42   2.0000      -0.564399       -15.3581
  43   2.0000      -0.557679       -15.1752
  44   2.0000      -0.526285       -14.3209
  45   2.0000      -0.522633       -14.2216
  46   2.0000      -0.517073       -14.0703
  47   2.0000      -0.513420       -13.9709
  48   2.0000      -0.508564       -13.8387
  49   2.0000      -0.494843       -13.4654
  50   2.0000      -0.491421       -13.3723
  51   2.0000      -0.474824       -12.9206
  52   2.0000      -0.466001       -12.6805
  53   2.0000      -0.459025       -12.4907
  54   2.0000      -0.456275       -12.4159
  55   2.0000      -0.445397       -12.1199
  56   2.0000      -0.443462       -12.0672
  57   2.0000      -0.437468       -11.9041
  58   2.0000      -0.433630       -11.7997
  59   2.0000      -0.430095       -11.7035
  60   2.0000      -0.418904       -11.3990
  61   2.0000      -0.414336       -11.2747
  62   2.0000      -0.410953       -11.1826
  63   2.0000      -0.338452        -9.2098
  64   2.0000      -0.332307        -9.0425
  65   2.0000      -0.328269        -8.9326
  66   2.0000      -0.298979        -8.1356
  67   0.0000       0.034550         0.9401
  68   0.0000       0.064454         1.7539
  69   0.0000       0.101914         2.7732
  70   0.0000       0.107407         2.9227
  71   0.0000       0.125688         3.4201

MULLIKEN ATOMIC CHARGES
-----------------------
   0 S :    0.123759
   1 C :   -0.148675
   2 C :   -0.040563
   3 C :   -0.002816
   4 C :   -0.149254
   5 H :    0.048150
   6 C :    0.010752
   7 H :    0.023936
   8 H :    0.015410
   9 C :   -0.048302
  10 H :    0.039765
  11 H :    0.021342
  12 C :   -0.056551
  13 H :    0.030074
  14 H :    0.036749
  15 H :    0.027462
  16 S :    0.115562
  17 C :   -0.104305
  18 C :   -0.053450
  19 C :    0.001590
  20 C :   -0.182443
  21 H :    0.026054
  22 C :    0.052004
  23 H :    0.024219
  24 H :    0.019700
  25 C :   -0.116692
  26 H :    0.035176
  27 H :    0.017322
  28 C :    0.022619
  29 H :    0.029387
  30 H :    0.026995
  31 H :    0.027108
  32 H :    0.062354
  33 H :    0.065560
Sum of atomic charges:    0.0000000

LOEWDIN ATOMIC CHARGES
----------------------
   0 S :    0.417769
   1 C :   -0.188828
   2 C :   -0.067931
   3 C :   -0.061768
   4 C :   -0.216312
   5 H :    0.046117
   6 C :   -0.033036
   7 H :    0.030472
   8 H :    0.028376
   9 C :   -0.042658
  10 H :    0.026911
  11 H :    0.022802
  12 C :   -0.065303
  13 H :    0.029140
  14 H :    0.024497
  15 H :    0.022294
  16 S :    0.392162
  17 C :   -0.180734
  18 C :   -0.069321
  19 C :   -0.049048
  20 C :   -0.199430
  21 H :    0.032067
  22 C :   -0.041829
  23 H :    0.032217
  24 H :    0.021184
  25 C :   -0.035452
  26 H :    0.028044
  27 H :    0.014690
  28 C :   -0.052389
  29 H :    0.022587
  30 H :    0.025357
  31 H :    0.022180
  32 H :    0.031108
  33 H :    0.034065

  Mayer bond orders larger than 0.100000
B(  0-S ,  1-C ) :   1.1609 B(  0-S ,  4-C ) :   1.1328 B(  1-C ,  2-C ) :   1.5945
B(  1-C , 32-H ) :   0.9626 B(  2-C ,  3-C ) :   1.2454 B(  2-C ,  6-C ) :   1.0172
B(  3-C ,  4-C ) :   1.6148 B(  3-C ,  5-H ) :   0.9712 B(  4-C , 20-C ) :   1.0241
B(  6-C ,  7-H ) :   0.9423 B(  6-C ,  8-H ) :   0.9564 B(  6-C ,  9-C ) :   1.0489
B(  9-C , 10-H ) :   0.9571 B(  9-C , 11-H ) :   0.9586 B(  9-C , 12-C ) :   1.0808
B( 12-C , 13-H ) :   0.9735 B( 12-C , 14-H ) :   0.9764 B( 12-C , 15-H ) :   0.9732
B( 16-S , 17-C ) :   1.1438 B( 16-S , 20-C ) :   1.1294 B( 17-C , 18-C ) :   1.6508
B( 17-C , 33-H ) :   0.9580 B( 18-C , 19-C ) :   1.2006 B( 18-C , 21-H ) :   0.9826
B( 19-C , 20-C ) :   1.6179 B( 19-C , 22-C ) :   1.0679 B( 22-C , 23-H ) :   0.9301
B( 22-C , 24-H ) :   0.9298 B( 22-C , 25-C ) :   1.0471 B( 25-C , 26-H ) :   0.9590
B( 25-C , 27-H ) :   0.9576 B( 25-C , 28-C ) :   1.0725 B( 28-C , 29-H ) :   0.9757
B( 28-C , 30-H ) :   0.9756 B( 28-C , 31-H ) :   0.9746

Dispersion correction           -0.014159635
FINAL SINGLE POINT ENERGY     -1339.861557088461

DIPOLE MOMENT
-------------
                                X             Y             Z
Electronic contribution:      4.10560       7.94177     -22.09460
Nuclear contribution   :     -4.11484      -7.92371      22.64890
                        -----------------------------------------
Total Dipole Moment    :     -0.00924       0.01806       0.55430
                        -----------------------------------------
Magnitude (a.u.)       :      0.55467
Magnitude (Debye)      :      1.40986

Rotational constants in cm-1:     0.018809     0.007814     0.006749
Rotational constants in MHz :   563.888513   234.247569   202.343137

                             ****ORCA TERMINATED NORMALLY****
TOTAL RUN TIME: 0 days 0 hours 0 minutes 33 seconds 981 msec
