                         Program Version 4.2.1 -  RELEASE  -
|  1> ! wB97X-D3 SP def2-SVP
|  2> %pal
|  3> nprocs 16
|  4> end
|  5>
|  6> * xyz 0 1
|  7> S 	 10.9865 	 -24.7555 	 85.6527
|  8> C 	 9.43651 	 -25.0703 	 86.2293
|  9> C 	 8.4812 	 -25.0049 	 85.2284
| 10> C 	 9.03819 	 -24.605 	 83.9871
| 11> C 	 10.4033 	 -24.3486 	 84.0895
| 12> H 	 8.49706 	 -24.4264 	 83.0705
| 13> C 	 6.94888 	 -25.0504 	 85.4638
| 14> H 	 6.80787 	 -25.2426 	 86.5304
| 15> H 	 6.63241 	 -26.0698 	 85.0819
| 16> C 	 6.05531 	 -23.885 	 85.0169
| 17> H 	 6.51804 	 -22.9088 	 85.2617
| 18> H 	 5.92678 	 -23.7695 	 83.9523
| 19> C 	 4.59399 	 -23.9317 	 85.6335
| 20> H 	 4.606 	 -23.5348 	 86.6931
| 21> H 	 3.87502 	 -23.4784 	 84.9535
| 22> H 	 4.3345 	 -24.9618 	 85.7012
| 23> S 	 12.663 	 -25.1345 	 82.7891
| 24> C 	 13.1184 	 -24.3835 	 81.2893
| 25> C 	 12.2885 	 -23.3919 	 80.9256
| 26> C 	 11.1986 	 -23.2635 	 81.8722
| 27> C 	 11.3082 	 -24.1747 	 82.9666
| 28> H 	 12.3995 	 -22.8091 	 79.9939
| 29> C 	 9.99545 	 -22.3694 	 81.5546
| 30> H 	 10.4038 	 -21.4025 	 81.489
| 31> H 	 9.39841 	 -22.3942 	 82.4155
| 32> C 	 9.19136 	 -22.5445 	 80.3569
| 33> H 	 8.36904 	 -21.8723 	 80.3942
| 34> H 	 8.73765 	 -23.55 	 80.473
| 35> C 	 9.98583 	 -22.4816 	 79.0277
| 36> H 	 9.40678 	 -22.4476 	 78.1829
| 37> H 	 10.611 	 -23.3368 	 78.7315
| 38> H 	 10.6728 	 -21.6794 	 78.969
| 39> H 	 9.13062 	 -25.1944 	 87.3105
| 40> H 	 14.0818 	 -24.5664 	 80.7032
| 41> *
| 42>
| 43>                          ****END OF INPUT****

CARTESIAN COORDINATES (ANGSTROEM)
---------------------------------
  S     10.986500  -24.755500   85.652700
  C      9.436510  -25.070300   86.229300
  C      8.481200  -25.004900   85.228400
  C      9.038190  -24.605000   83.987100
  C     10.403300  -24.348600   84.089500
  H      8.497060  -24.426400   83.070500
  C      6.948880  -25.050400   85.463800
  H      6.807870  -25.242600   86.530400
  H      6.632410  -26.069800   85.081900
  C      6.055310  -23.885000   85.016900
  H      6.518040  -22.908800   85.261700
  H      5.926780  -23.769500   83.952300
  C      4.593990  -23.931700   85.633500
  H      4.606000  -23.534800   86.693100
  H      3.875020  -23.478400   84.953500
  H      4.334500  -24.961800   85.701200
  S     12.663000  -25.134500   82.789100
  C     13.118400  -24.383500   81.289300
  C     12.288500  -23.391900   80.925600
  C     11.198600  -23.263500   81.872200
  C     11.308200  -24.174700   82.966600
  H     12.399500  -22.809100   79.993900
  C      9.995450  -22.369400   81.554600
  H     10.403800  -21.402500   81.489000
  H      9.398410  -22.394200   82.415500
  C      9.191360  -22.544500   80.356900
  H      8.369040  -21.872300   80.394200
  H      8.737650  -23.550000   80.473000
  C      9.985830  -22.481600   79.027700
  H      9.406780  -22.447600   78.182900
  H     10.611000  -23.336800   78.731500
  H     10.672800  -21.679400   78.969000
  H      9.130620  -25.194400   87.310500
  H     14.081800  -24.566400   80.703200

 Total Charge           Charge          ....    0
 Multiplicity           Mult            ....    1
 Number of Electrons    NEL             ....  134
 Basis Dimension        Dim             ....  322

ORBITAL ENERGIES
----------------

  NO   OCC          E(Eh)            E(eV)
   0   2.0000     -88.969656     -2420.9874
   1   2.0000     -88.964371     -2420.8436
   2   2.0000     -10.326559      -281.0000
   3   2.0000     -10.321702      -280.8678
   4   2.0000     -10.314370      -280.6683
   5   2.0000     -10.312572      -280.6194
   6   2.0000     -10.301642      -280.3219
   7   2.0000     -10.301004      -280.3046
   8   2.0000     -10.300249      -280.2840
   9   2.0000     -10.293414      -280.0980
  10   2.0000     -10.293379      -280.0971
  11   2.0000     -10.289431      -279.9896
  12   2.0000     -10.285302      -279.8773
  13   2.0000     -10.284662      -279.8599
  14   2.0000     -10.273214      -279.5484
  15   2.0000     -10.270200      -279.4664
  16   2.0000      -8.085931      -220.0294
  17   2.0000      -8.080663      -219.8860
  18   2.0000      -6.044207      -164.4712
  19   2.0000      -6.040105      -164.3596
  20   2.0000      -6.039097      -164.3322
  21   2.0000      -6.036973      -164.2744
  22   2.0000      -6.034870      -164.2172
  23   2.0000      -6.031487      -164.1251
  24   2.0000      -1.017657       -27.6918
  25   2.0000      -0.993199       -27.0263
  26   2.0000      -0.920114       -25.0376
  27   2.0000      -0.905094       -24.6289
  28   2.0000      -0.873576       -23.7712
  29   2.0000      -0.853360       -23.2211
  30   2.0000      -0.842959       -22.9381
  31   2.0000      -0.818127       -22.2624
  32   2.0000      -0.790090       -21.4995
  33   2.0000      -0.772692       -21.0260
  34   2.0000      -0.714519       -19.4431
  35   2.0000      -0.703048       -19.1309
  36   2.0000      -0.687399       -18.7051
  37   2.0000      -0.660806       -17.9815
  38   2.0000      -0.636704       -17.3256
  39   2.0000      -0.622907       -16.9502
  40   2.0000      -0.590741       -16.0749
  41   2.0000      -0.570019       -15.5110
  42   2.0000      -0.562250       -15.2996
  43   2.0000      -0.555320       -15.1110
  44   2.0000      -0.545332       -14.8392
  45   2.0000      -0.526593       -14.3293
  46   2.0000      -0.519862       -14.1462
  47   2.0000      -0.506113       -13.7720
  48   2.0000      -0.505882       -13.7658
  49   2.0000      -0.495732       -13.4896
  50   2.0000      -0.491931       -13.3861
  51   2.0000      -0.480671       -13.0797
  52   2.0000      -0.473239       -12.8775
  53   2.0000      -0.469265       -12.7694
  54   2.0000      -0.465432       -12.6651
  55   2.0000      -0.453832       -12.3494
  56   2.0000      -0.443933       -12.0800
  57   2.0000      -0.442076       -12.0295
  58   2.0000      -0.434560       -11.8250
  59   2.0000      -0.425321       -11.5736
  60   2.0000      -0.422189       -11.4883
  61   2.0000      -0.414517       -11.2796
  62   2.0000      -0.407855       -11.0983
  63   2.0000      -0.356571        -9.7028
  64   2.0000      -0.333304        -9.0697
  65   2.0000      -0.325665        -8.8618
  66   2.0000      -0.286402        -7.7934
  67   0.0000       0.035000         0.9524
  68   0.0000       0.080232         2.1832
  69   0.0000       0.121803         3.3144
  70   0.0000       0.123909         3.3717
  71   0.0000       0.131612         3.5813

MULLIKEN ATOMIC CHARGES
-----------------------
   0 S :    0.130128
   1 C :   -0.130496
   2 C :   -0.098080
   3 C :    0.022694
   4 C :   -0.157320
   5 H :    0.014152
   6 C :    0.059299
   7 H :    0.005220
   8 H :    0.039836
   9 C :   -0.071175
  10 H :    0.036204
  11 H :    0.024075
  12 C :   -0.064395
  13 H :    0.052317
  14 H :    0.040698
  15 H :    0.022610
  16 S :    0.120403
  17 C :   -0.117196
  18 C :   -0.028097
  19 C :   -0.094779
  20 C :   -0.137646
  21 H :    0.026648
  22 C :    0.102334
  23 H :    0.005895
  24 H :   -0.003559
  25 C :   -0.009071
  26 H :    0.025126
  27 H :    0.019752
  28 C :   -0.029028
  29 H :    0.003960
  30 H :    0.032418
  31 H :    0.014285
  32 H :    0.068692
  33 H :    0.074095
Sum of atomic charges:   -0.0000000

LOEWDIN ATOMIC CHARGES
----------------------
   0 S :    0.452923
   1 C :   -0.230328
   2 C :   -0.068272
   3 C :   -0.057719
   4 C :   -0.205056
   5 H :    0.030250
   6 C :   -0.040261
   7 H :    0.026616
   8 H :    0.039088
   9 C :   -0.046081
  10 H :    0.028356
  11 H :    0.019774
  12 C :   -0.063517
  13 H :    0.034737
  14 H :    0.028503
  15 H :    0.018964
  16 S :    0.442096
  17 C :   -0.210013
  18 C :   -0.075268
  19 C :   -0.054433
  20 C :   -0.231230
  21 H :    0.038974
  22 C :   -0.035289
  23 H :    0.024874
  24 H :    0.021032
  25 C :   -0.029819
  26 H :    0.025362
  27 H :    0.026469
  28 C :   -0.065200
  29 H :    0.016218
  30 H :    0.033546
  31 H :    0.016287
  32 H :    0.042940
  33 H :    0.045479

  Mayer bond orders larger than 0.100000
B(  0-S ,  1-C ) :   1.1659 B(  0-S ,  4-C ) :   1.1762 B(  1-C ,  2-C ) :   1.5864
B(  1-C , 32-H ) :   0.9538 B(  2-C ,  3-C ) :   1.2842 B(  2-C ,  6-C ) :   1.0215
B(  3-C ,  4-C ) :   1.5192 B(  3-C ,  5-H ) :   0.9954 B(  4-C , 20-C ) :   1.0384
B(  6-C ,  7-H ) :   0.9450 B(  6-C ,  8-H ) :   0.9271 B(  6-C ,  9-C ) :   1.0519
B(  9-C , 10-H ) :   0.9618 B(  9-C , 11-H ) :   0.9554 B(  9-C , 12-C ) :   1.0716
B( 12-C , 13-H ) :   0.9770 B( 12-C , 14-H ) :   0.9774 B( 12-C , 15-H ) :   0.9790
B( 16-S , 17-C ) :   1.1502 B( 16-S , 20-C ) :   1.1685 B( 17-C , 18-C ) :   1.6142
B( 17-C , 33-H ) :   0.9524 B( 18-C , 19-C ) :   1.2633 B( 18-C , 21-H ) :   0.9798
B( 19-C , 20-C ) :   1.5588 B( 19-C , 22-C ) :   1.0450 B( 22-C , 23-H ) :   0.9177
B( 22-C , 24-H ) :   0.9220 B( 22-C , 25-C ) :   1.0957 B( 25-C , 26-H ) :   0.9484
B( 25-C , 27-H ) :   0.9453 B( 25-C , 28-C ) :   1.0744 B( 28-C , 29-H ) :   0.9636
B( 28-C , 30-H ) :   0.9646 B( 28-C , 31-H ) :   0.9741

Dispersion correction           -0.014216618
FINAL SINGLE POINT ENERGY     -1339.861860771317

DIPOLE MOMENT
-------------
                                X             Y             Z
Electronic contribution:     26.69231      -9.96075       9.93583
Nuclear contribution   :    -27.30347      10.19277     -10.21911
                        -----------------------------------------
Total Dipole Moment    :     -0.61116       0.23202      -0.28328
                        -----------------------------------------
Magnitude (a.u.)       :      0.71246
Magnitude (Debye)      :      1.81092

Rotational constants in cm-1:     0.018685     0.008819     0.006247
Rotational constants in MHz :   560.153432   264.395275   187.293308

                             ****ORCA TERMINATED NORMALLY****
TOTAL RUN TIME: 0 days 0 hours 0 minutes 34 seconds 148 msec
