                         Program Version 4.2.1 -  RELEASE  -
|  1> ! wB97X-D3 SP def2-SVP
|  2> %pal
|  3> nprocs 16
|  4> end
|  5>
|  6> * xyz 0 1
|  7> S 	 -66.4535 	 38.9644 	 130.714
|  8> C 	 -66.6696 	 40.7109 	 130.774
|  9> C 	 -66.2284 	 41.1991 	 131.98
| 10> C 	 -65.8825 	 40.1232 	 132.854
| 11> C 	 -66.0577 	 38.8462 	 132.448
| 12> H 	 -65.5294 	 40.2275 	 133.872
| 13> C 	 -66.3427 	 42.6202 	 132.5
| 14> H 	 -65.3353 	 43.0848 	 132.373
| 15> H 	 -66.5282 	 42.5738 	 133.514
| 16> C 	 -67.3863 	 43.4624 	 131.777
| 17> H 	 -67.1336 	 44.5314 	 131.968
| 18> H 	 -67.2683 	 43.2194 	 130.718
| 19> C 	 -68.7789 	 43.1531 	 132.285
| 20> H 	 -69.0266 	 42.1054 	 132.312
| 21> H 	 -68.8717 	 43.3538 	 133.364
| 22> H 	 -69.5058 	 43.7303 	 131.766
| 23> S 	 -67.7356 	 36.963 	 133.098
| 24> C 	 -67.3701 	 35.6759 	 134.227
| 25> C 	 -66.0715 	 35.8502 	 134.666
| 26> C 	 -65.3019 	 36.9042 	 134.07
| 27> C 	 -66.082 	 37.5999 	 133.179
| 28> H 	 -65.6069 	 35.2138 	 135.393
| 29> C 	 -63.9029 	 37.3176 	 134.513
| 30> H 	 -63.75 	 37.1765 	 135.65
| 31> H 	 -63.9332 	 38.3401 	 134.577
| 32> C 	 -62.7046 	 36.7146 	 133.743
| 33> H 	 -62.609 	 35.6562 	 134.043
| 34> H 	 -61.8164 	 37.1145 	 134.115
| 35> C 	 -62.8137 	 36.8115 	 132.27
| 36> H 	 -63.7382 	 36.3832 	 132.003
| 37> H 	 -62.0793 	 36.1923 	 131.901
| 38> H 	 -62.6855 	 37.8431 	 131.906
| 39> H 	 -67.2193 	 41.2647 	 129.978
| 40> H 	 -67.9436 	 34.761 	 134.469
| 41> *
| 42>
| 43>                          ****END OF INPUT****

CARTESIAN COORDINATES (ANGSTROEM)
---------------------------------
  S    -66.453500   38.964400  130.714000
  C    -66.669600   40.710900  130.774000
  C    -66.228400   41.199100  131.980000
  C    -65.882500   40.123200  132.854000
  C    -66.057700   38.846200  132.448000
  H    -65.529400   40.227500  133.872000
  C    -66.342700   42.620200  132.500000
  H    -65.335300   43.084800  132.373000
  H    -66.528200   42.573800  133.514000
  C    -67.386300   43.462400  131.777000
  H    -67.133600   44.531400  131.968000
  H    -67.268300   43.219400  130.718000
  C    -68.778900   43.153100  132.285000
  H    -69.026600   42.105400  132.312000
  H    -68.871700   43.353800  133.364000
  H    -69.505800   43.730300  131.766000
  S    -67.735600   36.963000  133.098000
  C    -67.370100   35.675900  134.227000
  C    -66.071500   35.850200  134.666000
  C    -65.301900   36.904200  134.070000
  C    -66.082000   37.599900  133.179000
  H    -65.606900   35.213800  135.393000
  C    -63.902900   37.317600  134.513000
  H    -63.750000   37.176500  135.650000
  H    -63.933200   38.340100  134.577000
  C    -62.704600   36.714600  133.743000
  H    -62.609000   35.656200  134.043000
  H    -61.816400   37.114500  134.115000
  C    -62.813700   36.811500  132.270000
  H    -63.738200   36.383200  132.003000
  H    -62.079300   36.192300  131.901000
  H    -62.685500   37.843100  131.906000
  H    -67.219300   41.264700  129.978000
  H    -67.943600   34.761000  134.469000

 Total Charge           Charge          ....    0
 Multiplicity           Mult            ....    1
 Number of Electrons    NEL             ....  134
 Basis Dimension        Dim             ....  322

ORBITAL ENERGIES
----------------

  NO   OCC          E(Eh)            E(eV)
   0   2.0000     -88.963622     -2420.8232
   1   2.0000     -88.958035     -2420.6712
   2   2.0000     -10.329419      -281.0778
   3   2.0000     -10.327597      -281.0282
   4   2.0000     -10.320705      -280.8407
   5   2.0000     -10.317651      -280.7575
   6   2.0000     -10.306844      -280.4635
   7   2.0000     -10.300739      -280.2974
   8   2.0000     -10.292774      -280.0806
   9   2.0000     -10.292622      -280.0765
  10   2.0000     -10.289763      -279.9987
  11   2.0000     -10.289232      -279.9842
  12   2.0000     -10.287704      -279.9427
  13   2.0000     -10.278427      -279.6902
  14   2.0000     -10.272011      -279.5156
  15   2.0000     -10.258498      -279.1479
  16   2.0000      -8.078132      -219.8172
  17   2.0000      -8.072574      -219.6659
  18   2.0000      -6.036783      -164.2692
  19   2.0000      -6.032523      -164.1533
  20   2.0000      -6.031223      -164.1179
  21   2.0000      -6.028829      -164.0528
  22   2.0000      -6.027155      -164.0072
  23   2.0000      -6.023116      -163.8973
  24   2.0000      -1.008143       -27.4330
  25   2.0000      -0.984009       -26.7763
  26   2.0000      -0.917821       -24.9752
  27   2.0000      -0.912799       -24.8385
  28   2.0000      -0.870916       -23.6988
  29   2.0000      -0.854594       -23.2547
  30   2.0000      -0.842995       -22.9390
  31   2.0000      -0.814065       -22.1518
  32   2.0000      -0.787335       -21.4245
  33   2.0000      -0.777205       -21.1488
  34   2.0000      -0.711470       -19.3601
  35   2.0000      -0.705102       -19.1868
  36   2.0000      -0.693178       -18.8623
  37   2.0000      -0.664114       -18.0715
  38   2.0000      -0.641020       -17.4430
  39   2.0000      -0.609439       -16.5837
  40   2.0000      -0.596325       -16.2268
  41   2.0000      -0.580944       -15.8083
  42   2.0000      -0.558570       -15.1995
  43   2.0000      -0.557686       -15.1754
  44   2.0000      -0.547961       -14.9108
  45   2.0000      -0.531357       -14.4590
  46   2.0000      -0.522334       -14.2134
  47   2.0000      -0.515946       -14.0396
  48   2.0000      -0.504436       -13.7264
  49   2.0000      -0.499440       -13.5905
  50   2.0000      -0.492660       -13.4060
  51   2.0000      -0.479758       -13.0549
  52   2.0000      -0.471743       -12.8368
  53   2.0000      -0.465518       -12.6674
  54   2.0000      -0.459278       -12.4976
  55   2.0000      -0.444662       -12.0999
  56   2.0000      -0.436384       -11.8746
  57   2.0000      -0.433994       -11.8096
  58   2.0000      -0.430080       -11.7031
  59   2.0000      -0.426314       -11.6006
  60   2.0000      -0.419777       -11.4227
  61   2.0000      -0.412994       -11.2381
  62   2.0000      -0.410645       -11.1742
  63   2.0000      -0.340807        -9.2738
  64   2.0000      -0.332636        -9.0515
  65   2.0000      -0.321842        -8.7578
  66   2.0000      -0.302562        -8.2331
  67   0.0000       0.028129         0.7654
  68   0.0000       0.068251         1.8572
  69   0.0000       0.110554         3.0083
  70   0.0000       0.118264         3.2181
  71   0.0000       0.132616         3.6087

MULLIKEN ATOMIC CHARGES
-----------------------
   0 S :    0.091902
   1 C :   -0.164276
   2 C :   -0.078739
   3 C :    0.035747
   4 C :   -0.157359
   5 H :    0.003326
   6 C :    0.093407
   7 H :    0.044113
   8 H :    0.003144
   9 C :   -0.086117
  10 H :    0.037340
  11 H :    0.030057
  12 C :   -0.028335
  13 H :    0.031715
  14 H :    0.018846
  15 H :    0.033806
  16 S :    0.102656
  17 C :   -0.081062
  18 C :   -0.044561
  19 C :   -0.042601
  20 C :   -0.167531
  21 H :    0.007942
  22 C :    0.069614
  23 H :    0.025541
  24 H :   -0.008768
  25 C :   -0.039019
  26 H :    0.017548
  27 H :    0.006272
  28 C :    0.018535
  29 H :    0.027251
  30 H :    0.009273
  31 H :    0.040794
  32 H :    0.075618
  33 H :    0.073922
Sum of atomic charges:    0.0000000

LOEWDIN ATOMIC CHARGES
----------------------
   0 S :    0.374521
   1 C :   -0.197619
   2 C :   -0.068010
   3 C :   -0.063942
   4 C :   -0.193738
   5 H :    0.026839
   6 C :   -0.024656
   7 H :    0.040790
   8 H :    0.016712
   9 C :   -0.040100
  10 H :    0.031163
  11 H :    0.022167
  12 C :   -0.064985
  13 H :    0.026604
  14 H :    0.028060
  15 H :    0.022092
  16 S :    0.409105
  17 C :   -0.195229
  18 C :   -0.069058
  19 C :   -0.056551
  20 C :   -0.182519
  21 H :    0.024563
  22 C :   -0.033231
  23 H :    0.042473
  24 H :    0.015133
  25 C :   -0.032230
  26 H :    0.025743
  27 H :    0.014862
  28 C :   -0.051791
  29 H :    0.022117
  30 H :    0.018198
  31 H :    0.031708
  32 H :    0.037782
  33 H :    0.043026

  Mayer bond orders larger than 0.100000
B(  0-S ,  1-C ) :   1.1339 B(  0-S ,  4-C ) :   1.1211 B(  1-C ,  2-C ) :   1.6127
B(  1-C , 32-H ) :   0.9572 B(  2-C ,  3-C ) :   1.2248 B(  2-C ,  6-C ) :   1.0086
B(  3-C ,  4-C ) :   1.6273 B(  3-C ,  5-H ) :   0.9917 B(  4-C , 20-C ) :   1.0179
B(  6-C ,  7-H ) :   0.9236 B(  6-C ,  8-H ) :   0.9477 B(  6-C ,  9-C ) :   1.0836
B(  9-C , 10-H ) :   0.9519 B(  9-C , 11-H ) :   0.9515 B(  9-C , 12-C ) :   1.0805
B( 12-C , 13-H ) :   0.9750 B( 12-C , 14-H ) :   0.9688 B( 12-C , 15-H ) :   0.9744
B( 16-S , 17-C ) :   1.1390 B( 16-S , 20-C ) :   1.1515 B( 17-C , 18-C ) :   1.6094
B( 17-C , 20-C ) :   0.1023 B( 17-C , 33-H ) :   0.9642 B( 18-C , 19-C ) :   1.2438
B( 18-C , 21-H ) :   0.9845 B( 19-C , 20-C ) :   1.5951 B( 19-C , 22-C ) :   1.0245
B( 22-C , 23-H ) :   0.9362 B( 22-C , 24-H ) :   0.9348 B( 22-C , 25-C ) :   1.0620
B( 25-C , 26-H ) :   0.9533 B( 25-C , 27-H ) :   0.9494 B( 25-C , 28-C ) :   1.0932
B( 28-C , 29-H ) :   0.9663 B( 28-C , 30-H ) :   0.9654 B( 28-C , 31-H ) :   0.9739

Dispersion correction           -0.014818079
FINAL SINGLE POINT ENERGY     -1339.860023563084

DIPOLE MOMENT
-------------
                                X             Y             Z
Electronic contribution:     -9.03689     -12.82512      -4.75674
Nuclear contribution   :      9.29525      13.10342       5.28602
                        -----------------------------------------
Total Dipole Moment    :      0.25836       0.27829       0.52928
                        -----------------------------------------
Magnitude (a.u.)       :      0.65141
Magnitude (Debye)      :      1.65575

Rotational constants in cm-1:     0.022291     0.008130     0.007208
Rotational constants in MHz :   668.257486   243.729745   216.083544

                             ****ORCA TERMINATED NORMALLY****
TOTAL RUN TIME: 0 days 0 hours 0 minutes 36 seconds 758 msec
