                         Program Version 4.2.1 -  RELEASE  -
|  1> ! wB97X-D3 SP def2-SVP
|  2> %pal
|  3> nprocs 16
|  4> end
|  5>
|  6> * xyz 0 1
|  7> S 	 -38.882 	 40.4945 	 95.1775
|  8> C 	 -38.1533 	 41.1201 	 96.6199
|  9> C 	 -36.9189 	 41.734 	 96.3051
| 10> C 	 -36.5119 	 41.5021 	 94.9948
| 11> C 	 -37.4661 	 40.8622 	 94.1806
| 12> H 	 -35.5381 	 41.7006 	 94.5214
| 13> C 	 -36.1737 	 42.4221 	 97.4297
| 14> H 	 -35.3335 	 41.8034 	 97.6592
| 15> H 	 -36.7072 	 42.3369 	 98.4511
| 16> C 	 -35.731 	 43.8613 	 97.3171
| 17> H 	 -34.8841 	 43.7947 	 96.5633
| 18> H 	 -36.5188 	 44.3724 	 96.7147
| 19> C 	 -35.4327 	 44.5027 	 98.6083
| 20> H 	 -34.3665 	 44.2555 	 98.9847
| 21> H 	 -35.6486 	 45.5421 	 98.6519
| 22> H 	 -36.1429 	 44.2039 	 99.3427
| 23> S 	 -37.1897 	 41.5486 	 91.5303
| 24> C 	 -36.8239 	 40.3146 	 90.3913
| 25> C 	 -36.9056 	 39.0412 	 90.9758
| 26> C 	 -37.1981 	 39.0568 	 92.3847
| 27> C 	 -37.341 	 40.3697 	 92.8487
| 28> H 	 -36.6669 	 38.1324 	 90.4486
| 29> C 	 -37.3435 	 37.8245 	 93.2733
| 30> H 	 -38.3715 	 37.6203 	 93.3949
| 31> H 	 -36.9676 	 38.0008 	 94.2771
| 32> C 	 -36.497 	 36.6303 	 92.7705
| 33> H 	 -35.398 	 36.892 	 92.6624
| 34> H 	 -36.7784 	 36.3521 	 91.7138
| 35> C 	 -36.5492 	 35.4036 	 93.7552
| 36> H 	 -35.6758 	 34.7457 	 93.608
| 37> H 	 -37.4843 	 34.8998 	 93.6907
| 38> H 	 -36.548 	 35.6809 	 94.779
| 39> H 	 -38.7309 	 41.0937 	 97.582
| 40> H 	 -36.7284 	 40.4427 	 89.3254
| 41> *
| 42>
| 43>                          ****END OF INPUT****

CARTESIAN COORDINATES (ANGSTROEM)
---------------------------------
  S    -38.882000   40.494500   95.177500
  C    -38.153300   41.120100   96.619900
  C    -36.918900   41.734000   96.305100
  C    -36.511900   41.502100   94.994800
  C    -37.466100   40.862200   94.180600
  H    -35.538100   41.700600   94.521400
  C    -36.173700   42.422100   97.429700
  H    -35.333500   41.803400   97.659200
  H    -36.707200   42.336900   98.451100
  C    -35.731000   43.861300   97.317100
  H    -34.884100   43.794700   96.563300
  H    -36.518800   44.372400   96.714700
  C    -35.432700   44.502700   98.608300
  H    -34.366500   44.255500   98.984700
  H    -35.648600   45.542100   98.651900
  H    -36.142900   44.203900   99.342700
  S    -37.189700   41.548600   91.530300
  C    -36.823900   40.314600   90.391300
  C    -36.905600   39.041200   90.975800
  C    -37.198100   39.056800   92.384700
  C    -37.341000   40.369700   92.848700
  H    -36.666900   38.132400   90.448600
  C    -37.343500   37.824500   93.273300
  H    -38.371500   37.620300   93.394900
  H    -36.967600   38.000800   94.277100
  C    -36.497000   36.630300   92.770500
  H    -35.398000   36.892000   92.662400
  H    -36.778400   36.352100   91.713800
  C    -36.549200   35.403600   93.755200
  H    -35.675800   34.745700   93.608000
  H    -37.484300   34.899800   93.690700
  H    -36.548000   35.680900   94.779000
  H    -38.730900   41.093700   97.582000
  H    -36.728400   40.442700   89.325400

 Total Charge           Charge          ....    0
 Multiplicity           Mult            ....    1
 Number of Electrons    NEL             ....  134
 Basis Dimension        Dim             ....  322

ORBITAL ENERGIES
----------------

  NO   OCC          E(Eh)            E(eV)
   0   2.0000     -88.966862     -2420.9114
   1   2.0000     -88.964577     -2420.8492
   2   2.0000     -10.327871      -281.0357
   3   2.0000     -10.323399      -280.9140
   4   2.0000     -10.319620      -280.8111
   5   2.0000     -10.318077      -280.7691
   6   2.0000     -10.306667      -280.4587
   7   2.0000     -10.304484      -280.3993
   8   2.0000     -10.298344      -280.2322
   9   2.0000     -10.297816      -280.2178
  10   2.0000     -10.295304      -280.1495
  11   2.0000     -10.289991      -280.0049
  12   2.0000     -10.289090      -279.9804
  13   2.0000     -10.286386      -279.9068
  14   2.0000     -10.278738      -279.6987
  15   2.0000     -10.275742      -279.6172
  16   2.0000      -8.081565      -219.9106
  17   2.0000      -8.079068      -219.8426
  18   2.0000      -6.039996      -164.3567
  19   2.0000      -6.037281      -164.2828
  20   2.0000      -6.035951      -164.2466
  21   2.0000      -6.033431      -164.1780
  22   2.0000      -6.032539      -164.1537
  23   2.0000      -6.030342      -164.0939
  24   2.0000      -1.003972       -27.3195
  25   2.0000      -0.981833       -26.7170
  26   2.0000      -0.915804       -24.9203
  27   2.0000      -0.904895       -24.6234
  28   2.0000      -0.871367       -23.7111
  29   2.0000      -0.851061       -23.1585
  30   2.0000      -0.845998       -23.0208
  31   2.0000      -0.811784       -22.0898
  32   2.0000      -0.785239       -21.3674
  33   2.0000      -0.768829       -20.9209
  34   2.0000      -0.708033       -19.2665
  35   2.0000      -0.704585       -19.1727
  36   2.0000      -0.686083       -18.6693
  37   2.0000      -0.655854       -17.8467
  38   2.0000      -0.641286       -17.4503
  39   2.0000      -0.616334       -16.7713
  40   2.0000      -0.599666       -16.3177
  41   2.0000      -0.571134       -15.5413
  42   2.0000      -0.560823       -15.2608
  43   2.0000      -0.556964       -15.1558
  44   2.0000      -0.528918       -14.3926
  45   2.0000      -0.522544       -14.2191
  46   2.0000      -0.518550       -14.1105
  47   2.0000      -0.513146       -13.9634
  48   2.0000      -0.506927       -13.7942
  49   2.0000      -0.504014       -13.7149
  50   2.0000      -0.489804       -13.3282
  51   2.0000      -0.476868       -12.9762
  52   2.0000      -0.471310       -12.8250
  53   2.0000      -0.465386       -12.6638
  54   2.0000      -0.457182       -12.4406
  55   2.0000      -0.450779       -12.2663
  56   2.0000      -0.445205       -12.1147
  57   2.0000      -0.438409       -11.9297
  58   2.0000      -0.431430       -11.7398
  59   2.0000      -0.424661       -11.5556
  60   2.0000      -0.421920       -11.4810
  61   2.0000      -0.409284       -11.1372
  62   2.0000      -0.397342       -10.8122
  63   2.0000      -0.340148        -9.2559
  64   2.0000      -0.331410        -9.0181
  65   2.0000      -0.324935        -8.8419
  66   2.0000      -0.295421        -8.0388
  67   0.0000       0.030140         0.8201
  68   0.0000       0.062253         1.6940
  69   0.0000       0.116810         3.1785
  70   0.0000       0.122541         3.3345
  71   0.0000       0.134639         3.6637

MULLIKEN ATOMIC CHARGES
-----------------------
   0 S :    0.108685
   1 C :   -0.158069
   2 C :   -0.047396
   3 C :    0.041964
   4 C :   -0.202995
   5 H :    0.024076
   6 C :    0.027374
   7 H :    0.023836
   8 H :    0.009981
   9 C :   -0.087601
  10 H :    0.034366
  11 H :    0.033844
  12 C :   -0.015777
  13 H :    0.053042
  14 H :    0.025330
  15 H :    0.011377
  16 S :    0.125052
  17 C :   -0.082836
  18 C :   -0.049101
  19 C :   -0.018041
  20 C :   -0.186837
  21 H :    0.015439
  22 C :    0.121959
  23 H :    0.035917
  24 H :    0.030736
  25 C :   -0.169106
  26 H :    0.044766
  27 H :    0.039896
  28 C :   -0.008042
  29 H :    0.042048
  30 H :    0.024189
  31 H :    0.013945
  32 H :    0.078924
  33 H :    0.059055
Sum of atomic charges:    0.0000000

LOEWDIN ATOMIC CHARGES
----------------------
   0 S :    0.412078
   1 C :   -0.207321
   2 C :   -0.068212
   3 C :   -0.061705
   4 C :   -0.199216
   5 H :    0.038608
   6 C :   -0.041619
   7 H :    0.025268
   8 H :    0.031056
   9 C :   -0.056294
  10 H :    0.029917
  11 H :    0.028788
  12 C :   -0.069512
  13 H :    0.041168
  14 H :    0.027789
  15 H :    0.023031
  16 S :    0.419338
  17 C :   -0.195612
  18 C :   -0.073962
  19 C :   -0.041565
  20 C :   -0.209540
  21 H :    0.027071
  22 C :   -0.029323
  23 H :    0.029325
  24 H :    0.034113
  25 C :   -0.046553
  26 H :    0.031147
  27 H :    0.022246
  28 C :   -0.064515
  29 H :    0.031621
  30 H :    0.022118
  31 H :    0.020367
  32 H :    0.039467
  33 H :    0.030432

  Mayer bond orders larger than 0.100000
B(  0-S ,  1-C ) :   1.1751 B(  0-S ,  4-C ) :   1.1616 B(  1-C ,  2-C ) :   1.5384
B(  1-C ,  4-C ) :   0.1176 B(  1-C , 32-H ) :   0.9650 B(  2-C ,  3-C ) :   1.2788
B(  2-C ,  6-C ) :   1.0229 B(  3-C ,  4-C ) :   1.5420 B(  3-C ,  5-H ) :   0.9922
B(  4-C , 20-C ) :   1.0396 B(  6-C ,  7-H ) :   0.9334 B(  6-C ,  8-H ) :   0.9462
B(  6-C ,  9-C ) :   1.0485 B(  9-C , 10-H ) :   0.9493 B(  9-C , 11-H ) :   0.9589
B(  9-C , 12-C ) :   1.0899 B( 12-C , 13-H ) :   0.9716 B( 12-C , 14-H ) :   0.9686
B( 12-C , 15-H ) :   0.9657 B( 16-S , 17-C ) :   1.1729 B( 16-S , 20-C ) :   1.1465
B( 17-C , 18-C ) :   1.5769 B( 17-C , 20-C ) :   0.1031 B( 17-C , 33-H ) :   0.9659
B( 18-C , 19-C ) :   1.2702 B( 18-C , 21-H ) :   0.9855 B( 19-C , 20-C ) :   1.5707
B( 19-C , 22-C ) :   1.0326 B( 22-C , 23-H ) :   0.9319 B( 22-C , 24-H ) :   0.9275
B( 22-C , 25-C ) :   1.0549 B( 25-C , 26-H ) :   0.9650 B( 25-C , 27-H ) :   0.9511
B( 25-C , 28-C ) :   1.0744 B( 28-C , 29-H ) :   0.9770 B( 28-C , 30-H ) :   0.9738
B( 28-C , 31-H ) :   0.9725

Dispersion correction           -0.013650527
FINAL SINGLE POINT ENERGY     -1339.871200129515

DIPOLE MOMENT
-------------
                                X             Y             Z
Electronic contribution:    -11.87669       6.33012     -15.53247
Nuclear contribution   :     12.15822      -6.58314      15.82695
                        -----------------------------------------
Total Dipole Moment    :      0.28153      -0.25302       0.29448
                        -----------------------------------------
Magnitude (a.u.)       :      0.47958
Magnitude (Debye)      :      1.21900

Rotational constants in cm-1:     0.019738     0.007245     0.006132
Rotational constants in MHz :   591.718978   217.198801   183.837049

                             ****ORCA TERMINATED NORMALLY****
TOTAL RUN TIME: 0 days 0 hours 0 minutes 27 seconds 420 msec
