                         Program Version 4.2.1 -  RELEASE  -
|  1> ! wB97X-D3 SP def2-SVP
|  2> %pal
|  3> nprocs 16
|  4> end
|  5>
|  6> * xyz 0 1
|  7> S 	 49.1739 	 11.3806 	 78.8784
|  8> C 	 47.9618 	 10.3393 	 79.5411
|  9> C 	 47.3341 	 11.0153 	 80.575
| 10> C 	 47.9512 	 12.2457 	 80.897
| 11> C 	 48.8152 	 12.6854 	 79.9737
| 12> H 	 47.5765 	 12.8788 	 81.7231
| 13> C 	 46.2566 	 10.4153 	 81.4368
| 14> H 	 46.6887 	 10.109 	 82.4253
| 15> H 	 46.0719 	 9.43077 	 81.0063
| 16> C 	 44.9596 	 11.3041 	 81.5066
| 17> H 	 45.1969 	 12.1868 	 82.0834
| 18> H 	 44.7016 	 11.7157 	 80.5568
| 19> C 	 43.872 	 10.4669 	 82.1414
| 20> H 	 43.4482 	 9.65522 	 81.4004
| 21> H 	 44.2575 	 9.81244 	 82.9226
| 22> H 	 43.0249 	 11.0882 	 82.4713
| 23> S 	 51.2308 	 13.9997 	 79.371
| 24> C 	 51.216 	 15.7419 	 79.6504
| 25> C 	 49.9493 	 16.343 	 79.7096
| 26> C 	 48.9836 	 15.2964 	 79.9335
| 27> C 	 49.5082 	 13.9755 	 79.8534
| 28> H 	 49.8284 	 17.4691 	 79.685
| 29> C 	 47.5397 	 15.6097 	 80.2604
| 30> H 	 47.036 	 14.7097 	 80.0253
| 31> H 	 47.1616 	 16.4838 	 79.7002
| 32> C 	 47.4527 	 15.8953 	 81.7739
| 33> H 	 47.7736 	 16.9126 	 82.0071
| 34> H 	 48.2841 	 15.3578 	 82.2539
| 35> C 	 46.1296 	 15.447 	 82.4614
| 36> H 	 45.1843 	 15.6823 	 81.909
| 37> H 	 46.0962 	 15.8869 	 83.4392
| 38> H 	 46.2883 	 14.3677 	 82.6702
| 39> H 	 47.6665 	 9.40024 	 79.1876
| 40> H 	 52.1913 	 16.2359 	 79.5452
| 41> *
| 42>
| 43>                          ****END OF INPUT****

CARTESIAN COORDINATES (ANGSTROEM)
---------------------------------
  S     49.173900   11.380600   78.878400
  C     47.961800   10.339300   79.541100
  C     47.334100   11.015300   80.575000
  C     47.951200   12.245700   80.897000
  C     48.815200   12.685400   79.973700
  H     47.576500   12.878800   81.723100
  C     46.256600   10.415300   81.436800
  H     46.688700   10.109000   82.425300
  H     46.071900    9.430770   81.006300
  C     44.959600   11.304100   81.506600
  H     45.196900   12.186800   82.083400
  H     44.701600   11.715700   80.556800
  C     43.872000   10.466900   82.141400
  H     43.448200    9.655220   81.400400
  H     44.257500    9.812440   82.922600
  H     43.024900   11.088200   82.471300
  S     51.230800   13.999700   79.371000
  C     51.216000   15.741900   79.650400
  C     49.949300   16.343000   79.709600
  C     48.983600   15.296400   79.933500
  C     49.508200   13.975500   79.853400
  H     49.828400   17.469100   79.685000
  C     47.539700   15.609700   80.260400
  H     47.036000   14.709700   80.025300
  H     47.161600   16.483800   79.700200
  C     47.452700   15.895300   81.773900
  H     47.773600   16.912600   82.007100
  H     48.284100   15.357800   82.253900
  C     46.129600   15.447000   82.461400
  H     45.184300   15.682300   81.909000
  H     46.096200   15.886900   83.439200
  H     46.288300   14.367700   82.670200
  H     47.666500    9.400240   79.187600
  H     52.191300   16.235900   79.545200

 Total Charge           Charge          ....    0
 Multiplicity           Mult            ....    1
 Number of Electrons    NEL             ....  134
 Basis Dimension        Dim             ....  322

ORBITAL ENERGIES
----------------

  NO   OCC          E(Eh)            E(eV)
   0   2.0000     -88.968307     -2420.9507
   1   2.0000     -88.960708     -2420.7439
   2   2.0000     -10.331677      -281.1392
   3   2.0000     -10.326418      -280.9961
   4   2.0000     -10.325586      -280.9735
   5   2.0000     -10.311997      -280.6037
   6   2.0000     -10.308245      -280.5016
   7   2.0000     -10.307394      -280.4784
   8   2.0000     -10.293796      -280.1084
   9   2.0000     -10.293328      -280.0957
  10   2.0000     -10.288976      -279.9773
  11   2.0000     -10.287873      -279.9473
  12   2.0000     -10.287104      -279.9263
  13   2.0000     -10.287094      -279.9261
  14   2.0000     -10.287001      -279.9235
  15   2.0000     -10.286535      -279.9109
  16   2.0000      -8.082378      -219.9327
  17   2.0000      -8.076267      -219.7664
  18   2.0000      -6.040789      -164.3782
  19   2.0000      -6.037314      -164.2837
  20   2.0000      -6.034863      -164.2170
  21   2.0000      -6.032954      -164.1650
  22   2.0000      -6.030617      -164.1014
  23   2.0000      -6.026928      -164.0010
  24   2.0000      -1.009024       -27.4569
  25   2.0000      -0.982066       -26.7234
  26   2.0000      -0.910511       -24.7763
  27   2.0000      -0.908601       -24.7243
  28   2.0000      -0.868215       -23.6253
  29   2.0000      -0.850071       -23.1316
  30   2.0000      -0.845094       -22.9962
  31   2.0000      -0.816578       -22.2202
  32   2.0000      -0.780474       -21.2378
  33   2.0000      -0.762676       -20.7535
  34   2.0000      -0.711243       -19.3539
  35   2.0000      -0.699374       -19.0309
  36   2.0000      -0.694001       -18.8847
  37   2.0000      -0.658435       -17.9169
  38   2.0000      -0.642632       -17.4869
  39   2.0000      -0.623342       -16.9620
  40   2.0000      -0.593695       -16.1553
  41   2.0000      -0.568687       -15.4748
  42   2.0000      -0.563782       -15.3413
  43   2.0000      -0.551454       -15.0058
  44   2.0000      -0.531903       -14.4738
  45   2.0000      -0.524933       -14.2842
  46   2.0000      -0.521521       -14.1913
  47   2.0000      -0.507006       -13.7963
  48   2.0000      -0.504359       -13.7243
  49   2.0000      -0.498618       -13.5681
  50   2.0000      -0.489729       -13.3262
  51   2.0000      -0.484538       -13.1849
  52   2.0000      -0.472079       -12.8459
  53   2.0000      -0.467199       -12.7131
  54   2.0000      -0.459424       -12.5016
  55   2.0000      -0.449696       -12.2368
  56   2.0000      -0.444013       -12.0822
  57   2.0000      -0.440531       -11.9874
  58   2.0000      -0.434048       -11.8111
  59   2.0000      -0.423075       -11.5125
  60   2.0000      -0.417522       -11.3614
  61   2.0000      -0.414453       -11.2778
  62   2.0000      -0.408094       -11.1048
  63   2.0000      -0.352014        -9.5788
  64   2.0000      -0.332661        -9.0522
  65   2.0000      -0.326510        -8.8848
  66   2.0000      -0.284791        -7.7496
  67   0.0000       0.026557         0.7227
  68   0.0000       0.066607         1.8125
  69   0.0000       0.101689         2.7671
  70   0.0000       0.120449         3.2776
  71   0.0000       0.131925         3.5899

MULLIKEN ATOMIC CHARGES
-----------------------
   0 S :    0.093747
   1 C :   -0.080989
   2 C :   -0.124060
   3 C :    0.026019
   4 C :   -0.118802
   5 H :   -0.007717
   6 C :    0.035822
   7 H :    0.045659
   8 H :    0.001654
   9 C :   -0.038412
  10 H :    0.021728
  11 H :    0.028259
  12 C :   -0.070558
  13 H :    0.039952
  14 H :    0.032238
  15 H :    0.043247
  16 S :    0.103855
  17 C :   -0.109992
  18 C :   -0.030853
  19 C :   -0.096158
  20 C :   -0.135783
  21 H :    0.055049
  22 C :    0.119185
  23 H :    0.019528
  24 H :    0.038494
  25 C :   -0.112910
  26 H :    0.020658
  27 H :    0.035744
  28 C :   -0.042082
  29 H :    0.054631
  30 H :    0.027591
  31 H :    0.035133
  32 H :    0.024454
  33 H :    0.065672
Sum of atomic charges:    0.0000000

LOEWDIN ATOMIC CHARGES
----------------------
   0 S :    0.406439
   1 C :   -0.196321
   2 C :   -0.066944
   3 C :   -0.077810
   4 C :   -0.186537
   5 H :    0.031865
   6 C :   -0.034546
   7 H :    0.038131
   8 H :    0.024291
   9 C :   -0.036707
  10 H :    0.020537
  11 H :    0.023847
  12 C :   -0.072845
  13 H :    0.035867
  14 H :    0.024383
  15 H :    0.026646
  16 S :    0.383325
  17 C :   -0.169315
  18 C :   -0.078041
  19 C :   -0.039899
  20 C :   -0.198001
  21 H :    0.049532
  22 C :   -0.027632
  23 H :    0.024142
  24 H :    0.035634
  25 C :   -0.045934
  26 H :    0.020121
  27 H :    0.026393
  28 C :   -0.068459
  29 H :    0.032529
  30 H :    0.025618
  31 H :    0.025684
  32 H :    0.018758
  33 H :    0.025249

  Mayer bond orders larger than 0.100000
B(  0-S ,  1-C ) :   1.1305 B(  0-S ,  4-C ) :   1.1475 B(  1-C ,  2-C ) :   1.6052
B(  1-C , 32-H ) :   0.9756 B(  2-C ,  3-C ) :   1.2384 B(  2-C ,  6-C ) :   1.0396
B(  3-C ,  4-C ) :   1.5817 B(  3-C ,  5-H ) :   0.9887 B(  4-C , 20-C ) :   1.0472
B(  6-C ,  7-H ) :   0.9368 B(  6-C ,  8-H ) :   0.9431 B(  6-C ,  9-C ) :   1.0388
B(  9-C , 10-H ) :   0.9507 B(  9-C , 11-H ) :   0.9580 B(  9-C , 12-C ) :   1.0839
B( 12-C , 13-H ) :   0.9737 B( 12-C , 14-H ) :   0.9713 B( 12-C , 15-H ) :   0.9731
B( 16-S , 17-C ) :   1.1694 B( 16-S , 20-C ) :   1.1213 B( 17-C , 18-C ) :   1.5973
B( 17-C , 20-C ) :   0.1070 B( 17-C , 33-H ) :   0.9646 B( 18-C , 19-C ) :   1.2236
B( 18-C , 21-H ) :   0.9838 B( 19-C , 20-C ) :   1.5829 B( 19-C , 22-C ) :   1.0601
B( 22-C , 23-H ) :   0.9298 B( 22-C , 24-H ) :   0.9351 B( 22-C , 25-C ) :   1.0376
B( 25-C , 26-H ) :   0.9546 B( 25-C , 27-H ) :   0.9600 B( 25-C , 28-C ) :   1.0747
B( 28-C , 29-H ) :   0.9753 B( 28-C , 30-H ) :   0.9651 B( 28-C , 31-H ) :   0.9754

Dispersion correction           -0.015259319
FINAL SINGLE POINT ENERGY     -1339.867981470941

DIPOLE MOMENT
-------------
                                X             Y             Z
Electronic contribution:     28.05116      -1.81982     -17.37718
Nuclear contribution   :    -28.54872       2.17961      17.75244
                        -----------------------------------------
Total Dipole Moment    :     -0.49756       0.35979       0.37526
                        -----------------------------------------
Magnitude (a.u.)       :      0.71961
Magnitude (Debye)      :      1.82910

Rotational constants in cm-1:     0.019333     0.009610     0.006694
Rotational constants in MHz :   579.589960   288.108833   200.679226

                             ****ORCA TERMINATED NORMALLY****
TOTAL RUN TIME: 0 days 0 hours 0 minutes 34 seconds 151 msec
