                         Program Version 4.2.1 -  RELEASE  -
|  1> ! wB97X-D3 SP def2-SVP
|  2> %pal
|  3> nprocs 16
|  4> end
|  5>
|  6> * xyz 0 1
|  7> S 	 9.6825 	 23.6013 	 36.4442
|  8> C 	 8.33751 	 24.755 	 36.6211
|  9> C 	 7.13187 	 24.1677 	 36.9591
| 10> C 	 7.2503 	 22.7674 	 37.042
| 11> C 	 8.55233 	 22.2584 	 36.8382
| 12> H 	 6.44269 	 22.1544 	 37.3409
| 13> C 	 5.85142 	 24.9035 	 37.1239
| 14> H 	 5.95369 	 25.9501 	 37.3793
| 15> H 	 5.43315 	 24.5583 	 38.0724
| 16> C 	 4.73668 	 24.4852 	 36.0505
| 17> H 	 5.04777 	 24.4878 	 35.0569
| 18> H 	 4.38178 	 23.5096 	 36.2363
| 19> C 	 3.40685 	 25.3549 	 36.1809
| 20> H 	 3.02633 	 25.5437 	 37.222
| 21> H 	 3.59278 	 26.3033 	 35.686
| 22> H 	 2.48952 	 24.9697 	 35.7546
| 23> S 	 10.637 	 20.5096 	 36.2875
| 24> C 	 10.4475 	 18.7963 	 36.505
| 25> C 	 9.09652 	 18.4686 	 36.4307
| 26> C 	 8.28759 	 19.6169 	 36.7266
| 27> C 	 8.94769 	 20.8468 	 36.6877
| 28> H 	 8.75954 	 17.4198 	 36.4157
| 29> C 	 6.81074 	 19.4526 	 36.7549
| 30> H 	 6.31908 	 18.5524 	 36.3408
| 31> H 	 6.40508 	 20.3219 	 36.2482
| 32> C 	 6.16656 	 19.345 	 38.1197
| 33> H 	 6.53892 	 20.1996 	 38.7175
| 34> H 	 6.68398 	 18.494 	 38.5235
| 35> C 	 4.6787 	 19.1128 	 38.2144
| 36> H 	 4.31011 	 18.3328 	 37.5228
| 37> H 	 4.08256 	 19.9888 	 38.085
| 38> H 	 4.368 	 18.6836 	 39.2011
| 39> H 	 8.37011 	 25.8112 	 36.4967
| 40> H 	 11.2315 	 18.0919 	 36.1903
| 41> *
| 42>
| 43>                          ****END OF INPUT****

CARTESIAN COORDINATES (ANGSTROEM)
---------------------------------
  S      9.682500   23.601300   36.444200
  C      8.337510   24.755000   36.621100
  C      7.131870   24.167700   36.959100
  C      7.250300   22.767400   37.042000
  C      8.552330   22.258400   36.838200
  H      6.442690   22.154400   37.340900
  C      5.851420   24.903500   37.123900
  H      5.953690   25.950100   37.379300
  H      5.433150   24.558300   38.072400
  C      4.736680   24.485200   36.050500
  H      5.047770   24.487800   35.056900
  H      4.381780   23.509600   36.236300
  C      3.406850   25.354900   36.180900
  H      3.026330   25.543700   37.222000
  H      3.592780   26.303300   35.686000
  H      2.489520   24.969700   35.754600
  S     10.637000   20.509600   36.287500
  C     10.447500   18.796300   36.505000
  C      9.096520   18.468600   36.430700
  C      8.287590   19.616900   36.726600
  C      8.947690   20.846800   36.687700
  H      8.759540   17.419800   36.415700
  C      6.810740   19.452600   36.754900
  H      6.319080   18.552400   36.340800
  H      6.405080   20.321900   36.248200
  C      6.166560   19.345000   38.119700
  H      6.538920   20.199600   38.717500
  H      6.683980   18.494000   38.523500
  C      4.678700   19.112800   38.214400
  H      4.310110   18.332800   37.522800
  H      4.082560   19.988800   38.085000
  H      4.368000   18.683600   39.201100
  H      8.370110   25.811200   36.496700
  H     11.231500   18.091900   36.190300

 Total Charge           Charge          ....    0
 Multiplicity           Mult            ....    1
 Number of Electrons    NEL             ....  134
 Basis Dimension        Dim             ....  322

ORBITAL ENERGIES
----------------

  NO   OCC          E(Eh)            E(eV)
   0   2.0000     -88.973631     -2421.0956
   1   2.0000     -88.964666     -2420.8516
   2   2.0000     -10.343871      -281.4710
   3   2.0000     -10.336417      -281.2682
   4   2.0000     -10.320193      -280.8267
   5   2.0000     -10.315481      -280.6985
   6   2.0000     -10.306190      -280.4457
   7   2.0000     -10.300758      -280.2979
   8   2.0000     -10.300363      -280.2871
   9   2.0000     -10.299519      -280.2642
  10   2.0000     -10.296340      -280.1777
  11   2.0000     -10.292773      -280.0806
  12   2.0000     -10.285647      -279.8867
  13   2.0000     -10.284551      -279.8569
  14   2.0000     -10.283303      -279.8229
  15   2.0000     -10.281648      -279.7779
  16   2.0000      -8.086714      -220.0507
  17   2.0000      -8.079653      -219.8585
  18   2.0000      -6.045494      -164.5063
  19   2.0000      -6.041558      -164.3992
  20   2.0000      -6.038235      -164.3087
  21   2.0000      -6.037174      -164.2799
  22   2.0000      -6.034247      -164.2002
  23   2.0000      -6.030197      -164.0900
  24   2.0000      -1.005490       -27.3608
  25   2.0000      -0.983266       -26.7560
  26   2.0000      -0.917862       -24.9763
  27   2.0000      -0.907355       -24.6904
  28   2.0000      -0.867301       -23.6004
  29   2.0000      -0.854933       -23.2639
  30   2.0000      -0.845769       -23.0146
  31   2.0000      -0.816176       -22.2093
  32   2.0000      -0.784547       -21.3486
  33   2.0000      -0.774625       -21.0786
  34   2.0000      -0.717940       -19.5361
  35   2.0000      -0.706470       -19.2240
  36   2.0000      -0.691994       -18.8301
  37   2.0000      -0.667603       -18.1664
  38   2.0000      -0.638011       -17.3612
  39   2.0000      -0.627622       -17.0785
  40   2.0000      -0.600959       -16.3529
  41   2.0000      -0.573593       -15.6082
  42   2.0000      -0.569595       -15.4995
  43   2.0000      -0.557268       -15.1640
  44   2.0000      -0.524350       -14.2683
  45   2.0000      -0.522158       -14.2086
  46   2.0000      -0.516444       -14.0532
  47   2.0000      -0.513547       -13.9743
  48   2.0000      -0.504145       -13.7185
  49   2.0000      -0.500263       -13.6128
  50   2.0000      -0.494130       -13.4460
  51   2.0000      -0.483966       -13.1694
  52   2.0000      -0.472887       -12.8679
  53   2.0000      -0.467143       -12.7116
  54   2.0000      -0.461215       -12.5503
  55   2.0000      -0.455358       -12.3909
  56   2.0000      -0.447451       -12.1758
  57   2.0000      -0.438124       -11.9220
  58   2.0000      -0.433687       -11.8012
  59   2.0000      -0.425030       -11.5657
  60   2.0000      -0.421559       -11.4712
  61   2.0000      -0.415003       -11.2928
  62   2.0000      -0.409596       -11.1457
  63   2.0000      -0.363274        -9.8852
  64   2.0000      -0.337076        -9.1723
  65   2.0000      -0.326879        -8.8948
  66   2.0000      -0.280180        -7.6241
  67   0.0000       0.009914         0.2698
  68   0.0000       0.075597         2.0571
  69   0.0000       0.088550         2.4096
  70   0.0000       0.111662         3.0385
  71   0.0000       0.129773         3.5313

MULLIKEN ATOMIC CHARGES
-----------------------
   0 S :    0.103830
   1 C :   -0.103472
   2 C :   -0.061504
   3 C :   -0.012483
   4 C :   -0.075807
   5 H :   -0.009149
   6 C :    0.074496
   7 H :    0.022187
   8 H :    0.020472
   9 C :   -0.032392
  10 H :    0.030841
  11 H :    0.021241
  12 C :   -0.089768
  13 H :    0.030501
  14 H :    0.035834
  15 H :    0.030145
  16 S :    0.078226
  17 C :   -0.089664
  18 C :   -0.034221
  19 C :   -0.070988
  20 C :   -0.091022
  21 H :    0.039158
  22 C :    0.018823
  23 H :    0.015651
  24 H :    0.022601
  25 C :   -0.080722
  26 H :    0.027397
  27 H :    0.010238
  28 C :   -0.023814
  29 H :    0.025671
  30 H :    0.026956
  31 H :    0.036871
  32 H :    0.029992
  33 H :    0.073877
Sum of atomic charges:   -0.0000000

LOEWDIN ATOMIC CHARGES
----------------------
   0 S :    0.377113
   1 C :   -0.179871
   2 C :   -0.063953
   3 C :   -0.057753
   4 C :   -0.167395
   5 H :    0.022705
   6 C :   -0.030341
   7 H :    0.030863
   8 H :    0.036391
   9 C :   -0.020008
  10 H :    0.018000
  11 H :    0.018604
  12 C :   -0.075572
  13 H :    0.028695
  14 H :    0.023177
  15 H :    0.023932
  16 S :    0.397596
  17 C :   -0.192701
  18 C :   -0.065473
  19 C :   -0.061061
  20 C :   -0.181390
  21 H :    0.038142
  22 C :   -0.040972
  23 H :    0.032573
  24 H :    0.022336
  25 C :   -0.049180
  26 H :    0.021464
  27 H :    0.021457
  28 C :   -0.068059
  29 H :    0.027501
  30 H :    0.020159
  31 H :    0.035680
  32 H :    0.022856
  33 H :    0.034486

  Mayer bond orders larger than 0.100000
B(  0-S ,  1-C ) :   1.1231 B(  0-S ,  4-C ) :   1.1294 B(  1-C ,  2-C ) :   1.6179
B(  1-C , 32-H ) :   0.9639 B(  2-C ,  3-C ) :   1.2533 B(  2-C ,  6-C ) :   1.0428
B(  3-C ,  4-C ) :   1.5473 B(  3-C ,  5-H ) :   0.9893 B(  4-C , 20-C ) :   1.0961
B(  6-C ,  7-H ) :   0.9487 B(  6-C ,  8-H ) :   0.9260 B(  6-C ,  9-C ) :   1.0349
B(  9-C , 10-H ) :   0.9678 B(  9-C , 11-H ) :   0.9580 B(  9-C , 12-C ) :   1.0678
B( 12-C , 13-H ) :   0.9764 B( 12-C , 14-H ) :   0.9812 B( 12-C , 15-H ) :   0.9783
B( 16-S , 17-C ) :   1.1684 B( 16-S , 20-C ) :   1.1248 B( 17-C , 18-C ) :   1.5879
B( 17-C , 33-H ) :   0.9588 B( 18-C , 19-C ) :   1.2662 B( 18-C , 21-H ) :   0.9810
B( 19-C , 20-C ) :   1.5600 B( 19-C , 22-C ) :   1.0519 B( 22-C , 23-H ) :   0.9416
B( 22-C , 24-H ) :   0.9355 B( 22-C , 25-C ) :   1.0470 B( 25-C , 26-H ) :   0.9502
B( 25-C , 27-H ) :   0.9502 B( 25-C , 28-C ) :   1.0890 B( 28-C , 29-H ) :   0.9662
B( 28-C , 30-H ) :   0.9739 B( 28-C , 31-H ) :   0.9719

Dispersion correction           -0.013895324
FINAL SINGLE POINT ENERGY     -1339.852758332979

DIPOLE MOMENT
-------------
                                X             Y             Z
Electronic contribution:     33.98872      -0.57725      -4.61879
Nuclear contribution   :    -34.81286       0.43265       4.60469
                        -----------------------------------------
Total Dipole Moment    :     -0.82414      -0.14460      -0.01410
                        -----------------------------------------
Magnitude (a.u.)       :      0.83685
Magnitude (Debye)      :      2.12710

Rotational constants in cm-1:     0.017124     0.009299     0.006311
Rotational constants in MHz :   513.377469   278.767142   189.206744

                             ****ORCA TERMINATED NORMALLY****
TOTAL RUN TIME: 0 days 0 hours 0 minutes 34 seconds 969 msec
