                         Program Version 4.2.1 -  RELEASE  -
|  1> ! wB97X-D3 SP def2-SVP
|  2> %pal
|  3> nprocs 16
|  4> end
|  5>
|  6> * xyz 0 1
|  7> S 	 -59.1608 	 17.6519 	 86.323
|  8> C 	 -58.7889 	 16.6219 	 87.7114
|  9> C 	 -58.1784 	 17.3381 	 88.7243
| 10> C 	 -57.9686 	 18.6866 	 88.3618
| 11> C 	 -58.4179 	 19.0295 	 87.11
| 12> H 	 -57.4449 	 19.3634 	 88.984
| 13> C 	 -57.5341 	 16.7582 	 89.9481
| 14> H 	 -56.4381 	 16.91 	 89.9018
| 15> H 	 -57.7231 	 15.7133 	 90.1952
| 16> C 	 -58.074 	 17.486 	 91.1881
| 17> H 	 -57.4158 	 17.2508 	 92.0214
| 18> H 	 -58.0719 	 18.6118 	 91.1265
| 19> C 	 -59.5714 	 17.048 	 91.5763
| 20> H 	 -59.5569 	 16.0054 	 91.9326
| 21> H 	 -59.9118 	 17.6916 	 92.4125
| 22> H 	 -60.2786 	 17.0791 	 90.7873
| 23> S 	 -58.3128 	 20.3172 	 84.6522
| 24> C 	 -58.4571 	 22.0537 	 84.6291
| 25> C 	 -58.4203 	 22.6063 	 85.8261
| 26> C 	 -58.2992 	 21.6214 	 86.8981
| 27> C 	 -58.4129 	 20.3172 	 86.42
| 28> H 	 -58.657 	 23.6738 	 85.9206
| 29> C 	 -58.4239 	 22.0496 	 88.3477
| 30> H 	 -58.274 	 23.0767 	 88.1535
| 31> H 	 -57.6121 	 21.8042 	 89.0185
| 32> C 	 -59.7923 	 21.74 	 88.9789
| 33> H 	 -59.8628 	 20.6976 	 89.0883
| 34> H 	 -60.7008 	 21.9515 	 88.3466
| 35> C 	 -59.9481 	 22.4356 	 90.3759
| 36> H 	 -59.8848 	 23.5312 	 90.2539
| 37> H 	 -59.2472 	 22.081 	 91.0102
| 38> H 	 -60.8362 	 22.1944 	 90.8694
| 39> H 	 -58.8651 	 15.5683 	 87.7013
| 40> H 	 -58.5198 	 22.6214 	 83.6742
| 41> *
| 42>
| 43>                          ****END OF INPUT****

CARTESIAN COORDINATES (ANGSTROEM)
---------------------------------
  S    -59.160800   17.651900   86.323000
  C    -58.788900   16.621900   87.711400
  C    -58.178400   17.338100   88.724300
  C    -57.968600   18.686600   88.361800
  C    -58.417900   19.029500   87.110000
  H    -57.444900   19.363400   88.984000
  C    -57.534100   16.758200   89.948100
  H    -56.438100   16.910000   89.901800
  H    -57.723100   15.713300   90.195200
  C    -58.074000   17.486000   91.188100
  H    -57.415800   17.250800   92.021400
  H    -58.071900   18.611800   91.126500
  C    -59.571400   17.048000   91.576300
  H    -59.556900   16.005400   91.932600
  H    -59.911800   17.691600   92.412500
  H    -60.278600   17.079100   90.787300
  S    -58.312800   20.317200   84.652200
  C    -58.457100   22.053700   84.629100
  C    -58.420300   22.606300   85.826100
  C    -58.299200   21.621400   86.898100
  C    -58.412900   20.317200   86.420000
  H    -58.657000   23.673800   85.920600
  C    -58.423900   22.049600   88.347700
  H    -58.274000   23.076700   88.153500
  H    -57.612100   21.804200   89.018500
  C    -59.792300   21.740000   88.978900
  H    -59.862800   20.697600   89.088300
  H    -60.700800   21.951500   88.346600
  C    -59.948100   22.435600   90.375900
  H    -59.884800   23.531200   90.253900
  H    -59.247200   22.081000   91.010200
  H    -60.836200   22.194400   90.869400
  H    -58.865100   15.568300   87.701300
  H    -58.519800   22.621400   83.674200

 Total Charge           Charge          ....    0
 Multiplicity           Mult            ....    1
 Number of Electrons    NEL             ....  134
 Basis Dimension        Dim             ....  322

ORBITAL ENERGIES
----------------

  NO   OCC          E(Eh)            E(eV)
   0   2.0000     -88.965693     -2420.8796
   1   2.0000     -88.962230     -2420.7853
   2   2.0000     -10.331654      -281.1386
   3   2.0000     -10.329028      -281.0671
   4   2.0000     -10.314100      -280.6609
   5   2.0000     -10.311975      -280.6031
   6   2.0000     -10.306557      -280.4557
   7   2.0000     -10.300001      -280.2773
   8   2.0000     -10.296431      -280.1801
   9   2.0000     -10.294835      -280.1367
  10   2.0000     -10.292683      -280.0782
  11   2.0000     -10.289612      -279.9946
  12   2.0000     -10.287927      -279.9487
  13   2.0000     -10.284729      -279.8617
  14   2.0000     -10.280664      -279.7511
  15   2.0000     -10.267077      -279.3814
  16   2.0000      -8.080228      -219.8742
  17   2.0000      -8.077308      -219.7947
  18   2.0000      -6.038767      -164.3232
  19   2.0000      -6.035915      -164.2456
  20   2.0000      -6.034827      -164.2160
  21   2.0000      -6.031921      -164.1369
  22   2.0000      -6.030901      -164.1092
  23   2.0000      -6.027800      -164.0248
  24   2.0000      -1.008262       -27.4362
  25   2.0000      -0.986600       -26.8467
  26   2.0000      -0.912639       -24.8342
  27   2.0000      -0.907958       -24.7068
  28   2.0000      -0.869179       -23.6516
  29   2.0000      -0.850390       -23.1403
  30   2.0000      -0.841321       -22.8935
  31   2.0000      -0.817782       -22.2530
  32   2.0000      -0.784765       -21.3545
  33   2.0000      -0.774878       -21.0855
  34   2.0000      -0.716526       -19.4977
  35   2.0000      -0.701766       -19.0960
  36   2.0000      -0.691111       -18.8061
  37   2.0000      -0.659838       -17.9551
  38   2.0000      -0.639920       -17.4131
  39   2.0000      -0.632068       -17.1995
  40   2.0000      -0.599445       -16.3117
  41   2.0000      -0.569031       -15.4841
  42   2.0000      -0.559363       -15.2210
  43   2.0000      -0.550506       -14.9800
  44   2.0000      -0.533662       -14.5217
  45   2.0000      -0.523928       -14.2568
  46   2.0000      -0.516767       -14.0619
  47   2.0000      -0.512042       -13.9334
  48   2.0000      -0.502420       -13.6716
  49   2.0000      -0.497461       -13.5366
  50   2.0000      -0.492387       -13.3985
  51   2.0000      -0.488606       -13.2956
  52   2.0000      -0.474362       -12.9080
  53   2.0000      -0.464663       -12.6441
  54   2.0000      -0.458096       -12.4654
  55   2.0000      -0.446905       -12.1609
  56   2.0000      -0.443951       -12.0805
  57   2.0000      -0.442957       -12.0535
  58   2.0000      -0.436414       -11.8754
  59   2.0000      -0.424426       -11.5492
  60   2.0000      -0.421443       -11.4681
  61   2.0000      -0.417350       -11.3567
  62   2.0000      -0.409965       -11.1557
  63   2.0000      -0.359924        -9.7940
  64   2.0000      -0.333887        -9.0855
  65   2.0000      -0.328994        -8.9524
  66   2.0000      -0.287086        -7.8120
  67   0.0000       0.021066         0.5732
  68   0.0000       0.081366         2.2141
  69   0.0000       0.106530         2.8988
  70   0.0000       0.120225         3.2715
  71   0.0000       0.125298         3.4095

MULLIKEN ATOMIC CHARGES
-----------------------
   0 S :    0.095033
   1 C :   -0.106026
   2 C :   -0.059050
   3 C :    0.005544
   4 C :   -0.111644
   5 H :   -0.010992
   6 C :    0.073174
   7 H :    0.049756
   8 H :    0.022367
   9 C :   -0.127939
  10 H :    0.027674
  11 H :    0.035654
  12 C :   -0.058825
  13 H :    0.028313
  14 H :    0.040466
  15 H :    0.037067
  16 S :    0.085693
  17 C :   -0.090566
  18 C :   -0.033980
  19 C :   -0.067354
  20 C :   -0.110969
  21 H :    0.034534
  22 C :    0.068126
  23 H :   -0.002350
  24 H :    0.030438
  25 C :   -0.068205
  26 H :    0.021896
  27 H :    0.036705
  28 C :    0.004774
  29 H :    0.035582
  30 H :    0.000093
  31 H :    0.015678
  32 H :    0.032055
  33 H :    0.067278
Sum of atomic charges:   -0.0000000

LOEWDIN ATOMIC CHARGES
----------------------
   0 S :    0.394525
   1 C :   -0.185272
   2 C :   -0.061035
   3 C :   -0.061407
   4 C :   -0.180063
   5 H :    0.022772
   6 C :   -0.031625
   7 H :    0.038713
   8 H :    0.031262
   9 C :   -0.042055
  10 H :    0.020828
  11 H :    0.022040
  12 C :   -0.065308
  13 H :    0.024245
  14 H :    0.030159
  15 H :    0.018849
  16 S :    0.383972
  17 C :   -0.182059
  18 C :   -0.081039
  19 C :   -0.050900
  20 C :   -0.185803
  21 H :    0.040441
  22 C :   -0.034308
  23 H :    0.024387
  24 H :    0.028944
  25 C :   -0.032397
  26 H :    0.016139
  27 H :    0.032295
  28 C :   -0.052760
  29 H :    0.029269
  30 H :    0.008812
  31 H :    0.020262
  32 H :    0.019640
  33 H :    0.038478

  Mayer bond orders larger than 0.100000
B(  0-S ,  1-C ) :   1.1265 B(  0-S ,  4-C ) :   1.1498 B(  1-C ,  2-C ) :   1.6087
B(  1-C , 32-H ) :   0.9739 B(  2-C ,  3-C ) :   1.2382 B(  2-C ,  6-C ) :   1.0325
B(  3-C ,  4-C ) :   1.5706 B(  3-C ,  5-H ) :   0.9997 B(  4-C , 20-C ) :   1.0635
B(  6-C ,  7-H ) :   0.9425 B(  6-C ,  8-H ) :   0.9450 B(  6-C ,  9-C ) :   1.0552
B(  9-C , 10-H ) :   0.9571 B(  9-C , 11-H ) :   0.9623 B(  9-C , 12-C ) :   1.0607
B( 12-C , 13-H ) :   0.9753 B( 12-C , 14-H ) :   0.9771 B( 12-C , 15-H ) :   0.9809
B( 16-S , 17-C ) :   1.1314 B( 16-S , 20-C ) :   1.1247 B( 17-C , 18-C ) :   1.6808
B( 17-C , 33-H ) :   0.9555 B( 18-C , 19-C ) :   1.2068 B( 18-C , 21-H ) :   0.9787
B( 19-C , 20-C ) :   1.6117 B( 19-C , 22-C ) :   1.0401 B( 22-C , 23-H ) :   0.9318
B( 22-C , 24-H ) :   0.9294 B( 22-C , 25-C ) :   1.0545 B( 25-C , 26-H ) :   0.9520
B( 25-C , 27-H ) :   0.9574 B( 25-C , 28-C ) :   1.0820 B( 28-C , 29-H ) :   0.9794
B( 28-C , 30-H ) :   0.9713 B( 28-C , 31-H ) :   0.9714

Dispersion correction           -0.014999767
FINAL SINGLE POINT ENERGY     -1339.874505853641

DIPOLE MOMENT
-------------
                                X             Y             Z
Electronic contribution:      3.52085      -3.98364     -30.90064
Nuclear contribution   :     -3.41145       4.19751      31.51368
                        -----------------------------------------
Total Dipole Moment    :      0.10940       0.21387       0.61305
                        -----------------------------------------
Magnitude (a.u.)       :      0.65843
Magnitude (Debye)      :      1.67360

Rotational constants in cm-1:     0.018648     0.010046     0.007098
Rotational constants in MHz :   559.057681   301.172351   212.799371

                             ****ORCA TERMINATED NORMALLY****
TOTAL RUN TIME: 0 days 0 hours 0 minutes 32 seconds 12 msec
