                         Program Version 4.2.1 -  RELEASE  -
|  1> ! wB97X-D3 SP def2-SVP
|  2> %pal
|  3> nprocs 16
|  4> end
|  5>
|  6> * xyz 0 1
|  7> S 	 39.5922 	 14.4797 	 50.272
|  8> C 	 40.2772 	 15.0103 	 51.6708
|  9> C 	 41.6774 	 14.8731 	 51.7027
| 10> C 	 42.0782 	 13.9147 	 50.716
| 11> C 	 41.0794 	 13.5725 	 49.8445
| 12> H 	 43.0581 	 13.4959 	 50.6691
| 13> C 	 42.5674 	 15.4131 	 52.8218
| 14> H 	 43.1867 	 14.5832 	 53.0974
| 15> H 	 42.0003 	 15.5631 	 53.6562
| 16> C 	 43.2699 	 16.7042 	 52.499
| 17> H 	 44.0497 	 16.4569 	 51.8596
| 18> H 	 42.6127 	 17.3593 	 51.9449
| 19> C 	 43.7545 	 17.5129 	 53.745
| 20> H 	 42.9589 	 17.945 	 54.3898
| 21> H 	 44.318 	 16.789 	 54.393
| 22> H 	 44.4039 	 18.3621 	 53.5271
| 23> S 	 39.7545 	 11.355 	 49.1471
| 24> C 	 40.3657 	 10.385 	 47.8321
| 25> C 	 41.5404 	 10.8378 	 47.3851
| 26> C 	 42.0363 	 11.9595 	 48.0698
| 27> C 	 41.1203 	 12.4238 	 49.0054
| 28> H 	 42.024 	 10.3191 	 46.595
| 29> C 	 43.2989 	 12.7867 	 47.6924
| 30> H 	 43.0809 	 13.8397 	 48.0313
| 31> H 	 43.4535 	 12.8826 	 46.605
| 32> C 	 44.6195 	 12.3284 	 48.2276
| 33> H 	 44.6666 	 12.4988 	 49.3151
| 34> H 	 45.355 	 12.9933 	 47.7875
| 35> C 	 45.0497 	 10.827 	 47.8524
| 36> H 	 44.3387 	 10.2077 	 48.461
| 37> H 	 46.0222 	 10.3823 	 48.0046
| 38> H 	 44.7635 	 10.5983 	 46.7528
| 39> H 	 39.7764 	 15.6938 	 52.3465
| 40> H 	 39.9474 	 9.4259 	 47.5674
| 41> *
| 42>
| 43>                          ****END OF INPUT****

CARTESIAN COORDINATES (ANGSTROEM)
---------------------------------
  S     39.592200   14.479700   50.272000
  C     40.277200   15.010300   51.670800
  C     41.677400   14.873100   51.702700
  C     42.078200   13.914700   50.716000
  C     41.079400   13.572500   49.844500
  H     43.058100   13.495900   50.669100
  C     42.567400   15.413100   52.821800
  H     43.186700   14.583200   53.097400
  H     42.000300   15.563100   53.656200
  C     43.269900   16.704200   52.499000
  H     44.049700   16.456900   51.859600
  H     42.612700   17.359300   51.944900
  C     43.754500   17.512900   53.745000
  H     42.958900   17.945000   54.389800
  H     44.318000   16.789000   54.393000
  H     44.403900   18.362100   53.527100
  S     39.754500   11.355000   49.147100
  C     40.365700   10.385000   47.832100
  C     41.540400   10.837800   47.385100
  C     42.036300   11.959500   48.069800
  C     41.120300   12.423800   49.005400
  H     42.024000   10.319100   46.595000
  C     43.298900   12.786700   47.692400
  H     43.080900   13.839700   48.031300
  H     43.453500   12.882600   46.605000
  C     44.619500   12.328400   48.227600
  H     44.666600   12.498800   49.315100
  H     45.355000   12.993300   47.787500
  C     45.049700   10.827000   47.852400
  H     44.338700   10.207700   48.461000
  H     46.022200   10.382300   48.004600
  H     44.763500   10.598300   46.752800
  H     39.776400   15.693800   52.346500
  H     39.947400    9.425900   47.567400

 Total Charge           Charge          ....    0
 Multiplicity           Mult            ....    1
 Number of Electrons    NEL             ....  134
 Basis Dimension        Dim             ....  322

ORBITAL ENERGIES
----------------

  NO   OCC          E(Eh)            E(eV)
   0   2.0000     -88.968108     -2420.9453
   1   2.0000     -88.961069     -2420.7538
   2   2.0000     -10.324906      -280.9550
   3   2.0000     -10.322272      -280.8833
   4   2.0000     -10.310055      -280.5508
   5   2.0000     -10.306946      -280.4663
   6   2.0000     -10.301113      -280.3075
   7   2.0000     -10.300223      -280.2833
   8   2.0000     -10.296503      -280.1821
   9   2.0000     -10.293384      -280.0972
  10   2.0000     -10.292424      -280.0711
  11   2.0000     -10.290342      -280.0145
  12   2.0000     -10.286543      -279.9111
  13   2.0000     -10.283694      -279.8335
  14   2.0000     -10.281464      -279.7729
  15   2.0000     -10.281167      -279.7648
  16   2.0000      -8.084238      -219.9833
  17   2.0000      -8.076425      -219.7707
  18   2.0000      -6.042509      -164.4250
  19   2.0000      -6.038629      -164.3194
  20   2.0000      -6.035058      -164.2223
  21   2.0000      -6.034802      -164.2153
  22   2.0000      -6.030848      -164.1077
  23   2.0000      -6.027262      -164.0101
  24   2.0000      -1.015021       -27.6201
  25   2.0000      -0.991848       -26.9896
  26   2.0000      -0.915262       -24.9055
  27   2.0000      -0.905005       -24.6264
  28   2.0000      -0.880217       -23.9519
  29   2.0000      -0.854187       -23.2436
  30   2.0000      -0.840450       -22.8698
  31   2.0000      -0.815697       -22.1962
  32   2.0000      -0.782061       -21.2810
  33   2.0000      -0.770948       -20.9786
  34   2.0000      -0.711815       -19.3695
  35   2.0000      -0.703291       -19.1375
  36   2.0000      -0.689932       -18.7740
  37   2.0000      -0.666330       -18.1318
  38   2.0000      -0.643820       -17.5192
  39   2.0000      -0.624810       -17.0019
  40   2.0000      -0.595045       -16.1920
  41   2.0000      -0.573172       -15.5968
  42   2.0000      -0.561783       -15.2869
  43   2.0000      -0.551372       -15.0036
  44   2.0000      -0.542452       -14.7609
  45   2.0000      -0.525760       -14.3067
  46   2.0000      -0.519988       -14.1496
  47   2.0000      -0.506412       -13.7802
  48   2.0000      -0.502618       -13.6769
  49   2.0000      -0.499943       -13.6041
  50   2.0000      -0.485649       -13.2152
  51   2.0000      -0.479016       -13.0347
  52   2.0000      -0.472150       -12.8479
  53   2.0000      -0.467549       -12.7227
  54   2.0000      -0.462954       -12.5976
  55   2.0000      -0.450669       -12.2633
  56   2.0000      -0.443846       -12.0777
  57   2.0000      -0.440678       -11.9915
  58   2.0000      -0.435001       -11.8370
  59   2.0000      -0.432589       -11.7713
  60   2.0000      -0.417826       -11.3696
  61   2.0000      -0.413720       -11.2579
  62   2.0000      -0.407724       -11.0947
  63   2.0000      -0.359384        -9.7793
  64   2.0000      -0.333233        -9.0677
  65   2.0000      -0.327065        -8.8999
  66   2.0000      -0.285352        -7.7648
  67   0.0000       0.025288         0.6881
  68   0.0000       0.076034         2.0690
  69   0.0000       0.112897         3.0721
  70   0.0000       0.123536         3.3616
  71   0.0000       0.131167         3.5692

MULLIKEN ATOMIC CHARGES
-----------------------
   0 S :    0.136378
   1 C :   -0.111212
   2 C :   -0.133800
   3 C :    0.039367
   4 C :   -0.150199
   5 H :   -0.005534
   6 C :    0.124284
   7 H :    0.018342
   8 H :   -0.017277
   9 C :   -0.026204
  10 H :    0.013058
  11 H :    0.026388
  12 C :   -0.083146
  13 H :    0.038753
  14 H :    0.032162
  15 H :    0.040455
  16 S :    0.106456
  17 C :   -0.085500
  18 C :   -0.024048
  19 C :    0.003302
  20 C :   -0.166432
  21 H :    0.002016
  22 C :    0.012334
  23 H :    0.044216
  24 H :    0.032388
  25 C :   -0.049863
  26 H :    0.031137
  27 H :    0.030568
  28 C :   -0.106150
  29 H :    0.042964
  30 H :    0.047504
  31 H :    0.034951
  32 H :    0.051717
  33 H :    0.050628
Sum of atomic charges:    0.0000000

LOEWDIN ATOMIC CHARGES
----------------------
   0 S :    0.434034
   1 C :   -0.222109
   2 C :   -0.061074
   3 C :   -0.046803
   4 C :   -0.195769
   5 H :    0.026453
   6 C :   -0.024760
   7 H :    0.029783
   8 H :    0.016552
   9 C :   -0.032633
  10 H :    0.016392
  11 H :    0.024645
  12 C :   -0.072268
  13 H :    0.027685
  14 H :    0.027357
  15 H :    0.026990
  16 S :    0.409082
  17 C :   -0.185838
  18 C :   -0.068663
  19 C :   -0.062565
  20 C :   -0.190447
  21 H :    0.027761
  22 C :   -0.036025
  23 H :    0.040433
  24 H :    0.032258
  25 C :   -0.040276
  26 H :    0.019178
  27 H :    0.023535
  28 C :   -0.082938
  29 H :    0.030171
  30 H :    0.024872
  31 H :    0.030011
  32 H :    0.026972
  33 H :    0.028006

  Mayer bond orders larger than 0.100000
B(  0-S ,  1-C ) :   1.1817 B(  0-S ,  4-C ) :   1.1354 B(  1-C ,  2-C ) :   1.5730
B(  1-C , 32-H ) :   0.9594 B(  2-C ,  3-C ) :   1.2655 B(  2-C ,  6-C ) :   1.0306
B(  3-C ,  4-C ) :   1.5436 B(  3-C ,  5-H ) :   0.9946 B(  4-C , 20-C ) :   1.0763
B(  6-C ,  7-H ) :   0.9347 B(  6-C ,  8-H ) :   0.9359 B(  6-C ,  9-C ) :   1.0506
B(  9-C , 10-H ) :   0.9548 B(  9-C , 11-H ) :   0.9584 B(  9-C , 12-C ) :   1.0764
B( 12-C , 13-H ) :   0.9758 B( 12-C , 14-H ) :   0.9758 B( 12-C , 15-H ) :   0.9766
B( 16-S , 17-C ) :   1.1371 B( 16-S , 20-C ) :   1.1572 B( 17-C , 18-C ) :   1.6214
B( 17-C , 33-H ) :   0.9664 B( 18-C , 19-C ) :   1.2433 B( 18-C , 21-H ) :   0.9993
B( 19-C , 20-C ) :   1.5743 B( 19-C , 22-C ) :   1.0209 B( 22-C , 23-H ) :   0.9327
B( 22-C , 24-H ) :   0.9439 B( 22-C , 25-C ) :   1.0852 B( 25-C , 26-H ) :   0.9527
B( 25-C , 27-H ) :   0.9533 B( 25-C , 28-C ) :   1.0487 B( 28-C , 29-H ) :   0.9743
B( 28-C , 30-H ) :   0.9801 B( 28-C , 31-H ) :   0.9754

Dispersion correction           -0.014308595
FINAL SINGLE POINT ENERGY     -1339.863268991579

DIPOLE MOMENT
-------------
                                X             Y             Z
Electronic contribution:    -26.70619      -8.34132      -6.22130
Nuclear contribution   :     27.24350       8.47581       6.37851
                        -----------------------------------------
Total Dipole Moment    :      0.53731       0.13449       0.15721
                        -----------------------------------------
Magnitude (a.u.)       :      0.57576
Magnitude (Debye)      :      1.46347

Rotational constants in cm-1:     0.019805     0.008341     0.006214
Rotational constants in MHz :   593.747334   250.053002   186.288033

                             ****ORCA TERMINATED NORMALLY****
TOTAL RUN TIME: 0 days 0 hours 0 minutes 33 seconds 218 msec
