                         Program Version 4.2.1 -  RELEASE  -
|  1> ! wB97X-D3 SP def2-SVP
|  2> %pal
|  3> nprocs 16
|  4> end
|  5>
|  6> * xyz 0 1
|  7> S 	 -114.254 	 51.6294 	 129.269
|  8> C 	 -113.556 	 53.1376 	 129.899
|  9> C 	 -112.364 	 52.8473 	 130.557
| 10> C 	 -112.067 	 51.4285 	 130.547
| 11> C 	 -112.942 	 50.6119 	 129.885
| 12> H 	 -111.215 	 51.0365 	 131.063
| 13> C 	 -111.575 	 53.7984 	 131.396
| 14> H 	 -111.516 	 53.4319 	 132.426
| 15> H 	 -112.115 	 54.7352 	 131.52
| 16> C 	 -110.131 	 54.0757 	 130.907
| 17> H 	 -109.561 	 53.1483 	 130.861
| 18> H 	 -110.168 	 54.4436 	 129.829
| 19> C 	 -109.363 	 55.0009 	 131.809
| 20> H 	 -108.303 	 55.1996 	 131.574
| 21> H 	 -109.861 	 55.9581 	 131.796
| 22> H 	 -109.298 	 54.7476 	 132.863
| 23> S 	 -111.578 	 48.2989 	 129.187
| 24> C 	 -112.327 	 46.8115 	 129.544
| 25> C 	 -113.503 	 46.8866 	 130.253
| 26> C 	 -113.861 	 48.2311 	 130.535
| 27> C 	 -112.972 	 49.1317 	 129.924
| 28> H 	 -114.171 	 46.083 	 130.508
| 29> C 	 -115.217 	 48.612 	 131.102
| 30> H 	 -115.996 	 48.036 	 130.638
| 31> H 	 -115.427 	 49.5814 	 130.676
| 32> C 	 -115.158 	 48.7666 	 132.701
| 33> H 	 -114.447 	 49.5311 	 133.058
| 34> H 	 -114.866 	 47.8232 	 133.16
| 35> C 	 -116.501 	 49.1919 	 133.327
| 36> H 	 -117.184 	 48.3411 	 133.288
| 37> H 	 -116.982 	 50.1306 	 132.909
| 38> H 	 -116.257 	 49.3906 	 134.348
| 39> H 	 -114.009 	 54.1508 	 129.911
| 40> H 	 -111.964 	 45.9385 	 129.125
| 41> *
| 42>
| 43>                          ****END OF INPUT****

CARTESIAN COORDINATES (ANGSTROEM)
---------------------------------
  S    -114.254000   51.629400  129.269000
  C    -113.556000   53.137600  129.899000
  C    -112.364000   52.847300  130.557000
  C    -112.067000   51.428500  130.547000
  C    -112.942000   50.611900  129.885000
  H    -111.215000   51.036500  131.063000
  C    -111.575000   53.798400  131.396000
  H    -111.516000   53.431900  132.426000
  H    -112.115000   54.735200  131.520000
  C    -110.131000   54.075700  130.907000
  H    -109.561000   53.148300  130.861000
  H    -110.168000   54.443600  129.829000
  C    -109.363000   55.000900  131.809000
  H    -108.303000   55.199600  131.574000
  H    -109.861000   55.958100  131.796000
  H    -109.298000   54.747600  132.863000
  S    -111.578000   48.298900  129.187000
  C    -112.327000   46.811500  129.544000
  C    -113.503000   46.886600  130.253000
  C    -113.861000   48.231100  130.535000
  C    -112.972000   49.131700  129.924000
  H    -114.171000   46.083000  130.508000
  C    -115.217000   48.612000  131.102000
  H    -115.996000   48.036000  130.638000
  H    -115.427000   49.581400  130.676000
  C    -115.158000   48.766600  132.701000
  H    -114.447000   49.531100  133.058000
  H    -114.866000   47.823200  133.160000
  C    -116.501000   49.191900  133.327000
  H    -117.184000   48.341100  133.288000
  H    -116.982000   50.130600  132.909000
  H    -116.257000   49.390600  134.348000
  H    -114.009000   54.150800  129.911000
  H    -111.964000   45.938500  129.125000

 Total Charge           Charge          ....    0
 Multiplicity           Mult            ....    1
 Number of Electrons    NEL             ....  134
 Basis Dimension        Dim             ....  322

ORBITAL ENERGIES
----------------

  NO   OCC          E(Eh)            E(eV)
   0   2.0000     -88.968192     -2420.9476
   1   2.0000     -88.965404     -2420.8717
   2   2.0000     -10.331305      -281.1291
   3   2.0000     -10.329713      -281.0858
   4   2.0000     -10.321411      -280.8599
   5   2.0000     -10.309692      -280.5410
   6   2.0000     -10.303123      -280.3622
   7   2.0000     -10.302182      -280.3366
   8   2.0000     -10.293023      -280.0874
   9   2.0000     -10.291649      -280.0500
  10   2.0000     -10.291156      -280.0366
  11   2.0000     -10.291122      -280.0357
  12   2.0000     -10.290987      -280.0320
  13   2.0000     -10.290346      -280.0145
  14   2.0000     -10.276854      -279.6474
  15   2.0000     -10.276148      -279.6282
  16   2.0000      -8.083299      -219.9578
  17   2.0000      -8.078863      -219.8371
  18   2.0000      -6.041607      -164.4005
  19   2.0000      -6.037814      -164.2973
  20   2.0000      -6.037647      -164.2927
  21   2.0000      -6.034206      -164.1991
  22   2.0000      -6.033423      -164.1778
  23   2.0000      -6.029505      -164.0712
  24   2.0000      -1.003046       -27.2943
  25   2.0000      -0.982290       -26.7295
  26   2.0000      -0.911632       -24.8068
  27   2.0000      -0.900427       -24.5019
  28   2.0000      -0.867348       -23.6017
  29   2.0000      -0.854634       -23.2558
  30   2.0000      -0.844578       -22.9821
  31   2.0000      -0.813149       -22.1269
  32   2.0000      -0.781555       -21.2672
  33   2.0000      -0.769864       -20.9491
  34   2.0000      -0.704859       -19.1802
  35   2.0000      -0.697302       -18.9745
  36   2.0000      -0.691104       -18.8059
  37   2.0000      -0.666677       -18.1412
  38   2.0000      -0.636134       -17.3101
  39   2.0000      -0.620372       -16.8812
  40   2.0000      -0.599972       -16.3261
  41   2.0000      -0.568170       -15.4607
  42   2.0000      -0.559635       -15.2284
  43   2.0000      -0.556216       -15.1354
  44   2.0000      -0.528259       -14.3746
  45   2.0000      -0.519144       -14.1266
  46   2.0000      -0.517886       -14.0924
  47   2.0000      -0.509020       -13.8511
  48   2.0000      -0.507618       -13.8130
  49   2.0000      -0.499842       -13.6014
  50   2.0000      -0.492993       -13.4150
  51   2.0000      -0.477895       -13.0042
  52   2.0000      -0.465636       -12.6706
  53   2.0000      -0.462217       -12.5776
  54   2.0000      -0.456239       -12.4149
  55   2.0000      -0.454468       -12.3667
  56   2.0000      -0.447313       -12.1720
  57   2.0000      -0.436853       -11.8874
  58   2.0000      -0.431076       -11.7302
  59   2.0000      -0.424426       -11.5492
  60   2.0000      -0.418963       -11.4006
  61   2.0000      -0.414996       -11.2926
  62   2.0000      -0.411475       -11.1968
  63   2.0000      -0.340037        -9.2529
  64   2.0000      -0.335286        -9.1236
  65   2.0000      -0.324654        -8.8343
  66   2.0000      -0.296930        -8.0799
  67   0.0000       0.034977         0.9518
  68   0.0000       0.064093         1.7441
  69   0.0000       0.108216         2.9447
  70   0.0000       0.117343         3.1931
  71   0.0000       0.131614         3.5814

MULLIKEN ATOMIC CHARGES
-----------------------
   0 S :    0.090862
   1 C :   -0.133360
   2 C :   -0.076033
   3 C :    0.037852
   4 C :   -0.121420
   5 H :    0.004756
   6 C :    0.052192
   7 H :    0.031108
   8 H :    0.009033
   9 C :   -0.085462
  10 H :    0.028633
  11 H :    0.043222
  12 C :   -0.040993
  13 H :    0.036860
  14 H :    0.019068
  15 H :    0.022921
  16 S :    0.119257
  17 C :   -0.049766
  18 C :   -0.022703
  19 C :   -0.024742
  20 C :   -0.196775
  21 H :    0.013936
  22 C :    0.085564
  23 H :    0.027095
  24 H :   -0.001157
  25 C :   -0.090859
  26 H :    0.042071
  27 H :    0.029085
  28 C :   -0.048985
  29 H :    0.031429
  30 H :    0.046500
  31 H :    0.026118
  32 H :    0.064129
  33 H :    0.030564
Sum of atomic charges:   -0.0000000

LOEWDIN ATOMIC CHARGES
----------------------
   0 S :    0.389133
   1 C :   -0.195735
   2 C :   -0.065582
   3 C :   -0.059823
   4 C :   -0.190815
   5 H :    0.025544
   6 C :   -0.034225
   7 H :    0.034209
   8 H :    0.026677
   9 C :   -0.044566
  10 H :    0.021588
  11 H :    0.034164
  12 C :   -0.073818
  13 H :    0.030792
  14 H :    0.022262
  15 H :    0.024362
  16 S :    0.420046
  17 C :   -0.181252
  18 C :   -0.068983
  19 C :   -0.046883
  20 C :   -0.193096
  21 H :    0.031540
  22 C :   -0.032491
  23 H :    0.030409
  24 H :    0.018243
  25 C :   -0.032426
  26 H :    0.030809
  27 H :    0.021672
  28 C :   -0.070252
  29 H :    0.022174
  30 H :    0.032148
  31 H :    0.022195
  32 H :    0.040322
  33 H :    0.011659

  Mayer bond orders larger than 0.100000
B(  0-S ,  1-C ) :   1.1297 B(  0-S ,  4-C ) :   1.1288 B(  1-C ,  2-C ) :   1.6165
B(  1-C , 32-H ) :   0.9627 B(  2-C ,  3-C ) :   1.2305 B(  2-C ,  6-C ) :   1.0412
B(  3-C ,  4-C ) :   1.6048 B(  3-C ,  5-H ) :   0.9932 B(  4-C , 20-C ) :   1.0067
B(  6-C ,  7-H ) :   0.9395 B(  6-C ,  8-H ) :   0.9419 B(  6-C ,  9-C ) :   1.0486
B(  9-C , 10-H ) :   0.9574 B(  9-C , 11-H ) :   0.9540 B(  9-C , 12-C ) :   1.0837
B( 12-C , 13-H ) :   0.9732 B( 12-C , 14-H ) :   0.9728 B( 12-C , 15-H ) :   0.9716
B( 16-S , 17-C ) :   1.1745 B( 16-S , 20-C ) :   1.1491 B( 17-C , 18-C ) :   1.5818
B( 17-C , 33-H ) :   0.9746 B( 18-C , 19-C ) :   1.2532 B( 18-C , 21-H ) :   0.9939
B( 19-C , 20-C ) :   1.5863 B( 19-C , 22-C ) :   1.0367 B( 22-C , 23-H ) :   0.9478
B( 22-C , 24-H ) :   0.9289 B( 22-C , 25-C ) :   1.0309 B( 25-C , 26-H ) :   0.9627
B( 25-C , 27-H ) :   0.9619 B( 25-C , 28-C ) :   1.0838 B( 28-C , 29-H ) :   0.9766
B( 28-C , 30-H ) :   0.9743 B( 28-C , 31-H ) :   0.9751

Dispersion correction           -0.013907009
FINAL SINGLE POINT ENERGY     -1339.881273718373

DIPOLE MOMENT
-------------
                                X             Y             Z
Electronic contribution:      0.15917     -12.09647     -18.58208
Nuclear contribution   :     -0.16608      12.16440      19.09738
                        -----------------------------------------
Total Dipole Moment    :     -0.00691       0.06793       0.51530
                        -----------------------------------------
Magnitude (a.u.)       :      0.51980
Magnitude (Debye)      :      1.32123

Rotational constants in cm-1:     0.017802     0.007960     0.006661
Rotational constants in MHz :   533.704887   238.633806   199.706239

                             ****ORCA TERMINATED NORMALLY****
TOTAL RUN TIME: 0 days 0 hours 0 minutes 33 seconds 349 msec
