                         Program Version 4.2.1 -  RELEASE  -
|  1> ! wB97X-D3 SP def2-SVP
|  2> %pal
|  3> nprocs 16
|  4> end
|  5>
|  6> * xyz 0 1
|  7> S 	 8.35021 	 -24.5452 	 83.8399
|  8> C 	 6.6024 	 -24.2058 	 84.0896
|  9> C 	 5.94362 	 -23.772 	 82.9311
| 10> C 	 6.8543 	 -23.7226 	 81.878
| 11> C 	 8.09169 	 -24.2745 	 82.1389
| 12> H 	 6.53775 	 -23.5094 	 80.9069
| 13> C 	 4.49565 	 -23.4527 	 82.7682
| 14> H 	 4.38014 	 -23.2685 	 81.6841
| 15> H 	 4.26598 	 -22.5015 	 83.2154
| 16> C 	 3.52442 	 -24.5729 	 83.0817
| 17> H 	 3.87646 	 -25.333 	 82.362
| 18> H 	 3.68849 	 -24.9746 	 84.0865
| 19> C 	 2.08541 	 -24.3866 	 82.9291
| 20> H 	 1.52707 	 -25.0614 	 83.5153
| 21> H 	 1.81932 	 -23.3372 	 83.2123
| 22> H 	 1.77376 	 -24.6137 	 81.9331
| 23> S 	 9.5234 	 -26.3488 	 80.8964
| 24> C 	 10.382 	 -26.029 	 79.378
| 25> C 	 10.3053 	 -24.6901 	 79.0738
| 26> C 	 9.6883 	 -23.8467 	 80.0361
| 27> C 	 9.10093 	 -24.5956 	 81.0863
| 28> H 	 10.8294 	 -24.3648 	 78.2069
| 29> C 	 9.4902 	 -22.4042 	 79.9896
| 30> H 	 9.5896 	 -21.9778 	 80.9316
| 31> H 	 8.43478 	 -22.2788 	 79.7599
| 32> C 	 10.2178 	 -21.6721 	 78.7935
| 33> H 	 9.84843 	 -22.0257 	 77.878
| 34> H 	 11.2584 	 -21.7333 	 78.8261
| 35> C 	 10.0095 	 -20.1212 	 78.7272
| 36> H 	 10.3626 	 -19.7115 	 79.7099
| 37> H 	 9.02051 	 -19.7559 	 78.5858
| 38> H 	 10.6531 	 -19.6831 	 77.9313
| 39> H 	 6.12612 	 -24.433 	 85.0259
| 40> H 	 11.0253 	 -26.7627 	 78.8379
| 41> *
| 42>
| 43>                          ****END OF INPUT****

CARTESIAN COORDINATES (ANGSTROEM)
---------------------------------
  S      8.350210  -24.545200   83.839900
  C      6.602400  -24.205800   84.089600
  C      5.943620  -23.772000   82.931100
  C      6.854300  -23.722600   81.878000
  C      8.091690  -24.274500   82.138900
  H      6.537750  -23.509400   80.906900
  C      4.495650  -23.452700   82.768200
  H      4.380140  -23.268500   81.684100
  H      4.265980  -22.501500   83.215400
  C      3.524420  -24.572900   83.081700
  H      3.876460  -25.333000   82.362000
  H      3.688490  -24.974600   84.086500
  C      2.085410  -24.386600   82.929100
  H      1.527070  -25.061400   83.515300
  H      1.819320  -23.337200   83.212300
  H      1.773760  -24.613700   81.933100
  S      9.523400  -26.348800   80.896400
  C     10.382000  -26.029000   79.378000
  C     10.305300  -24.690100   79.073800
  C      9.688300  -23.846700   80.036100
  C      9.100930  -24.595600   81.086300
  H     10.829400  -24.364800   78.206900
  C      9.490200  -22.404200   79.989600
  H      9.589600  -21.977800   80.931600
  H      8.434780  -22.278800   79.759900
  C     10.217800  -21.672100   78.793500
  H      9.848430  -22.025700   77.878000
  H     11.258400  -21.733300   78.826100
  C     10.009500  -20.121200   78.727200
  H     10.362600  -19.711500   79.709900
  H      9.020510  -19.755900   78.585800
  H     10.653100  -19.683100   77.931300
  H      6.126120  -24.433000   85.025900
  H     11.025300  -26.762700   78.837900

 Total Charge           Charge          ....    0
 Multiplicity           Mult            ....    1
 Number of Electrons    NEL             ....  134
 Basis Dimension        Dim             ....  322

ORBITAL ENERGIES
----------------

  NO   OCC          E(Eh)            E(eV)
   0   2.0000     -88.970491     -2421.0101
   1   2.0000     -88.960762     -2420.7454
   2   2.0000     -10.331019      -281.1213
   3   2.0000     -10.329588      -281.0824
   4   2.0000     -10.320889      -280.8457
   5   2.0000     -10.316752      -280.7331
   6   2.0000     -10.304100      -280.3888
   7   2.0000     -10.300035      -280.2782
   8   2.0000     -10.291710      -280.0517
   9   2.0000     -10.290438      -280.0170
  10   2.0000     -10.287187      -279.9286
  11   2.0000     -10.285816      -279.8913
  12   2.0000     -10.283975      -279.8412
  13   2.0000     -10.281733      -279.7802
  14   2.0000     -10.281449      -279.7725
  15   2.0000     -10.272255      -279.5223
  16   2.0000      -8.084552      -219.9918
  17   2.0000      -8.074243      -219.7113
  18   2.0000      -6.042940      -164.4368
  19   2.0000      -6.039311      -164.3380
  20   2.0000      -6.035320      -164.2294
  21   2.0000      -6.032763      -164.1598
  22   2.0000      -6.028892      -164.0545
  23   2.0000      -6.025101      -163.9513
  24   2.0000      -1.000784       -27.2327
  25   2.0000      -0.978429       -26.6244
  26   2.0000      -0.921968       -25.0880
  27   2.0000      -0.907714       -24.7001
  28   2.0000      -0.869889       -23.6709
  29   2.0000      -0.856079       -23.2951
  30   2.0000      -0.846118       -23.0241
  31   2.0000      -0.815063       -22.1790
  32   2.0000      -0.787861       -21.4388
  33   2.0000      -0.768579       -20.9141
  34   2.0000      -0.710730       -19.3399
  35   2.0000      -0.704536       -19.1714
  36   2.0000      -0.692811       -18.8524
  37   2.0000      -0.648856       -17.6563
  38   2.0000      -0.640876       -17.4391
  39   2.0000      -0.623026       -16.9534
  40   2.0000      -0.596130       -16.2215
  41   2.0000      -0.578192       -15.7334
  42   2.0000      -0.575893       -15.6708
  43   2.0000      -0.566330       -15.4106
  44   2.0000      -0.533154       -14.5079
  45   2.0000      -0.525523       -14.3002
  46   2.0000      -0.518407       -14.1066
  47   2.0000      -0.512227       -13.9384
  48   2.0000      -0.511056       -13.9065
  49   2.0000      -0.494681       -13.4610
  50   2.0000      -0.490017       -13.3340
  51   2.0000      -0.479783       -13.0556
  52   2.0000      -0.473134       -12.8746
  53   2.0000      -0.466650       -12.6982
  54   2.0000      -0.456519       -12.4225
  55   2.0000      -0.451403       -12.2833
  56   2.0000      -0.444528       -12.0962
  57   2.0000      -0.441138       -12.0040
  58   2.0000      -0.434376       -11.8200
  59   2.0000      -0.425415       -11.5761
  60   2.0000      -0.421056       -11.4575
  61   2.0000      -0.414677       -11.2839
  62   2.0000      -0.409775       -11.1505
  63   2.0000      -0.340108        -9.2548
  64   2.0000      -0.333203        -9.0669
  65   2.0000      -0.323389        -8.7999
  66   2.0000      -0.291090        -7.9210
  67   0.0000       0.024875         0.6769
  68   0.0000       0.062809         1.7091
  69   0.0000       0.107783         2.9329
  70   0.0000       0.125781         3.4227
  71   0.0000       0.131314         3.5732

MULLIKEN ATOMIC CHARGES
-----------------------
   0 S :    0.121366
   1 C :   -0.136792
   2 C :   -0.086709
   3 C :    0.057028
   4 C :   -0.163465
   5 H :   -0.011903
   6 C :    0.107400
   7 H :    0.008088
   8 H :    0.030313
   9 C :   -0.115866
  10 H :    0.031672
  11 H :    0.025944
  12 C :    0.014809
  13 H :    0.020323
  14 H :    0.029128
  15 H :    0.020352
  16 S :    0.085806
  17 C :   -0.100482
  18 C :   -0.045723
  19 C :   -0.021938
  20 C :   -0.166353
  21 H :    0.010864
  22 C :    0.100574
  23 H :    0.021336
  24 H :    0.027816
  25 C :   -0.061881
  26 H :    0.022721
  27 H :    0.026684
  28 C :   -0.065008
  29 H :    0.029506
  30 H :    0.026926
  31 H :    0.038809
  32 H :    0.043470
  33 H :    0.075185
Sum of atomic charges:   -0.0000000

LOEWDIN ATOMIC CHARGES
----------------------
   0 S :    0.398751
   1 C :   -0.177007
   2 C :   -0.057951
   3 C :   -0.053624
   4 C :   -0.199044
   5 H :    0.019955
   6 C :   -0.029633
   7 H :    0.031376
   8 H :    0.027207
   9 C :   -0.049489
  10 H :    0.032022
  11 H :    0.021625
  12 C :   -0.059500
  13 H :    0.024773
  14 H :    0.030718
  15 H :    0.023184
  16 S :    0.369728
  17 C :   -0.182480
  18 C :   -0.077900
  19 C :   -0.051747
  20 C :   -0.183936
  21 H :    0.026633
  22 C :   -0.027917
  23 H :    0.026817
  24 H :    0.040500
  25 C :   -0.026827
  26 H :    0.017450
  27 H :    0.017202
  28 C :   -0.064516
  29 H :    0.027130
  30 H :    0.014839
  31 H :    0.030606
  32 H :    0.019371
  33 H :    0.041685

  Mayer bond orders larger than 0.100000
B(  0-S ,  1-C ) :   1.1403 B(  0-S ,  4-C ) :   1.1608 B(  1-C ,  2-C ) :   1.5836
B(  1-C ,  4-C ) :   0.1011 B(  1-C , 32-H ) :   0.9708 B(  2-C ,  3-C ) :   1.2861
B(  2-C ,  6-C ) :   1.0196 B(  3-C ,  4-C ) :   1.5563 B(  3-C ,  5-H ) :   0.9912
B(  4-C , 20-C ) :   1.0253 B(  6-C ,  7-H ) :   0.9410 B(  6-C ,  8-H ) :   0.9215
B(  6-C ,  9-C ) :   1.0591 B(  9-C , 10-H ) :   0.9558 B(  9-C , 11-H ) :   0.9595
B(  9-C , 12-C ) :   1.0972 B( 12-C , 13-H ) :   0.9681 B( 12-C , 14-H ) :   0.9701
B( 12-C , 15-H ) :   0.9721 B( 16-S , 17-C ) :   1.1528 B( 16-S , 20-C ) :   1.1356
B( 17-C , 18-C ) :   1.6001 B( 17-C , 20-C ) :   0.1095 B( 17-C , 33-H ) :   0.9584
B( 18-C , 19-C ) :   1.2505 B( 18-C , 21-H ) :   0.9890 B( 19-C , 20-C ) :   1.5657
B( 19-C , 22-C ) :   1.0558 B( 22-C , 23-H ) :   0.9274 B( 22-C , 24-H ) :   0.9165
B( 22-C , 25-C ) :   1.0724 B( 25-C , 26-H ) :   0.9482 B( 25-C , 27-H ) :   0.9617
B( 25-C , 28-C ) :   1.0840 B( 28-C , 29-H ) :   0.9766 B( 28-C , 30-H ) :   0.9784
B( 28-C , 31-H ) :   0.9755

Dispersion correction           -0.013420903
FINAL SINGLE POINT ENERGY     -1339.857409612434

DIPOLE MOMENT
-------------
                                X             Y             Z
Electronic contribution:     15.99674     -17.02621       9.15218
Nuclear contribution   :    -16.41009      17.39904      -9.52742
                        -----------------------------------------
Total Dipole Moment    :     -0.41335       0.37283      -0.37524
                        -----------------------------------------
Magnitude (a.u.)       :      0.67131
Magnitude (Debye)      :      1.70634

Rotational constants in cm-1:     0.017883     0.007326     0.006222
Rotational constants in MHz :   536.124752   219.639923   186.526617

                             ****ORCA TERMINATED NORMALLY****
TOTAL RUN TIME: 0 days 0 hours 0 minutes 32 seconds 414 msec
