                         Program Version 4.2.1 -  RELEASE  -
|  1> ! wB97X-D3 SP def2-SVP
|  2> %pal
|  3> nprocs 16
|  4> end
|  5>
|  6> * xyz 0 1
|  7> S 	 -21.6812 	 -3.87592 	 95.2646
|  8> C 	 -22.9414 	 -2.90332 	 94.6051
|  9> C 	 -22.5805 	 -2.11416 	 93.5366
| 10> C 	 -21.2046 	 -2.33834 	 93.2461
| 11> C 	 -20.5927 	 -3.29372 	 94.0191
| 12> H 	 -20.6035 	 -1.74741 	 92.5659
| 13> C 	 -23.4806 	 -1.09414 	 92.7725
| 14> H 	 -22.8992 	 -0.142346 	 92.6986
| 15> H 	 -24.292 	 -0.831438 	 93.4381
| 16> C 	 -24.1651 	 -1.64248 	 91.442
| 17> H 	 -24.5613 	 -2.61361 	 91.707
| 18> H 	 -25.0463 	 -1.09612 	 91.2521
| 19> C 	 -23.291 	 -1.76164 	 90.1609
| 20> H 	 -23.7554 	 -2.48566 	 89.4314
| 21> H 	 -23.3663 	 -0.833074 	 89.733
| 22> H 	 -22.2966 	 -2.15319 	 90.3125
| 23> S 	 -17.9274 	 -3.28642 	 94.884
| 24> C 	 -16.9426 	 -4.44615 	 94.053
| 25> C 	 -17.5499 	 -5.16289 	 93.0804
| 26> C 	 -18.904 	 -4.70309 	 92.8804
| 27> C 	 -19.2565 	 -3.7872 	 93.829
| 28> H 	 -16.9551 	 -5.91191 	 92.5669
| 29> C 	 -19.8409 	 -5.24045 	 91.8664
| 30> H 	 -20.8733 	 -4.98486 	 92.1325
| 31> H 	 -19.8869 	 -6.30089 	 92.0464
| 32> C 	 -19.7245 	 -4.80732 	 90.4315
| 33> H 	 -18.7749 	 -5.14527 	 90.1139
| 34> H 	 -19.6849 	 -3.75566 	 90.3007
| 35> C 	 -20.7748 	 -5.45469 	 89.4498
| 36> H 	 -21.5583 	 -4.73588 	 89.1855
| 37> H 	 -21.2335 	 -6.44937 	 89.7525
| 38> H 	 -20.3114 	 -5.59084 	 88.4607
| 39> H 	 -23.9353 	 -2.82172 	 95.0796
| 40> H 	 -15.893 	 -4.38724 	 94.2265
| 41> *
| 42>
| 43>                          ****END OF INPUT****

CARTESIAN COORDINATES (ANGSTROEM)
---------------------------------
  S    -21.681200   -3.875920   95.264600
  C    -22.941400   -2.903320   94.605100
  C    -22.580500   -2.114160   93.536600
  C    -21.204600   -2.338340   93.246100
  C    -20.592700   -3.293720   94.019100
  H    -20.603500   -1.747410   92.565900
  C    -23.480600   -1.094140   92.772500
  H    -22.899200   -0.142346   92.698600
  H    -24.292000   -0.831438   93.438100
  C    -24.165100   -1.642480   91.442000
  H    -24.561300   -2.613610   91.707000
  H    -25.046300   -1.096120   91.252100
  C    -23.291000   -1.761640   90.160900
  H    -23.755400   -2.485660   89.431400
  H    -23.366300   -0.833074   89.733000
  H    -22.296600   -2.153190   90.312500
  S    -17.927400   -3.286420   94.884000
  C    -16.942600   -4.446150   94.053000
  C    -17.549900   -5.162890   93.080400
  C    -18.904000   -4.703090   92.880400
  C    -19.256500   -3.787200   93.829000
  H    -16.955100   -5.911910   92.566900
  C    -19.840900   -5.240450   91.866400
  H    -20.873300   -4.984860   92.132500
  H    -19.886900   -6.300890   92.046400
  C    -19.724500   -4.807320   90.431500
  H    -18.774900   -5.145270   90.113900
  H    -19.684900   -3.755660   90.300700
  C    -20.774800   -5.454690   89.449800
  H    -21.558300   -4.735880   89.185500
  H    -21.233500   -6.449370   89.752500
  H    -20.311400   -5.590840   88.460700
  H    -23.935300   -2.821720   95.079600
  H    -15.893000   -4.387240   94.226500

 Total Charge           Charge          ....    0
 Multiplicity           Mult            ....    1
 Number of Electrons    NEL             ....  134
 Basis Dimension        Dim             ....  322

ORBITAL ENERGIES
----------------

  NO   OCC          E(Eh)            E(eV)
   0   2.0000     -88.965233     -2420.8671
   1   2.0000     -88.962441     -2420.7911
   2   2.0000     -10.318549      -280.7820
   3   2.0000     -10.316977      -280.7392
   4   2.0000     -10.310929      -280.5746
   5   2.0000     -10.310461      -280.5619
   6   2.0000     -10.301786      -280.3258
   7   2.0000     -10.299894      -280.2744
   8   2.0000     -10.299081      -280.2522
   9   2.0000     -10.292600      -280.0759
  10   2.0000     -10.288055      -279.9522
  11   2.0000     -10.287867      -279.9471
  12   2.0000     -10.285430      -279.8808
  13   2.0000     -10.281024      -279.7609
  14   2.0000     -10.280183      -279.7380
  15   2.0000     -10.275997      -279.6241
  16   2.0000      -8.080332      -219.8770
  17   2.0000      -8.077757      -219.8069
  18   2.0000      -6.038722      -164.3220
  19   2.0000      -6.036093      -164.2504
  20   2.0000      -6.034864      -164.2170
  21   2.0000      -6.032397      -164.1499
  22   2.0000      -6.031141      -164.1157
  23   2.0000      -6.028463      -164.0428
  24   2.0000      -1.008460       -27.4416
  25   2.0000      -0.985538       -26.8179
  26   2.0000      -0.910586       -24.7783
  27   2.0000      -0.899535       -24.4776
  28   2.0000      -0.869470       -23.6595
  29   2.0000      -0.850203       -23.1352
  30   2.0000      -0.847059       -23.0497
  31   2.0000      -0.813333       -22.1319
  32   2.0000      -0.785582       -21.3768
  33   2.0000      -0.771225       -20.9861
  34   2.0000      -0.707667       -19.2566
  35   2.0000      -0.703901       -19.1541
  36   2.0000      -0.694936       -18.9102
  37   2.0000      -0.657793       -17.8995
  38   2.0000      -0.640746       -17.4356
  39   2.0000      -0.614798       -16.7295
  40   2.0000      -0.600058       -16.3284
  41   2.0000      -0.567975       -15.4554
  42   2.0000      -0.563047       -15.3213
  43   2.0000      -0.545175       -14.8350
  44   2.0000      -0.532310       -14.4849
  45   2.0000      -0.523357       -14.2413
  46   2.0000      -0.518078       -14.0976
  47   2.0000      -0.508481       -13.8365
  48   2.0000      -0.504099       -13.7172
  49   2.0000      -0.492246       -13.3947
  50   2.0000      -0.485507       -13.2113
  51   2.0000      -0.480024       -13.0621
  52   2.0000      -0.468349       -12.7444
  53   2.0000      -0.459886       -12.5141
  54   2.0000      -0.457641       -12.4530
  55   2.0000      -0.452421       -12.3110
  56   2.0000      -0.449011       -12.2182
  57   2.0000      -0.441333       -12.0093
  58   2.0000      -0.432282       -11.7630
  59   2.0000      -0.429189       -11.6788
  60   2.0000      -0.426232       -11.5984
  61   2.0000      -0.418501       -11.3880
  62   2.0000      -0.400183       -10.8895
  63   2.0000      -0.337130        -9.1738
  64   2.0000      -0.330198        -8.9851
  65   2.0000      -0.324422        -8.8280
  66   2.0000      -0.304505        -8.2860
  67   0.0000       0.047993         1.3059
  68   0.0000       0.060124         1.6361
  69   0.0000       0.118707         3.2302
  70   0.0000       0.123155         3.3512
  71   0.0000       0.123929         3.3723

MULLIKEN ATOMIC CHARGES
-----------------------
   0 S :    0.130511
   1 C :   -0.139692
   2 C :   -0.082254
   3 C :    0.030022
   4 C :   -0.193047
   5 H :    0.010950
   6 C :    0.056262
   7 H :    0.039823
   8 H :    0.012861
   9 C :   -0.045469
  10 H :    0.017404
  11 H :    0.018027
  12 C :   -0.035078
  13 H :    0.034982
  14 H :    0.022005
  15 H :    0.040592
  16 S :    0.108642
  17 C :   -0.090448
  18 C :   -0.019012
  19 C :   -0.013440
  20 C :   -0.186119
  21 H :    0.021347
  22 C :    0.076859
  23 H :    0.021013
  24 H :    0.021136
  25 C :   -0.012270
  26 H :    0.005297
  27 H :    0.018010
  28 C :   -0.077555
  29 H :    0.031499
  30 H :    0.048691
  31 H :    0.028833
  32 H :    0.051553
  33 H :    0.048064
Sum of atomic charges:    0.0000000

LOEWDIN ATOMIC CHARGES
----------------------
   0 S :    0.415121
   1 C :   -0.207145
   2 C :   -0.069940
   3 C :   -0.059017
   4 C :   -0.200459
   5 H :    0.029632
   6 C :   -0.028974
   7 H :    0.034281
   8 H :    0.028410
   9 C :   -0.032174
  10 H :    0.022799
  11 H :    0.018300
  12 C :   -0.061324
  13 H :    0.034337
  14 H :    0.014800
  15 H :    0.024075
  16 S :    0.392746
  17 C :   -0.174093
  18 C :   -0.070678
  19 C :   -0.042712
  20 C :   -0.200079
  21 H :    0.035901
  22 C :   -0.039406
  23 H :    0.032498
  24 H :    0.032323
  25 C :   -0.030124
  26 H :    0.014938
  27 H :    0.021310
  28 C :   -0.073151
  29 H :    0.025212
  30 H :    0.034038
  31 H :    0.028577
  32 H :    0.030165
  33 H :    0.019814

  Mayer bond orders larger than 0.100000
B(  0-S ,  1-C ) :   1.1563 B(  0-S ,  4-C ) :   1.1385 B(  1-C ,  2-C ) :   1.6237
B(  1-C , 32-H ) :   0.9566 B(  2-C ,  3-C ) :   1.2403 B(  2-C ,  6-C ) :   1.0170
B(  3-C ,  4-C ) :   1.5990 B(  3-C ,  5-H ) :   0.9935 B(  4-C , 20-C ) :   1.0327
B(  6-C ,  7-H ) :   0.9500 B(  6-C ,  8-H ) :   0.9367 B(  6-C ,  9-C ) :   1.0547
B(  9-C , 10-H ) :   0.9562 B(  9-C , 11-H ) :   0.9609 B(  9-C , 12-C ) :   1.0705
B( 12-C , 13-H ) :   0.9736 B( 12-C , 14-H ) :   0.9773 B( 12-C , 15-H ) :   0.9771
B( 16-S , 17-C ) :   1.1504 B( 16-S , 20-C ) :   1.1262 B( 17-C , 18-C ) :   1.6453
B( 17-C , 33-H ) :   0.9663 B( 18-C , 19-C ) :   1.1868 B( 18-C , 21-H ) :   0.9956
B( 19-C , 20-C ) :   1.6432 B( 19-C , 22-C ) :   1.0521 B( 22-C , 23-H ) :   0.9161
B( 22-C , 24-H ) :   0.9261 B( 22-C , 25-C ) :   1.0628 B( 25-C , 26-H ) :   0.9595
B( 25-C , 27-H ) :   0.9513 B( 25-C , 28-C ) :   1.0671 B( 28-C , 29-H ) :   0.9778
B( 28-C , 30-H ) :   0.9768 B( 28-C , 31-H ) :   0.9759

Dispersion correction           -0.015507322
FINAL SINGLE POINT ENERGY     -1339.873276241434

DIPOLE MOMENT
-------------
                                X             Y             Z
Electronic contribution:     14.16178      -0.96052      28.34845
Nuclear contribution   :    -14.34232       1.03454     -28.94844
                        -----------------------------------------
Total Dipole Moment    :     -0.18054       0.07402      -0.59999
                        -----------------------------------------
Magnitude (a.u.)       :      0.63092
Magnitude (Debye)      :      1.60367

Rotational constants in cm-1:     0.017299     0.010184     0.007387
Rotational constants in MHz :   518.608096   305.295015   221.455517

                             ****ORCA TERMINATED NORMALLY****
TOTAL RUN TIME: 0 days 0 hours 0 minutes 32 seconds 90 msec
