                         Program Version 4.2.1 -  RELEASE  -
|  1> ! wB97X-D3 SP def2-SVP
|  2> %pal
|  3> nprocs 16
|  4> end
|  5>
|  6> * xyz 0 1
|  7> S 	 58.8953 	 -6.1211 	 88.3825
|  8> C 	 59.04 	 -5.79695 	 90.077
|  9> C 	 60.2679 	 -5.27181 	 90.4396
| 10> C 	 61.0487 	 -4.97204 	 89.2953
| 11> C 	 60.5159 	 -5.3967 	 88.1119
| 12> H 	 62.0269 	 -4.43959 	 89.2005
| 13> C 	 60.6828 	 -4.90919 	 91.9075
| 14> H 	 61.7327 	 -5.02074 	 92.0313
| 15> H 	 60.1698 	 -5.59144 	 92.5365
| 16> C 	 60.3343 	 -3.44117 	 92.3203
| 17> H 	 60.7626 	 -3.22072 	 93.2686
| 18> H 	 60.806 	 -2.7193 	 91.6255
| 19> C 	 58.8418 	 -3.22711 	 92.4645
| 20> H 	 58.2331 	 -3.4353 	 91.6092
| 21> H 	 58.5382 	 -3.93107 	 93.2598
| 22> H 	 58.6856 	 -2.24738 	 92.9749
| 23> S 	 61.3793 	 -7.22456 	 86.1062
| 24> C 	 62.0248 	 -6.53136 	 84.623
| 25> C 	 62.1694 	 -5.10449 	 84.6585
| 26> C 	 61.6016 	 -4.53492 	 85.8536
| 27> C 	 61.1028 	 -5.51386 	 86.7326
| 28> H 	 62.6242 	 -4.5567 	 83.8919
| 29> C 	 61.4836 	 -3.01603 	 86.0387
| 30> H 	 62.188 	 -2.49221 	 85.3777
| 31> H 	 61.9709 	 -2.68072 	 87.0222
| 32> C 	 60.0034 	 -2.57232 	 85.9079
| 33> H 	 59.5762 	 -3.36782 	 86.5847
| 34> H 	 59.4862 	 -2.76011 	 84.9277
| 35> C 	 59.8826 	 -1.28686 	 86.6582
| 36> H 	 60.2828 	 -1.33536 	 87.6486
| 37> H 	 58.8396 	 -0.962792 	 86.7332
| 38> H 	 60.3701 	 -0.501089 	 86.1623
| 39> H 	 58.283 	 -5.97403 	 90.8316
| 40> H 	 62.4187 	 -7.12916 	 83.8158
| 41> *
| 42>
| 43>                          ****END OF INPUT****

CARTESIAN COORDINATES (ANGSTROEM)
---------------------------------
  S     58.895300   -6.121100   88.382500
  C     59.040000   -5.796950   90.077000
  C     60.267900   -5.271810   90.439600
  C     61.048700   -4.972040   89.295300
  C     60.515900   -5.396700   88.111900
  H     62.026900   -4.439590   89.200500
  C     60.682800   -4.909190   91.907500
  H     61.732700   -5.020740   92.031300
  H     60.169800   -5.591440   92.536500
  C     60.334300   -3.441170   92.320300
  H     60.762600   -3.220720   93.268600
  H     60.806000   -2.719300   91.625500
  C     58.841800   -3.227110   92.464500
  H     58.233100   -3.435300   91.609200
  H     58.538200   -3.931070   93.259800
  H     58.685600   -2.247380   92.974900
  S     61.379300   -7.224560   86.106200
  C     62.024800   -6.531360   84.623000
  C     62.169400   -5.104490   84.658500
  C     61.601600   -4.534920   85.853600
  C     61.102800   -5.513860   86.732600
  H     62.624200   -4.556700   83.891900
  C     61.483600   -3.016030   86.038700
  H     62.188000   -2.492210   85.377700
  H     61.970900   -2.680720   87.022200
  C     60.003400   -2.572320   85.907900
  H     59.576200   -3.367820   86.584700
  H     59.486200   -2.760110   84.927700
  C     59.882600   -1.286860   86.658200
  H     60.282800   -1.335360   87.648600
  H     58.839600   -0.962792   86.733200
  H     60.370100   -0.501089   86.162300
  H     58.283000   -5.974030   90.831600
  H     62.418700   -7.129160   83.815800

 Total Charge           Charge          ....    0
 Multiplicity           Mult            ....    1
 Number of Electrons    NEL             ....  134
 Basis Dimension        Dim             ....  322

ORBITAL ENERGIES
----------------

  NO   OCC          E(Eh)            E(eV)
   0   2.0000     -88.970206     -2421.0024
   1   2.0000     -88.966116     -2420.8911
   2   2.0000     -10.336072      -281.2588
   3   2.0000     -10.332732      -281.1679
   4   2.0000     -10.324269      -280.9376
   5   2.0000     -10.314517      -280.6723
   6   2.0000     -10.309353      -280.5318
   7   2.0000     -10.304108      -280.3890
   8   2.0000     -10.299949      -280.2759
   9   2.0000     -10.298257      -280.2298
  10   2.0000     -10.297251      -280.2024
  11   2.0000     -10.293045      -280.0880
  12   2.0000     -10.287944      -279.9492
  13   2.0000     -10.286679      -279.9148
  14   2.0000     -10.277339      -279.6606
  15   2.0000     -10.266839      -279.3749
  16   2.0000      -8.083133      -219.9532
  17   2.0000      -8.080426      -219.8796
  18   2.0000      -6.041622      -164.4009
  19   2.0000      -6.038879      -164.3263
  20   2.0000      -6.038022      -164.3029
  21   2.0000      -6.035029      -164.2215
  22   2.0000      -6.033884      -164.1903
  23   2.0000      -6.031218      -164.1178
  24   2.0000      -0.998021       -27.1575
  25   2.0000      -0.972322       -26.4582
  26   2.0000      -0.908752       -24.7284
  27   2.0000      -0.908186       -24.7130
  28   2.0000      -0.859112       -23.3776
  29   2.0000      -0.851367       -23.1669
  30   2.0000      -0.846647       -23.0384
  31   2.0000      -0.808643       -22.0043
  32   2.0000      -0.782253       -21.2862
  33   2.0000      -0.768608       -20.9149
  34   2.0000      -0.705242       -19.1906
  35   2.0000      -0.696665       -18.9572
  36   2.0000      -0.686452       -18.6793
  37   2.0000      -0.662196       -18.0193
  38   2.0000      -0.644057       -17.5257
  39   2.0000      -0.613954       -16.7065
  40   2.0000      -0.592553       -16.1242
  41   2.0000      -0.568715       -15.4755
  42   2.0000      -0.561536       -15.2802
  43   2.0000      -0.547588       -14.9006
  44   2.0000      -0.543825       -14.7982
  45   2.0000      -0.518939       -14.1210
  46   2.0000      -0.516528       -14.0554
  47   2.0000      -0.505593       -13.7579
  48   2.0000      -0.503867       -13.7109
  49   2.0000      -0.490987       -13.3604
  50   2.0000      -0.483862       -13.1666
  51   2.0000      -0.481005       -13.0888
  52   2.0000      -0.471040       -12.8176
  53   2.0000      -0.466661       -12.6985
  54   2.0000      -0.459966       -12.5163
  55   2.0000      -0.449795       -12.2395
  56   2.0000      -0.441469       -12.0130
  57   2.0000      -0.437647       -11.9090
  58   2.0000      -0.431452       -11.7404
  59   2.0000      -0.427877       -11.6431
  60   2.0000      -0.418137       -11.3781
  61   2.0000      -0.417938       -11.3727
  62   2.0000      -0.399764       -10.8781
  63   2.0000      -0.342073        -9.3083
  64   2.0000      -0.334124        -9.0920
  65   2.0000      -0.325163        -8.8481
  66   2.0000      -0.294125        -8.0036
  67   0.0000       0.030808         0.8383
  68   0.0000       0.054839         1.4922
  69   0.0000       0.103954         2.8287
  70   0.0000       0.120588         3.2814
  71   0.0000       0.124076         3.3763

MULLIKEN ATOMIC CHARGES
-----------------------
   0 S :    0.110568
   1 C :   -0.109237
   2 C :   -0.113820
   3 C :    0.044822
   4 C :   -0.199681
   5 H :    0.029247
   6 C :    0.103863
   7 H :    0.020668
   8 H :    0.011370
   9 C :   -0.058029
  10 H :    0.019591
  11 H :    0.029014
  12 C :   -0.061138
  13 H :    0.048489
  14 H :    0.013924
  15 H :    0.038394
  16 S :    0.110453
  17 C :   -0.094438
  18 C :   -0.018424
  19 C :   -0.017451
  20 C :   -0.170211
  21 H :    0.002209
  22 C :    0.027068
  23 H :    0.014042
  24 H :    0.033759
  25 C :   -0.082785
  26 H :    0.039739
  27 H :    0.053593
  28 C :    0.002913
  29 H :    0.026318
  30 H :    0.027396
  31 H :    0.011766
  32 H :    0.045721
  33 H :    0.060286
Sum of atomic charges:   -0.0000000

LOEWDIN ATOMIC CHARGES
----------------------
   0 S :    0.394018
   1 C :   -0.198969
   2 C :   -0.065697
   3 C :   -0.063719
   4 C :   -0.186375
   5 H :    0.042617
   6 C :   -0.016353
   7 H :    0.026724
   8 H :    0.022542
   9 C :   -0.037235
  10 H :    0.019915
  11 H :    0.023123
  12 C :   -0.069396
  13 H :    0.021456
  14 H :    0.024701
  15 H :    0.033121
  16 S :    0.375996
  17 C :   -0.178705
  18 C :   -0.063119
  19 C :   -0.050542
  20 C :   -0.184725
  21 H :    0.021975
  22 C :   -0.036617
  23 H :    0.023222
  24 H :    0.037419
  25 C :   -0.047400
  26 H :    0.034285
  27 H :    0.036883
  28 C :   -0.059603
  29 H :    0.025329
  30 H :    0.026807
  31 H :    0.015175
  32 H :    0.027177
  33 H :    0.025969

  Mayer bond orders larger than 0.100000
B(  0-S ,  1-C ) :   1.1463 B(  0-S ,  4-C ) :   1.1306 B(  1-C ,  2-C ) :   1.6270
B(  1-C , 32-H ) :   0.9613 B(  2-C ,  3-C ) :   1.2227 B(  2-C ,  6-C ) :   1.0191
B(  3-C ,  4-C ) :   1.6232 B(  3-C ,  5-H ) :   0.9836 B(  4-C , 20-C ) :   1.0071
B(  6-C ,  7-H ) :   0.9407 B(  6-C ,  8-H ) :   0.9418 B(  6-C ,  9-C ) :   1.0737
B(  9-C , 10-H ) :   0.9539 B(  9-C , 11-H ) :   0.9557 B(  9-C , 12-C ) :   1.0790
B( 12-C , 13-H ) :   0.9765 B( 12-C , 14-H ) :   0.9720 B( 12-C , 15-H ) :   0.9711
B( 16-S , 17-C ) :   1.1612 B( 16-S , 20-C ) :   1.1263 B( 17-C , 18-C ) :   1.5939
B( 17-C , 20-C ) :   0.1057 B( 17-C , 33-H ) :   0.9668 B( 18-C , 19-C ) :   1.2490
B( 18-C , 21-H ) :   0.9938 B( 19-C , 20-C ) :   1.5997 B( 19-C , 22-C ) :   1.0362
B( 22-C , 23-H ) :   0.9295 B( 22-C , 24-H ) :   0.9435 B( 22-C , 25-C ) :   1.0301
B( 25-C , 26-H ) :   0.9585 B( 25-C , 27-H ) :   0.9558 B( 25-C , 28-C ) :   1.0781
B( 28-C , 29-H ) :   0.9721 B( 28-C , 30-H ) :   0.9694 B( 28-C , 31-H ) :   0.9714

Dispersion correction           -0.014840840
FINAL SINGLE POINT ENERGY     -1339.865718641801

DIPOLE MOMENT
-------------
                                X             Y             Z
Electronic contribution:      2.05658     -24.04198     -14.00734
Nuclear contribution   :     -1.77570      24.55856      14.30034
                        -----------------------------------------
Total Dipole Moment    :      0.28088       0.51658       0.29300
                        -----------------------------------------
Magnitude (a.u.)       :      0.65696
Magnitude (Debye)      :      1.66985

Rotational constants in cm-1:     0.019990     0.008717     0.007030
Rotational constants in MHz :   599.282941   261.337908   210.747009

                             ****ORCA TERMINATED NORMALLY****
TOTAL RUN TIME: 0 days 0 hours 0 minutes 30 seconds 777 msec
