                         Program Version 4.2.1 -  RELEASE  -
|  1> ! wB97X-D3 SP def2-SVP
|  2> %pal
|  3> nprocs 16
|  4> end
|  5>
|  6> * xyz 0 1
|  7> S 	 0.333788 	 3.12701 	 80.4098
|  8> C 	 1.4471 	 4.49341 	 80.1821
|  9> C 	 0.85035 	 5.70213 	 80.2632
| 10> C 	 -0.598607 	 5.54923 	 80.4419
| 11> C 	 -1.03465 	 4.23815 	 80.59
| 12> H 	 -1.22142 	 6.41165 	 80.5047
| 13> C 	 1.496 	 6.98419 	 80.25
| 14> H 	 2.41779 	 6.90351 	 80.7773
| 15> H 	 1.17809 	 7.78586 	 80.888
| 16> C 	 1.79169 	 7.5526 	 78.8039
| 17> H 	 2.45268 	 6.88502 	 78.251
| 18> H 	 0.791223 	 7.63474 	 78.3525
| 19> C 	 2.50103 	 8.93108 	 78.8598
| 20> H 	 2.64743 	 9.42199 	 77.9337
| 21> H 	 1.84531 	 9.59538 	 79.3785
| 22> H 	 3.44077 	 8.77759 	 79.2805
| 23> S 	 -2.81777 	 2.35034 	 79.9906
| 24> C 	 -4.45878 	 2.51279 	 80.3987
| 25> C 	 -4.60214 	 3.58132 	 81.2383
| 26> C 	 -3.465 	 4.38641 	 81.4658
| 27> C 	 -2.40737 	 3.81888 	 80.7923
| 28> H 	 -5.59719 	 3.77628 	 81.6507
| 29> C 	 -3.42457 	 5.71109 	 82.2983
| 30> H 	 -2.34866 	 5.90821 	 82.4308
| 31> H 	 -3.88683 	 5.591 	 83.265
| 32> C 	 -3.90486 	 7.04794 	 81.7097
| 33> H 	 -5.00622 	 6.91161 	 81.7213
| 34> H 	 -3.41927 	 7.15318 	 80.8019
| 35> C 	 -3.54746 	 8.33889 	 82.4764
| 36> H 	 -3.95362 	 8.28076 	 83.525
| 37> H 	 -4.18108 	 9.13808 	 82.2252
| 38> H 	 -2.496 	 8.66673 	 82.4209
| 39> H 	 2.52757 	 4.41093 	 80.1195
| 40> H 	 -5.25927 	 1.88652 	 80.0998
| 41> *
| 42>
| 43>                          ****END OF INPUT****

CARTESIAN COORDINATES (ANGSTROEM)
---------------------------------
  S      0.333788    3.127010   80.409800
  C      1.447100    4.493410   80.182100
  C      0.850350    5.702130   80.263200
  C     -0.598607    5.549230   80.441900
  C     -1.034650    4.238150   80.590000
  H     -1.221420    6.411650   80.504700
  C      1.496000    6.984190   80.250000
  H      2.417790    6.903510   80.777300
  H      1.178090    7.785860   80.888000
  C      1.791690    7.552600   78.803900
  H      2.452680    6.885020   78.251000
  H      0.791223    7.634740   78.352500
  C      2.501030    8.931080   78.859800
  H      2.647430    9.421990   77.933700
  H      1.845310    9.595380   79.378500
  H      3.440770    8.777590   79.280500
  S     -2.817770    2.350340   79.990600
  C     -4.458780    2.512790   80.398700
  C     -4.602140    3.581320   81.238300
  C     -3.465000    4.386410   81.465800
  C     -2.407370    3.818880   80.792300
  H     -5.597190    3.776280   81.650700
  C     -3.424570    5.711090   82.298300
  H     -2.348660    5.908210   82.430800
  H     -3.886830    5.591000   83.265000
  C     -3.904860    7.047940   81.709700
  H     -5.006220    6.911610   81.721300
  H     -3.419270    7.153180   80.801900
  C     -3.547460    8.338890   82.476400
  H     -3.953620    8.280760   83.525000
  H     -4.181080    9.138080   82.225200
  H     -2.496000    8.666730   82.420900
  H      2.527570    4.410930   80.119500
  H     -5.259270    1.886520   80.099800

 Total Charge           Charge          ....    0
 Multiplicity           Mult            ....    1
 Number of Electrons    NEL             ....  134
 Basis Dimension        Dim             ....  322

ORBITAL ENERGIES
----------------

  NO   OCC          E(Eh)            E(eV)
   0   2.0000     -88.967492     -2420.9285
   1   2.0000     -88.964481     -2420.8466
   2   2.0000     -10.332556      -281.1631
   3   2.0000     -10.324458      -280.9428
   4   2.0000     -10.312876      -280.6276
   5   2.0000     -10.308994      -280.5220
   6   2.0000     -10.305599      -280.4296
   7   2.0000     -10.296893      -280.1927
   8   2.0000     -10.293680      -280.1053
   9   2.0000     -10.293637      -280.1041
  10   2.0000     -10.291449      -280.0446
  11   2.0000     -10.289975      -280.0044
  12   2.0000     -10.286891      -279.9205
  13   2.0000     -10.284824      -279.8643
  14   2.0000     -10.283125      -279.8180
  15   2.0000     -10.270514      -279.4749
  16   2.0000      -8.081406      -219.9062
  17   2.0000      -8.080913      -219.8928
  18   2.0000      -6.040249      -164.3635
  19   2.0000      -6.039252      -164.3364
  20   2.0000      -6.036131      -164.2515
  21   2.0000      -6.035170      -164.2253
  22   2.0000      -6.031766      -164.1327
  23   2.0000      -6.031755      -164.1324
  24   2.0000      -1.015211       -27.6253
  25   2.0000      -0.986034       -26.8314
  26   2.0000      -0.915830       -24.9210
  27   2.0000      -0.909404       -24.7462
  28   2.0000      -0.872813       -23.7505
  29   2.0000      -0.857396       -23.3309
  30   2.0000      -0.846639       -23.0382
  31   2.0000      -0.815553       -22.1923
  32   2.0000      -0.788677       -21.4610
  33   2.0000      -0.778777       -21.1916
  34   2.0000      -0.708603       -19.2821
  35   2.0000      -0.706066       -19.2130
  36   2.0000      -0.696133       -18.9427
  37   2.0000      -0.665948       -18.1214
  38   2.0000      -0.638642       -17.3783
  39   2.0000      -0.625401       -17.0180
  40   2.0000      -0.598613       -16.2891
  41   2.0000      -0.584163       -15.8959
  42   2.0000      -0.577407       -15.7120
  43   2.0000      -0.565188       -15.3796
  44   2.0000      -0.523652       -14.2493
  45   2.0000      -0.522059       -14.2060
  46   2.0000      -0.519718       -14.1422
  47   2.0000      -0.513577       -13.9751
  48   2.0000      -0.507466       -13.8089
  49   2.0000      -0.501571       -13.6484
  50   2.0000      -0.497535       -13.5386
  51   2.0000      -0.485451       -13.2098
  52   2.0000      -0.475973       -12.9519
  53   2.0000      -0.466575       -12.6962
  54   2.0000      -0.462840       -12.5945
  55   2.0000      -0.450267       -12.2524
  56   2.0000      -0.447695       -12.1824
  57   2.0000      -0.434995       -11.8368
  58   2.0000      -0.432905       -11.7800
  59   2.0000      -0.426616       -11.6088
  60   2.0000      -0.424707       -11.5569
  61   2.0000      -0.415409       -11.3039
  62   2.0000      -0.403498       -10.9797
  63   2.0000      -0.357160        -9.7188
  64   2.0000      -0.334299        -9.0967
  65   2.0000      -0.327896        -8.9225
  66   2.0000      -0.288041        -7.8380
  67   0.0000       0.028463         0.7745
  68   0.0000       0.079616         2.1665
  69   0.0000       0.101495         2.7618
  70   0.0000       0.123426         3.3586
  71   0.0000       0.127129         3.4594

MULLIKEN ATOMIC CHARGES
-----------------------
   0 S :    0.101772
   1 C :   -0.111874
   2 C :   -0.041578
   3 C :    0.023246
   4 C :   -0.103732
   5 H :   -0.021643
   6 C :    0.041202
   7 H :   -0.000967
   8 H :    0.010013
   9 C :   -0.093037
  10 H :    0.033504
  11 H :    0.035132
  12 C :    0.002485
  13 H :    0.024975
  14 H :    0.019245
  15 H :    0.021255
  16 S :    0.113397
  17 C :   -0.070781
  18 C :   -0.053695
  19 C :   -0.007184
  20 C :   -0.160340
  21 H :    0.012637
  22 C :    0.053081
  23 H :    0.016302
  24 H :    0.024013
  25 C :   -0.045109
  26 H :    0.032236
  27 H :    0.021155
  28 C :   -0.051494
  29 H :    0.021240
  30 H :    0.020448
  31 H :    0.048885
  32 H :    0.041494
  33 H :    0.043717
Sum of atomic charges:    0.0000000

LOEWDIN ATOMIC CHARGES
----------------------
   0 S :    0.377651
   1 C :   -0.180058
   2 C :   -0.062066
   3 C :   -0.058441
   4 C :   -0.181680
   5 H :    0.020386
   6 C :   -0.047674
   7 H :    0.029380
   8 H :    0.030734
   9 C :   -0.025261
  10 H :    0.022030
  11 H :    0.024465
  12 C :   -0.056754
  13 H :    0.023426
  14 H :    0.021856
  15 H :    0.018125
  16 S :    0.438616
  17 C :   -0.199848
  18 C :   -0.072094
  19 C :   -0.057818
  20 C :   -0.195833
  21 H :    0.029622
  22 C :   -0.030246
  23 H :    0.029137
  24 H :    0.026880
  25 C :   -0.034667
  26 H :    0.029013
  27 H :    0.012331
  28 C :   -0.071974
  29 H :    0.031889
  30 H :    0.024039
  31 H :    0.029057
  32 H :    0.029181
  33 H :    0.026597

  Mayer bond orders larger than 0.100000
B(  0-S ,  1-C ) :   1.1073 B(  0-S ,  4-C ) :   1.1271 B(  1-C ,  2-C ) :   1.6612
B(  1-C , 32-H ) :   0.9593 B(  2-C ,  3-C ) :   1.2132 B(  2-C ,  6-C ) :   1.0404
B(  3-C ,  4-C ) :   1.5746 B(  3-C ,  5-H ) :   0.9967 B(  4-C , 20-C ) :   1.0542
B(  6-C ,  7-H ) :   0.9230 B(  6-C ,  8-H ) :   0.9401 B(  6-C ,  9-C ) :   1.0407
B(  9-C , 10-H ) :   0.9618 B(  9-C , 11-H ) :   0.9620 B(  9-C , 12-C ) :   1.0793
B( 12-C , 13-H ) :   0.9733 B( 12-C , 14-H ) :   0.9735 B( 12-C , 15-H ) :   0.9754
B( 16-S , 17-C ) :   1.1552 B( 16-S , 20-C ) :   1.1661 B( 17-C , 18-C ) :   1.5981
B( 17-C , 33-H ) :   0.9759 B( 18-C , 19-C ) :   1.2511 B( 18-C , 21-H ) :   0.9890
B( 19-C , 20-C ) :   1.5761 B( 19-C , 22-C ) :   1.0359 B( 22-C , 23-H ) :   0.9291
B( 22-C , 24-H ) :   0.9358 B( 22-C , 25-C ) :   1.0675 B( 25-C , 26-H ) :   0.9529
B( 25-C , 27-H ) :   0.9519 B( 25-C , 28-C ) :   1.0945 B( 28-C , 29-H ) :   0.9664
B( 28-C , 30-H ) :   0.9679 B( 28-C , 31-H ) :   0.9741

Dispersion correction           -0.013754488
FINAL SINGLE POINT ENERGY     -1339.858455907928

DIPOLE MOMENT
-------------
                                X             Y             Z
Electronic contribution:     -3.66718     -32.55926      -2.94921
Nuclear contribution   :      3.58049      33.31941       3.09988
                        -----------------------------------------
Total Dipole Moment    :     -0.08669       0.76015       0.15067
                        -----------------------------------------
Magnitude (a.u.)       :      0.77977
Magnitude (Debye)      :      1.98203

Rotational constants in cm-1:     0.017192     0.008965     0.006331
Rotational constants in MHz :   515.398037   268.773660   189.804291

                             ****ORCA TERMINATED NORMALLY****
TOTAL RUN TIME: 0 days 0 hours 0 minutes 34 seconds 586 msec
