                         Program Version 4.2.1 -  RELEASE  -
|  1> ! wB97X-D3 SP def2-SVP
|  2> %pal
|  3> nprocs 16
|  4> end
|  5>
|  6> * xyz 0 1
|  7> S 	 6.99006 	 -8.35139 	 93.8702
|  8> C 	 7.33748 	 -7.01596 	 94.9893
|  9> C 	 8.10578 	 -6.00909 	 94.3962
| 10> C 	 8.2655 	 -6.30445 	 93.0452
| 11> C 	 7.76712 	 -7.51716 	 92.563
| 12> H 	 8.73391 	 -5.69746 	 92.3484
| 13> C 	 8.31221 	 -4.61957 	 95.044
| 14> H 	 9.34978 	 -4.46736 	 95.3369
| 15> H 	 7.65745 	 -4.53954 	 95.921
| 16> C 	 7.99944 	 -3.40242 	 94.1313
| 17> H 	 8.68231 	 -3.45119 	 93.2548
| 18> H 	 7.05085 	 -3.46868 	 93.6484
| 19> C 	 8.10913 	 -2.05482 	 94.8664
| 20> H 	 7.83192 	 -1.3357 	 94.1198
| 21> H 	 7.36454 	 -2.01564 	 95.6938
| 22> H 	 9.15704 	 -1.87649 	 95.2939
| 23> S 	 8.90437 	 -9.47838 	 91.0959
| 24> C 	 9.42596 	 -9.09365 	 89.5002
| 25> C 	 8.88843 	 -7.89434 	 89.0547
| 26> C 	 8.12947 	 -7.24322 	 90.0788
| 27> C 	 7.97543 	 -8.00665 	 91.2181
| 28> H 	 9.10475 	 -7.476 	 88.1239
| 29> C 	 7.50313 	 -5.88915 	 89.8483
| 30> H 	 7.076 	 -5.59883 	 90.8134
| 31> H 	 6.61626 	 -6.06345 	 89.2169
| 32> C 	 8.34446 	 -4.62644 	 89.5157
| 33> H 	 8.86938 	 -4.88412 	 88.6512
| 34> H 	 9.14984 	 -4.45155 	 90.2124
| 35> C 	 7.47168 	 -3.435 	 89.3138
| 36> H 	 8.08056 	 -2.57167 	 89.2292
| 37> H 	 6.88071 	 -3.29257 	 90.2108
| 38> H 	 6.82703 	 -3.34486 	 88.4512
| 39> H 	 7.20124 	 -7.02494 	 96.0427
| 40> H 	 9.87305 	 -9.70591 	 88.7479
| 41> *
| 42>
| 43>                          ****END OF INPUT****

CARTESIAN COORDINATES (ANGSTROEM)
---------------------------------
  S      6.990060   -8.351390   93.870200
  C      7.337480   -7.015960   94.989300
  C      8.105780   -6.009090   94.396200
  C      8.265500   -6.304450   93.045200
  C      7.767120   -7.517160   92.563000
  H      8.733910   -5.697460   92.348400
  C      8.312210   -4.619570   95.044000
  H      9.349780   -4.467360   95.336900
  H      7.657450   -4.539540   95.921000
  C      7.999440   -3.402420   94.131300
  H      8.682310   -3.451190   93.254800
  H      7.050850   -3.468680   93.648400
  C      8.109130   -2.054820   94.866400
  H      7.831920   -1.335700   94.119800
  H      7.364540   -2.015640   95.693800
  H      9.157040   -1.876490   95.293900
  S      8.904370   -9.478380   91.095900
  C      9.425960   -9.093650   89.500200
  C      8.888430   -7.894340   89.054700
  C      8.129470   -7.243220   90.078800
  C      7.975430   -8.006650   91.218100
  H      9.104750   -7.476000   88.123900
  C      7.503130   -5.889150   89.848300
  H      7.076000   -5.598830   90.813400
  H      6.616260   -6.063450   89.216900
  C      8.344460   -4.626440   89.515700
  H      8.869380   -4.884120   88.651200
  H      9.149840   -4.451550   90.212400
  C      7.471680   -3.435000   89.313800
  H      8.080560   -2.571670   89.229200
  H      6.880710   -3.292570   90.210800
  H      6.827030   -3.344860   88.451200
  H      7.201240   -7.024940   96.042700
  H      9.873050   -9.705910   88.747900

 Total Charge           Charge          ....    0
 Multiplicity           Mult            ....    1
 Number of Electrons    NEL             ....  134
 Basis Dimension        Dim             ....  322

ORBITAL ENERGIES
----------------

  NO   OCC          E(Eh)            E(eV)
   0   2.0000     -88.968649     -2420.9600
   1   2.0000     -88.966365     -2420.8979
   2   2.0000     -10.326240      -280.9913
   3   2.0000     -10.322212      -280.8817
   4   2.0000     -10.316183      -280.7176
   5   2.0000     -10.312927      -280.6290
   6   2.0000     -10.302239      -280.3382
   7   2.0000     -10.300057      -280.2788
   8   2.0000     -10.297960      -280.2217
   9   2.0000     -10.289688      -279.9966
  10   2.0000     -10.289126      -279.9814
  11   2.0000     -10.289083      -279.9802
  12   2.0000     -10.288905      -279.9753
  13   2.0000     -10.284487      -279.8551
  14   2.0000     -10.283054      -279.8161
  15   2.0000     -10.274290      -279.5776
  16   2.0000      -8.082814      -219.9445
  17   2.0000      -8.081699      -219.9142
  18   2.0000      -6.041229      -164.3902
  19   2.0000      -6.040279      -164.3643
  20   2.0000      -6.037350      -164.2846
  21   2.0000      -6.035978      -164.2473
  22   2.0000      -6.033774      -164.1873
  23   2.0000      -6.032464      -164.1517
  24   2.0000      -1.010589       -27.4995
  25   2.0000      -0.984745       -26.7963
  26   2.0000      -0.914764       -24.8920
  27   2.0000      -0.909240       -24.7417
  28   2.0000      -0.872787       -23.7497
  29   2.0000      -0.860031       -23.4026
  30   2.0000      -0.847113       -23.0511
  31   2.0000      -0.813196       -22.1282
  32   2.0000      -0.783907       -21.3312
  33   2.0000      -0.773112       -21.0375
  34   2.0000      -0.715315       -19.4647
  35   2.0000      -0.705284       -19.1918
  36   2.0000      -0.692521       -18.8445
  37   2.0000      -0.664641       -18.0858
  38   2.0000      -0.643173       -17.5016
  39   2.0000      -0.622048       -16.9268
  40   2.0000      -0.598012       -16.2727
  41   2.0000      -0.574634       -15.6366
  42   2.0000      -0.567660       -15.4468
  43   2.0000      -0.562433       -15.3046
  44   2.0000      -0.528400       -14.3785
  45   2.0000      -0.525446       -14.2981
  46   2.0000      -0.521714       -14.1966
  47   2.0000      -0.518047       -14.0968
  48   2.0000      -0.503952       -13.7132
  49   2.0000      -0.496901       -13.5214
  50   2.0000      -0.491214       -13.3666
  51   2.0000      -0.486603       -13.2411
  52   2.0000      -0.474174       -12.9029
  53   2.0000      -0.468234       -12.7413
  54   2.0000      -0.455119       -12.3844
  55   2.0000      -0.453197       -12.3321
  56   2.0000      -0.446179       -12.1411
  57   2.0000      -0.442445       -12.0396
  58   2.0000      -0.435774       -11.8580
  59   2.0000      -0.427155       -11.6235
  60   2.0000      -0.423609       -11.5270
  61   2.0000      -0.416560       -11.3352
  62   2.0000      -0.407417       -11.0864
  63   2.0000      -0.346624        -9.4321
  64   2.0000      -0.334503        -9.1023
  65   2.0000      -0.330479        -8.9928
  66   2.0000      -0.289225        -7.8702
  67   0.0000       0.027821         0.7571
  68   0.0000       0.068470         1.8632
  69   0.0000       0.115718         3.1488
  70   0.0000       0.119794         3.2598
  71   0.0000       0.123445         3.3591

MULLIKEN ATOMIC CHARGES
-----------------------
   0 S :    0.115395
   1 C :   -0.121154
   2 C :   -0.041376
   3 C :    0.038922
   4 C :   -0.153816
   5 H :   -0.043893
   6 C :    0.070133
   7 H :    0.033585
   8 H :    0.024489
   9 C :   -0.119865
  10 H :    0.029342
  11 H :    0.027197
  12 C :   -0.055298
  13 H :    0.037590
  14 H :    0.039497
  15 H :    0.047832
  16 S :    0.111389
  17 C :   -0.065113
  18 C :   -0.017601
  19 C :   -0.076306
  20 C :   -0.096607
  21 H :   -0.003430
  22 C :    0.004542
  23 H :    0.012723
  24 H :    0.046988
  25 C :   -0.019207
  26 H :    0.001705
  27 H :    0.026342
  28 C :   -0.016491
  29 H :    0.016372
  30 H :    0.022326
  31 H :    0.033508
  32 H :    0.040049
  33 H :    0.050231
Sum of atomic charges:   -0.0000000

LOEWDIN ATOMIC CHARGES
----------------------
   0 S :    0.407554
   1 C :   -0.186474
   2 C :   -0.062391
   3 C :   -0.058486
   4 C :   -0.202969
   5 H :    0.012831
   6 C :   -0.025197
   7 H :    0.031212
   8 H :    0.029457
   9 C :   -0.045492
  10 H :    0.022242
  11 H :    0.018808
  12 C :   -0.065096
  13 H :    0.026712
  14 H :    0.028100
  15 H :    0.033775
  16 S :    0.427725
  17 C :   -0.187579
  18 C :   -0.063198
  19 C :   -0.051194
  20 C :   -0.208925
  21 H :    0.020278
  22 C :   -0.040776
  23 H :    0.026115
  24 H :    0.040232
  25 C :   -0.033261
  26 H :    0.012302
  27 H :    0.025445
  28 C :   -0.059408
  29 H :    0.024205
  30 H :    0.025632
  31 H :    0.027865
  32 H :    0.020877
  33 H :    0.029079

  Mayer bond orders larger than 0.100000
B(  0-S ,  1-C ) :   1.1561 B(  0-S ,  4-C ) :   1.1475 B(  1-C ,  2-C ) :   1.5832
B(  1-C ,  4-C ) :   0.1037 B(  1-C , 32-H ) :   0.9632 B(  2-C ,  3-C ) :   1.2861
B(  2-C ,  6-C ) :   1.0133 B(  3-C ,  4-C ) :   1.5493 B(  3-C ,  5-H ) :   0.9951
B(  4-C , 20-C ) :   1.0200 B(  6-C ,  7-H ) :   0.9300 B(  6-C ,  8-H ) :   0.9550
B(  6-C ,  9-C ) :   1.0710 B(  9-C , 10-H ) :   0.9457 B(  9-C , 11-H ) :   0.9575
B(  9-C , 12-C ) :   1.0849 B( 12-C , 13-H ) :   0.9728 B( 12-C , 14-H ) :   0.9746
B( 12-C , 15-H ) :   0.9739 B( 16-S , 17-C ) :   1.1779 B( 16-S , 20-C ) :   1.1353
B( 17-C , 18-C ) :   1.5854 B( 17-C , 33-H ) :   0.9614 B( 18-C , 19-C ) :   1.2567
B( 18-C , 21-H ) :   1.0013 B( 19-C , 20-C ) :   1.5859 B( 19-C , 22-C ) :   1.0375
B( 22-C , 23-H ) :   0.9377 B( 22-C , 24-H ) :   0.9381 B( 22-C , 25-C ) :   1.0488
B( 25-C , 26-H ) :   0.9468 B( 25-C , 27-H ) :   0.9488 B( 25-C , 28-C ) :   1.0925
B( 28-C , 29-H ) :   0.9681 B( 28-C , 30-H ) :   0.9720 B( 28-C , 31-H ) :   0.9736

Dispersion correction           -0.014699628
FINAL SINGLE POINT ENERGY     -1339.866076268086

DIPOLE MOMENT
-------------
                                X             Y             Z
Electronic contribution:     -0.04584     -34.45344       2.05800
Nuclear contribution   :      0.22199      35.28286      -2.35324
                        -----------------------------------------
Total Dipole Moment    :      0.17614       0.82942      -0.29523
                        -----------------------------------------
Magnitude (a.u.)       :      0.89785
Magnitude (Debye)      :      2.28215

Rotational constants in cm-1:     0.016362     0.010249     0.006826
Rotational constants in MHz :   490.508099   307.263923   204.643619

                             ****ORCA TERMINATED NORMALLY****
TOTAL RUN TIME: 0 days 0 hours 0 minutes 35 seconds 465 msec
