                         Program Version 4.2.1 -  RELEASE  -
|  1> ! wB97X-D3 SP def2-SVP
|  2> %pal
|  3> nprocs 16
|  4> end
|  5>
|  6> * xyz 0 1
|  7> S 	 40.4282 	 15.7597 	 50.7195
|  8> C 	 39.972 	 16.3083 	 52.324
|  9> C 	 39.9739 	 15.2536 	 53.1814
| 10> C 	 40.3547 	 14.0173 	 52.5687
| 11> C 	 40.6633 	 14.1042 	 51.2499
| 12> H 	 40.297 	 13.0707 	 53.0534
| 13> C 	 39.5343 	 15.2976 	 54.6348
| 14> H 	 38.9689 	 14.3815 	 54.7814
| 15> H 	 38.8523 	 16.1184 	 54.7606
| 16> C 	 40.693 	 15.3452 	 55.6171
| 17> H 	 41.0756 	 14.3608 	 55.7309
| 18> H 	 41.5619 	 15.9183 	 55.2748
| 19> C 	 40.3342 	 15.7686 	 57.0669
| 20> H 	 41.1955 	 16.1337 	 57.6402
| 21> H 	 39.6132 	 16.505 	 57.0701
| 22> H 	 39.9399 	 14.8835 	 57.5718
| 23> S 	 40.2236 	 11.7872 	 49.903
| 24> C 	 41.6561 	 10.9196 	 49.3435
| 25> C 	 42.742 	 11.7131 	 49.2543
| 26> C 	 42.5938 	 12.8952 	 50.004
| 27> C 	 41.2447 	 13.0449 	 50.4494
| 28> H 	 43.6879 	 11.397 	 48.8609
| 29> C 	 43.6568 	 13.9937 	 50.0242
| 30> H 	 43.941 	 14.2642 	 51.0765
| 31> H 	 43.1271 	 14.938 	 49.7831
| 32> C 	 44.9266 	 13.8862 	 49.1902
| 33> H 	 45.5067 	 13.0342 	 49.535
| 34> H 	 45.4191 	 14.8233 	 49.3933
| 35> C 	 44.7411 	 13.7431 	 47.6694
| 36> H 	 45.6435 	 13.8163 	 47.0327
| 37> H 	 44.1005 	 14.6195 	 47.3754
| 38> H 	 44.2028 	 12.9456 	 47.2913
| 39> H 	 39.9358 	 17.3553 	 52.6572
| 40> H 	 41.5791 	 9.85265 	 49.1268
| 41> *
| 42>
| 43>                          ****END OF INPUT****

CARTESIAN COORDINATES (ANGSTROEM)
---------------------------------
  S     40.428200   15.759700   50.719500
  C     39.972000   16.308300   52.324000
  C     39.973900   15.253600   53.181400
  C     40.354700   14.017300   52.568700
  C     40.663300   14.104200   51.249900
  H     40.297000   13.070700   53.053400
  C     39.534300   15.297600   54.634800
  H     38.968900   14.381500   54.781400
  H     38.852300   16.118400   54.760600
  C     40.693000   15.345200   55.617100
  H     41.075600   14.360800   55.730900
  H     41.561900   15.918300   55.274800
  C     40.334200   15.768600   57.066900
  H     41.195500   16.133700   57.640200
  H     39.613200   16.505000   57.070100
  H     39.939900   14.883500   57.571800
  S     40.223600   11.787200   49.903000
  C     41.656100   10.919600   49.343500
  C     42.742000   11.713100   49.254300
  C     42.593800   12.895200   50.004000
  C     41.244700   13.044900   50.449400
  H     43.687900   11.397000   48.860900
  C     43.656800   13.993700   50.024200
  H     43.941000   14.264200   51.076500
  H     43.127100   14.938000   49.783100
  C     44.926600   13.886200   49.190200
  H     45.506700   13.034200   49.535000
  H     45.419100   14.823300   49.393300
  C     44.741100   13.743100   47.669400
  H     45.643500   13.816300   47.032700
  H     44.100500   14.619500   47.375400
  H     44.202800   12.945600   47.291300
  H     39.935800   17.355300   52.657200
  H     41.579100    9.852650   49.126800

 Total Charge           Charge          ....    0
 Multiplicity           Mult            ....    1
 Number of Electrons    NEL             ....  134
 Basis Dimension        Dim             ....  322

ORBITAL ENERGIES
----------------

  NO   OCC          E(Eh)            E(eV)
   0   2.0000     -88.966324     -2420.8967
   1   2.0000     -88.962040     -2420.7802
   2   2.0000     -10.323634      -280.9204
   3   2.0000     -10.321754      -280.8692
   4   2.0000     -10.314709      -280.6775
   5   2.0000     -10.312949      -280.6296
   6   2.0000     -10.303917      -280.3838
   7   2.0000     -10.295937      -280.1667
   8   2.0000     -10.293842      -280.1097
   9   2.0000     -10.289069      -279.9798
  10   2.0000     -10.288985      -279.9775
  11   2.0000     -10.288735      -279.9707
  12   2.0000     -10.287205      -279.9291
  13   2.0000     -10.281117      -279.7634
  14   2.0000     -10.274673      -279.5881
  15   2.0000     -10.272695      -279.5343
  16   2.0000      -8.081675      -219.9135
  17   2.0000      -8.076525      -219.7734
  18   2.0000      -6.039956      -164.3556
  19   2.0000      -6.036243      -164.2545
  20   2.0000      -6.035102      -164.2235
  21   2.0000      -6.032503      -164.1527
  22   2.0000      -6.030990      -164.1116
  23   2.0000      -6.027302      -164.0112
  24   2.0000      -1.009307       -27.4646
  25   2.0000      -0.987819       -26.8799
  26   2.0000      -0.911930       -24.8149
  27   2.0000      -0.908451       -24.7202
  28   2.0000      -0.873341       -23.7648
  29   2.0000      -0.849375       -23.1127
  30   2.0000      -0.844197       -22.9718
  31   2.0000      -0.818113       -22.2620
  32   2.0000      -0.784937       -21.3592
  33   2.0000      -0.772673       -21.0255
  34   2.0000      -0.708585       -19.2816
  35   2.0000      -0.702060       -19.1040
  36   2.0000      -0.693200       -18.8629
  37   2.0000      -0.659786       -17.9537
  38   2.0000      -0.640693       -17.4341
  39   2.0000      -0.619832       -16.8665
  40   2.0000      -0.602905       -16.4059
  41   2.0000      -0.571378       -15.5480
  42   2.0000      -0.558531       -15.1984
  43   2.0000      -0.549534       -14.9536
  44   2.0000      -0.535496       -14.5716
  45   2.0000      -0.529170       -14.3994
  46   2.0000      -0.516459       -14.0536
  47   2.0000      -0.515608       -14.0304
  48   2.0000      -0.504749       -13.7349
  49   2.0000      -0.500181       -13.6106
  50   2.0000      -0.493497       -13.4287
  51   2.0000      -0.477228       -12.9860
  52   2.0000      -0.473405       -12.8820
  53   2.0000      -0.465893       -12.6776
  54   2.0000      -0.462569       -12.5871
  55   2.0000      -0.447804       -12.1854
  56   2.0000      -0.443906       -12.0793
  57   2.0000      -0.436817       -11.8864
  58   2.0000      -0.434218       -11.8157
  59   2.0000      -0.424928       -11.5629
  60   2.0000      -0.421628       -11.4731
  61   2.0000      -0.416877       -11.3438
  62   2.0000      -0.410354       -11.1663
  63   2.0000      -0.339286        -9.2325
  64   2.0000      -0.331215        -9.0128
  65   2.0000      -0.320809        -8.7297
  66   2.0000      -0.298705        -8.1282
  67   0.0000       0.033366         0.9079
  68   0.0000       0.064724         1.7612
  69   0.0000       0.106114         2.8875
  70   0.0000       0.121768         3.3135
  71   0.0000       0.137013         3.7283

MULLIKEN ATOMIC CHARGES
-----------------------
   0 S :    0.096512
   1 C :   -0.132208
   2 C :   -0.102344
   3 C :    0.052459
   4 C :   -0.148926
   5 H :    0.001400
   6 C :    0.090937
   7 H :    0.026400
   8 H :    0.014887
   9 C :   -0.077199
  10 H :    0.015802
  11 H :    0.031748
  12 C :   -0.024804
  13 H :    0.037465
  14 H :    0.010007
  15 H :    0.028988
  16 S :    0.124239
  17 C :   -0.110081
  18 C :   -0.012227
  19 C :   -0.016840
  20 C :   -0.188199
  21 H :    0.020898
  22 C :    0.030135
  23 H :    0.037634
  24 H :    0.021479
  25 C :   -0.039652
  26 H :    0.033389
  27 H :    0.035707
  28 C :   -0.059172
  29 H :    0.038597
  30 H :    0.023242
  31 H :    0.018733
  32 H :    0.060216
  33 H :    0.060779
Sum of atomic charges:   -0.0000000

LOEWDIN ATOMIC CHARGES
----------------------
   0 S :    0.395328
   1 C :   -0.199345
   2 C :   -0.064255
   3 C :   -0.055178
   4 C :   -0.197982
   5 H :    0.027565
   6 C :   -0.025528
   7 H :    0.033654
   8 H :    0.024527
   9 C :   -0.041662
  10 H :    0.020337
  11 H :    0.024398
  12 C :   -0.058052
  13 H :    0.030683
  14 H :    0.009113
  15 H :    0.026807
  16 S :    0.423600
  17 C :   -0.176022
  18 C :   -0.071287
  19 C :   -0.048928
  20 C :   -0.219262
  21 H :    0.031230
  22 C :   -0.043800
  23 H :    0.041797
  24 H :    0.028222
  25 C :   -0.039104
  26 H :    0.021484
  27 H :    0.033740
  28 C :   -0.071830
  29 H :    0.030625
  30 H :    0.032421
  31 H :    0.011174
  32 H :    0.037344
  33 H :    0.028187

  Mayer bond orders larger than 0.100000
B(  0-S ,  1-C ) :   1.1298 B(  0-S ,  4-C ) :   1.1372 B(  1-C ,  2-C ) :   1.6376
B(  1-C , 32-H ) :   0.9631 B(  2-C ,  3-C ) :   1.2316 B(  2-C ,  6-C ) :   1.0210
B(  3-C ,  4-C ) :   1.6060 B(  3-C ,  5-H ) :   0.9982 B(  4-C , 20-C ) :   1.0097
B(  6-C ,  7-H ) :   0.9376 B(  6-C ,  8-H ) :   0.9483 B(  6-C ,  9-C ) :   1.0537
B(  9-C , 10-H ) :   0.9553 B(  9-C , 11-H ) :   0.9648 B(  9-C , 12-C ) :   1.0777
B( 12-C , 13-H ) :   0.9762 B( 12-C , 14-H ) :   0.9796 B( 12-C , 15-H ) :   0.9783
B( 16-S , 17-C ) :   1.1634 B( 16-S , 20-C ) :   1.1730 B( 17-C , 18-C ) :   1.5774
B( 17-C , 20-C ) :   0.1061 B( 17-C , 33-H ) :   0.9680 B( 18-C , 19-C ) :   1.2867
B( 18-C , 21-H ) :   0.9766 B( 19-C , 20-C ) :   1.5540 B( 19-C , 22-C ) :   1.0284
B( 22-C , 23-H ) :   0.9207 B( 22-C , 24-H ) :   0.9290 B( 22-C , 25-C ) :   1.0918
B( 25-C , 26-H ) :   0.9534 B( 25-C , 27-H ) :   0.9475 B( 25-C , 28-C ) :   1.0674
B( 28-C , 29-H ) :   0.9744 B( 28-C , 30-H ) :   0.9708 B( 28-C , 31-H ) :   0.9773

Dispersion correction           -0.014078186
FINAL SINGLE POINT ENERGY     -1339.868798051374

DIPOLE MOMENT
-------------
                                X             Y             Z
Electronic contribution:    -13.21999      -6.37151     -13.10538
Nuclear contribution   :     13.58180       6.34119      13.50594
                        -----------------------------------------
Total Dipole Moment    :      0.36181      -0.03032       0.40056
                        -----------------------------------------
Magnitude (a.u.)       :      0.54062
Magnitude (Debye)      :      1.37415

Rotational constants in cm-1:     0.021934     0.007044     0.006468
Rotational constants in MHz :   657.553227   211.185592   193.910718

                             ****ORCA TERMINATED NORMALLY****
TOTAL RUN TIME: 0 days 0 hours 0 minutes 33 seconds 777 msec
