                         Program Version 4.2.1 -  RELEASE  -
|  1> ! wB97X-D3 SP def2-SVP
|  2> %pal
|  3> nprocs 16
|  4> end
|  5>
|  6> * xyz 0 1
|  7> S 	 -45.5532 	 50.2662 	 100.944
|  8> C 	 -45.0017 	 49.7053 	 99.3885
|  9> C 	 -43.6551 	 49.9569 	 99.0997
| 10> C 	 -43.0884 	 50.7051 	 100.165
| 11> C 	 -43.9457 	 51.0105 	 101.232
| 12> H 	 -42.0308 	 51.1078 	 100.184
| 13> C 	 -43.0116 	 49.5909 	 97.7876
| 14> H 	 -43.2092 	 50.4792 	 97.2382
| 15> H 	 -43.5468 	 48.7829 	 97.2645
| 16> C 	 -41.5017 	 49.1474 	 97.9063
| 17> H 	 -41.0307 	 49.0341 	 96.93
| 18> H 	 -40.9237 	 49.9334 	 98.3615
| 19> C 	 -41.2944 	 47.8553 	 98.7365
| 20> H 	 -40.2795 	 47.3708 	 98.5256
| 21> H 	 -41.4528 	 48.0734 	 99.7696
| 22> H 	 -41.9452 	 47.0344 	 98.5247
| 23> S 	 -44.9074 	 52.8223 	 103.088
| 24> C 	 -43.8946 	 53.0795 	 104.489
| 25> C 	 -42.656 	 52.5863 	 104.343
| 26> C 	 -42.4593 	 51.8459 	 103.13
| 27> C 	 -43.6209 	 51.7973 	 102.411
| 28> H 	 -42.1252 	 52.7041 	 105.218
| 29> C 	 -41.2594 	 50.9961 	 102.827
| 30> H 	 -40.7582 	 51.4612 	 101.974
| 31> H 	 -41.4952 	 49.9971 	 102.471
| 32> C 	 -40.3775 	 50.8454 	 104.03
| 33> H 	 -40.9149 	 50.491 	 104.916
| 34> H 	 -40.0231 	 51.7889 	 104.227
| 35> C 	 -39.2121 	 49.832 	 103.991
| 36> H 	 -39.6915 	 48.8503 	 103.803
| 37> H 	 -38.7165 	 49.8209 	 104.991
| 38> H 	 -38.3929 	 49.9816 	 103.255
| 39> H 	 -45.5981 	 49.1671 	 98.6251
| 40> H 	 -44.1122 	 53.6136 	 105.382
| 41> *
| 42>
| 43>                          ****END OF INPUT****

CARTESIAN COORDINATES (ANGSTROEM)
---------------------------------
  S    -45.553200   50.266200  100.944000
  C    -45.001700   49.705300   99.388500
  C    -43.655100   49.956900   99.099700
  C    -43.088400   50.705100  100.165000
  C    -43.945700   51.010500  101.232000
  H    -42.030800   51.107800  100.184000
  C    -43.011600   49.590900   97.787600
  H    -43.209200   50.479200   97.238200
  H    -43.546800   48.782900   97.264500
  C    -41.501700   49.147400   97.906300
  H    -41.030700   49.034100   96.930000
  H    -40.923700   49.933400   98.361500
  C    -41.294400   47.855300   98.736500
  H    -40.279500   47.370800   98.525600
  H    -41.452800   48.073400   99.769600
  H    -41.945200   47.034400   98.524700
  S    -44.907400   52.822300  103.088000
  C    -43.894600   53.079500  104.489000
  C    -42.656000   52.586300  104.343000
  C    -42.459300   51.845900  103.130000
  C    -43.620900   51.797300  102.411000
  H    -42.125200   52.704100  105.218000
  C    -41.259400   50.996100  102.827000
  H    -40.758200   51.461200  101.974000
  H    -41.495200   49.997100  102.471000
  C    -40.377500   50.845400  104.030000
  H    -40.914900   50.491000  104.916000
  H    -40.023100   51.788900  104.227000
  C    -39.212100   49.832000  103.991000
  H    -39.691500   48.850300  103.803000
  H    -38.716500   49.820900  104.991000
  H    -38.392900   49.981600  103.255000
  H    -45.598100   49.167100   98.625100
  H    -44.112200   53.613600  105.382000

 Total Charge           Charge          ....    0
 Multiplicity           Mult            ....    1
 Number of Electrons    NEL             ....  134
 Basis Dimension        Dim             ....  322

ORBITAL ENERGIES
----------------

  NO   OCC          E(Eh)            E(eV)
   0   2.0000     -88.970559     -2421.0120
   1   2.0000     -88.963500     -2420.8199
   2   2.0000     -10.332549      -281.1629
   3   2.0000     -10.324899      -280.9548
   4   2.0000     -10.314476      -280.6712
   5   2.0000     -10.307840      -280.4906
   6   2.0000     -10.302528      -280.3460
   7   2.0000     -10.302212      -280.3374
   8   2.0000     -10.300424      -280.2888
   9   2.0000     -10.297076      -280.1977
  10   2.0000     -10.293273      -280.0942
  11   2.0000     -10.289691      -279.9967
  12   2.0000     -10.285415      -279.8804
  13   2.0000     -10.283653      -279.8324
  14   2.0000     -10.279686      -279.7245
  15   2.0000     -10.278138      -279.6824
  16   2.0000      -8.084167      -219.9814
  17   2.0000      -8.078097      -219.8162
  18   2.0000      -6.042674      -164.4295
  19   2.0000      -6.038886      -164.3264
  20   2.0000      -6.036652      -164.2657
  21   2.0000      -6.034944      -164.2192
  22   2.0000      -6.032811      -164.1611
  23   2.0000      -6.028640      -164.0476
  24   2.0000      -1.005572       -27.3630
  25   2.0000      -0.982192       -26.7268
  26   2.0000      -0.916549       -24.9406
  27   2.0000      -0.908546       -24.7228
  28   2.0000      -0.871526       -23.7154
  29   2.0000      -0.851873       -23.1807
  30   2.0000      -0.843139       -22.9430
  31   2.0000      -0.817655       -22.2495
  32   2.0000      -0.786077       -21.3902
  33   2.0000      -0.772805       -21.0291
  34   2.0000      -0.714901       -19.4535
  35   2.0000      -0.705112       -19.1871
  36   2.0000      -0.694869       -18.9083
  37   2.0000      -0.649259       -17.6672
  38   2.0000      -0.633787       -17.2462
  39   2.0000      -0.620462       -16.8836
  40   2.0000      -0.600908       -16.3515
  41   2.0000      -0.577875       -15.7248
  42   2.0000      -0.567144       -15.4328
  43   2.0000      -0.555784       -15.1236
  44   2.0000      -0.539399       -14.6778
  45   2.0000      -0.528820       -14.3899
  46   2.0000      -0.513531       -13.9739
  47   2.0000      -0.511129       -13.9085
  48   2.0000      -0.498048       -13.5526
  49   2.0000      -0.492356       -13.3977
  50   2.0000      -0.485430       -13.2092
  51   2.0000      -0.476169       -12.9572
  52   2.0000      -0.471933       -12.8420
  53   2.0000      -0.466330       -12.6895
  54   2.0000      -0.463481       -12.6119
  55   2.0000      -0.450488       -12.2584
  56   2.0000      -0.446660       -12.1542
  57   2.0000      -0.441511       -12.0141
  58   2.0000      -0.431118       -11.7313
  59   2.0000      -0.425882       -11.5888
  60   2.0000      -0.423298       -11.5185
  61   2.0000      -0.420748       -11.4491
  62   2.0000      -0.415665       -11.3108
  63   2.0000      -0.353034        -9.6066
  64   2.0000      -0.333394        -9.0721
  65   2.0000      -0.331759        -9.0276
  66   2.0000      -0.283256        -7.7078
  67   0.0000       0.023063         0.6276
  68   0.0000       0.079297         2.1578
  69   0.0000       0.106407         2.8955
  70   0.0000       0.125109         3.4044
  71   0.0000       0.130215         3.5433

MULLIKEN ATOMIC CHARGES
-----------------------
   0 S :    0.124607
   1 C :   -0.131140
   2 C :   -0.095500
   3 C :   -0.023262
   4 C :   -0.144443
   5 H :    0.028442
   6 C :    0.076028
   7 H :    0.045468
   8 H :    0.028063
   9 C :   -0.067642
  10 H :    0.030134
  11 H :    0.025233
  12 C :   -0.064786
  13 H :    0.042997
  14 H :    0.038669
  15 H :    0.022949
  16 S :    0.101105
  17 C :   -0.067844
  18 C :   -0.035365
  19 C :   -0.019002
  20 C :   -0.153852
  21 H :   -0.011043
  22 C :    0.074594
  23 H :    0.036823
  24 H :    0.030209
  25 C :   -0.082567
  26 H :    0.037250
  27 H :    0.012697
  28 C :   -0.054159
  29 H :    0.034485
  30 H :    0.039812
  31 H :    0.035972
  32 H :    0.050137
  33 H :    0.034931
Sum of atomic charges:   -0.0000000

LOEWDIN ATOMIC CHARGES
----------------------
   0 S :    0.395570
   1 C :   -0.208071
   2 C :   -0.066977
   3 C :   -0.070759
   4 C :   -0.182834
   5 H :    0.038023
   6 C :   -0.027468
   7 H :    0.035668
   8 H :    0.032889
   9 C :   -0.038267
  10 H :    0.025197
  11 H :    0.019980
  12 C :   -0.068894
  13 H :    0.037096
  14 H :    0.022832
  15 H :    0.020719
  16 S :    0.381019
  17 C :   -0.174214
  18 C :   -0.068219
  19 C :   -0.050750
  20 C :   -0.181244
  21 H :    0.022840
  22 C :   -0.031562
  23 H :    0.033004
  24 H :    0.030830
  25 C :   -0.041350
  26 H :    0.031839
  27 H :    0.010740
  28 C :   -0.067511
  29 H :    0.026774
  30 H :    0.032116
  31 H :    0.023027
  32 H :    0.032401
  33 H :    0.025558

  Mayer bond orders larger than 0.100000
B(  0-S ,  1-C ) :   1.1424 B(  0-S ,  4-C ) :   1.1340 B(  1-C ,  2-C ) :   1.6077
B(  1-C ,  4-C ) :   0.1006 B(  1-C , 32-H ) :   0.9568 B(  2-C ,  3-C ) :   1.2540
B(  2-C ,  6-C ) :   1.0041 B(  3-C ,  4-C ) :   1.5580 B(  3-C ,  5-H ) :   0.9767
B(  4-C , 20-C ) :   1.0905 B(  6-C ,  7-H ) :   0.9394 B(  6-C ,  8-H ) :   0.9445
B(  6-C ,  9-C ) :   1.0663 B(  9-C , 10-H ) :   0.9604 B(  9-C , 11-H ) :   0.9561
B(  9-C , 12-C ) :   1.0650 B( 12-C , 13-H ) :   0.9751 B( 12-C , 14-H ) :   0.9758
B( 12-C , 15-H ) :   0.9768 B( 16-S , 17-C ) :   1.1208 B( 16-S , 20-C ) :   1.1194
B( 17-C , 18-C ) :   1.6851 B( 17-C , 33-H ) :   0.9592 B( 18-C , 19-C ) :   1.1800
B( 18-C , 21-H ) :   0.9998 B( 19-C , 20-C ) :   1.6323 B( 19-C , 22-C ) :   1.0306
B( 22-C , 23-H ) :   0.9127 B( 22-C , 24-H ) :   0.9335 B( 22-C , 25-C ) :   1.0949
B( 25-C , 26-H ) :   0.9536 B( 25-C , 27-H ) :   0.9381 B( 25-C , 28-C ) :   1.0795
B( 28-C , 29-H ) :   0.9745 B( 28-C , 30-H ) :   0.9739 B( 28-C , 31-H ) :   0.9761

Dispersion correction           -0.014238911
FINAL SINGLE POINT ENERGY     -1339.871540982483

DIPOLE MOMENT
-------------
                                X             Y             Z
Electronic contribution:    -27.57961      14.02539       5.60319
Nuclear contribution   :     28.22965     -14.23966      -5.72010
                        -----------------------------------------
Total Dipole Moment    :      0.65005      -0.21427      -0.11691
                        -----------------------------------------
Magnitude (a.u.)       :      0.69436
Magnitude (Debye)      :      1.76493

Rotational constants in cm-1:     0.016230     0.010123     0.006678
Rotational constants in MHz :   486.569089   303.486519   200.205975

                             ****ORCA TERMINATED NORMALLY****
TOTAL RUN TIME: 0 days 0 hours 0 minutes 30 seconds 925 msec
