                         Program Version 4.2.1 -  RELEASE  -
|  1> ! wB97X-D3 SP def2-SVP
|  2> %pal
|  3> nprocs 16
|  4> end
|  5>
|  6> * xyz 0 1
|  7> S 	 4.68103 	 16.9455 	 50.8197
|  8> C 	 4.12767 	 16.0116 	 52.2458
|  9> C 	 3.61497 	 14.7698 	 51.8445
| 10> C 	 3.38516 	 14.7352 	 50.4356
| 11> C 	 3.89305 	 15.8047 	 49.693
| 12> H 	 3.03519 	 13.8202 	 49.9532
| 13> C 	 3.22778 	 13.6872 	 52.7506
| 14> H 	 2.13114 	 13.4146 	 52.6817
| 15> H 	 3.39247 	 13.9882 	 53.8119
| 16> C 	 4.06735 	 12.4308 	 52.6811
| 17> H 	 4.10791 	 12.1584 	 51.603
| 18> H 	 5.07775 	 12.5478 	 53.1185
| 19> C 	 3.36605 	 11.3692 	 53.4938
| 20> H 	 3.88018 	 10.3925 	 53.4852
| 21> H 	 3.47951 	 11.5418 	 54.5697
| 22> H 	 2.36873 	 11.0983 	 53.0746
| 23> S 	 5.54301 	 16.372 	 47.5474
| 24> C 	 4.92744 	 16.1206 	 45.9449
| 25> C 	 3.61132 	 15.847 	 45.933
| 26> C 	 3.00538 	 15.7488 	 47.2244
| 27> C 	 3.97294 	 15.9612 	 48.2344
| 28> H 	 3.09403 	 15.7047 	 44.9934
| 29> C 	 1.55126 	 15.4098 	 47.488
| 30> H 	 1.50075 	 15.2217 	 48.5503
| 31> H 	 1.29888 	 14.4883 	 46.9388
| 32> C 	 0.445996 	 16.4566 	 47.1447
| 33> H 	 -0.506524 	 16.0668 	 47.3549
| 34> H 	 0.484562 	 16.6295 	 46.0881
| 35> C 	 0.665925 	 17.8005 	 47.8378
| 36> H 	 0.540443 	 17.6239 	 48.9091
| 37> H 	 -0.00679787 	 18.5713 	 47.3728
| 38> H 	 1.6904 	 18.2217 	 47.7587
| 39> H 	 4.24964 	 16.3446 	 53.2628
| 40> H 	 5.46151 	 16.4482 	 45.0222
| 41> *
| 42>
| 43>                          ****END OF INPUT****

CARTESIAN COORDINATES (ANGSTROEM)
---------------------------------
  S      4.681030   16.945500   50.819700
  C      4.127670   16.011600   52.245800
  C      3.614970   14.769800   51.844500
  C      3.385160   14.735200   50.435600
  C      3.893050   15.804700   49.693000
  H      3.035190   13.820200   49.953200
  C      3.227780   13.687200   52.750600
  H      2.131140   13.414600   52.681700
  H      3.392470   13.988200   53.811900
  C      4.067350   12.430800   52.681100
  H      4.107910   12.158400   51.603000
  H      5.077750   12.547800   53.118500
  C      3.366050   11.369200   53.493800
  H      3.880180   10.392500   53.485200
  H      3.479510   11.541800   54.569700
  H      2.368730   11.098300   53.074600
  S      5.543010   16.372000   47.547400
  C      4.927440   16.120600   45.944900
  C      3.611320   15.847000   45.933000
  C      3.005380   15.748800   47.224400
  C      3.972940   15.961200   48.234400
  H      3.094030   15.704700   44.993400
  C      1.551260   15.409800   47.488000
  H      1.500750   15.221700   48.550300
  H      1.298880   14.488300   46.938800
  C      0.445996   16.456600   47.144700
  H     -0.506524   16.066800   47.354900
  H      0.484562   16.629500   46.088100
  C      0.665925   17.800500   47.837800
  H      0.540443   17.623900   48.909100
  H     -0.006798   18.571300   47.372800
  H      1.690400   18.221700   47.758700
  H      4.249640   16.344600   53.262800
  H      5.461510   16.448200   45.022200

 Total Charge           Charge          ....    0
 Multiplicity           Mult            ....    1
 Number of Electrons    NEL             ....  134
 Basis Dimension        Dim             ....  322

ORBITAL ENERGIES
----------------

  NO   OCC          E(Eh)            E(eV)
   0   2.0000     -88.967267     -2420.9224
   1   2.0000     -88.966265     -2420.8951
   2   2.0000     -10.337994      -281.3111
   3   2.0000     -10.332637      -281.1654
   4   2.0000     -10.320782      -280.8427
   5   2.0000     -10.314969      -280.6846
   6   2.0000     -10.307129      -280.4712
   7   2.0000     -10.302456      -280.3441
   8   2.0000     -10.297874      -280.2194
   9   2.0000     -10.293304      -280.0950
  10   2.0000     -10.290710      -280.0245
  11   2.0000     -10.290597      -280.0214
  12   2.0000     -10.289607      -279.9944
  13   2.0000     -10.282149      -279.7915
  14   2.0000     -10.279859      -279.7292
  15   2.0000     -10.274886      -279.5939
  16   2.0000      -8.081180      -219.9001
  17   2.0000      -8.080732      -219.8879
  18   2.0000      -6.039735      -164.3496
  19   2.0000      -6.039419      -164.3409
  20   2.0000      -6.035696      -164.2396
  21   2.0000      -6.035409      -164.2318
  22   2.0000      -6.031859      -164.1352
  23   2.0000      -6.031395      -164.1226
  24   2.0000      -1.003400       -27.3039
  25   2.0000      -0.981126       -26.6978
  26   2.0000      -0.920598       -25.0507
  27   2.0000      -0.905901       -24.6508
  28   2.0000      -0.870704       -23.6931
  29   2.0000      -0.849366       -23.1124
  30   2.0000      -0.844622       -22.9833
  31   2.0000      -0.814447       -22.1622
  32   2.0000      -0.780197       -21.2302
  33   2.0000      -0.768238       -20.9048
  34   2.0000      -0.708320       -19.2744
  35   2.0000      -0.695050       -18.9133
  36   2.0000      -0.693050       -18.8589
  37   2.0000      -0.653970       -17.7954
  38   2.0000      -0.640187       -17.4204
  39   2.0000      -0.624141       -16.9838
  40   2.0000      -0.594065       -16.1653
  41   2.0000      -0.578985       -15.7550
  42   2.0000      -0.566258       -15.4087
  43   2.0000      -0.550412       -14.9775
  44   2.0000      -0.542518       -14.7627
  45   2.0000      -0.522981       -14.2310
  46   2.0000      -0.516602       -14.0574
  47   2.0000      -0.507163       -13.8006
  48   2.0000      -0.502571       -13.6757
  49   2.0000      -0.501682       -13.6514
  50   2.0000      -0.489619       -13.3232
  51   2.0000      -0.475159       -12.9297
  52   2.0000      -0.468738       -12.7550
  53   2.0000      -0.461343       -12.5538
  54   2.0000      -0.454970       -12.3804
  55   2.0000      -0.451267       -12.2796
  56   2.0000      -0.446274       -12.1437
  57   2.0000      -0.432501       -11.7689
  58   2.0000      -0.429839       -11.6965
  59   2.0000      -0.426330       -11.6010
  60   2.0000      -0.421755       -11.4765
  61   2.0000      -0.415867       -11.3163
  62   2.0000      -0.405900       -11.0451
  63   2.0000      -0.351185        -9.5562
  64   2.0000      -0.332625        -9.0512
  65   2.0000      -0.329218        -8.9585
  66   2.0000      -0.288013        -7.8372
  67   0.0000       0.023971         0.6523
  68   0.0000       0.067091         1.8256
  69   0.0000       0.107238         2.9181
  70   0.0000       0.117980         3.2104
  71   0.0000       0.128870         3.5067

MULLIKEN ATOMIC CHARGES
-----------------------
   0 S :    0.091568
   1 C :   -0.116126
   2 C :   -0.051012
   3 C :    0.030037
   4 C :   -0.146474
   5 H :    0.022408
   6 C :    0.006569
   7 H :    0.046589
   8 H :    0.013419
   9 C :   -0.075916
  10 H :    0.032413
  11 H :    0.040424
  12 C :   -0.063165
  13 H :    0.022528
  14 H :    0.034130
  15 H :    0.041666
  16 S :    0.104833
  17 C :   -0.094232
  18 C :   -0.036799
  19 C :   -0.046354
  20 C :   -0.159036
  21 H :    0.016579
  22 C :    0.067273
  23 H :    0.013090
  24 H :    0.033333
  25 C :   -0.024614
  26 H :    0.021787
  27 H :    0.014145
  28 C :   -0.085863
  29 H :    0.034706
  30 H :    0.043048
  31 H :    0.046563
  32 H :    0.049472
  33 H :    0.073011
Sum of atomic charges:    0.0000000

LOEWDIN ATOMIC CHARGES
----------------------
   0 S :    0.372464
   1 C :   -0.177116
   2 C :   -0.064614
   3 C :   -0.065141
   4 C :   -0.181134
   5 H :    0.031684
   6 C :   -0.045857
   7 H :    0.038550
   8 H :    0.032526
   9 C :   -0.041291
  10 H :    0.023830
  11 H :    0.031321
  12 C :   -0.076892
  13 H :    0.027205
  14 H :    0.029141
  15 H :    0.030220
  16 S :    0.403938
  17 C :   -0.196563
  18 C :   -0.072858
  19 C :   -0.052995
  20 C :   -0.194281
  21 H :    0.032402
  22 C :   -0.031276
  23 H :    0.026429
  24 H :    0.034050
  25 C :   -0.032499
  26 H :    0.019227
  27 H :    0.016675
  28 C :   -0.072571
  29 H :    0.026104
  30 H :    0.031564
  31 H :    0.030372
  32 H :    0.026612
  33 H :    0.040775

  Mayer bond orders larger than 0.100000
B(  0-S ,  1-C ) :   1.1290 B(  0-S ,  4-C ) :   1.1405 B(  1-C ,  2-C ) :   1.5944
B(  1-C ,  4-C ) :   0.1039 B(  1-C , 32-H ) :   0.9711 B(  2-C ,  3-C ) :   1.2481
B(  2-C ,  6-C ) :   1.0408 B(  3-C ,  4-C ) :   1.5647 B(  3-C ,  5-H ) :   0.9817
B(  4-C , 20-C ) :   1.0472 B(  6-C ,  7-H ) :   0.9463 B(  6-C ,  8-H ) :   0.9371
B(  6-C ,  9-C ) :   1.0533 B(  9-C , 10-H ) :   0.9582 B(  9-C , 11-H ) :   0.9507
B(  9-C , 12-C ) :   1.0952 B( 12-C , 13-H ) :   0.9683 B( 12-C , 14-H ) :   0.9692
B( 12-C , 15-H ) :   0.9717 B( 16-S , 17-C ) :   1.1421 B( 16-S , 20-C ) :   1.1478
B( 17-C , 18-C ) :   1.6328 B( 17-C , 33-H ) :   0.9560 B( 18-C , 19-C ) :   1.2350
B( 18-C , 21-H ) :   0.9910 B( 19-C , 20-C ) :   1.5719 B( 19-C , 22-C ) :   1.0440
B( 22-C , 23-H ) :   0.9296 B( 22-C , 24-H ) :   0.9331 B( 22-C , 25-C ) :   1.0754
B( 25-C , 26-H ) :   0.9554 B( 25-C , 27-H ) :   0.9558 B( 25-C , 28-C ) :   1.0730
B( 28-C , 29-H ) :   0.9768 B( 28-C , 30-H ) :   0.9736 B( 28-C , 31-H ) :   0.9745

Dispersion correction           -0.014092014
FINAL SINGLE POINT ENERGY     -1339.882439479230

DIPOLE MOMENT
-------------
                                X             Y             Z
Electronic contribution:     17.92747      13.47394      -7.95991
Nuclear contribution   :    -18.31695     -13.95847       7.99185
                        -----------------------------------------
Total Dipole Moment    :     -0.38948      -0.48453       0.03194
                        -----------------------------------------
Magnitude (a.u.)       :      0.62248
Magnitude (Debye)      :      1.58221

Rotational constants in cm-1:     0.019374     0.007749     0.007053
Rotational constants in MHz :   580.820100   232.298342   211.437354

                             ****ORCA TERMINATED NORMALLY****
TOTAL RUN TIME: 0 days 0 hours 0 minutes 34 seconds 587 msec
