                         Program Version 4.2.1 -  RELEASE  -
|  1> ! wB97X-D3 SP def2-SVP
|  2> %pal
|  3> nprocs 16
|  4> end
|  5>
|  6> * xyz 0 1
|  7> S 	 -99.6972 	 41.0172 	 123.857
|  8> C 	 -99.7172 	 41.0384 	 125.572
|  9> C 	 -98.5368 	 41.6599 	 126.051
| 10> C 	 -97.5283 	 41.6416 	 125.081
| 11> C 	 -97.9729 	 41.318 	 123.818
| 12> H 	 -96.4883 	 41.8974 	 125.201
| 13> C 	 -98.3342 	 42.133 	 127.481
| 14> H 	 -99.2708 	 42.5965 	 127.802
| 15> H 	 -97.5902 	 42.9465 	 127.271
| 16> C 	 -97.8537 	 41.1357 	 128.592
| 17> H 	 -96.836 	 40.8413 	 128.35
| 18> H 	 -97.9518 	 41.5528 	 129.561
| 19> C 	 -98.6559 	 39.8192 	 128.535
| 20> H 	 -99.6012 	 39.8848 	 129.047
| 21> H 	 -98.8198 	 39.5657 	 127.479
| 22> H 	 -98.0577 	 39.0604 	 129.06
| 23> S 	 -96.6269 	 39.4275 	 122.257
| 24> C 	 -95.7163 	 39.8627 	 120.916
| 25> C 	 -95.7935 	 41.2057 	 120.721
| 26> C 	 -96.542 	 41.8926 	 121.734
| 27> C 	 -97.1146 	 41.04 	 122.641
| 28> H 	 -95.1997 	 41.6401 	 119.94
| 29> C 	 -96.4488 	 43.3726 	 121.959
| 30> H 	 -96.1491 	 43.8294 	 121.095
| 31> H 	 -95.5676 	 43.4229 	 122.69
| 32> C 	 -97.6283 	 44.2156 	 122.495
| 33> H 	 -97.2548 	 45.2095 	 122.515
| 34> H 	 -97.7887 	 44.0146 	 123.534
| 35> C 	 -98.9376 	 44.0765 	 121.652
| 36> H 	 -98.9028 	 44.1338 	 120.561
| 37> H 	 -99.5586 	 44.9658 	 121.855
| 38> H 	 -99.4217 	 43.1463 	 121.918
| 39> H 	 -100.596 	 40.9033 	 126.202
| 40> H 	 -95.3425 	 39.1911 	 120.132
| 41> *
| 42>
| 43>                          ****END OF INPUT****

CARTESIAN COORDINATES (ANGSTROEM)
---------------------------------
  S    -99.697200   41.017200  123.857000
  C    -99.717200   41.038400  125.572000
  C    -98.536800   41.659900  126.051000
  C    -97.528300   41.641600  125.081000
  C    -97.972900   41.318000  123.818000
  H    -96.488300   41.897400  125.201000
  C    -98.334200   42.133000  127.481000
  H    -99.270800   42.596500  127.802000
  H    -97.590200   42.946500  127.271000
  C    -97.853700   41.135700  128.592000
  H    -96.836000   40.841300  128.350000
  H    -97.951800   41.552800  129.561000
  C    -98.655900   39.819200  128.535000
  H    -99.601200   39.884800  129.047000
  H    -98.819800   39.565700  127.479000
  H    -98.057700   39.060400  129.060000
  S    -96.626900   39.427500  122.257000
  C    -95.716300   39.862700  120.916000
  C    -95.793500   41.205700  120.721000
  C    -96.542000   41.892600  121.734000
  C    -97.114600   41.040000  122.641000
  H    -95.199700   41.640100  119.940000
  C    -96.448800   43.372600  121.959000
  H    -96.149100   43.829400  121.095000
  H    -95.567600   43.422900  122.690000
  C    -97.628300   44.215600  122.495000
  H    -97.254800   45.209500  122.515000
  H    -97.788700   44.014600  123.534000
  C    -98.937600   44.076500  121.652000
  H    -98.902800   44.133800  120.561000
  H    -99.558600   44.965800  121.855000
  H    -99.421700   43.146300  121.918000
  H    -100.596000   40.903300  126.202000
  H    -95.342500   39.191100  120.132000

 Total Charge           Charge          ....    0
 Multiplicity           Mult            ....    1
 Number of Electrons    NEL             ....  134
 Basis Dimension        Dim             ....  322

ORBITAL ENERGIES
----------------

  NO   OCC          E(Eh)            E(eV)
   0   2.0000     -88.969974     -2420.9961
   1   2.0000     -88.959269     -2420.7048
   2   2.0000     -10.328198      -281.0446
   3   2.0000     -10.318668      -280.7852
   4   2.0000     -10.316569      -280.7281
   5   2.0000     -10.309396      -280.5329
   6   2.0000     -10.302916      -280.3566
   7   2.0000     -10.297722      -280.2153
   8   2.0000     -10.296451      -280.1807
   9   2.0000     -10.292856      -280.0829
  10   2.0000     -10.286508      -279.9101
  11   2.0000     -10.285908      -279.8938
  12   2.0000     -10.285065      -279.8708
  13   2.0000     -10.279455      -279.7182
  14   2.0000     -10.274075      -279.5718
  15   2.0000     -10.272409      -279.5265
  16   2.0000      -8.084551      -219.9918
  17   2.0000      -8.075862      -219.7554
  18   2.0000      -6.042897      -164.4356
  19   2.0000      -6.039053      -164.3310
  20   2.0000      -6.035518      -164.2348
  21   2.0000      -6.034173      -164.1982
  22   2.0000      -6.029910      -164.0822
  23   2.0000      -6.026893      -164.0001
  24   2.0000      -1.013962       -27.5913
  25   2.0000      -0.994734       -27.0681
  26   2.0000      -0.908928       -24.7332
  27   2.0000      -0.904902       -24.6236
  28   2.0000      -0.866771       -23.5860
  29   2.0000      -0.852941       -23.2097
  30   2.0000      -0.845060       -22.9952
  31   2.0000      -0.815256       -22.1842
  32   2.0000      -0.782634       -21.2965
  33   2.0000      -0.771553       -20.9950
  34   2.0000      -0.711643       -19.3648
  35   2.0000      -0.698282       -19.0012
  36   2.0000      -0.688972       -18.7479
  37   2.0000      -0.659416       -17.9436
  38   2.0000      -0.644245       -17.5308
  39   2.0000      -0.619103       -16.8467
  40   2.0000      -0.587516       -15.9871
  41   2.0000      -0.573051       -15.5935
  42   2.0000      -0.553334       -15.0570
  43   2.0000      -0.551731       -15.0134
  44   2.0000      -0.545089       -14.8326
  45   2.0000      -0.540993       -14.7212
  46   2.0000      -0.517342       -14.0776
  47   2.0000      -0.507353       -13.8058
  48   2.0000      -0.506236       -13.7754
  49   2.0000      -0.488004       -13.2793
  50   2.0000      -0.487303       -13.2602
  51   2.0000      -0.480508       -13.0753
  52   2.0000      -0.474635       -12.9155
  53   2.0000      -0.469078       -12.7643
  54   2.0000      -0.461233       -12.5508
  55   2.0000      -0.446368       -12.1463
  56   2.0000      -0.440929       -11.9983
  57   2.0000      -0.434638       -11.8271
  58   2.0000      -0.432590       -11.7714
  59   2.0000      -0.424943       -11.5633
  60   2.0000      -0.420473       -11.4416
  61   2.0000      -0.412466       -11.2238
  62   2.0000      -0.407351       -11.0846
  63   2.0000      -0.339150        -9.2287
  64   2.0000      -0.324768        -8.8374
  65   2.0000      -0.318419        -8.6646
  66   2.0000      -0.309617        -8.4251
  67   0.0000       0.034817         0.9474
  68   0.0000       0.060618         1.6495
  69   0.0000       0.102408         2.7867
  70   0.0000       0.123643         3.3645
  71   0.0000       0.142611         3.8806

MULLIKEN ATOMIC CHARGES
-----------------------
   0 S :    0.139087
   1 C :   -0.123887
   2 C :   -0.127614
   3 C :    0.050400
   4 C :   -0.186280
   5 H :    0.011887
   6 C :    0.043390
   7 H :    0.026857
   8 H :    0.034899
   9 C :   -0.024401
  10 H :    0.027328
  11 H :    0.032420
  12 C :   -0.083691
  13 H :    0.024600
  14 H :    0.052588
  15 H :    0.035917
  16 S :    0.124026
  17 C :   -0.093041
  18 C :   -0.049832
  19 C :   -0.025880
  20 C :   -0.181601
  21 H :    0.010454
  22 C :    0.055999
  23 H :   -0.007949
  24 H :    0.047361
  25 C :   -0.017050
  26 H :    0.012697
  27 H :    0.024430
  28 C :   -0.051043
  29 H :    0.027307
  30 H :    0.031482
  31 H :    0.031031
  32 H :    0.058323
  33 H :    0.069787
Sum of atomic charges:   -0.0000000

LOEWDIN ATOMIC CHARGES
----------------------
   0 S :    0.438485
   1 C :   -0.209499
   2 C :   -0.069722
   3 C :   -0.056673
   4 C :   -0.197365
   5 H :    0.032857
   6 C :   -0.037851
   7 H :    0.028989
   8 H :    0.037190
   9 C :   -0.030562
  10 H :    0.024256
  11 H :    0.021371
  12 C :   -0.068934
  13 H :    0.018187
  14 H :    0.028536
  15 H :    0.028332
  16 S :    0.445187
  17 C :   -0.211175
  18 C :   -0.080792
  19 C :   -0.057968
  20 C :   -0.221096
  21 H :    0.027798
  22 C :   -0.028282
  23 H :    0.013473
  24 H :    0.045543
  25 C :   -0.035026
  26 H :    0.020742
  27 H :    0.021727
  28 C :   -0.068784
  29 H :    0.024977
  30 H :    0.030400
  31 H :    0.015441
  32 H :    0.029725
  33 H :    0.040513

  Mayer bond orders larger than 0.100000
B(  0-S ,  1-C ) :   1.1777 B(  0-S ,  4-C ) :   1.1666 B(  1-C ,  2-C ) :   1.5379
B(  1-C ,  4-C ) :   0.1050 B(  1-C , 32-H ) :   0.9668 B(  2-C ,  3-C ) :   1.2635
B(  2-C ,  6-C ) :   1.0207 B(  3-C ,  4-C ) :   1.5703 B(  3-C ,  5-H ) :   0.9928
B(  4-C , 20-C ) :   1.0075 B(  6-C ,  7-H ) :   0.9399 B(  6-C ,  8-H ) :   0.9449
B(  6-C ,  9-C ) :   1.0628 B(  9-C , 10-H ) :   0.9582 B(  9-C , 11-H ) :   0.9581
B(  9-C , 12-C ) :   1.0809 B( 12-C , 13-H ) :   0.9768 B( 12-C , 14-H ) :   0.9695
B( 12-C , 15-H ) :   0.9756 B( 16-S , 17-C ) :   1.1892 B( 16-S , 20-C ) :   1.1541
B( 17-C , 18-C ) :   1.5941 B( 17-C , 33-H ) :   0.9585 B( 18-C , 19-C ) :   1.2630
B( 18-C , 21-H ) :   0.9940 B( 19-C , 20-C ) :   1.5838 B( 19-C , 22-C ) :   1.0343
B( 22-C , 23-H ) :   0.9286 B( 22-C , 24-H ) :   0.9346 B( 22-C , 25-C ) :   1.0797
B( 25-C , 26-H ) :   0.9505 B( 25-C , 27-H ) :   0.9454 B( 25-C , 28-C ) :   1.0698
B( 28-C , 29-H ) :   0.9778 B( 28-C , 30-H ) :   0.9751 B( 28-C , 31-H ) :   0.9712

Dispersion correction           -0.015946924
FINAL SINGLE POINT ENERGY     -1339.867858888406

DIPOLE MOMENT
-------------
                                X             Y             Z
Electronic contribution:      0.60312     -12.66493     -13.47580
Nuclear contribution   :     -0.36989      13.09887      13.74137
                        -----------------------------------------
Total Dipole Moment    :      0.23323       0.43394       0.26557
                        -----------------------------------------
Magnitude (a.u.)       :      0.55967
Magnitude (Debye)      :      1.42257

Rotational constants in cm-1:     0.021439     0.008821     0.007622
Rotational constants in MHz :   642.729753   264.451232   228.506790

                             ****ORCA TERMINATED NORMALLY****
TOTAL RUN TIME: 0 days 0 hours 0 minutes 33 seconds 316 msec
