                         Program Version 4.2.1 -  RELEASE  -
|  1> ! wB97X-D3 SP def2-SVP
|  2> %pal
|  3> nprocs 16
|  4> end
|  5>
|  6> * xyz 0 1
|  7> S 	 -36.9657 	 52.2203 	 109.929
|  8> C 	 -37.9606 	 53.6984 	 109.827
|  9> C 	 -38.5464 	 54.0476 	 111.002
| 10> C 	 -38.0927 	 53.2233 	 112.088
| 11> C 	 -37.3075 	 52.1306 	 111.7
| 12> H 	 -38.435 	 53.3935 	 113.152
| 13> C 	 -39.6413 	 55.1066 	 111.166
| 14> H 	 -39.5033 	 55.8315 	 110.357
| 15> H 	 -39.5528 	 55.6064 	 112.108
| 16> C 	 -41.0036 	 54.4871 	 111.138
| 17> H 	 -41.0426 	 53.7614 	 111.93
| 18> H 	 -41.8409 	 55.1568 	 111.415
| 19> C 	 -41.3771 	 53.9527 	 109.802
| 20> H 	 -40.859 	 53.0694 	 109.646
| 21> H 	 -42.4048 	 53.6406 	 109.77
| 22> H 	 -41.1781 	 54.674 	 109.027
| 23> S 	 -35.9337 	 51.0605 	 113.644
| 24> C 	 -36.4105 	 49.6313 	 114.368
| 25> C 	 -37.4409 	 49.0079 	 113.652
| 26> C 	 -37.7404 	 49.6563 	 112.389
| 27> C 	 -37.0657 	 50.8791 	 112.376
| 28> H 	 -37.8148 	 48.1152 	 114.071
| 29> C 	 -38.9573 	 49.3634 	 111.526
| 30> H 	 -38.9361 	 48.44 	 111.032
| 31> H 	 -38.9935 	 50.1208 	 110.805
| 32> C 	 -40.309 	 49.5258 	 112.352
| 33> H 	 -40.4088 	 50.5658 	 112.66
| 34> H 	 -40.3042 	 48.9181 	 113.249
| 35> C 	 -41.5625 	 49.2056 	 111.574
| 36> H 	 -41.696 	 48.1867 	 111.452
| 37> H 	 -41.5265 	 49.7655 	 110.64
| 38> H 	 -42.4248 	 49.5556 	 112.12
| 39> H 	 -38.1416 	 54.2251 	 108.895
| 40> H 	 -36.0346 	 49.2599 	 115.3
| 41> *
| 42>
| 43>                          ****END OF INPUT****

CARTESIAN COORDINATES (ANGSTROEM)
---------------------------------
  S    -36.965700   52.220300  109.929000
  C    -37.960600   53.698400  109.827000
  C    -38.546400   54.047600  111.002000
  C    -38.092700   53.223300  112.088000
  C    -37.307500   52.130600  111.700000
  H    -38.435000   53.393500  113.152000
  C    -39.641300   55.106600  111.166000
  H    -39.503300   55.831500  110.357000
  H    -39.552800   55.606400  112.108000
  C    -41.003600   54.487100  111.138000
  H    -41.042600   53.761400  111.930000
  H    -41.840900   55.156800  111.415000
  C    -41.377100   53.952700  109.802000
  H    -40.859000   53.069400  109.646000
  H    -42.404800   53.640600  109.770000
  H    -41.178100   54.674000  109.027000
  S    -35.933700   51.060500  113.644000
  C    -36.410500   49.631300  114.368000
  C    -37.440900   49.007900  113.652000
  C    -37.740400   49.656300  112.389000
  C    -37.065700   50.879100  112.376000
  H    -37.814800   48.115200  114.071000
  C    -38.957300   49.363400  111.526000
  H    -38.936100   48.440000  111.032000
  H    -38.993500   50.120800  110.805000
  C    -40.309000   49.525800  112.352000
  H    -40.408800   50.565800  112.660000
  H    -40.304200   48.918100  113.249000
  C    -41.562500   49.205600  111.574000
  H    -41.696000   48.186700  111.452000
  H    -41.526500   49.765500  110.640000
  H    -42.424800   49.555600  112.120000
  H    -38.141600   54.225100  108.895000
  H    -36.034600   49.259900  115.300000

 Total Charge           Charge          ....    0
 Multiplicity           Mult            ....    1
 Number of Electrons    NEL             ....  134
 Basis Dimension        Dim             ....  322

ORBITAL ENERGIES
----------------

  NO   OCC          E(Eh)            E(eV)
   0   2.0000     -88.965305     -2420.8690
   1   2.0000     -88.962610     -2420.7957
   2   2.0000     -10.334822      -281.2248
   3   2.0000     -10.320429      -280.8331
   4   2.0000     -10.315694      -280.7043
   5   2.0000     -10.308564      -280.5103
   6   2.0000     -10.307720      -280.4873
   7   2.0000     -10.306173      -280.4452
   8   2.0000     -10.301395      -280.3152
   9   2.0000     -10.292316      -280.0682
  10   2.0000     -10.292025      -280.0602
  11   2.0000     -10.284766      -279.8627
  12   2.0000     -10.282653      -279.8052
  13   2.0000     -10.280535      -279.7476
  14   2.0000     -10.267460      -279.3918
  15   2.0000     -10.263812      -279.2925
  16   2.0000      -8.079663      -219.8588
  17   2.0000      -8.078572      -219.8291
  18   2.0000      -6.037866      -164.2987
  19   2.0000      -6.037116      -164.2783
  20   2.0000      -6.033598      -164.1826
  21   2.0000      -6.033353      -164.1759
  22   2.0000      -6.030843      -164.1076
  23   2.0000      -6.029295      -164.0655
  24   2.0000      -1.011425       -27.5223
  25   2.0000      -0.982129       -26.7251
  26   2.0000      -0.921940       -25.0873
  27   2.0000      -0.907992       -24.7077
  28   2.0000      -0.871149       -23.7052
  29   2.0000      -0.855689       -23.2845
  30   2.0000      -0.844566       -22.9818
  31   2.0000      -0.811228       -22.0746
  32   2.0000      -0.789654       -21.4876
  33   2.0000      -0.777053       -21.1447
  34   2.0000      -0.707764       -19.2592
  35   2.0000      -0.698912       -19.0184
  36   2.0000      -0.691444       -18.8151
  37   2.0000      -0.660974       -17.9860
  38   2.0000      -0.637354       -17.3433
  39   2.0000      -0.620498       -16.8846
  40   2.0000      -0.597791       -16.2667
  41   2.0000      -0.571969       -15.5641
  42   2.0000      -0.570344       -15.5198
  43   2.0000      -0.559324       -15.2200
  44   2.0000      -0.548105       -14.9147
  45   2.0000      -0.524893       -14.2831
  46   2.0000      -0.521167       -14.1817
  47   2.0000      -0.518369       -14.1055
  48   2.0000      -0.513825       -13.9819
  49   2.0000      -0.495808       -13.4916
  50   2.0000      -0.487211       -13.2577
  51   2.0000      -0.479355       -13.0439
  52   2.0000      -0.467491       -12.7211
  53   2.0000      -0.464776       -12.6472
  54   2.0000      -0.458102       -12.4656
  55   2.0000      -0.448259       -12.1977
  56   2.0000      -0.443355       -12.0643
  57   2.0000      -0.437115       -11.8945
  58   2.0000      -0.436059       -11.8658
  59   2.0000      -0.428181       -11.6514
  60   2.0000      -0.425353       -11.5745
  61   2.0000      -0.423199       -11.5158
  62   2.0000      -0.409827       -11.1519
  63   2.0000      -0.339197        -9.2300
  64   2.0000      -0.328349        -8.9348
  65   2.0000      -0.326499        -8.8845
  66   2.0000      -0.299534        -8.1507
  67   0.0000       0.035692         0.9712
  68   0.0000       0.063481         1.7274
  69   0.0000       0.105458         2.8697
  70   0.0000       0.119142         3.2420
  71   0.0000       0.122967         3.3461

MULLIKEN ATOMIC CHARGES
-----------------------
   0 S :    0.093844
   1 C :   -0.117711
   2 C :   -0.123226
   3 C :    0.049845
   4 C :   -0.171205
   5 H :    0.036842
   6 C :    0.104059
   7 H :    0.022975
   8 H :    0.019057
   9 C :   -0.075063
  10 H :    0.011923
  11 H :    0.027936
  12 C :   -0.003390
  13 H :    0.020212
  14 H :    0.021280
  15 H :    0.022303
  16 S :    0.135845
  17 C :   -0.087230
  18 C :   -0.056328
  19 C :    0.020406
  20 C :   -0.201339
  21 H :    0.003652
  22 C :    0.129385
  23 H :    0.018064
  24 H :    0.002268
  25 C :   -0.115793
  26 H :    0.026577
  27 H :    0.024042
  28 C :   -0.001767
  29 H :    0.018724
  30 H :    0.027408
  31 H :    0.023864
  32 H :    0.045558
  33 H :    0.046982
Sum of atomic charges:   -0.0000000

LOEWDIN ATOMIC CHARGES
----------------------
   0 S :    0.368144
   1 C :   -0.180513
   2 C :   -0.068036
   3 C :   -0.056538
   4 C :   -0.187625
   5 H :    0.041393
   6 C :   -0.021450
   7 H :    0.028927
   8 H :    0.029056
   9 C :   -0.043818
  10 H :    0.019587
  11 H :    0.026424
  12 C :   -0.056064
  13 H :    0.016368
  14 H :    0.026020
  15 H :    0.023414
  16 S :    0.465891
  17 C :   -0.212871
  18 C :   -0.066318
  19 C :   -0.045712
  20 C :   -0.221856
  21 H :    0.021264
  22 C :   -0.017279
  23 H :    0.023332
  24 H :    0.018355
  25 C :   -0.032091
  26 H :    0.023657
  27 H :    0.017888
  28 C :   -0.057722
  29 H :    0.013699
  30 H :    0.026389
  31 H :    0.027189
  32 H :    0.026496
  33 H :    0.024401

  Mayer bond orders larger than 0.100000
B(  0-S ,  1-C ) :   1.1251 B(  0-S ,  4-C ) :   1.1269 B(  1-C ,  2-C ) :   1.6550
B(  1-C , 32-H ) :   0.9630 B(  2-C ,  3-C ) :   1.2287 B(  2-C ,  6-C ) :   1.0204
B(  3-C ,  4-C ) :   1.5983 B(  3-C ,  5-H ) :   0.9783 B(  4-C , 20-C ) :   1.0020
B(  6-C ,  7-H ) :   0.9446 B(  6-C ,  8-H ) :   0.9334 B(  6-C ,  9-C ) :   1.0767
B(  9-C , 10-H ) :   0.9490 B(  9-C , 11-H ) :   0.9548 B(  9-C , 12-C ) :   1.0859
B( 12-C , 13-H ) :   0.9710 B( 12-C , 14-H ) :   0.9672 B( 12-C , 15-H ) :   0.9724
B( 16-S , 17-C ) :   1.1777 B( 16-S , 20-C ) :   1.1899 B( 17-C , 18-C ) :   1.5943
B( 17-C , 33-H ) :   0.9720 B( 18-C , 19-C ) :   1.2292 B( 18-C , 21-H ) :   0.9969
B( 19-C , 20-C ) :   1.5497 B( 19-C , 22-C ) :   1.0662 B( 22-C , 23-H ) :   0.9320
B( 22-C , 24-H ) :   0.9264 B( 22-C , 25-C ) :   1.0544 B( 25-C , 26-H ) :   0.9577
B( 25-C , 27-H ) :   0.9574 B( 25-C , 28-C ) :   1.0958 B( 28-C , 29-H ) :   0.9743
B( 28-C , 30-H ) :   0.9717 B( 28-C , 31-H ) :   0.9703

Dispersion correction           -0.015826721
FINAL SINGLE POINT ENERGY     -1339.869718432019

DIPOLE MOMENT
-------------
                                X             Y             Z
Electronic contribution:     29.04963      -1.57515       4.12337
Nuclear contribution   :    -29.84656       1.63470      -3.90016
                        -----------------------------------------
Total Dipole Moment    :     -0.79693       0.05955       0.22321
                        -----------------------------------------
Magnitude (a.u.)       :      0.82974
Magnitude (Debye)      :      2.10903

Rotational constants in cm-1:     0.017947     0.010265     0.007969
Rotational constants in MHz :   538.050350   307.733719   238.917824

                             ****ORCA TERMINATED NORMALLY****
TOTAL RUN TIME: 0 days 0 hours 0 minutes 32 seconds 337 msec
