                         Program Version 4.2.1 -  RELEASE  -
|  1> ! wB97X-D3 SP def2-SVP
|  2> %pal
|  3> nprocs 16
|  4> end
|  5>
|  6> * xyz 0 1
|  7> S 	 -69.8983 	 36.9675 	 143.009
|  8> C 	 -70.7569 	 35.873 	 142.001
|  9> C 	 -70.184 	 35.7922 	 140.722
| 10> C 	 -68.8704 	 36.3442 	 140.743
| 11> C 	 -68.4321 	 36.8682 	 141.991
| 12> H 	 -68.169 	 36.4217 	 139.893
| 13> C 	 -70.7078 	 35.0095 	 139.502
| 14> H 	 -71.3973 	 34.1068 	 139.615
| 15> H 	 -69.7512 	 34.5529 	 139.164
| 16> C 	 -71.217 	 35.8359 	 138.253
| 17> H 	 -72.0144 	 36.4985 	 138.475
| 18> H 	 -70.4302 	 36.5615 	 138.008
| 19> C 	 -71.6364 	 34.9175 	 137.132
| 20> H 	 -71.9738 	 35.5376 	 136.345
| 21> H 	 -70.8112 	 34.2857 	 136.778
| 22> H 	 -72.4059 	 34.1989 	 137.535
| 23> S 	 -65.6749 	 36.9942 	 142.155
| 24> C 	 -64.8763 	 38.4381 	 142.587
| 25> C 	 -65.7375 	 39.4914 	 142.522
| 26> C 	 -67.1019 	 39.1434 	 142.421
| 27> C 	 -67.2602 	 37.7671 	 142.246
| 28> H 	 -65.2833 	 40.4485 	 142.681
| 29> C 	 -68.1923 	 40.2202 	 142.498
| 30> H 	 -69.1753 	 39.8361 	 142.121
| 31> H 	 -68.0242 	 40.9867 	 141.741
| 32> C 	 -68.3385 	 40.9236 	 143.832
| 33> H 	 -69.1968 	 41.5833 	 143.643
| 34> H 	 -67.5239 	 41.6298 	 144.013
| 35> C 	 -68.5911 	 40.0935 	 145.099
| 36> H 	 -67.7388 	 39.4127 	 145.242
| 37> H 	 -69.4125 	 39.3622 	 145.013
| 38> H 	 -68.6924 	 40.5822 	 146.085
| 39> H 	 -71.6542 	 35.3738 	 142.21
| 40> H 	 -63.801 	 38.6345 	 142.659
| 41> *
| 42>
| 43>                          ****END OF INPUT****

CARTESIAN COORDINATES (ANGSTROEM)
---------------------------------
  S    -69.898300   36.967500  143.009000
  C    -70.756900   35.873000  142.001000
  C    -70.184000   35.792200  140.722000
  C    -68.870400   36.344200  140.743000
  C    -68.432100   36.868200  141.991000
  H    -68.169000   36.421700  139.893000
  C    -70.707800   35.009500  139.502000
  H    -71.397300   34.106800  139.615000
  H    -69.751200   34.552900  139.164000
  C    -71.217000   35.835900  138.253000
  H    -72.014400   36.498500  138.475000
  H    -70.430200   36.561500  138.008000
  C    -71.636400   34.917500  137.132000
  H    -71.973800   35.537600  136.345000
  H    -70.811200   34.285700  136.778000
  H    -72.405900   34.198900  137.535000
  S    -65.674900   36.994200  142.155000
  C    -64.876300   38.438100  142.587000
  C    -65.737500   39.491400  142.522000
  C    -67.101900   39.143400  142.421000
  C    -67.260200   37.767100  142.246000
  H    -65.283300   40.448500  142.681000
  C    -68.192300   40.220200  142.498000
  H    -69.175300   39.836100  142.121000
  H    -68.024200   40.986700  141.741000
  C    -68.338500   40.923600  143.832000
  H    -69.196800   41.583300  143.643000
  H    -67.523900   41.629800  144.013000
  C    -68.591100   40.093500  145.099000
  H    -67.738800   39.412700  145.242000
  H    -69.412500   39.362200  145.013000
  H    -68.692400   40.582200  146.085000
  H    -71.654200   35.373800  142.210000
  H    -63.801000   38.634500  142.659000

 Total Charge           Charge          ....    0
 Multiplicity           Mult            ....    1
 Number of Electrons    NEL             ....  134
 Basis Dimension        Dim             ....  322

ORBITAL ENERGIES
----------------

  NO   OCC          E(Eh)            E(eV)
   0   2.0000     -88.968514     -2420.9563
   1   2.0000     -88.964199     -2420.8389
   2   2.0000     -10.337899      -281.3085
   3   2.0000     -10.332587      -281.1640
   4   2.0000     -10.314634      -280.6755
   5   2.0000     -10.310899      -280.5738
   6   2.0000     -10.308565      -280.5103
   7   2.0000     -10.304926      -280.4113
   8   2.0000     -10.304317      -280.3947
   9   2.0000     -10.304013      -280.3865
  10   2.0000     -10.295065      -280.1430
  11   2.0000     -10.286432      -279.9081
  12   2.0000     -10.285970      -279.8955
  13   2.0000     -10.285781      -279.8903
  14   2.0000     -10.281166      -279.7648
  15   2.0000     -10.274865      -279.5933
  16   2.0000      -8.082520      -219.9366
  17   2.0000      -8.079467      -219.8535
  18   2.0000      -6.040973      -164.3832
  19   2.0000      -6.037971      -164.3015
  20   2.0000      -6.037244      -164.2818
  21   2.0000      -6.033856      -164.1896
  22   2.0000      -6.033262      -164.1734
  23   2.0000      -6.030238      -164.0911
  24   2.0000      -1.005586       -27.3634
  25   2.0000      -0.986969       -26.8568
  26   2.0000      -0.907319       -24.6894
  27   2.0000      -0.906070       -24.6554
  28   2.0000      -0.868034       -23.6204
  29   2.0000      -0.850871       -23.1534
  30   2.0000      -0.844169       -22.9710
  31   2.0000      -0.811711       -22.0878
  32   2.0000      -0.783967       -21.3328
  33   2.0000      -0.771140       -20.9838
  34   2.0000      -0.706661       -19.2292
  35   2.0000      -0.701016       -19.0756
  36   2.0000      -0.689657       -18.7665
  37   2.0000      -0.657522       -17.8921
  38   2.0000      -0.638567       -17.3763
  39   2.0000      -0.618991       -16.8436
  40   2.0000      -0.596943       -16.2437
  41   2.0000      -0.572882       -15.5889
  42   2.0000      -0.555602       -15.1187
  43   2.0000      -0.547926       -14.9098
  44   2.0000      -0.535563       -14.5734
  45   2.0000      -0.528949       -14.3934
  46   2.0000      -0.514698       -14.0056
  47   2.0000      -0.512244       -13.9389
  48   2.0000      -0.497866       -13.5476
  49   2.0000      -0.496100       -13.4996
  50   2.0000      -0.486542       -13.2395
  51   2.0000      -0.481832       -13.1113
  52   2.0000      -0.467776       -12.7288
  53   2.0000      -0.461564       -12.5598
  54   2.0000      -0.457589       -12.4516
  55   2.0000      -0.448996       -12.2178
  56   2.0000      -0.447541       -12.1782
  57   2.0000      -0.443121       -12.0579
  58   2.0000      -0.435523       -11.8512
  59   2.0000      -0.425657       -11.5827
  60   2.0000      -0.415157       -11.2970
  61   2.0000      -0.408159       -11.1066
  62   2.0000      -0.404089       -10.9958
  63   2.0000      -0.345666        -9.4061
  64   2.0000      -0.331646        -9.0246
  65   2.0000      -0.324920        -8.8415
  66   2.0000      -0.294497        -8.0137
  67   0.0000       0.031080         0.8457
  68   0.0000       0.056363         1.5337
  69   0.0000       0.097178         2.6444
  70   0.0000       0.127020         3.4564
  71   0.0000       0.129899         3.5347

MULLIKEN ATOMIC CHARGES
-----------------------
   0 S :    0.103919
   1 C :   -0.074677
   2 C :   -0.049628
   3 C :    0.012966
   4 C :   -0.136520
   5 H :    0.030257
   6 C :   -0.016368
   7 H :    0.038286
   8 H :    0.033139
   9 C :   -0.061454
  10 H :    0.020463
  11 H :    0.020672
  12 C :   -0.036138
  13 H :    0.035832
  14 H :    0.030736
  15 H :    0.038424
  16 S :    0.109542
  17 C :   -0.090301
  18 C :   -0.051341
  19 C :   -0.004025
  20 C :   -0.198037
  21 H :    0.010416
  22 C :    0.061044
  23 H :    0.025562
  24 H :    0.027943
  25 C :   -0.060484
  26 H :    0.026678
  27 H :    0.027938
  28 C :   -0.063454
  29 H :    0.031140
  30 H :    0.025732
  31 H :    0.041792
  32 H :    0.028553
  33 H :    0.061391
Sum of atomic charges:   -0.0000000

LOEWDIN ATOMIC CHARGES
----------------------
   0 S :    0.417034
   1 C :   -0.187739
   2 C :   -0.068290
   3 C :   -0.056727
   4 C :   -0.194830
   5 H :    0.034357
   6 C :   -0.042603
   7 H :    0.034759
   8 H :    0.035276
   9 C :   -0.041822
  10 H :    0.017595
  11 H :    0.023520
  12 C :   -0.061942
  13 H :    0.024270
  14 H :    0.025849
  15 H :    0.032479
  16 S :    0.420516
  17 C :   -0.202763
  18 C :   -0.075177
  19 C :   -0.060337
  20 C :   -0.197409
  21 H :    0.028374
  22 C :   -0.035302
  23 H :    0.030017
  24 H :    0.037062
  25 C :   -0.044832
  26 H :    0.027688
  27 H :    0.023086
  28 C :   -0.079451
  29 H :    0.027741
  30 H :    0.021404
  31 H :    0.031383
  32 H :    0.020047
  33 H :    0.036765

  Mayer bond orders larger than 0.100000
B(  0-S ,  1-C ) :   1.1696 B(  0-S ,  4-C ) :   1.1416 B(  1-C ,  2-C ) :   1.5638
B(  1-C ,  4-C ) :   0.1088 B(  1-C , 32-H ) :   0.9778 B(  2-C ,  3-C ) :   1.2807
B(  2-C ,  6-C ) :   0.9984 B(  3-C ,  4-C ) :   1.5572 B(  3-C ,  5-H ) :   0.9807
B(  4-C , 20-C ) :   1.0057 B(  6-C ,  7-H ) :   0.9579 B(  6-C ,  8-H ) :   0.9483
B(  6-C ,  9-C ) :   1.0474 B(  9-C , 10-H ) :   0.9557 B(  9-C , 11-H ) :   0.9524
B(  9-C , 12-C ) :   1.0854 B( 12-C , 13-H ) :   0.9720 B( 12-C , 14-H ) :   0.9755
B( 12-C , 15-H ) :   0.9714 B( 16-S , 17-C ) :   1.1612 B( 16-S , 20-C ) :   1.1554
B( 17-C , 18-C ) :   1.6231 B( 17-C , 33-H ) :   0.9611 B( 18-C , 19-C ) :   1.2362
B( 18-C , 21-H ) :   0.9932 B( 19-C , 20-C ) :   1.5802 B( 19-C , 22-C ) :   1.0350
B( 22-C , 23-H ) :   0.9370 B( 22-C , 24-H ) :   0.9317 B( 22-C , 25-C ) :   1.0783
B( 25-C , 26-H ) :   0.9516 B( 25-C , 27-H ) :   0.9548 B( 25-C , 28-C ) :   1.0674
B( 28-C , 29-H ) :   0.9706 B( 28-C , 30-H ) :   0.9735 B( 28-C , 31-H ) :   0.9756

Dispersion correction           -0.014543108
FINAL SINGLE POINT ENERGY     -1339.862035339939

DIPOLE MOMENT
-------------
                                X             Y             Z
Electronic contribution:     13.16208      -4.94352       9.71046
Nuclear contribution   :    -13.35513       5.24440     -10.19855
                        -----------------------------------------
Total Dipole Moment    :     -0.19305       0.30088      -0.48810
                        -----------------------------------------
Magnitude (a.u.)       :      0.60501
Magnitude (Debye)      :      1.53781

Rotational constants in cm-1:     0.021586     0.007402     0.006461
Rotational constants in MHz :   647.142620   221.908130   193.687726

                             ****ORCA TERMINATED NORMALLY****
TOTAL RUN TIME: 0 days 0 hours 0 minutes 34 seconds 190 msec
