                         Program Version 4.2.1 -  RELEASE  -
|  1> ! wB97X-D3 SP def2-SVP
|  2> %pal
|  3> nprocs 16
|  4> end
|  5>
|  6> * xyz 0 1
|  7> S 	 -85.9751 	 50.9914 	 131.317
|  8> C 	 -85.9997 	 49.2548 	 131.341
|  9> C 	 -84.7452 	 48.7527 	 131.037
| 10> C 	 -83.7385 	 49.7422 	 130.872
| 11> C 	 -84.2902 	 50.9674 	 130.89
| 12> H 	 -82.7024 	 49.6309 	 130.647
| 13> C 	 -84.4176 	 47.2123 	 131.034
| 14> H 	 -83.3411 	 47.0851 	 131.013
| 15> H 	 -84.8191 	 46.8632 	 130.067
| 16> C 	 -84.9529 	 46.4068 	 132.233
| 17> H 	 -86.0048 	 46.3976 	 132.162
| 18> H 	 -84.5144 	 45.4557 	 131.965
| 19> C 	 -84.3801 	 46.8459 	 133.599
| 20> H 	 -84.571 	 47.9066 	 133.605
| 21> H 	 -84.8263 	 46.4551 	 134.467
| 22> H 	 -83.2951 	 46.6301 	 133.564
| 23> S 	 -82.2504 	 52.7434 	 131.245
| 24> C 	 -82.1365 	 54.1105 	 130.186
| 25> C 	 -83.2127 	 54.2036 	 129.321
| 26> C 	 -84.0994 	 53.108 	 129.445
| 27> C 	 -83.7301 	 52.2141 	 130.482
| 28> H 	 -83.1933 	 55.0211 	 128.6
| 29> C 	 -85.3478 	 52.9691 	 128.56
| 30> H 	 -85.6452 	 51.9102 	 128.488
| 31> H 	 -85.1202 	 53.3567 	 127.575
| 32> C 	 -86.4891 	 53.886 	 128.929
| 33> H 	 -86.1278 	 54.8564 	 129.055
| 34> H 	 -86.6815 	 53.6422 	 129.975
| 35> C 	 -87.7545 	 53.6603 	 128.02
| 36> H 	 -87.867 	 52.5471 	 127.859
| 37> H 	 -87.4931 	 54.0664 	 127.069
| 38> H 	 -88.5752 	 54.2208 	 128.43
| 39> H 	 -86.8317 	 48.6286 	 131.507
| 40> H 	 -81.3333 	 54.797 	 130.184
| 41> *
| 42>
| 43>                          ****END OF INPUT****

CARTESIAN COORDINATES (ANGSTROEM)
---------------------------------
  S    -85.975100   50.991400  131.317000
  C    -85.999700   49.254800  131.341000
  C    -84.745200   48.752700  131.037000
  C    -83.738500   49.742200  130.872000
  C    -84.290200   50.967400  130.890000
  H    -82.702400   49.630900  130.647000
  C    -84.417600   47.212300  131.034000
  H    -83.341100   47.085100  131.013000
  H    -84.819100   46.863200  130.067000
  C    -84.952900   46.406800  132.233000
  H    -86.004800   46.397600  132.162000
  H    -84.514400   45.455700  131.965000
  C    -84.380100   46.845900  133.599000
  H    -84.571000   47.906600  133.605000
  H    -84.826300   46.455100  134.467000
  H    -83.295100   46.630100  133.564000
  S    -82.250400   52.743400  131.245000
  C    -82.136500   54.110500  130.186000
  C    -83.212700   54.203600  129.321000
  C    -84.099400   53.108000  129.445000
  C    -83.730100   52.214100  130.482000
  H    -83.193300   55.021100  128.600000
  C    -85.347800   52.969100  128.560000
  H    -85.645200   51.910200  128.488000
  H    -85.120200   53.356700  127.575000
  C    -86.489100   53.886000  128.929000
  H    -86.127800   54.856400  129.055000
  H    -86.681500   53.642200  129.975000
  C    -87.754500   53.660300  128.020000
  H    -87.867000   52.547100  127.859000
  H    -87.493100   54.066400  127.069000
  H    -88.575200   54.220800  128.430000
  H    -86.831700   48.628600  131.507000
  H    -81.333300   54.797000  130.184000

 Total Charge           Charge          ....    0
 Multiplicity           Mult            ....    1
 Number of Electrons    NEL             ....  134
 Basis Dimension        Dim             ....  322

ORBITAL ENERGIES
----------------

  NO   OCC          E(Eh)            E(eV)
   0   2.0000     -88.966714     -2420.9074
   1   2.0000     -88.966302     -2420.8962
   2   2.0000     -10.323446      -280.9153
   3   2.0000     -10.321273      -280.8561
   4   2.0000     -10.312283      -280.6115
   5   2.0000     -10.308250      -280.5017
   6   2.0000     -10.305649      -280.4310
   7   2.0000     -10.300992      -280.3042
   8   2.0000     -10.294192      -280.1192
   9   2.0000     -10.293643      -280.1043
  10   2.0000     -10.289019      -279.9784
  11   2.0000     -10.285418      -279.8804
  12   2.0000     -10.282504      -279.8012
  13   2.0000     -10.280353      -279.7426
  14   2.0000     -10.273968      -279.5689
  15   2.0000     -10.272229      -279.5216
  16   2.0000      -8.081430      -219.9069
  17   2.0000      -8.081206      -219.9008
  18   2.0000      -6.039891      -164.3538
  19   2.0000      -6.039520      -164.3437
  20   2.0000      -6.035938      -164.2462
  21   2.0000      -6.035614      -164.2374
  22   2.0000      -6.032270      -164.1464
  23   2.0000      -6.032250      -164.1459
  24   2.0000      -1.012489       -27.5512
  25   2.0000      -0.985924       -26.8283
  26   2.0000      -0.909985       -24.7619
  27   2.0000      -0.908325       -24.7168
  28   2.0000      -0.871905       -23.7257
  29   2.0000      -0.851978       -23.1835
  30   2.0000      -0.844916       -22.9913
  31   2.0000      -0.812857       -22.1190
  32   2.0000      -0.783952       -21.3324
  33   2.0000      -0.770578       -20.9685
  34   2.0000      -0.706082       -19.2135
  35   2.0000      -0.702943       -19.1281
  36   2.0000      -0.695362       -18.9218
  37   2.0000      -0.662554       -18.0290
  38   2.0000      -0.643657       -17.5148
  39   2.0000      -0.609455       -16.5841
  40   2.0000      -0.597052       -16.2466
  41   2.0000      -0.580646       -15.8002
  42   2.0000      -0.562808       -15.3148
  43   2.0000      -0.554906       -15.0998
  44   2.0000      -0.542616       -14.7653
  45   2.0000      -0.524942       -14.2844
  46   2.0000      -0.516834       -14.0638
  47   2.0000      -0.513364       -13.9693
  48   2.0000      -0.504173       -13.7192
  49   2.0000      -0.495712       -13.4890
  50   2.0000      -0.486639       -13.2421
  51   2.0000      -0.479580       -13.0500
  52   2.0000      -0.468566       -12.7503
  53   2.0000      -0.465129       -12.6568
  54   2.0000      -0.461103       -12.5473
  55   2.0000      -0.451645       -12.2899
  56   2.0000      -0.445405       -12.1201
  57   2.0000      -0.444457       -12.0943
  58   2.0000      -0.441038       -12.0012
  59   2.0000      -0.425299       -11.5730
  60   2.0000      -0.420307       -11.4371
  61   2.0000      -0.405903       -11.0452
  62   2.0000      -0.400824       -10.9070
  63   2.0000      -0.347320        -9.4511
  64   2.0000      -0.335518        -9.1299
  65   2.0000      -0.326601        -8.8873
  66   2.0000      -0.291662        -7.9365
  67   0.0000       0.031866         0.8671
  68   0.0000       0.074311         2.0221
  69   0.0000       0.112630         3.0648
  70   0.0000       0.116749         3.1769
  71   0.0000       0.133105         3.6220

MULLIKEN ATOMIC CHARGES
-----------------------
   0 S :    0.119593
   1 C :   -0.101218
   2 C :   -0.120804
   3 C :    0.053691
   4 C :   -0.163764
   5 H :    0.004755
   6 C :    0.048181
   7 H :    0.012845
   8 H :    0.044549
   9 C :   -0.061876
  10 H :    0.021945
  11 H :    0.026181
  12 C :   -0.025331
  13 H :    0.036415
  14 H :    0.030642
  15 H :    0.032699
  16 S :    0.115729
  17 C :   -0.086233
  18 C :   -0.038470
  19 C :   -0.021365
  20 C :   -0.163962
  21 H :    0.023393
  22 C :    0.058974
  23 H :    0.036683
  24 H :    0.004199
  25 C :   -0.059853
  26 H :    0.004135
  27 H :    0.004055
  28 C :   -0.010251
  29 H :    0.043367
  30 H :    0.018966
  31 H :    0.044584
  32 H :    0.027709
  33 H :    0.039835
Sum of atomic charges:    0.0000000

LOEWDIN ATOMIC CHARGES
----------------------
   0 S :    0.431640
   1 C :   -0.205292
   2 C :   -0.059880
   3 C :   -0.061508
   4 C :   -0.192009
   5 H :    0.031748
   6 C :   -0.027119
   7 H :    0.023378
   8 H :    0.036218
   9 C :   -0.035556
  10 H :    0.012694
  11 H :    0.024789
  12 C :   -0.058758
  13 H :    0.026774
  14 H :    0.019932
  15 H :    0.030738
  16 S :    0.419681
  17 C :   -0.185179
  18 C :   -0.072985
  19 C :   -0.050224
  20 C :   -0.210787
  21 H :    0.035294
  22 C :   -0.035249
  23 H :    0.027063
  24 H :    0.025063
  25 C :   -0.041904
  26 H :    0.013143
  27 H :    0.011769
  28 C :   -0.055788
  29 H :    0.036973
  30 H :    0.019033
  31 H :    0.027797
  32 H :    0.018707
  33 H :    0.019801

  Mayer bond orders larger than 0.100000
B(  0-S ,  1-C ) :   1.1271 B(  0-S ,  4-C ) :   1.1628 B(  1-C ,  2-C ) :   1.6205
B(  1-C , 32-H ) :   0.9773 B(  2-C ,  3-C ) :   1.2326 B(  2-C ,  6-C ) :   0.9964
B(  3-C ,  4-C ) :   1.5916 B(  3-C ,  5-H ) :   0.9984 B(  4-C , 20-C ) :   1.0183
B(  6-C ,  7-H ) :   0.9504 B(  6-C ,  8-H ) :   0.9380 B(  6-C ,  9-C ) :   1.0737
B(  9-C , 10-H ) :   0.9567 B(  9-C , 11-H ) :   0.9577 B(  9-C , 12-C ) :   1.0659
B( 12-C , 13-H ) :   0.9769 B( 12-C , 14-H ) :   0.9763 B( 12-C , 15-H ) :   0.9749
B( 16-S , 17-C ) :   1.1698 B( 16-S , 20-C ) :   1.1505 B( 17-C , 18-C ) :   1.5946
B( 17-C , 20-C ) :   0.1040 B( 17-C , 33-H ) :   0.9713 B( 18-C , 19-C ) :   1.2569
B( 18-C , 21-H ) :   0.9897 B( 19-C , 20-C ) :   1.5536 B( 19-C , 22-C ) :   1.0548
B( 22-C , 23-H ) :   0.9327 B( 22-C , 24-H ) :   0.9282 B( 22-C , 25-C ) :   1.0602
B( 25-C , 26-H ) :   0.9535 B( 25-C , 27-H ) :   0.9466 B( 25-C , 28-C ) :   1.0634
B( 28-C , 29-H ) :   0.9738 B( 28-C , 30-H ) :   0.9758 B( 28-C , 31-H ) :   0.9746

Dispersion correction           -0.014688226
FINAL SINGLE POINT ENERGY     -1339.875280717287

DIPOLE MOMENT
-------------
                                X             Y             Z
Electronic contribution:     10.23518      10.49096       4.64630
Nuclear contribution   :    -10.23435     -10.67426      -4.97168
                        -----------------------------------------
Total Dipole Moment    :      0.00082      -0.18331      -0.32538
                        -----------------------------------------
Magnitude (a.u.)       :      0.37346
Magnitude (Debye)      :      0.94926

Rotational constants in cm-1:     0.021189     0.008393     0.006516
Rotational constants in MHz :   635.238069   251.616879   195.332585

                             ****ORCA TERMINATED NORMALLY****
TOTAL RUN TIME: 0 days 0 hours 0 minutes 33 seconds 135 msec
