                         Program Version 4.2.1 -  RELEASE  -
|  1> ! wB97X-D3 SP def2-SVP
|  2> %pal
|  3> nprocs 16
|  4> end
|  5>
|  6> * xyz 0 1
|  7> S 	 -48.6866 	 20.0216 	 81.0896
|  8> C 	 -47.9698 	 19.9914 	 82.666
|  9> C 	 -47.1911 	 18.8467 	 82.9072
| 10> C 	 -47.2819 	 18.0356 	 81.7774
| 11> C 	 -47.9657 	 18.5176 	 80.6863
| 12> H 	 -46.9704 	 17.0544 	 81.7444
| 13> C 	 -46.5473 	 18.3933 	 84.1582
| 14> H 	 -46.957 	 17.4328 	 84.3503
| 15> H 	 -46.9083 	 18.984 	 85.0112
| 16> C 	 -44.9726 	 18.1654 	 84.0636
| 17> H 	 -44.8026 	 17.3674 	 83.3372
| 18> H 	 -44.5018 	 19.0663 	 83.6497
| 19> C 	 -44.2167 	 17.8449 	 85.4028
| 20> H 	 -44.2097 	 18.6971 	 86.0545
| 21> H 	 -44.6911 	 17.0276 	 85.998
| 22> H 	 -43.1728 	 17.5846 	 85.1525
| 23> S 	 -49.7764 	 17.761 	 78.7604
| 24> C 	 -49.1479 	 16.9614 	 77.3278
| 25> C 	 -47.8327 	 16.6527 	 77.5306
| 26> C 	 -47.202 	 17.2007 	 78.6862
| 27> C 	 -48.1549 	 17.9096 	 79.3965
| 28> H 	 -47.3807 	 15.8821 	 76.8691
| 29> C 	 -45.774 	 16.8851 	 79.0614
| 30> H 	 -45.2429 	 16.3405 	 78.3204
| 31> H 	 -45.6989 	 16.0533 	 79.7933
| 32> C 	 -44.8221 	 18.0961 	 79.3725
| 33> H 	 -45.2203 	 18.8639 	 80.0311
| 34> H 	 -44.5928 	 18.5982 	 78.4917
| 35> C 	 -43.3931 	 17.7288 	 79.8988
| 36> H 	 -42.9419 	 18.6126 	 80.3192
| 37> H 	 -42.8327 	 17.3596 	 79.1131
| 38> H 	 -43.3674 	 16.9172 	 80.6727
| 39> H 	 -48.1639 	 20.7216 	 83.4718
| 40> H 	 -49.7709 	 16.4539 	 76.5833
| 41> *
| 42>
| 43>                          ****END OF INPUT****

CARTESIAN COORDINATES (ANGSTROEM)
---------------------------------
  S    -48.686600   20.021600   81.089600
  C    -47.969800   19.991400   82.666000
  C    -47.191100   18.846700   82.907200
  C    -47.281900   18.035600   81.777400
  C    -47.965700   18.517600   80.686300
  H    -46.970400   17.054400   81.744400
  C    -46.547300   18.393300   84.158200
  H    -46.957000   17.432800   84.350300
  H    -46.908300   18.984000   85.011200
  C    -44.972600   18.165400   84.063600
  H    -44.802600   17.367400   83.337200
  H    -44.501800   19.066300   83.649700
  C    -44.216700   17.844900   85.402800
  H    -44.209700   18.697100   86.054500
  H    -44.691100   17.027600   85.998000
  H    -43.172800   17.584600   85.152500
  S    -49.776400   17.761000   78.760400
  C    -49.147900   16.961400   77.327800
  C    -47.832700   16.652700   77.530600
  C    -47.202000   17.200700   78.686200
  C    -48.154900   17.909600   79.396500
  H    -47.380700   15.882100   76.869100
  C    -45.774000   16.885100   79.061400
  H    -45.242900   16.340500   78.320400
  H    -45.698900   16.053300   79.793300
  C    -44.822100   18.096100   79.372500
  H    -45.220300   18.863900   80.031100
  H    -44.592800   18.598200   78.491700
  C    -43.393100   17.728800   79.898800
  H    -42.941900   18.612600   80.319200
  H    -42.832700   17.359600   79.113100
  H    -43.367400   16.917200   80.672700
  H    -48.163900   20.721600   83.471800
  H    -49.770900   16.453900   76.583300

 Total Charge           Charge          ....    0
 Multiplicity           Mult            ....    1
 Number of Electrons    NEL             ....  134
 Basis Dimension        Dim             ....  322

ORBITAL ENERGIES
----------------

  NO   OCC          E(Eh)            E(eV)
   0   2.0000     -88.966936     -2420.9134
   1   2.0000     -88.965747     -2420.8811
   2   2.0000     -10.325256      -280.9645
   3   2.0000     -10.318637      -280.7844
   4   2.0000     -10.315324      -280.6942
   5   2.0000     -10.313576      -280.6467
   6   2.0000     -10.304027      -280.3868
   7   2.0000     -10.296898      -280.1928
   8   2.0000     -10.296601      -280.1847
   9   2.0000     -10.295850      -280.1643
  10   2.0000     -10.293843      -280.1097
  11   2.0000     -10.293133      -280.0904
  12   2.0000     -10.285581      -279.8849
  13   2.0000     -10.280542      -279.7478
  14   2.0000     -10.278870      -279.7023
  15   2.0000     -10.273918      -279.5675
  16   2.0000      -8.081675      -219.9136
  17   2.0000      -8.081224      -219.9013
  18   2.0000      -6.040184      -164.3618
  19   2.0000      -6.039520      -164.3437
  20   2.0000      -6.036358      -164.2576
  21   2.0000      -6.035575      -164.2363
  22   2.0000      -6.032247      -164.1458
  23   2.0000      -6.032228      -164.1453
  24   2.0000      -1.012864       -27.5614
  25   2.0000      -0.988194       -26.8901
  26   2.0000      -0.909069       -24.7370
  27   2.0000      -0.903478       -24.5849
  28   2.0000      -0.867631       -23.6094
  29   2.0000      -0.854217       -23.2444
  30   2.0000      -0.848181       -23.0802
  31   2.0000      -0.812952       -22.1216
  32   2.0000      -0.786759       -21.4088
  33   2.0000      -0.774256       -21.0686
  34   2.0000      -0.711517       -19.3614
  35   2.0000      -0.703602       -19.1460
  36   2.0000      -0.691915       -18.8280
  37   2.0000      -0.660541       -17.9742
  38   2.0000      -0.640246       -17.4220
  39   2.0000      -0.624834       -17.0026
  40   2.0000      -0.600460       -16.3393
  41   2.0000      -0.567158       -15.4331
  42   2.0000      -0.558583       -15.1998
  43   2.0000      -0.551242       -15.0001
  44   2.0000      -0.527459       -14.3529
  45   2.0000      -0.523938       -14.2571
  46   2.0000      -0.515047       -14.0151
  47   2.0000      -0.510800       -13.8996
  48   2.0000      -0.504159       -13.7189
  49   2.0000      -0.498061       -13.5529
  50   2.0000      -0.491961       -13.3869
  51   2.0000      -0.485883       -13.2215
  52   2.0000      -0.472664       -12.8618
  53   2.0000      -0.464641       -12.6435
  54   2.0000      -0.457295       -12.4436
  55   2.0000      -0.444704       -12.1010
  56   2.0000      -0.443203       -12.0602
  57   2.0000      -0.438382       -11.9290
  58   2.0000      -0.433139       -11.7863
  59   2.0000      -0.430148       -11.7049
  60   2.0000      -0.429424       -11.6852
  61   2.0000      -0.421659       -11.4739
  62   2.0000      -0.412356       -11.2208
  63   2.0000      -0.346023        -9.4158
  64   2.0000      -0.332114        -9.0373
  65   2.0000      -0.329613        -8.9692
  66   2.0000      -0.287777        -7.8308
  67   0.0000       0.027197         0.7401
  68   0.0000       0.076068         2.0699
  69   0.0000       0.103968         2.8291
  70   0.0000       0.121638         3.3099
  71   0.0000       0.131185         3.5697

MULLIKEN ATOMIC CHARGES
-----------------------
   0 S :    0.124299
   1 C :   -0.136865
   2 C :   -0.073274
   3 C :    0.036921
   4 C :   -0.172848
   5 H :   -0.029098
   6 C :    0.094043
   7 H :    0.020157
   8 H :    0.016206
   9 C :   -0.099892
  10 H :    0.035015
  11 H :    0.036356
  12 C :   -0.056103
  13 H :    0.031656
  14 H :    0.035563
  15 H :    0.044089
  16 S :    0.110479
  17 C :   -0.094348
  18 C :   -0.057114
  19 C :    0.004924
  20 C :   -0.140232
  21 H :    0.028761
  22 C :    0.068742
  23 H :   -0.006970
  24 H :    0.030896
  25 C :   -0.064197
  26 H :    0.050241
  27 H :    0.017193
  28 C :   -0.048856
  29 H :    0.036304
  30 H :    0.015997
  31 H :    0.025583
  32 H :    0.050895
  33 H :    0.065478
Sum of atomic charges:   -0.0000000

LOEWDIN ATOMIC CHARGES
----------------------
   0 S :    0.432558
   1 C :   -0.209228
   2 C :   -0.064865
   3 C :   -0.053414
   4 C :   -0.209202
   5 H :    0.015450
   6 C :   -0.031756
   7 H :    0.030780
   8 H :    0.030502
   9 C :   -0.035133
  10 H :    0.022666
  11 H :    0.025471
  12 C :   -0.068396
  13 H :    0.021298
  14 H :    0.027491
  15 H :    0.031748
  16 S :    0.403756
  17 C :   -0.195087
  18 C :   -0.069791
  19 C :   -0.056855
  20 C :   -0.192347
  21 H :    0.035392
  22 C :   -0.036933
  23 H :    0.027501
  24 H :    0.034345
  25 C :   -0.030004
  26 H :    0.025167
  27 H :    0.018429
  28 C :   -0.058926
  29 H :    0.028463
  30 H :    0.011734
  31 H :    0.023529
  32 H :    0.030649
  33 H :    0.035008

  Mayer bond orders larger than 0.100000
B(  0-S ,  1-C ) :   1.1645 B(  0-S ,  4-C ) :   1.1587 B(  1-C ,  2-C ) :   1.5661
B(  1-C ,  4-C ) :   0.1033 B(  1-C , 32-H ) :   0.9617 B(  2-C ,  3-C ) :   1.2701
B(  2-C ,  6-C ) :   1.0405 B(  3-C ,  4-C ) :   1.5493 B(  3-C ,  5-H ) :   1.0078
B(  4-C , 20-C ) :   1.0469 B(  6-C ,  7-H ) :   0.9313 B(  6-C ,  8-H ) :   0.9411
B(  6-C ,  9-C ) :   1.0381 B(  9-C , 10-H ) :   0.9584 B(  9-C , 11-H ) :   0.9619
B(  9-C , 12-C ) :   1.0783 B( 12-C , 13-H ) :   0.9778 B( 12-C , 14-H ) :   0.9759
B( 12-C , 15-H ) :   0.9752 B( 16-S , 17-C ) :   1.1285 B( 16-S , 20-C ) :   1.1636
B( 17-C , 18-C ) :   1.6299 B( 17-C , 33-H ) :   0.9640 B( 18-C , 19-C ) :   1.2464
B( 18-C , 21-H ) :   0.9771 B( 19-C , 20-C ) :   1.5773 B( 19-C , 22-C ) :   1.0462
B( 22-C , 23-H ) :   0.9235 B( 22-C , 24-H ) :   0.9330 B( 22-C , 25-C ) :   1.0408
B( 25-C , 26-H ) :   0.9674 B( 25-C , 27-H ) :   0.9551 B( 25-C , 28-C ) :   1.0777
B( 28-C , 29-H ) :   0.9754 B( 28-C , 30-H ) :   0.9782 B( 28-C , 31-H ) :   0.9772

Dispersion correction           -0.015078389
FINAL SINGLE POINT ENERGY     -1339.871805224895

DIPOLE MOMENT
-------------
                                X             Y             Z
Electronic contribution:    -29.61750       7.08118     -14.81878
Nuclear contribution   :     30.15446      -7.60755      15.09702
                        -----------------------------------------
Total Dipole Moment    :      0.53696      -0.52637       0.27825
                        -----------------------------------------
Magnitude (a.u.)       :      0.80175
Magnitude (Debye)      :      2.03790

Rotational constants in cm-1:     0.019502     0.009249     0.006975
Rotational constants in MHz :   584.668874   277.276164   209.118452

                             ****ORCA TERMINATED NORMALLY****
TOTAL RUN TIME: 0 days 0 hours 0 minutes 29 seconds 992 msec
