                         Program Version 4.2.1 -  RELEASE  -
|  1> ! wB97X-D3 SP def2-SVP
|  2> %pal
|  3> nprocs 16
|  4> end
|  5>
|  6> * xyz 0 1
|  7> S 	 58.4873 	 -6.24857 	 88.4872
|  8> C 	 58.3535 	 -4.52015 	 88.7226
|  9> C 	 57.8877 	 -3.8365 	 87.6127
| 10> C 	 57.631 	 -4.73344 	 86.5489
| 11> C 	 57.9932 	 -6.04482 	 86.7888
| 12> H 	 57.1814 	 -4.47533 	 85.6138
| 13> C 	 57.4926 	 -2.40585 	 87.5656
| 14> H 	 56.7888 	 -2.18778 	 88.3359
| 15> H 	 57.06 	 -2.24449 	 86.5482
| 16> C 	 58.6827 	 -1.35478 	 87.6097
| 17> H 	 58.1619 	 -0.374328 	 87.5303
| 18> H 	 59.2502 	 -1.33495 	 88.5062
| 19> C 	 59.5624 	 -1.41172 	 86.3509
| 20> H 	 59.8203 	 -2.40409 	 86.0342
| 21> H 	 59.0409 	 -1.0079 	 85.4964
| 22> H 	 60.4781 	 -0.898134 	 86.518
| 23> S 	 56.4628 	 -8.26605 	 86.4444
| 24> C 	 56.8147 	 -9.31614 	 85.0814
| 25> C 	 57.814 	 -8.83188 	 84.2809
| 26> C 	 58.3422 	 -7.58203 	 84.7453
| 27> C 	 57.7531 	 -7.19811 	 85.9424
| 28> H 	 58.0543 	 -9.26031 	 83.3754
| 29> C 	 59.3597 	 -6.97125 	 83.8419
| 30> H 	 59.4272 	 -5.91546 	 84.0093
| 31> H 	 59.0614 	 -7.0156 	 82.7573
| 32> C 	 60.69 	 -7.67482 	 84.0664
| 33> H 	 60.6654 	 -8.74161 	 83.9731
| 34> H 	 60.9779 	 -7.35972 	 85.046
| 35> C 	 61.7217 	 -7.21985 	 83.0571
| 36> H 	 61.8207 	 -6.13532 	 83.1619
| 37> H 	 61.3977 	 -7.41084 	 82.0765
| 38> H 	 62.732 	 -7.66172 	 83.2288
| 39> H 	 58.519 	 -4.08635 	 89.6748
| 40> H 	 56.4194 	 -10.2781 	 84.8844
| 41> *
| 42>
| 43>                          ****END OF INPUT****

CARTESIAN COORDINATES (ANGSTROEM)
---------------------------------
  S     58.487300   -6.248570   88.487200
  C     58.353500   -4.520150   88.722600
  C     57.887700   -3.836500   87.612700
  C     57.631000   -4.733440   86.548900
  C     57.993200   -6.044820   86.788800
  H     57.181400   -4.475330   85.613800
  C     57.492600   -2.405850   87.565600
  H     56.788800   -2.187780   88.335900
  H     57.060000   -2.244490   86.548200
  C     58.682700   -1.354780   87.609700
  H     58.161900   -0.374328   87.530300
  H     59.250200   -1.334950   88.506200
  C     59.562400   -1.411720   86.350900
  H     59.820300   -2.404090   86.034200
  H     59.040900   -1.007900   85.496400
  H     60.478100   -0.898134   86.518000
  S     56.462800   -8.266050   86.444400
  C     56.814700   -9.316140   85.081400
  C     57.814000   -8.831880   84.280900
  C     58.342200   -7.582030   84.745300
  C     57.753100   -7.198110   85.942400
  H     58.054300   -9.260310   83.375400
  C     59.359700   -6.971250   83.841900
  H     59.427200   -5.915460   84.009300
  H     59.061400   -7.015600   82.757300
  C     60.690000   -7.674820   84.066400
  H     60.665400   -8.741610   83.973100
  H     60.977900   -7.359720   85.046000
  C     61.721700   -7.219850   83.057100
  H     61.820700   -6.135320   83.161900
  H     61.397700   -7.410840   82.076500
  H     62.732000   -7.661720   83.228800
  H     58.519000   -4.086350   89.674800
  H     56.419400  -10.278100   84.884400

 Total Charge           Charge          ....    0
 Multiplicity           Mult            ....    1
 Number of Electrons    NEL             ....  134
 Basis Dimension        Dim             ....  322

ORBITAL ENERGIES
----------------

  NO   OCC          E(Eh)            E(eV)
   0   2.0000     -88.966006     -2420.8881
   1   2.0000     -88.965223     -2420.8668
   2   2.0000     -10.325896      -280.9819
   3   2.0000     -10.323218      -280.9091
   4   2.0000     -10.311119      -280.5798
   5   2.0000     -10.310737      -280.5694
   6   2.0000     -10.299235      -280.2564
   7   2.0000     -10.296302      -280.1766
   8   2.0000     -10.293870      -280.1104
   9   2.0000     -10.291223      -280.0384
  10   2.0000     -10.289983      -280.0047
  11   2.0000     -10.288971      -279.9771
  12   2.0000     -10.282438      -279.7994
  13   2.0000     -10.277128      -279.6549
  14   2.0000     -10.271746      -279.5084
  15   2.0000     -10.269990      -279.4606
  16   2.0000      -8.080311      -219.8764
  17   2.0000      -8.079878      -219.8647
  18   2.0000      -6.038728      -164.3221
  19   2.0000      -6.038438      -164.3143
  20   2.0000      -6.034929      -164.2188
  21   2.0000      -6.034509      -164.2073
  22   2.0000      -6.031155      -164.1161
  23   2.0000      -6.030483      -164.0978
  24   2.0000      -1.004669       -27.3384
  25   2.0000      -0.982678       -26.7400
  26   2.0000      -0.917578       -24.9686
  27   2.0000      -0.908238       -24.7144
  28   2.0000      -0.868035       -23.6204
  29   2.0000      -0.852533       -23.1986
  30   2.0000      -0.849181       -23.1074
  31   2.0000      -0.814415       -22.1614
  32   2.0000      -0.782441       -21.2913
  33   2.0000      -0.768907       -20.9230
  34   2.0000      -0.706348       -19.2207
  35   2.0000      -0.703504       -19.1433
  36   2.0000      -0.694407       -18.8958
  37   2.0000      -0.667175       -18.1548
  38   2.0000      -0.644888       -17.5483
  39   2.0000      -0.615441       -16.7470
  40   2.0000      -0.598897       -16.2968
  41   2.0000      -0.574036       -15.6203
  42   2.0000      -0.570797       -15.5322
  43   2.0000      -0.555100       -15.1050
  44   2.0000      -0.539360       -14.6767
  45   2.0000      -0.526372       -14.3233
  46   2.0000      -0.514587       -14.0026
  47   2.0000      -0.511882       -13.9290
  48   2.0000      -0.507731       -13.8161
  49   2.0000      -0.496066       -13.4986
  50   2.0000      -0.491290       -13.3687
  51   2.0000      -0.476738       -12.9727
  52   2.0000      -0.470136       -12.7931
  53   2.0000      -0.464062       -12.6278
  54   2.0000      -0.453845       -12.3497
  55   2.0000      -0.449993       -12.2449
  56   2.0000      -0.443300       -12.0628
  57   2.0000      -0.438230       -11.9248
  58   2.0000      -0.434578       -11.8255
  59   2.0000      -0.430682       -11.7195
  60   2.0000      -0.424678       -11.5561
  61   2.0000      -0.418411       -11.3855
  62   2.0000      -0.414827       -11.2880
  63   2.0000      -0.340349        -9.2614
  64   2.0000      -0.327158        -8.9024
  65   2.0000      -0.325393        -8.8544
  66   2.0000      -0.298141        -8.1128
  67   0.0000       0.036445         0.9917
  68   0.0000       0.061737         1.6799
  69   0.0000       0.110940         3.0188
  70   0.0000       0.116289         3.1644
  71   0.0000       0.133899         3.6436

MULLIKEN ATOMIC CHARGES
-----------------------
   0 S :    0.109904
   1 C :   -0.116670
   2 C :   -0.058334
   3 C :    0.050949
   4 C :   -0.182080
   5 H :    0.003814
   6 C :    0.053399
   7 H :    0.039528
   8 H :    0.021583
   9 C :   -0.072614
  10 H :    0.031528
  11 H :    0.028055
  12 C :   -0.035183
  13 H :    0.024748
  14 H :    0.022315
  15 H :    0.029370
  16 S :    0.118519
  17 C :   -0.063062
  18 C :   -0.012304
  19 C :   -0.005659
  20 C :   -0.189084
  21 H :   -0.012625
  22 C :    0.056478
  23 H :    0.009359
  24 H :    0.030038
  25 C :   -0.066488
  26 H :    0.030129
  27 H :    0.027367
  28 C :   -0.016812
  29 H :    0.018561
  30 H :    0.013815
  31 H :    0.040189
  32 H :    0.032607
  33 H :    0.038661
Sum of atomic charges:    0.0000000

LOEWDIN ATOMIC CHARGES
----------------------
   0 S :    0.396816
   1 C :   -0.184240
   2 C :   -0.071137
   3 C :   -0.053077
   4 C :   -0.194050
   5 H :    0.028353
   6 C :   -0.027483
   7 H :    0.029987
   8 H :    0.035005
   9 C :   -0.032797
  10 H :    0.029065
  11 H :    0.014951
  12 C :   -0.062679
  13 H :    0.020926
  14 H :    0.023530
  15 H :    0.024195
  16 S :    0.405066
  17 C :   -0.175337
  18 C :   -0.056956
  19 C :   -0.047069
  20 C :   -0.209465
  21 H :    0.017401
  22 C :   -0.030868
  23 H :    0.024275
  24 H :    0.033694
  25 C :   -0.031260
  26 H :    0.021345
  27 H :    0.025794
  28 C :   -0.061519
  29 H :    0.023582
  30 H :    0.013735
  31 H :    0.030346
  32 H :    0.017407
  33 H :    0.022462

  Mayer bond orders larger than 0.100000
B(  0-S ,  1-C ) :   1.1526 B(  0-S ,  4-C ) :   1.1442 B(  1-C ,  2-C ) :   1.5877
B(  1-C , 32-H ) :   0.9738 B(  2-C ,  3-C ) :   1.2499 B(  2-C ,  6-C ) :   1.0193
B(  3-C ,  4-C ) :   1.5876 B(  3-C ,  5-H ) :   0.9932 B(  4-C , 20-C ) :   1.0227
B(  6-C ,  7-H ) :   0.9419 B(  6-C ,  8-H ) :   0.9435 B(  6-C ,  9-C ) :   1.0673
B(  9-C , 10-H ) :   0.9594 B(  9-C , 11-H ) :   0.9659 B(  9-C , 12-C ) :   1.0684
B( 12-C , 13-H ) :   0.9789 B( 12-C , 14-H ) :   0.9750 B( 12-C , 15-H ) :   0.9739
B( 16-S , 17-C ) :   1.1385 B( 16-S , 20-C ) :   1.1405 B( 17-C , 18-C ) :   1.6384
B( 17-C , 33-H ) :   0.9665 B( 18-C , 19-C ) :   1.2212 B( 18-C , 21-H ) :   0.9958
B( 19-C , 20-C ) :   1.6180 B( 19-C , 22-C ) :   1.0503 B( 22-C , 23-H ) :   0.9225
B( 22-C , 24-H ) :   0.9422 B( 22-C , 25-C ) :   1.0574 B( 25-C , 26-H ) :   0.9631
B( 25-C , 27-H ) :   0.9511 B( 25-C , 28-C ) :   1.0891 B( 28-C , 29-H ) :   0.9697
B( 28-C , 30-H ) :   0.9733 B( 28-C , 31-H ) :   0.9730

Dispersion correction           -0.013929354
FINAL SINGLE POINT ENERGY     -1339.880928366630

DIPOLE MOMENT
-------------
                                X             Y             Z
Electronic contribution:    -15.54581     -17.87564      14.34198
Nuclear contribution   :     15.65058      18.25585     -14.73462
                        -----------------------------------------
Total Dipole Moment    :      0.10477       0.38021      -0.39263
                        -----------------------------------------
Magnitude (a.u.)       :      0.55650
Magnitude (Debye)      :      1.41452

Rotational constants in cm-1:     0.017856     0.008741     0.006733
Rotational constants in MHz :   535.303333   262.034656   201.857166

                             ****ORCA TERMINATED NORMALLY****
TOTAL RUN TIME: 0 days 0 hours 0 minutes 30 seconds 153 msec
