                         Program Version 4.2.1 -  RELEASE  -
|  1> ! wB97X-D3 SP def2-SVP
|  2> %pal
|  3> nprocs 16
|  4> end
|  5>
|  6> * xyz 0 1
|  7> S 	 -42.4916 	 54.361 	 103.763
|  8> C 	 -43.0992 	 53.0639 	 102.786
|  9> C 	 -42.6887 	 53.1598 	 101.447
| 10> C 	 -41.8468 	 54.3004 	 101.244
| 11> C 	 -41.6115 	 55.0729 	 102.422
| 12> H 	 -41.6025 	 54.7126 	 100.291
| 13> C 	 -43.2532 	 52.3003 	 100.29
| 14> H 	 -43.2298 	 52.9673 	 99.3983
| 15> H 	 -44.338 	 52.0745 	 100.418
| 16> C 	 -42.3605 	 51.1225 	 99.8684
| 17> H 	 -42.5772 	 50.695 	 98.85
| 18> H 	 -41.304 	 51.4446 	 99.7581
| 19> C 	 -42.4505 	 49.9326 	 100.837
| 20> H 	 -42.0051 	 49.0443 	 100.351
| 21> H 	 -42.1571 	 50.1643 	 101.884
| 22> H 	 -43.4594 	 49.5235 	 100.912
| 23> S 	 -41.7237 	 57.7607 	 102.985
| 24> C 	 -40.2458 	 58.6505 	 102.895
| 25> C 	 -39.2168 	 57.9221 	 102.437
| 26> C 	 -39.6396 	 56.5943 	 102.076
| 27> C 	 -40.9362 	 56.2888 	 102.507
| 28> H 	 -38.2989 	 58.4327 	 102.214
| 29> C 	 -38.6657 	 55.5218 	 101.558
| 30> H 	 -37.739 	 56.0036 	 101.129
| 31> H 	 -39.2015 	 55.1762 	 100.684
| 32> C 	 -38.3442 	 54.3023 	 102.545
| 33> H 	 -39.191 	 53.7036 	 102.594
| 34> H 	 -38.0414 	 54.7179 	 103.573
| 35> C 	 -37.2325 	 53.4641 	 101.931
| 36> H 	 -36.4226 	 53.9679 	 101.481
| 37> H 	 -37.5461 	 52.7529 	 101.16
| 38> H 	 -36.9179 	 52.8586 	 102.678
| 39> H 	 -43.9565 	 52.4738 	 103.17
| 40> H 	 -40.1353 	 59.7155 	 103.2
| 41> *
| 42>
| 43>                          ****END OF INPUT****

CARTESIAN COORDINATES (ANGSTROEM)
---------------------------------
  S    -42.491600   54.361000  103.763000
  C    -43.099200   53.063900  102.786000
  C    -42.688700   53.159800  101.447000
  C    -41.846800   54.300400  101.244000
  C    -41.611500   55.072900  102.422000
  H    -41.602500   54.712600  100.291000
  C    -43.253200   52.300300  100.290000
  H    -43.229800   52.967300   99.398300
  H    -44.338000   52.074500  100.418000
  C    -42.360500   51.122500   99.868400
  H    -42.577200   50.695000   98.850000
  H    -41.304000   51.444600   99.758100
  C    -42.450500   49.932600  100.837000
  H    -42.005100   49.044300  100.351000
  H    -42.157100   50.164300  101.884000
  H    -43.459400   49.523500  100.912000
  S    -41.723700   57.760700  102.985000
  C    -40.245800   58.650500  102.895000
  C    -39.216800   57.922100  102.437000
  C    -39.639600   56.594300  102.076000
  C    -40.936200   56.288800  102.507000
  H    -38.298900   58.432700  102.214000
  C    -38.665700   55.521800  101.558000
  H    -37.739000   56.003600  101.129000
  H    -39.201500   55.176200  100.684000
  C    -38.344200   54.302300  102.545000
  H    -39.191000   53.703600  102.594000
  H    -38.041400   54.717900  103.573000
  C    -37.232500   53.464100  101.931000
  H    -36.422600   53.967900  101.481000
  H    -37.546100   52.752900  101.160000
  H    -36.917900   52.858600  102.678000
  H    -43.956500   52.473800  103.170000
  H    -40.135300   59.715500  103.200000

 Total Charge           Charge          ....    0
 Multiplicity           Mult            ....    1
 Number of Electrons    NEL             ....  134
 Basis Dimension        Dim             ....  322

ORBITAL ENERGIES
----------------

  NO   OCC          E(Eh)            E(eV)
   0   2.0000     -88.968962     -2420.9685
   1   2.0000     -88.963107     -2420.8092
   2   2.0000     -10.329750      -281.0868
   3   2.0000     -10.318640      -280.7845
   4   2.0000     -10.318053      -280.7685
   5   2.0000     -10.313745      -280.6513
   6   2.0000     -10.309881      -280.5461
   7   2.0000     -10.303262      -280.3660
   8   2.0000     -10.302093      -280.3342
   9   2.0000     -10.299198      -280.2554
  10   2.0000     -10.294346      -280.1234
  11   2.0000     -10.291784      -280.0537
  12   2.0000     -10.288347      -279.9602
  13   2.0000     -10.286601      -279.9126
  14   2.0000     -10.277358      -279.6611
  15   2.0000     -10.260682      -279.2074
  16   2.0000      -8.083729      -219.9694
  17   2.0000      -8.078688      -219.8323
  18   2.0000      -6.042075      -164.4132
  19   2.0000      -6.038075      -164.3044
  20   2.0000      -6.037151      -164.2792
  21   2.0000      -6.034815      -164.2157
  22   2.0000      -6.033121      -164.1696
  23   2.0000      -6.029393      -164.0681
  24   2.0000      -1.010052       -27.4849
  25   2.0000      -0.983961       -26.7749
  26   2.0000      -0.907879       -24.7047
  27   2.0000      -0.898677       -24.4543
  28   2.0000      -0.875328       -23.8189
  29   2.0000      -0.851757       -23.1775
  30   2.0000      -0.845897       -23.0180
  31   2.0000      -0.811780       -22.0897
  32   2.0000      -0.782376       -21.2895
  33   2.0000      -0.767009       -20.8714
  34   2.0000      -0.712055       -19.3760
  35   2.0000      -0.695400       -18.9228
  36   2.0000      -0.690443       -18.7879
  37   2.0000      -0.658545       -17.9199
  38   2.0000      -0.641556       -17.4576
  39   2.0000      -0.617305       -16.7977
  40   2.0000      -0.587977       -15.9997
  41   2.0000      -0.569176       -15.4881
  42   2.0000      -0.561183       -15.2706
  43   2.0000      -0.549189       -14.9442
  44   2.0000      -0.532815       -14.4986
  45   2.0000      -0.526833       -14.3359
  46   2.0000      -0.514795       -14.0083
  47   2.0000      -0.509478       -13.8636
  48   2.0000      -0.503846       -13.7103
  49   2.0000      -0.494192       -13.4476
  50   2.0000      -0.486641       -13.2422
  51   2.0000      -0.484105       -13.1732
  52   2.0000      -0.475676       -12.9438
  53   2.0000      -0.463662       -12.6169
  54   2.0000      -0.458094       -12.4654
  55   2.0000      -0.449868       -12.2415
  56   2.0000      -0.444062       -12.0835
  57   2.0000      -0.428444       -11.6586
  58   2.0000      -0.428025       -11.6472
  59   2.0000      -0.425950       -11.5907
  60   2.0000      -0.419565       -11.4169
  61   2.0000      -0.415434       -11.3045
  62   2.0000      -0.406656       -11.0657
  63   2.0000      -0.345503        -9.4016
  64   2.0000      -0.333111        -9.0644
  65   2.0000      -0.327609        -8.9147
  66   2.0000      -0.289483        -7.8772
  67   0.0000       0.022626         0.6157
  68   0.0000       0.071175         1.9368
  69   0.0000       0.111492         3.0338
  70   0.0000       0.120996         3.2925
  71   0.0000       0.129381         3.5206

MULLIKEN ATOMIC CHARGES
-----------------------
   0 S :    0.122553
   1 C :   -0.141911
   2 C :   -0.080405
   3 C :    0.042817
   4 C :   -0.207925
   5 H :    0.017119
   6 C :    0.040977
   7 H :    0.027289
   8 H :    0.043423
   9 C :   -0.077206
  10 H :    0.031968
  11 H :    0.034528
  12 C :   -0.061149
  13 H :    0.030678
  14 H :    0.049794
  15 H :    0.012309
  16 S :    0.117487
  17 C :   -0.103529
  18 C :   -0.018352
  19 C :   -0.046345
  20 C :   -0.145089
  21 H :    0.016372
  22 C :    0.041006
  23 H :    0.021021
  24 H :    0.013007
  25 C :   -0.052626
  26 H :    0.034956
  27 H :    0.050127
  28 C :    0.003830
  29 H :    0.016509
  30 H :    0.020666
  31 H :    0.005845
  32 H :    0.071812
  33 H :    0.068445
Sum of atomic charges:    0.0000000

LOEWDIN ATOMIC CHARGES
----------------------
   0 S :    0.422407
   1 C :   -0.214057
   2 C :   -0.062249
   3 C :   -0.055733
   4 C :   -0.198814
   5 H :    0.026970
   6 C :   -0.034997
   7 H :    0.035132
   8 H :    0.035215
   9 C :   -0.047509
  10 H :    0.028743
  11 H :    0.028041
  12 C :   -0.080104
  13 H :    0.030080
  14 H :    0.029105
  15 H :    0.021317
  16 S :    0.416597
  17 C :   -0.190950
  18 C :   -0.078198
  19 C :   -0.046539
  20 C :   -0.221998
  21 H :    0.033217
  22 C :   -0.038813
  23 H :    0.030106
  24 H :    0.026461
  25 C :   -0.022481
  26 H :    0.018947
  27 H :    0.034751
  28 C :   -0.059194
  29 H :    0.017538
  30 H :    0.028873
  31 H :    0.014492
  32 H :    0.034899
  33 H :    0.038747

  Mayer bond orders larger than 0.100000
B(  0-S ,  1-C ) :   1.1612 B(  0-S ,  4-C ) :   1.1607 B(  1-C ,  2-C ) :   1.5681
B(  1-C ,  4-C ) :   0.1065 B(  1-C , 32-H ) :   0.9635 B(  2-C ,  3-C ) :   1.2893
B(  2-C ,  6-C ) :   1.0107 B(  3-C ,  4-C ) :   1.5269 B(  3-C ,  5-H ) :   0.9861
B(  4-C , 20-C ) :   1.1116 B(  6-C ,  7-H ) :   0.9416 B(  6-C ,  8-H ) :   0.9538
B(  6-C ,  9-C ) :   1.0606 B(  9-C , 10-H ) :   0.9563 B(  9-C , 11-H ) :   0.9543
B(  9-C , 12-C ) :   1.0808 B( 12-C , 13-H ) :   0.9720 B( 12-C , 14-H ) :   0.9743
B( 12-C , 15-H ) :   0.9715 B( 16-S , 17-C ) :   1.1586 B( 16-S , 20-C ) :   1.1350
B( 17-C , 18-C ) :   1.6261 B( 17-C , 33-H ) :   0.9570 B( 18-C , 19-C ) :   1.2390
B( 18-C , 21-H ) :   0.9920 B( 19-C , 20-C ) :   1.5590 B( 19-C , 22-C ) :   1.0466
B( 22-C , 23-H ) :   0.9452 B( 22-C , 24-H ) :   0.9227 B( 22-C , 25-C ) :   1.0530
B( 25-C , 26-H ) :   0.9475 B( 25-C , 27-H ) :   0.9637 B( 25-C , 28-C ) :   1.0860
B( 28-C , 29-H ) :   0.9761 B( 28-C , 30-H ) :   0.9709 B( 28-C , 31-H ) :   0.9685

Dispersion correction           -0.014841016
FINAL SINGLE POINT ENERGY     -1339.865125543806

DIPOLE MOMENT
-------------
                                X             Y             Z
Electronic contribution:    -11.35153      23.49735      13.62300
Nuclear contribution   :     11.48982     -23.66987     -14.11918
                        -----------------------------------------
Total Dipole Moment    :      0.13830      -0.17252      -0.49618
                        -----------------------------------------
Magnitude (a.u.)       :      0.54321
Magnitude (Debye)      :      1.38074

Rotational constants in cm-1:     0.019920     0.008895     0.007066
Rotational constants in MHz :   597.191755   266.650430   211.822637

                             ****ORCA TERMINATED NORMALLY****
TOTAL RUN TIME: 0 days 0 hours 0 minutes 31 seconds 519 msec
