                         Program Version 4.2.1 -  RELEASE  -
|  1> ! wB97X-D3 SP def2-SVP
|  2> %pal
|  3> nprocs 16
|  4> end
|  5>
|  6> * xyz 0 1
|  7> S 	 3.49076 	 25.8632 	 70.7743
|  8> C 	 3.9792 	 24.643 	 69.6159
|  9> C 	 5.30384 	 24.4202 	 69.6007
| 10> C 	 6.03818 	 25.3853 	 70.3777
| 11> C 	 5.21312 	 26.3679 	 70.9505
| 12> H 	 7.11147 	 25.4934 	 70.5591
| 13> C 	 5.9551 	 23.2749 	 68.8589
| 14> H 	 6.87174 	 23.5099 	 68.4523
| 15> H 	 5.24236 	 23.0419 	 68.0649
| 16> C 	 6.07467 	 22.0066 	 69.7123
| 17> H 	 6.65013 	 21.2964 	 69.1284
| 18> H 	 6.74995 	 22.2377 	 70.5493
| 19> C 	 4.78924 	 21.3299 	 70.1203
| 20> H 	 4.91461 	 20.4593 	 70.7091
| 21> H 	 4.15925 	 22.0699 	 70.6802
| 22> H 	 4.29289 	 20.9584 	 69.2195
| 23> S 	 4.93772 	 27.6237 	 73.2564
| 24> C 	 5.99333 	 29.0328 	 73.5947
| 25> C 	 6.91114 	 29.2524 	 72.5753
| 26> C 	 6.74179 	 28.3669 	 71.4245
| 27> C 	 5.65109 	 27.5144 	 71.6538
| 28> H 	 7.66603 	 29.9755 	 72.6237
| 29> C 	 7.5012 	 28.489 	 70.1663
| 30> H 	 7.5255 	 29.587 	 69.8815
| 31> H 	 7.00069 	 27.9769 	 69.354
| 32> C 	 8.93248 	 28.0552 	 70.2199
| 33> H 	 9.45357 	 27.7575 	 69.3127
| 34> H 	 9.10733 	 27.1404 	 70.829
| 35> C 	 9.79241 	 29.2308 	 70.7681
| 36> H 	 9.60116 	 30.2295 	 70.4023
| 37> H 	 10.774 	 28.9739 	 70.4574
| 38> H 	 9.8824 	 29.1877 	 71.8827
| 39> H 	 3.25455 	 23.8244 	 69.2924
| 40> H 	 6.00641 	 29.5503 	 74.5683
| 41> *
| 42>
| 43>                          ****END OF INPUT****

CARTESIAN COORDINATES (ANGSTROEM)
---------------------------------
  S      3.490760   25.863200   70.774300
  C      3.979200   24.643000   69.615900
  C      5.303840   24.420200   69.600700
  C      6.038180   25.385300   70.377700
  C      5.213120   26.367900   70.950500
  H      7.111470   25.493400   70.559100
  C      5.955100   23.274900   68.858900
  H      6.871740   23.509900   68.452300
  H      5.242360   23.041900   68.064900
  C      6.074670   22.006600   69.712300
  H      6.650130   21.296400   69.128400
  H      6.749950   22.237700   70.549300
  C      4.789240   21.329900   70.120300
  H      4.914610   20.459300   70.709100
  H      4.159250   22.069900   70.680200
  H      4.292890   20.958400   69.219500
  S      4.937720   27.623700   73.256400
  C      5.993330   29.032800   73.594700
  C      6.911140   29.252400   72.575300
  C      6.741790   28.366900   71.424500
  C      5.651090   27.514400   71.653800
  H      7.666030   29.975500   72.623700
  C      7.501200   28.489000   70.166300
  H      7.525500   29.587000   69.881500
  H      7.000690   27.976900   69.354000
  C      8.932480   28.055200   70.219900
  H      9.453570   27.757500   69.312700
  H      9.107330   27.140400   70.829000
  C      9.792410   29.230800   70.768100
  H      9.601160   30.229500   70.402300
  H     10.774000   28.973900   70.457400
  H      9.882400   29.187700   71.882700
  H      3.254550   23.824400   69.292400
  H      6.006410   29.550300   74.568300

 Total Charge           Charge          ....    0
 Multiplicity           Mult            ....    1
 Number of Electrons    NEL             ....  134
 Basis Dimension        Dim             ....  322

ORBITAL ENERGIES
----------------

  NO   OCC          E(Eh)            E(eV)
   0   2.0000     -88.966085     -2420.8902
   1   2.0000     -88.963010     -2420.8066
   2   2.0000     -10.329299      -281.0745
   3   2.0000     -10.325163      -280.9620
   4   2.0000     -10.324731      -280.9502
   5   2.0000     -10.312479      -280.6168
   6   2.0000     -10.308381      -280.5053
   7   2.0000     -10.298142      -280.2267
   8   2.0000     -10.297275      -280.2031
   9   2.0000     -10.297133      -280.1992
  10   2.0000     -10.291509      -280.0462
  11   2.0000     -10.290145      -280.0091
  12   2.0000     -10.285598      -279.8854
  13   2.0000     -10.283747      -279.8350
  14   2.0000     -10.278303      -279.6868
  15   2.0000     -10.276490      -279.6375
  16   2.0000      -8.080358      -219.8777
  17   2.0000      -8.077188      -219.7915
  18   2.0000      -6.038968      -164.3287
  19   2.0000      -6.035756      -164.2413
  20   2.0000      -6.035077      -164.2228
  21   2.0000      -6.032071      -164.1410
  22   2.0000      -6.030882      -164.1086
  23   2.0000      -6.027611      -164.0196
  24   2.0000      -1.003574       -27.3086
  25   2.0000      -0.978510       -26.6266
  26   2.0000      -0.918422       -24.9915
  27   2.0000      -0.913815       -24.8662
  28   2.0000      -0.872236       -23.7348
  29   2.0000      -0.851444       -23.1690
  30   2.0000      -0.843130       -22.9427
  31   2.0000      -0.812722       -22.1153
  32   2.0000      -0.787135       -21.4190
  33   2.0000      -0.774134       -21.0652
  34   2.0000      -0.712179       -19.3794
  35   2.0000      -0.697612       -18.9830
  36   2.0000      -0.690168       -18.7804
  37   2.0000      -0.668720       -18.1968
  38   2.0000      -0.635692       -17.2980
  39   2.0000      -0.613119       -16.6838
  40   2.0000      -0.599032       -16.3005
  41   2.0000      -0.574508       -15.6332
  42   2.0000      -0.560856       -15.2617
  43   2.0000      -0.551449       -15.0057
  44   2.0000      -0.544563       -14.8183
  45   2.0000      -0.538907       -14.6644
  46   2.0000      -0.521382       -14.1875
  47   2.0000      -0.503533       -13.7018
  48   2.0000      -0.501279       -13.6405
  49   2.0000      -0.493406       -13.4263
  50   2.0000      -0.488986       -13.3060
  51   2.0000      -0.482701       -13.1350
  52   2.0000      -0.478877       -13.0309
  53   2.0000      -0.467277       -12.7152
  54   2.0000      -0.455653       -12.3989
  55   2.0000      -0.452849       -12.3227
  56   2.0000      -0.444409       -12.0930
  57   2.0000      -0.442119       -12.0307
  58   2.0000      -0.436229       -11.8704
  59   2.0000      -0.421548       -11.4709
  60   2.0000      -0.416060       -11.3216
  61   2.0000      -0.411785       -11.2052
  62   2.0000      -0.410672       -11.1749
  63   2.0000      -0.349763        -9.5175
  64   2.0000      -0.330035        -8.9807
  65   2.0000      -0.328053        -8.9268
  66   2.0000      -0.287708        -7.8289
  67   0.0000       0.020833         0.5669
  68   0.0000       0.069136         1.8813
  69   0.0000       0.096601         2.6287
  70   0.0000       0.120166         3.2699
  71   0.0000       0.131383         3.5751

MULLIKEN ATOMIC CHARGES
-----------------------
   0 S :    0.093510
   1 C :   -0.131260
   2 C :   -0.107992
   3 C :    0.027210
   4 C :   -0.165866
   5 H :    0.013358
   6 C :    0.126880
   7 H :    0.003864
   8 H :    0.014839
   9 C :   -0.077860
  10 H :    0.020373
  11 H :    0.024658
  12 C :   -0.046902
  13 H :    0.029150
  14 H :    0.050245
  15 H :    0.024089
  16 S :    0.090643
  17 C :   -0.089501
  18 C :   -0.001940
  19 C :   -0.031781
  20 C :   -0.140681
  21 H :   -0.003041
  22 C :    0.057864
  23 H :    0.041226
  24 H :    0.031030
  25 C :   -0.085013
  26 H :    0.028541
  27 H :    0.032488
  28 C :   -0.062357
  29 H :    0.037418
  30 H :    0.011608
  31 H :    0.042729
  32 H :    0.074233
  33 H :    0.068234
Sum of atomic charges:   -0.0000000

LOEWDIN ATOMIC CHARGES
----------------------
   0 S :    0.369693
   1 C :   -0.206974
   2 C :   -0.066832
   3 C :   -0.059999
   4 C :   -0.179863
   5 H :    0.032696
   6 C :   -0.018161
   7 H :    0.019143
   8 H :    0.031474
   9 C :   -0.040674
  10 H :    0.021153
  11 H :    0.022672
  12 C :   -0.066552
  13 H :    0.023365
  14 H :    0.031687
  15 H :    0.025585
  16 S :    0.384818
  17 C :   -0.172782
  18 C :   -0.055939
  19 C :   -0.046113
  20 C :   -0.190695
  21 H :    0.020420
  22 C :   -0.040039
  23 H :    0.041494
  24 H :    0.032374
  25 C :   -0.043933
  26 H :    0.024899
  27 H :    0.027628
  28 C :   -0.069708
  29 H :    0.022857
  30 H :    0.020589
  31 H :    0.029890
  32 H :    0.041552
  33 H :    0.034274

  Mayer bond orders larger than 0.100000
B(  0-S ,  1-C ) :   1.1131 B(  0-S ,  4-C ) :   1.1245 B(  1-C ,  2-C ) :   1.6651
B(  1-C , 32-H ) :   0.9453 B(  2-C ,  3-C ) :   1.2049 B(  2-C ,  6-C ) :   1.0230
B(  3-C ,  4-C ) :   1.5746 B(  3-C ,  5-H ) :   0.9948 B(  4-C , 20-C ) :   1.0804
B(  6-C ,  7-H ) :   0.9355 B(  6-C ,  8-H ) :   0.9380 B(  6-C ,  9-C ) :   1.0758
B(  9-C , 10-H ) :   0.9535 B(  9-C , 11-H ) :   0.9538 B(  9-C , 12-C ) :   1.0830
B( 12-C , 13-H ) :   0.9701 B( 12-C , 14-H ) :   0.9713 B( 12-C , 15-H ) :   0.9708
B( 16-S , 17-C ) :   1.1278 B( 16-S , 20-C ) :   1.1352 B( 17-C , 18-C ) :   1.6294
B( 17-C , 33-H ) :   0.9650 B( 18-C , 19-C ) :   1.2069 B( 18-C , 21-H ) :   0.9922
B( 19-C , 20-C ) :   1.5981 B( 19-C , 22-C ) :   1.0585 B( 22-C , 23-H ) :   0.9436
B( 22-C , 24-H ) :   0.9290 B( 22-C , 25-C ) :   1.0511 B( 25-C , 26-H ) :   0.9647
B( 25-C , 27-H ) :   0.9489 B( 25-C , 28-C ) :   1.0778 B( 28-C , 29-H ) :   0.9761
B( 28-C , 30-H ) :   0.9713 B( 28-C , 31-H ) :   0.9722

Dispersion correction           -0.014765899
FINAL SINGLE POINT ENERGY     -1339.866226994756

DIPOLE MOMENT
-------------
                                X             Y             Z
Electronic contribution:    -18.94732       9.85897      11.17757
Nuclear contribution   :     19.75965     -10.08353     -11.38794
                        -----------------------------------------
Total Dipole Moment    :      0.81233      -0.22457      -0.21038
                        -----------------------------------------
Magnitude (a.u.)       :      0.86866
Magnitude (Debye)      :      2.20795

Rotational constants in cm-1:     0.020585     0.008441     0.006666
Rotational constants in MHz :   617.117809   253.059856   199.828829

                             ****ORCA TERMINATED NORMALLY****
TOTAL RUN TIME: 0 days 0 hours 0 minutes 36 seconds 315 msec
