                         Program Version 4.2.1 -  RELEASE  -
|  1> ! wB97X-D3 SP def2-SVP
|  2> %pal
|  3> nprocs 16
|  4> end
|  5>
|  6> * xyz 0 1
|  7> S 	 -107.211 	 53.1882 	 117.539
|  8> C 	 -108.204 	 54.6113 	 117.715
|  9> C 	 -107.475 	 55.774 	 117.796
| 10> C 	 -106.056 	 55.5378 	 117.855
| 11> C 	 -105.754 	 54.2071 	 117.613
| 12> H 	 -105.347 	 56.2385 	 117.943
| 13> C 	 -108.104 	 57.1492 	 117.81
| 14> H 	 -107.581 	 57.6596 	 118.594
| 15> H 	 -109.058 	 57.0299 	 118.244
| 16> C 	 -108.292 	 57.9605 	 116.504
| 17> H 	 -108.907 	 57.4238 	 115.797
| 18> H 	 -108.767 	 58.9089 	 116.765
| 19> C 	 -106.91 	 58.3677 	 115.992
| 20> H 	 -106.921 	 58.833 	 115.031
| 21> H 	 -106.498 	 59.1311 	 116.607
| 22> H 	 -106.208 	 57.483 	 115.978
| 23> S 	 -104.141 	 52.1101 	 118.494
| 24> C 	 -102.442 	 52.22 	 118.211
| 25> C 	 -102.244 	 53.1787 	 117.237
| 26> C 	 -103.336 	 53.9284 	 116.86
| 27> C 	 -104.456 	 53.5824 	 117.619
| 28> H 	 -101.197 	 53.2759 	 116.84
| 29> C 	 -103.433 	 54.8897 	 115.676
| 30> H 	 -103.2 	 55.9213 	 116.075
| 31> H 	 -104.484 	 55.0042 	 115.35
| 32> C 	 -102.429 	 54.7565 	 114.466
| 33> H 	 -101.404 	 54.5102 	 114.723
| 34> H 	 -102.441 	 55.7461 	 113.956
| 35> C 	 -102.837 	 53.6163 	 113.494
| 36> H 	 -103.934 	 53.5149 	 113.408
| 37> H 	 -102.478 	 52.6787 	 113.997
| 38> H 	 -102.331 	 53.6392 	 112.526
| 39> H 	 -109.311 	 54.6364 	 117.71
| 40> H 	 -101.719 	 51.5448 	 118.595
| 41> *
| 42>
| 43>                          ****END OF INPUT****

CARTESIAN COORDINATES (ANGSTROEM)
---------------------------------
  S    -107.211000   53.188200  117.539000
  C    -108.204000   54.611300  117.715000
  C    -107.475000   55.774000  117.796000
  C    -106.056000   55.537800  117.855000
  C    -105.754000   54.207100  117.613000
  H    -105.347000   56.238500  117.943000
  C    -108.104000   57.149200  117.810000
  H    -107.581000   57.659600  118.594000
  H    -109.058000   57.029900  118.244000
  C    -108.292000   57.960500  116.504000
  H    -108.907000   57.423800  115.797000
  H    -108.767000   58.908900  116.765000
  C    -106.910000   58.367700  115.992000
  H    -106.921000   58.833000  115.031000
  H    -106.498000   59.131100  116.607000
  H    -106.208000   57.483000  115.978000
  S    -104.141000   52.110100  118.494000
  C    -102.442000   52.220000  118.211000
  C    -102.244000   53.178700  117.237000
  C    -103.336000   53.928400  116.860000
  C    -104.456000   53.582400  117.619000
  H    -101.197000   53.275900  116.840000
  C    -103.433000   54.889700  115.676000
  H    -103.200000   55.921300  116.075000
  H    -104.484000   55.004200  115.350000
  C    -102.429000   54.756500  114.466000
  H    -101.404000   54.510200  114.723000
  H    -102.441000   55.746100  113.956000
  C    -102.837000   53.616300  113.494000
  H    -103.934000   53.514900  113.408000
  H    -102.478000   52.678700  113.997000
  H    -102.331000   53.639200  112.526000
  H    -109.311000   54.636400  117.710000
  H    -101.719000   51.544800  118.595000

 Total Charge           Charge          ....    0
 Multiplicity           Mult            ....    1
 Number of Electrons    NEL             ....  134
 Basis Dimension        Dim             ....  322

ORBITAL ENERGIES
----------------

  NO   OCC          E(Eh)            E(eV)
   0   2.0000     -88.967273     -2420.9226
   1   2.0000     -88.965242     -2420.8673
   2   2.0000     -10.330713      -281.1130
   3   2.0000     -10.321777      -280.8698
   4   2.0000     -10.313462      -280.6436
   5   2.0000     -10.313421      -280.6425
   6   2.0000     -10.300895      -280.3016
   7   2.0000     -10.300395      -280.2880
   8   2.0000     -10.299046      -280.2513
   9   2.0000     -10.293956      -280.1128
  10   2.0000     -10.292674      -280.0779
  11   2.0000     -10.289497      -279.9914
  12   2.0000     -10.289473      -279.9908
  13   2.0000     -10.284560      -279.8571
  14   2.0000     -10.278344      -279.6880
  15   2.0000     -10.274205      -279.5753
  16   2.0000      -8.081673      -219.9135
  17   2.0000      -8.080488      -219.8812
  18   2.0000      -6.040217      -164.3627
  19   2.0000      -6.038840      -164.3252
  20   2.0000      -6.036343      -164.2573
  21   2.0000      -6.034984      -164.2203
  22   2.0000      -6.032317      -164.1477
  23   2.0000      -6.031323      -164.1206
  24   2.0000      -1.011220       -27.5167
  25   2.0000      -0.986285       -26.8382
  26   2.0000      -0.912486       -24.8300
  27   2.0000      -0.901069       -24.5193
  28   2.0000      -0.871204       -23.7067
  29   2.0000      -0.852767       -23.2050
  30   2.0000      -0.845026       -22.9943
  31   2.0000      -0.817389       -22.2423
  32   2.0000      -0.782379       -21.2896
  33   2.0000      -0.770188       -20.9579
  34   2.0000      -0.707238       -19.2449
  35   2.0000      -0.704755       -19.1773
  36   2.0000      -0.697293       -18.9743
  37   2.0000      -0.654643       -17.8137
  38   2.0000      -0.639940       -17.4136
  39   2.0000      -0.619923       -16.8690
  40   2.0000      -0.602347       -16.3907
  41   2.0000      -0.573166       -15.5966
  42   2.0000      -0.550761       -14.9870
  43   2.0000      -0.544728       -14.8228
  44   2.0000      -0.540962       -14.7203
  45   2.0000      -0.535094       -14.5606
  46   2.0000      -0.525012       -14.2863
  47   2.0000      -0.515378       -14.0241
  48   2.0000      -0.504697       -13.7335
  49   2.0000      -0.491855       -13.3841
  50   2.0000      -0.486286       -13.2325
  51   2.0000      -0.477935       -13.0053
  52   2.0000      -0.473615       -12.8877
  53   2.0000      -0.468007       -12.7351
  54   2.0000      -0.461153       -12.5486
  55   2.0000      -0.446594       -12.1524
  56   2.0000      -0.438727       -11.9384
  57   2.0000      -0.438173       -11.9233
  58   2.0000      -0.432214       -11.7611
  59   2.0000      -0.424194       -11.5429
  60   2.0000      -0.422437       -11.4951
  61   2.0000      -0.419591       -11.4177
  62   2.0000      -0.414158       -11.2698
  63   2.0000      -0.348832        -9.4922
  64   2.0000      -0.332082        -9.0364
  65   2.0000      -0.328143        -8.9292
  66   2.0000      -0.285958        -7.7813
  67   0.0000       0.023854         0.6491
  68   0.0000       0.069443         1.8896
  69   0.0000       0.105329         2.8661
  70   0.0000       0.123929         3.3723
  71   0.0000       0.136018         3.7012

MULLIKEN ATOMIC CHARGES
-----------------------
   0 S :    0.105327
   1 C :   -0.116379
   2 C :   -0.118554
   3 C :    0.089185
   4 C :   -0.166293
   5 H :   -0.037271
   6 C :    0.078971
   7 H :    0.014441
   8 H :   -0.001573
   9 C :   -0.016552
  10 H :    0.032755
  11 H :    0.030622
  12 C :   -0.061579
  13 H :    0.024613
  14 H :    0.017647
  15 H :    0.040815
  16 S :    0.117237
  17 C :   -0.086615
  18 C :   -0.076671
  19 C :    0.016924
  20 C :   -0.167750
  21 H :    0.030275
  22 C :    0.019092
  23 H :    0.039545
  24 H :    0.051582
  25 C :   -0.070792
  26 H :    0.031530
  27 H :    0.037723
  28 C :   -0.072377
  29 H :    0.039096
  30 H :    0.032835
  31 H :    0.041755
  32 H :    0.052530
  33 H :    0.047906
Sum of atomic charges:    0.0000000

LOEWDIN ATOMIC CHARGES
----------------------
   0 S :    0.390734
   1 C :   -0.201097
   2 C :   -0.062465
   3 C :   -0.041448
   4 C :   -0.173694
   5 H :    0.009702
   6 C :   -0.032298
   7 H :    0.029263
   8 H :    0.023689
   9 C :   -0.028357
  10 H :    0.023209
  11 H :    0.028838
  12 C :   -0.068647
  13 H :    0.020735
  14 H :    0.020696
  15 H :    0.029599
  16 S :    0.422931
  17 C :   -0.190159
  18 C :   -0.081850
  19 C :   -0.063613
  20 C :   -0.207753
  21 H :    0.037196
  22 C :   -0.035620
  23 H :    0.037681
  24 H :    0.035678
  25 C :   -0.040389
  26 H :    0.022414
  27 H :    0.028324
  28 C :   -0.073924
  29 H :    0.025605
  30 H :    0.030001
  31 H :    0.025195
  32 H :    0.034050
  33 H :    0.025775

  Mayer bond orders larger than 0.100000
B(  0-S ,  1-C ) :   1.1253 B(  0-S ,  4-C ) :   1.1367 B(  1-C ,  2-C ) :   1.6446
B(  1-C , 32-H ) :   0.9588 B(  2-C ,  3-C ) :   1.2146 B(  2-C ,  6-C ) :   1.0219
B(  3-C ,  4-C ) :   1.5727 B(  3-C ,  5-H ) :   1.0105 B(  4-C , 20-C ) :   1.0738
B(  6-C ,  7-H ) :   0.9362 B(  6-C ,  8-H ) :   0.9293 B(  6-C ,  9-C ) :   1.0684
B(  9-C , 10-H ) :   0.9570 B(  9-C , 11-H ) :   0.9519 B(  9-C , 12-C ) :   1.0767
B( 12-C , 13-H ) :   0.9712 B( 12-C , 14-H ) :   0.9739 B( 12-C , 15-H ) :   0.9751
B( 16-S , 17-C ) :   1.1705 B( 16-S , 20-C ) :   1.1601 B( 17-C , 18-C ) :   1.5576
B( 17-C , 20-C ) :   0.1154 B( 17-C , 33-H ) :   0.9764 B( 18-C , 19-C ) :   1.2988
B( 18-C , 21-H ) :   0.9799 B( 19-C , 20-C ) :   1.5220 B( 19-C , 22-C ) :   1.0283
B( 22-C , 23-H ) :   0.9296 B( 22-C , 24-H ) :   0.9374 B( 22-C , 25-C ) :   1.0699
B( 25-C , 26-H ) :   0.9578 B( 25-C , 27-H ) :   0.9572 B( 25-C , 28-C ) :   1.0642
B( 28-C , 29-H ) :   0.9787 B( 28-C , 30-H ) :   0.9779 B( 28-C , 31-H ) :   0.9758

Dispersion correction           -0.014775760
FINAL SINGLE POINT ENERGY     -1339.873011764700

DIPOLE MOMENT
-------------
                                X             Y             Z
Electronic contribution:     -2.84877     -21.33995      17.15783
Nuclear contribution   :      2.98933      21.91611     -17.44166
                        -----------------------------------------
Total Dipole Moment    :      0.14056       0.57616      -0.28383
                        -----------------------------------------
Magnitude (a.u.)       :      0.65748
Magnitude (Debye)      :      1.67117

Rotational constants in cm-1:     0.018307     0.009298     0.007052
Rotational constants in MHz :   548.833004   278.745301   211.414177

                             ****ORCA TERMINATED NORMALLY****
TOTAL RUN TIME: 0 days 0 hours 0 minutes 32 seconds 254 msec
