                         Program Version 4.2.1 -  RELEASE  -
|  1> ! wB97X-D3 SP def2-SVP
|  2> %pal
|  3> nprocs 16
|  4> end
|  5>
|  6> * xyz 0 1
|  7> S 	 16.2757 	 32.7684 	 56.3085
|  8> C 	 15.5605 	 31.3951 	 57.136
|  9> C 	 14.655 	 31.8398 	 58.0645
| 10> C 	 14.5048 	 33.2969 	 58.1049
| 11> C 	 15.3341 	 33.9539 	 57.2259
| 12> H 	 13.8952 	 33.905 	 58.706
| 13> C 	 13.8242 	 31.0161 	 58.9942
| 14> H 	 13.5968 	 31.5337 	 59.9513
| 15> H 	 14.4048 	 30.151 	 59.2845
| 16> C 	 12.5035 	 30.4273 	 58.4387
| 17> H 	 11.9442 	 31.2765 	 57.9982
| 18> H 	 12.6629 	 29.6988 	 57.647
| 19> C 	 11.7087 	 29.7081 	 59.559
| 20> H 	 11.4657 	 30.2351 	 60.4603
| 21> H 	 10.7528 	 29.3581 	 59.2099
| 22> H 	 12.3715 	 28.904 	 59.9306
| 23> S 	 15.1505 	 35.9088 	 55.3409
| 24> C 	 15.7047 	 37.5372 	 55.7594
| 25> C 	 15.7673 	 37.7138 	 57.1277
| 26> C 	 15.7577 	 36.44 	 57.846
| 27> C 	 15.5114 	 35.3584 	 56.9933
| 28> H 	 15.9758 	 38.6574 	 57.5736
| 29> C 	 15.9289 	 36.4152 	 59.3699
| 30> H 	 16.3211 	 35.3919 	 59.5214
| 31> H 	 14.9895 	 36.4847 	 59.8559
| 32> C 	 16.7483 	 37.6117 	 60.0062
| 33> H 	 16.7048 	 37.3868 	 61.0523
| 34> H 	 16.1475 	 38.5588 	 59.8348
| 35> C 	 18.1298 	 37.79 	 59.3467
| 36> H 	 18.4572 	 36.91 	 58.8014
| 37> H 	 18.8594 	 38.0243 	 60.0963
| 38> H 	 18.0231 	 38.5937 	 58.6059
| 39> H 	 15.7815 	 30.3417 	 56.92
| 40> H 	 15.7549 	 38.3267 	 55.0449
| 41> *
| 42>
| 43>                          ****END OF INPUT****

CARTESIAN COORDINATES (ANGSTROEM)
---------------------------------
  S     16.275700   32.768400   56.308500
  C     15.560500   31.395100   57.136000
  C     14.655000   31.839800   58.064500
  C     14.504800   33.296900   58.104900
  C     15.334100   33.953900   57.225900
  H     13.895200   33.905000   58.706000
  C     13.824200   31.016100   58.994200
  H     13.596800   31.533700   59.951300
  H     14.404800   30.151000   59.284500
  C     12.503500   30.427300   58.438700
  H     11.944200   31.276500   57.998200
  H     12.662900   29.698800   57.647000
  C     11.708700   29.708100   59.559000
  H     11.465700   30.235100   60.460300
  H     10.752800   29.358100   59.209900
  H     12.371500   28.904000   59.930600
  S     15.150500   35.908800   55.340900
  C     15.704700   37.537200   55.759400
  C     15.767300   37.713800   57.127700
  C     15.757700   36.440000   57.846000
  C     15.511400   35.358400   56.993300
  H     15.975800   38.657400   57.573600
  C     15.928900   36.415200   59.369900
  H     16.321100   35.391900   59.521400
  H     14.989500   36.484700   59.855900
  C     16.748300   37.611700   60.006200
  H     16.704800   37.386800   61.052300
  H     16.147500   38.558800   59.834800
  C     18.129800   37.790000   59.346700
  H     18.457200   36.910000   58.801400
  H     18.859400   38.024300   60.096300
  H     18.023100   38.593700   58.605900
  H     15.781500   30.341700   56.920000
  H     15.754900   38.326700   55.044900

 Total Charge           Charge          ....    0
 Multiplicity           Mult            ....    1
 Number of Electrons    NEL             ....  134
 Basis Dimension        Dim             ....  322

ORBITAL ENERGIES
----------------

  NO   OCC          E(Eh)            E(eV)
   0   2.0000     -88.963108     -2420.8092
   1   2.0000     -88.961519     -2420.7660
   2   2.0000     -10.327680      -281.0305
   3   2.0000     -10.327292      -281.0199
   4   2.0000     -10.318774      -280.7881
   5   2.0000     -10.317908      -280.7646
   6   2.0000     -10.309630      -280.5393
   7   2.0000     -10.303630      -280.3760
   8   2.0000     -10.295605      -280.1577
   9   2.0000     -10.294980      -280.1407
  10   2.0000     -10.293581      -280.1026
  11   2.0000     -10.293344      -280.0961
  12   2.0000     -10.290235      -280.0115
  13   2.0000     -10.289726      -279.9977
  14   2.0000     -10.277905      -279.6760
  15   2.0000     -10.275552      -279.6120
  16   2.0000      -8.077377      -219.7966
  17   2.0000      -8.076128      -219.7626
  18   2.0000      -6.036021      -164.2485
  19   2.0000      -6.034829      -164.2160
  20   2.0000      -6.032105      -164.1419
  21   2.0000      -6.030519      -164.0988
  22   2.0000      -6.027864      -164.0265
  23   2.0000      -6.026804      -163.9977
  24   2.0000      -1.002052       -27.2672
  25   2.0000      -0.977891       -26.6098
  26   2.0000      -0.909516       -24.7492
  27   2.0000      -0.903594       -24.5881
  28   2.0000      -0.871936       -23.7266
  29   2.0000      -0.846404       -23.0318
  30   2.0000      -0.839542       -22.8451
  31   2.0000      -0.816679       -22.2230
  32   2.0000      -0.783138       -21.3103
  33   2.0000      -0.770479       -20.9658
  34   2.0000      -0.708426       -19.2773
  35   2.0000      -0.701637       -19.0925
  36   2.0000      -0.695040       -18.9130
  37   2.0000      -0.660253       -17.9664
  38   2.0000      -0.647634       -17.6230
  39   2.0000      -0.615490       -16.7483
  40   2.0000      -0.594262       -16.1707
  41   2.0000      -0.568640       -15.4735
  42   2.0000      -0.559334       -15.2202
  43   2.0000      -0.549871       -14.9628
  44   2.0000      -0.539211       -14.6727
  45   2.0000      -0.527084       -14.3427
  46   2.0000      -0.517476       -14.0812
  47   2.0000      -0.516326       -14.0499
  48   2.0000      -0.511112       -13.9081
  49   2.0000      -0.500957       -13.6317
  50   2.0000      -0.495548       -13.4845
  51   2.0000      -0.473112       -12.8740
  52   2.0000      -0.468349       -12.7444
  53   2.0000      -0.459090       -12.4925
  54   2.0000      -0.452839       -12.3224
  55   2.0000      -0.451231       -12.2786
  56   2.0000      -0.447400       -12.1744
  57   2.0000      -0.437085       -11.8937
  58   2.0000      -0.432703       -11.7744
  59   2.0000      -0.420525       -11.4431
  60   2.0000      -0.418755       -11.3949
  61   2.0000      -0.416092       -11.3224
  62   2.0000      -0.414600       -11.2818
  63   2.0000      -0.342799        -9.3280
  64   2.0000      -0.328131        -8.9289
  65   2.0000      -0.323514        -8.8033
  66   2.0000      -0.298028        -8.1097
  67   0.0000       0.028197         0.7673
  68   0.0000       0.068263         1.8575
  69   0.0000       0.103346         2.8122
  70   0.0000       0.118585         3.2269
  71   0.0000       0.133935         3.6446

MULLIKEN ATOMIC CHARGES
-----------------------
   0 S :    0.100342
   1 C :   -0.118093
   2 C :   -0.066909
   3 C :    0.064063
   4 C :   -0.174319
   5 H :   -0.010239
   6 C :    0.037796
   7 H :    0.028550
   8 H :    0.012606
   9 C :   -0.065622
  10 H :    0.031013
  11 H :    0.031423
  12 C :   -0.040300
  13 H :    0.020557
  14 H :    0.033764
  15 H :    0.026047
  16 S :    0.098123
  17 C :   -0.073552
  18 C :   -0.025633
  19 C :   -0.045910
  20 C :   -0.162892
  21 H :    0.010734
  22 C :    0.061948
  23 H :    0.042805
  24 H :    0.032980
  25 C :   -0.115219
  26 H :    0.034822
  27 H :    0.040948
  28 C :   -0.026188
  29 H :    0.044836
  30 H :    0.036305
  31 H :    0.029423
  32 H :    0.057472
  33 H :    0.048319
Sum of atomic charges:    0.0000000

LOEWDIN ATOMIC CHARGES
----------------------
   0 S :    0.391650
   1 C :   -0.192595
   2 C :   -0.064815
   3 C :   -0.051243
   4 C :   -0.192412
   5 H :    0.024138
   6 C :   -0.040043
   7 H :    0.033934
   8 H :    0.026205
   9 C :   -0.035586
  10 H :    0.023605
  11 H :    0.024025
  12 C :   -0.067473
  13 H :    0.020071
  14 H :    0.025042
  15 H :    0.028439
  16 S :    0.383660
  17 C :   -0.164818
  18 C :   -0.065371
  19 C :   -0.047414
  20 C :   -0.199013
  21 H :    0.024075
  22 C :   -0.033222
  23 H :    0.035535
  24 H :    0.027468
  25 C :   -0.041162
  26 H :    0.022914
  27 H :    0.028437
  28 C :   -0.065234
  29 H :    0.029817
  30 H :    0.025449
  31 H :    0.027367
  32 H :    0.036770
  33 H :    0.021794

  Mayer bond orders larger than 0.100000
B(  0-S ,  1-C ) :   1.1259 B(  0-S ,  4-C ) :   1.1382 B(  1-C ,  2-C ) :   1.6288
B(  1-C , 32-H ) :   0.9695 B(  2-C ,  3-C ) :   1.1929 B(  2-C ,  6-C ) :   1.0355
B(  3-C ,  4-C ) :   1.5971 B(  3-C ,  5-H ) :   1.0078 B(  4-C , 20-C ) :   1.0447
B(  6-C ,  7-H ) :   0.9468 B(  6-C ,  8-H ) :   0.9336 B(  6-C ,  9-C ) :   1.0600
B(  9-C , 10-H ) :   0.9576 B(  9-C , 11-H ) :   0.9559 B(  9-C , 12-C ) :   1.0747
B( 12-C , 13-H ) :   0.9764 B( 12-C , 14-H ) :   0.9745 B( 12-C , 15-H ) :   0.9730
B( 16-S , 17-C ) :   1.1410 B( 16-S , 20-C ) :   1.1324 B( 17-C , 18-C ) :   1.6295
B( 17-C , 33-H ) :   0.9698 B( 18-C , 19-C ) :   1.2090 B( 18-C , 21-H ) :   0.9857
B( 19-C , 20-C ) :   1.6138 B( 19-C , 22-C ) :   1.0307 B( 22-C , 23-H ) :   0.9345
B( 22-C , 24-H ) :   0.9328 B( 22-C , 25-C ) :   1.0749 B( 25-C , 26-H ) :   0.9595
B( 25-C , 27-H ) :   0.9553 B( 25-C , 28-C ) :   1.0574 B( 28-C , 29-H ) :   0.9813
B( 28-C , 30-H ) :   0.9761 B( 28-C , 31-H ) :   0.9726

Dispersion correction           -0.013895523
FINAL SINGLE POINT ENERGY     -1339.877827171518

DIPOLE MOMENT
-------------
                                X             Y             Z
Electronic contribution:      5.85485       3.69545     -21.59945
Nuclear contribution   :     -6.08332      -3.60091      22.26477
                        -----------------------------------------
Total Dipole Moment    :     -0.22847       0.09454       0.66531
                        -----------------------------------------
Magnitude (a.u.)       :      0.70977
Magnitude (Debye)      :      1.80410

Rotational constants in cm-1:     0.021706     0.007027     0.006201
Rotational constants in MHz :   650.731321   210.665090   185.887759

                             ****ORCA TERMINATED NORMALLY****
TOTAL RUN TIME: 0 days 0 hours 0 minutes 33 seconds 573 msec
