                         Program Version 4.2.1 -  RELEASE  -
|  1> ! wB97X-D3 SP def2-SVP
|  2> %pal
|  3> nprocs 16
|  4> end
|  5>
|  6> * xyz 0 1
|  7> S 	 64.1089 	 19.5521 	 74.622
|  8> C 	 65.4908 	 18.4466 	 74.5867
|  9> C 	 66.5929 	 18.9331 	 75.234
| 10> C 	 66.3884 	 20.1958 	 75.7562
| 11> C 	 65.1163 	 20.6699 	 75.5223
| 12> H 	 66.9876 	 20.7874 	 76.4178
| 13> C 	 67.9167 	 18.1338 	 75.204
| 14> H 	 67.602 	 17.085 	 75.0283
| 15> H 	 68.4125 	 18.1299 	 76.1738
| 16> C 	 69.0083 	 18.6482 	 74.2271
| 17> H 	 68.6891 	 18.7165 	 73.2018
| 18> H 	 69.3466 	 19.6936 	 74.4058
| 19> C 	 70.2795 	 17.8326 	 74.2345
| 20> H 	 70.8098 	 17.833 	 75.1698
| 21> H 	 70.1111 	 16.7777 	 73.9889
| 22> H 	 70.9702 	 18.3263 	 73.4751
| 23> S 	 63.7977 	 23.018 	 75.0148
| 24> C 	 63.9867 	 24.3623 	 76.1195
| 25> C 	 64.3429 	 23.8698 	 77.3935
| 26> C 	 64.6696 	 22.4698 	 77.4036
| 27> C 	 64.6157 	 21.9271 	 76.1059
| 28> H 	 64.6204 	 24.6339 	 78.2062
| 29> C 	 65.0917 	 21.7067 	 78.6519
| 30> H 	 65.6969 	 22.4717 	 79.2241
| 31> H 	 65.8249 	 20.9295 	 78.3587
| 32> C 	 63.9164 	 21.2049 	 79.5029
| 33> H 	 63.0872 	 21.9238 	 79.6216
| 34> H 	 64.4391 	 20.8226 	 80.4052
| 35> C 	 63.1707 	 20.0248 	 78.7734
| 36> H 	 62.8211 	 20.27 	 77.7072
| 37> H 	 62.2572 	 19.746 	 79.2565
| 38> H 	 63.785 	 19.0846 	 78.6578
| 39> H 	 65.4484 	 17.5448 	 74.1026
| 40> H 	 63.8293 	 25.4255 	 75.8735
| 41> *
| 42>
| 43>                          ****END OF INPUT****

CARTESIAN COORDINATES (ANGSTROEM)
---------------------------------
  S     64.108900   19.552100   74.622000
  C     65.490800   18.446600   74.586700
  C     66.592900   18.933100   75.234000
  C     66.388400   20.195800   75.756200
  C     65.116300   20.669900   75.522300
  H     66.987600   20.787400   76.417800
  C     67.916700   18.133800   75.204000
  H     67.602000   17.085000   75.028300
  H     68.412500   18.129900   76.173800
  C     69.008300   18.648200   74.227100
  H     68.689100   18.716500   73.201800
  H     69.346600   19.693600   74.405800
  C     70.279500   17.832600   74.234500
  H     70.809800   17.833000   75.169800
  H     70.111100   16.777700   73.988900
  H     70.970200   18.326300   73.475100
  S     63.797700   23.018000   75.014800
  C     63.986700   24.362300   76.119500
  C     64.342900   23.869800   77.393500
  C     64.669600   22.469800   77.403600
  C     64.615700   21.927100   76.105900
  H     64.620400   24.633900   78.206200
  C     65.091700   21.706700   78.651900
  H     65.696900   22.471700   79.224100
  H     65.824900   20.929500   78.358700
  C     63.916400   21.204900   79.502900
  H     63.087200   21.923800   79.621600
  H     64.439100   20.822600   80.405200
  C     63.170700   20.024800   78.773400
  H     62.821100   20.270000   77.707200
  H     62.257200   19.746000   79.256500
  H     63.785000   19.084600   78.657800
  H     65.448400   17.544800   74.102600
  H     63.829300   25.425500   75.873500

 Total Charge           Charge          ....    0
 Multiplicity           Mult            ....    1
 Number of Electrons    NEL             ....  134
 Basis Dimension        Dim             ....  322

ORBITAL ENERGIES
----------------

  NO   OCC          E(Eh)            E(eV)
   0   2.0000     -88.970003     -2420.9969
   1   2.0000     -88.963058     -2420.8079
   2   2.0000     -10.329458      -281.0788
   3   2.0000     -10.327152      -281.0161
   4   2.0000     -10.322604      -280.8923
   5   2.0000     -10.307604      -280.4842
   6   2.0000     -10.307170      -280.4724
   7   2.0000     -10.304091      -280.3886
   8   2.0000     -10.299475      -280.2630
   9   2.0000     -10.299266      -280.2573
  10   2.0000     -10.298243      -280.2294
  11   2.0000     -10.295232      -280.1475
  12   2.0000     -10.289074      -279.9799
  13   2.0000     -10.287220      -279.9295
  14   2.0000     -10.280371      -279.7431
  15   2.0000     -10.277903      -279.6760
  16   2.0000      -8.084284      -219.9846
  17   2.0000      -8.078119      -219.8168
  18   2.0000      -6.042689      -164.4299
  19   2.0000      -6.038975      -164.3289
  20   2.0000      -6.036607      -164.2644
  21   2.0000      -6.035080      -164.2229
  22   2.0000      -6.032555      -164.1542
  23   2.0000      -6.028918      -164.0552
  24   2.0000      -1.007337       -27.4110
  25   2.0000      -0.983703       -26.7679
  26   2.0000      -0.908144       -24.7119
  27   2.0000      -0.903647       -24.5895
  28   2.0000      -0.867790       -23.6138
  29   2.0000      -0.854368       -23.2485
  30   2.0000      -0.839687       -22.8491
  31   2.0000      -0.812632       -22.1128
  32   2.0000      -0.778887       -21.1946
  33   2.0000      -0.768231       -20.9046
  34   2.0000      -0.704663       -19.1749
  35   2.0000      -0.696772       -18.9601
  36   2.0000      -0.690786       -18.7972
  37   2.0000      -0.655809       -17.8455
  38   2.0000      -0.646511       -17.5925
  39   2.0000      -0.618908       -16.8413
  40   2.0000      -0.593924       -16.1615
  41   2.0000      -0.569783       -15.5046
  42   2.0000      -0.553245       -15.0546
  43   2.0000      -0.542264       -14.7557
  44   2.0000      -0.536860       -14.6087
  45   2.0000      -0.527575       -14.3560
  46   2.0000      -0.517907       -14.0930
  47   2.0000      -0.508359       -13.8331
  48   2.0000      -0.505104       -13.7446
  49   2.0000      -0.496813       -13.5190
  50   2.0000      -0.489056       -13.3079
  51   2.0000      -0.471654       -12.8344
  52   2.0000      -0.470305       -12.7976
  53   2.0000      -0.462985       -12.5985
  54   2.0000      -0.454543       -12.3688
  55   2.0000      -0.450001       -12.2451
  56   2.0000      -0.441270       -12.0076
  57   2.0000      -0.435754       -11.8575
  58   2.0000      -0.434052       -11.8111
  59   2.0000      -0.425802       -11.5867
  60   2.0000      -0.417607       -11.3637
  61   2.0000      -0.415137       -11.2964
  62   2.0000      -0.409633       -11.1467
  63   2.0000      -0.343301        -9.3417
  64   2.0000      -0.339004        -9.2248
  65   2.0000      -0.327135        -8.9018
  66   2.0000      -0.287888        -7.8338
  67   0.0000       0.028774         0.7830
  68   0.0000       0.061228         1.6661
  69   0.0000       0.103767         2.8237
  70   0.0000       0.121345         3.3020
  71   0.0000       0.127495         3.4693

MULLIKEN ATOMIC CHARGES
-----------------------
   0 S :    0.114531
   1 C :   -0.099283
   2 C :   -0.039842
   3 C :    0.021065
   4 C :   -0.131922
   5 H :    0.007573
   6 C :    0.076967
   7 H :    0.023386
   8 H :    0.019082
   9 C :   -0.066777
  10 H :    0.022998
  11 H :    0.029247
  12 C :   -0.064977
  13 H :    0.025893
  14 H :    0.031773
  15 H :    0.042665
  16 S :    0.099756
  17 C :   -0.112754
  18 C :   -0.068507
  19 C :   -0.052721
  20 C :   -0.180700
  21 H :    0.053999
  22 C :    0.048855
  23 H :    0.027508
  24 H :    0.028790
  25 C :   -0.038750
  26 H :    0.047534
  27 H :    0.046630
  28 C :   -0.101442
  29 H :    0.042523
  30 H :    0.027719
  31 H :    0.037807
  32 H :    0.009429
  33 H :    0.071946
Sum of atomic charges:   -0.0000000

LOEWDIN ATOMIC CHARGES
----------------------
   0 S :    0.395819
   1 C :   -0.173561
   2 C :   -0.060547
   3 C :   -0.061955
   4 C :   -0.185119
   5 H :    0.030367
   6 C :   -0.026626
   7 H :    0.032571
   8 H :    0.028674
   9 C :   -0.046129
  10 H :    0.021797
  11 H :    0.029677
  12 C :   -0.068674
  13 H :    0.018315
  14 H :    0.022697
  15 H :    0.036995
  16 S :    0.401440
  17 C :   -0.191914
  18 C :   -0.085611
  19 C :   -0.061181
  20 C :   -0.199847
  21 H :    0.045482
  22 C :   -0.038445
  23 H :    0.032972
  24 H :    0.032178
  25 C :   -0.036950
  26 H :    0.034069
  27 H :    0.033242
  28 C :   -0.079785
  29 H :    0.031446
  30 H :    0.017588
  31 H :    0.027414
  32 H :    0.007098
  33 H :    0.036504

  Mayer bond orders larger than 0.100000
B(  0-S ,  1-C ) :   1.1270 B(  0-S ,  4-C ) :   1.1565 B(  1-C ,  2-C ) :   1.6154
B(  1-C , 32-H ) :   0.9794 B(  2-C ,  3-C ) :   1.2314 B(  2-C ,  6-C ) :   1.0219
B(  3-C ,  4-C ) :   1.5805 B(  3-C ,  5-H ) :   1.0022 B(  4-C , 20-C ) :   1.0262
B(  6-C ,  7-H ) :   0.9422 B(  6-C ,  8-H ) :   0.9382 B(  6-C ,  9-C ) :   1.0539
B(  9-C , 10-H ) :   0.9559 B(  9-C , 11-H ) :   0.9535 B(  9-C , 12-C ) :   1.0893
B( 12-C , 13-H ) :   0.9745 B( 12-C , 14-H ) :   0.9745 B( 12-C , 15-H ) :   0.9729
B( 16-S , 17-C ) :   1.1593 B( 16-S , 20-C ) :   1.1430 B( 17-C , 18-C ) :   1.6035
B( 17-C , 20-C ) :   0.1064 B( 17-C , 33-H ) :   0.9679 B( 18-C , 19-C ) :   1.2419
B( 18-C , 21-H ) :   0.9713 B( 19-C , 20-C ) :   1.5772 B( 19-C , 22-C ) :   1.0333
B( 22-C , 23-H ) :   0.9335 B( 22-C , 24-H ) :   0.9356 B( 22-C , 25-C ) :   1.0627
B( 25-C , 26-H ) :   0.9583 B( 25-C , 27-H ) :   0.9537 B( 25-C , 28-C ) :   1.0650
B( 28-C , 29-H ) :   0.9721 B( 28-C , 30-H ) :   0.9772 B( 28-C , 31-H ) :   0.9765

Dispersion correction           -0.014864850
FINAL SINGLE POINT ENERGY     -1339.871339835302

DIPOLE MOMENT
-------------
                                X             Y             Z
Electronic contribution:    -17.04217      12.16585     -10.80042
Nuclear contribution   :     17.55869     -12.23720      11.16768
                        -----------------------------------------
Total Dipole Moment    :      0.51652      -0.07135       0.36726
                        -----------------------------------------
Magnitude (a.u.)       :      0.63778
Magnitude (Debye)      :      1.62111

Rotational constants in cm-1:     0.020407     0.007701     0.007240
Rotational constants in MHz :   611.787744   230.857316   217.051648

                             ****ORCA TERMINATED NORMALLY****
TOTAL RUN TIME: 0 days 0 hours 0 minutes 30 seconds 516 msec
