                         Program Version 4.2.1 -  RELEASE  -
|  1> ! wB97X-D3 SP def2-SVP
|  2> %pal
|  3> nprocs 16
|  4> end
|  5>
|  6> * xyz 0 1
|  7> S 	 12.7097 	 21.8038 	 52.059
|  8> C 	 13.5355 	 21.8669 	 53.6379
|  9> C 	 14.3074 	 22.9775 	 53.76
| 10> C 	 14.0894 	 23.8691 	 52.6588
| 11> C 	 13.3917 	 23.3374 	 51.5758
| 12> H 	 14.5175 	 24.8396 	 52.5867
| 13> C 	 15.1666 	 23.3639 	 54.9665
| 14> H 	 15.5122 	 24.387 	 55.0095
| 15> H 	 16.0576 	 22.7228 	 54.8731
| 16> C 	 14.5882 	 23.1214 	 56.3267
| 17> H 	 13.6361 	 23.7237 	 56.5286
| 18> H 	 14.3062 	 22.0245 	 56.4402
| 19> C 	 15.4979 	 23.6033 	 57.477
| 20> H 	 15.6819 	 24.6671 	 57.4518
| 21> H 	 15.08 	 23.2957 	 58.4356
| 22> H 	 16.4327 	 23.1622 	 57.398
| 23> S 	 11.7947 	 23.1019 	 49.3527
| 24> C 	 11.9536 	 24.2367 	 48.034
| 25> C 	 12.8158 	 25.2686 	 48.3267
| 26> C 	 13.4674 	 25.0794 	 49.6134
| 27> C 	 13.0082 	 23.9355 	 50.3049
| 28> H 	 12.9873 	 26.0792 	 47.6159
| 29> C 	 14.2725 	 26.1976 	 50.1726
| 30> H 	 13.9834 	 26.2854 	 51.1786
| 31> H 	 14.0768 	 27.1801 	 49.6692
| 32> C 	 15.824 	 25.961 	 50.118
| 33> H 	 16.1602 	 25.8769 	 49.0897
| 34> H 	 15.895 	 24.9786 	 50.6251
| 35> C 	 16.5367 	 27.0752 	 50.7018
| 36> H 	 16.5483 	 27.9283 	 50.0123
| 37> H 	 17.5615 	 26.8549 	 50.8224
| 38> H 	 16.201 	 27.3768 	 51.7314
| 39> H 	 13.6672 	 21.0718 	 54.2861
| 40> H 	 11.3914 	 24.1408 	 47.088
| 41> *
| 42>
| 43>                          ****END OF INPUT****

CARTESIAN COORDINATES (ANGSTROEM)
---------------------------------
  S     12.709700   21.803800   52.059000
  C     13.535500   21.866900   53.637900
  C     14.307400   22.977500   53.760000
  C     14.089400   23.869100   52.658800
  C     13.391700   23.337400   51.575800
  H     14.517500   24.839600   52.586700
  C     15.166600   23.363900   54.966500
  H     15.512200   24.387000   55.009500
  H     16.057600   22.722800   54.873100
  C     14.588200   23.121400   56.326700
  H     13.636100   23.723700   56.528600
  H     14.306200   22.024500   56.440200
  C     15.497900   23.603300   57.477000
  H     15.681900   24.667100   57.451800
  H     15.080000   23.295700   58.435600
  H     16.432700   23.162200   57.398000
  S     11.794700   23.101900   49.352700
  C     11.953600   24.236700   48.034000
  C     12.815800   25.268600   48.326700
  C     13.467400   25.079400   49.613400
  C     13.008200   23.935500   50.304900
  H     12.987300   26.079200   47.615900
  C     14.272500   26.197600   50.172600
  H     13.983400   26.285400   51.178600
  H     14.076800   27.180100   49.669200
  C     15.824000   25.961000   50.118000
  H     16.160200   25.876900   49.089700
  H     15.895000   24.978600   50.625100
  C     16.536700   27.075200   50.701800
  H     16.548300   27.928300   50.012300
  H     17.561500   26.854900   50.822400
  H     16.201000   27.376800   51.731400
  H     13.667200   21.071800   54.286100
  H     11.391400   24.140800   47.088000

 Total Charge           Charge          ....    0
 Multiplicity           Mult            ....    1
 Number of Electrons    NEL             ....  134
 Basis Dimension        Dim             ....  322

ORBITAL ENERGIES
----------------

  NO   OCC          E(Eh)            E(eV)
   0   2.0000     -88.966981     -2420.9146
   1   2.0000     -88.966064     -2420.8897
   2   2.0000     -10.334748      -281.2228
   3   2.0000     -10.332606      -281.1645
   4   2.0000     -10.320711      -280.8408
   5   2.0000     -10.308654      -280.5127
   6   2.0000     -10.306875      -280.4643
   7   2.0000     -10.302497      -280.3452
   8   2.0000     -10.297612      -280.2123
   9   2.0000     -10.295335      -280.1503
  10   2.0000     -10.295208      -280.1469
  11   2.0000     -10.292332      -280.0686
  12   2.0000     -10.288371      -279.9608
  13   2.0000     -10.282179      -279.7923
  14   2.0000     -10.274579      -279.5855
  15   2.0000     -10.274525      -279.5840
  16   2.0000      -8.081814      -219.9173
  17   2.0000      -8.080396      -219.8788
  18   2.0000      -6.040442      -164.3688
  19   2.0000      -6.039117      -164.3327
  20   2.0000      -6.036263      -164.2551
  21   2.0000      -6.035031      -164.2215
  22   2.0000      -6.032502      -164.1527
  23   2.0000      -6.030889      -164.1088
  24   2.0000      -1.006978       -27.4013
  25   2.0000      -0.982992       -26.7486
  26   2.0000      -0.918520       -24.9942
  27   2.0000      -0.916303       -24.9339
  28   2.0000      -0.873231       -23.7618
  29   2.0000      -0.859894       -23.3989
  30   2.0000      -0.843740       -22.9593
  31   2.0000      -0.817273       -22.2391
  32   2.0000      -0.786973       -21.4146
  33   2.0000      -0.773646       -21.0520
  34   2.0000      -0.709287       -19.3007
  35   2.0000      -0.698667       -19.0117
  36   2.0000      -0.689169       -18.7532
  37   2.0000      -0.666770       -18.1437
  38   2.0000      -0.638736       -17.3809
  39   2.0000      -0.621643       -16.9158
  40   2.0000      -0.597564       -16.2606
  41   2.0000      -0.580537       -15.7972
  42   2.0000      -0.575045       -15.6478
  43   2.0000      -0.561013       -15.2659
  44   2.0000      -0.529013       -14.3952
  45   2.0000      -0.525813       -14.3081
  46   2.0000      -0.522173       -14.2090
  47   2.0000      -0.512596       -13.9484
  48   2.0000      -0.505761       -13.7625
  49   2.0000      -0.501845       -13.6559
  50   2.0000      -0.493915       -13.4401
  51   2.0000      -0.490835       -13.3563
  52   2.0000      -0.481140       -13.0925
  53   2.0000      -0.463630       -12.6160
  54   2.0000      -0.457993       -12.4626
  55   2.0000      -0.456845       -12.4314
  56   2.0000      -0.445639       -12.1265
  57   2.0000      -0.436742       -11.8844
  58   2.0000      -0.434299       -11.8179
  59   2.0000      -0.430849       -11.7240
  60   2.0000      -0.415735       -11.3127
  61   2.0000      -0.409440       -11.1414
  62   2.0000      -0.408795       -11.1239
  63   2.0000      -0.363906        -9.9024
  64   2.0000      -0.335237        -9.1223
  65   2.0000      -0.325957        -8.8697
  66   2.0000      -0.281327        -7.6553
  67   0.0000       0.015249         0.4150
  68   0.0000       0.085774         2.3340
  69   0.0000       0.092423         2.5150
  70   0.0000       0.117102         3.1865
  71   0.0000       0.136570         3.7163

MULLIKEN ATOMIC CHARGES
-----------------------
   0 S :    0.084285
   1 C :   -0.084910
   2 C :   -0.062248
   3 C :   -0.010166
   4 C :   -0.087161
   5 H :   -0.014510
   6 C :    0.082527
   7 H :    0.016887
   8 H :    0.039224
   9 C :   -0.146128
  10 H :    0.045376
  11 H :    0.036282
  12 C :   -0.011961
  13 H :    0.030177
  14 H :    0.036014
  15 H :    0.005872
  16 S :    0.095568
  17 C :   -0.096625
  18 C :   -0.027469
  19 C :   -0.039145
  20 C :   -0.111149
  21 H :    0.026580
  22 C :    0.007437
  23 H :    0.019094
  24 H :    0.024561
  25 C :   -0.079741
  26 H :    0.025749
  27 H :    0.036624
  28 C :   -0.004043
  29 H :    0.028130
  30 H :    0.019853
  31 H :    0.025278
  32 H :    0.020523
  33 H :    0.069214
Sum of atomic charges:   -0.0000000

LOEWDIN ATOMIC CHARGES
----------------------
   0 S :    0.387452
   1 C :   -0.177714
   2 C :   -0.053164
   3 C :   -0.070926
   4 C :   -0.179987
   5 H :    0.019345
   6 C :   -0.035255
   7 H :    0.028953
   8 H :    0.039335
   9 C :   -0.049437
  10 H :    0.032382
  11 H :    0.025092
  12 C :   -0.058889
  13 H :    0.024599
  14 H :    0.030614
  15 H :    0.012212
  16 S :    0.401680
  17 C :   -0.186167
  18 C :   -0.070300
  19 C :   -0.051375
  20 C :   -0.197017
  21 H :    0.035874
  22 C :   -0.031485
  23 H :    0.019428
  24 H :    0.032635
  25 C :   -0.041895
  26 H :    0.026260
  27 H :    0.026420
  28 C :   -0.066913
  29 H :    0.029251
  30 H :    0.022374
  31 H :    0.026901
  32 H :    0.013440
  33 H :    0.036278

  Mayer bond orders larger than 0.100000
B(  0-S ,  1-C ) :   1.1166 B(  0-S ,  4-C ) :   1.1404 B(  1-C ,  2-C ) :   1.6460
B(  1-C , 32-H ) :   0.9668 B(  2-C ,  3-C ) :   1.2429 B(  2-C ,  6-C ) :   1.0086
B(  3-C ,  4-C ) :   1.5616 B(  3-C ,  5-H ) :   0.9875 B(  4-C , 20-C ) :   1.0927
B(  6-C ,  7-H ) :   0.9507 B(  6-C ,  8-H ) :   0.9229 B(  6-C ,  9-C ) :   1.0763
B(  9-C , 10-H ) :   0.9582 B(  9-C , 11-H ) :   0.9483 B(  9-C , 12-C ) :   1.0825
B( 12-C , 13-H ) :   0.9732 B( 12-C , 14-H ) :   0.9729 B( 12-C , 15-H ) :   0.9727
B( 16-S , 17-C ) :   1.1543 B( 16-S , 20-C ) :   1.1281 B( 17-C , 18-C ) :   1.6090
B( 17-C , 33-H ) :   0.9634 B( 18-C , 19-C ) :   1.2455 B( 18-C , 21-H ) :   0.9887
B( 19-C , 20-C ) :   1.5683 B( 19-C , 22-C ) :   1.0440 B( 22-C , 23-H ) :   0.9403
B( 22-C , 24-H ) :   0.9413 B( 22-C , 25-C ) :   1.0505 B( 25-C , 26-H ) :   0.9504
B( 25-C , 27-H ) :   0.9542 B( 25-C , 28-C ) :   1.1018 B( 28-C , 29-H ) :   0.9658
B( 28-C , 30-H ) :   0.9651 B( 28-C , 31-H ) :   0.9673

Dispersion correction           -0.013635414
FINAL SINGLE POINT ENERGY     -1339.875156537611

DIPOLE MOMENT
-------------
                                X             Y             Z
Electronic contribution:    -20.51865     -15.78610     -18.65367
Nuclear contribution   :     21.05463      16.31802      18.83386
                        -----------------------------------------
Total Dipole Moment    :      0.53599       0.53192       0.18019
                        -----------------------------------------
Magnitude (a.u.)       :      0.77633
Magnitude (Debye)      :      1.97327

Rotational constants in cm-1:     0.019241     0.008316     0.005997
Rotational constants in MHz :   576.819232   249.296432   179.784762

                             ****ORCA TERMINATED NORMALLY****
TOTAL RUN TIME: 0 days 0 hours 0 minutes 34 seconds 849 msec
