                         Program Version 4.2.1 -  RELEASE  -
|  1> ! wB97X-D3 SP def2-SVP
|  2> %pal
|  3> nprocs 16
|  4> end
|  5>
|  6> * xyz 0 1
|  7> S 	 11.0293 	 -27.788 	 83.3688
|  8> C 	 9.87114 	 -27.5097 	 84.6589
|  9> C 	 9.14465 	 -26.3535 	 84.5039
| 10> C 	 9.33638 	 -25.7852 	 83.1784
| 11> C 	 10.368 	 -26.3853 	 82.4932
| 12> H 	 8.67223 	 -25.0643 	 82.6867
| 13> C 	 8.10655 	 -25.9082 	 85.5117
| 14> H 	 8.18428 	 -24.9 	 85.6722
| 15> H 	 8.26835 	 -26.236 	 86.511
| 16> C 	 6.62398 	 -26.2501 	 85.2275
| 17> H 	 6.34368 	 -25.7565 	 84.305
| 18> H 	 6.40031 	 -27.3419 	 85.0419
| 19> C 	 5.67396 	 -25.7672 	 86.2875
| 20> H 	 6.09375 	 -26.2095 	 87.2299
| 21> H 	 5.71965 	 -24.6297 	 86.3407
| 22> H 	 4.71382 	 -26.1959 	 86.2293
| 23> S 	 11.149 	 -27.3297 	 79.9844
| 24> C 	 11.4385 	 -26.1705 	 78.6928
| 25> C 	 11.3395 	 -24.8737 	 79.0955
| 26> C 	 10.9784 	 -24.8006 	 80.48
| 27> C 	 10.8219 	 -26.0413 	 81.1477
| 28> H 	 11.5679 	 -24.1826 	 78.3488
| 29> C 	 10.827 	 -23.5023 	 81.2217
| 30> H 	 11.6345 	 -22.8096 	 80.9369
| 31> H 	 10.9265 	 -23.7293 	 82.2806
| 32> C 	 9.42622 	 -22.8692 	 81.1424
| 33> H 	 9.48647 	 -22.0587 	 81.9261
| 34> H 	 8.66622 	 -23.477 	 81.6071
| 35> C 	 8.96811 	 -22.2058 	 79.8508
| 36> H 	 7.91551 	 -21.9471 	 79.967
| 37> H 	 8.9837 	 -22.9131 	 79.0002
| 38> H 	 9.54823 	 -21.3447 	 79.7306
| 39> H 	 9.93683 	 -28.0453 	 85.5633
| 40> H 	 11.6862 	 -26.3565 	 77.637
| 41> *
| 42>
| 43>                          ****END OF INPUT****

CARTESIAN COORDINATES (ANGSTROEM)
---------------------------------
  S     11.029300  -27.788000   83.368800
  C      9.871140  -27.509700   84.658900
  C      9.144650  -26.353500   84.503900
  C      9.336380  -25.785200   83.178400
  C     10.368000  -26.385300   82.493200
  H      8.672230  -25.064300   82.686700
  C      8.106550  -25.908200   85.511700
  H      8.184280  -24.900000   85.672200
  H      8.268350  -26.236000   86.511000
  C      6.623980  -26.250100   85.227500
  H      6.343680  -25.756500   84.305000
  H      6.400310  -27.341900   85.041900
  C      5.673960  -25.767200   86.287500
  H      6.093750  -26.209500   87.229900
  H      5.719650  -24.629700   86.340700
  H      4.713820  -26.195900   86.229300
  S     11.149000  -27.329700   79.984400
  C     11.438500  -26.170500   78.692800
  C     11.339500  -24.873700   79.095500
  C     10.978400  -24.800600   80.480000
  C     10.821900  -26.041300   81.147700
  H     11.567900  -24.182600   78.348800
  C     10.827000  -23.502300   81.221700
  H     11.634500  -22.809600   80.936900
  H     10.926500  -23.729300   82.280600
  C      9.426220  -22.869200   81.142400
  H      9.486470  -22.058700   81.926100
  H      8.666220  -23.477000   81.607100
  C      8.968110  -22.205800   79.850800
  H      7.915510  -21.947100   79.967000
  H      8.983700  -22.913100   79.000200
  H      9.548230  -21.344700   79.730600
  H      9.936830  -28.045300   85.563300
  H     11.686200  -26.356500   77.637000

 Total Charge           Charge          ....    0
 Multiplicity           Mult            ....    1
 Number of Electrons    NEL             ....  134
 Basis Dimension        Dim             ....  322

ORBITAL ENERGIES
----------------

  NO   OCC          E(Eh)            E(eV)
   0   2.0000     -88.967266     -2420.9224
   1   2.0000     -88.964853     -2420.8567
   2   2.0000     -10.335250      -281.2365
   3   2.0000     -10.329565      -281.0818
   4   2.0000     -10.317129      -280.7433
   5   2.0000     -10.312388      -280.6144
   6   2.0000     -10.306110      -280.4435
   7   2.0000     -10.305936      -280.4388
   8   2.0000     -10.300561      -280.2925
   9   2.0000     -10.289308      -279.9863
  10   2.0000     -10.287097      -279.9261
  11   2.0000     -10.286987      -279.9231
  12   2.0000     -10.286747      -279.9166
  13   2.0000     -10.285779      -279.8903
  14   2.0000     -10.282801      -279.8092
  15   2.0000     -10.274225      -279.5759
  16   2.0000      -8.081679      -219.9137
  17   2.0000      -8.079136      -219.8445
  18   2.0000      -6.040282      -164.3644
  19   2.0000      -6.037758      -164.2958
  20   2.0000      -6.036333      -164.2570
  21   2.0000      -6.033659      -164.1842
  22   2.0000      -6.032251      -164.1459
  23   2.0000      -6.029842      -164.0803
  24   2.0000      -1.003237       -27.2995
  25   2.0000      -0.981621       -26.7113
  26   2.0000      -0.915183       -24.9034
  27   2.0000      -0.907815       -24.7029
  28   2.0000      -0.874101       -23.7855
  29   2.0000      -0.851884       -23.1809
  30   2.0000      -0.846179       -23.0257
  31   2.0000      -0.822496       -22.3812
  32   2.0000      -0.786281       -21.3958
  33   2.0000      -0.772260       -21.0143
  34   2.0000      -0.709942       -19.3185
  35   2.0000      -0.696226       -18.9453
  36   2.0000      -0.688279       -18.7290
  37   2.0000      -0.662480       -18.0270
  38   2.0000      -0.644412       -17.5353
  39   2.0000      -0.623556       -16.9678
  40   2.0000      -0.589875       -16.0513
  41   2.0000      -0.577743       -15.7212
  42   2.0000      -0.566883       -15.4257
  43   2.0000      -0.550661       -14.9842
  44   2.0000      -0.541155       -14.7256
  45   2.0000      -0.533672       -14.5219
  46   2.0000      -0.521627       -14.1942
  47   2.0000      -0.509312       -13.8591
  48   2.0000      -0.505770       -13.7627
  49   2.0000      -0.499504       -13.5922
  50   2.0000      -0.494681       -13.4609
  51   2.0000      -0.478985       -13.0339
  52   2.0000      -0.476796       -12.9743
  53   2.0000      -0.461645       -12.5620
  54   2.0000      -0.457268       -12.4429
  55   2.0000      -0.452510       -12.3134
  56   2.0000      -0.443392       -12.0653
  57   2.0000      -0.436319       -11.8728
  58   2.0000      -0.433762       -11.8033
  59   2.0000      -0.427297       -11.6273
  60   2.0000      -0.422178       -11.4880
  61   2.0000      -0.412457       -11.2235
  62   2.0000      -0.403136       -10.9699
  63   2.0000      -0.356331        -9.6963
  64   2.0000      -0.332258        -9.0412
  65   2.0000      -0.329125        -8.9559
  66   2.0000      -0.288581        -7.8527
  67   0.0000       0.024534         0.6676
  68   0.0000       0.075433         2.0526
  69   0.0000       0.104723         2.8497
  70   0.0000       0.120332         3.2744
  71   0.0000       0.131183         3.5697

MULLIKEN ATOMIC CHARGES
-----------------------
   0 S :    0.101624
   1 C :   -0.095230
   2 C :   -0.070542
   3 C :    0.001953
   4 C :   -0.128639
   5 H :    0.025434
   6 C :    0.118834
   7 H :   -0.006381
   8 H :   -0.007573
   9 C :   -0.091531
  10 H :    0.017552
  11 H :    0.037150
  12 C :   -0.046631
  13 H :    0.020730
  14 H :    0.044800
  15 H :    0.033610
  16 S :    0.099103
  17 C :   -0.098472
  18 C :   -0.015864
  19 C :   -0.030672
  20 C :   -0.137665
  21 H :   -0.001137
  22 C :    0.066544
  23 H :    0.030167
  24 H :    0.025173
  25 C :   -0.108454
  26 H :    0.020803
  27 H :    0.011190
  28 C :   -0.001702
  29 H :    0.027424
  30 H :    0.038066
  31 H :    0.024549
  32 H :    0.037454
  33 H :    0.058330
Sum of atomic charges:    0.0000000

LOEWDIN ATOMIC CHARGES
----------------------
   0 S :    0.383722
   1 C :   -0.177898
   2 C :   -0.054749
   3 C :   -0.060111
   4 C :   -0.177559
   5 H :    0.034364
   6 C :   -0.028084
   7 H :    0.020160
   8 H :    0.025332
   9 C :   -0.044034
  10 H :    0.016324
  11 H :    0.030228
  12 C :   -0.066484
  13 H :    0.026457
  14 H :    0.032981
  15 H :    0.021945
  16 S :    0.391543
  17 C :   -0.179243
  18 C :   -0.072224
  19 C :   -0.050000
  20 C :   -0.198568
  21 H :    0.027429
  22 C :   -0.035721
  23 H :    0.032620
  24 H :    0.033206
  25 C :   -0.044714
  26 H :    0.028447
  27 H :    0.013977
  28 C :   -0.060586
  29 H :    0.030088
  30 H :    0.027610
  31 H :    0.018500
  32 H :    0.018705
  33 H :    0.036338

  Mayer bond orders larger than 0.100000
B(  0-S ,  1-C ) :   1.1220 B(  0-S ,  4-C ) :   1.1325 B(  1-C ,  2-C ) :   1.6479
B(  1-C , 32-H ) :   0.9682 B(  2-C ,  3-C ) :   1.1958 B(  2-C ,  6-C ) :   1.0406
B(  3-C ,  4-C ) :   1.6011 B(  3-C ,  5-H ) :   0.9834 B(  4-C , 20-C ) :   1.0604
B(  6-C ,  7-H ) :   0.9242 B(  6-C ,  8-H ) :   0.9348 B(  6-C ,  9-C ) :   1.0548
B(  9-C , 10-H ) :   0.9535 B(  9-C , 11-H ) :   0.9560 B(  9-C , 12-C ) :   1.0867
B( 12-C , 13-H ) :   0.9722 B( 12-C , 14-H ) :   0.9731 B( 12-C , 15-H ) :   0.9721
B( 16-S , 17-C ) :   1.1529 B( 16-S , 20-C ) :   1.1207 B( 17-C , 18-C ) :   1.6355
B( 17-C , 33-H ) :   0.9584 B( 18-C , 19-C ) :   1.2080 B( 18-C , 21-H ) :   1.0060
B( 19-C , 20-C ) :   1.5849 B( 19-C , 22-C ) :   1.0563 B( 22-C , 23-H ) :   0.9393
B( 22-C , 24-H ) :   0.9211 B( 22-C , 25-C ) :   1.0733 B( 25-C , 26-H ) :   0.9493
B( 25-C , 27-H ) :   0.9497 B( 25-C , 28-C ) :   1.0823 B( 28-C , 29-H ) :   0.9686
B( 28-C , 30-H ) :   0.9737 B( 28-C , 31-H ) :   0.9757

Dispersion correction           -0.014214643
FINAL SINGLE POINT ENERGY     -1339.871415334489

DIPOLE MOMENT
-------------
                                X             Y             Z
Electronic contribution:     20.62952     -20.09788      -9.91983
Nuclear contribution   :    -21.02499      20.66553      10.04815
                        -----------------------------------------
Total Dipole Moment    :     -0.39547       0.56765       0.12832
                        -----------------------------------------
Magnitude (a.u.)       :      0.70362
Magnitude (Debye)      :      1.78847

Rotational constants in cm-1:     0.018558     0.008601     0.006419
Rotational constants in MHz :   556.355763   257.864214   192.438126

                             ****ORCA TERMINATED NORMALLY****
TOTAL RUN TIME: 0 days 0 hours 0 minutes 34 seconds 386 msec
