                         Program Version 4.2.1 -  RELEASE  -
|  1> ! wB97X-D3 SP def2-SVP
|  2> %pal
|  3> nprocs 16
|  4> end
|  5>
|  6> * xyz 0 1
|  7> S 	 -26.119 	 54.8519 	 110.313
|  8> C 	 -27.3745 	 53.611 	 110.235
|  9> C 	 -28.4842 	 53.9361 	 110.93
| 10> C 	 -28.3979 	 55.3288 	 111.308
| 11> C 	 -27.1512 	 55.937 	 111.217
| 12> H 	 -29.2759 	 55.9178 	 111.606
| 13> C 	 -29.7562 	 53.0936 	 111.124
| 14> H 	 -30.0174 	 52.7137 	 110.093
| 15> H 	 -30.541 	 53.8381 	 111.286
| 16> C 	 -29.7308 	 52.0033 	 112.235
| 17> H 	 -30.5377 	 51.3036 	 112.139
| 18> H 	 -28.8664 	 51.3465 	 111.905
| 19> C 	 -29.5614 	 52.7042 	 113.56
| 20> H 	 -30.2277 	 53.5339 	 113.786
| 21> H 	 -29.6486 	 52.0177 	 114.392
| 22> H 	 -28.5008 	 53.0937 	 113.58
| 23> S 	 -26.3831 	 58.2961 	 110.063
| 24> C 	 -26.3979 	 59.7732 	 111.012
| 25> C 	 -26.9177 	 59.5635 	 112.291
| 26> C 	 -27.1616 	 58.179 	 112.555
| 27> C 	 -26.8606 	 57.3362 	 111.473
| 28> H 	 -26.8024 	 60.4085 	 112.922
| 29> C 	 -27.6877 	 57.6977 	 113.857
| 30> H 	 -28.6333 	 57.1248 	 113.64
| 31> H 	 -28.0586 	 58.5538 	 114.453
| 32> C 	 -26.8201 	 56.7573 	 114.637
| 33> H 	 -26.3811 	 56.0137 	 113.907
| 34> H 	 -27.3464 	 56.263 	 115.522
| 35> C 	 -25.5768 	 57.3368 	 115.215
| 36> H 	 -25.0626 	 57.8686 	 114.478
| 37> H 	 -24.8515 	 56.5983 	 115.665
| 38> H 	 -25.8803 	 58.0322 	 115.967
| 39> H 	 -27.3563 	 52.6416 	 109.852
| 40> H 	 -26.1995 	 60.8196 	 110.638
| 41> *
| 42>
| 43>                          ****END OF INPUT****

CARTESIAN COORDINATES (ANGSTROEM)
---------------------------------
  S    -26.119000   54.851900  110.313000
  C    -27.374500   53.611000  110.235000
  C    -28.484200   53.936100  110.930000
  C    -28.397900   55.328800  111.308000
  C    -27.151200   55.937000  111.217000
  H    -29.275900   55.917800  111.606000
  C    -29.756200   53.093600  111.124000
  H    -30.017400   52.713700  110.093000
  H    -30.541000   53.838100  111.286000
  C    -29.730800   52.003300  112.235000
  H    -30.537700   51.303600  112.139000
  H    -28.866400   51.346500  111.905000
  C    -29.561400   52.704200  113.560000
  H    -30.227700   53.533900  113.786000
  H    -29.648600   52.017700  114.392000
  H    -28.500800   53.093700  113.580000
  S    -26.383100   58.296100  110.063000
  C    -26.397900   59.773200  111.012000
  C    -26.917700   59.563500  112.291000
  C    -27.161600   58.179000  112.555000
  C    -26.860600   57.336200  111.473000
  H    -26.802400   60.408500  112.922000
  C    -27.687700   57.697700  113.857000
  H    -28.633300   57.124800  113.640000
  H    -28.058600   58.553800  114.453000
  C    -26.820100   56.757300  114.637000
  H    -26.381100   56.013700  113.907000
  H    -27.346400   56.263000  115.522000
  C    -25.576800   57.336800  115.215000
  H    -25.062600   57.868600  114.478000
  H    -24.851500   56.598300  115.665000
  H    -25.880300   58.032200  115.967000
  H    -27.356300   52.641600  109.852000
  H    -26.199500   60.819600  110.638000

 Total Charge           Charge          ....    0
 Multiplicity           Mult            ....    1
 Number of Electrons    NEL             ....  134
 Basis Dimension        Dim             ....  322

ORBITAL ENERGIES
----------------

  NO   OCC          E(Eh)            E(eV)
   0   2.0000     -88.968275     -2420.9499
   1   2.0000     -88.967763     -2420.9359
   2   2.0000     -10.330764      -281.1144
   3   2.0000     -10.330345      -281.1030
   4   2.0000     -10.324513      -280.9443
   5   2.0000     -10.309402      -280.5331
   6   2.0000     -10.308853      -280.5182
   7   2.0000     -10.300299      -280.2854
   8   2.0000     -10.299651      -280.2677
   9   2.0000     -10.296106      -280.1713
  10   2.0000     -10.295355      -280.1509
  11   2.0000     -10.294889      -280.1382
  12   2.0000     -10.291414      -280.0436
  13   2.0000     -10.283935      -279.8401
  14   2.0000     -10.280571      -279.7486
  15   2.0000     -10.262662      -279.2612
  16   2.0000      -8.082485      -219.9356
  17   2.0000      -8.081991      -219.9222
  18   2.0000      -6.041211      -164.3897
  19   2.0000      -6.040501      -164.3704
  20   2.0000      -6.037022      -164.2757
  21   2.0000      -6.036516      -164.2619
  22   2.0000      -6.033080      -164.1684
  23   2.0000      -6.032819      -164.1613
  24   2.0000      -1.006492       -27.3880
  25   2.0000      -0.983684       -26.7674
  26   2.0000      -0.915449       -24.9106
  27   2.0000      -0.912219       -24.8227
  28   2.0000      -0.872851       -23.7515
  29   2.0000      -0.851848       -23.1800
  30   2.0000      -0.842979       -22.9386
  31   2.0000      -0.814120       -22.1533
  32   2.0000      -0.783069       -21.3084
  33   2.0000      -0.774097       -21.0643
  34   2.0000      -0.712010       -19.3748
  35   2.0000      -0.707409       -19.2496
  36   2.0000      -0.679421       -18.4880
  37   2.0000      -0.660970       -17.9859
  38   2.0000      -0.635241       -17.2858
  39   2.0000      -0.612207       -16.6590
  40   2.0000      -0.592237       -16.1156
  41   2.0000      -0.575103       -15.6494
  42   2.0000      -0.557848       -15.1798
  43   2.0000      -0.552776       -15.0418
  44   2.0000      -0.547852       -14.9078
  45   2.0000      -0.538759       -14.6604
  46   2.0000      -0.518842       -14.1184
  47   2.0000      -0.506221       -13.7750
  48   2.0000      -0.503617       -13.7041
  49   2.0000      -0.496133       -13.5005
  50   2.0000      -0.484583       -13.1862
  51   2.0000      -0.479519       -13.0484
  52   2.0000      -0.475979       -12.9520
  53   2.0000      -0.464223       -12.6321
  54   2.0000      -0.462083       -12.5739
  55   2.0000      -0.441529       -12.0146
  56   2.0000      -0.437232       -11.8977
  57   2.0000      -0.435028       -11.8377
  58   2.0000      -0.433391       -11.7932
  59   2.0000      -0.427413       -11.6305
  60   2.0000      -0.417570       -11.3627
  61   2.0000      -0.413003       -11.2384
  62   2.0000      -0.402707       -10.9582
  63   2.0000      -0.345824        -9.4104
  64   2.0000      -0.331606        -9.0235
  65   2.0000      -0.329108        -8.9555
  66   2.0000      -0.293816        -7.9951
  67   0.0000       0.023938         0.6514
  68   0.0000       0.067463         1.8358
  69   0.0000       0.108280         2.9465
  70   0.0000       0.116408         3.1676
  71   0.0000       0.122307         3.3281

MULLIKEN ATOMIC CHARGES
-----------------------
   0 S :    0.108516
   1 C :   -0.071904
   2 C :   -0.121008
   3 C :    0.013939
   4 C :   -0.157981
   5 H :    0.025800
   6 C :    0.024235
   7 H :    0.038470
   8 H :    0.017757
   9 C :   -0.036590
  10 H :    0.027529
  11 H :    0.031116
  12 C :   -0.053785
  13 H :    0.035401
  14 H :    0.030005
  15 H :    0.056558
  16 S :    0.109693
  17 C :   -0.125016
  18 C :   -0.030889
  19 C :   -0.050741
  20 C :   -0.140142
  21 H :    0.020170
  22 C :    0.082238
  23 H :    0.032948
  24 H :    0.017951
  25 C :   -0.104195
  26 H :    0.049405
  27 H :    0.039287
  28 C :   -0.027746
  29 H :    0.015645
  30 H :    0.042681
  31 H :    0.007437
  32 H :    0.014793
  33 H :    0.078424
Sum of atomic charges:    0.0000000

LOEWDIN ATOMIC CHARGES
----------------------
   0 S :    0.396612
   1 C :   -0.178115
   2 C :   -0.068689
   3 C :   -0.056804
   4 C :   -0.209163
   5 H :    0.029568
   6 C :   -0.034652
   7 H :    0.035713
   8 H :    0.025865
   9 C :   -0.041589
  10 H :    0.020240
  11 H :    0.032408
  12 C :   -0.068543
  13 H :    0.025927
  14 H :    0.023562
  15 H :    0.041332
  16 S :    0.403959
  17 C :   -0.188985
  18 C :   -0.075594
  19 C :   -0.052002
  20 C :   -0.196293
  21 H :    0.030775
  22 C :   -0.041866
  23 H :    0.040761
  24 H :    0.030443
  25 C :   -0.050823
  26 H :    0.034511
  27 H :    0.031590
  28 C :   -0.065437
  29 H :    0.014628
  30 H :    0.033606
  31 H :    0.014906
  32 H :    0.019105
  33 H :    0.043043

  Mayer bond orders larger than 0.100000
B(  0-S ,  1-C ) :   1.1286 B(  0-S ,  4-C ) :   1.1237 B(  1-C ,  2-C ) :   1.6575
B(  1-C , 32-H ) :   0.9614 B(  2-C ,  3-C ) :   1.2255 B(  2-C ,  6-C ) :   0.9988
B(  3-C ,  4-C ) :   1.5953 B(  3-C ,  5-H ) :   0.9764 B(  4-C , 20-C ) :   1.0446
B(  6-C ,  7-H ) :   0.9461 B(  6-C ,  8-H ) :   0.9475 B(  6-C ,  9-C ) :   1.0558
B(  9-C , 10-H ) :   0.9591 B(  9-C , 11-H ) :   0.9557 B(  9-C , 12-C ) :   1.0619
B( 12-C , 13-H ) :   0.9782 B( 12-C , 14-H ) :   0.9731 B( 12-C , 15-H ) :   0.9697
B( 16-S , 17-C ) :   1.1664 B( 16-S , 20-C ) :   1.1392 B( 17-C , 18-C ) :   1.6147
B( 17-C , 20-C ) :   0.1025 B( 17-C , 33-H ) :   0.9560 B( 18-C , 19-C ) :   1.2365
B( 18-C , 21-H ) :   0.9928 B( 19-C , 20-C ) :   1.5802 B( 19-C , 22-C ) :   1.0507
B( 22-C , 23-H ) :   0.9192 B( 22-C , 24-H ) :   0.9340 B( 22-C , 25-C ) :   1.0707
B( 25-C , 26-H ) :   0.9531 B( 25-C , 27-H ) :   0.9546 B( 25-C , 28-C ) :   1.0788
B( 28-C , 29-H ) :   0.9737 B( 28-C , 30-H ) :   0.9727 B( 28-C , 31-H ) :   0.9706

Dispersion correction           -0.015313206
FINAL SINGLE POINT ENERGY     -1339.864036698670

DIPOLE MOMENT
-------------
                                X             Y             Z
Electronic contribution:     10.57293      10.45734     -21.88192
Nuclear contribution   :    -11.12777     -10.53430      22.22924
                        -----------------------------------------
Total Dipole Moment    :     -0.55483      -0.07696       0.34732
                        -----------------------------------------
Magnitude (a.u.)       :      0.65909
Magnitude (Debye)      :      1.67527

Rotational constants in cm-1:     0.019709     0.009337     0.007387
Rotational constants in MHz :   590.872159   279.907493   221.469237

                             ****ORCA TERMINATED NORMALLY****
TOTAL RUN TIME: 0 days 0 hours 0 minutes 32 seconds 807 msec
