                         Program Version 4.2.1 -  RELEASE  -
|  1> ! wB97X-D3 SP def2-SVP
|  2> %pal
|  3> nprocs 16
|  4> end
|  5>
|  6> * xyz 0 1
|  7> S 	 -33.1065 	 75.1952 	 151.463
|  8> C 	 -31.5789 	 75.2098 	 152.333
|  9> C 	 -30.7955 	 74.0965 	 152.043
| 10> C 	 -31.5801 	 73.0748 	 151.446
| 11> C 	 -32.8505 	 73.4898 	 151.02
| 12> H 	 -31.1869 	 71.9919 	 151.347
| 13> C 	 -29.3944 	 73.9456 	 152.569
| 14> H 	 -29.092 	 72.8792 	 152.468
| 15> H 	 -29.3051 	 74.1294 	 153.624
| 16> C 	 -28.3795 	 74.7675 	 151.748
| 17> H 	 -28.4017 	 74.356 	 150.76
| 18> H 	 -28.5975 	 75.7608 	 151.505
| 19> C 	 -26.9597 	 74.6917 	 152.26
| 20> H 	 -26.4142 	 75.2123 	 151.526
| 21> H 	 -26.8426 	 75.2146 	 153.244
| 22> H 	 -26.6437 	 73.6282 	 152.306
| 23> S 	 -35.1054 	 73.2988 	 149.33
| 24> C 	 -35.976 	 71.8144 	 149.229
| 25> C 	 -35.4685 	 70.8916 	 150.075
| 26> C 	 -34.3696 	 71.3512 	 150.914
| 27> C 	 -33.9532 	 72.6453 	 150.58
| 28> H 	 -35.8266 	 69.893 	 150.037
| 29> C 	 -33.8406 	 70.5747 	 152.152
| 30> H 	 -33.1677 	 71.2987 	 152.62
| 31> H 	 -33.1159 	 69.7663 	 151.854
| 32> C 	 -34.9439 	 70.1229 	 153.098
| 33> H 	 -35.4748 	 69.2985 	 152.622
| 34> H 	 -35.6889 	 70.8818 	 153.262
| 35> C 	 -34.3656 	 69.5442 	 154.426
| 36> H 	 -35.1073 	 69.5387 	 155.214
| 37> H 	 -33.7113 	 70.3254 	 154.79
| 38> H 	 -33.9169 	 68.5553 	 154.283
| 39> H 	 -31.3317 	 76.1131 	 152.82
| 40> H 	 -36.72 	 71.7143 	 148.491
| 41> *
| 42>
| 43>                          ****END OF INPUT****

CARTESIAN COORDINATES (ANGSTROEM)
---------------------------------
  S    -33.106500   75.195200  151.463000
  C    -31.578900   75.209800  152.333000
  C    -30.795500   74.096500  152.043000
  C    -31.580100   73.074800  151.446000
  C    -32.850500   73.489800  151.020000
  H    -31.186900   71.991900  151.347000
  C    -29.394400   73.945600  152.569000
  H    -29.092000   72.879200  152.468000
  H    -29.305100   74.129400  153.624000
  C    -28.379500   74.767500  151.748000
  H    -28.401700   74.356000  150.760000
  H    -28.597500   75.760800  151.505000
  C    -26.959700   74.691700  152.260000
  H    -26.414200   75.212300  151.526000
  H    -26.842600   75.214600  153.244000
  H    -26.643700   73.628200  152.306000
  S    -35.105400   73.298800  149.330000
  C    -35.976000   71.814400  149.229000
  C    -35.468500   70.891600  150.075000
  C    -34.369600   71.351200  150.914000
  C    -33.953200   72.645300  150.580000
  H    -35.826600   69.893000  150.037000
  C    -33.840600   70.574700  152.152000
  H    -33.167700   71.298700  152.620000
  H    -33.115900   69.766300  151.854000
  C    -34.943900   70.122900  153.098000
  H    -35.474800   69.298500  152.622000
  H    -35.688900   70.881800  153.262000
  C    -34.365600   69.544200  154.426000
  H    -35.107300   69.538700  155.214000
  H    -33.711300   70.325400  154.790000
  H    -33.916900   68.555300  154.283000
  H    -31.331700   76.113100  152.820000
  H    -36.720000   71.714300  148.491000

 Total Charge           Charge          ....    0
 Multiplicity           Mult            ....    1
 Number of Electrons    NEL             ....  134
 Basis Dimension        Dim             ....  322

ORBITAL ENERGIES
----------------

  NO   OCC          E(Eh)            E(eV)
   0   2.0000     -88.967040     -2420.9162
   1   2.0000     -88.956673     -2420.6341
   2   2.0000     -10.335283      -281.2373
   3   2.0000     -10.332564      -281.1634
   4   2.0000     -10.316040      -280.7137
   5   2.0000     -10.311398      -280.5874
   6   2.0000     -10.308458      -280.5074
   7   2.0000     -10.307588      -280.4837
   8   2.0000     -10.304855      -280.4094
   9   2.0000     -10.295299      -280.1493
  10   2.0000     -10.294680      -280.1325
  11   2.0000     -10.289881      -280.0019
  12   2.0000     -10.284204      -279.8474
  13   2.0000     -10.278190      -279.6838
  14   2.0000     -10.277605      -279.6678
  15   2.0000     -10.276872      -279.6479
  16   2.0000      -8.081463      -219.9078
  17   2.0000      -8.071612      -219.6397
  18   2.0000      -6.039963      -164.3558
  19   2.0000      -6.036062      -164.2496
  20   2.0000      -6.032189      -164.1442
  21   2.0000      -6.030185      -164.0897
  22   2.0000      -6.026139      -163.9796
  23   2.0000      -6.022257      -163.8740
  24   2.0000      -1.000361       -27.2212
  25   2.0000      -0.980311       -26.6756
  26   2.0000      -0.915246       -24.9051
  27   2.0000      -0.904806       -24.6210
  28   2.0000      -0.870968       -23.7002
  29   2.0000      -0.853450       -23.2236
  30   2.0000      -0.840075       -22.8596
  31   2.0000      -0.813663       -22.1409
  32   2.0000      -0.781850       -21.2752
  33   2.0000      -0.769666       -20.9437
  34   2.0000      -0.704289       -19.1647
  35   2.0000      -0.703319       -19.1383
  36   2.0000      -0.699621       -19.0377
  37   2.0000      -0.655401       -17.8344
  38   2.0000      -0.642695       -17.4886
  39   2.0000      -0.620182       -16.8760
  40   2.0000      -0.597123       -16.2485
  41   2.0000      -0.570978       -15.5371
  42   2.0000      -0.567511       -15.4428
  43   2.0000      -0.559062       -15.2129
  44   2.0000      -0.530182       -14.4270
  45   2.0000      -0.524003       -14.2589
  46   2.0000      -0.521785       -14.1985
  47   2.0000      -0.512171       -13.9369
  48   2.0000      -0.507641       -13.8136
  49   2.0000      -0.497627       -13.5411
  50   2.0000      -0.493138       -13.4190
  51   2.0000      -0.473831       -12.8936
  52   2.0000      -0.469732       -12.7821
  53   2.0000      -0.461195       -12.5497
  54   2.0000      -0.454983       -12.3807
  55   2.0000      -0.448676       -12.2091
  56   2.0000      -0.444563       -12.0972
  57   2.0000      -0.440648       -11.9906
  58   2.0000      -0.437111       -11.8944
  59   2.0000      -0.428210       -11.6522
  60   2.0000      -0.415328       -11.3017
  61   2.0000      -0.414512       -11.2795
  62   2.0000      -0.407690       -11.0938
  63   2.0000      -0.352764        -9.5992
  64   2.0000      -0.334905        -9.1132
  65   2.0000      -0.325326        -8.8526
  66   2.0000      -0.284743        -7.7482
  67   0.0000       0.022530         0.6131
  68   0.0000       0.068298         1.8585
  69   0.0000       0.105756         2.8778
  70   0.0000       0.119588         3.2541
  71   0.0000       0.134358         3.6561

MULLIKEN ATOMIC CHARGES
-----------------------
   0 S :    0.102828
   1 C :   -0.122860
   2 C :   -0.066444
   3 C :   -0.020420
   4 C :   -0.117694
   5 H :    0.051706
   6 C :    0.071756
   7 H :    0.014691
   8 H :    0.031664
   9 C :   -0.078993
  10 H :    0.013161
  11 H :    0.012324
  12 C :   -0.026372
  13 H :    0.025094
  14 H :    0.040269
  15 H :    0.033521
  16 S :    0.064303
  17 C :   -0.063545
  18 C :   -0.017525
  19 C :   -0.060774
  20 C :   -0.140854
  21 H :    0.009715
  22 C :    0.051454
  23 H :    0.020020
  24 H :    0.038035
  25 C :   -0.080370
  26 H :    0.026283
  27 H :    0.037971
  28 C :   -0.034479
  29 H :    0.026093
  30 H :    0.024074
  31 H :    0.046176
  32 H :    0.042337
  33 H :    0.046856
Sum of atomic charges:   -0.0000000

LOEWDIN ATOMIC CHARGES
----------------------
   0 S :    0.394258
   1 C :   -0.172613
   2 C :   -0.065546
   3 C :   -0.067227
   4 C :   -0.190843
   5 H :    0.048052
   6 C :   -0.029332
   7 H :    0.031987
   8 H :    0.027959
   9 C :   -0.041544
  10 H :    0.024676
  11 H :    0.015363
  12 C :   -0.060353
  13 H :    0.022110
  14 H :    0.029002
  15 H :    0.027385
  16 S :    0.367067
  17 C :   -0.173309
  18 C :   -0.073372
  19 C :   -0.052716
  20 C :   -0.175305
  21 H :    0.026432
  22 C :   -0.036722
  23 H :    0.027424
  24 H :    0.034389
  25 C :   -0.039435
  26 H :    0.021782
  27 H :    0.026548
  28 C :   -0.062909
  29 H :    0.025369
  30 H :    0.024712
  31 H :    0.028874
  32 H :    0.016097
  33 H :    0.021740

  Mayer bond orders larger than 0.100000
B(  0-S ,  1-C ) :   1.1558 B(  0-S ,  4-C ) :   1.1430 B(  1-C ,  2-C ) :   1.5701
B(  1-C ,  4-C ) :   0.1061 B(  1-C , 32-H ) :   0.9787 B(  2-C ,  3-C ) :   1.2640
B(  2-C ,  6-C ) :   1.0250 B(  3-C ,  4-C ) :   1.5524 B(  3-C ,  5-H ) :   0.9746
B(  4-C , 20-C ) :   1.0565 B(  6-C ,  7-H ) :   0.9400 B(  6-C ,  8-H ) :   0.9492
B(  6-C ,  9-C ) :   1.0456 B(  9-C , 10-H ) :   0.9467 B(  9-C , 11-H ) :   0.9622
B(  9-C , 12-C ) :   1.0944 B( 12-C , 13-H ) :   0.9721 B( 12-C , 14-H ) :   0.9739
B( 12-C , 15-H ) :   0.9725 B( 16-S , 17-C ) :   1.1477 B( 16-S , 20-C ) :   1.1110
B( 17-C , 18-C ) :   1.6234 B( 17-C , 33-H ) :   0.9748 B( 18-C , 19-C ) :   1.2038
B( 18-C , 21-H ) :   0.9989 B( 19-C , 20-C ) :   1.6241 B( 19-C , 22-C ) :   1.0296
B( 22-C , 23-H ) :   0.9373 B( 22-C , 24-H ) :   0.9320 B( 22-C , 25-C ) :   1.0595
B( 25-C , 26-H ) :   0.9517 B( 25-C , 27-H ) :   0.9590 B( 25-C , 28-C ) :   1.0838
B( 28-C , 29-H ) :   0.9742 B( 28-C , 30-H ) :   0.9763 B( 28-C , 31-H ) :   0.9759

Dispersion correction           -0.013447644
FINAL SINGLE POINT ENERGY     -1339.874082982409

DIPOLE MOMENT
-------------
                                X             Y             Z
Electronic contribution:    -18.74397      12.09704     -15.84442
Nuclear contribution   :     19.15647     -12.48095      16.21320
                        -----------------------------------------
Total Dipole Moment    :      0.41250      -0.38390       0.36877
                        -----------------------------------------
Magnitude (a.u.)       :      0.67345
Magnitude (Debye)      :      1.71177

Rotational constants in cm-1:     0.019023     0.007512     0.006058
Rotational constants in MHz :   570.296497   225.209630   181.610119

                             ****ORCA TERMINATED NORMALLY****
TOTAL RUN TIME: 0 days 0 hours 0 minutes 33 seconds 182 msec
