                         Program Version 4.2.1 -  RELEASE  -
|  1> ! wB97X-D3 SP def2-SVP
|  2> %pal
|  3> nprocs 16
|  4> end
|  5>
|  6> * xyz 0 1
|  7> S 	 44.4016 	 7.23834 	 86.9473
|  8> C 	 45.5809 	 8.56504 	 87.073
|  9> C 	 46.0677 	 8.65808 	 88.324
| 10> C 	 45.5154 	 7.69378 	 89.1789
| 11> C 	 44.7479 	 6.68646 	 88.5555
| 12> H 	 45.7137 	 7.57927 	 90.2965
| 13> C 	 46.8705 	 9.82924 	 88.843
| 14> H 	 46.8474 	 9.77862 	 89.9474
| 15> H 	 46.3322 	 10.7523 	 88.5615
| 16> C 	 48.2314 	 10.0421 	 88.0943
| 17> H 	 48.0329 	 10.0402 	 87.0139
| 18> H 	 48.5972 	 11.0551 	 88.372
| 19> C 	 49.2167 	 8.96832 	 88.4515
| 20> H 	 49.348 	 8.85694 	 89.5397
| 21> H 	 48.8486 	 8.10439 	 87.9603
| 22> H 	 50.1997 	 9.23702 	 88.1144
| 23> S 	 42.2494 	 5.35033 	 89.1333
| 24> C 	 42.332 	 3.83335 	 89.9638
| 25> C 	 43.6475 	 3.57965 	 90.3983
| 26> C 	 44.6343 	 4.56494 	 89.9835
| 27> C 	 44.0909 	 5.51185 	 89.162
| 28> H 	 43.9213 	 2.76087 	 90.8921
| 29> C 	 46.1103 	 4.47123 	 90.3984
| 30> H 	 46.1411 	 3.9894 	 91.3364
| 31> H 	 46.3301 	 5.47013 	 90.82
| 32> C 	 47.0202 	 3.90955 	 89.2986
| 33> H 	 46.925 	 4.41031 	 88.4215
| 34> H 	 46.7286 	 2.84328 	 89.0096
| 35> C 	 48.4871 	 3.85538 	 89.7298
| 36> H 	 48.8281 	 4.91009 	 89.8444
| 37> H 	 49.1496 	 3.34038 	 89.0002
| 38> H 	 48.5464 	 3.27777 	 90.682
| 39> H 	 45.8521 	 9.25543 	 86.2656
| 40> H 	 41.5453 	 3.10019 	 89.8329
| 41> *
| 42>
| 43>                          ****END OF INPUT****

CARTESIAN COORDINATES (ANGSTROEM)
---------------------------------
  S     44.401600    7.238340   86.947300
  C     45.580900    8.565040   87.073000
  C     46.067700    8.658080   88.324000
  C     45.515400    7.693780   89.178900
  C     44.747900    6.686460   88.555500
  H     45.713700    7.579270   90.296500
  C     46.870500    9.829240   88.843000
  H     46.847400    9.778620   89.947400
  H     46.332200   10.752300   88.561500
  C     48.231400   10.042100   88.094300
  H     48.032900   10.040200   87.013900
  H     48.597200   11.055100   88.372000
  C     49.216700    8.968320   88.451500
  H     49.348000    8.856940   89.539700
  H     48.848600    8.104390   87.960300
  H     50.199700    9.237020   88.114400
  S     42.249400    5.350330   89.133300
  C     42.332000    3.833350   89.963800
  C     43.647500    3.579650   90.398300
  C     44.634300    4.564940   89.983500
  C     44.090900    5.511850   89.162000
  H     43.921300    2.760870   90.892100
  C     46.110300    4.471230   90.398400
  H     46.141100    3.989400   91.336400
  H     46.330100    5.470130   90.820000
  C     47.020200    3.909550   89.298600
  H     46.925000    4.410310   88.421500
  H     46.728600    2.843280   89.009600
  C     48.487100    3.855380   89.729800
  H     48.828100    4.910090   89.844400
  H     49.149600    3.340380   89.000200
  H     48.546400    3.277770   90.682000
  H     45.852100    9.255430   86.265600
  H     41.545300    3.100190   89.832900

 Total Charge           Charge          ....    0
 Multiplicity           Mult            ....    1
 Number of Electrons    NEL             ....  134
 Basis Dimension        Dim             ....  322

ORBITAL ENERGIES
----------------

  NO   OCC          E(Eh)            E(eV)
   0   2.0000     -88.966927     -2420.9132
   1   2.0000     -88.962249     -2420.7859
   2   2.0000     -10.332210      -281.1537
   3   2.0000     -10.331872      -281.1445
   4   2.0000     -10.320287      -280.8293
   5   2.0000     -10.314822      -280.6806
   6   2.0000     -10.305167      -280.4178
   7   2.0000     -10.300212      -280.2830
   8   2.0000     -10.296033      -280.1693
   9   2.0000     -10.295752      -280.1617
  10   2.0000     -10.294050      -280.1153
  11   2.0000     -10.292283      -280.0672
  12   2.0000     -10.290427      -280.0168
  13   2.0000     -10.284651      -279.8596
  14   2.0000     -10.283323      -279.8234
  15   2.0000     -10.270593      -279.4770
  16   2.0000      -8.081353      -219.9048
  17   2.0000      -8.076222      -219.7652
  18   2.0000      -6.039850      -164.3527
  19   2.0000      -6.035816      -164.2429
  20   2.0000      -6.034894      -164.2178
  21   2.0000      -6.032222      -164.1451
  22   2.0000      -6.030914      -164.1095
  23   2.0000      -6.026775      -163.9969
  24   2.0000      -1.003796       -27.3147
  25   2.0000      -0.979854       -26.6632
  26   2.0000      -0.914421       -24.8827
  27   2.0000      -0.908469       -24.7207
  28   2.0000      -0.868484       -23.6327
  29   2.0000      -0.852834       -23.2068
  30   2.0000      -0.841135       -22.8885
  31   2.0000      -0.808095       -21.9894
  32   2.0000      -0.784979       -21.3604
  33   2.0000      -0.775000       -21.0888
  34   2.0000      -0.708157       -19.2699
  35   2.0000      -0.703162       -19.1340
  36   2.0000      -0.692350       -18.8398
  37   2.0000      -0.667635       -18.1673
  38   2.0000      -0.634904       -17.2766
  39   2.0000      -0.608666       -16.5626
  40   2.0000      -0.595032       -16.1916
  41   2.0000      -0.580171       -15.7872
  42   2.0000      -0.562011       -15.2931
  43   2.0000      -0.549787       -14.9605
  44   2.0000      -0.541684       -14.7400
  45   2.0000      -0.532302       -14.4847
  46   2.0000      -0.516695       -14.0600
  47   2.0000      -0.514354       -13.9963
  48   2.0000      -0.503111       -13.6904
  49   2.0000      -0.498582       -13.5671
  50   2.0000      -0.493082       -13.4174
  51   2.0000      -0.478192       -13.0123
  52   2.0000      -0.474411       -12.9094
  53   2.0000      -0.463646       -12.6164
  54   2.0000      -0.454588       -12.3700
  55   2.0000      -0.444497       -12.0954
  56   2.0000      -0.442445       -12.0395
  57   2.0000      -0.437923       -11.9165
  58   2.0000      -0.432415       -11.7666
  59   2.0000      -0.425529       -11.5792
  60   2.0000      -0.419900       -11.4261
  61   2.0000      -0.416797       -11.3416
  62   2.0000      -0.410252       -11.1635
  63   2.0000      -0.340260        -9.2590
  64   2.0000      -0.331330        -9.0160
  65   2.0000      -0.328496        -8.9388
  66   2.0000      -0.294653        -8.0179
  67   0.0000       0.020267         0.5515
  68   0.0000       0.065411         1.7799
  69   0.0000       0.102825         2.7980
  70   0.0000       0.113794         3.0965
  71   0.0000       0.130306         3.5458

MULLIKEN ATOMIC CHARGES
-----------------------
   0 S :    0.109857
   1 C :   -0.139871
   2 C :   -0.058463
   3 C :   -0.000932
   4 C :   -0.183739
   5 H :    0.041539
   6 C :    0.034456
   7 H :    0.029862
   8 H :    0.040787
   9 C :   -0.093608
  10 H :    0.029901
  11 H :    0.029237
  12 C :   -0.011348
  13 H :    0.028115
  14 H :    0.037626
  15 H :    0.023877
  16 S :    0.084108
  17 C :   -0.088727
  18 C :    0.023642
  19 C :   -0.075995
  20 C :   -0.142651
  21 H :   -0.037723
  22 C :    0.116813
  23 H :   -0.005173
  24 H :    0.006057
  25 C :   -0.023136
  26 H :    0.016026
  27 H :    0.030892
  28 C :   -0.069915
  29 H :    0.040494
  30 H :    0.042581
  31 H :    0.034894
  32 H :    0.054917
  33 H :    0.075604
Sum of atomic charges:    0.0000000

LOEWDIN ATOMIC CHARGES
----------------------
   0 S :    0.408074
   1 C :   -0.186895
   2 C :   -0.080080
   3 C :   -0.068480
   4 C :   -0.203592
   5 H :    0.038692
   6 C :   -0.030534
   7 H :    0.030823
   8 H :    0.037115
   9 C :   -0.037107
  10 H :    0.024279
  11 H :    0.022848
  12 C :   -0.061817
  13 H :    0.027261
  14 H :    0.024524
  15 H :    0.022354
  16 S :    0.365337
  17 C :   -0.186863
  18 C :   -0.051318
  19 C :   -0.046906
  20 C :   -0.173854
  21 H :    0.004247
  22 C :   -0.029252
  23 H :    0.024289
  24 H :    0.033380
  25 C :   -0.031237
  26 H :    0.012122
  27 H :    0.033334
  28 C :   -0.069551
  29 H :    0.028295
  30 H :    0.028722
  31 H :    0.027088
  32 H :    0.032009
  33 H :    0.032692

  Mayer bond orders larger than 0.100000
B(  0-S ,  1-C ) :   1.1424 B(  0-S ,  4-C ) :   1.1636 B(  1-C ,  2-C ) :   1.5952
B(  1-C ,  4-C ) :   0.1060 B(  1-C , 32-H ) :   0.9643 B(  2-C ,  3-C ) :   1.2674
B(  2-C ,  6-C ) :   1.0068 B(  3-C ,  4-C ) :   1.5432 B(  3-C ,  5-H ) :   0.9727
B(  4-C , 20-C ) :   1.0486 B(  6-C ,  7-H ) :   0.9521 B(  6-C ,  8-H ) :   0.9429
B(  6-C ,  9-C ) :   1.0609 B(  9-C , 10-H ) :   0.9564 B(  9-C , 11-H ) :   0.9573
B(  9-C , 12-C ) :   1.0773 B( 12-C , 13-H ) :   0.9749 B( 12-C , 14-H ) :   0.9745
B( 12-C , 15-H ) :   0.9719 B( 16-S , 17-C ) :   1.1547 B( 16-S , 20-C ) :   1.1112
B( 17-C , 18-C ) :   1.5947 B( 17-C , 33-H ) :   0.9639 B( 18-C , 19-C ) :   1.2356
B( 18-C , 21-H ) :   1.0049 B( 19-C , 20-C ) :   1.6326 B( 19-C , 22-C ) :   1.0329
B( 22-C , 23-H ) :   0.9221 B( 22-C , 24-H ) :   0.9255 B( 22-C , 25-C ) :   1.0477
B( 25-C , 26-H ) :   0.9581 B( 25-C , 27-H ) :   0.9522 B( 25-C , 28-C ) :   1.0841
B( 28-C , 29-H ) :   0.9752 B( 28-C , 30-H ) :   0.9746 B( 28-C , 31-H ) :   0.9750

Dispersion correction           -0.014645688
FINAL SINGLE POINT ENERGY     -1339.858045870480

DIPOLE MOMENT
-------------
                                X             Y             Z
Electronic contribution:    -29.52032      -3.01620      -6.16858
Nuclear contribution   :     30.15848       3.10239       6.42067
                        -----------------------------------------
Total Dipole Moment    :      0.63816       0.08619       0.25209
                        -----------------------------------------
Magnitude (a.u.)       :      0.69153
Magnitude (Debye)      :      1.75774

Rotational constants in cm-1:     0.018912     0.009228     0.006882
Rotational constants in MHz :   566.980343   276.634543   206.324741

                             ****ORCA TERMINATED NORMALLY****
TOTAL RUN TIME: 0 days 0 hours 0 minutes 31 seconds 64 msec
